Protein in INSANE! Membrane UpperLeaflet>POPC=1.0 LowerLeaflet>POPC=1.0
243843
    1AU     AUC    1  18.435  33.034   7.496
    1AU     AUC    2  18.709  33.051   7.317
    1AU     AUC    3  18.700  33.026   7.667
    1AU     AUC    4  18.151  33.022   7.330
    1AU     AUC    5  18.169  33.061   7.681
    1AU     AUC    6  18.264  33.310   7.493
    1AU     AUC    7  18.614  33.319   7.482
    1AU     AUC    8  18.253  32.760   7.507
    1AU     AUC    9  18.604  32.745   7.495
    1AU     AUC   10  18.440  32.857   7.773
    1AU     AUC   11  18.431  33.223   7.760
    1AU     AUC   12  18.432  32.866   7.221
    1AU     AUC   13  18.444  33.189   7.215
    1AU     AUC   14  19.021  33.063   7.149
    1AU     AUC   15  19.038  33.016   7.508
    1AU     AUC   16  18.990  33.002   7.859
    1AU     AUC   17  17.853  33.003   7.161
    1AU     AUC   18  17.831  33.048   7.526
    1AU     AUC   19  17.888  33.086   7.868
    1AU     AUC   20  18.096  33.610   7.476
    1AU     AUC   21  18.459  33.654   7.452
    1AU     AUC   22  18.791  33.607   7.476
    1AU     AUC   23  18.063  32.480   7.517
    1AU     AUC   24  18.414  32.430   7.491
    1AU     AUC   25  18.775  32.446   7.479
    1AU     AUC   26  18.427  32.679   8.066
    1AU     AUC   27  18.438  33.046   8.094
    1AU     AUC   28  18.458  33.401   8.054
    1AU     AUC   29  18.462  32.692   6.944
    1AU     AUC   30  18.440  33.026   6.882
    1AU     AUC   31  18.419  33.354   6.912
    1AU     AUC   32  18.708  32.814   7.989
    1AU     AUC   33  18.747  33.196   7.980
    1AU     AUC   34  18.767  32.901   6.989
    1AU     AUC   35  18.746  33.223   7.020
    1AU     AUC   36  18.140  32.903   8.015
    1AU     AUC   37  18.157  33.280   7.991
    1AU     AUC   38  18.135  32.832   7.040
    1AU     AUC   39  18.110  33.156   6.989
    1AU     AUC   40  18.957  33.332   7.334
    1AU     AUC   41  18.908  33.301   7.683
    1AU     AUC   42  17.950  33.317   7.306
    1AU     AUC   43  17.962  33.368   7.672
    1AU     AUC   44  18.915  32.739   7.322
    1AU     AUC   45  18.883  32.687   7.680
    1AU     AUC   46  17.923  32.717   7.365
    1AU     AUC   47  17.974  32.771   7.720
    1AU     AUC   48  18.277  33.556   7.762
    1AU     AUC   49  18.627  33.521   7.768
    1AU     AUC   50  18.252  32.555   7.806
    1AU     AUC   51  18.571  32.506   7.773
    1AU     AUC   52  18.252  33.469   7.177
    1AU     AUC   53  18.622  33.520   7.190
    1AU     AUC   54  18.250  32.554   7.208
    1AU     AUC   55  18.643  32.583   7.200
    1AU    AUSL   56  18.971  32.935   8.228
    1AU    AUSL   57  18.705  32.523   8.150
    1AU     AUL   58  18.990  32.531   8.375
    1AU       S   59  19.094  32.179   8.104
    1AU     LIG   60  18.998  31.995   8.463
    1AU     LIG   61  19.069  31.597   8.645
    1AU     LIG   62  19.341  31.390   8.962
    1AU     LIG   63  19.587  31.194   9.281
    1AU       S   64  19.194  32.933   8.350
    1AU     LIG   65  19.036  32.933   8.794
    1AU     LIG   66  19.187  32.963   9.237
    1AU     LIG   67  19.491  32.845   9.581
    1AU     LIG   68  19.865  32.951   9.860
    1AU    AUSL   69  18.572  32.853   8.395
    1AU    AUSL   70  18.315  33.230   8.420
    1AU     AUL   71  18.523  33.167   8.736
    1AU       S   72  18.641  32.780   8.533
    1AU     LIG   73  18.558  32.692   8.934
    1AU     LIG   74  18.835  32.585   9.294
    1AU     LIG   75  19.080  32.527   9.697
    1AU     LIG   76  19.106  32.375  10.152
    1AU       S   77  18.128  32.965   8.637
    1AU     LIG   78  18.171  33.012   9.096
    1AU     LIG   79  17.894  33.018   9.476
    1AU     LIG   80  17.575  33.088   9.819
    1AU     LIG   81  17.510  33.176  10.266
    1AU    AUSL   82  18.636  33.224   8.155
    1AU    AUSL   83  19.075  33.327   8.088
    1AU     AUL   84  18.866  33.241   8.435
    1AU       S   85  18.524  33.617   8.567
    1AU     LIG   86  18.881  33.505   8.865
    1AU     LIG   87  19.095  33.537   9.285
    1AU     LIG   88  19.066  33.682   9.752
    1AU     LIG   89  18.983  33.855  10.200
    1AU       S   90  19.240  33.464   8.268
    1AU     LIG   91  19.660  33.512   8.278
    1AU     LIG   92  19.912  33.727   8.608
    1AU     LIG   93  20.131  33.983   8.931
    1AU     LIG   94  20.329  34.116   9.329
    1AU    AUSL   95  18.963  33.180   6.757
    1AU    AUSL   96  18.731  33.496   6.950
    1AU     AUL   97  18.873  33.549   6.610
    1AU       S   98  18.923  33.223   6.296
    1AU     LIG   99  19.299  33.070   6.111
    1AU     LIG  100  19.358  32.815   5.738
    1AU     LIG  101  19.448  32.758   5.281
    1AU     LIG  102  19.805  32.617   4.997
    1AU       S  103  19.198  33.761   6.876
    1AU     LIG  104  19.222  33.955   6.499
    1AU     LIG  105  19.405  34.132   6.107
    1AU     LIG  106  19.645  34.322   5.763
    1AU     LIG  107  19.871  34.537   5.418
    1AU    AUSL  108  18.745  32.844   6.598
    1AU    AUSL  109  19.120  32.818   6.922
    1AU     AUL  110  19.154  32.944   6.603
    1AU       S  111  19.295  32.509   6.704
    1AU     LIG  112  19.401  32.146   6.397
    1AU     LIG  113  19.636  31.734   6.320
    1AU     LIG  114  19.938  31.442   6.071
    1AU     LIG  115  20.346  31.264   5.868
    1AU       S  116  18.827  33.084   6.295
    1AU     LIG  117  18.925  32.704   6.113
    1AU     LIG  118  18.934  32.527   5.672
    1AU     LIG  119  18.980  32.555   5.195
    1AU     LIG  120  19.196  32.605   4.774
    1AU    AUSL  121  18.540  33.221   6.681
    1AU    AUSL  122  18.334  32.818   6.729
    1AU     AUL  123  18.473  32.837   6.433
    1AU       S  124  18.031  32.834   6.295
    1AU     LIG  125  18.072  32.620   5.911
    1AU     LIG  126  17.814  32.439   5.574
    1AU     LIG  127  17.688  32.501   5.126
    1AU     LIG  128  17.705  32.585   4.650
    1AU       S  129  18.580  33.286   6.345
    1AU     LIG  130  18.643  33.096   5.852
    1AU     LIG  131  18.947  33.005   5.478
    1AU     LIG  132  19.076  33.047   5.024
    1AU     LIG  133  19.003  33.307   4.633
    1AU    AUSL  134  17.912  33.164   8.259
    1AU    AUSL  135  18.179  33.530   8.152
    1AU     AUL  136  18.053  33.447   8.494
    1AU       S  137  17.919  33.012   8.653
    1AU     LIG  138  17.670  32.912   8.990
    1AU     LIG  139  17.409  32.862   9.370
    1AU     LIG  140  17.148  32.785   9.750
    1AU     LIG  141  16.944  32.811  10.180
    1AU       S  142  17.806  33.748   8.224
    1AU     LIG  143  17.848  33.953   8.611
    1AU     LIG  144  17.723  34.205   8.993
    1AU     LIG  145  17.390  34.478   9.177
    1AU     LIG  146  17.128  34.561   9.562
    1AU    AUSL  147  18.218  32.888   8.164
    1AU    AUSL  148  17.806  32.750   8.142
    1AU     AUL  149  17.687  32.986   8.260
    1AU       S  150  17.727  32.539   8.407
    1AU     LIG  151  17.286  32.429   8.238
    1AU     LIG  152  17.023  32.058   8.368
    1AU     LIG  153  16.787  31.843   8.721
    1AU     LIG  154  16.594  31.641   9.098
    1AU       S  155  18.108  32.827   8.550
    1AU     LIG  156  18.042  32.551   8.913
    1AU     LIG  157  17.832  32.534   9.313
    1AU     LIG  158  17.653  32.587   9.738
    1AU     LIG  159  17.448  32.667  10.151
    1AU    AUSL  160  17.909  32.876   6.775
    1AU    AUSL  161  18.117  32.530   6.950
    1AU     AUL  162  18.161  32.522   6.620
    1AU       S  163  17.844  32.752   6.378
    1AU     LIG  164  17.573  32.631   6.058
    1AU     LIG  165  17.421  32.771   5.651
    1AU     LIG  166  17.242  32.748   5.220
    1AU     LIG  167  16.909  32.580   4.919
    1AU       S  168  17.746  32.415   6.789
    1AU     LIG  169  17.808  32.086   6.547
    1AU     LIG  170  17.481  31.820   6.361
    1AU     LIG  171  17.144  31.600   6.130
    1AU     LIG  172  17.062  31.518   5.681
    1AU    AUSL  173  18.131  33.192   6.592
    1AU    AUSL  174  17.776  33.271   6.898
    1AU     AUL  175  17.695  33.106   6.620
    1AU       S  176  17.806  33.547   6.630
    1AU     LIG  177  17.424  33.662   6.487
    1AU     LIG  178  17.181  33.944   6.205
    1AU     LIG  179  17.017  34.152   5.819
    1AU     LIG  180  16.784  34.312   5.423
    1AU       S  181  18.078  33.107   6.336
    1AU     LIG  182  17.826  33.075   5.911
    1AU     LIG  183  17.864  32.936   5.453
    1AU     LIG  184  17.865  32.968   4.980
    1AU     LIG  185  17.998  33.153   4.571
    1AU    AUSL  186  19.223  33.532   7.507
    1AU    AUSL  187  19.124  33.355   7.107
    1AU     AUL  188  19.480  33.653   7.277
    1AU       S  189  19.222  33.526   6.932
    1AU     LIG  190  19.361  33.428   6.521
    1AU     LIG  191  19.645  33.706   6.293
    1AU     LIG  192  19.926  34.012   6.084
    1AU     LIG  193  20.163  34.266   5.772
    1AU       S  194  19.614  33.403   7.660
    1AU     LIG  195  19.991  33.659   7.667
    1AU     LIG  196  20.456  33.770   7.570
    1AU     LIG  197  20.937  33.823   7.499
    1AU     LIG  198  21.232  34.185   7.409
    1AU    AUSL  199  19.393  33.132   7.345
    1AU    AUSL  200  19.349  32.795   7.695
    1AU     AUL  201  19.688  32.852   7.568
    1AU       S  202  19.539  33.217   7.372
    1AU     LIG  203  20.029  33.224   7.397
    1AU     LIG  204  20.525  33.337   7.308
    1AU     LIG  205  20.910  33.550   7.062
    1AU     LIG  206  21.351  33.765   7.097
    1AU       S  207  19.587  32.400   7.685
    1AU     LIG  208  20.048  32.315   7.694
    1AU     LIG  209  20.487  32.112   7.726
    1AU     LIG  210  20.880  31.829   7.818
    1AU     LIG  211  21.362  31.898   7.868
    1AU    AUSL  212  19.144  33.164   7.712
    1AU    AUSL  213  18.889  33.559   7.770
    1AU     AUL  214  19.220  33.598   7.819
    1AU       S  215  19.210  33.777   8.239
    1AU     LIG  216  19.546  34.021   8.391
    1AU     LIG  217  19.868  34.277   8.593
    1AU     LIG  218  20.085  34.657   8.747
    1AU     LIG  219  20.240  35.098   8.668
    1AU       S  220  19.487  33.220   7.818
    1AU     LIG  221  19.936  33.171   7.942
    1AU     LIG  222  20.354  33.309   7.806
    1AU     LIG  223  20.782  33.471   7.851
    1AU     LIG  224  21.250  33.507   7.909
    1AU    AUSL  225  17.774  33.580   7.508
    1AU    AUSL  226  17.853  33.376   7.904
    1AU     AUL  227  17.543  33.689   7.752
    1AU       S  228  17.682  33.551   8.170
    1AU     LIG  229  17.550  33.519   8.598
    1AU     LIG  230  17.353  33.883   8.835
    1AU     LIG  231  17.052  34.093   9.142
    1AU     LIG  232  16.713  34.287   9.418
    1AU       S  233  17.775  33.974   7.437
    1AU     LIG  234  17.319  33.912   7.341
    1AU     LIG  235  16.868  34.123   7.383
    1AU     LIG  236  16.499  34.456   7.469
    1AU     LIG  237  16.300  34.788   7.751
    1AU    AUSL  238  17.721  33.199   7.305
    1AU    AUSL  239  17.850  33.650   7.102
    1AU     AUL  240  17.554  33.500   7.149
    1AU       S  241  17.384  33.022   6.984
    1AU     LIG  242  17.007  33.306   7.051
    1AU     LIG  243  16.558  33.459   6.936
    1AU     LIG  244  16.072  33.531   6.894
    1AU     LIG  245  15.723  33.861   6.962
    1AU       S  246  17.652  33.903   6.893
    1AU     LIG  247  17.525  34.177   6.527
    1AU     LIG  248  17.270  34.481   6.254
    1AU     LIG  249  16.949  34.838   6.244
    1AU     LIG  250  16.731  35.236   6.429
    1AU    AUSL  251  17.522  33.238   7.695
    1AU    AUSL  252  17.489  32.868   7.413
    1AU     AUL  253  17.333  33.201   7.423
    1AU       S  254  17.286  32.795   7.684
    1AU     LIG  255  16.967  32.861   7.367
    1AU     LIG  256  16.514  32.729   7.318
    1AU     LIG  257  16.127  32.448   7.277
    1AU     LIG  258  15.872  32.068   7.153
    1AU       S  259  17.378  33.262   7.923
    1AU     LIG  260  16.962  33.267   7.775
    1AU     LIG  261  16.501  33.412   7.877
    1AU     LIG  262  16.038  33.567   7.786
    1AU     LIG  263  15.650  33.857   7.917
    1AU    AUSL  264  19.122  32.463   7.536
    1AU    AUSL  265  18.971  32.718   7.871
    1AU     AUL  266  19.276  32.620   7.949
    1AU       S  267  19.314  32.308   7.516
    1AU     LIG  268  19.645  31.926   7.529
    1AU     LIG  269  20.114  31.855   7.454
    1AU     LIG  270  20.581  31.752   7.373
    1AU     LIG  271  20.817  31.388   7.499
    1AU       S  272  19.204  32.170   7.964
    1AU     LIG  273  19.465  31.876   8.216
    1AU     LIG  274  19.583  31.679   8.610
    1AU     LIG  275  19.866  31.497   8.928
    1AU     LIG  276  20.271  31.653   9.122
    1AU    AUSL  277  19.096  32.842   7.338
    1AU    AUSL  278  19.060  32.433   7.118
    1AU     AUL  279  19.343  32.670   7.179
    1AU       S  280  19.575  32.404   7.453
    1AU     LIG  281  19.912  32.277   7.203
    1AU     LIG  282  20.384  32.221   7.213
    1AU     LIG  283  20.782  32.073   7.003
    1AU     LIG  284  21.254  32.114   6.914
    1AU       S  285  19.272  32.300   6.873
    1AU     LIG  286  19.303  31.815   6.784
    1AU     LIG  287  19.436  31.357   6.624
    1AU     LIG  288  19.783  31.097   6.417
    1AU     LIG  289  20.168  30.901   6.189
    1AU    AUSL  290  17.694  32.509   7.568
    1AU    AUSL  291  17.796  32.740   7.156
    1AU     AUL  292  17.446  32.571   7.288
    1AU       S  293  17.600  32.539   6.853
    1AU     LIG  294  17.361  32.356   6.473
    1AU     LIG  295  17.010  32.051   6.365
    1AU     LIG  296  16.658  31.791   6.158
    1AU     LIG  297  16.427  31.545   5.826
    1AU       S  298  17.265  32.555   7.727
    1AU     LIG  299  16.876  32.388   7.536
    1AU     LIG  300  16.475  32.141   7.489
    1AU     LIG  301  16.038  32.064   7.645
    1AU     LIG  302  15.684  31.751   7.553
    1AU    AUSL  303  17.755  32.894   7.755
    1AU    AUSL  304  18.016  32.523   7.847
    1AU     AUL  305  17.684  32.485   7.915
    1AU       S  306  17.755  32.327   8.347
    1AU     LIG  307  17.596  32.004   8.118
    1AU     LIG  308  17.304  31.664   8.164
    1AU     LIG  309  16.961  31.476   8.410
    1AU     LIG  310  16.632  31.311   8.698
    1AU       S  311  17.344  32.797   7.869
    1AU     LIG  312  16.818  32.785   7.863
    1AU     LIG  313  16.411  32.556   7.786
    1AU     LIG  314  15.963  32.572   7.889
    1AU     LIG  315  15.601  32.261   8.009
    1AU    AUSL  316  18.467  33.719   7.901
    1AU    AUSL  317  18.022  33.753   7.813
    1AU     AUL  318  18.269  33.842   8.178
    1AU       S  319  17.890  33.962   7.930
    1AU     LIG  320  17.556  34.168   8.218
    1AU     LIG  321  17.425  34.386   8.619
    1AU     LIG  322  17.320  34.826   8.779
    1AU     LIG  323  16.982  35.158   8.771
    1AU       S  324  18.496  34.180   7.958
    1AU     LIG  325  18.652  34.151   8.345
    1AU     LIG  326  18.667  34.585   8.492
    1AU     LIG  327  18.686  35.025   8.650
    1AU     LIG  328  18.527  35.336   8.969
    1AU    AUSL  329  18.294  33.968   7.587
    1AU    AUSL  330  18.574  33.935   7.223
    1AU     AUL  331  18.252  34.188   7.347
    1AU       S  332  18.347  34.193   7.807
    1AU     LIG  333  18.444  34.662   7.987
    1AU     LIG  334  18.372  35.050   8.240
    1AU     LIG  335  18.118  35.452   8.338
    1AU     LIG  336  18.097  35.936   8.372
    1AU       S  337  18.545  34.262   6.995
    1AU     LIG  338  18.906  34.501   6.924
    1AU     LIG  339  18.934  34.962   6.817
    1AU     LIG  340  19.163  35.386   6.875
    1AU     LIG  341  19.275  35.835   6.761
    1AU    AUSL  342  18.735  33.916   7.618
    1AU    AUSL  343  18.760  33.622   8.181
    1AU     AUL  344  18.846  33.881   7.956
    1AU       S  345  18.989  33.707   8.390
    1AU     LIG  346  19.344  33.678   8.720
    1AU     LIG  347  19.606  33.987   8.941
    1AU     LIG  348  19.828  34.368   9.111
    1AU     LIG  349  19.871  34.709   9.428
    1AU       S  350  18.687  34.223   7.657
    1AU     LIG  351  18.914  34.450   8.005
    1AU     LIG  352  18.906  34.900   8.162
    1AU     LIG  353  19.157  35.303   8.168
    1AU     LIG  354  19.317  35.746   8.144
    1AU    AUSL  355  18.397  32.310   7.938
    1AU    AUSL  356  18.805  32.329   7.776
    1AU     AUL  357  18.632  32.205   8.164
    1AU       S  358  18.395  31.845   7.991
    1AU     LIG  359  18.474  31.447   8.220
    1AU     LIG  360  18.445  31.031   8.463
    1AU     LIG  361  18.406  30.587   8.630
    1AU     LIG  362  18.636  30.202   8.767
    1AU       S  363  18.962  32.111   7.828
    1AU     LIG  364  18.978  31.676   8.055
    1AU     LIG  365  19.332  31.383   8.257
    1AU     LIG  366  19.629  31.156   8.576
    1AU     LIG  367  19.964  30.804   8.664
    1AU    AUSL  368  18.083  32.160   7.656
    1AU    AUSL  369  18.191  32.486   8.254
    1AU     AUL  370  18.063  32.192   8.022
    1AU       S  371  18.207  31.784   7.831
    1AU     LIG  372  17.964  31.562   8.109
    1AU     LIG  373  18.039  31.108   8.157
    1AU     LIG  374  18.151  30.651   8.169
    1AU     LIG  375  17.968  30.224   8.056
    1AU       S  376  18.001  32.364   8.460
    1AU     LIG  377  17.748  31.952   8.642
    1AU     LIG  378  17.321  31.756   8.680
    1AU     LIG  379  17.067  31.459   8.937
    1AU     LIG  380  16.882  31.276   9.334
    1AU    AUSL  381  18.515  32.083   7.595
    1AU    AUSL  382  18.282  32.323   7.314
    1AU     AUL  383  18.169  31.975   7.408
    1AU       S  384  18.538  31.883   7.158
    1AU     LIG  385  18.195  31.570   7.115
    1AU     LIG  386  18.190  31.133   7.041
    1AU     LIG  387  18.176  30.698   6.876
    1AU     LIG  388  18.197  30.276   6.648
    1AU       S  389  18.530  31.876   7.731
    1AU     LIG  390  18.616  31.421   7.730
    1AU     LIG  391  18.499  30.997   7.928
    1AU     LIG  392  18.667  30.658   8.198
    1AU     LIG  393  18.907  30.254   8.292
    1AU    AUSL  394  18.410  33.751   6.860
    1AU    AUSL  395  18.925  33.709   7.267
    1AU     AUL  396  18.747  33.863   6.919
    1AU       S  397  18.375  34.019   6.673
    1AU     LIG  398  18.756  34.204   6.529
    1AU     LIG  399  18.870  34.636   6.412
    1AU     LIG  400  18.687  35.024   6.225
    1AU     LIG  401  18.597  35.246   5.810
    1AU       S  402  19.114  33.906   7.180
    1AU     LIG  403  19.492  34.136   6.946
    1AU     LIG  404  19.702  34.203   6.521
    1AU     LIG  405  19.872  34.521   6.198
    1AU     LIG  406  19.972  35.002   6.161
    1AU    AUSL  407  18.225  33.700   7.278
    1AU    AUSL  408  18.179  33.418   6.940
    1AU     AUL  409  18.096  33.858   7.024
    1AU       S  410  18.337  34.221   6.884
    1AU     LIG  411  18.454  34.659   6.711
    1AU     LIG  412  18.428  35.116   6.674
    1AU     LIG  413  18.104  35.459   6.655
    1AU     LIG  414  17.980  35.905   6.659
    1AU       S  415  17.984  33.646   6.632
    1AU     LIG  416  17.882  33.908   6.274
    1AU     LIG  417  17.596  34.163   5.994
    1AU     LIG  418  17.383  34.501   5.733
    1AU     LIG  419  17.168  34.657   5.332
    1AU    AUSL  420  18.468  32.292   6.922
    1AU    AUSL  421  17.871  32.314   7.236
    1AU     AUL  422  18.130  32.161   6.978
    1AU       S  423  17.671  32.265   7.012
    1AU     LIG  424  17.354  31.989   6.833
    1AU     LIG  425  17.082  31.629   6.653
    1AU     LIG  426  16.732  31.371   6.439
    1AU     LIG  427  16.442  31.080   6.183
    1AU       S  428  18.530  31.899   6.954
    1AU     LIG  429  18.544  31.509   6.721
    1AU     LIG  430  18.472  31.061   6.608
    1AU     LIG  431  18.356  30.687   6.376
    1AU     LIG  432  18.554  30.302   6.215
    1AU    AUSL  433  18.709  32.307   7.301
    1AU    AUSL  434  18.714  32.630   6.951
    1AU     AUL  435  18.811  32.262   6.930
    1AU       S  436  18.782  31.915   7.245
    1AU     LIG  437  18.686  31.397   7.205
    1AU     LIG  438  18.652  30.910   7.065
    1AU     LIG  439  18.637  30.517   6.772
    1AU     LIG  440  18.967  30.317   6.535
    1AU       S  441  19.036  32.467   6.595
    1AU     LIG  442  18.913  32.018   6.510
    1AU     LIG  443  19.119  31.635   6.320
    1AU     LIG  444  19.413  31.316   6.103
    1AU     LIG  445  19.704  30.990   5.914
    2AU     AUC  446  25.223  12.365   7.497
    2AU     AUC  447  25.495  12.382   7.316
    2AU     AUC  448  25.489  12.351   7.668
    2AU     AUC  449  24.939  12.358   7.332
    2AU     AUC  450  24.958  12.392   7.683
    2AU     AUC  451  25.054  12.643   7.498
    2AU     AUC  452  25.406  12.648   7.486
    2AU     AUC  453  25.039  12.094   7.504
    2AU     AUC  454  25.389  12.074   7.492
    2AU     AUC  455  25.226  12.186   7.773
    2AU     AUC  456  25.221  12.551   7.763
    2AU     AUC  457  25.218  12.201   7.218
    2AU     AUC  458  25.233  12.524   7.219
    2AU     AUC  459  25.806  12.394   7.147
    2AU     AUC  460  25.825  12.341   7.506
    2AU     AUC  461  25.779  12.324   7.857
    2AU     AUC  462  24.639  12.345   7.163
    2AU     AUC  463  24.619  12.386   7.528
    2AU     AUC  464  24.677  12.418   7.870
    2AU     AUC  465  24.891  12.944   7.486
    2AU     AUC  466  25.254  12.985   7.458
    2AU     AUC  467  25.587  12.934   7.481
    2AU     AUC  468  24.846  11.816   7.510
    2AU     AUC  469  25.197  11.763   7.484
    2AU     AUC  470  25.557  11.774   7.471
    2AU     AUC  471  25.211  12.005   8.064
    2AU     AUC  472  25.227  12.370   8.095
    2AU     AUC  473  25.249  12.726   8.059
    2AU     AUC  474  25.245  12.031   6.940
    2AU     AUC  475  25.225  12.366   6.883
    2AU     AUC  476  25.208  12.693   6.918
    2AU     AUC  477  25.496  12.138   7.987
    2AU     AUC  478  25.538  12.519   7.982
    2AU     AUC  479  25.550  12.237   6.985
    2AU     AUC  480  25.534  12.559   7.022
    2AU     AUC  481  24.925  12.231   8.016
    2AU     AUC  482  24.948  12.608   7.997
    2AU     AUC  483  24.919  12.172   7.039
    2AU     AUC  484  24.897  12.498   6.993
    2AU     AUC  485  25.748  12.660   7.336
    2AU     AUC  486  25.700  12.625   7.684
    2AU     AUC  487  24.739  12.657   7.314
    2AU     AUC  488  24.754  12.702   7.679
    2AU     AUC  489  25.698  12.068   7.317
    2AU     AUC  490  25.669  12.012   7.678
    2AU     AUC  491  24.707  12.056   7.363
    2AU     AUC  492  24.759  12.106   7.718
    2AU     AUC  493  25.070  12.885   7.770
    2AU     AUC  494  25.422  12.845   7.772
    2AU     AUC  495  25.035  11.886   7.800
    2AU     AUC  496  25.356  11.835   7.768
    2AU     AUC  497  25.044  12.803   7.185
    2AU     AUC  498  25.415  12.854   7.195
    2AU     AUC  499  25.032  11.891   7.202
    2AU     AUC  500  25.426  11.915   7.192
    2AU    AUSL  501  25.759  12.252   8.228
    2AU    AUSL  502  25.492  11.848   8.146
    2AU     AUL  503  25.764  11.847   8.395
    2AU       S  504  25.882  11.522   8.100
    2AU     LIG  505  25.774  11.306   8.446
    2AU     LIG  506  25.948  10.980   8.700
    2AU     LIG  507  26.201  10.779   9.033
    2AU     LIG  508  26.226  10.732   9.506
    2AU       S  509  25.974  12.242   8.339
    2AU     LIG  510  25.825  12.225   8.789
    2AU     LIG  511  26.030  12.182   9.225
    2AU     LIG  512  26.355  12.061   9.560
    2AU     LIG  513  26.710  12.026   9.882
    2AU    AUSL  514  25.359  12.176   8.393
    2AU    AUSL  515  25.106  12.553   8.420
    2AU     AUL  516  25.317  12.496   8.738
    2AU       S  517  25.415  12.110   8.525
    2AU     LIG  518  25.327  12.018   8.924
    2AU     LIG  519  25.622  11.867   9.254
    2AU     LIG  520  25.906  11.782   9.626
    2AU     LIG  521  25.964  11.560  10.050
    2AU       S  522  24.924  12.288   8.650
    2AU     LIG  523  24.838  12.334   9.105
    2AU     LIG  524  24.636  12.331   9.535
    2AU     LIG  525  24.455  12.351   9.959
    2AU     LIG  526  24.377  12.393  10.410
    2AU    AUSL  527  25.428  12.547   8.156
    2AU    AUSL  528  25.869  12.644   8.090
    2AU     AUL  529  25.661  12.559   8.438
    2AU       S  530  25.309  12.943   8.565
    2AU     LIG  531  25.664  12.848   8.861
    2AU     LIG  532  25.889  12.962   9.259
    2AU     LIG  533  25.866  13.072   9.732
    2AU     LIG  534  25.905  13.037  10.208
    2AU       S  535  26.040  12.778   8.273
    2AU     LIG  536  26.466  12.870   8.282
    2AU     LIG  537  26.721  13.096   8.612
    2AU     LIG  538  26.925  13.366   8.955
    2AU     LIG  539  27.087  13.699   9.259
    2AU    AUSL  540  25.748  12.518   6.756
    2AU    AUSL  541  25.524  12.834   6.958
    2AU     AUL  542  25.656  12.896   6.619
    2AU       S  543  25.698  12.568   6.304
    2AU     LIG  544  26.088  12.431   6.128
    2AU     LIG  545  26.188  12.134   5.820
    2AU     LIG  546  26.243  12.066   5.381
    2AU     LIG  547  26.414  12.074   4.949
    2AU       S  548  25.993  13.093   6.881
    2AU     LIG  549  26.012  13.322   6.502
    2AU     LIG  550  26.210  13.517   6.107
    2AU     LIG  551  26.454  13.678   5.734
    2AU     LIG  552  26.541  13.954   5.360
    2AU    AUSL  553  25.524  12.187   6.594
    2AU    AUSL  554  25.903  12.154   6.918
    2AU     AUL  555  25.940  12.288   6.604
    2AU       S  556  26.067  11.850   6.694
    2AU     LIG  557  26.187  11.534   6.356
    2AU     LIG  558  26.441  11.145   6.270
    2AU     LIG  559  26.728  10.852   6.034
    2AU     LIG  560  27.062  10.835   5.698
    2AU       S  561  25.614  12.411   6.291
    2AU     LIG  562  25.734  12.037   6.094
    2AU     LIG  563  25.804  11.831   5.654
    2AU     LIG  564  25.846  11.819   5.171
    2AU     LIG  565  25.969  11.621   4.748
    2AU    AUSL  566  25.325  12.565   6.685
    2AU    AUSL  567  25.115  12.163   6.729
    2AU     AUL  568  25.246  12.188   6.430
    2AU       S  569  24.798  12.189   6.306
    2AU     LIG  570  24.967  11.978   6.000
    2AU     LIG  571  24.744  11.845   5.625
    2AU     LIG  572  24.522  11.803   5.214
    2AU     LIG  573  24.359  11.845   4.775
    2AU       S  574  25.367  12.633   6.347
    2AU     LIG  575  25.430  12.440   5.852
    2AU     LIG  576  25.781  12.324   5.516
    2AU     LIG  577  25.938  12.328   5.050
    2AU     LIG  578  25.936  12.536   4.614
    2AU    AUSL  579  24.702  12.488   8.263
    2AU    AUSL  580  24.969  12.864   8.166
    2AU     AUL  581  24.834  12.753   8.510
    2AU       S  582  24.743  12.277   8.606
    2AU     LIG  583  24.419  12.411   8.788
    2AU     LIG  584  24.268  12.235   9.185
    2AU     LIG  585  24.136  12.123   9.623
    2AU     LIG  586  23.934  12.218  10.042
    2AU       S  587  24.616  13.071   8.235
    2AU     LIG  588  24.767  13.271   8.575
    2AU     LIG  589  24.566  13.491   8.922
    2AU     LIG  590  24.228  13.732   9.150
    2AU     LIG  591  24.083  14.139   9.352
    2AU    AUSL  592  25.004  12.210   8.164
    2AU    AUSL  593  24.589  12.079   8.139
    2AU     AUL  594  24.462  12.322   8.252
    2AU       S  595  24.500  11.871   8.397
    2AU     LIG  596  24.054  11.769   8.228
    2AU     LIG  597  23.774  11.385   8.314
    2AU     LIG  598  23.549  11.020   8.538
    2AU     LIG  599  23.369  10.883   8.955
    2AU       S  600  24.902  12.145   8.546
    2AU     LIG  601  24.817  11.864   8.910
    2AU     LIG  602  24.616  11.865   9.316
    2AU     LIG  603  24.555  11.865   9.778
    2AU     LIG  604  24.320  11.899  10.182
    2AU    AUSL  605  24.691  12.226   6.778
    2AU    AUSL  606  24.897  11.871   6.944
    2AU     AUL  607  24.941  11.869   6.613
    2AU       S  608  24.611  12.099   6.386
    2AU     LIG  609  24.418  11.918   6.033
    2AU     LIG  610  24.241  12.009   5.607
    2AU     LIG  611  24.036  12.002   5.175
    2AU     LIG  612  23.655  12.094   4.902
    2AU       S  613  24.527  11.759   6.783
    2AU     LIG  614  24.605  11.405   6.561
    2AU     LIG  615  24.308  11.086   6.408
    2AU     LIG  616  23.999  10.776   6.255
    2AU     LIG  617  23.689  10.559   5.990
    2AU    AUSL  618  24.916  12.542   6.596
    2AU    AUSL  619  24.561  12.621   6.903
    2AU     AUL  620  24.482  12.466   6.621
    2AU       S  621  24.597  12.905   6.642
    2AU     LIG  622  24.179  12.950   6.620
    2AU     LIG  623  23.945  13.212   6.299
    2AU     LIG  624  23.713  13.372   5.918
    2AU     LIG  625  23.466  13.644   5.613
    2AU       S  626  24.854  12.452   6.325
    2AU     LIG  627  24.640  12.368   5.877
    2AU     LIG  628  24.619  12.297   5.415
    2AU     LIG  629  24.429  12.309   4.996
    2AU     LIG  630  24.367  12.550   4.586
    2AU    AUSL  631  26.019  12.852   7.511
    2AU    AUSL  632  25.914  12.684   7.108
    2AU     AUL  633  26.282  12.961   7.279
    2AU       S  634  26.014  12.859   6.932
    2AU     LIG  635  26.147  12.788   6.510
    2AU     LIG  636  26.439  13.087   6.293
    2AU     LIG  637  26.730  13.397   6.077
    2AU     LIG  638  26.956  13.525   5.676
    2AU       S  639  26.404  12.706   7.664
    2AU     LIG  640  26.791  12.841   7.506
    2AU     LIG  641  27.193  13.075   7.506
    2AU     LIG  642  27.567  13.357   7.404
    2AU     LIG  643  27.768  13.799   7.412
    2AU    AUSL  644  26.179  12.451   7.342
    2AU    AUSL  645  26.137  12.115   7.683
    2AU     AUL  646  26.482  12.170   7.567
    2AU       S  647  26.310  12.517   7.361
    2AU     LIG  648  26.753  12.410   7.233
    2AU     LIG  649  27.164  12.616   7.219
    2AU     LIG  650  27.580  12.834   7.282
    2AU     LIG  651  28.027  12.785   7.277
    2AU       S  652  26.365  11.728   7.661
    2AU     LIG  653  26.780  11.790   7.833
    2AU     LIG  654  27.246  11.667   7.793
    2AU     LIG  655  27.701  11.470   7.771
    2AU     LIG  656  28.168  11.436   7.903
    2AU    AUSL  657  25.933  12.483   7.712
    2AU    AUSL  658  25.686  12.882   7.775
    2AU     AUL  659  26.017  12.914   7.824
    2AU       S  660  26.008  13.096   8.242
    2AU     LIG  661  26.321  13.366   8.415
    2AU     LIG  662  26.642  13.627   8.616
    2AU     LIG  663  26.921  13.931   8.832
    2AU     LIG  664  27.096  14.337   8.995
    2AU       S  665  26.283  12.534   7.818
    2AU     LIG  666  26.786  12.470   7.870
    2AU     LIG  667  27.247  12.615   7.746
    2AU     LIG  668  27.750  12.674   7.760
    2AU     LIG  669  28.151  12.908   7.875
    2AU    AUSL  670  24.566  12.918   7.519
    2AU    AUSL  671  24.645  12.708   7.912
    2AU     AUL  672  24.342  13.029   7.767
    2AU       S  673  24.467  12.878   8.189
    2AU     LIG  674  24.357  12.941   8.641
    2AU     LIG  675  24.108  13.269   8.867
    2AU     LIG  676  23.775  13.469   9.127
    2AU     LIG  677  23.398  13.422   9.409
    2AU       S  678  24.583  13.318   7.456
    2AU     LIG  679  24.144  13.275   7.353
    2AU     LIG  680  23.760  13.570   7.392
    2AU     LIG  681  23.438  13.933   7.441
    2AU     LIG  682  23.004  14.118   7.458
    2AU    AUSL  683  24.513  12.541   7.309
    2AU    AUSL  684  24.644  12.995   7.115
    2AU     AUL  685  24.349  12.849   7.155
    2AU       S  686  24.174  12.364   6.982
    2AU     LIG  687  23.857  12.705   7.023
    2AU     LIG  688  23.383  12.814   7.068
    2AU     LIG  689  22.889  12.859   7.023
    2AU     LIG  690  22.460  13.079   7.026
    2AU       S  691  24.453  13.259   6.917
    2AU     LIG  692  24.324  13.482   6.537
    2AU     LIG  693  24.232  13.875   6.279
    2AU     LIG  694  23.946  14.247   6.234
    2AU     LIG  695  23.672  14.594   6.118
    2AU    AUSL  696  24.312  12.579   7.699
    2AU    AUSL  697  24.275  12.213   7.412
    2AU     AUL  698  24.128  12.546   7.421
    2AU       S  699  24.071  12.140   7.678
    2AU     LIG  700  23.755  12.227   7.352
    2AU     LIG  701  23.345  12.057   7.206
    2AU     LIG  702  22.888  11.890   7.235
    2AU     LIG  703  22.499  11.608   7.256
    2AU       S  704  24.163  12.604   7.920
    2AU     LIG  705  23.745  12.597   7.742
    2AU     LIG  706  23.302  12.772   7.807
    2AU     LIG  707  22.877  12.933   7.981
    2AU     LIG  708  22.444  13.133   8.059
    2AU    AUSL  709  25.903  11.787   7.528
    2AU    AUSL  710  25.762  12.039   7.869
    2AU     AUL  711  26.072  11.951   7.940
    2AU       S  712  26.085  11.630   7.513
    2AU     LIG  713  26.377  11.255   7.697
    2AU     LIG  714  26.865  11.322   7.613
    2AU     LIG  715  27.332  11.172   7.554
    2AU     LIG  716  27.732  10.929   7.410
    2AU       S  717  25.990  11.506   7.968
    2AU     LIG  718  26.278  11.259   8.256
    2AU     LIG  719  26.457  11.037   8.635
    2AU     LIG  720  26.715  10.837   8.965
    2AU     LIG  721  27.062  10.903   9.275
    2AU    AUSL  722  25.877  12.167   7.334
    2AU    AUSL  723  25.841  11.765   7.110
    2AU     AUL  724  26.126  11.996   7.175
    2AU       S  725  26.355  11.714   7.438
    2AU     LIG  726  26.789  11.794   7.325
    2AU     LIG  727  27.209  11.588   7.282
    2AU     LIG  728  27.661  11.447   7.214
    2AU     LIG  729  28.047  11.541   6.954
    2AU       S  730  26.047  11.645   6.851
    2AU     LIG  731  26.136  11.186   6.737
    2AU     LIG  732  26.303  10.753   6.573
    2AU     LIG  733  26.619  10.454   6.354
    2AU     LIG  734  27.080  10.311   6.256
    2AU    AUSL  735  24.474  11.849   7.562
    2AU    AUSL  736  24.580  12.081   7.156
    2AU     AUL  737  24.228  11.917   7.280
    2AU       S  738  24.384  11.882   6.847
    2AU     LIG  739  24.138  11.633   6.496
    2AU     LIG  740  23.823  11.270   6.410
    2AU     LIG  741  23.499  10.906   6.334
    2AU     LIG  742  23.205  10.738   5.989
    2AU       S  743  24.049  11.900   7.720
    2AU     LIG  744  23.694  11.744   7.486
    2AU     LIG  745  23.254  11.581   7.424
    2AU     LIG  746  22.884  11.284   7.447
    2AU     LIG  747  22.769  10.973   7.794
    2AU    AUSL  748  24.541  12.231   7.754
    2AU    AUSL  749  24.798  11.858   7.837
    2AU     AUL  750  24.464  11.821   7.905
    2AU       S  751  24.518  11.646   8.330
    2AU     LIG  752  24.272  11.280   8.179
    2AU     LIG  753  23.939  10.902   8.191
    2AU     LIG  754  23.725  10.540   8.417
    2AU     LIG  755  23.415  10.418   8.737
    2AU       S  756  24.129  12.138   7.866
    2AU     LIG  757  23.610  12.112   7.854
    2AU     LIG  758  23.171  12.023   7.686
    2AU     LIG  759  22.727  11.855   7.720
    2AU     LIG  760  22.414  11.782   8.063
    2AU    AUSL  761  25.261  13.037   7.907
    2AU    AUSL  762  24.820  13.083   7.821
    2AU     AUL  763  25.080  13.176   8.177
    2AU       S  764  24.685  13.294   7.956
    2AU     LIG  765  24.385  13.498   8.283
    2AU     LIG  766  24.195  13.735   8.634
    2AU     LIG  767  24.068  14.144   8.835
    2AU     LIG  768  23.819  14.502   9.036
    2AU       S  769  25.305  13.524   7.965
    2AU     LIG  770  25.308  13.654   8.363
    2AU     LIG  771  25.279  14.091   8.531
    2AU     LIG  772  25.219  14.556   8.656
    2AU     LIG  773  25.001  14.920   8.884
    2AU    AUSL  774  25.093  13.302   7.600
    2AU    AUSL  775  25.373  13.265   7.231
    2AU     AUL  776  25.091  13.532   7.356
    2AU       S  777  25.134  13.519   7.823
    2AU     LIG  778  25.067  13.973   8.028
    2AU     LIG  779  24.969  14.396   8.242
    2AU     LIG  780  24.967  14.871   8.318
    2AU     LIG  781  24.795  15.319   8.352
    2AU       S  782  25.271  13.570   6.934
    2AU     LIG  783  25.629  13.719   7.024
    2AU     LIG  784  25.674  14.143   6.863
    2AU     LIG  785  25.717  14.551   6.643
    2AU     LIG  786  25.780  15.012   6.725
    2AU    AUSL  787  25.529  13.241   7.628
    2AU    AUSL  788  25.557  12.943   8.186
    2AU     AUL  789  25.637  13.203   7.966
    2AU       S  790  25.788  13.023   8.394
    2AU     LIG  791  26.138  12.997   8.725
    2AU     LIG  792  26.392  13.306   8.953
    2AU     LIG  793  26.567  13.695   9.138
    2AU     LIG  794  26.699  14.001   9.462
    2AU       S  795  25.487  13.558   7.678
    2AU     LIG  796  25.579  13.938   7.977
    2AU     LIG  797  25.473  14.376   8.145
    2AU     LIG  798  25.481  14.844   8.278
    2AU     LIG  799  25.586  15.335   8.285
    2AU    AUSL  800  25.179  11.643   7.930
    2AU    AUSL  801  25.588  11.654   7.770
    2AU     AUL  802  25.416  11.532   8.159
    2AU       S  803  25.161  11.192   7.977
    2AU     LIG  804  25.288  10.962   8.297
    2AU     LIG  805  25.110  10.562   8.433
    2AU     LIG  806  25.048  10.109   8.435
    2AU     LIG  807  25.045   9.662   8.435
    2AU       S  808  25.746  11.438   7.827
    2AU     LIG  809  25.862  11.012   8.031
    2AU     LIG  810  26.180  10.746   8.306
    2AU     LIG  811  26.437  10.487   8.645
    2AU     LIG  812  26.656  10.073   8.831
    2AU    AUSL  813  24.864  11.495   7.648
    2AU    AUSL  814  24.964  11.807   8.246
    2AU     AUL  815  24.833  11.528   8.010
    2AU       S  816  24.980  11.120   7.827
    2AU     LIG  817  24.806  10.827   8.098
    2AU     LIG  818  24.752  10.374   8.094
    2AU     LIG  819  24.822   9.921   8.007
    2AU     LIG  820  24.535   9.593   8.109
    2AU       S  821  24.767  11.692   8.451
    2AU     LIG  822  24.525  11.294   8.655
    2AU     LIG  823  24.091  11.094   8.643
    2AU     LIG  824  23.861  10.757   8.858
    2AU     LIG  825  23.746  10.660   9.284
    2AU    AUSL  826  25.295  11.415   7.586
    2AU    AUSL  827  25.063  11.659   7.306
    2AU     AUL  828  24.946  11.312   7.405
    2AU       S  829  25.297  11.220   7.134
    2AU     LIG  830  24.889  10.961   7.059
    2AU     LIG  831  24.793  10.498   7.021
    2AU     LIG  832  24.746  10.025   6.893
    2AU     LIG  833  24.518   9.602   6.862
    2AU       S  834  25.307  11.202   7.727
    2AU     LIG  835  25.317  10.731   7.824
    2AU     LIG  836  25.249  10.287   7.986
    2AU     LIG  837  25.326   9.812   8.009
    2AU     LIG  838  25.491   9.465   8.274
    2AU    AUSL  839  25.201  13.087   6.868
    2AU    AUSL  840  25.725  13.040   7.276
    2AU     AUL  841  25.546  13.209   6.938
    2AU       S  842  25.172  13.324   6.666
    2AU     LIG  843  25.534  13.609   6.518
    2AU     LIG  844  25.579  14.064   6.359
    2AU     LIG  845  25.489  14.418   6.051
    2AU     LIG  846  25.389  14.717   5.680
    2AU       S  847  25.927  13.230   7.182
    2AU     LIG  848  26.312  13.451   6.936
    2AU     LIG  849  26.523  13.584   6.521
    2AU     LIG  850  26.802  13.930   6.293
    2AU     LIG  851  27.084  14.366   6.323
    2AU    AUSL  852  25.020  13.037   7.290
    2AU    AUSL  853  24.968  12.757   6.950
    2AU     AUL  854  24.893  13.195   7.044
    2AU       S  855  25.087  13.561   6.874
    2AU     LIG  856  25.183  13.986   6.688
    2AU     LIG  857  25.224  14.425   6.718
    2AU     LIG  858  25.023  14.830   6.780
    2AU     LIG  859  24.912  15.218   6.572
    2AU       S  860  24.771  12.998   6.645
    2AU     LIG  861  24.672  13.236   6.260
    2AU     LIG  862  24.317  13.434   6.000
    2AU     LIG  863  24.064  13.599   5.621
    2AU     LIG  864  23.805  13.672   5.220
    2AU    AUSL  865  25.246  11.632   6.911
    2AU    AUSL  866  24.652  11.653   7.230
    2AU     AUL  867  24.909  11.501   6.973
    2AU       S  868  24.450  11.608   7.007
    2AU     LIG  869  24.170  11.280   6.867
    2AU     LIG  870  23.901  10.899   6.754
    2AU     LIG  871  23.710  10.500   6.591
    2AU     LIG  872  23.840  10.180   6.298
    2AU       S  873  25.298  11.224   6.910
    2AU     LIG  874  25.226  10.791   6.719
    2AU     LIG  875  25.049  10.361   6.598
    2AU     LIG  876  24.970   9.925   6.421
    2AU     LIG  877  24.936   9.622   6.037
    2AU    AUSL  878  25.490  11.635   7.289
    2AU    AUSL  879  25.497  11.965   6.943
    2AU     AUL  880  25.589  11.587   6.925
    2AU       S  881  25.524  11.227   7.220
    2AU     LIG  882  25.333  10.732   7.225
    2AU     LIG  883  25.250  10.246   7.072
    2AU     LIG  884  25.311   9.747   7.010
    2AU     LIG  885  25.469   9.370   6.747
    2AU       S  886  25.806  11.809   6.592
    2AU     LIG  887  25.716  11.369   6.492
    2AU     LIG  888  25.942  11.014   6.278
    2AU     LIG  889  26.228  10.696   6.060
    2AU     LIG  890  26.411  10.298   5.867
    3AU     AUC  891  32.133  17.236   7.499
    3AU     AUC  892  32.406  17.251   7.320
    3AU     AUC  893  32.399  17.217   7.673
    3AU     AUC  894  31.849  17.229   7.331
    3AU     AUC  895  31.868  17.269   7.679
    3AU     AUC  896  31.968  17.521   7.491
    3AU     AUC  897  32.319  17.516   7.484
    3AU     AUC  898  31.949  16.965   7.508
    3AU     AUC  899  32.300  16.945   7.496
    3AU     AUC  900  32.136  17.057   7.774
    3AU     AUC  901  32.132  17.424   7.761
    3AU     AUC  902  32.127  17.070   7.222
    3AU     AUC  903  32.144  17.392   7.220
    3AU     AUC  904  32.713  17.263   7.151
    3AU     AUC  905  32.737  17.211   7.512
    3AU     AUC  906  32.687  17.187   7.866
    3AU     AUC  907  31.550  17.211   7.163
    3AU     AUC  908  31.530  17.260   7.525
    3AU     AUC  909  31.583  17.300   7.864
    3AU     AUC  910  31.808  17.822   7.471
    3AU     AUC  911  32.173  17.853   7.457
    3AU     AUC  912  32.509  17.796   7.476
    3AU     AUC  913  31.757  16.688   7.517
    3AU     AUC  914  32.109  16.634   7.492
    3AU     AUC  915  32.468  16.649   7.477
    3AU     AUC  916  32.118  16.880   8.065
    3AU     AUC  917  32.129  17.243   8.095
    3AU     AUC  918  32.161  17.599   8.054
    3AU     AUC  919  32.156  16.896   6.945
    3AU     AUC  920  32.134  17.229   6.885
    3AU     AUC  921  32.117  17.559   6.920
    3AU     AUC  922  32.403  17.002   7.993
    3AU     AUC  923  32.442  17.375   7.992
    3AU     AUC  924  32.460  17.105   6.988
    3AU     AUC  925  32.440  17.425   7.023
    3AU     AUC  926  31.833  17.111   8.011
    3AU     AUC  927  31.857  17.489   7.984
    3AU     AUC  928  31.831  17.037   7.041
    3AU     AUC  929  31.808  17.361   6.992
    3AU     AUC  930  32.659  17.533   7.340
    3AU     AUC  931  32.606  17.485   7.691
    3AU     AUC  932  31.649  17.528   7.309
    3AU     AUC  933  31.668  17.582   7.667
    3AU     AUC  934  32.606  16.942   7.319
    3AU     AUC  935  32.584  16.886   7.679
    3AU     AUC  936  31.618  16.926   7.365
    3AU     AUC  937  31.668  16.980   7.719
    3AU     AUC  938  31.995  17.766   7.757
    3AU     AUC  939  32.335  17.712   7.774
    3AU     AUC  940  31.945  16.761   7.805
    3AU     AUC  941  32.268  16.709   7.774
    3AU     AUC  942  31.956  17.677   7.187
    3AU     AUC  943  32.325  17.727   7.192
    3AU     AUC  944  31.944  16.759   7.210
    3AU     AUC  945  32.337  16.784   7.198
    3AU    AUSL  946  32.651  17.106   8.248
    3AU    AUSL  947  32.406  16.720   8.155
    3AU     AUL  948  32.634  16.705   8.465
    3AU       S  949  32.787  16.442   8.123
    3AU     LIG  950  32.660  16.195   8.475
    3AU     LIG  951  32.888  15.941   8.762
    3AU     LIG  952  33.172  15.641   8.968
    3AU     LIG  953  33.442  15.526   9.340
    3AU       S  954  32.847  17.079   8.334
    3AU     LIG  955  32.757  17.115   8.786
    3AU     LIG  956  32.958  17.091   9.210
    3AU     LIG  957  33.222  16.867   9.541
    3AU     LIG  958  33.608  16.752   9.801
    3AU    AUSL  959  32.245  17.041   8.400
    3AU    AUSL  960  32.002  17.435   8.417
    3AU     AUL  961  32.200  17.357   8.744
    3AU       S  962  32.278  16.973   8.527
    3AU     LIG  963  32.331  16.893   8.955
    3AU     LIG  964  32.606  16.723   9.304
    3AU     LIG  965  32.814  16.574   9.715
    3AU     LIG  966  32.898  16.399  10.162
    3AU       S  967  31.793  17.182   8.631
    3AU     LIG  968  31.817  17.203   9.105
    3AU     LIG  969  31.584  17.200   9.523
    3AU     LIG  970  31.473  17.222   9.981
    3AU     LIG  971  31.457  17.325  10.444
    3AU    AUSL  972  32.328  17.406   8.160
    3AU    AUSL  973  32.770  17.494   8.105
    3AU     AUL  974  32.553  17.414   8.449
    3AU       S  975  32.225  17.807   8.582
    3AU     LIG  976  32.582  17.679   8.874
    3AU     LIG  977  32.858  17.787   9.238
    3AU     LIG  978  32.853  17.906   9.706
    3AU     LIG  979  32.823  18.001  10.177
    3AU       S  980  32.944  17.615   8.289
    3AU     LIG  981  33.374  17.707   8.264
    3AU     LIG  982  33.633  17.911   8.604
    3AU     LIG  983  33.844  18.147   8.960
    3AU     LIG  984  33.975  18.402   9.337
    3AU    AUSL  985  32.656  17.396   6.748
    3AU    AUSL  986  32.433  17.705   6.964
    3AU     AUL  987  32.516  17.779   6.621
    3AU       S  988  32.626  17.454   6.319
    3AU     LIG  989  33.001  17.297   6.130
    3AU     LIG  990  33.103  17.008   5.818
    3AU     LIG  991  33.159  16.967   5.375
    3AU     LIG  992  33.319  16.955   4.941
    3AU       S  993  32.900  17.905   6.827
    3AU     LIG  994  32.824  18.152   6.472
    3AU     LIG  995  33.134  18.256   6.157
    3AU     LIG  996  33.449  18.398   5.844
    3AU     LIG  997  33.414  18.615   5.420
    3AU    AUSL  998  32.441  17.053   6.600
    3AU    AUSL  999  32.802  17.029   6.918
    3AU     AUL 1000  32.853  17.156   6.607
    3AU       S 1001  32.994  16.719   6.698
    3AU     LIG 1002  33.149  16.349   6.429
    3AU     LIG 1003  33.399  15.969   6.313
    3AU     LIG 1004  33.678  15.746   6.021
    3AU     LIG 1005  33.986  15.884   5.703
    3AU       S 1006  32.524  17.287   6.293
    3AU     LIG 1007  32.641  16.917   6.092
    3AU     LIG 1008  32.713  16.717   5.650
    3AU     LIG 1009  32.822  16.634   5.185
    3AU     LIG 1010  32.999  16.444   4.776
    3AU    AUSL 1011  32.232  17.424   6.696
    3AU    AUSL 1012  32.029  17.021   6.725
    3AU     AUL 1013  32.171  17.041   6.437
    3AU       S 1014  31.730  17.043   6.301
    3AU     LIG 1015  31.832  16.811   5.957
    3AU     LIG 1016  31.598  16.640   5.613
    3AU     LIG 1017  31.363  16.651   5.209
    3AU     LIG 1018  31.238  16.379   4.824
    3AU       S 1019  32.277  17.487   6.341
    3AU     LIG 1020  32.363  17.325   5.846
    3AU     LIG 1021  32.711  17.219   5.518
    3AU     LIG 1022  32.889  17.294   5.065
    3AU     LIG 1023  32.957  17.615   4.697
    3AU    AUSL 1024  31.602  17.380   8.244
    3AU    AUSL 1025  31.891  17.737   8.137
    3AU     AUL 1026  31.755  17.669   8.472
    3AU       S 1027  31.588  17.264   8.659
    3AU     LIG 1028  31.383  16.957   8.901
    3AU     LIG 1029  31.188  16.931   9.326
    3AU     LIG 1030  31.040  17.035   9.757
    3AU     LIG 1031  30.679  17.015  10.070
    3AU       S 1032  31.518  17.975   8.191
    3AU     LIG 1033  31.650  18.194   8.536
    3AU     LIG 1034  31.541  18.410   8.929
    3AU     LIG 1035  31.195  18.565   9.179
    3AU     LIG 1036  30.978  18.918   9.383
    3AU    AUSL 1037  31.903  17.096   8.158
    3AU    AUSL 1038  31.493  16.959   8.138
    3AU     AUL 1039  31.380  17.192   8.256
    3AU       S 1040  31.415  16.744   8.405
    3AU     LIG 1041  30.980  16.701   8.254
    3AU     LIG 1042  30.710  16.347   8.368
    3AU     LIG 1043  30.513  16.028   8.639
    3AU     LIG 1044  30.232  15.702   8.834
    3AU       S 1045  31.776  17.043   8.545
    3AU     LIG 1046  31.848  16.746   8.890
    3AU     LIG 1047  31.664  16.727   9.315
    3AU     LIG 1048  31.474  16.739   9.754
    3AU     LIG 1049  31.454  16.766  10.233
    3AU    AUSL 1050  31.607  17.081   6.776
    3AU    AUSL 1051  31.814  16.737   6.954
    3AU     AUL 1052  31.858  16.723   6.621
    3AU       S 1053  31.550  16.955   6.370
    3AU     LIG 1054  31.286  16.819   6.070
    3AU     LIG 1055  31.145  16.897   5.652
    3AU     LIG 1056  31.029  17.053   5.236
    3AU     LIG 1057  30.686  17.145   4.923
    3AU       S 1058  31.442  16.621   6.790
    3AU     LIG 1059  31.495  16.274   6.554
    3AU     LIG 1060  31.182  15.976   6.375
    3AU     LIG 1061  30.815  15.743   6.195
    3AU     LIG 1062  30.472  15.634   5.905
    3AU    AUSL 1063  31.826  17.402   6.595
    3AU    AUSL 1064  31.473  17.475   6.900
    3AU     AUL 1065  31.394  17.295   6.625
    3AU       S 1066  31.450  17.742   6.645
    3AU     LIG 1067  31.092  17.945   6.494
    3AU     LIG 1068  30.918  18.217   6.156
    3AU     LIG 1069  30.619  18.272   5.779
    3AU     LIG 1070  30.206  18.337   5.541
    3AU       S 1071  31.774  17.311   6.332
    3AU     LIG 1072  31.541  17.241   5.889
    3AU     LIG 1073  31.541  17.127   5.427
    3AU     LIG 1074  31.439  17.273   4.991
    3AU     LIG 1075  31.528  17.555   4.606
    3AU    AUSL 1076  32.912  17.721   7.519
    3AU    AUSL 1077  32.809  17.529   7.118
    3AU     AUL 1078  33.147  17.790   7.270
    3AU       S 1079  32.963  17.712   6.860
    3AU     LIG 1080  33.114  17.709   6.426
    3AU     LIG 1081  33.500  17.909   6.231
    3AU     LIG 1082  33.864  18.161   6.059
    3AU     LIG 1083  34.138  18.418   5.784
    3AU       S 1084  33.346  17.656   7.685
    3AU     LIG 1085  33.770  17.826   7.591
    3AU     LIG 1086  34.224  17.993   7.535
    3AU     LIG 1087  34.679  18.141   7.506
    3AU     LIG 1088  34.923  18.538   7.553
    3AU    AUSL 1089  33.096  17.336   7.361
    3AU    AUSL 1090  33.054  16.987   7.681
    3AU     AUL 1091  33.354  17.040   7.461
    3AU       S 1092  33.306  17.472   7.593
    3AU     LIG 1093  33.675  17.401   7.332
    3AU     LIG 1094  34.125  17.526   7.313
    3AU     LIG 1095  34.542  17.722   7.223
    3AU     LIG 1096  34.880  18.005   7.046
    3AU       S 1097  33.283  16.593   7.644
    3AU     LIG 1098  33.726  16.465   7.697
    3AU     LIG 1099  34.172  16.279   7.695
    3AU     LIG 1100  34.597  16.072   7.770
    3AU     LIG 1101  35.006  16.072   8.011
    3AU    AUSL 1102  32.841  17.348   7.721
    3AU    AUSL 1103  32.589  17.733   7.790
    3AU     AUL 1104  32.926  17.758   7.843
    3AU       S 1105  32.919  17.933   8.265
    3AU     LIG 1106  33.241  18.201   8.431
    3AU     LIG 1107  33.586  18.446   8.624
    3AU     LIG 1108  33.806  18.826   8.804
    3AU     LIG 1109  33.993  19.267   8.711
    3AU       S 1110  33.209  17.388   7.860
    3AU     LIG 1111  33.710  17.374   7.875
    3AU     LIG 1112  34.156  17.559   7.826
    3AU     LIG 1113  34.621  17.682   7.738
    3AU     LIG 1114  35.072  17.842   7.831
    3AU    AUSL 1115  31.474  17.800   7.504
    3AU    AUSL 1116  31.558  17.602   7.892
    3AU     AUL 1117  31.253  17.911   7.741
    3AU       S 1118  31.388  17.780   8.163
    3AU     LIG 1119  31.284  17.803   8.606
    3AU     LIG 1120  31.105  18.124   8.889
    3AU     LIG 1121  30.741  18.375   9.053
    3AU     LIG 1122  30.398  18.347   9.379
    3AU       S 1123  31.500  18.194   7.426
    3AU     LIG 1124  31.062  18.156   7.338
    3AU     LIG 1125  30.669  18.412   7.366
    3AU     LIG 1126  30.326  18.660   7.582
    3AU     LIG 1127  29.865  18.738   7.473
    3AU    AUSL 1128  31.422  17.414   7.309
    3AU    AUSL 1129  31.548  17.857   7.095
    3AU     AUL 1130  31.255  17.713   7.147
    3AU       S 1131  31.076  17.236   6.985
    3AU     LIG 1132  30.764  17.586   7.033
    3AU     LIG 1133  30.406  17.895   6.990
    3AU     LIG 1134  29.990  18.048   6.830
    3AU     LIG 1135  29.612  18.300   6.752
    3AU       S 1136  31.343  18.126   6.901
    3AU     LIG 1137  31.446  18.518   6.695
    3AU     LIG 1138  31.139  18.759   6.412
    3AU     LIG 1139  30.733  19.041   6.364
    3AU     LIG 1140  30.467  19.429   6.461
    3AU    AUSL 1141  31.223  17.456   7.697
    3AU    AUSL 1142  31.185  17.084   7.411
    3AU     AUL 1143  31.035  17.418   7.425
    3AU       S 1144  30.980  17.015   7.681
    3AU     LIG 1145  30.669  17.081   7.348
    3AU     LIG 1146  30.234  16.891   7.256
    3AU     LIG 1147  29.766  16.702   7.280
    3AU     LIG 1148  29.333  16.742   7.071
    3AU       S 1149  31.084  17.484   7.924
    3AU     LIG 1150  30.665  17.506   7.764
    3AU     LIG 1151  30.256  17.786   7.744
    3AU     LIG 1152  29.811  17.788   7.916
    3AU     LIG 1153  29.555  17.995   8.251
    3AU    AUSL 1154  32.811  16.665   7.528
    3AU    AUSL 1155  32.683  16.910   7.879
    3AU     AUL 1156  33.001  16.828   7.928
    3AU       S 1157  32.994  16.497   7.507
    3AU     LIG 1158  33.304  16.095   7.454
    3AU     LIG 1159  33.778  15.989   7.478
    3AU     LIG 1160  34.235  15.816   7.452
    3AU     LIG 1161  34.602  15.584   7.254
    3AU       S 1162  32.897  16.386   7.975
    3AU     LIG 1163  33.158  16.173   8.309
    3AU     LIG 1164  33.400  15.987   8.649
    3AU     LIG 1165  33.665  15.830   8.989
    3AU     LIG 1166  33.829  15.922   9.424
    3AU    AUSL 1167  32.796  17.046   7.334
    3AU    AUSL 1168  32.750  16.639   7.110
    3AU     AUL 1169  33.026  16.873   7.165
    3AU       S 1170  33.252  16.574   7.410
    3AU     LIG 1171  33.635  16.428   7.197
    3AU     LIG 1172  34.098  16.277   7.189
    3AU     LIG 1173  34.566  16.183   7.269
    3AU     LIG 1174  35.002  16.376   7.271
    3AU       S 1175  32.957  16.517   6.865
    3AU     LIG 1176  32.997  16.071   6.858
    3AU     LIG 1177  33.178  15.672   6.670
    3AU     LIG 1178  33.461  15.428   6.371
    3AU     LIG 1179  33.828  15.193   6.172
    3AU    AUSL 1180  31.385  16.722   7.567
    3AU    AUSL 1181  31.491  16.949   7.157
    3AU     AUL 1182  31.139  16.783   7.288
    3AU       S 1183  31.297  16.747   6.857
    3AU     LIG 1184  31.059  16.559   6.483
    3AU     LIG 1185  30.736  16.240   6.384
    3AU     LIG 1186  30.359  15.982   6.286
    3AU     LIG 1187  29.995  15.791   6.055
    3AU       S 1188  30.958  16.782   7.729
    3AU     LIG 1189  30.621  16.603   7.510
    3AU     LIG 1190  30.180  16.460   7.531
    3AU     LIG 1191  29.801  16.220   7.452
    3AU     LIG 1192  29.481  15.914   7.458
    3AU    AUSL 1193  31.452  17.108   7.752
    3AU    AUSL 1194  31.707  16.731   7.846
    3AU     AUL 1195  31.372  16.698   7.913
    3AU       S 1196  31.436  16.535   8.344
    3AU     LIG 1197  31.181  16.208   8.176
    3AU     LIG 1198  30.821  15.874   8.194
    3AU     LIG 1199  30.495  15.584   8.375
    3AU     LIG 1200  30.358  15.237   8.645
    3AU       S 1201  31.039  17.019   7.864
    3AU     LIG 1202  30.507  17.002   7.842
    3AU     LIG 1203  30.029  16.914   7.732
    3AU     LIG 1204  29.576  16.778   7.770
    3AU     LIG 1205  29.078  16.771   7.770
    3AU    AUSL 1206  32.189  17.935   7.906
    3AU    AUSL 1207  31.756  17.963   7.786
    3AU     AUL 1208  31.982  18.045   8.172
    3AU       S 1209  31.610  18.168   7.913
    3AU     LIG 1210  31.259  18.382   8.223
    3AU     LIG 1211  31.126  18.569   8.635
    3AU     LIG 1212  30.868  18.887   8.879
    3AU     LIG 1213  30.623  19.316   8.955
    3AU       S 1214  32.230  18.378   7.978
    3AU     LIG 1215  32.067  18.518   8.342
    3AU     LIG 1216  32.141  18.880   8.600
    3AU     LIG 1217  32.233  19.326   8.708
    3AU     LIG 1218  32.226  19.784   8.799
    3AU    AUSL 1219  32.041  18.192   7.581
    3AU    AUSL 1220  32.295  18.090   7.232
    3AU     AUL 1221  32.304  18.448   7.376
    3AU       S 1222  32.049  18.387   7.784
    3AU     LIG 1223  32.076  18.853   7.888
    3AU     LIG 1224  31.982  19.162   8.203
    3AU     LIG 1225  31.952  19.604   8.373
    3AU     LIG 1226  32.068  20.082   8.398
    3AU       S 1227  32.058  18.394   6.998
    3AU     LIG 1228  32.417  18.649   6.916
    3AU     LIG 1229  32.454  19.088   6.755
    3AU     LIG 1230  32.494  19.552   6.648
    3AU     LIG 1231  32.493  20.040   6.733
    3AU    AUSL 1232  32.478  18.096   7.621
    3AU    AUSL 1233  32.460  17.800   8.197
    3AU     AUL 1234  32.570  18.054   7.973
    3AU       S 1235  32.700  17.872   8.408
    3AU     LIG 1236  33.058  17.828   8.737
    3AU     LIG 1237  33.319  18.131   8.962
    3AU     LIG 1238  33.511  18.519   9.132
    3AU     LIG 1239  33.565  18.807   9.489
    3AU       S 1240  32.404  18.461   7.829
    3AU     LIG 1241  32.485  18.775   8.181
    3AU     LIG 1242  32.485  19.229   8.277
    3AU     LIG 1243  32.465  19.702   8.346
    3AU     LIG 1244  32.614  20.166   8.350
    3AU    AUSL 1245  32.089  16.520   7.938
    3AU    AUSL 1246  32.498  16.531   7.775
    3AU     AUL 1247  32.320  16.402   8.162
    3AU       S 1248  32.063  16.062   7.984
    3AU     LIG 1249  32.217  15.892   8.324
    3AU     LIG 1250  32.130  15.451   8.419
    3AU     LIG 1251  32.019  15.006   8.501
    3AU     LIG 1252  31.972  14.728   8.875
    3AU       S 1253  32.658  16.322   7.837
    3AU     LIG 1254  32.745  15.905   8.072
    3AU     LIG 1255  33.080  15.667   8.371
    3AU     LIG 1256  33.485  15.473   8.586
    3AU     LIG 1257  33.819  15.114   8.625
    3AU    AUSL 1258  31.775  16.367   7.658
    3AU    AUSL 1259  31.880  16.695   8.254
    3AU     AUL 1260  31.744  16.406   8.022
    3AU       S 1261  31.884  15.994   7.837
    3AU     LIG 1262  31.767  15.655   8.100
    3AU     LIG 1263  31.821  15.201   8.068
    3AU     LIG 1264  31.671  14.754   8.133
    3AU     LIG 1265  31.351  14.398   8.041
    3AU       S 1266  31.689  16.576   8.460
    3AU     LIG 1267  31.475  16.149   8.628
    3AU     LIG 1268  31.037  15.957   8.651
    3AU     LIG 1269  30.752  15.607   8.825
    3AU     LIG 1270  30.491  15.357   9.136
    3AU    AUSL 1271  32.207  16.287   7.597
    3AU    AUSL 1272  31.976  16.529   7.317
    3AU     AUL 1273  31.864  16.178   7.410
    3AU       S 1274  32.235  16.084   7.164
    3AU     LIG 1275  31.891  15.742   7.136
    3AU     LIG 1276  31.715  15.302   7.041
    3AU     LIG 1277  31.661  14.853   6.868
    3AU     LIG 1278  31.610  14.375   6.931
    3AU       S 1279  32.219  16.068   7.745
    3AU     LIG 1280  32.249  15.588   7.907
    3AU     LIG 1281  32.350  15.122   8.074
    3AU     LIG 1282  32.632  14.703   8.127
    3AU     LIG 1283  32.790  14.262   8.272
    3AU    AUSL 1284  32.110  17.952   6.859
    3AU    AUSL 1285  32.680  17.931   7.237
    3AU     AUL 1286  32.461  18.106   6.949
    3AU       S 1287  32.072  18.298   6.752
    3AU     LIG 1288  32.278  18.500   6.441
    3AU     LIG 1289  32.234  18.932   6.306
    3AU     LIG 1290  32.294  19.374   6.188
    3AU     LIG 1291  32.409  19.645   5.811
    3AU       S 1292  32.924  18.082   6.986
    3AU     LIG 1293  33.303  18.154   6.668
    3AU     LIG 1294  33.571  18.426   6.382
    3AU     LIG 1295  33.925  18.690   6.184
    3AU     LIG 1296  34.184  19.106   6.185
    3AU    AUSL 1297  31.910  17.926   7.286
    3AU    AUSL 1298  31.879  17.619   6.948
    3AU     AUL 1299  31.783  17.999   6.944
    3AU       S 1300  31.883  18.398   7.134
    3AU     LIG 1301  31.949  18.785   6.732
    3AU     LIG 1302  31.974  19.250   6.625
    3AU     LIG 1303  32.017  19.727   6.708
    3AU     LIG 1304  31.878  20.183   6.689
    3AU       S 1305  31.611  17.825   6.570
    3AU     LIG 1306  31.711  18.219   6.382
    3AU     LIG 1307  31.452  18.483   6.091
    3AU     LIG 1308  31.082  18.557   5.802
    3AU     LIG 1309  30.827  18.587   5.400
    3AU    AUSL 1310  32.159  16.490   6.925
    3AU    AUSL 1311  31.565  16.522   7.239
    3AU     AUL 1312  31.819  16.367   6.982
    3AU       S 1313  31.359  16.471   7.013
    3AU     LIG 1314  31.041  16.176   6.832
    3AU     LIG 1315  30.719  15.825   6.691
    3AU     LIG 1316  30.373  15.520   6.500
    3AU     LIG 1317  30.159  15.296   6.144
    3AU       S 1318  32.218  16.103   6.978
    3AU     LIG 1319  32.190  15.737   6.716
    3AU     LIG 1320  31.936  15.371   6.584
    3AU     LIG 1321  31.914  14.954   6.395
    3AU     LIG 1322  31.924  14.810   5.940
    3AU    AUSL 1323  32.405  16.507   7.300
    3AU    AUSL 1324  32.401  16.831   6.948
    3AU     AUL 1325  32.497  16.465   6.918
    3AU       S 1326  32.490  16.135   7.251
    3AU     LIG 1327  32.400  15.623   7.180
    3AU     LIG 1328  32.223  15.204   6.976
    3AU     LIG 1329  32.168  14.730   6.822
    3AU     LIG 1330  32.259  14.241   6.783
    3AU       S 1331  32.734  16.678   6.593
    3AU     LIG 1332  32.654  16.233   6.505
    3AU     LIG 1333  32.886  15.886   6.302
    3AU     LIG 1334  33.156  15.631   5.999
    3AU     LIG 1335  33.448  15.403   5.697
    4AU     AUC 1336  38.794  30.567   7.499
    4AU     AUC 1337  39.067  30.585   7.317
    4AU     AUC 1338  39.061  30.555   7.669
    4AU     AUC 1339  38.509  30.559   7.334
    4AU     AUC 1340  38.529  30.594   7.686
    4AU     AUC 1341  38.624  30.845   7.500
    4AU     AUC 1342  38.976  30.851   7.486
    4AU     AUC 1343  38.611  30.295   7.507
    4AU     AUC 1344  38.961  30.277   7.493
    4AU     AUC 1345  38.800  30.389   7.774
    4AU     AUC 1346  38.793  30.754   7.764
    4AU     AUC 1347  38.789  30.403   7.220
    4AU     AUC 1348  38.803  30.725   7.220
    4AU     AUC 1349  39.378  30.598   7.148
    4AU     AUC 1350  39.397  30.545   7.506
    4AU     AUC 1351  39.351  30.528   7.857
    4AU     AUC 1352  38.209  30.544   7.167
    4AU     AUC 1353  38.190  30.584   7.533
    4AU     AUC 1354  38.249  30.619   7.874
    4AU     AUC 1355  38.458  31.147   7.487
    4AU     AUC 1356  38.823  31.188   7.459
    4AU     AUC 1357  39.157  31.137   7.480
    4AU     AUC 1358  38.419  30.017   7.514
    4AU     AUC 1359  38.769  29.964   7.487
    4AU     AUC 1360  39.129  29.977   7.472
    4AU     AUC 1361  38.786  30.208   8.064
    4AU     AUC 1362  38.801  30.574   8.096
    4AU     AUC 1363  38.823  30.930   8.059
    4AU     AUC 1364  38.816  30.233   6.942
    4AU     AUC 1365  38.795  30.567   6.884
    4AU     AUC 1366  38.777  30.895   6.920
    4AU     AUC 1367  39.069  30.343   7.988
    4AU     AUC 1368  39.111  30.723   7.982
    4AU     AUC 1369  39.122  30.440   6.987
    4AU     AUC 1370  39.104  30.761   7.023
    4AU     AUC 1371  38.500  30.434   8.018
    4AU     AUC 1372  38.520  30.811   7.997
    4AU     AUC 1373  38.490  30.373   7.041
    4AU     AUC 1374  38.467  30.697   6.996
    4AU     AUC 1375  39.319  30.864   7.336
    4AU     AUC 1376  39.272  30.829   7.684
    4AU     AUC 1377  38.309  30.856   7.318
    4AU     AUC 1378  38.324  30.903   7.682
    4AU     AUC 1379  39.270  30.271   7.318
    4AU     AUC 1380  39.242  30.215   7.678
    4AU     AUC 1381  38.278  30.256   7.367
    4AU     AUC 1382  38.332  30.306   7.722
    4AU     AUC 1383  38.642  31.089   7.770
    4AU     AUC 1384  38.993  31.049   7.772
    4AU     AUC 1385  38.610  30.089   7.803
    4AU     AUC 1386  38.928  30.038   7.769
    4AU     AUC 1387  38.612  31.006   7.187
    4AU     AUC 1388  38.983  31.056   7.197
    4AU     AUC 1389  38.604  30.093   7.206
    4AU     AUC 1390  38.997  30.118   7.194
    4AU    AUSL 1391  39.332  30.458   8.227
    4AU    AUSL 1392  39.064  30.051   8.145
    4AU     AUL 1393  39.342  30.052   8.386
    4AU       S 1394  39.455  29.724   8.091
    4AU     LIG 1395  39.359  29.512   8.436
    4AU     LIG 1396  39.571  29.308   8.764
    4AU     LIG 1397  39.810  28.970   8.954
    4AU     LIG 1398  40.070  28.763   9.285
    4AU       S 1399  39.549  30.449   8.341
    4AU     LIG 1400  39.403  30.437   8.788
    4AU     LIG 1401  39.614  30.416   9.217
    4AU     LIG 1402  39.969  30.363   9.540
    4AU     LIG 1403  40.381  30.460   9.782
    4AU    AUSL 1404  38.934  30.379   8.394
    4AU    AUSL 1405  38.679  30.756   8.423
    4AU     AUL 1406  38.891  30.695   8.738
    4AU       S 1407  38.994  30.309   8.528
    4AU     LIG 1408  38.925  30.218   8.932
    4AU     LIG 1409  39.198  30.113   9.296
    4AU     LIG 1410  39.396  29.978   9.710
    4AU     LIG 1411  39.365  29.762  10.142
    4AU       S 1412  38.497  30.491   8.641
    4AU     LIG 1413  38.541  30.536   9.100
    4AU     LIG 1414  38.277  30.557   9.491
    4AU     LIG 1415  38.220  30.579   9.955
    4AU     LIG 1416  38.279  30.922  10.273
    4AU    AUSL 1417  39.001  30.752   8.158
    4AU    AUSL 1418  39.442  30.849   8.089
    4AU     AUL 1419  39.234  30.765   8.438
    4AU       S 1420  38.888  31.144   8.566
    4AU     LIG 1421  39.238  31.051   8.863
    4AU     LIG 1422  39.443  31.185   9.267
    4AU     LIG 1423  39.401  31.298   9.738
    4AU     LIG 1424  39.544  31.244  10.187
    4AU       S 1425  39.614  30.988   8.278
    4AU     LIG 1426  40.040  31.082   8.312
    4AU     LIG 1427  40.271  31.307   8.654
    4AU     LIG 1428  40.471  31.537   9.010
    4AU     LIG 1429  40.590  31.699   9.439
    4AU    AUSL 1430  39.319  30.722   6.757
    4AU    AUSL 1431  39.093  31.036   6.959
    4AU     AUL 1432  39.230  31.098   6.620
    4AU       S 1433  39.265  30.775   6.301
    4AU     LIG 1434  39.650  30.621   6.117
    4AU     LIG 1435  39.719  30.348   5.771
    4AU     LIG 1436  39.828  30.317   5.326
    4AU     LIG 1437  40.169  30.305   4.996
    4AU       S 1438  39.562  31.301   6.882
    4AU     LIG 1439  39.602  31.499   6.499
    4AU     LIG 1440  39.773  31.687   6.103
    4AU     LIG 1441  40.005  31.859   5.736
    4AU     LIG 1442  40.187  31.983   5.323
    4AU    AUSL 1443  39.097  30.390   6.596
    4AU    AUSL 1444  39.475  30.357   6.918
    4AU     AUL 1445  39.504  30.489   6.597
    4AU       S 1446  39.650  30.058   6.701
    4AU     LIG 1447  39.763  29.741   6.372
    4AU     LIG 1448  40.027  29.374   6.294
    4AU     LIG 1449  40.325  29.120   6.044
    4AU     LIG 1450  40.631  28.997   5.706
    4AU       S 1451  39.178  30.639   6.290
    4AU     LIG 1452  39.273  30.252   6.104
    4AU     LIG 1453  39.324  30.032   5.678
    4AU     LIG 1454  39.375  30.084   5.205
    4AU     LIG 1455  39.418  29.958   4.741
    4AU    AUSL 1456  38.895  30.766   6.688
    4AU    AUSL 1457  38.687  30.363   6.728
    4AU     AUL 1458  38.832  30.382   6.433
    4AU       S 1459  38.391  30.391   6.299
    4AU     LIG 1460  38.512  30.211   5.928
    4AU     LIG 1461  38.266  29.990   5.604
    4AU     LIG 1462  38.005  30.034   5.220
    4AU     LIG 1463  37.770  30.163   4.819
    4AU       S 1464  38.923  30.840   6.373
    4AU     LIG 1465  38.864  30.599   5.934
    4AU     LIG 1466  39.238  30.534   5.616
    4AU     LIG 1467  39.413  30.610   5.167
    4AU     LIG 1468  39.444  30.824   4.738
    4AU    AUSL 1469  38.276  30.693   8.265
    4AU    AUSL 1470  38.545  31.063   8.162
    4AU     AUL 1471  38.416  30.968   8.506
    4AU       S 1472  38.287  30.527   8.654
    4AU     LIG 1473  38.043  30.455   8.999
    4AU     LIG 1474  37.811  30.344   9.382
    4AU     LIG 1475  37.590  30.148   9.739
    4AU     LIG 1476  37.359  30.189  10.143
    4AU       S 1477  38.186  31.277   8.238
    4AU     LIG 1478  38.109  31.426   8.626
    4AU     LIG 1479  37.959  31.627   9.016
    4AU     LIG 1480  37.757  31.938   9.298
    4AU     LIG 1481  37.515  32.239   9.560
    4AU    AUSL 1482  38.579  30.416   8.165
    4AU    AUSL 1483  38.167  30.279   8.146
    4AU     AUL 1484  38.048  30.517   8.264
    4AU       S 1485  38.084  30.068   8.406
    4AU     LIG 1486  37.649  29.928   8.233
    4AU     LIG 1487  37.576  29.487   8.378
    4AU     LIG 1488  37.359  29.170   8.633
    4AU     LIG 1489  37.011  29.085   8.933
    4AU       S 1490  38.470  30.352   8.550
    4AU     LIG 1491  38.411  30.076   8.910
    4AU     LIG 1492  38.257  30.076   9.320
    4AU     LIG 1493  38.109  30.109   9.757
    4AU     LIG 1494  37.860  29.990  10.146
    4AU    AUSL 1495  38.262  30.422   6.778
    4AU    AUSL 1496  38.470  30.075   6.949
    4AU     AUL 1497  38.514  30.069   6.616
    4AU       S 1498  38.209  30.317   6.377
    4AU     LIG 1499  38.001  30.175   6.023
    4AU     LIG 1500  37.822  30.296   5.636
    4AU     LIG 1501  37.565  30.319   5.267
    4AU     LIG 1502  37.264  30.394   4.925
    4AU       S 1503  38.099  29.958   6.781
    4AU     LIG 1504  38.182  29.588   6.570
    4AU     LIG 1505  37.934  29.216   6.442
    4AU     LIG 1506  37.609  28.942   6.246
    4AU     LIG 1507  37.285  28.789   5.924
    4AU    AUSL 1508  38.485  30.742   6.601
    4AU    AUSL 1509  38.132  30.815   6.910
    4AU     AUL 1510  38.048  30.658   6.629
    4AU       S 1511  38.160  31.099   6.646
    4AU     LIG 1512  37.740  31.129   6.630
    4AU     LIG 1513  37.540  31.396   6.277
    4AU     LIG 1514  37.369  31.683   5.927
    4AU     LIG 1515  36.958  31.748   5.692
    4AU       S 1516  38.440  30.663   6.352
    4AU     LIG 1517  38.229  30.651   5.917
    4AU     LIG 1518  38.267  30.490   5.486
    4AU     LIG 1519  38.084  30.516   5.057
    4AU     LIG 1520  38.166  30.639   4.608
    4AU    AUSL 1521  39.589  31.058   7.510
    4AU    AUSL 1522  39.487  30.891   7.106
    4AU     AUL 1523  39.846  31.180   7.279
    4AU       S 1524  39.585  31.064   6.933
    4AU     LIG 1525  39.717  30.975   6.516
    4AU     LIG 1526  40.009  31.251   6.276
    4AU     LIG 1527  40.289  31.561   6.056
    4AU     LIG 1528  40.509  31.726   5.669
    4AU       S 1529  39.977  30.921   7.657
    4AU     LIG 1530  40.327  31.204   7.633
    4AU     LIG 1531  40.777  31.362   7.559
    4AU     LIG 1532  41.218  31.562   7.505
    4AU     LIG 1533  41.456  31.915   7.268
    4AU    AUSL 1534  39.751  30.658   7.340
    4AU    AUSL 1535  39.710  30.319   7.684
    4AU     AUL 1536  40.043  30.363   7.541
    4AU       S 1537  39.904  30.744   7.375
    4AU     LIG 1538  40.391  30.754   7.396
    4AU     LIG 1539  40.868  30.918   7.312
    4AU     LIG 1540  41.336  31.121   7.271
    4AU     LIG 1541  41.715  31.445   7.297
    4AU       S 1542  39.935  29.920   7.669
    4AU     LIG 1543  40.365  29.842   7.748
    4AU     LIG 1544  40.822  29.747   7.700
    4AU     LIG 1545  41.274  29.694   7.777
    4AU     LIG 1546  41.742  29.695   7.857
    4AU    AUSL 1547  39.507  30.688   7.711
    4AU    AUSL 1548  39.256  31.086   7.773
    4AU     AUL 1549  39.589  31.116   7.826
    4AU       S 1550  39.583  31.305   8.243
    4AU     LIG 1551  39.898  31.591   8.434
    4AU     LIG 1552  40.214  31.856   8.680
    4AU     LIG 1553  40.376  32.273   8.871
    4AU     LIG 1554  40.548  32.732   8.859
    4AU       S 1555  39.856  30.737   7.813
    4AU     LIG 1556  40.310  30.707   7.939
    4AU     LIG 1557  40.713  30.892   7.805
    4AU     LIG 1558  41.151  31.061   7.747
    4AU     LIG 1559  41.591  31.238   7.747
    4AU    AUSL 1560  38.130  31.118   7.523
    4AU    AUSL 1561  38.217  30.910   7.913
    4AU     AUL 1562  37.902  31.224   7.767
    4AU       S 1563  38.053  31.083   8.176
    4AU     LIG 1564  37.886  30.957   8.534
    4AU     LIG 1565  37.639  31.268   8.783
    4AU     LIG 1566  37.440  31.626   9.012
    4AU     LIG 1567  37.228  31.874   9.331
    4AU       S 1568  38.129  31.511   7.454
    4AU     LIG 1569  37.650  31.419   7.367
    4AU     LIG 1570  37.181  31.588   7.433
    4AU     LIG 1571  36.796  31.878   7.478
    4AU     LIG 1572  36.501  32.163   7.712
    4AU    AUSL 1573  38.080  30.739   7.316
    4AU    AUSL 1574  38.211  31.191   7.118
    4AU     AUL 1575  37.915  31.039   7.162
    4AU       S 1576  37.736  30.574   6.995
    4AU     LIG 1577  37.424  30.937   7.059
    4AU     LIG 1578  37.060  31.239   7.074
    4AU     LIG 1579  36.655  31.517   7.126
    4AU     LIG 1580  36.242  31.394   6.932
    4AU       S 1581  38.016  31.447   6.930
    4AU     LIG 1582  37.944  31.607   6.524
    4AU     LIG 1583  37.688  31.908   6.270
    4AU     LIG 1584  37.425  32.289   6.210
    4AU     LIG 1585  37.208  32.686   6.065
    4AU    AUSL 1586  37.882  30.774   7.709
    4AU    AUSL 1587  37.846  30.409   7.419
    4AU     AUL 1588  37.693  30.745   7.439
    4AU       S 1589  37.639  30.334   7.684
    4AU     LIG 1590  37.329  30.412   7.340
    4AU     LIG 1591  36.918  30.213   7.245
    4AU     LIG 1592  36.529  29.975   7.237
    4AU     LIG 1593  36.145  29.783   7.089
    4AU       S 1594  37.747  30.788   7.938
    4AU     LIG 1595  37.486  31.120   8.067
    4AU     LIG 1596  37.004  31.155   8.020
    4AU     LIG 1597  36.525  31.160   7.945
    4AU     LIG 1598  36.095  31.347   7.880
    4AU    AUSL 1599  39.477  29.991   7.528
    4AU    AUSL 1600  39.335  30.242   7.869
    4AU     AUL 1601  39.646  30.159   7.940
    4AU       S 1602  39.666  29.827   7.507
    4AU     LIG 1603  40.008  29.442   7.582
    4AU     LIG 1604  40.494  29.365   7.558
    4AU     LIG 1605  40.980  29.262   7.560
    4AU     LIG 1606  41.262  28.921   7.760
    4AU       S 1607  39.561  29.715   7.965
    4AU     LIG 1608  39.865  29.522   8.285
    4AU     LIG 1609  40.079  29.312   8.651
    4AU     LIG 1610  40.328  29.069   8.958
    4AU     LIG 1611  40.634  28.946   9.292
    4AU    AUSL 1612  39.450  30.371   7.334
    4AU    AUSL 1613  39.412  29.969   7.111
    4AU     AUL 1614  39.698  30.202   7.178
    4AU       S 1615  39.924  29.909   7.429
    4AU     LIG 1616  40.309  29.746   7.247
    4AU     LIG 1617  40.771  29.626   7.204
    4AU     LIG 1618  41.239  29.615   7.267
    4AU     LIG 1619  41.700  29.714   7.322
    4AU       S 1620  39.617  29.852   6.859
    4AU     LIG 1621  39.693  29.399   6.759
    4AU     LIG 1622  39.869  28.981   6.582
    4AU     LIG 1623  40.193  28.717   6.338
    4AU     LIG 1624  40.610  28.469   6.266
    4AU    AUSL 1625  38.050  30.045   7.568
    4AU    AUSL 1626  38.149  30.282   7.157
    4AU     AUL 1627  37.800  30.113   7.288
    4AU       S 1628  37.956  30.081   6.855
    4AU     LIG 1629  37.679  29.743   6.625
    4AU     LIG 1630  37.439  29.350   6.539
    4AU     LIG 1631  37.113  29.102   6.306
    4AU     LIG 1632  36.762  29.010   5.999
    4AU       S 1633  37.624  30.089   7.728
    4AU     LIG 1634  37.298  29.914   7.461
    4AU     LIG 1635  36.908  29.655   7.368
    4AU     LIG 1636  36.472  29.484   7.504
    4AU     LIG 1637  36.175  29.226   7.807
    4AU    AUSL 1638  38.113  30.428   7.760
    4AU    AUSL 1639  38.374  30.058   7.844
    4AU     AUL 1640  38.041  30.021   7.916
    4AU       S 1641  38.110  29.845   8.342
    4AU     LIG 1642  38.017  29.447   8.111
    4AU     LIG 1643  37.716  29.080   8.083
    4AU     LIG 1644  37.500  28.749   8.366
    4AU     LIG 1645  37.167  28.666   8.671
    4AU       S 1646  37.692  30.325   7.870
    4AU     LIG 1647  37.156  30.276   7.815
    4AU     LIG 1648  36.772  29.988   7.730
    4AU     LIG 1649  36.276  29.918   7.683
    4AU     LIG 1650  35.891  29.703   7.879
    4AU    AUSL 1651  38.834  31.246   7.907
    4AU    AUSL 1652  38.390  31.285   7.821
    4AU     AUL 1653  38.644  31.378   8.179
    4AU       S 1654  38.253  31.490   7.944
    4AU     LIG 1655  37.813  31.574   8.174
    4AU     LIG 1656  37.693  31.778   8.592
    4AU     LIG 1657  37.543  32.149   8.878
    4AU     LIG 1658  37.481  32.638   8.956
    4AU       S 1659  38.879  31.717   7.967
    4AU     LIG 1660  39.066  31.709   8.339
    4AU     LIG 1661  39.185  32.140   8.478
    4AU     LIG 1662  39.337  32.563   8.633
    4AU     LIG 1663  39.203  32.992   8.748
    4AU    AUSL 1664  38.662  31.505   7.600
    4AU    AUSL 1665  38.941  31.468   7.230
    4AU     AUL 1666  38.657  31.734   7.355
    4AU       S 1667  38.715  31.728   7.823
    4AU     LIG 1668  38.838  32.195   8.024
    4AU     LIG 1669  38.940  32.576   8.285
    4AU     LIG 1670  38.822  33.017   8.370
    4AU     LIG 1671  38.435  33.304   8.307
    4AU       S 1672  38.854  31.778   6.938
    4AU     LIG 1673  39.257  31.913   6.986
    4AU     LIG 1674  39.376  32.364   6.913
    4AU     LIG 1675  39.447  32.830   6.891
    4AU     LIG 1676  39.214  33.223   6.862
    4AU    AUSL 1677  39.100  31.445   7.626
    4AU    AUSL 1678  39.131  31.149   8.185
    4AU     AUL 1679  39.218  31.405   7.959
    4AU       S 1680  39.361  31.231   8.392
    4AU     LIG 1681  39.705  31.222   8.733
    4AU     LIG 1682  39.942  31.536   8.990
    4AU     LIG 1683  40.162  31.907   9.203
    4AU     LIG 1684  40.345  32.149   9.573
    4AU       S 1685  39.062  31.754   7.670
    4AU     LIG 1686  39.313  32.005   7.980
    4AU     LIG 1687  39.415  32.463   8.125
    4AU     LIG 1688  39.352  32.922   8.256
    4AU     LIG 1689  39.654  33.296   8.242
    4AU    AUSL 1690  38.753  29.841   7.933
    4AU    AUSL 1691  39.158  29.858   7.768
    4AU     AUL 1692  38.991  29.733   8.156
    4AU       S 1693  38.737  29.385   7.982
    4AU     LIG 1694  38.475  29.263   8.316
    4AU     LIG 1695  38.395  28.816   8.394
    4AU     LIG 1696  38.367  28.340   8.372
    4AU     LIG 1697  38.170  28.069   8.703
    4AU       S 1698  39.317  29.635   7.818
    4AU     LIG 1699  39.487  29.222   8.019
    4AU     LIG 1700  39.748  29.022   8.368
    4AU     LIG 1701  40.106  28.784   8.576
    4AU     LIG 1702  40.336  28.387   8.711
    4AU    AUSL 1703  38.435  29.696   7.651
    4AU    AUSL 1704  38.548  30.014   8.252
    4AU     AUL 1705  38.418  29.732   8.017
    4AU       S 1706  38.535  29.326   7.822
    4AU     LIG 1707  38.266  29.003   7.921
    4AU     LIG 1708  38.360  28.572   7.901
    4AU     LIG 1709  38.077  28.224   7.949
    4AU     LIG 1710  38.055  27.877   8.230
    4AU       S 1711  38.355  29.888   8.460
    4AU     LIG 1712  38.123  29.461   8.630
    4AU     LIG 1713  37.888  29.065   8.567
    4AU     LIG 1714  37.634  28.808   8.872
    4AU     LIG 1715  37.311  28.719   9.174
    4AU    AUSL 1716  38.866  29.615   7.587
    4AU    AUSL 1717  38.634  29.860   7.309
    4AU     AUL 1718  38.517  29.513   7.401
    4AU       S 1719  38.873  29.422   7.137
    4AU     LIG 1720  38.444  29.151   7.066
    4AU     LIG 1721  38.188  28.741   6.973
    4AU     LIG 1722  38.233  28.310   6.800
    4AU     LIG 1723  38.265  27.844   6.673
    4AU       S 1724  38.869  29.390   7.725
    4AU     LIG 1725  38.795  28.903   7.839
    4AU     LIG 1726  38.801  28.548   8.155
    4AU     LIG 1727  38.864  28.075   8.207
    4AU     LIG 1728  39.139  27.665   8.127
    4AU    AUSL 1729  38.769  31.288   6.868
    4AU    AUSL 1730  39.293  31.244   7.275
    4AU     AUL 1731  39.113  31.406   6.937
    4AU       S 1732  38.736  31.515   6.666
    4AU     LIG 1733  39.127  31.712   6.524
    4AU     LIG 1734  39.243  32.156   6.453
    4AU     LIG 1735  39.067  32.564   6.284
    4AU     LIG 1736  38.948  32.810   5.885
    4AU       S 1737  39.488  31.444   7.186
    4AU     LIG 1738  39.862  31.675   6.936
    4AU     LIG 1739  40.094  31.746   6.512
    4AU     LIG 1740  40.399  32.046   6.260
    4AU     LIG 1741  40.686  32.468   6.254
    4AU    AUSL 1742  38.588  31.240   7.290
    4AU    AUSL 1743  38.537  30.958   6.953
    4AU     AUL 1744  38.462  31.400   7.044
    4AU       S 1745  38.672  31.762   6.876
    4AU     LIG 1746  38.864  32.241   6.788
    4AU     LIG 1747  38.931  32.715   6.775
    4AU     LIG 1748  38.645  33.110   6.792
    4AU     LIG 1749  38.387  33.509   6.726
    4AU       S 1750  38.336  31.193   6.652
    4AU     LIG 1751  38.315  31.389   6.250
    4AU     LIG 1752  37.962  31.572   5.987
    4AU     LIG 1753  37.798  31.789   5.595
    4AU     LIG 1754  37.754  31.842   5.114
    4AU    AUSL 1755  38.818  29.833   6.914
    4AU    AUSL 1756  38.223  29.855   7.231
    4AU     AUL 1757  38.480  29.705   6.973
    4AU       S 1758  38.022  29.804   7.013
    4AU     LIG 1759  37.878  29.367   6.937
    4AU     LIG 1760  37.661  28.958   6.805
    4AU     LIG 1761  37.322  28.701   6.604
    4AU     LIG 1762  37.207  28.243   6.562
    4AU       S 1763  38.869  29.427   6.934
    4AU     LIG 1764  38.829  28.990   6.775
    4AU     LIG 1765  38.562  28.640   6.584
    4AU     LIG 1766  38.446  28.239   6.349
    4AU     LIG 1767  38.435  27.906   6.024
    4AU    AUSL 1768  39.062  29.837   7.292
    4AU    AUSL 1769  39.068  30.167   6.945
    4AU     AUL 1770  39.159  29.791   6.925
    4AU       S 1771  39.113  29.439   7.232
    4AU     LIG 1772  38.883  28.973   7.311
    4AU     LIG 1773  38.687  28.576   7.081
    4AU     LIG 1774  38.734  28.144   6.835
    4AU     LIG 1775  38.944  27.686   6.850
    4AU       S 1776  39.382  30.012   6.595
    4AU     LIG 1777  39.286  29.583   6.489
    4AU     LIG 1778  39.520  29.241   6.288
    4AU     LIG 1779  39.815  28.959   6.057
    4AU     LIG 1780  40.090  28.795   5.717
    5AU     AUC 1781  12.163  12.084   7.498
    5AU     AUC 1782  12.437  12.106   7.318
    5AU     AUC 1783  12.429  12.076   7.668
    5AU     AUC 1784  11.880  12.071   7.334
    5AU     AUC 1785  11.897  12.107   7.685
    5AU     AUC 1786  11.988  12.359   7.498
    5AU     AUC 1787  12.341  12.371   7.485
    5AU     AUC 1788  11.985  11.808   7.506
    5AU     AUC 1789  12.334  11.795   7.494
    5AU     AUC 1790  12.170  11.904   7.774
    5AU     AUC 1791  12.158  12.271   7.762
    5AU     AUC 1792  12.162  11.919   7.221
    5AU     AUC 1793  12.171  12.242   7.220
    5AU     AUC 1794  12.748  12.123   7.150
    5AU     AUC 1795  12.766  12.069   7.508
    5AU     AUC 1796  12.720  12.052   7.858
    5AU     AUC 1797  11.580  12.051   7.166
    5AU     AUC 1798  11.559  12.092   7.531
    5AU     AUC 1799  11.616  12.129   7.873
    5AU     AUC 1800  11.816  12.658   7.484
    5AU     AUC 1801  12.182  12.704   7.456
    5AU     AUC 1802  12.517  12.659   7.478
    5AU     AUC 1803  11.797  11.527   7.513
    5AU     AUC 1804  12.148  11.480   7.488
    5AU     AUC 1805  12.507  11.497   7.476
    5AU     AUC 1806  12.158  11.723   8.066
    5AU     AUC 1807  12.169  12.091   8.096
    5AU     AUC 1808  12.184  12.446   8.056
    5AU     AUC 1809  12.193  11.750   6.942
    5AU     AUC 1810  12.167  12.083   6.884
    5AU     AUC 1811  12.143  12.410   6.919
    5AU     AUC 1812  12.439  11.862   7.988
    5AU     AUC 1813  12.475  12.245   7.980
    5AU     AUC 1814  12.496  11.961   6.988
    5AU     AUC 1815  12.473  12.283   7.023
    5AU     AUC 1816  11.871  11.945   8.017
    5AU     AUC 1817  11.883  12.323   7.996
    5AU     AUC 1818  11.864  11.884   7.041
    5AU     AUC 1819  11.835  12.208   6.994
    5AU     AUC 1820  12.685  12.388   7.336
    5AU     AUC 1821  12.636  12.353   7.684
    5AU     AUC 1822  11.673  12.365   7.317
    5AU     AUC 1823  11.685  12.413   7.681
    5AU     AUC 1824  12.644  11.795   7.321
    5AU     AUC 1825  12.612  11.735   7.679
    5AU     AUC 1826  11.654  11.764   7.365
    5AU     AUC 1827  11.706  11.815   7.721
    5AU     AUC 1828  12.000  12.602   7.767
    5AU     AUC 1829  12.352  12.569   7.770
    5AU     AUC 1830  11.985  11.599   7.804
    5AU     AUC 1831  12.302  11.551   7.770
    5AU     AUC 1832  11.975  12.518   7.185
    5AU     AUC 1833  12.347  12.574   7.195
    5AU     AUC 1834  11.982  11.606   7.204
    5AU     AUC 1835  12.375  11.639   7.196
    5AU    AUSL 1836  12.704  11.984   8.223
    5AU    AUSL 1837  12.428  11.573   8.145
    5AU     AUL 1838  12.734  11.576   8.330
    5AU       S 1839  12.813  11.183   8.108
    5AU     LIG 1840  12.750  10.945   8.458
    5AU     LIG 1841  12.846  10.549   8.690
    5AU     LIG 1842  13.171  10.381   8.999
    5AU     LIG 1843  13.520  10.101   9.167
    5AU       S 1844  12.931  11.982   8.384
    5AU     LIG 1845  12.774  12.030   8.829
    5AU     LIG 1846  12.897  11.992   9.281
    5AU     LIG 1847  13.202  11.835   9.610
    5AU     LIG 1848  13.616  11.784   9.854
    5AU    AUSL 1849  12.308  11.899   8.398
    5AU    AUSL 1850  12.047  12.274   8.422
    5AU     AUL 1851  12.255  12.203   8.733
    5AU       S 1852  12.417  11.813   8.559
    5AU     LIG 1853  12.282  11.742   8.956
    5AU     LIG 1854  12.476  11.701   9.383
    5AU     LIG 1855  12.733  11.618   9.773
    5AU     LIG 1856  12.800  11.377  10.178
    5AU       S 1857  11.858  12.002   8.644
    5AU     LIG 1858  11.895  12.052   9.106
    5AU     LIG 1859  11.618  12.069   9.493
    5AU     LIG 1860  11.376  12.104   9.901
    5AU     LIG 1861  11.228  12.360  10.280
    5AU    AUSL 1862  12.366  12.270   8.155
    5AU    AUSL 1863  12.805  12.377   8.089
    5AU     AUL 1864  12.596  12.288   8.433
    5AU       S 1865  12.253  12.659   8.573
    5AU     LIG 1866  12.611  12.542   8.872
    5AU     LIG 1867  12.811  12.516   9.305
    5AU     LIG 1868  12.845  12.657   9.770
    5AU     LIG 1869  12.826  12.588  10.248
    5AU       S 1870  12.969  12.513   8.268
    5AU     LIG 1871  13.389  12.527   8.291
    5AU     LIG 1872  13.643  12.741   8.635
    5AU     LIG 1873  13.857  13.004   8.974
    5AU     LIG 1874  14.012  13.291   9.308
    5AU    AUSL 1875  12.687  12.244   6.759
    5AU    AUSL 1876  12.457  12.558   6.959
    5AU     AUL 1877  12.586  12.620   6.619
    5AU       S 1878  12.646  12.299   6.300
    5AU     LIG 1879  13.012  12.109   6.098
    5AU     LIG 1880  13.098  11.833   5.730
    5AU     LIG 1881  13.248  11.803   5.286
    5AU     LIG 1882  13.499  11.720   4.896
    5AU       S 1883  12.917  12.830   6.874
    5AU     LIG 1884  12.980  13.024   6.475
    5AU     LIG 1885  13.184  13.218   6.070
    5AU     LIG 1886  13.423  13.311   5.651
    5AU     LIG 1887  13.415  13.542   5.223
    5AU    AUSL 1888  12.471  11.910   6.596
    5AU    AUSL 1889  12.853  11.884   6.922
    5AU     AUL 1890  12.876  12.012   6.600
    5AU       S 1891  13.036  11.584   6.704
    5AU     LIG 1892  13.128  11.229   6.380
    5AU     LIG 1893  13.317  10.807   6.255
    5AU     LIG 1894  13.555  10.523   5.948
    5AU     LIG 1895  13.881  10.529   5.576
    5AU       S 1896  12.548  12.165   6.297
    5AU     LIG 1897  12.629  11.764   6.135
    5AU     LIG 1898  12.660  11.550   5.736
    5AU     LIG 1899  12.785  11.579   5.289
    5AU     LIG 1900  12.981  11.618   4.854
    5AU    AUSL 1901  12.263  12.284   6.690
    5AU    AUSL 1902  12.063  11.877   6.729
    5AU     AUL 1903  12.199  11.905   6.430
    5AU       S 1904  11.754  11.899   6.302
    5AU     LIG 1905  11.912  11.703   5.967
    5AU     LIG 1906  11.679  11.502   5.624
    5AU     LIG 1907  11.478  11.488   5.205
    5AU     LIG 1908  11.438  11.454   4.733
    5AU       S 1909  12.293  12.358   6.357
    5AU     LIG 1910  12.293  12.110   5.897
    5AU     LIG 1911  12.649  12.035   5.556
    5AU     LIG 1912  12.825  12.061   5.100
    5AU     LIG 1913  12.828  12.253   4.657
    5AU    AUSL 1914  11.645  12.202   8.265
    5AU    AUSL 1915  11.903  12.576   8.159
    5AU     AUL 1916  11.780  12.481   8.502
    5AU       S 1917  11.658  12.039   8.650
    5AU     LIG 1918  11.406  11.949   8.986
    5AU     LIG 1919  11.164  11.853   9.357
    5AU     LIG 1920  10.940  11.861   9.753
    5AU     LIG 1921  10.639  11.682  10.063
    5AU       S 1922  11.538  12.790   8.233
    5AU     LIG 1923  11.701  12.984   8.581
    5AU     LIG 1924  11.411  13.208   8.851
    5AU     LIG 1925  11.162  13.318   9.236
    5AU     LIG 1926  10.895  13.419   9.611
    5AU    AUSL 1927  11.953  11.930   8.167
    5AU    AUSL 1928  11.542  11.789   8.143
    5AU     AUL 1929  11.417  12.023   8.262
    5AU       S 1930  11.468  11.580   8.412
    5AU     LIG 1931  11.024  11.505   8.253
    5AU     LIG 1932  10.770  11.127   8.367
    5AU     LIG 1933  10.540  10.896   8.715
    5AU     LIG 1934  10.340  10.642   9.062
    5AU       S 1935  11.851  11.864   8.550
    5AU     LIG 1936  11.774  11.586   8.909
    5AU     LIG 1937  11.622  11.588   9.324
    5AU     LIG 1938  11.413  11.612   9.738
    5AU     LIG 1939  11.161  11.585  10.132
    5AU    AUSL 1940  11.637  11.932   6.778
    5AU    AUSL 1941  11.848  11.584   6.945
    5AU     AUL 1942  11.895  11.582   6.614
    5AU       S 1943  11.571  11.810   6.379
    5AU     LIG 1944  11.379  11.614   6.047
    5AU     LIG 1945  11.202  11.722   5.635
    5AU     LIG 1946  11.057  11.788   5.198
    5AU     LIG 1947  10.831  11.611   4.823
    5AU       S 1948  11.481  11.470   6.784
    5AU     LIG 1949  11.572  11.171   6.518
    5AU     LIG 1950  11.264  10.887   6.326
    5AU     LIG 1951  10.943  10.628   6.115
    5AU     LIG 1952  10.645  10.423   5.826
    5AU    AUSL 1953  11.855  12.253   6.596
    5AU    AUSL 1954  11.496  12.321   6.907
    5AU     AUL 1955  11.421  12.159   6.628
    5AU       S 1956  11.523  12.602   6.643
    5AU     LIG 1957  11.154  12.724   6.489
    5AU     LIG 1958  10.990  13.036   6.182
    5AU     LIG 1959  10.827  13.137   5.751
    5AU     LIG 1960  10.515  13.225   5.401
    5AU       S 1961  11.798  12.166   6.331
    5AU     LIG 1962  11.573  12.088   5.884
    5AU     LIG 1963  11.591  11.971   5.419
    5AU     LIG 1964  11.486  11.950   4.956
    5AU     LIG 1965  11.312  12.171   4.581
    5AU    AUSL 1966  12.950  12.584   7.511
    5AU    AUSL 1967  12.854  12.419   7.106
    5AU     AUL 1968  13.205  12.708   7.277
    5AU       S 1969  12.947  12.596   6.926
    5AU     LIG 1970  13.082  12.501   6.510
    5AU     LIG 1971  13.380  12.764   6.252
    5AU     LIG 1972  13.679  13.073   6.049
    5AU     LIG 1973  13.965  13.240   5.719
    5AU       S 1974  13.342  12.455   7.662
    5AU     LIG 1975  13.708  12.700   7.676
    5AU     LIG 1976  14.146  12.820   7.546
    5AU     LIG 1977  14.582  12.960   7.436
    5AU     LIG 1978  14.914  13.202   7.214
    5AU    AUSL 1979  13.118  12.187   7.341
    5AU    AUSL 1980  13.078  11.845   7.691
    5AU     AUL 1981  13.402  11.882   7.530
    5AU       S 1982  13.288  12.286   7.405
    5AU     LIG 1983  13.767  12.268   7.403
    5AU     LIG 1984  14.253  12.376   7.305
    5AU     LIG 1985  14.727  12.513   7.206
    5AU     LIG 1986  15.206  12.595   7.164
    5AU       S 1987  13.311  11.443   7.674
    5AU     LIG 1988  13.749  11.352   7.762
    5AU     LIG 1989  14.183  11.143   7.712
    5AU     LIG 1990  14.603  10.894   7.664
    5AU     LIG 1991  14.974  10.717   7.897
    5AU    AUSL 1992  12.873  12.214   7.712
    5AU    AUSL 1993  12.617  12.611   7.773
    5AU     AUL 1994  12.949  12.646   7.821
    5AU       S 1995  12.935  12.827   8.241
    5AU     LIG 1996  13.297  13.033   8.381
    5AU     LIG 1997  13.569  13.276   8.653
    5AU     LIG 1998  13.854  13.563   8.874
    5AU     LIG 1999  13.916  14.025   8.929
    5AU       S 2000  13.221  12.266   7.817
    5AU     LIG 2001  13.679  12.215   7.925
    5AU     LIG 2002  14.109  12.371   7.805
    5AU     LIG 2003  14.562  12.519   7.710
    5AU     LIG 2004  15.006  12.710   7.631
    5AU    AUSL 2005  11.484  12.624   7.522
    5AU    AUSL 2006  11.570  12.421   7.918
    5AU     AUL 2007  11.263  12.726   7.785
    5AU       S 2008  11.392  12.582   8.205
    5AU     LIG 2009  11.306  12.656   8.667
    5AU     LIG 2010  11.035  12.868   9.006
    5AU     LIG 2011  10.686  13.095   9.256
    5AU     LIG 2012  10.388  13.386   9.498
    5AU       S 2013  11.463  13.006   7.454
    5AU     LIG 2014  10.973  12.872   7.401
    5AU     LIG 2015  10.510  13.047   7.493
    5AU     LIG 2016  10.072  13.285   7.616
    5AU     LIG 2017   9.696  13.603   7.485
    5AU    AUSL 2018  11.449  12.244   7.314
    5AU    AUSL 2019  11.570  12.696   7.118
    5AU     AUL 2020  11.273  12.542   7.161
    5AU       S 2021  11.103  12.075   6.992
    5AU     LIG 2022  10.756  12.411   7.105
    5AU     LIG 2023  10.365  12.649   7.180
    5AU     LIG 2024   9.929  12.731   7.040
    5AU     LIG 2025   9.547  12.929   6.791
    5AU       S 2026  11.370  12.950   6.917
    5AU     LIG 2027  11.388  13.185   6.513
    5AU     LIG 2028  11.201  13.534   6.233
    5AU     LIG 2029  11.088  13.996   6.092
    5AU     LIG 2030  10.735  14.312   5.990
    5AU    AUSL 2031  11.246  12.277   7.703
    5AU    AUSL 2032  11.219  11.909   7.415
    5AU     AUL 2033  11.064  12.235   7.437
    5AU       S 2034  11.018  11.827   7.690
    5AU     LIG 2035  10.709  11.882   7.355
    5AU     LIG 2036  10.284  11.702   7.255
    5AU     LIG 2037   9.847  11.502   7.183
    5AU     LIG 2038   9.403  11.492   7.311
    5AU       S 2039  11.071  12.311   7.930
    5AU     LIG 2040  10.670  12.463   7.675
    5AU     LIG 2041  10.204  12.675   7.663
    5AU     LIG 2042   9.751  12.722   7.822
    5AU     LIG 2043   9.337  12.809   8.076
    5AU    AUSL 2044  12.848  11.514   7.532
    5AU    AUSL 2045  12.699  11.766   7.867
    5AU     AUL 2046  13.011  11.674   7.941
    5AU       S 2047  13.026  11.361   7.520
    5AU     LIG 2048  13.279  10.957   7.639
    5AU     LIG 2049  13.749  10.877   7.549
    5AU     LIG 2050  14.171  10.674   7.476
    5AU     LIG 2051  14.551  10.454   7.339
    5AU       S 2052  12.939  11.228   7.977
    5AU     LIG 2053  13.216  10.906   8.190
    5AU     LIG 2054  13.336  10.702   8.598
    5AU     LIG 2055  13.667  10.502   8.865
    5AU     LIG 2056  13.980  10.338   9.177
    5AU    AUSL 2057  12.823  11.895   7.338
    5AU    AUSL 2058  12.794  11.494   7.112
    5AU     AUL 2059  13.073  11.726   7.183
    5AU       S 2060  13.292  11.421   7.430
    5AU     LIG 2061  13.706  11.305   7.253
    5AU     LIG 2062  14.150  11.110   7.202
    5AU     LIG 2063  14.612  10.935   7.147
    5AU     LIG 2064  15.070  10.985   6.984
    5AU       S 2065  13.005  11.369   6.863
    5AU     LIG 2066  13.031  10.888   6.759
    5AU     LIG 2067  13.169  10.436   6.581
    5AU     LIG 2068  13.434  10.129   6.301
    5AU     LIG 2069  13.701   9.743   6.138
    5AU    AUSL 2070  11.428  11.551   7.567
    5AU    AUSL 2071  11.527  11.789   7.157
    5AU     AUL 2072  11.180  11.611   7.290
    5AU       S 2073  11.329  11.595   6.854
    5AU     LIG 2074  11.079  11.354   6.515
    5AU     LIG 2075  10.755  11.042   6.366
    5AU     LIG 2076  10.450  10.841   6.061
    5AU     LIG 2077  10.204  10.682   5.684
    5AU       S 2078  10.996  11.598   7.731
    5AU     LIG 2079  10.567  11.468   7.635
    5AU     LIG 2080  10.116  11.334   7.589
    5AU     LIG 2081   9.716  11.097   7.494
    5AU     LIG 2082   9.495  10.703   7.354
    5AU    AUSL 2083  11.485  11.936   7.757
    5AU    AUSL 2084  11.751  11.567   7.843
    5AU     AUL 2085  11.415  11.530   7.917
    5AU       S 2086  11.488  11.370   8.350
    5AU     LIG 2087  11.291  11.070   8.111
    5AU     LIG 2088  11.004  10.718   8.145
    5AU     LIG 2089  10.682  10.516   8.404
    5AU     LIG 2090  10.403  10.281   8.699
    5AU       S 2091  11.079  11.844   7.872
    5AU     LIG 2092  10.561  11.935   7.854
    5AU     LIG 2093  10.111  11.725   7.921
    5AU     LIG 2094   9.672  11.528   7.784
    5AU     LIG 2095   9.275  11.255   7.745
    5AU    AUSL 2096  12.189  12.761   7.903
    5AU    AUSL 2097  11.747  12.792   7.816
    5AU     AUL 2098  12.001  12.886   8.180
    5AU       S 2099  11.614  12.999   7.944
    5AU     LIG 2100  11.387  13.266   8.284
    5AU     LIG 2101  11.258  13.641   8.554
    5AU     LIG 2102  11.026  14.066   8.600
    5AU     LIG 2103  10.585  14.196   8.719
    5AU       S 2104  12.216  13.234   7.965
    5AU     LIG 2105  12.372  13.213   8.351
    5AU     LIG 2106  12.369  13.663   8.493
    5AU     LIG 2107  12.258  14.111   8.626
    5AU     LIG 2108  12.001  14.423   8.892
    5AU    AUSL 2109  12.012  13.020   7.594
    5AU    AUSL 2110  12.298  12.983   7.225
    5AU     AUL 2111  12.032  13.253   7.339
    5AU       S 2112  12.054  13.228   7.808
    5AU     LIG 2113  12.118  13.707   7.857
    5AU     LIG 2114  12.067  14.057   8.150
    5AU     LIG 2115  11.801  14.351   8.411
    5AU     LIG 2116  11.696  14.753   8.622
    5AU       S 2117  12.196  13.295   6.905
    5AU     LIG 2118  12.591  13.449   6.981
    5AU     LIG 2119  12.786  13.888   6.918
    5AU     LIG 2120  13.068  14.291   6.923
    5AU     LIG 2121  13.233  14.732   6.828
    5AU    AUSL 2122  12.452  12.966   7.623
    5AU    AUSL 2123  12.485  12.670   8.184
    5AU     AUL 2124  12.566  12.929   7.962
    5AU       S 2125  12.717  12.755   8.394
    5AU     LIG 2126  13.076  12.704   8.719
    5AU     LIG 2127  13.332  12.959   8.993
    5AU     LIG 2128  13.506  13.343   9.184
    5AU     LIG 2129  13.720  13.731   9.356
    5AU       S 2130  12.408  13.274   7.673
    5AU     LIG 2131  12.600  13.545   8.011
    5AU     LIG 2132  12.610  13.991   8.167
    5AU     LIG 2133  12.913  14.366   8.204
    5AU     LIG 2134  13.261  14.688   8.299
    5AU    AUSL 2135  12.129  11.347   7.934
    5AU    AUSL 2136  12.540  11.371   7.779
    5AU     AUL 2137  12.361  11.256   8.173
    5AU       S 2138  12.124  10.909   7.976
    5AU     LIG 2139  12.315  10.717   8.292
    5AU     LIG 2140  12.220  10.293   8.409
    5AU     LIG 2141  12.216   9.835   8.476
    5AU     LIG 2142  12.379   9.426   8.621
    5AU       S 2143  12.691  11.157   7.832
    5AU     LIG 2144  12.756  10.698   8.001
    5AU     LIG 2145  13.071  10.410   8.252
    5AU     LIG 2146  13.375  10.176   8.572
    5AU     LIG 2147  13.809  10.001   8.751
    5AU    AUSL 2148  11.818  11.207   7.647
    5AU    AUSL 2149  11.924  11.526   8.249
    5AU     AUL 2150  11.784  11.237   8.013
    5AU       S 2151  11.940  10.831   7.826
    5AU     LIG 2152  11.841  10.515   8.129
    5AU     LIG 2153  11.808  10.063   8.183
    5AU     LIG 2154  11.899   9.621   8.096
    5AU     LIG 2155  11.983   9.239   8.324
    5AU       S 2156  11.746  11.400   8.455
    5AU     LIG 2157  11.516  10.956   8.585
    5AU     LIG 2158  11.072  10.798   8.653
    5AU     LIG 2159  10.822  10.504   8.911
    5AU     LIG 2160  10.645  10.206   9.221
    5AU    AUSL 2161  12.252  11.133   7.584
    5AU    AUSL 2162  12.016  11.374   7.306
    5AU     AUL 2163  11.906  11.023   7.402
    5AU       S 2164  12.267  10.944   7.138
    5AU     LIG 2165  11.899  10.650   7.066
    5AU     LIG 2166  11.886  10.196   6.982
    5AU     LIG 2167  11.819   9.781   6.751
    5AU     LIG 2168  11.899   9.329   6.588
    5AU       S 2169  12.266  10.907   7.725
    5AU     LIG 2170  12.313  10.435   7.861
    5AU     LIG 2171  12.272   9.973   7.984
    5AU     LIG 2172  12.402   9.532   8.107
    5AU     LIG 2173  12.452   9.067   8.237
    5AU    AUSL 2174  12.127  12.800   6.865
    5AU    AUSL 2175  12.656  12.770   7.274
    5AU     AUL 2176  12.467  12.931   6.939
    5AU       S 2177  12.092  13.011   6.658
    5AU     LIG 2178  12.486  13.215   6.515
    5AU     LIG 2179  12.495  13.685   6.510
    5AU     LIG 2180  12.270  14.057   6.306
    5AU     LIG 2181  12.186  14.285   5.887
    5AU       S 2182  12.850  12.972   7.178
    5AU     LIG 2183  13.260  13.158   6.943
    5AU     LIG 2184  13.462  13.238   6.511
    5AU     LIG 2185  13.622  13.589   6.220
    5AU     LIG 2186  13.768  14.067   6.254
    5AU    AUSL 2187  11.948  12.751   7.287
    5AU    AUSL 2188  11.898  12.468   6.952
    5AU     AUL 2189  11.815  12.908   7.045
    5AU       S 2190  12.007  13.269   6.859
    5AU     LIG 2191  12.079  13.771   6.821
    5AU     LIG 2192  12.003  14.237   6.738
    5AU     LIG 2193  11.740  14.639   6.809
    5AU     LIG 2194  11.520  15.078   6.866
    5AU       S 2195  11.693  12.699   6.652
    5AU     LIG 2196  11.721  12.887   6.258
    5AU     LIG 2197  11.450  13.140   5.976
    5AU     LIG 2198  11.232  13.462   5.721
    5AU     LIG 2199  11.136  13.593   5.291
    5AU    AUSL 2200  12.203  11.353   6.913
    5AU    AUSL 2201  11.605  11.362   7.231
    5AU     AUL 2202  11.865  11.214   6.972
    5AU       S 2203  11.407  11.322   6.999
    5AU     LIG 2204  11.207  10.965   6.840
    5AU     LIG 2205  10.922  10.646   6.650
    5AU     LIG 2206  10.554  10.480   6.416
    5AU     LIG 2207  10.290  10.214   6.136
    5AU       S 2208  12.267  10.954   6.926
    5AU     LIG 2209  12.268  10.547   6.715
    5AU     LIG 2210  12.181  10.117   6.563
    5AU     LIG 2211  12.240   9.691   6.415
    5AU     LIG 2212  12.192   9.342   6.119
    5AU    AUSL 2213  12.444  11.363   7.293
    5AU    AUSL 2214  12.448  11.691   6.947
    5AU     AUL 2215  12.545  11.321   6.924
    5AU       S 2216  12.509  10.967   7.228
    5AU     LIG 2217  12.372  10.467   7.216
    5AU     LIG 2218  12.377  10.006   7.025
    5AU     LIG 2219  12.248   9.569   6.907
    5AU     LIG 2220  12.329   9.114   6.769
    5AU       S 2221  12.770  11.537   6.595
    5AU     LIG 2222  12.638  11.101   6.491
    5AU     LIG 2223  12.808  10.703   6.318
    5AU     LIG 2224  13.050  10.377   6.070
    5AU     LIG 2225  13.242  10.175   5.687
    6AU     AUC 2226   1.966  35.953   7.489
    6AU     AUC 2227   2.241  35.973   7.312
    6AU     AUC 2228   2.229  35.944   7.663
    6AU     AUC 2229   1.685  35.942   7.319
    6AU     AUC 2230   1.698  35.977   7.672
    6AU     AUC 2231   1.794  36.228   7.487
    6AU     AUC 2232   2.145  36.239   7.479
    6AU     AUC 2233   1.786  35.680   7.495
    6AU     AUC 2234   2.135  35.665   7.488
    6AU     AUC 2235   1.968  35.773   7.766
    6AU     AUC 2236   1.958  36.139   7.754
    6AU     AUC 2237   1.967  35.789   7.212
    6AU     AUC 2238   1.979  36.111   7.210
    6AU     AUC 2239   2.555  35.988   7.147
    6AU     AUC 2240   2.568  35.937   7.507
    6AU     AUC 2241   2.518  35.919   7.857
    6AU     AUC 2242   1.388  35.923   7.146
    6AU     AUC 2243   1.362  35.965   7.511
    6AU     AUC 2244   1.415  35.998   7.855
    6AU     AUC 2245   1.625  36.528   7.470
    6AU     AUC 2246   1.989  36.573   7.449
    6AU     AUC 2247   2.322  36.527   7.476
    6AU     AUC 2248   1.595  35.398   7.499
    6AU     AUC 2249   1.948  35.350   7.481
    6AU     AUC 2250   2.308  35.367   7.472
    6AU     AUC 2251   1.953  35.591   8.058
    6AU     AUC 2252   1.963  35.958   8.087
    6AU     AUC 2253   1.980  36.314   8.050
    6AU     AUC 2254   2.002  35.618   6.936
    6AU     AUC 2255   1.979  35.951   6.874
    6AU     AUC 2256   1.958  36.279   6.908
    6AU     AUC 2257   2.236  35.730   7.982
    6AU     AUC 2258   2.272  36.112   7.977
    6AU     AUC 2259   2.303  35.827   6.983
    6AU     AUC 2260   2.283  36.148   7.017
    6AU     AUC 2261   1.664  35.813   8.005
    6AU     AUC 2262   1.681  36.191   7.984
    6AU     AUC 2263   1.673  35.756   7.027
    6AU     AUC 2264   1.648  36.079   6.978
    6AU     AUC 2265   2.489  36.255   7.335
    6AU     AUC 2266   2.437  36.221   7.683
    6AU     AUC 2267   1.484  36.236   7.297
    6AU     AUC 2268   1.489  36.283   7.664
    6AU     AUC 2269   2.447  35.663   7.314
    6AU     AUC 2270   2.413  35.605   7.674
    6AU     AUC 2271   1.455  35.637   7.348
    6AU     AUC 2272   1.504  35.687   7.704
    6AU     AUC 2273   1.802  36.470   7.758
    6AU     AUC 2274   2.154  36.437   7.765
    6AU     AUC 2275   1.781  35.470   7.792
    6AU     AUC 2276   2.101  35.423   7.763
    6AU     AUC 2277   1.786  36.389   7.172
    6AU     AUC 2278   2.156  36.444   7.189
    6AU     AUC 2279   1.786  35.476   7.197
    6AU     AUC 2280   2.179  35.504   7.190
    6AU    AUSL 2281   2.498  35.851   8.222
    6AU    AUSL 2282   2.232  35.438   8.142
    6AU     AUL 2283   2.520  35.448   8.359
    6AU       S 2284   2.630  35.090   8.098
    6AU     LIG 2285   2.517  34.926   8.478
    6AU     LIG 2286   2.636  34.535   8.679
    6AU     LIG 2287   2.907  34.284   8.971
    6AU     LIG 2288   3.151  34.260   9.368
    6AU       S 2289   2.722  35.852   8.356
    6AU     LIG 2290   2.557  35.862   8.802
    6AU     LIG 2291   2.702  35.954   9.237
    6AU     LIG 2292   3.000  35.928   9.597
    6AU     LIG 2293   3.387  35.855   9.858
    6AU    AUSL 2294   2.098  35.766   8.387
    6AU    AUSL 2295   1.837  36.139   8.411
    6AU     AUL 2296   2.043  36.078   8.729
    6AU       S 2297   2.174  35.692   8.531
    6AU     LIG 2298   2.042  35.607   8.921
    6AU     LIG 2299   2.332  35.595   9.282
    6AU     LIG 2300   2.594  35.597   9.678
    6AU     LIG 2301   2.636  35.479  10.140
    6AU       S 2302   1.652  35.869   8.633
    6AU     LIG 2303   1.653  35.916   9.094
    6AU     LIG 2304   1.414  35.940   9.511
    6AU     LIG 2305   1.240  35.947   9.950
    6AU     LIG 2306   1.284  36.097  10.396
    6AU    AUSL 2307   2.161  36.138   8.149
    6AU    AUSL 2308   2.600  36.246   8.091
    6AU     AUL 2309   2.388  36.154   8.431
    6AU       S 2310   2.039  36.527   8.566
    6AU     LIG 2311   2.409  36.408   8.864
    6AU     LIG 2312   2.718  36.475   9.214
    6AU     LIG 2313   2.772  36.513   9.683
    6AU     LIG 2314   2.738  36.700  10.122
    6AU       S 2315   2.761  36.382   8.270
    6AU     LIG 2316   3.181  36.427   8.288
    6AU     LIG 2317   3.437  36.645   8.620
    6AU     LIG 2318   3.657  36.906   8.952
    6AU     LIG 2319   3.817  37.212   9.275
    6AU    AUSL 2320   2.506  36.111   6.754
    6AU    AUSL 2321   2.270  36.422   6.951
    6AU     AUL 2322   2.412  36.482   6.612
    6AU       S 2323   2.473  36.157   6.299
    6AU     LIG 2324   2.848  35.997   6.113
    6AU     LIG 2325   2.901  35.730   5.746
    6AU     LIG 2326   3.029  35.638   5.306
    6AU     LIG 2327   3.431  35.480   5.082
    6AU       S 2328   2.739  36.688   6.881
    6AU     LIG 2329   2.800  36.913   6.502
    6AU     LIG 2330   3.049  37.117   6.142
    6AU     LIG 2331   3.303  37.274   5.770
    6AU     LIG 2332   3.286  37.457   5.323
    6AU    AUSL 2333   2.291  35.774   6.594
    6AU    AUSL 2334   2.653  35.744   6.918
    6AU     AUL 2335   2.701  35.874   6.604
    6AU       S 2336   2.837  35.435   6.700
    6AU     LIG 2337   2.967  35.027   6.446
    6AU     LIG 2338   3.184  34.692   6.176
    6AU     LIG 2339   3.466  34.456   5.873
    6AU     LIG 2340   3.732  34.430   5.473
    6AU       S 2341   2.377  36.016   6.291
    6AU     LIG 2342   2.471  35.631   6.108
    6AU     LIG 2343   2.488  35.427   5.675
    6AU     LIG 2344   2.549  35.448   5.199
    6AU     LIG 2345   2.580  35.515   4.716
    6AU    AUSL 2346   2.082  36.148   6.677
    6AU    AUSL 2347   1.877  35.745   6.714
    6AU     AUL 2348   2.026  35.761   6.426
    6AU       S 2349   1.589  35.766   6.281
    6AU     LIG 2350   1.598  35.633   5.872
    6AU     LIG 2351   1.367  35.456   5.532
    6AU     LIG 2352   1.189  35.545   5.120
    6AU     LIG 2353   1.055  35.323   4.725
    6AU       S 2354   2.128  36.213   6.344
    6AU     LIG 2355   2.177  36.012   5.855
    6AU     LIG 2356   2.488  35.910   5.481
    6AU     LIG 2357   2.656  35.931   5.025
    6AU     LIG 2358   2.719  36.060   4.561
    6AU    AUSL 2359   1.436  36.069   8.248
    6AU    AUSL 2360   1.698  36.446   8.151
    6AU     AUL 2361   1.570  36.343   8.492
    6AU       S 2362   1.460  35.886   8.611
    6AU     LIG 2363   1.172  35.932   8.894
    6AU     LIG 2364   1.015  35.730   9.271
    6AU     LIG 2365   0.812  35.761   9.684
    6AU     LIG 2366   0.376  35.809   9.868
    6AU       S 2367   1.336  36.653   8.219
    6AU     LIG 2368   1.479  36.849   8.564
    6AU     LIG 2369   1.302  37.001   8.950
    6AU     LIG 2370   0.972  37.210   9.195
    6AU     LIG 2371   0.687  37.328   9.545
    6AU    AUSL 2372   1.743  35.795   8.156
    6AU    AUSL 2373   1.331  35.656   8.123
    6AU     AUL 2374   1.202  35.895   8.237
    6AU       S 2375   1.243  35.447   8.385
    6AU     LIG 2376   0.800  35.393   8.228
    6AU     LIG 2377   0.451  35.063   8.264
    6AU     LIG 2378   0.178  34.759   8.517
    6AU     LIG 2379   0.098  34.660   8.955
    6AU       S 2380   1.638  35.730   8.535
    6AU     LIG 2381   1.499  35.464   8.895
    6AU     LIG 2382   1.450  35.457   9.332
    6AU     LIG 2383   1.244  35.474   9.741
    6AU     LIG 2384   1.164  35.349  10.190
    6AU    AUSL 2385   1.452  35.802   6.759
    6AU    AUSL 2386   1.661  35.459   6.939
    6AU     AUL 2387   1.710  35.445   6.608
    6AU       S 2388   1.420  35.696   6.361
    6AU     LIG 2389   1.063  35.657   6.174
    6AU     LIG 2390   0.958  35.703   5.739
    6AU     LIG 2391   0.794  35.808   5.320
    6AU     LIG 2392   0.390  35.708   5.101
    6AU       S 2393   1.287  35.339   6.759
    6AU     LIG 2394   1.195  35.040   6.473
    6AU     LIG 2395   0.839  34.786   6.334
    6AU     LIG 2396   0.609  34.483   6.078
    6AU     LIG 2397   0.525  34.296   5.653
    6AU    AUSL 2398   1.674  36.122   6.582
    6AU    AUSL 2399   1.314  36.194   6.884
    6AU     AUL 2400   1.232  36.029   6.601
    6AU       S 2401   1.342  36.469   6.632
    6AU     LIG 2402   0.930  36.517   6.581
    6AU     LIG 2403   0.705  36.771   6.249
    6AU     LIG 2404   0.549  36.993   5.863
    6AU     LIG 2405   0.371  37.225   5.491
    6AU       S 2406   1.635  36.046   6.342
    6AU     LIG 2407   1.332  36.065   5.969
    6AU     LIG 2408   1.316  35.968   5.497
    6AU     LIG 2409   1.172  36.088   5.067
    6AU     LIG 2410   1.157  36.452   4.755
    6AU    AUSL 2411   2.753  36.452   7.513
    6AU    AUSL 2412   2.660  36.280   7.110
    6AU     AUL 2413   3.023  36.560   7.285
    6AU       S 2414   2.761  36.457   6.934
    6AU     LIG 2415   2.914  36.384   6.512
    6AU     LIG 2416   3.251  36.680   6.325
    6AU     LIG 2417   3.567  37.011   6.144
    6AU     LIG 2418   3.825  37.350   5.918
    6AU       S 2419   3.135  36.315   7.676
    6AU     LIG 2420   3.503  36.566   7.627
    6AU     LIG 2421   3.935  36.743   7.575
    6AU     LIG 2422   4.344  36.911   7.542
    6AU     LIG 2423   4.674  37.210   7.538
    6AU    AUSL 2424   2.924  36.053   7.351
    6AU    AUSL 2425   2.878  35.715   7.692
    6AU     AUL 2426   3.227  35.781   7.594
    6AU       S 2427   3.048  36.117   7.373
    6AU     LIG 2428   3.513  36.133   7.363
    6AU     LIG 2429   3.974  36.280   7.356
    6AU     LIG 2430   4.419  36.462   7.299
    6AU     LIG 2431   4.752  36.794   7.235
    6AU       S 2432   3.106  35.328   7.664
    6AU     LIG 2433   3.480  35.312   7.849
    6AU     LIG 2434   3.885  35.116   7.765
    6AU     LIG 2435   4.322  35.002   7.662
    6AU     LIG 2436   4.652  34.691   7.706
    6AU    AUSL 2437   2.671  36.082   7.715
    6AU    AUSL 2438   2.416  36.478   7.772
    6AU     AUL 2439   2.743  36.521   7.822
    6AU       S 2440   2.729  36.695   8.244
    6AU     LIG 2441   3.067  36.930   8.391
    6AU     LIG 2442   3.346  37.177   8.644
    6AU     LIG 2443   3.681  37.434   8.823
    6AU     LIG 2444   3.971  37.804   8.762
    6AU       S 2445   3.007  36.139   7.829
    6AU     LIG 2446   3.481  36.118   7.952
    6AU     LIG 2447   3.903  36.310   7.867
    6AU     LIG 2448   4.355  36.463   7.804
    6AU     LIG 2449   4.773  36.712   7.751
    6AU    AUSL 2450   1.300  36.496   7.500
    6AU    AUSL 2451   1.375  36.288   7.897
    6AU     AUL 2452   1.071  36.602   7.756
    6AU       S 2453   1.194  36.455   8.178
    6AU     LIG 2454   1.097  36.485   8.639
    6AU     LIG 2455   0.852  36.742   8.956
    6AU     LIG 2456   0.528  36.943   9.231
    6AU     LIG 2457   0.140  37.103   9.431
    6AU       S 2458   1.292  36.886   7.434
    6AU     LIG 2459   0.829  36.768   7.346
    6AU     LIG 2460   0.364  36.797   7.408
    6AU     LIG 2461  44.974  37.099   7.478
    6AU     LIG 2462  44.597  37.399   7.463
    6AU    AUSL 2463   1.255  36.118   7.290
    6AU    AUSL 2464   1.384  36.570   7.096
    6AU     AUL 2465   1.092  36.414   7.131
    6AU       S 2466   0.919  35.948   6.963
    6AU     LIG 2467   0.603  36.318   7.026
    6AU     LIG 2468   0.171  36.503   6.975
    6AU     LIG 2469  44.734  36.714   6.906
    6AU     LIG 2470  44.364  36.983   6.799
    6AU       S 2471   1.188  36.828   6.892
    6AU     LIG 2472   1.054  37.053   6.494
    6AU     LIG 2473   0.755  37.329   6.207
    6AU     LIG 2474   0.420  37.689   6.096
    6AU     LIG 2475   0.102  38.077   6.170
    6AU    AUSL 2476   1.050  36.154   7.677
    6AU    AUSL 2477   1.022  35.786   7.392
    6AU     AUL 2478   0.863  36.115   7.403
    6AU       S 2479   0.818  35.709   7.664
    6AU     LIG 2480   0.491  35.759   7.351
    6AU     LIG 2481   0.025  35.625   7.288
    6AU     LIG 2482  44.604  35.427   7.158
    6AU     LIG 2483  44.262  35.148   6.937
    6AU       S 2484   0.888  36.183   7.902
    6AU     LIG 2485   0.515  36.350   7.692
    6AU     LIG 2486   0.134  36.593   7.835
    6AU     LIG 2487  44.728  36.830   7.835
    6AU     LIG 2488  44.386  36.925   8.104
    6AU    AUSL 2489   2.652  35.384   7.526
    6AU    AUSL 2490   2.499  35.634   7.865
    6AU     AUL 2491   2.803  35.536   7.945
    6AU       S 2492   2.847  35.225   7.504
    6AU     LIG 2493   3.204  34.855   7.563
    6AU     LIG 2494   3.672  34.699   7.536
    6AU     LIG 2495   4.145  34.532   7.513
    6AU     LIG 2496   4.519  34.211   7.597
    6AU       S 2497   2.743  35.084   7.954
    6AU     LIG 2498   2.976  34.764   8.241
    6AU     LIG 2499   3.164  34.523   8.593
    6AU     LIG 2500   3.428  34.295   8.910
    6AU     LIG 2501   3.655  34.379   9.308
    6AU    AUSL 2502   2.627  35.764   7.334
    6AU    AUSL 2503   2.594  35.356   7.108
    6AU     AUL 2504   2.876  35.600   7.177
    6AU       S 2505   3.114  35.334   7.445
    6AU     LIG 2506   3.556  35.201   7.353
    6AU     LIG 2507   3.985  34.999   7.265
    6AU     LIG 2508   4.421  34.839   7.173
    6AU     LIG 2509   4.745  34.992   6.861
    6AU       S 2510   2.798  35.238   6.879
    6AU     LIG 2511   2.677  34.798   6.867
    6AU     LIG 2512   2.874  34.518   6.569
    6AU     LIG 2513   2.999  34.210   6.241
    6AU     LIG 2514   3.228  33.979   5.916
    6AU    AUSL 2515   1.226  35.426   7.545
    6AU    AUSL 2516   1.328  35.660   7.135
    6AU     AUL 2517   0.979  35.483   7.271
    6AU       S 2518   1.147  35.469   6.844
    6AU     LIG 2519   0.811  35.382   6.561
    6AU     LIG 2520   0.454  35.089   6.493
    6AU     LIG 2521   0.208  34.752   6.282
    6AU     LIG 2522   0.119  34.511   5.896
    6AU       S 2523   0.791  35.484   7.711
    6AU     LIG 2524   0.354  35.354   7.650
    6AU     LIG 2525  44.942  35.150   7.510
    6AU     LIG 2526  44.529  34.975   7.366
    6AU     LIG 2527  44.369  34.576   7.349
    6AU    AUSL 2528   1.284  35.810   7.738
    6AU    AUSL 2529   1.547  35.437   7.824
    6AU     AUL 2530   1.211  35.396   7.886
    6AU       S 2531   1.260  35.214   8.304
    6AU     LIG 2532   0.941  34.887   8.208
    6AU     LIG 2533   0.573  34.546   8.263
    6AU     LIG 2534   0.209  34.244   8.424
    6AU     LIG 2535  44.992  34.013   8.777
    6AU       S 2536   0.883  35.719   7.849
    6AU     LIG 2537   0.383  35.841   7.851
    6AU     LIG 2538  44.944  35.636   7.793
    6AU     LIG 2539  44.542  35.413   7.676
    6AU     LIG 2540  44.214  35.095   7.747
    6AU    AUSL 2541   1.989  36.627   7.897
    6AU    AUSL 2542   1.547  36.665   7.807
    6AU     AUL 2543   1.800  36.759   8.169
    6AU       S 2544   1.413  36.877   7.935
    6AU     LIG 2545   1.109  37.085   8.261
    6AU     LIG 2546   0.887  37.182   8.677
    6AU     LIG 2547   0.535  37.391   8.947
    6AU     LIG 2548   0.126  37.677   8.954
    6AU       S 2549   2.020  37.106   7.952
    6AU     LIG 2550   2.082  37.210   8.338
    6AU     LIG 2551   1.991  37.629   8.511
    6AU     LIG 2552   1.981  38.074   8.641
    6AU     LIG 2553   1.902  38.378   8.981
    6AU    AUSL 2554   1.820  36.884   7.587
    6AU    AUSL 2555   2.105  36.856   7.224
    6AU     AUL 2556   1.773  37.104   7.349
    6AU       S 2557   1.871  37.107   7.808
    6AU     LIG 2558   1.918  37.583   7.980
    6AU     LIG 2559   1.873  38.026   8.140
    6AU     LIG 2560   1.794  38.478   8.275
    6AU     LIG 2561   1.623  38.914   8.145
    6AU       S 2562   2.039  37.165   6.980
    6AU     LIG 2563   2.427  37.276   7.054
    6AU     LIG 2564   2.555  37.667   6.860
    6AU     LIG 2565   2.487  38.086   6.650
    6AU     LIG 2566   2.668  38.529   6.639
    6AU    AUSL 2567   2.259  36.834   7.622
    6AU    AUSL 2568   2.280  36.537   8.182
    6AU     AUL 2569   2.361  36.799   7.964
    6AU       S 2570   2.510  36.621   8.396
    6AU     LIG 2571   2.872  36.582   8.720
    6AU     LIG 2572   3.128  36.847   8.989
    6AU     LIG 2573   3.309  37.240   9.165
    6AU     LIG 2574   3.335  37.517   9.542
    6AU       S 2575   2.215  37.136   7.649
    6AU     LIG 2576   2.422  37.394   7.974
    6AU     LIG 2577   2.352  37.800   8.193
    6AU     LIG 2578   2.316  38.256   8.288
    6AU     LIG 2579   2.567  38.648   8.318
    6AU    AUSL 2580   1.927  35.226   7.925
    6AU    AUSL 2581   2.340  35.242   7.770
    6AU     AUL 2582   2.166  35.117   8.152
    6AU       S 2583   1.922  34.767   7.970
    6AU     LIG 2584   2.062  34.538   8.308
    6AU     LIG 2585   1.963  34.101   8.426
    6AU     LIG 2586   1.824  33.659   8.507
    6AU     LIG 2587   1.753  33.370   8.869
    6AU       S 2588   2.499  35.021   7.816
    6AU     LIG 2589   2.514  34.602   8.084
    6AU     LIG 2590   2.830  34.257   8.298
    6AU     LIG 2591   3.211  34.004   8.530
    6AU     LIG 2592   3.619  33.749   8.673
    6AU    AUSL 2593   1.615  35.072   7.639
    6AU    AUSL 2594   1.705  35.391   8.236
    6AU     AUL 2595   1.590  35.105   8.000
    6AU       S 2596   1.737  34.696   7.810
    6AU     LIG 2597   1.677  34.311   8.037
    6AU     LIG 2598   1.591  33.870   8.092
    6AU     LIG 2599   1.613  33.412   8.077
    6AU     LIG 2600   1.416  32.972   7.985
    6AU       S 2601   1.503  35.278   8.439
    6AU     LIG 2602   1.165  35.036   8.738
    6AU     LIG 2603   0.737  34.816   8.679
    6AU     LIG 2604   0.520  34.421   8.788
    6AU     LIG 2605   0.293  34.208   9.145
    6AU    AUSL 2606   2.049  35.003   7.582
    6AU    AUSL 2607   1.815  35.246   7.304
    6AU     AUL 2608   1.713  34.889   7.383
    6AU       S 2609   2.104  34.807   7.157
    6AU     LIG 2610   1.841  34.397   7.130
    6AU     LIG 2611   1.715  33.939   6.990
    6AU     LIG 2612   1.493  33.518   6.917
    6AU     LIG 2613   1.387  33.037   6.994
    6AU       S 2614   2.066  34.783   7.717
    6AU     LIG 2615   2.156  34.320   7.829
    6AU     LIG 2616   2.095  33.855   8.001
    6AU     LIG 2617   2.186  33.428   8.225
    6AU     LIG 2618   2.313  32.944   8.245
    6AU    AUSL 2619   1.947  36.674   6.857
    6AU    AUSL 2620   2.461  36.635   7.271
    6AU     AUL 2621   2.289  36.792   6.927
    6AU       S 2622   1.922  36.933   6.666
    6AU     LIG 2623   2.306  37.197   6.555
    6AU     LIG 2624   2.363  37.643   6.382
    6AU     LIG 2625   2.238  38.040   6.163
    6AU     LIG 2626   2.167  38.234   5.727
    6AU       S 2627   2.666  36.823   7.179
    6AU     LIG 2628   3.068  37.034   6.953
    6AU     LIG 2629   3.337  37.174   6.577
    6AU     LIG 2630   3.679  37.484   6.400
    6AU     LIG 2631   3.860  37.941   6.366
    6AU    AUSL 2632   1.758  36.620   7.274
    6AU    AUSL 2633   1.716  36.341   6.935
    6AU     AUL 2634   1.632  36.777   7.017
    6AU       S 2635   1.860  37.146   6.882
    6AU     LIG 2636   2.031  37.602   6.769
    6AU     LIG 2637   1.963  38.035   6.630
    6AU     LIG 2638   1.685  38.407   6.742
    6AU     LIG 2639   1.710  38.849   6.832
    6AU       S 2640   1.516  36.576   6.621
    6AU     LIG 2641   1.335  36.728   6.208
    6AU     LIG 2642   1.069  37.008   5.942
    6AU     LIG 2643   0.881  37.301   5.610
    6AU     LIG 2644   0.749  37.671   5.332
    6AU    AUSL 2645   2.004  35.210   6.916
    6AU    AUSL 2646   1.407  35.234   7.213
    6AU     AUL 2647   1.665  35.088   6.960
    6AU       S 2648   1.203  35.189   6.979
    6AU     LIG 2649   0.827  34.942   6.839
    6AU     LIG 2650   0.506  34.599   6.682
    6AU     LIG 2651   0.277  34.259   6.418
    6AU     LIG 2652  44.986  33.880   6.358
    6AU       S 2653   2.067  34.834   7.005
    6AU     LIG 2654   2.237  34.481   6.775
    6AU     LIG 2655   2.056  34.077   6.615
    6AU     LIG 2656   1.893  33.647   6.530
    6AU     LIG 2657   1.814  33.373   6.126
    6AU    AUSL 2658   2.244  35.237   7.294
    6AU    AUSL 2659   2.247  35.552   6.941
    6AU     AUL 2660   2.336  35.190   6.899
    6AU       S 2661   2.370  34.895   7.263
    6AU     LIG 2662   2.326  34.411   7.306
    6AU     LIG 2663   2.212  34.036   7.089
    6AU     LIG 2664   2.101  33.603   7.044
    6AU     LIG 2665   2.336  33.241   6.923
    6AU       S 2666   2.586  35.396   6.584
    6AU     LIG 2667   2.467  34.950   6.430
    6AU     LIG 2668   2.668  34.620   6.112
    6AU     LIG 2669   2.958  34.424   5.770
    6AU     LIG 2670   3.244  34.209   5.448
    7AU     AUC 2671  25.566  34.468   7.500
    7AU     AUC 2672  25.849  34.475   7.324
    7AU     AUC 2673  25.835  34.448   7.676
    7AU     AUC 2674  25.281  34.462   7.331
    7AU     AUC 2675  25.293  34.502   7.681
    7AU     AUC 2676  25.397  34.748   7.495
    7AU     AUC 2677  25.751  34.747   7.489
    7AU     AUC 2678  25.379  34.200   7.510
    7AU     AUC 2679  25.734  34.177   7.498
    7AU     AUC 2680  25.566  34.295   7.777
    7AU     AUC 2681  25.560  34.657   7.762
    7AU     AUC 2682  25.561  34.302   7.226
    7AU     AUC 2683  25.579  34.624   7.221
    7AU     AUC 2684  26.159  34.486   7.154
    7AU     AUC 2685  26.174  34.439   7.514
    7AU     AUC 2686  26.121  34.420   7.872
    7AU     AUC 2687  24.983  34.447   7.158
    7AU     AUC 2688  24.956  34.495   7.521
    7AU     AUC 2689  25.006  34.534   7.863
    7AU     AUC 2690  25.235  35.052   7.474
    7AU     AUC 2691  25.602  35.086   7.456
    7AU     AUC 2692  25.935  35.033   7.487
    7AU     AUC 2693  25.180  33.923   7.522
    7AU     AUC 2694  25.536  33.868   7.498
    7AU     AUC 2695  25.898  33.878   7.482
    7AU     AUC 2696  25.545  34.123   8.067
    7AU     AUC 2697  25.554  34.480   8.095
    7AU     AUC 2698  25.581  34.832   8.059
    7AU     AUC 2699  25.584  34.125   6.953
    7AU     AUC 2700  25.573  34.463   6.889
    7AU     AUC 2701  25.561  34.789   6.920
    7AU     AUC 2702  25.836  34.240   7.996
    7AU     AUC 2703  25.870  34.617   7.994
    7AU     AUC 2704  25.889  34.328   6.993
    7AU     AUC 2705  25.885  34.653   7.030
    7AU     AUC 2706  25.254  34.351   8.015
    7AU     AUC 2707  25.279  34.724   7.989
    7AU     AUC 2708  25.263  34.272   7.042
    7AU     AUC 2709  25.246  34.596   6.990
    7AU     AUC 2710  26.098  34.759   7.351
    7AU     AUC 2711  26.040  34.723   7.698
    7AU     AUC 2712  25.086  34.760   7.304
    7AU     AUC 2713  25.092  34.813   7.668
    7AU     AUC 2714  26.037  34.165   7.309
    7AU     AUC 2715  26.026  34.125   7.672
    7AU     AUC 2716  25.046  34.162   7.365
    7AU     AUC 2717  25.093  34.220   7.718
    7AU     AUC 2718  25.411  34.993   7.762
    7AU     AUC 2719  25.760  34.946   7.776
    7AU     AUC 2720  25.370  34.006   7.806
    7AU     AUC 2721  25.708  33.952   7.780
    7AU     AUC 2722  25.393  34.906   7.180
    7AU     AUC 2723  25.766  34.952   7.200
    7AU     AUC 2724  25.371  33.988   7.217
    7AU     AUC 2725  25.760  34.005   7.199
    7AU    AUSL 2726  26.075  34.348   8.256
    7AU    AUSL 2727  25.847  33.956   8.170
    7AU     AUL 2728  26.030  33.956   8.533
    7AU       S 2729  26.197  33.712   8.168
    7AU     LIG 2730  26.075  33.415   8.473
    7AU     LIG 2731  26.307  33.167   8.793
    7AU     LIG 2732  26.579  32.862   9.034
    7AU     LIG 2733  26.718  32.603   9.407
    7AU       S 2734  26.251  34.300   8.337
    7AU     LIG 2735  26.170  34.368   8.804
    7AU     LIG 2736  26.382  34.312   9.226
    7AU     LIG 2737  26.765  34.254   9.519
    7AU     LIG 2738  27.196  34.279   9.747
    7AU    AUSL 2739  25.668  34.280   8.398
    7AU    AUSL 2740  25.427  34.666   8.421
    7AU     AUL 2741  25.633  34.603   8.746
    7AU       S 2742  25.676  34.221   8.517
    7AU     LIG 2743  25.731  34.140   8.950
    7AU     LIG 2744  25.961  34.018   9.347
    7AU     LIG 2745  26.100  33.870   9.789
    7AU     LIG 2746  26.241  33.664  10.204
    7AU       S 2747  25.228  34.418   8.637
    7AU     LIG 2748  25.288  34.432   9.094
    7AU     LIG 2749  25.074  34.406   9.505
    7AU     LIG 2750  24.915  34.417   9.940
    7AU     LIG 2751  24.764  34.708  10.262
    7AU    AUSL 2752  25.753  34.647   8.163
    7AU    AUSL 2753  26.193  34.740   8.115
    7AU     AUL 2754  25.984  34.660   8.451
    7AU       S 2755  25.639  35.049   8.577
    7AU     LIG 2756  25.992  34.944   8.872
    7AU     LIG 2757  26.204  35.087   9.262
    7AU     LIG 2758  26.151  35.226   9.721
    7AU     LIG 2759  26.210  35.198  10.190
    7AU       S 2760  26.365  34.890   8.300
    7AU     LIG 2761  26.792  35.016   8.233
    7AU     LIG 2762  27.074  35.245   8.540
    7AU     LIG 2763  27.286  35.471   8.901
    7AU     LIG 2764  27.414  35.602   9.337
    7AU    AUSL 2765  26.105  34.615   6.770
    7AU    AUSL 2766  25.878  34.926   6.969
    7AU     AUL 2767  26.016  34.985   6.618
    7AU       S 2768  26.090  34.633   6.329
    7AU     LIG 2769  26.476  34.411   6.171
    7AU     LIG 2770  26.535  34.133   5.823
    7AU     LIG 2771  26.605  34.118   5.363
    7AU     LIG 2772  26.767  34.222   4.932
    7AU       S 2773  26.354  35.173   6.883
    7AU     LIG 2774  26.376  35.382   6.487
    7AU     LIG 2775  26.550  35.553   6.073
    7AU     LIG 2776  26.806  35.802   5.766
    7AU     LIG 2777  27.048  35.971   5.401
    7AU    AUSL 2778  25.873  34.290   6.614
    7AU    AUSL 2779  26.207  34.219   6.900
    7AU     AUL 2780  26.331  34.392   6.664
    7AU       S 2781  26.199  33.943   6.614
    7AU     LIG 2782  26.516  33.840   6.271
    7AU     LIG 2783  26.766  33.463   6.119
    7AU     LIG 2784  27.059  33.119   5.973
    7AU     LIG 2785  27.388  32.994   5.650
    7AU       S 2786  26.011  34.431   6.325
    7AU     LIG 2787  26.073  34.066   6.115
    7AU     LIG 2788  26.112  33.870   5.692
    7AU     LIG 2789  26.153  33.922   5.221
    7AU     LIG 2790  26.353  33.940   4.794
    7AU    AUSL 2791  25.679  34.668   6.685
    7AU    AUSL 2792  25.462  34.258   6.730
    7AU     AUL 2793  25.598  34.286   6.438
    7AU       S 2794  25.158  34.272   6.302
    7AU     LIG 2795  25.243  34.055   5.939
    7AU     LIG 2796  25.011  33.879   5.582
    7AU     LIG 2797  24.853  33.929   5.147
    7AU     LIG 2798  24.659  34.013   4.722
    7AU       S 2799  25.767  34.705   6.331
    7AU     LIG 2800  25.860  34.497   5.870
    7AU     LIG 2801  26.163  34.366   5.517
    7AU     LIG 2802  26.283  34.400   5.045
    7AU     LIG 2803  26.357  34.545   4.592
    7AU    AUSL 2804  25.025  34.614   8.253
    7AU    AUSL 2805  25.304  34.972   8.152
    7AU     AUL 2806  25.175  34.893   8.492
    7AU       S 2807  25.016  34.474   8.654
    7AU     LIG 2808  24.815  34.246   8.947
    7AU     LIG 2809  24.609  34.240   9.352
    7AU     LIG 2810  24.438  34.287   9.769
    7AU     LIG 2811  24.137  34.135  10.087
    7AU       S 2812  24.942  35.193   8.217
    7AU     LIG 2813  24.912  35.352   8.614
    7AU     LIG 2814  24.775  35.560   9.012
    7AU     LIG 2815  24.516  35.862   9.246
    7AU     LIG 2816  24.330  36.291   9.308
    7AU    AUSL 2817  25.324  34.330   8.158
    7AU    AUSL 2818  24.911  34.198   8.137
    7AU     AUL 2819  24.797  34.440   8.252
    7AU       S 2820  24.811  33.988   8.389
    7AU     LIG 2821  24.391  33.832   8.195
    7AU     LIG 2822  24.321  33.390   8.323
    7AU     LIG 2823  24.133  33.125   8.647
    7AU     LIG 2824  23.868  32.887   8.947
    7AU       S 2825  25.186  34.274   8.549
    7AU     LIG 2826  25.253  33.974   8.883
    7AU     LIG 2827  25.061  33.939   9.294
    7AU     LIG 2828  24.854  33.957   9.713
    7AU     LIG 2829  24.648  33.991  10.136
    7AU    AUSL 2830  25.038  34.316   6.774
    7AU    AUSL 2831  25.251  33.971   6.960
    7AU     AUL 2832  25.300  33.956   6.622
    7AU       S 2833  24.979  34.193   6.389
    7AU     LIG 2834  24.733  34.049   6.045
    7AU     LIG 2835  24.542  34.092   5.630
    7AU     LIG 2836  24.413  34.190   5.199
    7AU     LIG 2837  24.072  34.134   4.884
    7AU       S 2838  24.884  33.847   6.781
    7AU     LIG 2839  24.980  33.451   6.598
    7AU     LIG 2840  24.726  33.076   6.481
    7AU     LIG 2841  24.416  32.873   6.183
    7AU     LIG 2842  24.190  32.876   5.775
    7AU    AUSL 2843  25.270  34.631   6.595
    7AU    AUSL 2844  24.917  34.716   6.895
    7AU     AUL 2845  24.834  34.558   6.618
    7AU       S 2846  24.957  34.997   6.618
    7AU     LIG 2847  24.540  34.987   6.598
    7AU     LIG 2848  24.257  35.195   6.295
    7AU     LIG 2849  23.978  35.274   5.931
    7AU     LIG 2850  23.666  35.288   5.571
    7AU       S 2851  25.211  34.551   6.329
    7AU     LIG 2852  24.962  34.499   5.906
    7AU     LIG 2853  24.925  34.374   5.448
    7AU     LIG 2854  24.838  34.426   4.991
    7AU     LIG 2855  24.958  34.551   4.555
    7AU    AUSL 2856  26.358  34.956   7.533
    7AU    AUSL 2857  26.266  34.769   7.130
    7AU     AUL 2858  26.623  35.046   7.295
    7AU       S 2859  26.372  34.956   6.933
    7AU     LIG 2860  26.514  34.866   6.513
    7AU     LIG 2861  26.807  35.150   6.280
    7AU     LIG 2862  27.075  35.453   6.035
    7AU     LIG 2863  27.340  35.734   5.766
    7AU       S 2864  26.740  34.842   7.709
    7AU     LIG 2865  27.107  35.099   7.591
    7AU     LIG 2866  27.555  35.281   7.504
    7AU     LIG 2867  27.997  35.487   7.475
    7AU     LIG 2868  28.437  35.676   7.513
    7AU    AUSL 2869  26.537  34.565   7.386
    7AU    AUSL 2870  26.480  34.225   7.678
    7AU     AUL 2871  26.839  34.306   7.718
    7AU       S 2872  26.688  34.624   7.445
    7AU     LIG 2873  27.167  34.614   7.446
    7AU     LIG 2874  27.624  34.804   7.320
    7AU     LIG 2875  28.061  35.038   7.206
    7AU     LIG 2876  28.537  35.187   7.099
    7AU       S 2877  26.728  33.962   7.425
    7AU     LIG 2878  27.165  33.932   7.585
    7AU     LIG 2879  27.502  33.633   7.722
    7AU     LIG 2880  27.923  33.418   7.760
    7AU     LIG 2881  28.362  33.371   7.600
    7AU    AUSL 2882  26.271  34.588   7.736
    7AU    AUSL 2883  26.020  34.978   7.790
    7AU     AUL 2884  26.336  35.027   7.848
    7AU       S 2885  26.327  35.204   8.267
    7AU     LIG 2886  26.644  35.506   8.404
    7AU     LIG 2887  27.002  35.776   8.582
    7AU     LIG 2888  27.279  36.129   8.728
    7AU     LIG 2889  27.397  36.385   9.098
    7AU       S 2890  26.596  34.655   7.872
    7AU     LIG 2891  27.100  34.667   7.976
    7AU     LIG 2892  27.506  34.849   7.820
    7AU     LIG 2893  27.947  35.007   7.709
    7AU     LIG 2894  28.396  35.153   7.597
    7AU    AUSL 2895  24.910  35.028   7.502
    7AU    AUSL 2896  24.979  34.824   7.896
    7AU     AUL 2897  24.683  35.142   7.747
    7AU       S 2898  24.804  35.004   8.166
    7AU     LIG 2899  24.670  34.880   8.553
    7AU     LIG 2900  24.466  35.187   8.833
    7AU     LIG 2901  24.204  35.526   9.010
    7AU     LIG 2902  23.840  35.621   9.288
    7AU       S 2903  24.910  35.418   7.428
    7AU     LIG 2904  24.426  35.312   7.359
    7AU     LIG 2905  24.021  35.501   7.550
    7AU     LIG 2906  23.619  35.770   7.492
    7AU     LIG 2907  23.218  36.042   7.449
    7AU    AUSL 2908  24.853  34.647   7.301
    7AU    AUSL 2909  24.995  35.095   7.097
    7AU     AUL 2910  24.698  34.947   7.143
    7AU       S 2911  24.515  34.479   6.973
    7AU     LIG 2912  24.236  34.869   6.983
    7AU     LIG 2913  23.841  35.073   6.803
    7AU     LIG 2914  23.393  35.066   6.981
    7AU     LIG 2915  22.907  35.173   7.028
    7AU       S 2916  24.804  35.344   6.893
    7AU     LIG 2917  24.664  35.476   6.479
    7AU     LIG 2918  24.456  35.804   6.202
    7AU     LIG 2919  24.285  36.255   6.174
    7AU     LIG 2920  24.093  36.688   6.277
    7AU    AUSL 2921  24.645  34.693   7.685
    7AU    AUSL 2922  24.612  34.321   7.402
    7AU     AUL 2923  24.451  34.657   7.408
    7AU       S 2924  24.398  34.253   7.667
    7AU     LIG 2925  24.101  34.242   7.302
    7AU     LIG 2926  23.715  33.980   7.204
    7AU     LIG 2927  23.301  33.743   7.209
    7AU     LIG 2928  22.842  33.673   7.232
    7AU       S 2929  24.498  34.715   7.907
    7AU     LIG 2930  24.198  35.030   7.767
    7AU     LIG 2931  23.741  35.087   7.829
    7AU     LIG 2932  23.261  35.094   7.916
    7AU     LIG 2933  22.788  35.183   7.938
    7AU    AUSL 2934  26.246  33.891   7.506
    7AU    AUSL 2935  26.128  34.141   7.893
    7AU     AUL 2936  26.465  33.969   7.817
    7AU       S 2937  26.586  33.747   7.420
    7AU     LIG 2938  26.994  33.472   7.450
    7AU     LIG 2939  27.394  33.182   7.496
    7AU     LIG 2940  27.814  32.959   7.552
    7AU     LIG 2941  28.218  32.884   7.793
    7AU       S 2942  26.310  33.802   8.198
    7AU     LIG 2943  26.579  33.505   8.448
    7AU     LIG 2944  26.819  33.243   8.749
    7AU     LIG 2945  27.082  33.001   9.045
    7AU     LIG 2946  27.435  32.981   9.353
    7AU    AUSL 2947  26.251  34.272   7.309
    7AU    AUSL 2948  26.152  33.836   7.097
    7AU     AUL 2949  26.394  34.004   7.083
    7AU       S 2950  26.766  34.144   7.282
    7AU     LIG 2951  27.073  33.840   7.085
    7AU     LIG 2952  27.463  33.600   7.207
    7AU     LIG 2953  27.902  33.388   7.248
    7AU     LIG 2954  28.358  33.443   7.091
    7AU       S 2955  26.264  33.751   6.699
    7AU     LIG 2956  26.499  33.387   6.565
    7AU     LIG 2957  26.740  33.007   6.379
    7AU     LIG 2958  27.096  32.687   6.294
    7AU     LIG 2959  27.471  32.380   6.390
    7AU    AUSL 2960  24.810  33.960   7.563
    7AU    AUSL 2961  24.923  34.183   7.155
    7AU     AUL 2962  24.569  34.025   7.275
    7AU       S 2963  24.736  33.969   6.849
    7AU     LIG 2964  24.474  33.599   6.642
    7AU     LIG 2965  24.226  33.278   6.438
    7AU     LIG 2966  23.907  33.101   6.152
    7AU     LIG 2967  23.475  33.044   5.987
    7AU       S 2968  24.389  34.011   7.712
    7AU     LIG 2969  24.071  33.759   7.518
    7AU     LIG 2970  23.609  33.647   7.603
    7AU     LIG 2971  23.196  33.384   7.599
    7AU     LIG 2972  22.915  33.181   7.919
    7AU    AUSL 2973  24.872  34.345   7.749
    7AU    AUSL 2974  25.129  33.975   7.845
    7AU     AUL 2975  24.800  33.931   7.903
    7AU       S 2976  24.848  33.760   8.328
    7AU     LIG 2977  24.769  33.384   8.048
    7AU     LIG 2978  24.494  32.982   8.055
    7AU     LIG 2979  24.201  32.721   8.344
    7AU     LIG 2980  24.119  32.330   8.585
    7AU       S 2981  24.457  34.246   7.856
    7AU     LIG 2982  23.920  34.161   7.789
    7AU     LIG 2983  23.451  34.103   7.803
    7AU     LIG 2984  23.075  33.877   7.668
    7AU     LIG 2985  22.656  33.627   7.727
    7AU    AUSL 2986  25.601  35.149   7.905
    7AU    AUSL 2987  25.160  35.196   7.807
    7AU     AUL 2988  25.407  35.283   8.174
    7AU       S 2989  25.031  35.410   7.924
    7AU     LIG 2990  24.632  35.559   8.177
    7AU     LIG 2991  24.486  35.700   8.607
    7AU     LIG 2992  24.328  36.096   8.823
    7AU     LIG 2993  24.259  36.585   8.837
    7AU       S 2994  25.638  35.622   7.959
    7AU     LIG 2995  25.792  35.619   8.346
    7AU     LIG 2996  25.820  36.054   8.506
    7AU     LIG 2997  25.864  36.498   8.658
    7AU     LIG 2998  25.682  36.813   8.956
    7AU    AUSL 2999  25.443  35.404   7.589
    7AU    AUSL 3000  25.727  35.361   7.230
    7AU     AUL 3001  25.418  35.627   7.346
    7AU       S 3002  25.506  35.631   7.807
    7AU     LIG 3003  25.692  36.097   7.963
    7AU     LIG 3004  25.699  36.507   8.176
    7AU     LIG 3005  25.424  36.878   8.314
    7AU     LIG 3006  25.029  37.165   8.221
    7AU       S 3007  25.668  35.678   6.961
    7AU     LIG 3008  26.049  35.873   6.974
    7AU     LIG 3009  26.127  36.340   6.908
    7AU     LIG 3010  26.307  36.777   6.822
    7AU     LIG 3011  26.292  37.218   6.628
    7AU    AUSL 3012  25.882  35.338   7.628
    7AU    AUSL 3013  25.881  35.043   8.196
    7AU     AUL 3014  25.968  35.305   7.976
    7AU       S 3015  26.107  35.129   8.407
    7AU     LIG 3016  26.446  35.162   8.750
    7AU     LIG 3017  26.764  35.458   8.918
    7AU     LIG 3018  26.978  35.818   9.139
    7AU     LIG 3019  27.089  35.918   9.597
    7AU       S 3020  25.846  35.642   7.656
    7AU     LIG 3021  26.120  35.802   7.988
    7AU     LIG 3022  26.166  36.230   8.178
    7AU     LIG 3023  26.196  36.691   8.248
    7AU     LIG 3024  26.317  37.105   8.057
    7AU    AUSL 3025  25.524  33.795   7.940
    7AU    AUSL 3026  25.947  33.765   7.784
    7AU     AUL 3027  25.736  33.639   8.156
    7AU       S 3028  25.478  33.282   8.009
    7AU     LIG 3029  25.370  32.942   8.281
    7AU     LIG 3030  25.081  32.612   8.394
    7AU     LIG 3031  25.131  32.188   8.537
    7AU     LIG 3032  25.253  31.746   8.622
    7AU       S 3033  26.135  33.619   7.897
    7AU     LIG 3034  26.337  33.242   8.054
    7AU     LIG 3035  26.551  32.985   8.377
    7AU     LIG 3036  26.865  32.741   8.622
    7AU     LIG 3037  27.004  32.490   8.989
    7AU    AUSL 3038  25.202  33.602   7.684
    7AU    AUSL 3039  25.292  33.931   8.260
    7AU     AUL 3040  25.195  33.656   8.038
    7AU       S 3041  25.273  33.229   7.865
    7AU     LIG 3042  24.999  32.867   7.933
    7AU     LIG 3043  25.027  32.406   7.891
    7AU     LIG 3044  25.029  31.968   8.080
    7AU     LIG 3045  25.044  31.502   8.224
    7AU       S 3046  25.064  33.809   8.466
    7AU     LIG 3047  24.862  33.336   8.558
    7AU     LIG 3048  24.629  32.926   8.550
    7AU     LIG 3049  24.359  32.700   8.854
    7AU     LIG 3050  24.171  32.603   9.270
    7AU    AUSL 3051  25.634  33.525   7.630
    7AU    AUSL 3052  25.395  33.759   7.337
    7AU     AUL 3053  25.274  33.427   7.447
    7AU       S 3054  25.616  33.300   7.186
    7AU     LIG 3055  25.167  33.087   7.118
    7AU     LIG 3056  25.054  32.647   7.145
    7AU     LIG 3057  24.990  32.219   6.944
    7AU     LIG 3058  24.941  31.766   6.827
    7AU       S 3059  25.626  33.310   7.771
    7AU     LIG 3060  25.533  32.815   7.788
    7AU     LIG 3061  25.483  32.442   8.099
    7AU     LIG 3062  25.520  31.984   8.235
    7AU     LIG 3063  25.741  31.562   8.234
    7AU    AUSL 3064  25.563  35.184   6.864
    7AU    AUSL 3065  26.083  35.142   7.275
    7AU     AUL 3066  25.908  35.296   6.937
    7AU       S 3067  25.538  35.423   6.666
    7AU     LIG 3068  25.918  35.645   6.529
    7AU     LIG 3069  26.020  36.101   6.459
    7AU     LIG 3070  25.897  36.531   6.287
    7AU     LIG 3071  25.818  36.815   5.904
    7AU       S 3072  26.295  35.337   7.169
    7AU     LIG 3073  26.665  35.547   6.897
    7AU     LIG 3074  26.865  35.661   6.469
    7AU     LIG 3075  27.095  35.983   6.170
    7AU     LIG 3076  27.279  36.445   6.065
    7AU    AUSL 3077  25.368  35.140   7.279
    7AU    AUSL 3078  25.322  34.858   6.942
    7AU     AUL 3079  25.247  35.299   7.026
    7AU       S 3080  25.480  35.657   6.874
    7AU     LIG 3081  25.627  36.135   6.786
    7AU     LIG 3082  25.670  36.607   6.759
    7AU     LIG 3083  25.364  36.991   6.798
    7AU     LIG 3084  24.962  37.252   6.945
    7AU       S 3085  25.135  35.086   6.635
    7AU     LIG 3086  25.122  35.347   6.278
    7AU     LIG 3087  24.795  35.483   5.971
    7AU     LIG 3088  24.620  35.807   5.676
    7AU     LIG 3089  24.673  36.055   5.263
    7AU    AUSL 3090  25.576  33.696   6.944
    7AU    AUSL 3091  24.989  33.756   7.237
    7AU     AUL 3092  25.246  33.593   7.003
    7AU       S 3093  24.794  33.707   7.018
    7AU     LIG 3094  24.695  33.267   6.986
    7AU     LIG 3095  24.369  32.964   6.830
    7AU     LIG 3096  24.040  32.792   6.540
    7AU     LIG 3097  23.591  32.733   6.394
    7AU       S 3098  25.611  33.289   6.954
    7AU     LIG 3099  25.426  32.922   6.728
    7AU     LIG 3100  25.100  32.601   6.620
    7AU     LIG 3101  25.129  32.162   6.446
    7AU     LIG 3102  25.070  31.884   6.071
    7AU    AUSL 3103  25.820  33.731   7.321
    7AU    AUSL 3104  25.807  34.040   6.945
    7AU     AUL 3105  25.924  33.636   6.989
    7AU       S 3106  25.818  33.282   7.273
    7AU     LIG 3107  25.590  32.816   7.238
    7AU     LIG 3108  25.479  32.443   6.953
    7AU     LIG 3109  25.451  31.991   6.823
    7AU     LIG 3110  25.704  31.591   6.772
    7AU       S 3111  25.926  33.839   6.579
    7AU     LIG 3112  26.083  33.559   6.256
    7AU     LIG 3113  26.321  33.198   6.116
    7AU     LIG 3114  26.584  32.926   5.866
    7AU     LIG 3115  26.566  32.738   5.432
    8AU     AUC 3116  16.689  24.297   7.495
    8AU     AUC 3117  16.963  24.317   7.313
    8AU     AUC 3118  16.956  24.287   7.664
    8AU     AUC 3119  16.405  24.287   7.330
    8AU     AUC 3120  16.424  24.320   7.682
    8AU     AUC 3121  16.519  24.572   7.496
    8AU     AUC 3122  16.870  24.582   7.481
    8AU     AUC 3123  16.507  24.023   7.503
    8AU     AUC 3124  16.857  24.009   7.490
    8AU     AUC 3125  16.695  24.117   7.770
    8AU     AUC 3126  16.687  24.482   7.760
    8AU     AUC 3127  16.683  24.134   7.217
    8AU     AUC 3128  16.697  24.455   7.215
    8AU     AUC 3129  17.273  24.330   7.143
    8AU     AUC 3130  17.293  24.279   7.502
    8AU     AUC 3131  17.249  24.260   7.853
    8AU     AUC 3132  16.106  24.271   7.162
    8AU     AUC 3133  16.086  24.310   7.527
    8AU     AUC 3134  16.146  24.343   7.869
    8AU     AUC 3135  16.351  24.874   7.483
    8AU     AUC 3136  16.715  24.917   7.457
    8AU     AUC 3137  17.048  24.870   7.475
    8AU     AUC 3138  16.317  23.743   7.509
    8AU     AUC 3139  16.668  23.695   7.483
    8AU     AUC 3140  17.029  23.711   7.470
    8AU     AUC 3141  16.683  23.936   8.061
    8AU     AUC 3142  16.697  24.302   8.092
    8AU     AUC 3143  16.716  24.658   8.056
    8AU     AUC 3144  16.712  23.963   6.937
    8AU     AUC 3145  16.690  24.296   6.878
    8AU     AUC 3146  16.671  24.624   6.913
    8AU     AUC 3147  16.965  24.072   7.983
    8AU     AUC 3148  17.006  24.452   7.978
    8AU     AUC 3149  17.018  24.171   6.982
    8AU     AUC 3150  16.997  24.490   7.016
    8AU     AUC 3151  16.395  24.158   8.014
    8AU     AUC 3152  16.415  24.536   7.994
    8AU     AUC 3153  16.386  24.101   7.037
    8AU     AUC 3154  16.362  24.427   6.990
    8AU     AUC 3155  17.211  24.598   7.330
    8AU     AUC 3156  17.164  24.561   7.680
    8AU     AUC 3157  16.204  24.584   7.310
    8AU     AUC 3158  16.217  24.628   7.677
    8AU     AUC 3159  17.168  24.007   7.315
    8AU     AUC 3160  17.138  23.948   7.671
    8AU     AUC 3161  16.176  23.982   7.362
    8AU     AUC 3162  16.229  24.030   7.718
    8AU     AUC 3163  16.534  24.815   7.767
    8AU     AUC 3164  16.885  24.779   7.769
    8AU     AUC 3165  16.507  23.813   7.799
    8AU     AUC 3166  16.826  23.766   7.764
    8AU     AUC 3167  16.506  24.736   7.182
    8AU     AUC 3168  16.877  24.787   7.191
    8AU     AUC 3169  16.502  23.821   7.201
    8AU     AUC 3170  16.895  23.852   7.192
    8AU    AUSL 3171  17.232  24.190   8.220
    8AU    AUSL 3172  16.958  23.783   8.140
    8AU     AUL 3173  17.254  23.784   8.339
    8AU       S 3174  17.341  23.402   8.101
    8AU     LIG 3175  17.222  23.054   8.317
    8AU     LIG 3176  17.408  22.732   8.594
    8AU     LIG 3177  17.689  22.654   8.952
    8AU     LIG 3178  17.982  22.362   9.162
    8AU       S 3179  17.460  24.187   8.357
    8AU     LIG 3180  17.309  24.192   8.803
    8AU     LIG 3181  17.481  24.127   9.241
    8AU     LIG 3182  17.804  23.996   9.568
    8AU     LIG 3183  18.161  23.908   9.869
    8AU    AUSL 3184  16.833  24.109   8.391
    8AU    AUSL 3185  16.577  24.483   8.417
    8AU     AUL 3186  16.784  24.421   8.728
    8AU       S 3187  16.922  24.029   8.541
    8AU     LIG 3188  16.757  23.952   8.928
    8AU     LIG 3189  17.033  23.862   9.294
    8AU     LIG 3190  17.329  23.800   9.661
    8AU     LIG 3191  17.434  23.647  10.103
    8AU       S 3192  16.390  24.209   8.648
    8AU     LIG 3193  16.324  24.243   9.104
    8AU     LIG 3194  16.109  24.209   9.522
    8AU     LIG 3195  15.941  24.278   9.946
    8AU     LIG 3196  15.772  24.577  10.266
    8AU    AUSL 3197  16.898  24.481   8.152
    8AU    AUSL 3198  17.338  24.581   8.085
    8AU     AUL 3199  17.130  24.494   8.433
    8AU       S 3200  16.778  24.874   8.563
    8AU     LIG 3201  17.127  24.774   8.861
    8AU     LIG 3202  17.347  24.861   9.272
    8AU     LIG 3203  17.296  24.951   9.752
    8AU     LIG 3204  17.365  25.094  10.210
    8AU       S 3205  17.505  24.714   8.263
    8AU     LIG 3206  17.928  24.769   8.273
    8AU     LIG 3207  18.176  24.955   8.629
    8AU     LIG 3208  18.382  25.171   9.000
    8AU     LIG 3209  18.576  25.506   9.257
    8AU    AUSL 3210  17.212  24.449   6.749
    8AU    AUSL 3211  16.982  24.763   6.949
    8AU     AUL 3212  17.115  24.823   6.606
    8AU       S 3213  17.169  24.496   6.291
    8AU     LIG 3214  17.532  24.300   6.090
    8AU     LIG 3215  17.586  24.041   5.706
    8AU     LIG 3216  17.715  23.993   5.252
    8AU     LIG 3217  17.928  23.865   4.842
    8AU       S 3218  17.446  25.027   6.865
    8AU     LIG 3219  17.467  25.216   6.472
    8AU     LIG 3220  17.687  25.429   6.113
    8AU     LIG 3221  17.850  25.576   5.695
    8AU     LIG 3222  17.960  25.940   5.401
    8AU    AUSL 3223  16.993  24.112   6.589
    8AU    AUSL 3224  17.373  24.089   6.913
    8AU     AUL 3225  17.400  24.211   6.592
    8AU       S 3226  17.574  23.784   6.704
    8AU     LIG 3227  17.749  23.363   6.490
    8AU     LIG 3228  17.997  23.005   6.287
    8AU     LIG 3229  18.270  22.747   5.982
    8AU     LIG 3230  18.651  22.677   5.681
    8AU       S 3231  17.072  24.361   6.285
    8AU     LIG 3232  17.132  23.964   6.108
    8AU     LIG 3233  17.152  23.749   5.694
    8AU     LIG 3234  17.233  23.805   5.231
    8AU     LIG 3235  17.362  23.664   4.796
    8AU    AUSL 3236  16.789  24.490   6.678
    8AU    AUSL 3237  16.582  24.091   6.722
    8AU     AUL 3238  16.722  24.106   6.425
    8AU       S 3239  16.276  24.118   6.299
    8AU     LIG 3240  16.454  23.917   5.971
    8AU     LIG 3241  16.241  23.713   5.605
    8AU     LIG 3242  15.997  23.681   5.201
    8AU     LIG 3243  15.835  23.737   4.765
    8AU       S 3244  16.819  24.559   6.352
    8AU     LIG 3245  16.780  24.321   5.904
    8AU     LIG 3246  17.124  24.242   5.554
    8AU     LIG 3247  17.317  24.318   5.111
    8AU     LIG 3248  17.347  24.662   4.766
    8AU    AUSL 3249  16.172  24.415   8.263
    8AU    AUSL 3250  16.435  24.789   8.160
    8AU     AUL 3251  16.312  24.688   8.503
    8AU       S 3252  16.210  24.228   8.609
    8AU     LIG 3253  15.859  24.234   8.772
    8AU     LIG 3254  15.747  24.075   9.173
    8AU     LIG 3255  15.603  24.050   9.614
    8AU     LIG 3256  15.560  23.944  10.072
    8AU       S 3257  16.070  24.993   8.231
    8AU     LIG 3258  16.196  25.183   8.578
    8AU     LIG 3259  16.055  25.401   8.944
    8AU     LIG 3260  15.750  25.621   9.195
    8AU     LIG 3261  15.389  25.811   9.406
    8AU    AUSL 3262  16.476  24.140   8.164
    8AU    AUSL 3263  16.063  24.004   8.140
    8AU     AUL 3264  15.932  24.246   8.250
    8AU       S 3265  15.984  23.800   8.399
    8AU     LIG 3266  15.546  23.723   8.256
    8AU     LIG 3267  15.308  23.349   8.415
    8AU     LIG 3268  15.038  23.061   8.684
    8AU     LIG 3269  14.744  22.713   8.836
    8AU       S 3270  16.377  24.072   8.548
    8AU     LIG 3271  16.150  23.814   8.897
    8AU     LIG 3272  16.087  23.726   9.346
    8AU     LIG 3273  15.989  23.763   9.800
    8AU     LIG 3274  15.963  23.584  10.224
    8AU    AUSL 3275  16.157  24.151   6.776
    8AU    AUSL 3276  16.367  23.801   6.943
    8AU     AUL 3277  16.408  23.797   6.612
    8AU       S 3278  16.090  24.033   6.375
    8AU     LIG 3279  15.926  23.904   5.976
    8AU     LIG 3280  15.733  23.941   5.559
    8AU     LIG 3281  15.512  23.927   5.147
    8AU     LIG 3282  15.099  24.046   4.923
    8AU       S 3283  15.994  23.688   6.782
    8AU     LIG 3284  16.060  23.397   6.505
    8AU     LIG 3285  15.747  23.086   6.351
    8AU     LIG 3286  15.399  22.835   6.144
    8AU     LIG 3287  15.073  22.691   5.825
    8AU    AUSL 3288  16.379  24.470   6.594
    8AU    AUSL 3289  16.027  24.547   6.903
    8AU     AUL 3290  15.946  24.388   6.621
    8AU       S 3291  16.056  24.829   6.642
    8AU     LIG 3292  15.638  24.856   6.625
    8AU     LIG 3293  15.422  25.120   6.289
    8AU     LIG 3294  15.280  25.358   5.908
    8AU     LIG 3295  15.085  25.595   5.547
    8AU       S 3296  16.333  24.383   6.340
    8AU     LIG 3297  16.189  24.361   5.881
    8AU     LIG 3298  16.166  24.195   5.450
    8AU     LIG 3299  15.960  24.174   5.032
    8AU     LIG 3300  15.938  24.208   4.556
    8AU    AUSL 3301  17.475  24.794   7.501
    8AU    AUSL 3302  17.375  24.618   7.100
    8AU     AUL 3303  17.730  24.898   7.263
    8AU       S 3304  17.472  24.797   6.912
    8AU     LIG 3305  17.609  24.700   6.502
    8AU     LIG 3306  17.902  24.988   6.275
    8AU     LIG 3307  18.186  25.266   6.013
    8AU     LIG 3308  18.630  25.269   5.862
    8AU       S 3309  17.882  24.678   7.660
    8AU     LIG 3310  18.298  24.874   7.622
    8AU     LIG 3311  18.752  25.026   7.598
    8AU     LIG 3312  19.174  25.207   7.666
    8AU     LIG 3313  19.349  25.646   7.671
    8AU    AUSL 3314  17.648  24.399   7.337
    8AU    AUSL 3315  17.605  24.053   7.683
    8AU     AUL 3316  17.919  24.075   7.498
    8AU       S 3317  17.836  24.507   7.465
    8AU     LIG 3318  18.270  24.442   7.357
    8AU     LIG 3319  18.731  24.604   7.311
    8AU     LIG 3320  19.157  24.861   7.274
    8AU     LIG 3321  19.567  25.131   7.335
    8AU       S 3322  17.826  23.636   7.659
    8AU     LIG 3323  18.119  23.332   7.814
    8AU     LIG 3324  18.580  23.236   7.743
    8AU     LIG 3325  19.058  23.316   7.669
    8AU     LIG 3326  19.489  23.553   7.666
    8AU    AUSL 3327  17.401  24.423   7.705
    8AU    AUSL 3328  17.148  24.816   7.771
    8AU     AUL 3329  17.481  24.850   7.816
    8AU       S 3330  17.476  25.030   8.237
    8AU     LIG 3331  17.807  25.266   8.434
    8AU     LIG 3332  18.138  25.486   8.671
    8AU     LIG 3333  18.409  25.818   8.862
    8AU     LIG 3334  18.638  26.236   8.751
    8AU       S 3335  17.754  24.470   7.818
    8AU     LIG 3336  18.216  24.407   7.892
    8AU     LIG 3337  18.658  24.549   7.817
    8AU     LIG 3338  19.112  24.663   7.739
    8AU     LIG 3339  19.539  24.849   7.778
    8AU    AUSL 3340  16.025  24.842   7.517
    8AU    AUSL 3341  16.110  24.631   7.910
    8AU     AUL 3342  15.800  24.948   7.770
    8AU       S 3343  15.934  24.800   8.186
    8AU     LIG 3344  15.826  24.781   8.626
    8AU     LIG 3345  15.626  25.116   8.895
    8AU     LIG 3346  15.298  25.413   9.065
    8AU     LIG 3347  14.975  25.492   9.404
    8AU       S 3348  16.019  25.235   7.453
    8AU     LIG 3349  15.539  25.143   7.379
    8AU     LIG 3350  15.060  25.305   7.478
    8AU     LIG 3351  14.668  25.641   7.551
    8AU     LIG 3352  14.287  25.950   7.683
    8AU    AUSL 3353  15.976  24.464   7.308
    8AU    AUSL 3354  16.106  24.921   7.113
    8AU     AUL 3355  15.809  24.769   7.155
    8AU       S 3356  15.639  24.291   6.984
    8AU     LIG 3357  15.309  24.631   7.040
    8AU     LIG 3358  14.843  24.773   7.026
    8AU     LIG 3359  14.398  24.864   6.828
    8AU     LIG 3360  13.938  25.043   6.772
    8AU       S 3361  15.909  25.178   6.922
    8AU     LIG 3362  15.825  25.351   6.513
    8AU     LIG 3363  15.555  25.645   6.241
    8AU     LIG 3364  15.263  25.894   5.947
    8AU     LIG 3365  14.932  26.237   5.891
    8AU    AUSL 3366  15.778  24.499   7.699
    8AU    AUSL 3367  15.742  24.133   7.413
    8AU     AUL 3368  15.592  24.465   7.424
    8AU       S 3369  15.537  24.060   7.680
    8AU     LIG 3370  15.200  24.161   7.359
    8AU     LIG 3371  14.751  23.991   7.207
    8AU     LIG 3372  14.303  23.738   7.166
    8AU     LIG 3373  13.833  23.717   7.065
    8AU       S 3374  15.624  24.524   7.924
    8AU     LIG 3375  15.212  24.582   7.732
    8AU     LIG 3376  14.801  24.825   7.794
    8AU     LIG 3377  14.348  24.959   7.881
    8AU     LIG 3378  13.953  25.073   8.110
    8AU    AUSL 3379  17.371  23.727   7.521
    8AU    AUSL 3380  17.227  23.976   7.862
    8AU     AUL 3381  17.536  23.876   7.933
    8AU       S 3382  17.545  23.571   7.503
    8AU     LIG 3383  17.744  23.136   7.496
    8AU     LIG 3384  18.204  22.968   7.447
    8AU     LIG 3385  18.674  22.841   7.417
    8AU     LIG 3386  19.066  22.796   7.633
    8AU       S 3387  17.462  23.431   7.959
    8AU     LIG 3388  17.756  23.119   8.127
    8AU     LIG 3389  17.892  22.914   8.514
    8AU     LIG 3390  18.183  22.704   8.811
    8AU     LIG 3391  18.409  22.673   9.219
    8AU    AUSL 3392  17.351  24.108   7.329
    8AU    AUSL 3393  17.311  23.701   7.102
    8AU     AUL 3394  17.594  23.939   7.172
    8AU       S 3395  17.808  23.617   7.402
    8AU     LIG 3396  18.267  23.482   7.348
    8AU     LIG 3397  18.728  23.325   7.259
    8AU     LIG 3398  19.190  23.159   7.188
    8AU     LIG 3399  19.524  23.272   6.830
    8AU       S 3400  17.514  23.571   6.885
    8AU     LIG 3401  17.563  23.106   6.928
    8AU     LIG 3402  17.820  22.753   6.711
    8AU     LIG 3403  18.105  22.495   6.417
    8AU     LIG 3404  18.457  22.169   6.332
    8AU    AUSL 3405  15.947  23.771   7.562
    8AU    AUSL 3406  16.049  24.007   7.155
    8AU     AUL 3407  15.698  23.836   7.287
    8AU       S 3408  15.853  23.809   6.853
    8AU     LIG 3409  15.551  23.481   6.648
    8AU     LIG 3410  15.222  23.233   6.414
    8AU     LIG 3411  14.875  23.020   6.165
    8AU     LIG 3412  14.478  22.851   5.959
    8AU       S 3413  15.519  23.824   7.729
    8AU     LIG 3414  15.104  23.709   7.556
    8AU     LIG 3415  14.648  23.614   7.538
    8AU     LIG 3416  14.380  23.247   7.452
    8AU     LIG 3417  14.068  22.918   7.606
    8AU    AUSL 3418  16.009  24.153   7.755
    8AU    AUSL 3419  16.271  23.781   7.839
    8AU     AUL 3420  15.939  23.740   7.908
    8AU       S 3421  16.008  23.575   8.336
    8AU     LIG 3422  15.781  23.241   8.167
    8AU     LIG 3423  15.443  22.896   8.207
    8AU     LIG 3424  15.115  22.618   8.429
    8AU     LIG 3425  14.889  22.248   8.645
    8AU       S 3426  15.607  24.059   7.869
    8AU     LIG 3427  15.095  24.099   7.895
    8AU     LIG 3428  14.627  23.978   7.902
    8AU     LIG 3429  14.221  23.723   7.832
    8AU     LIG 3430  13.735  23.657   7.925
    8AU    AUSL 3431  16.725  24.973   7.907
    8AU    AUSL 3432  16.280  25.009   7.818
    8AU     AUL 3433  16.531  25.102   8.178
    8AU       S 3434  16.142  25.223   7.949
    8AU     LIG 3435  15.813  25.405   8.277
    8AU     LIG 3436  15.637  25.591   8.680
    8AU     LIG 3437  15.520  25.998   8.904
    8AU     LIG 3438  15.570  26.492   8.864
    8AU       S 3439  16.762  25.444   7.965
    8AU     LIG 3440  16.909  25.420   8.349
    8AU     LIG 3441  16.895  25.844   8.536
    8AU     LIG 3442  16.907  26.300   8.660
    8AU     LIG 3443  16.893  26.559   9.056
    8AU    AUSL 3444  16.552  25.231   7.600
    8AU    AUSL 3445  16.829  25.203   7.232
    8AU     AUL 3446  16.511  25.453   7.360
    8AU       S 3447  16.607  25.456   7.821
    8AU     LIG 3448  16.668  25.921   8.054
    8AU     LIG 3449  16.617  26.392   8.218
    8AU     LIG 3450  16.313  26.805   8.262
    8AU     LIG 3451  16.052  27.231   8.326
    8AU       S 3452  16.818  25.545   7.017
    8AU     LIG 3453  17.131  25.867   6.910
    8AU     LIG 3454  17.171  26.318   6.738
    8AU     LIG 3455  17.351  26.780   6.741
    8AU     LIG 3456  17.435  27.266   6.748
    8AU    AUSL 3457  16.992  25.174   7.624
    8AU    AUSL 3458  17.024  24.878   8.183
    8AU     AUL 3459  17.106  25.137   7.960
    8AU       S 3460  17.254  24.959   8.390
    8AU     LIG 3461  17.603  24.894   8.721
    8AU     LIG 3462  17.856  25.168   8.984
    8AU     LIG 3463  18.059  25.538   9.182
    8AU     LIG 3464  18.230  25.773   9.542
    8AU       S 3465  16.948  25.482   7.664
    8AU     LIG 3466  17.158  25.737   8.007
    8AU     LIG 3467  17.113  26.166   8.196
    8AU     LIG 3468  17.121  26.629   8.276
    8AU     LIG 3469  17.346  27.051   8.171
    8AU    AUSL 3470  16.652  23.568   7.927
    8AU    AUSL 3471  17.064  23.585   7.771
    8AU     AUL 3472  16.885  23.466   8.160
    8AU       S 3473  16.654  23.111   7.973
    8AU     LIG 3474  16.738  22.730   8.207
    8AU     LIG 3475  16.739  22.299   8.403
    8AU     LIG 3476  16.742  21.885   8.604
    8AU     LIG 3477  16.952  21.618   8.929
    8AU       S 3478  17.216  23.375   7.821
    8AU     LIG 3479  17.365  22.930   7.843
    8AU     LIG 3480  17.612  22.612   8.134
    8AU     LIG 3481  17.838  22.407   8.523
    8AU     LIG 3482  18.204  22.187   8.723
    8AU    AUSL 3483  16.339  23.420   7.644
    8AU    AUSL 3484  16.444  23.737   8.245
    8AU     AUL 3485  16.315  23.447   8.011
    8AU       S 3486  16.467  23.047   7.811
    8AU     LIG 3487  16.222  22.854   8.107
    8AU     LIG 3488  16.302  22.405   8.152
    8AU     LIG 3489  16.314  21.959   8.282
    8AU     LIG 3490  15.990  21.607   8.316
    8AU       S 3491  16.248  23.615   8.455
    8AU     LIG 3492  15.927  23.268   8.693
    8AU     LIG 3493  15.548  22.961   8.707
    8AU     LIG 3494  15.254  22.636   8.923
    8AU     LIG 3495  14.945  22.344   9.154
    8AU    AUSL 3496  16.771  23.349   7.580
    8AU    AUSL 3497  16.534  23.590   7.304
    8AU     AUL 3498  16.427  23.239   7.389
    8AU       S 3499  16.807  23.159   7.147
    8AU     LIG 3500  16.504  22.806   7.152
    8AU     LIG 3501  16.456  22.367   7.086
    8AU     LIG 3502  16.425  21.939   6.911
    8AU     LIG 3503  16.091  21.589   6.937
    8AU       S 3504  16.787  23.147   7.709
    8AU     LIG 3505  16.906  22.729   7.716
    8AU     LIG 3506  16.945  22.324   7.927
    8AU     LIG 3507  17.029  21.932   8.169
    8AU     LIG 3508  17.084  21.531   8.409
    8AU    AUSL 3509  16.662  25.023   6.867
    8AU    AUSL 3510  17.182  24.978   7.261
    8AU     AUL 3511  16.996  25.134   6.923
    8AU       S 3512  16.628  25.312   6.688
    8AU     LIG 3513  17.019  25.499   6.551
    8AU     LIG 3514  17.114  25.926   6.391
    8AU     LIG 3515  16.970  26.327   6.196
    8AU     LIG 3516  16.964  26.569   5.773
    8AU       S 3517  17.388  25.177   7.148
    8AU     LIG 3518  17.792  25.364   6.877
    8AU     LIG 3519  18.063  25.470   6.479
    8AU     LIG 3520  18.423  25.709   6.218
    8AU     LIG 3521  18.660  26.129   6.097
    8AU    AUSL 3522  16.482  24.966   7.288
    8AU    AUSL 3523  16.433  24.689   6.946
    8AU     AUL 3524  16.355  25.129   7.035
    8AU       S 3525  16.599  25.495   6.902
    8AU     LIG 3526  16.677  25.910   6.677
    8AU     LIG 3527  16.652  26.389   6.645
    8AU     LIG 3528  16.375  26.784   6.739
    8AU     LIG 3529  16.131  27.189   6.688
    8AU       S 3530  16.235  24.924   6.642
    8AU     LIG 3531  16.177  25.105   6.231
    8AU     LIG 3532  15.829  25.297   5.980
    8AU     LIG 3533  15.658  25.648   5.715
    8AU     LIG 3534  15.449  25.930   5.401
    8AU    AUSL 3535  16.719  23.566   6.911
    8AU    AUSL 3536  16.123  23.579   7.227
    8AU     AUL 3537  16.384  23.431   6.963
    8AU       S 3538  15.929  23.539   7.008
    8AU     LIG 3539  15.843  23.129   6.892
    8AU     LIG 3540  15.458  22.903   6.735
    8AU     LIG 3541  15.072  22.717   6.530
    8AU     LIG 3542  14.681  22.531   6.319
    8AU       S 3543  16.792  23.171   6.965
    8AU     LIG 3544  16.839  22.745   6.763
    8AU     LIG 3545  16.713  22.307   6.643
    8AU     LIG 3546  16.651  21.909   6.414
    8AU     LIG 3547  16.622  21.727   5.979
    8AU    AUSL 3548  16.961  23.582   7.289
    8AU    AUSL 3549  16.964  23.905   6.945
    8AU     AUL 3550  17.049  23.546   6.897
    8AU       S 3551  17.079  23.232   7.243
    8AU     LIG 3552  17.055  22.743   7.225
    8AU     LIG 3553  16.968  22.294   7.093
    8AU     LIG 3554  16.967  21.879   6.828
    8AU     LIG 3555  17.124  21.446   6.684
    8AU       S 3556  17.312  23.738   6.585
    8AU     LIG 3557  17.250  23.264   6.539
    8AU     LIG 3558  17.484  22.893   6.355
    8AU     LIG 3559  17.739  22.634   6.039
    8AU     LIG 3560  17.947  22.519   5.636
    9AU     AUC 3561  16.425  17.736   7.490
    9AU     AUC 3562  16.701  17.751   7.312
    9AU     AUC 3563  16.691  17.723   7.662
    9AU     AUC 3564  16.142  17.729   7.323
    9AU     AUC 3565  16.158  17.766   7.675
    9AU     AUC 3566  16.256  18.015   7.488
    9AU     AUC 3567  16.608  18.019   7.478
    9AU     AUC 3568  16.242  17.465   7.499
    9AU     AUC 3569  16.593  17.445   7.487
    9AU     AUC 3570  16.428  17.558   7.767
    9AU     AUC 3571  16.421  17.924   7.753
    9AU     AUC 3572  16.422  17.570   7.214
    9AU     AUC 3573  16.438  17.893   7.211
    9AU     AUC 3574  17.014  17.762   7.144
    9AU     AUC 3575  17.030  17.714   7.503
    9AU     AUC 3576  16.979  17.697   7.854
    9AU     AUC 3577  15.843  17.714   7.153
    9AU     AUC 3578  15.821  17.757   7.517
    9AU     AUC 3579  15.875  17.793   7.860
    9AU     AUC 3580  16.092  18.318   7.472
    9AU     AUC 3581  16.456  18.357   7.449
    9AU     AUC 3582  16.788  18.306   7.474
    9AU     AUC 3583  16.049  17.188   7.507
    9AU     AUC 3584  16.400  17.134   7.482
    9AU     AUC 3585  16.762  17.147   7.468
    9AU     AUC 3586  16.414  17.379   8.059
    9AU     AUC 3587  16.426  17.743   8.088
    9AU     AUC 3588  16.447  18.099   8.049
    9AU     AUC 3589  16.451  17.398   6.937
    9AU     AUC 3590  16.433  17.732   6.876
    9AU     AUC 3591  16.417  18.060   6.909
    9AU     AUC 3592  16.698  17.509   7.982
    9AU     AUC 3593  16.735  17.891   7.976
    9AU     AUC 3594  16.757  17.603   6.982
    9AU     AUC 3595  16.741  17.925   7.016
    9AU     AUC 3596  16.126  17.608   8.008
    9AU     AUC 3597  16.146  17.983   7.984
    9AU     AUC 3598  16.125  17.540   7.032
    9AU     AUC 3599  16.104  17.866   6.983
    9AU     AUC 3600  16.951  18.031   7.333
    9AU     AUC 3601  16.899  17.998   7.681
    9AU     AUC 3602  15.945  18.026   7.301
    9AU     AUC 3603  15.954  18.075   7.666
    9AU     AUC 3604  16.904  17.438   7.313
    9AU     AUC 3605  16.875  17.387   7.671
    9AU     AUC 3606  15.910  17.426   7.356
    9AU     AUC 3607  15.960  17.479   7.712
    9AU     AUC 3608  16.270  18.259   7.757
    9AU     AUC 3609  16.620  18.219   7.765
    9AU     AUC 3610  16.238  17.260   7.797
    9AU     AUC 3611  16.560  17.209   7.764
    9AU     AUC 3612  16.249  18.175   7.173
    9AU     AUC 3613  16.621  18.223   7.188
    9AU     AUC 3614  16.236  17.260   7.199
    9AU     AUC 3615  16.630  17.283   7.190
    9AU    AUSL 3616  16.955  17.626   8.225
    9AU    AUSL 3617  16.699  17.220   8.142
    9AU     AUL 3618  16.973  17.223   8.390
    9AU       S 3619  17.084  16.896   8.093
    9AU     LIG 3620  16.961  16.712   8.477
    9AU     LIG 3621  17.152  16.430   8.774
    9AU     LIG 3622  17.392  16.071   8.953
    9AU     LIG 3623  17.681  15.740   9.146
    9AU       S 3624  17.175  17.622   8.334
    9AU     LIG 3625  17.039  17.632   8.777
    9AU     LIG 3626  17.173  17.715   9.213
    9AU     LIG 3627  17.410  17.499   9.565
    9AU     LIG 3628  17.711  17.559   9.925
    9AU    AUSL 3629  16.554  17.545   8.387
    9AU    AUSL 3630  16.304  17.928   8.414
    9AU     AUL 3631  16.503  17.854   8.734
    9AU       S 3632  16.617  17.470   8.528
    9AU     LIG 3633  16.614  17.406   8.965
    9AU     LIG 3634  16.901  17.285   9.327
    9AU     LIG 3635  17.071  17.135   9.749
    9AU     LIG 3636  17.206  16.978  10.174
    9AU       S 3637  16.103  17.662   8.631
    9AU     LIG 3638  16.119  17.685   9.097
    9AU     LIG 3639  15.841  17.685   9.484
    9AU     LIG 3640  15.725  17.687   9.938
    9AU     LIG 3641  15.728  17.821  10.384
    9AU    AUSL 3642  16.623  17.917   8.149
    9AU    AUSL 3643  17.062  18.019   8.088
    9AU     AUL 3644  16.848  17.930   8.432
    9AU       S 3645  16.520  18.306   8.574
    9AU     LIG 3646  16.877  18.170   8.871
    9AU     LIG 3647  17.151  18.254   9.243
    9AU     LIG 3648  17.124  18.378   9.715
    9AU     LIG 3649  17.049  18.436  10.191
    9AU       S 3650  17.224  18.150   8.263
    9AU     LIG 3651  17.639  18.154   8.320
    9AU     LIG 3652  17.904  18.384   8.637
    9AU     LIG 3653  18.118  18.666   8.959
    9AU     LIG 3654  18.259  18.994   9.274
    9AU    AUSL 3655  16.960  17.881   6.754
    9AU    AUSL 3656  16.734  18.200   6.948
    9AU     AUL 3657  16.897  18.245   6.615
    9AU       S 3658  16.903  17.924   6.295
    9AU     LIG 3659  17.310  17.826   6.137
    9AU     LIG 3660  17.410  17.565   5.787
    9AU     LIG 3661  17.434  17.499   5.337
    9AU     LIG 3662  17.432  17.533   4.867
    9AU       S 3663  17.214  18.457   6.888
    9AU     LIG 3664  17.262  18.581   6.466
    9AU     LIG 3665  17.484  18.696   6.070
    9AU     LIG 3666  17.741  18.987   5.817
    9AU     LIG 3667  17.704  19.382   5.564
    9AU    AUSL 3668  16.735  17.550   6.592
    9AU    AUSL 3669  17.107  17.513   6.911
    9AU     AUL 3670  17.148  17.643   6.597
    9AU       S 3671  17.277  17.202   6.688
    9AU     LIG 3672  17.431  16.829   6.399
    9AU     LIG 3673  17.679  16.423   6.265
    9AU     LIG 3674  17.924  16.112   5.982
    9AU     LIG 3675  18.335  15.940   5.814
    9AU       S 3676  16.828  17.779   6.285
    9AU     LIG 3677  16.954  17.436   6.048
    9AU     LIG 3678  17.030  17.247   5.605
    9AU     LIG 3679  17.037  17.252   5.123
    9AU     LIG 3680  17.245  17.065   4.736
    9AU    AUSL 3681  16.537  17.930   6.677
    9AU    AUSL 3682  16.325  17.528   6.722
    9AU     AUL 3683  16.461  17.553   6.424
    9AU       S 3684  16.018  17.548   6.294
    9AU     LIG 3685  16.131  17.338   5.936
    9AU     LIG 3686  15.921  17.110   5.594
    9AU     LIG 3687  15.665  17.151   5.204
    9AU     LIG 3688  15.506  16.961   4.798
    9AU       S 3689  16.572  18.005   6.367
    9AU     LIG 3690  16.547  17.801   5.900
    9AU     LIG 3691  16.916  17.742   5.579
    9AU     LIG 3692  17.053  17.782   5.122
    9AU     LIG 3693  17.166  17.963   4.699
    9AU    AUSL 3694  15.901  17.870   8.252
    9AU    AUSL 3695  16.172  18.231   8.146
    9AU     AUL 3696  16.051  18.150   8.486
    9AU       S 3697  15.897  17.728   8.648
    9AU     LIG 3698  15.671  17.449   8.881
    9AU     LIG 3699  15.433  17.438   9.278
    9AU     LIG 3700  15.279  17.592   9.689
    9AU     LIG 3701  15.022  17.673  10.076
    9AU       S 3702  15.802  18.448   8.219
    9AU     LIG 3703  15.855  18.622   8.601
    9AU     LIG 3704  15.756  18.828   8.994
    9AU     LIG 3705  15.440  19.060   9.228
    9AU     LIG 3706  15.095  19.326   9.400
    9AU    AUSL 3707  16.202  17.589   8.156
    9AU    AUSL 3708  15.789  17.457   8.132
    9AU     AUL 3709  15.672  17.695   8.251
    9AU       S 3710  15.709  17.248   8.394
    9AU     LIG 3711  15.271  17.185   8.242
    9AU     LIG 3712  15.039  16.805   8.379
    9AU     LIG 3713  14.843  16.493   8.670
    9AU     LIG 3714  14.611  16.134   8.870
    9AU       S 3715  16.089  17.530   8.541
    9AU     LIG 3716  16.138  17.226   8.885
    9AU     LIG 3717  15.914  17.210   9.286
    9AU     LIG 3718  15.671  17.227   9.692
    9AU     LIG 3719  15.418  17.288  10.089
    9AU    AUSL 3720  15.900  17.590   6.768
    9AU    AUSL 3721  16.104  17.240   6.941
    9AU     AUL 3722  16.153  17.232   6.610
    9AU       S 3723  15.833  17.467   6.376
    9AU     LIG 3724  15.638  17.220   6.083
    9AU     LIG 3725  15.449  17.311   5.676
    9AU     LIG 3726  15.284  17.509   5.290
    9AU     LIG 3727  14.898  17.603   5.028
    9AU       S 3728  15.736  17.129   6.776
    9AU     LIG 3729  15.817  16.820   6.508
    9AU     LIG 3730  15.514  16.516   6.314
    9AU     LIG 3731  15.176  16.232   6.131
    9AU     LIG 3732  14.834  15.973   5.915
    9AU    AUSL 3733  16.127  17.905   6.586
    9AU    AUSL 3734  15.771  17.986   6.892
    9AU     AUL 3735  15.689  17.824   6.614
    9AU       S 3736  15.803  18.263   6.633
    9AU     LIG 3737  15.382  18.292   6.617
    9AU     LIG 3738  15.142  18.533   6.277
    9AU     LIG 3739  14.999  18.744   5.874
    9AU     LIG 3740  14.845  18.979   5.484
    9AU       S 3741  16.066  17.818   6.320
    9AU     LIG 3742  15.788  17.731   5.905
    9AU     LIG 3743  15.808  17.602   5.455
    9AU     LIG 3744  15.693  17.659   5.003
    9AU     LIG 3745  15.544  17.961   4.663
    9AU    AUSL 3746  17.216  18.224   7.510
    9AU    AUSL 3747  17.119  18.051   7.108
    9AU     AUL 3748  17.470  18.346   7.305
    9AU       S 3749  17.233  18.212   6.947
    9AU     LIG 3750  17.407  18.086   6.586
    9AU     LIG 3751  17.706  18.289   6.315
    9AU     LIG 3752  17.993  18.592   6.086
    9AU     LIG 3753  18.256  18.864   5.790
    9AU       S 3754  17.599  18.083   7.674
    9AU     LIG 3755  17.997  18.085   7.475
    9AU     LIG 3756  18.418  18.328   7.460
    9AU     LIG 3757  18.509  18.769   7.598
    9AU     LIG 3758  18.863  19.079   7.557
    9AU    AUSL 3759  17.388  17.827   7.346
    9AU    AUSL 3760  17.343  17.495   7.683
    9AU     AUL 3761  17.700  17.578   7.595
    9AU       S 3762  17.520  17.895   7.342
    9AU     LIG 3763  17.799  18.122   6.998
    9AU     LIG 3764  18.289  18.206   6.934
    9AU     LIG 3765  18.789  18.258   6.947
    9AU     LIG 3766  19.223  18.502   7.079
    9AU       S 3767  17.577  17.114   7.652
    9AU     LIG 3768  17.983  17.034   7.733
    9AU     LIG 3769  18.381  16.968   7.890
    9AU     LIG 3770  18.813  16.845   7.947
    9AU     LIG 3771  19.272  16.730   7.898
    9AU    AUSL 3772  17.132  17.858   7.711
    9AU    AUSL 3773  16.881  18.256   7.771
    9AU     AUL 3774  17.208  18.297   7.818
    9AU       S 3775  17.199  18.461   8.245
    9AU     LIG 3776  17.549  18.663   8.376
    9AU     LIG 3777  17.800  18.914   8.640
    9AU     LIG 3778  18.117  19.189   8.819
    9AU     LIG 3779  18.421  19.543   8.853
    9AU       S 3780  17.468  17.918   7.826
    9AU     LIG 3781  17.938  17.892   7.966
    9AU     LIG 3782  18.367  17.901   7.783
    9AU     LIG 3783  18.799  18.056   7.806
    9AU     LIG 3784  19.250  18.146   7.907
    9AU    AUSL 3785  15.767  18.289   7.503
    9AU    AUSL 3786  15.841  18.083   7.898
    9AU     AUL 3787  15.537  18.400   7.748
    9AU       S 3788  15.670  18.255   8.165
    9AU     LIG 3789  15.557  18.179   8.588
    9AU     LIG 3790  15.372  18.500   8.882
    9AU     LIG 3791  15.041  18.803   9.040
    9AU     LIG 3792  14.736  18.952   9.366
    9AU       S 3793  15.767  18.683   7.434
    9AU     LIG 3794  15.293  18.590   7.340
    9AU     LIG 3795  14.816  18.722   7.381
    9AU     LIG 3796  14.389  18.965   7.306
    9AU     LIG 3797  14.189  19.403   7.330
    9AU    AUSL 3798  15.714  17.910   7.297
    9AU    AUSL 3799  15.850  18.363   7.099
    9AU     AUL 3800  15.553  18.212   7.142
    9AU       S 3801  15.370  17.752   6.975
    9AU     LIG 3802  15.053  18.145   7.045
    9AU     LIG 3803  14.607  18.400   7.033
    9AU     LIG 3804  14.158  18.623   6.927
    9AU     LIG 3805  13.652  18.713   6.868
    9AU       S 3806  15.657  18.620   6.902
    9AU     LIG 3807  15.522  18.799   6.496
    9AU     LIG 3808  15.224  19.075   6.224
    9AU     LIG 3809  14.996  19.499   6.138
    9AU     LIG 3810  14.998  19.978   6.075
    9AU    AUSL 3811  15.511  17.950   7.685
    9AU    AUSL 3812  15.477  17.581   7.401
    9AU     AUL 3813  15.323  17.915   7.414
    9AU       S 3814  15.274  17.508   7.672
    9AU     LIG 3815  14.942  17.574   7.365
    9AU     LIG 3816  14.498  17.392   7.239
    9AU     LIG 3817  14.054  17.165   7.173
    9AU     LIG 3818  13.653  16.899   7.096
    9AU       S 3819  15.350  17.982   7.911
    9AU     LIG 3820  14.919  18.020   7.711
    9AU     LIG 3821  14.449  18.204   7.763
    9AU     LIG 3822  13.982  18.345   7.905
    9AU     LIG 3823  13.514  18.350   8.069
    9AU    AUSL 3824  17.114  17.163   7.524
    9AU    AUSL 3825  16.967  17.413   7.865
    9AU     AUL 3826  17.276  17.322   7.937
    9AU       S 3827  17.316  17.008   7.497
    9AU     LIG 3828  17.695  16.682   7.385
    9AU     LIG 3829  18.138  16.604   7.519
    9AU     LIG 3830  18.596  16.580   7.531
    9AU     LIG 3831  18.916  16.221   7.550
    9AU       S 3832  17.195  16.874   7.949
    9AU     LIG 3833  17.445  16.634   8.297
    9AU     LIG 3834  17.656  16.415   8.647
    9AU     LIG 3835  17.904  16.178   8.958
    9AU     LIG 3836  18.224  15.957   9.210
    9AU    AUSL 3837  17.087  17.542   7.327
    9AU    AUSL 3838  17.044  17.130   7.108
    9AU     AUL 3839  17.326  17.369   7.158
    9AU       S 3840  17.579  17.143   7.444
    9AU     LIG 3841  17.969  17.144   7.232
    9AU     LIG 3842  18.353  16.905   7.166
    9AU     LIG 3843  18.793  16.951   7.032
    9AU     LIG 3844  19.253  16.930   6.981
    9AU       S 3845  17.250  17.003   6.855
    9AU     LIG 3846  17.290  16.532   6.800
    9AU     LIG 3847  17.448  16.112   6.614
    9AU     LIG 3848  17.663  15.816   6.315
    9AU     LIG 3849  18.080  15.621   6.187
    9AU    AUSL 3850  15.680  17.220   7.557
    9AU    AUSL 3851  15.784  17.451   7.147
    9AU     AUL 3852  15.434  17.280   7.277
    9AU       S 3853  15.587  17.257   6.842
    9AU     LIG 3854  15.336  17.017   6.500
    9AU     LIG 3855  15.026  16.671   6.402
    9AU     LIG 3856  14.690  16.396   6.203
    9AU     LIG 3857  14.413  16.287   5.828
    9AU       S 3858  15.250  17.272   7.717
    9AU     LIG 3859  14.837  17.116   7.568
    9AU     LIG 3860  14.420  16.923   7.453
    9AU     LIG 3861  14.017  16.689   7.405
    9AU     LIG 3862  13.727  16.503   7.699
    9AU    AUSL 3863  15.742  17.604   7.745
    9AU    AUSL 3864  16.000  17.231   7.837
    9AU     AUL 3865  15.667  17.192   7.903
    9AU       S 3866  15.729  17.033   8.336
    9AU     LIG 3867  15.507  16.712   8.138
    9AU     LIG 3868  15.178  16.356   8.165
    9AU     LIG 3869  14.912  16.050   8.415
    9AU     LIG 3870  14.762  15.674   8.659
    9AU       S 3871  15.340  17.515   7.859
    9AU     LIG 3872  14.828  17.529   7.882
    9AU     LIG 3873  14.386  17.364   7.740
    9AU     LIG 3874  13.975  17.111   7.698
    9AU     LIG 3875  13.545  16.990   7.836
    9AU    AUSL 3876  16.460  18.420   7.897
    9AU    AUSL 3877  16.018  18.458   7.808
    9AU     AUL 3878  16.267  18.545   8.174
    9AU       S 3879  15.885  18.666   7.931
    9AU     LIG 3880  15.548  18.863   8.233
    9AU     LIG 3881  15.381  18.977   8.665
    9AU     LIG 3882  15.122  19.304   8.888
    9AU     LIG 3883  14.924  19.717   9.046
    9AU       S 3884  16.495  18.886   7.955
    9AU     LIG 3885  16.655  18.907   8.328
    9AU     LIG 3886  16.721  19.353   8.461
    9AU     LIG 3887  16.820  19.794   8.606
    9AU     LIG 3888  16.703  20.172   8.842
    9AU    AUSL 3889  16.292  18.673   7.584
    9AU    AUSL 3890  16.577  18.638   7.221
    9AU     AUL 3891  16.261  18.895   7.344
    9AU       S 3892  16.341  18.895   7.808
    9AU     LIG 3893  16.414  19.364   7.999
    9AU     LIG 3894  16.467  19.770   8.227
    9AU     LIG 3895  16.259  20.176   8.370
    9AU     LIG 3896  15.875  20.482   8.327
    9AU       S 3897  16.537  18.951   6.977
    9AU     LIG 3898  16.936  19.109   6.969
    9AU     LIG 3899  17.062  19.560   6.870
    9AU     LIG 3900  17.116  20.050   6.831
    9AU     LIG 3901  16.990  20.446   6.597
    9AU    AUSL 3902  16.732  18.615   7.618
    9AU    AUSL 3903  16.746  18.315   8.182
    9AU     AUL 3904  16.836  18.577   7.962
    9AU       S 3905  16.981  18.395   8.394
    9AU     LIG 3906  17.335  18.338   8.722
    9AU     LIG 3907  17.590  18.587   8.999
    9AU     LIG 3908  17.753  18.988   9.154
    9AU     LIG 3909  17.811  19.294   9.491
    9AU       S 3910  16.687  18.924   7.662
    9AU     LIG 3911  16.903  19.211   7.979
    9AU     LIG 3912  16.981  19.675   8.130
    9AU     LIG 3913  17.120  20.138   8.271
    9AU     LIG 3914  17.290  20.610   8.209
    9AU    AUSL 3915  16.382  17.019   7.928
    9AU    AUSL 3916  16.791  17.031   7.762
    9AU     AUL 3917  16.620  16.902   8.148
    9AU       S 3918  16.361  16.557   7.980
    9AU     LIG 3919  16.469  16.292   8.299
    9AU     LIG 3920  16.312  15.861   8.402
    9AU     LIG 3921  16.270  15.391   8.373
    9AU     LIG 3922  16.364  14.953   8.468
    9AU       S 3923  16.951  16.813   7.812
    9AU     LIG 3924  16.967  16.403   8.069
    9AU     LIG 3925  17.293  16.145   8.366
    9AU     LIG 3926  17.680  15.896   8.565
    9AU     LIG 3927  18.051  15.693   8.790
    9AU    AUSL 3928  16.066  16.867   7.649
    9AU    AUSL 3929  16.172  17.188   8.245
    9AU     AUL 3930  16.039  16.902   8.013
    9AU       S 3931  16.179  16.490   7.829
    9AU     LIG 3932  16.046  16.118   8.033
    9AU     LIG 3933  15.995  15.657   8.025
    9AU     LIG 3934  15.822  15.225   8.122
    9AU     LIG 3935  15.720  14.860   8.385
    9AU       S 3936  15.973  17.072   8.450
    9AU     LIG 3937  15.775  16.639   8.607
    9AU     LIG 3938  15.360  16.422   8.637
    9AU     LIG 3939  15.127  16.096   8.883
    9AU     LIG 3940  14.915  15.975   9.278
    9AU    AUSL 3941  16.497  16.786   7.588
    9AU    AUSL 3942  16.265  17.028   7.305
    9AU     AUL 3943  16.150  16.683   7.407
    9AU       S 3944  16.503  16.590   7.140
    9AU     LIG 3945  16.094  16.334   7.067
    9AU     LIG 3946  15.997  15.888   7.011
    9AU     LIG 3947  16.006  15.416   6.935
    9AU     LIG 3948  15.878  14.986   6.740
    9AU       S 3949  16.509  16.571   7.731
    9AU     LIG 3950  16.529  16.095   7.825
    9AU     LIG 3951  16.531  15.635   7.988
    9AU     LIG 3952  16.740  15.205   8.132
    9AU     LIG 3953  17.125  14.921   8.282
    9AU    AUSL 3954  16.413  18.455   6.857
    9AU    AUSL 3955  16.927  18.410   7.267
    9AU     AUL 3956  16.758  18.561   6.917
    9AU       S 3957  16.387  18.712   6.665
    9AU     LIG 3958  16.790  18.889   6.530
    9AU     LIG 3959  16.916  19.325   6.423
    9AU     LIG 3960  16.799  19.716   6.183
    9AU     LIG 3961  16.782  20.182   6.193
    9AU       S 3962  17.124  18.612   7.178
    9AU     LIG 3963  17.407  18.899   6.870
    9AU     LIG 3964  17.725  18.847   6.502
    9AU     LIG 3965  18.054  19.081   6.232
    9AU     LIG 3966  18.502  19.227   6.093
    9AU    AUSL 3967  16.226  18.406   7.275
    9AU    AUSL 3968  16.177  18.127   6.937
    9AU     AUL 3969  16.102  18.567   7.020
    9AU       S 3970  16.343  18.929   6.878
    9AU     LIG 3971  16.534  19.387   6.757
    9AU     LIG 3972  16.662  19.835   6.665
    9AU     LIG 3973  16.486  20.270   6.618
    9AU     LIG 3974  16.101  20.567   6.624
    9AU       S 3975  15.982  18.362   6.627
    9AU     LIG 3976  15.842  18.517   6.205
    9AU     LIG 3977  15.521  18.747   5.957
    9AU     LIG 3978  15.331  19.090   5.681
    9AU     LIG 3979  15.171  19.357   5.316
    9AU    AUSL 3980  16.450  16.996   6.911
    9AU    AUSL 3981  15.855  17.023   7.225
    9AU     AUL 3982  16.112  16.868   6.972
    9AU       S 3983  15.652  16.979   6.988
    9AU     LIG 3984  15.432  16.616   6.816
    9AU     LIG 3985  15.174  16.244   6.648
    9AU     LIG 3986  14.843  15.950   6.445
    9AU     LIG 3987  14.414  15.745   6.477
    9AU       S 3988  16.505  16.590   6.927
    9AU     LIG 3989  16.459  16.139   6.775
    9AU     LIG 3990  16.277  15.733   6.602
    9AU     LIG 3991  16.261  15.274   6.509
    9AU     LIG 3992  16.142  14.921   6.220
    9AU    AUSL 3993  16.693  17.005   7.290
    9AU    AUSL 3994  16.700  17.330   6.942
    9AU     AUL 3995  16.791  16.956   6.920
    9AU       S 3996  16.741  16.608   7.230
    9AU     LIG 3997  16.536  16.132   7.295
    9AU     LIG 3998  16.477  15.695   7.076
    9AU     LIG 3999  16.662  15.288   6.871
    9AU     LIG 4000  17.053  14.978   6.800
    9AU       S 4001  17.016  17.167   6.586
    9AU     LIG 4002  16.930  16.729   6.491
    9AU     LIG 4003  17.159  16.376   6.278
    9AU     LIG 4004  17.396  16.128   5.943
    9AU     LIG 4005  17.479  16.121   5.474
   10AU     AUC 4006  37.421   7.770   7.496
   10AU     AUC 4007  37.696   7.788   7.316
   10AU     AUC 4008  37.688   7.760   7.666
   10AU     AUC 4009  37.136   7.757   7.331
   10AU     AUC 4010  37.152   7.796   7.682
   10AU     AUC 4011  37.247   8.044   7.495
   10AU     AUC 4012  37.601   8.055   7.484
   10AU     AUC 4013  37.240   7.496   7.504
   10AU     AUC 4014  37.591   7.481   7.489
   10AU     AUC 4015  37.428   7.592   7.769
   10AU     AUC 4016  37.415   7.958   7.758
   10AU     AUC 4017  37.417   7.604   7.218
   10AU     AUC 4018  37.431   7.926   7.218
   10AU     AUC 4019  38.007   7.804   7.145
   10AU     AUC 4020  38.025   7.754   7.506
   10AU     AUC 4021  37.977   7.738   7.856
   10AU     AUC 4022  36.837   7.740   7.162
   10AU     AUC 4023  36.815   7.782   7.528
   10AU     AUC 4024  36.870   7.820   7.870
   10AU     AUC 4025  37.076   8.345   7.478
   10AU     AUC 4026  37.444   8.390   7.451
   10AU     AUC 4027  37.780   8.343   7.477
   10AU     AUC 4028  37.049   7.214   7.513
   10AU     AUC 4029  37.400   7.166   7.486
   10AU     AUC 4030  37.761   7.185   7.467
   10AU     AUC 4031  37.417   7.412   8.061
   10AU     AUC 4032  37.425   7.778   8.091
   10AU     AUC 4033  37.439   8.134   8.051
   10AU     AUC 4034  37.444   7.432   6.941
   10AU     AUC 4035  37.424   7.767   6.882
   10AU     AUC 4036  37.405   8.093   6.917
   10AU     AUC 4037  37.699   7.549   7.982
   10AU     AUC 4038  37.730   7.934   7.979
   10AU     AUC 4039  37.747   7.641   6.983
   10AU     AUC 4040  37.733   7.963   7.022
   10AU     AUC 4041  37.126   7.634   8.013
   10AU     AUC 4042  37.137   8.012   7.990
   10AU     AUC 4043  37.120   7.571   7.039
   10AU     AUC 4044  37.094   7.895   6.991
   10AU     AUC 4045  37.947   8.070   7.339
   10AU     AUC 4046  37.894   8.040   7.685
   10AU     AUC 4047  36.932   8.053   7.312
   10AU     AUC 4048  36.941   8.102   7.678
   10AU     AUC 4049  37.896   7.479   7.307
   10AU     AUC 4050  37.877   7.429   7.667
   10AU     AUC 4051  36.908   7.453   7.364
   10AU     AUC 4052  36.960   7.504   7.719
   10AU     AUC 4053  37.258   8.289   7.760
   10AU     AUC 4054  37.610   8.257   7.767
   10AU     AUC 4055  37.241   7.289   7.801
   10AU     AUC 4056  37.562   7.243   7.765
   10AU     AUC 4057  37.238   8.201   7.181
   10AU     AUC 4058  37.611   8.257   7.192
   10AU     AUC 4059  37.234   7.290   7.205
   10AU     AUC 4060  37.625   7.318   7.190
   10AU    AUSL 4061  37.960   7.672   8.218
   10AU    AUSL 4062  37.700   7.257   8.141
   10AU     AUL 4063  37.982   7.267   8.372
   10AU       S 4064  38.098   6.931   8.085
   10AU     LIG 4065  37.997   6.740   8.462
   10AU     LIG 4066  38.169   6.466   8.783
   10AU     LIG 4067  38.430   6.144   8.992
   10AU     LIG 4068  38.719   5.905   9.276
   10AU       S 4069  38.180   7.669   8.323
   10AU     LIG 4070  38.045   7.636   8.775
   10AU     LIG 4071  38.236   7.547   9.211
   10AU     LIG 4072  38.568   7.436   9.542
   10AU     LIG 4073  38.844   7.405   9.926
   10AU    AUSL 4074  37.562   7.584   8.389
   10AU    AUSL 4075  37.300   7.960   8.417
   10AU     AUL 4076  37.508   7.898   8.732
   10AU       S 4077  37.631   7.516   8.524
   10AU     LIG 4078  37.557   7.429   8.929
   10AU     LIG 4079  37.801   7.279   9.295
   10AU     LIG 4080  38.109   7.227   9.654
   10AU     LIG 4081  38.277   7.180  10.097
   10AU       S 4082  37.114   7.690   8.635
   10AU     LIG 4083  37.136   7.717   9.100
   10AU     LIG 4084  36.871   7.734   9.492
   10AU     LIG 4085  36.707   7.786   9.930
   10AU     LIG 4086  36.712   8.071  10.318
   10AU    AUSL 4087  37.620   7.956   8.152
   10AU    AUSL 4088  38.055   8.072   8.094
   10AU     AUL 4089  37.854   7.973   8.436
   10AU       S 4090  37.497   8.350   8.568
   10AU     LIG 4091  37.844   8.268   8.870
   10AU     LIG 4092  37.997   8.439   9.294
   10AU     LIG 4093  37.907   8.622   9.745
   10AU     LIG 4094  37.899   8.545  10.220
   10AU       S 4095  38.219   8.213   8.270
   10AU     LIG 4096  38.642   8.282   8.274
   10AU     LIG 4097  38.929   8.485   8.587
   10AU     LIG 4098  39.134   8.711   8.949
   10AU     LIG 4099  39.305   9.019   9.251
   10AU    AUSL 4100  37.950   7.932   6.754
   10AU    AUSL 4101  37.723   8.240   6.961
   10AU     AUL 4102  37.842   8.309   6.618
   10AU       S 4103  37.913   7.981   6.308
   10AU     LIG 4104  38.287   7.820   6.115
   10AU     LIG 4105  38.406   7.507   5.808
   10AU     LIG 4106  38.519   7.442   5.360
   10AU     LIG 4107  38.672   7.529   4.921
   10AU       S 4108  38.186   8.493   6.877
   10AU     LIG 4109  38.257   8.698   6.487
   10AU     LIG 4110  38.483   8.869   6.096
   10AU     LIG 4111  38.765   9.078   5.779
   10AU     LIG 4112  38.940   9.265   5.374
   10AU    AUSL 4113  37.727   7.597   6.598
   10AU    AUSL 4114  38.082   7.554   6.903
   10AU     AUL 4115  38.144   7.689   6.602
   10AU       S 4116  38.221   7.232   6.657
   10AU     LIG 4117  38.406   6.897   6.353
   10AU     LIG 4118  38.688   6.522   6.212
   10AU     LIG 4119  38.965   6.239   5.916
   10AU     LIG 4120  39.422   6.200   5.746
   10AU       S 4121  37.812   7.833   6.299
   10AU     LIG 4122  37.920   7.452   6.119
   10AU     LIG 4123  37.976   7.242   5.702
   10AU     LIG 4124  38.061   7.243   5.234
   10AU     LIG 4125  38.261   7.240   4.799
   10AU    AUSL 4126  37.523   7.970   6.690
   10AU    AUSL 4127  37.317   7.562   6.723
   10AU     AUL 4128  37.455   7.587   6.431
   10AU       S 4129  37.009   7.579   6.303
   10AU     LIG 4130  37.156   7.390   5.959
   10AU     LIG 4131  36.951   7.230   5.576
   10AU     LIG 4132  36.720   7.253   5.163
   10AU     LIG 4133  36.547   7.150   4.733
   10AU       S 4134  37.568   8.035   6.344
   10AU     LIG 4135  37.682   7.859   5.842
   10AU     LIG 4136  38.027   7.721   5.516
   10AU     LIG 4137  38.192   7.712   5.059
   10AU     LIG 4138  38.294   7.724   4.593
   10AU    AUSL 4139  36.899   7.890   8.256
   10AU    AUSL 4140  37.163   8.261   8.149
   10AU     AUL 4141  37.033   8.175   8.483
   10AU       S 4142  36.911   7.742   8.650
   10AU     LIG 4143  36.655   7.541   8.923
   10AU     LIG 4144  36.438   7.504   9.327
   10AU     LIG 4145  36.261   7.566   9.751
   10AU     LIG 4146  35.865   7.568  10.004
   10AU       S 4147  36.792   8.506   8.225
   10AU     LIG 4148  36.980   8.674   8.588
   10AU     LIG 4149  36.822   8.898   8.948
   10AU     LIG 4150  36.469   9.102   9.175
   10AU     LIG 4151  36.238   9.150   9.591
   10AU    AUSL 4152  37.207   7.617   8.160
   10AU    AUSL 4153  36.796   7.475   8.140
   10AU     AUL 4154  36.674   7.709   8.261
   10AU       S 4155  36.719   7.264   8.410
   10AU     LIG 4156  36.280   7.204   8.259
   10AU     LIG 4157  36.013   6.847   8.411
   10AU     LIG 4158  35.831   6.503   8.679
   10AU     LIG 4159  35.632   6.188   8.971
   10AU       S 4160  37.100   7.555   8.547
   10AU     LIG 4161  37.073   7.252   8.898
   10AU     LIG 4162  36.898   7.254   9.307
   10AU     LIG 4163  36.700   7.287   9.727
   10AU     LIG 4164  36.458   7.076  10.070
   10AU    AUSL 4165  36.894   7.621   6.776
   10AU    AUSL 4166  37.105   7.272   6.948
   10AU     AUL 4167  37.149   7.264   6.616
   10AU       S 4168  36.822   7.490   6.382
   10AU     LIG 4169  36.650   7.267   6.043
   10AU     LIG 4170  36.449   7.330   5.631
   10AU     LIG 4171  36.287   7.520   5.236
   10AU     LIG 4172  36.034   7.432   4.847
   10AU       S 4173  36.732   7.160   6.783
   10AU     LIG 4174  36.801   6.883   6.497
   10AU     LIG 4175  36.492   6.616   6.296
   10AU     LIG 4176  36.180   6.334   6.111
   10AU     LIG 4177  35.871   6.055   5.910
   10AU    AUSL 4178  37.116   7.939   6.591
   10AU    AUSL 4179  36.755   8.013   6.901
   10AU     AUL 4180  36.681   7.851   6.619
   10AU       S 4181  36.790   8.291   6.647
   10AU     LIG 4182  36.389   8.316   6.615
   10AU     LIG 4183  36.227   8.571   6.266
   10AU     LIG 4184  36.051   8.795   5.893
   10AU     LIG 4185  35.629   8.897   5.694
   10AU       S 4186  37.058   7.848   6.327
   10AU     LIG 4187  36.794   7.773   5.908
   10AU     LIG 4188  36.758   7.697   5.445
   10AU     LIG 4189  36.681   7.763   4.985
   10AU     LIG 4190  36.669   8.101   4.644
   10AU    AUSL 4191  38.216   8.267   7.515
   10AU    AUSL 4192  38.114   8.086   7.114
   10AU     AUL 4193  38.487   8.353   7.269
   10AU       S 4194  38.209   8.276   6.925
   10AU     LIG 4195  38.352   8.174   6.517
   10AU     LIG 4196  38.677   8.429   6.300
   10AU     LIG 4197  38.990   8.711   6.080
   10AU     LIG 4198  39.249   8.902   5.725
   10AU       S 4199  38.595   8.147   7.682
   10AU     LIG 4200  39.031   8.344   7.592
   10AU     LIG 4201  39.499   8.509   7.573
   10AU     LIG 4202  39.962   8.700   7.526
   10AU     LIG 4203  40.246   9.101   7.450
   10AU    AUSL 4204  38.386   7.872   7.362
   10AU    AUSL 4205  38.338   7.541   7.680
   10AU     AUL 4206  38.710   7.641   7.661
   10AU       S 4207  38.502   7.913   7.380
   10AU     LIG 4208  38.960   7.913   7.330
   10AU     LIG 4209  39.399   8.081   7.290
   10AU     LIG 4210  39.841   8.250   7.274
   10AU     LIG 4211  40.212   8.398   7.030
   10AU       S 4212  38.565   7.210   7.572
   10AU     LIG 4213  38.822   7.130   7.856
   10AU     LIG 4214  39.245   6.993   7.781
   10AU     LIG 4215  39.642   6.798   7.691
   10AU     LIG 4216  40.006   6.763   7.950
   10AU    AUSL 4217  38.125   7.903   7.721
   10AU    AUSL 4218  37.873   8.301   7.771
   10AU     AUL 4219  38.194   8.349   7.821
   10AU       S 4220  38.185   8.525   8.243
   10AU     LIG 4221  38.535   8.781   8.418
   10AU     LIG 4222  38.901   9.026   8.615
   10AU     LIG 4223  39.183   9.351   8.859
   10AU     LIG 4224  39.460   9.771   8.878
   10AU       S 4225  38.451   7.970   7.847
   10AU     LIG 4226  38.954   7.979   7.965
   10AU     LIG 4227  39.408   8.028   7.801
   10AU     LIG 4228  39.851   8.205   7.796
   10AU     LIG 4229  40.135   8.515   7.995
   10AU    AUSL 4230  36.746   8.312   7.515
   10AU    AUSL 4231  36.815   8.123   7.920
   10AU     AUL 4232  36.515   8.422   7.765
   10AU       S 4233  36.654   8.276   8.183
   10AU     LIG 4234  36.575   8.320   8.646
   10AU     LIG 4235  36.390   8.604   8.979
   10AU     LIG 4236  36.060   8.777   9.268
   10AU     LIG 4237  35.722   8.781   9.600
   10AU       S 4238  36.737   8.704   7.444
   10AU     LIG 4239  36.262   8.593   7.361
   10AU     LIG 4240  35.790   8.712   7.444
   10AU     LIG 4241  35.305   8.857   7.489
   10AU     LIG 4242  34.942   9.215   7.529
   10AU    AUSL 4243  36.707   7.932   7.306
   10AU    AUSL 4244  36.834   8.386   7.113
   10AU     AUL 4245  36.537   8.232   7.152
   10AU       S 4246  36.366   7.762   6.983
   10AU     LIG 4247  36.044   8.139   7.065
   10AU     LIG 4248  35.601   8.317   7.168
   10AU     LIG 4249  35.130   8.466   7.164
   10AU     LIG 4250  34.660   8.550   7.004
   10AU       S 4251  36.638   8.644   6.917
   10AU     LIG 4252  36.635   8.823   6.488
   10AU     LIG 4253  36.558   9.242   6.225
   10AU     LIG 4254  36.486   9.749   6.229
   10AU     LIG 4255  36.164  10.146   6.191
   10AU    AUSL 4256  36.504   7.968   7.694
   10AU    AUSL 4257  36.475   7.600   7.412
   10AU     AUL 4258  36.317   7.927   7.423
   10AU       S 4259  36.276   7.520   7.684
   10AU     LIG 4260  35.952   7.575   7.364
   10AU     LIG 4261  35.484   7.455   7.292
   10AU     LIG 4262  34.992   7.356   7.323
   10AU     LIG 4263  34.561   7.478   7.125
   10AU       S 4264  36.327   8.004   7.916
   10AU     LIG 4265  35.981   8.235   7.651
   10AU     LIG 4266  35.490   8.358   7.669
   10AU     LIG 4267  35.083   8.546   7.846
   10AU     LIG 4268  34.784   8.914   7.942
   10AU    AUSL 4269  38.109   7.209   7.512
   10AU    AUSL 4270  37.969   7.448   7.865
   10AU     AUL 4271  38.285   7.352   7.923
   10AU       S 4272  38.325   7.072   7.484
   10AU     LIG 4273  38.701   6.751   7.489
   10AU     LIG 4274  39.149   6.648   7.405
   10AU     LIG 4275  39.533   6.394   7.371
   10AU     LIG 4276  39.811   6.029   7.489
   10AU       S 4277  38.207   6.903   7.924
   10AU     LIG 4278  38.473   6.654   8.239
   10AU     LIG 4279  38.656   6.439   8.606
   10AU     LIG 4280  38.935   6.204   8.899
   10AU     LIG 4281  39.129   6.224   9.330
   10AU    AUSL 4282  38.089   7.587   7.319
   10AU    AUSL 4283  38.035   7.167   7.098
   10AU     AUL 4284  38.302   7.402   7.123
   10AU       S 4285  38.606   7.251   7.403
   10AU     LIG 4286  39.025   7.165   7.343
   10AU     LIG 4287  39.441   7.055   7.297
   10AU     LIG 4288  39.781   6.811   7.167
   10AU     LIG 4289  40.204   6.774   7.030
   10AU       S 4290  38.234   7.032   6.825
   10AU     LIG 4291  38.311   6.569   6.749
   10AU     LIG 4292  38.502   6.172   6.542
   10AU     LIG 4293  38.770   5.897   6.258
   10AU     LIG 4294  39.037   5.592   6.002
   10AU    AUSL 4295  36.682   7.242   7.565
   10AU    AUSL 4296  36.781   7.477   7.154
   10AU     AUL 4297  36.434   7.301   7.286
   10AU       S 4298  36.585   7.285   6.850
   10AU     LIG 4299  36.345   7.128   6.466
   10AU     LIG 4300  36.015   6.800   6.371
   10AU     LIG 4301  35.701   6.473   6.224
   10AU     LIG 4302  35.426   6.318   5.862
   10AU       S 4303  36.248   7.284   7.726
   10AU     LIG 4304  35.803   7.134   7.585
   10AU     LIG 4305  35.345   6.977   7.463
   10AU     LIG 4306  34.917   6.732   7.414
   10AU     LIG 4307  34.756   6.279   7.271
   10AU    AUSL 4308  36.740   7.626   7.756
   10AU    AUSL 4309  37.006   7.256   7.840
   10AU     AUL 4310  36.671   7.214   7.910
   10AU       S 4311  36.739   7.041   8.333
   10AU     LIG 4312  36.478   6.707   8.217
   10AU     LIG 4313  36.144   6.360   8.272
   10AU     LIG 4314  35.918   6.015   8.516
   10AU     LIG 4315  35.835   5.717   8.880
   10AU       S 4316  36.341   7.534   7.871
   10AU     LIG 4317  35.827   7.562   7.879
   10AU     LIG 4318  35.375   7.385   7.790
   10AU     LIG 4319  34.970   7.112   7.793
   10AU     LIG 4320  34.627   6.772   7.876
   10AU    AUSL 4321  37.446   8.456   7.896
   10AU    AUSL 4322  37.008   8.482   7.808
   10AU     AUL 4323  37.258   8.574   8.173
   10AU       S 4324  36.878   8.681   7.924
   10AU     LIG 4325  36.955   9.040   8.220
   10AU     LIG 4326  36.724   9.265   8.594
   10AU     LIG 4327  36.483   9.658   8.768
   10AU     LIG 4328  36.236  10.022   8.605
   10AU       S 4329  37.467   8.923   7.954
   10AU     LIG 4330  37.469   8.992   8.371
   10AU     LIG 4331  37.375   9.391   8.573
   10AU     LIG 4332  37.485   9.832   8.699
   10AU     LIG 4333  37.491  10.287   8.734
   10AU    AUSL 4334  37.272   8.711   7.583
   10AU    AUSL 4335  37.565   8.661   7.219
   10AU     AUL 4336  37.315   8.940   7.331
   10AU       S 4337  37.303   8.934   7.806
   10AU     LIG 4338  37.355   9.380   8.048
   10AU     LIG 4339  37.270   9.779   8.236
   10AU     LIG 4340  37.084  10.111   8.455
   10AU     LIG 4341  37.030  10.532   8.625
   10AU       S 4342  37.446   8.961   6.886
   10AU     LIG 4343  37.776   9.198   6.971
   10AU     LIG 4344  37.812   9.669   6.895
   10AU     LIG 4345  37.761  10.113   6.704
   10AU     LIG 4346  37.858  10.591   6.736
   10AU    AUSL 4347  37.713   8.657   7.619
   10AU    AUSL 4348  37.733   8.357   8.183
   10AU     AUL 4349  37.814   8.620   7.966
   10AU       S 4350  37.964   8.445   8.396
   10AU     LIG 4351  38.321   8.417   8.722
   10AU     LIG 4352  38.610   8.705   8.936
   10AU     LIG 4353  38.800   9.085   9.118
   10AU     LIG 4354  38.977   9.383   9.423
   10AU       S 4355  37.661   8.974   7.684
   10AU     LIG 4356  37.847   9.223   8.054
   10AU     LIG 4357  37.768   9.636   8.293
   10AU     LIG 4358  37.860  10.113   8.378
   10AU     LIG 4359  38.143  10.530   8.307
   10AU    AUSL 4360  37.389   7.048   7.931
   10AU    AUSL 4361  37.797   7.067   7.760
   10AU     AUL 4362  37.635   6.932   8.145
   10AU       S 4363  37.376   6.584   7.980
   10AU     LIG 4364  37.511   6.313   8.279
   10AU     LIG 4365  37.373   5.894   8.403
   10AU     LIG 4366  37.295   5.455   8.515
   10AU     LIG 4367  37.327   5.158   8.893
   10AU       S 4368  37.960   6.856   7.800
   10AU     LIG 4369  37.948   6.454   8.036
   10AU     LIG 4370  38.240   6.203   8.345
   10AU     LIG 4371  38.598   5.930   8.553
   10AU     LIG 4372  38.875   5.663   8.841
   10AU    AUSL 4373  37.070   6.891   7.653
   10AU    AUSL 4374  37.178   7.215   8.248
   10AU     AUL 4375  37.052   6.925   8.012
   10AU       S 4376  37.191   6.512   7.824
   10AU     LIG 4377  37.126   6.088   7.991
   10AU     LIG 4378  37.047   5.624   8.065
   10AU     LIG 4379  36.771   5.224   8.025
   10AU     LIG 4380  36.639   4.803   8.221
   10AU       S 4381  36.987   7.100   8.447
   10AU     LIG 4382  36.726   6.813   8.755
   10AU     LIG 4383  36.355   6.526   8.714
   10AU     LIG 4384  36.150   6.174   8.944
   10AU     LIG 4385  35.970   5.959   9.318
   10AU    AUSL 4386  37.502   6.819   7.589
   10AU    AUSL 4387  37.264   7.062   7.314
   10AU     AUL 4388  37.158   6.707   7.400
   10AU       S 4389  37.534   6.613   7.163
   10AU     LIG 4390  37.223   6.214   7.183
   10AU     LIG 4391  37.052   5.741   7.031
   10AU     LIG 4392  36.891   5.264   6.884
   10AU     LIG 4393  36.648   4.829   6.736
   10AU       S 4394  37.519   6.611   7.725
   10AU     LIG 4395  37.591   6.155   7.784
   10AU     LIG 4396  37.579   5.709   7.961
   10AU     LIG 4397  37.832   5.291   8.019
   10AU     LIG 4398  37.973   4.854   8.139
   10AU    AUSL 4399  37.394   8.479   6.859
   10AU    AUSL 4400  37.923   8.449   7.276
   10AU     AUL 4401  37.743   8.620   6.945
   10AU       S 4402  37.371   8.674   6.653
   10AU     LIG 4403  37.726   8.942   6.495
   10AU     LIG 4404  37.591   9.405   6.512
   10AU     LIG 4405  37.557   9.831   6.300
   10AU     LIG 4406  37.432  10.199   6.030
   10AU       S 4407  38.136   8.630   7.173
   10AU     LIG 4408  38.556   8.797   6.936
   10AU     LIG 4409  38.772   8.915   6.519
   10AU     LIG 4410  39.028   9.217   6.229
   10AU     LIG 4411  39.297   9.637   6.223
   10AU    AUSL 4412  37.213   8.434   7.281
   10AU    AUSL 4413  37.160   8.151   6.948
   10AU     AUL 4414  37.083   8.591   7.039
   10AU       S 4415  37.267   8.950   6.851
   10AU     LIG 4416  37.299   9.422   6.975
   10AU     LIG 4417  37.331   9.824   6.765
   10AU     LIG 4418  37.224  10.190   6.504
   10AU     LIG 4419  37.014  10.590   6.427
   10AU       S 4420  36.956   8.390   6.642
   10AU     LIG 4421  36.873   8.474   6.192
   10AU     LIG 4422  36.596   8.768   5.955
   10AU     LIG 4423  36.426   9.108   5.692
   10AU     LIG 4424  36.376   9.305   5.260
   10AU    AUSL 4425  37.444   7.018   6.921
   10AU    AUSL 4426  36.856   7.049   7.228
   10AU     AUL 4427  37.111   6.900   6.973
   10AU       S 4428  36.652   7.007   6.992
   10AU     LIG 4429  36.362   6.726   6.787
   10AU     LIG 4430  36.102   6.358   6.618
   10AU     LIG 4431  35.838   6.003   6.429
   10AU     LIG 4432  35.587   5.576   6.462
   10AU       S 4433  37.504   6.622   6.983
   10AU     LIG 4434  37.539   6.189   6.782
   10AU     LIG 4435  37.374   5.753   6.624
   10AU     LIG 4436  37.273   5.294   6.507
   10AU     LIG 4437  37.294   4.940   6.197
   10AU    AUSL 4438  37.692   7.046   7.294
   10AU    AUSL 4439  37.684   7.360   6.938
   10AU     AUL 4440  37.778   6.990   6.913
   10AU       S 4441  37.796   6.675   7.256
   10AU     LIG 4442  37.730   6.179   7.282
   10AU     LIG 4443  37.576   5.760   7.102
   10AU     LIG 4444  37.612   5.318   6.897
   10AU     LIG 4445  37.661   4.918   6.626
   10AU       S 4446  37.987   7.207   6.573
   10AU     LIG 4447  37.918   6.770   6.478
   10AU     LIG 4448  38.161   6.434   6.257
   10AU     LIG 4449  38.420   6.154   5.976
   10AU     LIG 4450  38.645   5.814   5.739
   11POPC   NC3 4451  25.495  16.497   9.461
   11POPC   PO4 4452  25.068  16.993   9.587
   11POPC   GL1 4453  25.301  16.945   9.204
   11POPC   GL2 4454  25.246  16.610   9.024
   11POPC   C1A 4455  25.298  17.058   8.769
   11POPC   D2A 4456  25.138  16.788   8.446
   11POPC   C3A 4457  25.218  16.860   8.009
   11POPC   C4A 4458  25.468  17.076   7.692
   11POPC   C1B 4459  25.337  16.339   8.626
   11POPC   C2B 4460  25.658  16.402   8.305
   11POPC   C3B 4461  25.609  16.555   7.914
   11POPC   C4B 4462  25.225  16.485   7.651
   12POPC   NC3 4463  37.277  17.530   9.478
   12POPC   PO4 4464  36.749  17.121   9.405
   12POPC   GL1 4465  37.009  17.304   9.117
   12POPC   GL2 4466  37.013  17.657   9.053
   12POPC   C1A 4467  37.258  17.194   8.789
   12POPC   D2A 4468  37.084  17.068   8.397
   12POPC   C3A 4469  37.173  17.278   8.049
   12POPC   C4A 4470  37.108  17.095   7.627
   12POPC   C1B 4471  36.870  17.502   8.646
   12POPC   C2B 4472  36.708  17.473   8.227
   12POPC   C3B 4473  36.818  17.537   7.811
   12POPC   C4B 4474  37.134  17.895   7.821
   13POPC   NC3 4475  33.756  42.418   9.606
   13POPC   PO4 4476  33.466  41.812   9.651
   13POPC   GL1 4477  33.543  42.051   9.299
   13POPC   GL2 4478  33.901  42.099   9.216
   13POPC   C1A 4479  33.545  42.271   8.911
   13POPC   D2A 4480  33.638  42.131   8.511
   13POPC   C3A 4481  33.500  42.313   8.146
   13POPC   C4A 4482  33.649  42.190   7.755
   13POPC   C1B 4483  34.076  42.165   8.778
   13POPC   C2B 4484  34.085  42.471   8.443
   13POPC   C3B 4485  34.010  42.456   8.009
   13POPC   C4B 4486  34.193  42.196   7.697
   14POPC   NC3 4487  43.624  36.388   9.346
   14POPC   PO4 4488  44.159  36.121   9.625
   14POPC   GL1 4489  43.955  35.987   9.178
   14POPC   GL2 4490  43.893  36.262   8.957
   14POPC   C1A 4491  43.734  35.823   8.785
   14POPC   D2A 4492  43.840  36.086   8.457
   14POPC   C3A 4493  43.852  35.952   8.045
   14POPC   C4A 4494  43.745  36.228   7.728
   14POPC   C1B 4495  44.140  36.467   8.698
   14POPC   C2B 4496  44.198  36.422   8.290
   14POPC   C3B 4497  44.101  36.540   7.912
   14POPC   C4B 4498  44.006  36.666   7.534
   15POPC   NC3 4499  39.836  17.329   9.364
   15POPC   PO4 4500  40.029  16.589   9.510
   15POPC   GL1 4501  39.954  16.785   9.123
   15POPC   GL2 4502  40.227  17.046   9.130
   15POPC   C1A 4503  39.919  16.564   8.712
   15POPC   D2A 4504  40.055  16.586   8.277
   15POPC   C3A 4505  39.847  16.798   7.894
   15POPC   C4A 4506  39.797  16.757   7.392
   15POPC   C1B 4507  40.304  16.866   8.737
   15POPC   C2B 4508  40.527  16.834   8.371
   15POPC   C3B 4509  40.385  16.854   7.985
   15POPC   C4B 4510  40.253  16.715   7.609
   16POPC   NC3 4511  18.853   6.476   9.414
   16POPC   PO4 4512  19.094   7.109   9.527
   16POPC   GL1 4513  19.248   6.811   9.211
   16POPC   GL2 4514  18.938   6.754   9.002
   16POPC   C1A 4515  19.421   6.675   8.793
   16POPC   D2A 4516  19.137   6.711   8.443
   16POPC   C3A 4517  19.239   6.720   8.020
   16POPC   C4A 4518  19.115   6.961   7.697
   16POPC   C1B 4519  18.696   6.578   8.665
   16POPC   C2B 4520  18.627   6.709   8.220
   16POPC   C3B 4521  18.724   6.657   7.768
   16POPC   C4B 4522  18.684   6.422   7.340
   17POPC   NC3 4523  15.240   9.994   9.418
   17POPC   PO4 4524  15.015   9.434   9.648
   17POPC   GL1 4525  15.104   9.473   9.105
   17POPC   GL2 4526  15.148   9.820   8.949
   17POPC   C1A 4527  15.392   9.473   8.693
   17POPC   D2A 4528  15.327   9.743   8.323
   17POPC   C3A 4529  15.064   9.664   7.972
   17POPC   C4A 4530  14.848   9.611   7.540
   17POPC   C1B 4531  15.515  10.015   8.723
   17POPC   C2B 4532  15.591  10.182   8.297
   17POPC   C3B 4533  15.567   9.981   7.886
   17POPC   C4B 4534  15.245   9.918   7.587
   18POPC   NC3 4535  35.857  35.937   9.668
   18POPC   PO4 4536  36.378  36.372   9.634
   18POPC   GL1 4537  36.242  36.227   9.192
   18POPC   GL2 4538  35.876  36.105   9.177
   18POPC   C1A 4539  36.322  36.325   8.744
   18POPC   D2A 4540  36.202  36.513   8.348
   18POPC   C3A 4541  36.203  36.177   8.043
   18POPC   C4A 4542  36.354  36.081   7.635
   18POPC   C1B 4543  35.979  35.933   8.780
   18POPC   C2B 4544  35.872  35.892   8.356
   18POPC   C3B 4545  35.814  35.546   8.062
   18POPC   C4B 4546  35.944  35.784   7.728
   19POPC   NC3 4547  35.481  39.576   9.599
   19POPC   PO4 4548  35.131  40.213   9.632
   19POPC   GL1 4549  35.374  39.938   9.280
   19POPC   GL2 4550  35.309  40.032   8.996
   19POPC   C1A 4551  35.464  39.593   8.893
   19POPC   D2A 4552  35.308  39.790   8.492
   19POPC   C3A 4553  35.295  39.669   8.077
   19POPC   C4A 4554  35.549  39.703   7.734
   19POPC   C1B 4555  35.030  40.147   8.709
   19POPC   C2B 4556  34.894  40.262   8.358
   19POPC   C3B 4557  35.116  40.355   7.989
   19POPC   C4B 4558  35.143  40.011   7.718
   20POPC   NC3 4559   8.477  30.010   9.419
   20POPC   PO4 4560   7.797  29.905   9.403
   20POPC   GL1 4561   8.093  29.824   9.084
   20POPC   GL2 4562   7.903  29.511   9.016
   20POPC   C1A 4563   8.372  29.992   8.732
   20POPC   D2A 4564   8.483  30.248   8.375
   20POPC   C3A 4565   8.533  30.077   7.956
   20POPC   C4A 4566   8.423  29.920   7.529
   20POPC   C1B 4567   7.944  29.704   8.610
   20POPC   C2B 4568   8.007  30.081   8.330
   20POPC   C3B 4569   8.037  29.993   7.908
   20POPC   C4B 4570   7.874  29.593   7.777
   21POPC   NC3 4571  34.851  28.465   9.807
   21POPC   PO4 4572  34.361  28.082   9.522
   21POPC   GL1 4573  34.725  28.275   9.326
   21POPC   GL2 4574  34.487  28.528   9.263
   21POPC   C1A 4575  34.750  28.390   8.863
   21POPC   D2A 4576  34.579  28.225   8.501
   21POPC   C3A 4577  34.699  28.410   8.118
   21POPC   C4A 4578  34.660  28.273   7.731
   21POPC   C1B 4579  34.254  28.494   8.890
   21POPC   C2B 4580  34.133  28.783   8.583
   21POPC   C3B 4581  34.251  28.695   8.180
   21POPC   C4B 4582  34.367  28.694   7.768
   22POPC   NC3 4583  23.545  42.246   9.502
   22POPC   PO4 4584  24.066  41.864   9.747
   22POPC   GL1 4585  23.884  41.927   9.278
   22POPC   GL2 4586  23.876  42.309   9.136
   22POPC   C1A 4587  23.749  41.946   8.811
   22POPC   D2A 4588  23.783  42.248   8.455
   22POPC   C3A 4589  23.784  42.071   8.063
   22POPC   C4A 4590  23.610  42.149   7.663
   22POPC   C1B 4591  23.529  42.502   8.841
   22POPC   C2B 4592  23.392  42.587   8.417
   22POPC   C3B 4593  23.488  42.543   7.987
   22POPC   C4B 4594  23.402  42.777   7.605
   23POPC   NC3 4595   4.342   0.797   9.563
   23POPC   PO4 4596   4.524   1.539   9.539
   23POPC   GL1 4597   4.310   1.365   9.211
   23POPC   GL2 4598   4.509   1.070   9.161
   23POPC   C1A 4599   4.188   1.236   8.809
   23POPC   D2A 4600   4.403   1.230   8.412
   23POPC   C3A 4601   4.259   1.061   8.065
   23POPC   C4A 4602   4.333   1.257   7.668
   23POPC   C1B 4603   4.614   0.899   8.755
   23POPC   C2B 4604   4.729   0.822   8.324
   23POPC   C3B 4605   4.726   1.013   7.921
   23POPC   C4B 4606   4.656   0.887   7.491
   24POPC   NC3 4607   7.911  39.935   9.547
   24POPC   PO4 4608   8.656  40.110   9.615
   24POPC   GL1 4609   8.438  39.933   9.197
   24POPC   GL2 4610   8.126  39.749   9.113
   24POPC   C1A 4611   8.496  39.864   8.720
   24POPC   D2A 4612   8.330  39.842   8.273
   24POPC   C3A 4613   8.236  40.226   8.056
   24POPC   C4A 4614   8.240  40.239   7.616
   24POPC   C1B 4615   7.997  39.892   8.683
   24POPC   C2B 4616   7.822  39.956   8.257
   24POPC   C3B 4617   7.909  39.895   7.843
   24POPC   C4B 4618   7.856  39.970   7.391
   25POPC   NC3 4619   1.234  43.390   9.769
   25POPC   PO4 4620   0.891  43.259   9.224
   25POPC   GL1 4621   1.174  43.178   8.979
   25POPC   GL2 4622   1.501  43.272   9.094
   25POPC   C1A 4623   1.090  43.029   8.584
   25POPC   D2A 4624   0.912  43.154   8.224
   25POPC   C3A 4625   1.037  42.897   7.896
   25POPC   C4A 4626   1.305  43.104   7.609
   25POPC   C1B 4627   1.481  43.366   8.634
   25POPC   C2B 4628   1.431  43.215   8.210
   25POPC   C3B 4629   1.464  43.518   7.882
   25POPC   C4B 4630   1.607  43.493   7.455
   26POPC   NC3 4631  13.312  35.975   9.533
   26POPC   PO4 4632  13.654  36.622   9.557
   26POPC   GL1 4633  13.489  36.362   9.186
   26POPC   GL2 4634  13.452  35.989   9.053
   26POPC   C1A 4635  13.620  36.363   8.750
   26POPC   D2A 4636  13.505  36.194   8.343
   26POPC   C3A 4637  13.781  36.304   7.996
   26POPC   C4A 4638  13.477  36.327   7.668
   26POPC   C1B 4639  13.655  35.818   8.679
   26POPC   C2B 4640  13.836  35.815   8.255
   26POPC   C3B 4641  13.527  35.867   7.913
   26POPC   C4B 4642  13.391  35.834   7.500
   27POPC   NC3 4643  44.768  34.098   9.571
   27POPC   PO4 4644  44.149  34.239   9.404
   27POPC   GL1 4645  44.423  34.518   9.177
   27POPC   GL2 4646  44.729  34.363   9.112
   27POPC   C1A 4647  44.557  34.874   8.865
   27POPC   D2A 4648  44.449  35.173   8.490
   27POPC   C3A 4649  44.619  35.026   8.057
   27POPC   C4A 4650  44.748  34.687   7.735
   27POPC   C1B 4651  44.747  34.441   8.654
   27POPC   C2B 4652  44.797  34.466   8.220
   27POPC   C3B 4653  44.656  34.209   7.919
   27POPC   C4B 4654  44.633  34.190   7.481
   28POPC   NC3 4655  19.888  12.273   9.550
   28POPC   PO4 4656  19.718  12.873   9.588
   28POPC   GL1 4657  19.936  12.915   9.214
   28POPC   GL2 4658  19.877  12.575   9.155
   28POPC   C1A 4659  19.828  12.894   8.777
   28POPC   D2A 4660  20.011  12.837   8.396
   28POPC   C3A 4661  19.821  12.975   8.025
   28POPC   C4A 4662  19.532  12.821   7.724
   28POPC   C1B 4663  20.072  12.432   8.809
   28POPC   C2B 4664  20.052  12.328   8.409
   28POPC   C3B 4665  19.910  12.469   8.029
   28POPC   C4B 4666  20.059  12.646   7.666
   29POPC   NC3 4667   3.286  25.038   9.297
   29POPC   PO4 4668   3.472  25.562   9.679
   29POPC   GL1 4669   3.649  25.388   9.220
   29POPC   GL2 4670   3.841  25.099   9.229
   29POPC   C1A 4671   3.468  25.322   8.743
   29POPC   D2A 4672   3.329  25.496   8.334
   29POPC   C3A 4673   3.435  25.330   7.938
   29POPC   C4A 4674   3.223  25.108   7.591
   29POPC   C1B 4675   3.967  25.298   8.817
   29POPC   C2B 4676   3.815  25.212   8.376
   29POPC   C3B 4677   3.946  25.225   7.941
   29POPC   C4B 4678   3.810  25.232   7.478
   30POPC   NC3 4679  13.063  36.735   9.510
   30POPC   PO4 4680  12.596  37.196   9.572
   30POPC   GL1 4681  12.695  36.991   9.203
   30POPC   GL2 4682  12.940  37.162   9.006
   30POPC   C1A 4683  12.572  36.887   8.783
   30POPC   D2A 4684  12.841  36.936   8.436
   30POPC   C3A 4685  12.678  36.856   8.062
   30POPC   C4A 4686  12.712  37.042   7.689
   30POPC   C1B 4687  13.084  36.728   8.855
   30POPC   C2B 4688  13.252  36.615   8.459
   30POPC   C3B 4689  13.099  36.551   8.077
   30POPC   C4B 4690  13.035  36.632   7.689
   31POPC   NC3 4691  17.213  10.112   9.479
   31POPC   PO4 4692  16.642   9.725   9.593
   31POPC   GL1 4693  16.639   9.615   9.181
   31POPC   GL2 4694  16.943   9.798   9.138
   31POPC   C1A 4695  16.562   9.763   8.760
   31POPC   D2A 4696  16.409   9.845   8.339
   31POPC   C3A 4697  16.499   9.590   7.986
   31POPC   C4A 4698  16.647   9.716   7.574
   31POPC   C1B 4699  17.090   9.751   8.738
   31POPC   C2B 4700  17.001   9.961   8.339
   31POPC   C3B 4701  16.984   9.760   7.975
   31POPC   C4B 4702  17.166   9.549   7.640
   32POPC   NC3 4703  19.929  21.865   9.643
   32POPC   PO4 4704  19.627  22.463   9.774
   32POPC   GL1 4705  19.709  22.257   9.314
   32POPC   GL2 4706  19.967  22.019   9.176
   32POPC   C1A 4707  19.789  22.301   8.820
   32POPC   D2A 4708  19.684  22.108   8.406
   32POPC   C3A 4709  19.879  22.138   8.000
   32POPC   C4A 4710  19.707  22.238   7.581
   32POPC   C1B 4711  20.027  21.731   8.864
   32POPC   C2B 4712  20.033  21.756   8.455
   32POPC   C3B 4713  19.965  21.631   8.060
   32POPC   C4B 4714  19.935  21.772   7.654
   33POPC   NC3 4715   8.607  21.738   9.331
   33POPC   PO4 4716   8.287  22.283   9.503
   33POPC   GL1 4717   8.242  22.248   9.117
   33POPC   GL2 4718   8.409  22.571   9.076
   33POPC   C1A 4719   8.032  22.040   8.778
   33POPC   D2A 4720   7.798  22.292   8.471
   33POPC   C3A 4721   7.829  22.149   8.049
   33POPC   C4A 4722   7.992  21.956   7.706
   33POPC   C1B 4723   8.292  22.445   8.645
   33POPC   C2B 4724   8.287  22.186   8.294
   33POPC   C3B 4725   8.312  22.389   7.896
   33POPC   C4B 4726   8.241  22.381   7.425
   34POPC   NC3 4727  24.738   1.688   9.808
   34POPC   PO4 4728  24.148   1.912   9.483
   34POPC   GL1 4729  24.451   2.069   9.277
   34POPC   GL2 4730  24.655   1.754   9.307
   34POPC   C1A 4731  24.342   2.167   8.849
   34POPC   D2A 4732  24.347   1.887   8.498
   34POPC   C3A 4733  24.284   2.081   8.124
   34POPC   C4A 4734  24.407   1.986   7.725
   34POPC   C1B 4735  24.726   1.831   8.879
   34POPC   C2B 4736  24.821   2.121   8.533
   34POPC   C3B 4737  24.963   2.095   8.109
   34POPC   C4B 4738  24.891   1.769   7.800
   35POPC   NC3 4739  21.317  17.241   9.551
   35POPC   PO4 4740  21.447  17.914   9.598
   35POPC   GL1 4741  21.507  17.633   9.211
   35POPC   GL2 4742  21.336  17.335   9.069
   35POPC   C1A 4743  21.718  17.544   8.803
   35POPC   D2A 4744  21.616  17.268   8.456
   35POPC   C3A 4745  21.516  17.377   8.028
   35POPC   C4A 4746  21.755  17.469   7.673
   35POPC   C1B 4747  21.144  17.198   8.699
   35POPC   C2B 4748  21.153  17.081   8.281
   35POPC   C3B 4749  21.115  16.995   7.862
   35POPC   C4B 4750  20.923  17.242   7.548
   36POPC   NC3 4751  42.110  19.561   9.943
   36POPC   PO4 4752  42.016  19.716   9.287
   36POPC   GL1 4753  42.285  19.891   8.957
   36POPC   GL2 4754  42.656  19.856   8.985
   36POPC   C1A 4755  42.132  19.902   8.555
   36POPC   D2A 4756  42.028  19.484   8.381
   36POPC   C3A 4757  42.051  19.594   7.994
   36POPC   C4A 4758  42.007  20.046   7.950
   36POPC   C1B 4759  42.626  20.255   8.780
   36POPC   C2B 4760  42.478  20.276   8.354
   36POPC   C3B 4761  42.456  19.882   8.136
   36POPC   C4B 4762  42.459  19.703   7.724
   37POPC   NC3 4763   9.181   0.655   9.320
   37POPC   PO4 4764   9.151   1.293   9.526
   37POPC   GL1 4765   8.882   1.291   9.166
   37POPC   GL2 4766   8.916   0.982   9.048
   37POPC   C1A 4767   8.922   1.387   8.712
   37POPC   D2A 4768   8.879   1.440   8.259
   37POPC   C3A 4769   9.165   1.294   7.933
   37POPC   C4A 4770   8.886   1.211   7.600
   37POPC   C1B 4771   8.910   0.774   8.679
   37POPC   C2B 4772   9.045   0.950   8.291
   37POPC   C3B 4773   9.001   0.801   7.853
   37POPC   C4B 4774   8.911   0.738   7.378
   38POPC   NC3 4775  29.486  34.320   9.535
   38POPC   PO4 4776  29.760  34.998   9.450
   38POPC   GL1 4777  30.038  34.823   9.167
   38POPC   GL2 4778  29.865  34.515   9.168
   38POPC   C1A 4779  30.135  34.788   8.733
   38POPC   D2A 4780  30.230  34.501   8.402
   38POPC   C3A 4781  30.214  34.703   8.003
   38POPC   C4A 4782  30.119  34.612   7.577
   38POPC   C1B 4783  29.864  34.307   8.775
   38POPC   C2B 4784  29.855  34.174   8.344
   38POPC   C3B 4785  29.810  34.401   7.958
   38POPC   C4B 4786  29.680  34.348   7.528
   39POPC   NC3 4787   0.157  28.523   9.470
   39POPC   PO4 4788   0.845  28.816   9.488
   39POPC   GL1 4789   0.560  28.665   9.171
   39POPC   GL2 4790   0.498  28.300   9.175
   39POPC   C1A 4791   0.544  28.590   8.719
   39POPC   D2A 4792   0.277  28.642   8.352
   39POPC   C3A 4793   0.203  28.489   7.968
   39POPC   C4A 4794   0.478  28.468   7.654
   39POPC   C1B 4795   0.357  28.148   8.743
   39POPC   C2B 4796   0.541  28.199   8.352
   39POPC   C3B 4797   0.419  28.042   7.964
   39POPC   C4B 4798   0.283  28.017   7.576
   40POPC   NC3 4799  37.100  39.038   9.536
   40POPC   PO4 4800  36.425  38.871   9.400
   40POPC   GL1 4801  36.725  39.048   9.069
   40POPC   GL2 4802  37.133  39.079   9.030
   40POPC   C1A 4803  36.790  39.038   8.614
   40POPC   D2A 4804  36.650  39.244   8.226
   40POPC   C3A 4805  36.752  38.968   7.903
   40POPC   C4A 4806  37.126  38.960   7.664
   40POPC   C1B 4807  37.429  39.417   8.806
   40POPC   C2B 4808  37.400  39.602   8.364
   40POPC   C3B 4809  37.098  39.476   8.019
   40POPC   C4B 4810  36.681  39.658   7.881
   41POPC   NC3 4811  14.533  33.805   9.313
   41POPC   PO4 4812  15.224  33.735   9.414
   41POPC   GL1 4813  15.219  33.668   8.992
   41POPC   GL2 4814  14.895  33.525   9.071
   41POPC   C1A 4815  15.303  33.922   8.584
   41POPC   D2A 4816  15.128  34.159   8.208
   41POPC   C3A 4817  15.109  33.899   7.847
   41POPC   C4A 4818  15.350  33.519   7.660
   41POPC   C1B 4819  14.823  33.842   8.731
   41POPC   C2B 4820  14.908  33.692   8.321
   41POPC   C3B 4821  14.950  33.412   7.994
   41POPC   C4B 4822  14.837  33.546   7.588
   42POPC   NC3 4823  30.081  27.117   9.376
   42POPC   PO4 4824  29.683  26.497   9.370
   42POPC   GL1 4825  29.850  26.793   9.061
   42POPC   GL2 4826  30.032  26.533   8.927
   42POPC   C1A 4827  30.074  26.933   8.654
   42POPC   D2A 4828  30.135  26.567   8.377
   42POPC   C3A 4829  29.966  26.674   8.014
   42POPC   C4A 4830  30.023  26.971   7.635
   42POPC   C1B 4831  29.654  26.622   8.607
   42POPC   C2B 4832  29.465  26.490   8.184
   42POPC   C3B 4833  29.618  26.390   7.758
   42POPC   C4B 4834  30.050  26.441   7.572
   43POPC   NC3 4835   4.604   2.661   9.471
   43POPC   PO4 4836   3.906   2.887   9.624
   43POPC   GL1 4837   4.101   2.798   9.270
   43POPC   GL2 4838   4.198   3.111   9.156
   43POPC   C1A 4839   4.102   2.681   8.846
   43POPC   D2A 4840   4.348   2.698   8.480
   43POPC   C3A 4841   4.188   2.555   8.095
   43POPC   C4A 4842   4.427   2.602   7.724
   43POPC   C1B 4843   4.475   3.123   8.823
   43POPC   C2B 4844   4.370   3.269   8.451
   43POPC   C3B 4845   4.342   3.046   8.064
   43POPC   C4B 4846   4.138   3.058   7.680
   44POPC   NC3 4847   5.707  21.126   9.411
   44POPC   PO4 4848   6.197  21.637   9.418
   44POPC   GL1 4849   5.929  21.486   9.094
   44POPC   GL2 4850   5.952  21.142   8.939
   44POPC   C1A 4851   5.953  21.680   8.700
   44POPC   D2A 4852   6.153  21.779   8.316
   44POPC   C3A 4853   5.971  21.480   8.058
   44POPC   C4A 4854   6.004  21.182   7.734
   44POPC   C1B 4855   5.578  21.311   8.751
   44POPC   C2B 4856   5.495  21.433   8.352
   44POPC   C3B 4857   5.534  21.233   7.969
   44POPC   C4B 4858   5.537  20.973   7.644
   45POPC   NC3 4859  36.333  17.217   9.579
   45POPC   PO4 4860  36.555  17.826   9.566
   45POPC   GL1 4861  36.523  17.536   9.182
   45POPC   GL2 4862  36.298  17.283   9.080
   45POPC   C1A 4863  36.403  17.676   8.750
   45POPC   D2A 4864  36.389  17.880   8.323
   45POPC   C3A 4865  36.311  17.643   7.941
   45POPC   C4A 4866  35.958  17.664   7.708
   45POPC   C1B 4867  36.180  17.230   8.648
   45POPC   C2B 4868  36.082  17.236   8.201
   45POPC   C3B 4869  35.897  17.156   7.795
   45POPC   C4B 4870  35.931  17.280   7.361
   46POPC   NC3 4871   7.241  36.051   9.270
   46POPC   PO4 4872   7.278  36.737   9.408
   46POPC   GL1 4873   7.322  36.576   9.017
   46POPC   GL2 4874   7.006  36.467   8.965
   46POPC   C1A 4875   7.631  36.496   8.694
   46POPC   D2A 4876   7.685  36.094   8.487
   46POPC   C3A 4877   7.514  36.034   8.079
   46POPC   C4A 4878   7.670  35.883   7.703
   46POPC   C1B 4879   7.190  36.255   8.576
   46POPC   C2B 4880   7.396  36.521   8.232
   46POPC   C3B 4881   7.470  36.463   7.805
   46POPC   C4B 4882   7.295  36.201   7.562
   47POPC   NC3 4883  12.633   7.462   9.587
   47POPC   PO4 4884  13.089   6.995   9.615
   47POPC   GL1 4885  12.895   7.267   9.226
   47POPC   GL2 4886  12.970   7.640   9.251
   47POPC   C1A 4887  12.702   7.371   8.822
   47POPC   D2A 4888  12.574   7.226   8.399
   47POPC   C3A 4889  12.890   7.116   8.100
   47POPC   C4A 4890  12.904   7.226   7.677
   47POPC   C1B 4891  13.143   7.674   8.839
   47POPC   C2B 4892  13.094   7.505   8.424
   47POPC   C3B 4893  12.793   7.607   8.113
   47POPC   C4B 4894  12.724   7.789   7.743
   48POPC   NC3 4895  44.060  12.025   9.458
   48POPC   PO4 4896  43.496  12.312   9.601
   48POPC   GL1 4897  43.650  12.161   9.187
   48POPC   GL2 4898  43.745  11.770   9.157
   48POPC   C1A 4899  43.798  12.068   8.778
   48POPC   D2A 4900  43.922  11.919   8.405
   48POPC   C3A 4901  43.933  12.224   8.151
   48POPC   C4A 4902  43.751  12.332   7.782
   48POPC   C1B 4903  44.113  11.667   8.799
   48POPC   C2B 4904  44.339  11.584   8.400
   48POPC   C3B 4905  44.299  11.865   8.035
   48POPC   C4B 4906  43.933  11.794   7.774
   49POPC   NC3 4907   7.804  34.436   9.493
   49POPC   PO4 4908   8.486  34.503   9.506
   49POPC   GL1 4909   8.226  34.647   9.157
   49POPC   GL2 4910   8.017  34.942   9.257
   49POPC   C1A 4911   8.101  34.391   8.782
   49POPC   D2A 4912   8.229  34.185   8.387
   49POPC   C3A 4913   8.161  34.365   7.996
   49POPC   C4A 4914   7.975  34.454   7.624
   49POPC   C1B 4915   7.834  34.834   8.848
   49POPC   C2B 4916   8.012  34.757   8.421
   49POPC   C3B 4917   8.256  34.876   8.045
   49POPC   C4B 4918   8.144  34.925   7.609
   50POPC   NC3 4919  11.792  29.819   9.482
   50POPC   PO4 4920  12.305  30.248   9.597
   50POPC   GL1 4921  12.208  30.146   9.139
   50POPC   GL2 4922  12.078  29.786   9.069
   50POPC   C1A 4923  12.128  30.089   8.668
   50POPC   D2A 4924  12.014  29.745   8.355
   50POPC   C3A 4925  12.010  29.874   7.941
   50POPC   C4A 4926  12.186  29.742   7.577
   50POPC   C1B 4927  11.726  29.777   8.782
   50POPC   C2B 4928  11.523  29.516   8.496
   50POPC   C3B 4929  11.538  29.482   8.063
   50POPC   C4B 4930  11.546  29.792   7.752
   51POPC   NC3 4931   4.030  21.967   9.266
   51POPC   PO4 4932   4.004  22.616   9.573
   51POPC   GL1 4933   4.378  22.522   9.215
   51POPC   GL2 4934   4.532  22.160   9.108
   51POPC   C1A 4935   4.525  22.591   8.794
   51POPC   D2A 4936   4.303  22.291   8.551
   51POPC   C3A 4937   4.212  22.307   8.123
   51POPC   C4A 4938   4.426  22.367   7.744
   51POPC   C1B 4939   4.443  21.825   8.741
   51POPC   C2B 4940   4.215  21.801   8.322
   51POPC   C3B 4941   4.356  21.877   7.887
   51POPC   C4B 4942   4.552  21.826   7.473
   52POPC   NC3 4943  22.221  38.074   9.446
   52POPC   PO4 4944  22.061  38.788   9.440
   52POPC   GL1 4945  21.991  38.429   9.145
   52POPC   GL2 4946  22.271  38.233   8.957
   52POPC   C1A 4947  21.828  38.311   8.743
   52POPC   D2A 4948  22.043  38.342   8.369
   52POPC   C3A 4949  21.821  38.325   7.992
   52POPC   C4A 4950  21.619  38.319   7.583
   52POPC   C1B 4951  22.236  38.665   8.746
   52POPC   C2B 4952  22.236  38.886   8.339
   52POPC   C3B 4953  22.233  38.607   7.962
   52POPC   C4B 4954  22.327  38.127   7.959
   53POPC   NC3 4955  41.991  32.680   9.693
   53POPC   PO4 4956  42.532  32.229   9.563
   53POPC   GL1 4957  42.343  32.192   9.151
   53POPC   GL2 4958  42.027  32.315   9.288
   53POPC   C1A 4959  42.282  32.243   8.672
   53POPC   D2A 4960  42.355  32.345   8.204
   53POPC   C3A 4961  42.270  32.032   7.830
   53POPC   C4A 4962  42.451  31.858   7.417
   53POPC   C1B 4963  41.989  32.596   8.941
   53POPC   C2B 4964  42.090  32.823   8.576
   53POPC   C3B 4965  42.176  32.828   8.155
   53POPC   C4B 4966  42.083  32.641   7.743
   54POPC   NC3 4967  28.784   1.072   9.469
   54POPC   PO4 4968  28.245   1.528   9.506
   54POPC   GL1 4969  28.290   1.346   9.106
   54POPC   GL2 4970  28.618   1.379   9.115
   54POPC   C1A 4971  28.309   1.133   8.698
   54POPC   D2A 4972  28.186   1.356   8.341
   54POPC   C3A 4973  28.356   1.272   7.978
   54POPC   C4A 4974  28.226   0.991   7.717
   54POPC   C1B 4975  28.671   1.599   8.758
   54POPC   C2B 4976  28.792   1.708   8.347
   54POPC   C3B 4977  28.639   1.695   7.932
   54POPC   C4B 4978  28.706   1.433   7.571
   55POPC   NC3 4979  34.845  27.067   9.595
   55POPC   PO4 4980  35.450  27.186   9.354
   55POPC   GL1 4981  35.166  27.031   9.112
   55POPC   GL2 4982  35.141  26.702   9.247
   55POPC   C1A 4983  35.321  26.981   8.682
   55POPC   D2A 4984  35.279  26.806   8.276
   55POPC   C3A 4985  35.232  27.066   7.930
   55POPC   C4A 4986  35.498  27.137   7.589
   55POPC   C1B 4987  35.219  26.514   8.836
   55POPC   C2B 4988  34.983  26.428   8.469
   55POPC   C3B 4989  35.080  26.370   8.065
   55POPC   C4B 4990  35.402  26.556   7.782
   56POPC   NC3 4991  35.321  14.647   9.493
   56POPC   PO4 4992  35.570  14.067   9.412
   56POPC   GL1 4993  35.465  14.307   9.064
   56POPC   GL2 4994  35.680  14.562   9.146
   56POPC   C1A 4995  35.175  14.338   8.694
   56POPC   D2A 4996  35.205  14.590   8.309
   56POPC   C3A 4997  35.085  14.394   7.958
   56POPC   C4A 4998  35.359  14.235   7.707
   56POPC   C1B 4999  35.528  14.713   8.732
   56POPC   C2B 5000  35.675  14.458   8.458
   56POPC   C3B 5001  35.703  14.390   8.064
   56POPC   C4B 5002  35.680  14.631   7.703
   57POPC   NC3 5003  19.938   2.519   9.495
   57POPC   PO4 5004  19.359   2.742   9.359
   57POPC   GL1 5005  19.644   3.036   9.146
   57POPC   GL2 5006  20.019   2.997   9.225
   57POPC   C1A 5007  19.613   3.034   8.707
   57POPC   D2A 5008  19.459   2.841   8.315
   57POPC   C3A 5009  19.642   2.815   7.885
   57POPC   C4A 5010  19.540   3.065   7.500
   57POPC   C1B 5011  20.150   2.659   8.895
   57POPC   C2B 5012  19.986   2.670   8.477
   57POPC   C3B 5013  20.153   2.770   8.068
   57POPC   C4B 5014  20.082   2.508   7.716
   58POPC   NC3 5015  22.362  25.940   9.581
   58POPC   PO4 5016  21.732  25.721   9.514
   58POPC   GL1 5017  21.916  26.098   9.274
   58POPC   GL2 5018  22.212  26.018   9.112
   58POPC   C1A 5019  21.886  26.232   8.795
   58POPC   D2A 5020  21.931  26.028   8.408
   58POPC   C3A 5021  21.919  26.233   8.032
   58POPC   C4A 5022  22.053  26.029   7.707
   58POPC   C1B 5023  22.359  26.065   8.729
   58POPC   C2B 5024  22.582  25.989   8.403
   58POPC   C3B 5025  22.479  25.813   8.049
   58POPC   C4B 5026  22.538  25.942   7.654
   59POPC   NC3 5027  41.020  42.348   9.467
   59POPC   PO4 5028  40.382  42.462   9.569
   59POPC   GL1 5029  40.604  42.418   9.177
   59POPC   GL2 5030  40.671  42.069   9.081
   59POPC   C1A 5031  40.833  42.485   8.811
   59POPC   D2A 5032  40.741  42.643   8.414
   59POPC   C3A 5033  40.956  42.611   8.032
   59POPC   C4A 5034  40.641  42.478   7.716
   59POPC   C1B 5035  41.057  42.022   8.817
   59POPC   C2B 5036  41.037  42.188   8.403
   59POPC   C3B 5037  40.787  42.137   8.057
   59POPC   C4B 5038  41.077  42.169   7.743
   60POPC   NC3 5039  37.633  18.221   9.513
   60POPC   PO4 5040  37.579  18.887   9.610
   60POPC   GL1 5041  37.582  18.632   9.182
   60POPC   GL2 5042  37.734  18.267   9.043
   60POPC   C1A 5043  37.471  18.550   8.741
   60POPC   D2A 5044  37.550  18.147   8.551
   60POPC   C3A 5045  37.387  18.176   8.168
   60POPC   C4A 5046  37.511  18.227   7.761
   60POPC   C1B 5047  38.024  18.183   8.750
   60POPC   C2B 5048  38.191  18.203   8.386
   60POPC   C3B 5049  37.906  18.075   8.083
   60POPC   C4B 5050  37.990  18.117   7.663
   61POPC   NC3 5051  12.715  33.147   9.434
   61POPC   PO4 5052  13.032  32.596   9.282
   61POPC   GL1 5053  12.978  32.947   9.038
   61POPC   GL2 5054  13.018  33.321   9.083
   61POPC   C1A 5055  12.738  33.018   8.695
   61POPC   D2A 5056  12.666  32.816   8.288
   61POPC   C3A 5057  12.754  33.068   7.941
   61POPC   C4A 5058  12.576  33.043   7.547
   61POPC   C1B 5059  13.265  33.249   8.763
   61POPC   C2B 5060  13.100  33.166   8.376
   61POPC   C3B 5061  13.228  33.299   8.011
   61POPC   C4B 5062  13.166  33.175   7.594
   62POPC   NC3 5063   0.407   2.614   9.494
   62POPC   PO4 5064   0.043   3.180   9.422
   62POPC   GL1 5065   0.192   2.905   9.145
   62POPC   GL2 5066   0.577   2.928   9.141
   62POPC   C1A 5067   0.320   2.620   8.821
   62POPC   D2A 5068   0.546   2.754   8.483
   62POPC   C3A 5069   0.437   2.592   8.098
   62POPC   C4A 5070   0.137   2.695   7.789
   62POPC   C1B 5071   0.834   3.123   8.856
   62POPC   C2B 5072   0.989   2.985   8.482
   62POPC   C3B 5073   0.887   2.873   8.094
   62POPC   C4B 5074   0.554   3.008   7.848
   63POPC   NC3 5075   7.052  28.425   9.375
   63POPC   PO4 5076   7.646  28.177   9.509
   63POPC   GL1 5077   7.611  28.324   9.124
   63POPC   GL2 5078   7.462  28.605   9.100
   63POPC   C1A 5079   7.506  28.182   8.735
   63POPC   D2A 5080   7.371  28.002   8.358
   63POPC   C3A 5081   7.496  28.219   8.033
   63POPC   C4A 5082   7.317  28.213   7.648
   63POPC   C1B 5083   7.448  28.731   8.676
   63POPC   C2B 5084   7.305  28.634   8.261
   63POPC   C3B 5085   7.388  28.678   7.825
   63POPC   C4B 5086   7.136  28.610   7.420
   64POPC   NC3 5087  28.686  12.917   9.648
   64POPC   PO4 5088  29.411  12.670   9.584
   64POPC   GL1 5089  29.293  12.843   9.171
   64POPC   GL2 5090  28.970  12.995   9.211
   64POPC   C1A 5091  29.164  12.768   8.760
   64POPC   D2A 5092  29.046  12.608   8.357
   64POPC   C3A 5093  29.190  12.868   8.041
   64POPC   C4A 5094  29.226  12.791   7.638
   64POPC   C1B 5095  28.694  12.974   8.826
   64POPC   C2B 5096  28.577  12.860   8.377
   64POPC   C3B 5097  28.680  12.834   7.948
   64POPC   C4B 5098  28.796  13.006   7.558
   65POPC   NC3 5099  38.770  20.056   9.449
   65POPC   PO4 5100  38.179  19.668   9.437
   65POPC   GL1 5101  38.423  19.817   9.093
   65POPC   GL2 5102  38.738  19.650   9.108
   65POPC   C1A 5103  38.319  19.960   8.678
   65POPC   D2A 5104  37.993  20.177   8.427
   65POPC   C3A 5105  38.149  20.026   8.044
   65POPC   C4A 5106  38.523  19.963   7.861
   65POPC   C1B 5107  38.868  19.877   8.721
   65POPC   C2B 5108  38.812  20.080   8.294
   65POPC   C3B 5109  39.021  19.959   7.866
   65POPC   C4B 5110  38.792  19.716   7.504
   66POPC   NC3 5111  11.727   7.864   9.722
   66POPC   PO4 5112  12.167   7.367   9.508
   66POPC   GL1 5113  12.241   7.270   9.104
   66POPC   GL2 5114  12.038   6.973   9.060
   66POPC   C1A 5115  12.182   7.485   8.711
   66POPC   D2A 5116  11.977   7.713   8.358
   66POPC   C3A 5117  12.259   7.686   8.019
   66POPC   C4A 5118  12.434   7.297   7.868
   66POPC   C1B 5119  11.911   7.045   8.648
   66POPC   C2B 5120  12.092   7.207   8.282
   66POPC   C3B 5121  11.922   7.322   7.953
   66POPC   C4B 5122  11.584   7.177   7.768
   67POPC   NC3 5123  42.645  16.103   9.607
   67POPC   PO4 5124  43.322  15.883   9.478
   67POPC   GL1 5125  43.279  16.082   9.110
   67POPC   GL2 5126  43.067  16.378   9.265
   67POPC   C1A 5127  43.185  15.910   8.695
   67POPC   D2A 5128  42.978  15.596   8.442
   67POPC   C3A 5129  42.928  15.742   8.027
   67POPC   C4A 5130  43.232  15.985   7.808
   67POPC   C1B 5131  42.865  16.237   8.888
   67POPC   C2B 5132  42.968  16.290   8.444
   67POPC   C3B 5133  42.858  16.243   8.034
   67POPC   C4B 5134  42.905  16.445   7.637
   68POPC   NC3 5135  10.039  27.186   9.368
   68POPC   PO4 5136  10.511  27.609   9.700
   68POPC   GL1 5137  10.575  27.551   9.251
   68POPC   GL2 5138  10.711  27.893   9.265
   68POPC   C1A 5139  10.610  27.493   8.765
   68POPC   D2A 5140  10.840  27.441   8.332
   68POPC   C3A 5141  10.763  27.508   7.881
   68POPC   C4A 5142  10.568  27.414   7.463
   68POPC   C1B 5143  10.397  27.945   8.933
   68POPC   C2B 5144  10.221  27.910   8.500
   68POPC   C3B 5145  10.342  27.779   8.070
   68POPC   C4B 5146  10.534  27.909   7.653
   69POPC   NC3 5147  10.091   0.289   9.229
   69POPC   PO4 5148   9.596   0.780   9.554
   69POPC   GL1 5149   9.608   0.430   9.195
   69POPC   GL2 5150   9.731   0.571   8.945
   69POPC   C1A 5151   9.626   0.089   8.803
   69POPC   D2A 5152   9.557   0.069   8.345
   69POPC   C3A 5153   9.739   0.432   8.092
   69POPC   C4A 5154   9.733   0.643   7.654
   69POPC   C1B 5155   9.954   0.546   8.572
   69POPC   C2B 5156  10.241   0.306   8.360
   69POPC   C3B 5157  10.222   0.334   7.941
   69POPC   C4B 5158  10.004   0.255   7.582
   70POPC   NC3 5159  41.397  41.836   9.461
   70POPC   PO4 5160  41.766  41.329   9.545
   70POPC   GL1 5161  41.738  41.540   9.129
   70POPC   GL2 5162  41.357  41.569   9.018
   70POPC   C1A 5163  41.708  41.372   8.695
   70POPC   D2A 5164  41.447  41.449   8.326
   70POPC   C3A 5165  41.645  41.413   7.887
   70POPC   C4A 5166  41.421  41.415   7.483
   70POPC   C1B 5167  41.597  41.885   8.747
   70POPC   C2B 5168  41.768  41.857   8.317
   70POPC   C3B 5169  41.468  41.901   7.962
   70POPC   C4B 5170  41.446  41.925   7.494
   71POPC   NC3 5171   6.282  18.540   9.377
   71POPC   PO4 5172   6.677  17.973   9.468
   71POPC   GL1 5173   6.706  18.299   9.134
   71POPC   GL2 5174   6.938  18.603   9.239
   71POPC   C1A 5175   6.390  18.377   8.761
   71POPC   D2A 5176   6.175  18.330   8.348
   71POPC   C3A 5177   6.426  18.119   8.007
   71POPC   C4A 5178   6.823  17.888   7.873
   71POPC   C1B 5179   6.830  18.654   8.790
   71POPC   C2B 5180   6.790  18.374   8.448
   71POPC   C3B 5181   6.914  18.379   8.053
   71POPC   C4B 5182   6.740  18.348   7.682
   72POPC   NC3 5183  22.983  38.205   9.895
   72POPC   PO4 5184  23.058  38.779   9.512
   72POPC   GL1 5185  22.950  38.689   9.129
   72POPC   GL2 5186  22.596  38.575   9.169
   72POPC   C1A 5187  23.148  38.795   8.747
   72POPC   D2A 5188  23.243  38.731   8.298
   72POPC   C3A 5189  23.394  38.344   8.118
   72POPC   C4A 5190  23.231  38.229   7.721
   72POPC   C1B 5191  22.703  38.462   8.752
   72POPC   C2B 5192  22.541  38.473   8.353
   72POPC   C3B 5193  22.774  38.405   8.000
   72POPC   C4B 5194  23.043  38.681   7.819
   73POPC   NC3 5195   4.706  11.164   9.451
   73POPC   PO4 5196   5.301  11.529   9.484
   73POPC   GL1 5197   5.291  11.222   9.160
   73POPC   GL2 5198   4.964  11.038   9.037
   73POPC   C1A 5199   5.233  11.401   8.766
   73POPC   D2A 5200   4.891  11.247   8.553
   73POPC   C3A 5201   4.878  11.201   8.137
   73POPC   C4A 5202   4.694  11.403   7.804
   73POPC   C1B 5203   5.141  10.840   8.658
   73POPC   C2B 5204   5.373  11.094   8.387
   73POPC   C3B 5205   5.359  11.318   8.025
   73POPC   C4B 5206   5.134  11.081   7.727
   74POPC   NC3 5207  34.820  27.814   9.625
   74POPC   PO4 5208  34.418  27.354   9.504
   74POPC   GL1 5209  34.599  27.623   9.188
   74POPC   GL2 5210  34.470  27.933   9.050
   74POPC   C1A 5211  34.671  27.480   8.745
   74POPC   D2A 5212  34.867  27.195   8.423
   74POPC   C3A 5213  34.697  27.311   8.054
   74POPC   C4A 5214  34.289  27.544   8.034
   74POPC   C1B 5215  34.919  27.915   8.914
   74POPC   C2B 5216  34.987  27.837   8.473
   74POPC   C3B 5217  34.714  27.877   8.105
   74POPC   C4B 5218  34.720  27.679   7.714
   75POPC   NC3 5219   3.812   0.171   9.882
   75POPC   PO4 5220   3.607   0.344   9.287
   75POPC   GL1 5221   3.309   0.435   8.990
   75POPC   GL2 5222   3.245   0.081   8.938
   75POPC   C1A 5223   3.399   0.694   8.609
   75POPC   D2A 5224   3.749   0.585   8.315
   75POPC   C3A 5225   3.570   0.630   7.920
   75POPC   C4A 5226   3.127   0.678   7.843
   75POPC   C1B 5227   3.539   0.206   8.606
   75POPC   C2B 5228   3.300   0.317   8.218
   75POPC   C3B 5229   3.376   0.181   7.789
   75POPC   C4B 5230   3.795   0.072   7.842
   76POPC   NC3 5231  11.456  23.267   9.392
   76POPC   PO4 5232  11.011  22.736   9.560
   76POPC   GL1 5233  11.357  22.699   9.285
   76POPC   GL2 5234  11.201  22.955   9.079
   76POPC   C1A 5235  11.629  22.680   8.917
   76POPC   D2A 5236  11.515  22.977   8.578
   76POPC   C3A 5237  11.260  22.959   8.196
   76POPC   C4A 5238  11.436  22.916   7.756
   76POPC   C1B 5239  11.012  23.096   8.685
   76POPC   C2B 5240  10.897  23.334   8.366
   76POPC   C3B 5241  11.076  23.392   8.009
   76POPC   C4B 5242  10.996  23.212   7.631
   77POPC   NC3 5243  32.396  12.368   9.461
   77POPC   PO4 5244  32.806  11.776   9.469
   77POPC   GL1 5245  32.528  11.904   9.149
   77POPC   GL2 5246  32.178  11.924   9.198
   77POPC   C1A 5247  32.440  11.962   8.720
   77POPC   D2A 5248  32.556  11.819   8.325
   77POPC   C3A 5249  32.693  12.116   8.054
   77POPC   C4A 5250  32.620  12.540   7.945
   77POPC   C1B 5251  31.992  11.731   8.810
   77POPC   C2B 5252  32.016  11.783   8.372
   77POPC   C3B 5253  32.195  11.762   7.961
   77POPC   C4B 5254  32.263  12.108   7.718
   78POPC   NC3 5255  30.445   0.964   9.261
   78POPC   PO4 5256  30.725   1.536   9.399
   78POPC   GL1 5257  30.799   1.423   9.010
   78POPC   GL2 5258  30.495   1.345   8.948
   78POPC   C1A 5259  30.839   1.640   8.608
   78POPC   D2A 5260  31.054   1.605   8.197
   78POPC   C3A 5261  30.783   1.512   7.864
   78POPC   C4A 5262  30.675   1.087   7.684
   78POPC   C1B 5263  30.520   1.238   8.541
   78POPC   C2B 5264  30.439   1.238   8.107
   78POPC   C3B 5265  30.144   1.085   7.789
   78POPC   C4B 5266  30.304   1.121   7.327
   79POPC   NC3 5267  15.303  40.935   9.325
   79POPC   PO4 5268  15.120  41.516   9.667
   79POPC   GL1 5269  15.268  41.501   9.236
   79POPC   GL2 5270  15.489  41.758   9.187
   79POPC   C1A 5271  15.165  41.505   8.783
   79POPC   D2A 5272  14.901  41.536   8.419
   79POPC   C3A 5273  15.117  41.505   8.010
   79POPC   C4A 5274  15.333  41.427   7.596
   79POPC   C1B 5275  15.468  41.927   8.774
   79POPC   C2B 5276  15.356  41.777   8.371
   79POPC   C3B 5277  15.569  41.734   7.967
   79POPC   C4B 5278  15.741  41.876   7.573
   80POPC   NC3 5279  43.340   5.438   9.431
   80POPC   PO4 5280  43.099   6.026   9.455
   80POPC   GL1 5281  43.137   5.867   9.096
   80POPC   GL2 5282  43.462   5.790   9.065
   80POPC   C1A 5283  43.210   6.066   8.693
   80POPC   D2A 5284  43.347   6.273   8.296
   80POPC   C3A 5285  43.151   5.976   7.997
   80POPC   C4A 5286  42.830   5.969   7.657
   80POPC   C1B 5287  43.273   5.533   8.734
   80POPC   C2B 5288  43.175   5.382   8.303
   80POPC   C3B 5289  43.253   5.455   7.862
   80POPC   C4B 5290  43.298   5.772   7.557
   81POPC   NC3 5291  32.531  24.674   9.473
   81POPC   PO4 5292  31.971  25.007   9.336
   81POPC   GL1 5293  32.197  24.698   9.067
   81POPC   GL2 5294  32.167  24.347   9.132
   81POPC   C1A 5295  32.122  24.694   8.632
   81POPC   D2A 5296  32.041  24.501   8.237
   81POPC   C3A 5297  32.219  24.704   7.862
   81POPC   C4A 5298  32.168  24.626   7.415
   81POPC   C1B 5299  32.098  24.171   8.715
   81POPC   C2B 5300  32.340  24.084   8.336
   81POPC   C3B 5301  32.427  24.244   7.938
   81POPC   C4B 5302  32.304  24.138   7.520
   82POPC   NC3 5303  22.330   4.438   9.558
   82POPC   PO4 5304  21.732   4.118   9.445
   82POPC   GL1 5305  22.114   4.066   9.221
   82POPC   GL2 5306  22.057   4.398   9.130
   82POPC   C1A 5307  22.317   4.107   8.804
   82POPC   D2A 5308  22.101   4.158   8.396
   82POPC   C3A 5309  22.269   4.141   7.975
   82POPC   C4A 5310  22.013   3.954   7.632
   82POPC   C1B 5311  22.072   4.595   8.727
   82POPC   C2B 5312  22.267   4.646   8.332
   82POPC   C3B 5313  22.132   4.638   7.902
   82POPC   C4B 5314  22.200   4.421   7.513
   83POPC   NC3 5315  26.404   8.887   9.484
   83POPC   PO4 5316  25.756   9.208   9.513
   83POPC   GL1 5317  25.802   8.915   9.104
   83POPC   GL2 5318  26.121   8.770   9.091
   83POPC   C1A 5319  25.905   8.759   8.623
   83POPC   D2A 5320  25.734   8.840   8.204
   83POPC   C3A 5321  25.951   9.078   7.886
   83POPC   C4A 5322  25.887   9.336   7.517
   83POPC   C1B 5323  26.332   8.501   8.794
   83POPC   C2B 5324  26.220   8.390   8.376
   83POPC   C3B 5325  26.165   8.611   7.985
   83POPC   C4B 5326  26.339   8.628   7.580
   84POPC   NC3 5327  19.007  13.794   9.515
   84POPC   PO4 5328  19.136  13.108   9.460
   84POPC   GL1 5329  19.173  13.460   9.171
   84POPC   GL2 5330  18.842  13.592   9.069
   84POPC   C1A 5331  19.295  13.652   8.792
   84POPC   D2A 5332  19.148  13.726   8.376
   84POPC   C3A 5333  19.296  13.734   7.951
   84POPC   C4A 5334  19.032  13.683   7.549
   84POPC   C1B 5335  18.887  13.229   8.809
   84POPC   C2B 5336  19.009  13.222   8.395
   84POPC   C3B 5337  18.903  13.429   8.013
   84POPC   C4B 5338  18.594  13.447   7.719
   85POPC   NC3 5339  33.765  23.491   9.665
   85POPC   PO4 5340  33.913  24.112   9.412
   85POPC   GL1 5341  33.771  23.699   9.167
   85POPC   GL2 5342  34.032  23.468   8.937
   85POPC   C1A 5343  33.615  23.673   8.766
   85POPC   D2A 5344  33.905  23.646   8.421
   85POPC   C3A 5345  33.997  24.042   8.205
   85POPC   C4A 5346  34.136  24.110   7.758
   85POPC   C1B 5347  33.747  23.199   8.682
   85POPC   C2B 5348  33.657  23.118   8.256
   85POPC   C3B 5349  33.905  23.373   7.968
   85POPC   C4B 5350  33.765  23.759   7.835
   86POPC   NC3 5351  15.053   0.074   9.589
   86POPC   PO4 5352  15.347   0.709   9.630
   86POPC   GL1 5353  15.433   0.516   9.212
   86POPC   GL2 5354  15.137   0.494   8.954
   86POPC   C1A 5355  15.583   0.421   8.789
   86POPC   D2A 5356  15.227   0.334   8.480
   86POPC   C3A 5357  15.196   0.334   8.029
   86POPC   C4A 5358  15.021   0.014   7.779
   86POPC   C1B 5359  14.769   0.615   8.709
   86POPC   C2B 5360  14.781   0.812   8.319
   86POPC   C3B 5361  14.723   0.590   7.954
   86POPC   C4B 5362  14.611   0.735   7.586
   87POPC   NC3 5363  15.784  27.986   9.655
   87POPC   PO4 5364  15.978  28.651   9.683
   87POPC   GL1 5365  15.922  28.491   9.202
   87POPC   GL2 5366  15.679  28.221   9.191
   87POPC   C1A 5367  16.014  28.319   8.770
   87POPC   D2A 5368  16.110  28.502   8.372
   87POPC   C3A 5369  16.295  28.282   8.068
   87POPC   C4A 5370  16.048  28.243   7.743
   87POPC   C1B 5371  15.550  28.523   8.854
   87POPC   C2B 5372  15.598  28.447   8.429
   87POPC   C3B 5373  15.636  28.342   8.022
   87POPC   C4B 5374  15.694  27.921   7.887
   88POPC   NC3 5375  30.678   3.915   9.261
   88POPC   PO4 5376  30.869   4.454   9.644
   88POPC   GL1 5377  30.920   4.385   9.168
   88POPC   GL2 5378  30.987   4.090   8.915
   88POPC   C1A 5379  30.644   4.456   8.790
   88POPC   D2A 5380  30.415   4.424   8.385
   88POPC   C3A 5381  30.671   4.241   8.084
   88POPC   C4A 5382  30.950   4.379   7.786
   88POPC   C1B 5383  30.623   3.963   8.617
   88POPC   C2B 5384  30.309   3.906   8.294
   88POPC   C3B 5385  30.332   3.938   7.837
   88POPC   C4B 5386  30.512   4.231   7.550
   89POPC   NC3 5387  18.745  29.096   9.555
   89POPC   PO4 5388  19.263  29.519   9.488
   89POPC   GL1 5389  19.143  29.250   9.089
   89POPC   GL2 5390  19.013  28.888   9.096
   89POPC   C1A 5391  19.208  29.027   8.647
   89POPC   D2A 5392  19.382  28.705   8.334
   89POPC   C3A 5393  19.360  28.821   7.886
   89POPC   C4A 5394  19.422  29.201   7.681
   89POPC   C1B 5395  18.711  29.100   8.832
   89POPC   C2B 5396  18.789  29.335   8.452
   89POPC   C3B 5397  18.732  29.285   7.991
   89POPC   C4B 5398  18.995  29.481   7.685
   90POPC   NC3 5399   0.286   4.611   9.461
   90POPC   PO4 5400   0.582   3.978   9.349
   90POPC   GL1 5401   0.553   4.332   9.128
   90POPC   GL2 5402   0.172   4.224   9.136
   90POPC   C1A 5403   0.761   4.457   8.742
   90POPC   D2A 5404   0.903   4.323   8.351
   90POPC   C3A 5405   0.765   4.503   7.989
   90POPC   C4A 5406   0.602   4.317   7.641
   90POPC   C1B 5407   0.203   4.461   8.759
   90POPC   C2B 5408   0.396   4.461   8.375
   90POPC   C3B 5409   0.299   4.229   8.040
   90POPC   C4B 5410   0.080   4.380   7.719
   91POPC   NC3 5411  36.670   3.537   9.626
   91POPC   PO4 5412  37.124   3.129   9.487
   91POPC   GL1 5413  37.053   3.466   9.225
   91POPC   GL2 5414  36.754   3.293   9.151
   91POPC   C1A 5415  37.099   3.802   8.891
   91POPC   D2A 5416  37.126   3.954   8.451
   91POPC   C3A 5417  36.757   3.899   8.219
   91POPC   C4A 5418  36.618   3.856   7.824
   91POPC   C1B 5419  36.976   3.310   8.747
   91POPC   C2B 5420  37.117   3.466   8.331
   91POPC   C3B 5421  36.966   3.461   7.895
   91POPC   C4B 5422  36.934   3.194   7.509
   92POPC   NC3 5423  37.184   1.014   9.413
   92POPC   PO4 5424  37.024   1.632   9.517
   92POPC   GL1 5425  36.746   1.421   9.171
   92POPC   GL2 5426  36.956   1.198   8.998
   92POPC   C1A 5427  36.478   1.225   8.855
   92POPC   D2A 5428  36.755   1.096   8.526
   92POPC   C3A 5429  36.705   1.134   8.104
   92POPC   C4A 5430  37.051   1.250   7.819
   92POPC   C1B 5431  37.260   1.216   8.674
   92POPC   C2B 5432  37.229   1.027   8.268
   92POPC   C3B 5433  37.413   0.890   7.874
   92POPC   C4B 5434  37.237   0.767   7.512
   93POPC   NC3 5435  21.735  34.590   9.450
   93POPC   PO4 5436  22.062  35.051   9.781
   93POPC   GL1 5437  22.153  34.864   9.306
   93POPC   GL2 5438  22.026  34.615   9.033
   93POPC   C1A 5439  22.373  34.934   8.902
   93POPC   D2A 5440  22.208  34.803   8.515
   93POPC   C3A 5441  22.474  34.757   8.161
   93POPC   C4A 5442  22.500  34.801   7.729
   93POPC   C1B 5443  21.993  34.343   8.680
   93POPC   C2B 5444  22.196  34.319   8.271
   93POPC   C3B 5445  22.135  34.465   7.843
   93POPC   C4B 5446  22.189  34.307   7.422
   94POPC   NC3 5447  29.044  35.823   9.678
   94POPC   PO4 5448  29.236  36.375   9.686
   94POPC   GL1 5449  29.195  36.125   9.281
   94POPC   GL2 5450  28.872  35.973   9.208
   94POPC   C1A 5451  29.224  36.264   8.815
   94POPC   D2A 5452  29.433  36.093   8.424
   94POPC   C3A 5453  29.282  36.100   7.988
   94POPC   C4A 5454  29.329  36.086   7.529
   94POPC   C1B 5455  28.991  35.791   8.771
   94POPC   C2B 5456  29.035  35.742   8.293
   94POPC   C3B 5457  28.803  35.928   7.909
   94POPC   C4B 5458  28.832  36.349   7.717
   95POPC   NC3 5459  29.156  42.786   9.557
   95POPC   PO4 5460  28.856  42.127   9.535
   95POPC   GL1 5461  29.058  42.390   9.209
   95POPC   GL2 5462  28.951  42.119   9.008
   95POPC   C1A 5463  29.336  42.434   8.834
   95POPC   D2A 5464  29.393  42.371   8.376
   95POPC   C3A 5465  29.055  42.507   8.090
   95POPC   C4A 5466  29.327  42.751   7.768
   95POPC   C1B 5467  29.114  42.012   8.634
   95POPC   C2B 5468  28.989  41.939   8.226
   95POPC   C3B 5469  28.968  42.024   7.818
   95POPC   C4B 5470  29.355  42.223   7.812
   96POPC   NC3 5471  23.372  34.544   9.545
   96POPC   PO4 5472  23.845  34.284   9.404
   96POPC   GL1 5473  23.580  34.487   9.053
   96POPC   GL2 5474  23.248  34.664   9.064
   96POPC   C1A 5475  23.454  34.421   8.610
   96POPC   D2A 5476  23.678  34.316   8.224
   96POPC   C3A 5477  23.986  34.605   8.020
   96POPC   C4A 5478  23.957  34.631   7.589
   96POPC   C1B 5479  23.428  34.915   8.716
   96POPC   C2B 5480  23.583  34.826   8.271
   96POPC   C3B 5481  23.486  34.635   7.855
   96POPC   C4B 5482  23.438  34.874   7.466
   97POPC   NC3 5483  11.875  21.759   9.249
   97POPC   PO4 5484  12.264  22.171   9.660
   97POPC   GL1 5485  12.029  22.342   9.234
   97POPC   GL2 5486  11.789  22.175   8.989
   97POPC   C1A 5487  12.131  22.440   8.745
   97POPC   D2A 5488  12.006  22.097   8.444
   97POPC   C3A 5489  12.267  21.964   8.113
   97POPC   C4A 5490  12.179  22.087   7.706
   97POPC   C1B 5491  11.600  21.874   8.678
   97POPC   C2B 5492  11.581  21.704   8.296
   97POPC   C3B 5493  11.786  21.862   7.944
   97POPC   C4B 5494  11.789  21.727   7.505
   98POPC   NC3 5495  15.520  40.084   9.627
   98POPC   PO4 5496  14.997  40.527   9.709
   98POPC   GL1 5497  15.147  40.122   9.294
   98POPC   GL2 5498  15.369  39.784   9.236
   98POPC   C1A 5499  15.272  40.062   8.827
   98POPC   D2A 5500  15.235  40.184   8.353
   98POPC   C3A 5501  15.092  39.910   8.026
   98POPC   C4A 5502  15.018  39.980   7.597
   98POPC   C1B 5503  15.624  39.658   8.830
   98POPC   C2B 5504  15.803  39.819   8.439
   98POPC   C3B 5505  15.614  39.915   8.026
   98POPC   C4B 5506  15.473  39.631   7.696
   99POPC   NC3 5507   1.116   2.232   9.458
   99POPC   PO4 5508   1.457   1.513   9.501
   99POPC   GL1 5509   1.485   1.741   9.143
   99POPC   GL2 5510   1.136   1.841   9.116
   99POPC   C1A 5511   1.468   1.899   8.724
   99POPC   D2A 5512   1.330   2.089   8.356
   99POPC   C3A 5513   1.421   1.857   7.958
   99POPC   C4A 5514   1.314   1.631   7.558
   99POPC   C1B 5515   0.792   1.910   8.811
   99POPC   C2B 5516   0.705   1.773   8.401
   99POPC   C3B 5517   0.919   1.975   8.074
   99POPC   C4B 5518   1.018   2.033   7.659
  100POPC   NC3 5519   2.620   3.057   9.564
  100POPC   PO4 5520   2.266   2.612   9.407
  100POPC   GL1 5521   2.580   2.754   9.110
  100POPC   GL2 5522   2.851   2.513   9.039
  100POPC   C1A 5523   2.624   2.936   8.677
  100POPC   D2A 5524   2.425   2.852   8.258
  100POPC   C3A 5525   2.693   2.725   7.889
  100POPC   C4A 5526   2.531   2.653   7.469
  100POPC   C1B 5527   3.087   2.709   8.715
  100POPC   C2B 5528   3.082   2.772   8.267
  100POPC   C3B 5529   3.132   2.439   7.989
  100POPC   C4B 5530   3.049   2.284   7.612
  101POPC   NC3 5531   5.271  12.642   9.355
  101POPC   PO4 5532   4.971  13.146   9.626
  101POPC   GL1 5533   4.967  13.107   9.180
  101POPC   GL2 5534   4.858  12.802   9.094
  101POPC   C1A 5535   5.126  13.085   8.749
  101POPC   D2A 5536   5.261  12.849   8.388
  101POPC   C3A 5537   5.348  13.083   8.009
  101POPC   C4A 5538   5.196  13.074   7.573
  101POPC   C1B 5539   4.852  12.639   8.661
  101POPC   C2B 5540   4.796  12.738   8.212
  101POPC   C3B 5541   5.025  12.668   7.809
  101POPC   C4B 5542   4.882  12.689   7.351
  102POPC   NC3 5543  28.254  13.870   9.520
  102POPC   PO4 5544  28.729  13.391   9.622
  102POPC   GL1 5545  28.713  13.564   9.151
  102POPC   GL2 5546  28.404  13.738   9.052
  102POPC   C1A 5547  28.686  13.564   8.656
  102POPC   D2A 5548  28.502  13.821   8.302
  102POPC   C3A 5549  28.435  13.540   7.943
  102POPC   C4A 5550  28.698  13.493   7.590
  102POPC   C1B 5551  28.187  14.005   8.739
  102POPC   C2B 5552  28.003  14.043   8.325
  102POPC   C3B 5553  28.021  13.866   7.882
  102POPC   C4B 5554  27.962  13.408   7.739
  103POPC   NC3 5555  14.977  29.993   9.448
  103POPC   PO4 5556  14.921  30.660   9.537
  103POPC   GL1 5557  15.022  30.502   9.134
  103POPC   GL2 5558  15.261  30.233   9.092
  103POPC   C1A 5559  15.025  30.687   8.712
  103POPC   D2A 5560  14.852  30.975   8.435
  103POPC   C3A 5561  15.036  31.049   8.041
  103POPC   C4A 5562  15.149  30.824   7.690
  103POPC   C1B 5563  14.967  30.188   8.755
  103POPC   C2B 5564  14.984  30.332   8.349
  103POPC   C3B 5565  15.229  30.557   8.109
  103POPC   C4B 5566  15.366  30.369   7.740
  104POPC   NC3 5567   0.873  41.864   9.578
  104POPC   PO4 5568   1.245  41.310   9.472
  104POPC   GL1 5569   1.246  41.493   9.101
  104POPC   GL2 5570   1.015  41.775   9.112
  104POPC   C1A 5571   1.341  41.308   8.709
  104POPC   D2A 5572   1.392  41.021   8.396
  104POPC   C3A 5573   1.260  41.220   8.030
  104POPC   C4A 5574   1.168  41.605   7.794
  104POPC   C1B 5575   1.185  41.809   8.719
  104POPC   C2B 5576   1.269  41.647   8.321
  104POPC   C3B 5577   1.491  41.928   8.085
  104POPC   C4B 5578   1.392  42.084   7.718
  105POPC   NC3 5579  20.288  20.587   9.914
  105POPC   PO4 5580  19.701  20.701   9.598
  105POPC   GL1 5581  19.797  20.590   9.154
  105POPC   GL2 5582  19.957  20.251   9.057
  105POPC   C1A 5583  19.718  20.614   8.719
  105POPC   D2A 5584  19.512  20.694   8.346
  105POPC   C3A 5585  19.773  20.602   8.009
  105POPC   C4A 5586  19.806  20.894   7.706
  105POPC   C1B 5587  20.207  20.525   8.807
  105POPC   C2B 5588  20.167  20.553   8.382
  105POPC   C3B 5589  20.226  20.340   7.973
  105POPC   C4B 5590  20.077  20.478   7.545
  106POPC   NC3 5591  18.151  36.752   9.299
  106POPC   PO4 5592  18.607  37.181   9.398
  106POPC   GL1 5593  18.526  37.286   9.004
  106POPC   GL2 5594  18.519  36.939   8.894
  106POPC   C1A 5595  18.236  37.263   8.637
  106POPC   D2A 5596  18.368  37.029   8.285
  106POPC   C3A 5597  18.101  37.047   7.951
  106POPC   C4A 5598  18.358  37.133   7.625
  106POPC   C1B 5599  18.195  36.707   8.649
  106POPC   C2B 5600  18.221  36.507   8.255
  106POPC   C3B 5601  18.384  36.635   7.854
  106POPC   C4B 5602  18.223  36.685   7.423
  107POPC   NC3 5603  42.508   7.250   9.432
  107POPC   PO4 5604  42.118   7.783   9.521
  107POPC   GL1 5605  42.344   7.647   9.149
  107POPC   GL2 5606  42.588   7.851   8.993
  107POPC   C1A 5607  42.427   7.340   8.786
  107POPC   D2A 5608  42.447   7.105   8.394
  107POPC   C3A 5609  42.417   7.246   7.973
  107POPC   C4A 5610  42.404   7.281   7.558
  107POPC   C1B 5611  42.231   7.791   8.684
  107POPC   C2B 5612  42.359   7.615   8.307
  107POPC   C3B 5613  42.298   7.744   7.867
  107POPC   C4B 5614  42.066   7.693   7.471
  108POPC   NC3 5615   7.439  31.099   9.766
  108POPC   PO4 5616   7.445  31.760   9.488
  108POPC   GL1 5617   7.436  31.579   9.134
  108POPC   GL2 5618   7.133  31.478   9.097
  108POPC   C1A 5619   7.436  31.314   8.713
  108POPC   D2A 5620   7.320  31.432   8.320
  108POPC   C3A 5621   7.551  31.333   7.938
  108POPC   C4A 5622   7.444  31.225   7.520
  108POPC   C1B 5623   7.242  31.791   8.737
  108POPC   C2B 5624   7.339  31.945   8.346
  108POPC   C3B 5625   7.308  31.769   7.920
  108POPC   C4B 5626   7.215  31.674   7.460
  109POPC   NC3 5627  42.925   4.757   9.272
  109POPC   PO4 5628  43.204   4.292   9.678
  109POPC   GL1 5629  43.209   4.250   9.224
  109POPC   GL2 5630  42.867   4.268   9.122
  109POPC   C1A 5631  43.311   4.466   8.821
  109POPC   D2A 5632  43.530   4.376   8.452
  109POPC   C3A 5633  43.418   4.488   8.041
  109POPC   C4A 5634  43.324   4.501   7.616
  109POPC   C1B 5635  42.805   4.402   8.708
  109POPC   C2B 5636  43.030   4.334   8.354
  109POPC   C3B 5637  43.007   4.123   7.983
  109POPC   C4B 5638  42.888   4.171   7.572
  110POPC   NC3 5639  27.217  20.563   9.401
  110POPC   PO4 5640  27.622  20.969   9.562
  110POPC   GL1 5641  27.578  20.766   9.127
  110POPC   GL2 5642  27.293  20.986   9.121
  110POPC   C1A 5643  27.724  20.564   8.697
  110POPC   D2A 5644  27.632  20.402   8.270
  110POPC   C3A 5645  27.826  20.558   7.900
  110POPC   C4A 5646  27.558  20.625   7.582
  110POPC   C1B 5647  27.224  20.760   8.751
  110POPC   C2B 5648  27.222  20.979   8.367
  110POPC   C3B 5649  27.285  20.758   7.993
  110POPC   C4B 5650  27.059  20.617   7.610
  111POPC   NC3 5651   9.512  28.021   9.360
  111POPC   PO4 5652  10.068  28.476   9.469
  111POPC   GL1 5653   9.737  28.617   9.169
  111POPC   GL2 5654   9.646  28.329   8.982
  111POPC   C1A 5655   9.510  28.800   8.818
  111POPC   D2A 5656   9.616  28.863   8.370
  111POPC   C3A 5657   9.371  28.607   8.062
  111POPC   C4A 5658   9.457  28.626   7.601
  111POPC   C1B 5659   9.471  28.336   8.586
  111POPC   C2B 5660   9.809  28.386   8.328
  111POPC   C3B 5661   9.800  28.387   7.918
  111POPC   C4B 5662   9.543  28.132   7.680
  112POPC   NC3 5663   8.744  24.268   9.500
  112POPC   PO4 5664   9.384  24.510   9.496
  112POPC   GL1 5665   9.054  24.552   9.189
  112POPC   GL2 5666   9.005  24.214   9.081
  112POPC   C1A 5667   8.903  24.631   8.780
  112POPC   D2A 5668   8.768  24.348   8.478
  112POPC   C3A 5669   8.833  24.463   8.073
  112POPC   C4A 5670   8.724  24.378   7.682
  112POPC   C1B 5671   9.205  24.178   8.711
  112POPC   C2B 5672   9.291  24.379   8.356
  112POPC   C3B 5673   9.301  24.304   7.918
  112POPC   C4B 5674   9.217  24.478   7.528
  113POPC   NC3 5675  23.509  39.747   9.432
  113POPC   PO4 5676  23.851  40.255   9.663
  113POPC   GL1 5677  23.876  40.042   9.252
  113POPC   GL2 5678  23.523  40.085   9.056
  113POPC   C1A 5679  23.961  39.827   8.860
  113POPC   D2A 5680  23.955  39.807   8.417
  113POPC   C3A 5681  23.979  40.210   8.249
  113POPC   C4A 5682  24.011  40.470   7.892
  113POPC   C1B 5683  23.477  39.729   8.736
  113POPC   C2B 5684  23.468  39.715   8.276
  113POPC   C3B 5685  23.751  39.669   7.904
  113POPC   C4B 5686  23.651  39.538   7.457
  114POPC   NC3 5687  40.521  23.918   9.478
  114POPC   PO4 5688  39.987  23.517   9.407
  114POPC   GL1 5689  40.091  23.690   9.058
  114POPC   GL2 5690  40.186  24.019   9.072
  114POPC   C1A 5691  39.844  23.757   8.712
  114POPC   D2A 5692  39.671  23.485   8.404
  114POPC   C3A 5693  39.749  23.681   7.988
  114POPC   C4A 5694  39.885  23.774   7.564
  114POPC   C1B 5695  40.319  24.019   8.669
  114POPC   C2B 5696  40.105  23.935   8.299
  114POPC   C3B 5697  40.260  23.815   7.918
  114POPC   C4B 5698  40.637  23.940   7.720
  115POPC   NC3 5699  17.827  37.941   9.689
  115POPC   PO4 5700  17.445  37.519   9.717
  115POPC   GL1 5701  17.598  37.697   9.283
  115POPC   GL2 5702  17.312  37.624   9.111
  115POPC   C1A 5703  17.650  37.812   8.805
  115POPC   D2A 5704  17.466  37.659   8.391
  115POPC   C3A 5705  17.635  37.782   7.945
  115POPC   C4A 5706  17.676  37.614   7.502
  115POPC   C1B 5707  17.100  37.812   8.811
  115POPC   C2B 5708  16.959  37.747   8.412
  115POPC   C3B 5709  17.131  37.925   8.052
  115POPC   C4B 5710  17.183  37.668   7.709
  116POPC   NC3 5711  33.726   8.222   9.896
  116POPC   PO4 5712  33.341   8.645   9.499
  116POPC   GL1 5713  33.397   8.969   9.115
  116POPC   GL2 5714  33.663   9.246   9.181
  116POPC   C1A 5715  33.507   9.154   8.700
  116POPC   D2A 5716  33.743   8.963   8.387
  116POPC   C3A 5717  33.653   9.006   7.965
  116POPC   C4A 5718  33.950   8.853   7.660
  116POPC   C1B 5719  33.978   9.376   8.848
  116POPC   C2B 5720  34.020   9.403   8.377
  116POPC   C3B 5721  34.139   9.233   7.950
  116POPC   C4B 5722  34.062   9.324   7.486
  117POPC   NC3 5723   1.308  38.563  10.167
  117POPC   PO4 5724   1.006  38.821   9.625
  117POPC   GL1 5725   1.057  38.632   9.173
  117POPC   GL2 5726   1.405  38.562   9.048
  117POPC   C1A 5727   1.029  38.499   8.705
  117POPC   D2A 5728   1.219  38.642   8.304
  117POPC   C3A 5729   1.037  38.519   7.891
  117POPC   C4A 5730   1.124  38.376   7.465
  117POPC   C1B 5731   1.495  38.284   8.665
  117POPC   C2B 5732   1.386  38.168   8.230
  117POPC   C3B 5733   1.527  38.352   7.825
  117POPC   C4B 5734   1.629  38.331   7.347
  118POPC   NC3 5735  23.161  24.006   9.479
  118POPC   PO4 5736  23.564  23.499   9.159
  118POPC   GL1 5737  23.213  23.748   9.031
  118POPC   GL2 5738  22.890  23.656   9.197
  118POPC   C1A 5739  23.128  23.889   8.625
  118POPC   D2A 5740  22.998  23.598   8.304
  118POPC   C3A 5741  22.796  23.850   7.983
  118POPC   C4A 5742  23.164  24.069   7.882
  118POPC   C1B 5743  22.682  23.726   8.792
  118POPC   C2B 5744  22.497  23.631   8.391
  118POPC   C3B 5745  22.607  23.371   8.038
  118POPC   C4B 5746  22.699  23.443   7.595
  119POPC   NC3 5747  40.698   5.581   9.452
  119POPC   PO4 5748  40.631   6.116   9.755
  119POPC   GL1 5749  40.779   6.028   9.234
  119POPC   GL2 5750  41.115   5.792   9.222
  119POPC   C1A 5751  40.691   5.769   8.785
  119POPC   D2A 5752  40.619   5.573   8.305
  119POPC   C3A 5753  40.563   5.866   7.938
  119POPC   C4A 5754  40.800   5.937   7.549
  119POPC   C1B 5755  41.185   5.908   8.795
  119POPC   C2B 5756  41.029   5.844   8.398
  119POPC   C3B 5757  41.074   5.954   7.995
  119POPC   C4B 5758  41.283   6.087   7.656
  120POPC   NC3 5759   4.505  23.384   9.400
  120POPC   PO4 5760   5.091  23.843   9.513
  120POPC   GL1 5761   5.143  23.656   9.140
  120POPC   GL2 5762   4.865  23.485   9.078
  120POPC   C1A 5763   5.374  23.699   8.774
  120POPC   D2A 5764   5.376  23.890   8.407
  120POPC   C3A 5765   5.136  23.772   8.094
  120POPC   C4A 5766   5.190  23.708   7.673
  120POPC   C1B 5767   4.857  23.662   8.698
  120POPC   C2B 5768   4.682  23.610   8.307
  120POPC   C3B 5769   4.693  23.650   7.872
  120POPC   C4B 5770   4.718  23.692   7.429
  121POPC   NC3 5771  10.938  42.991   9.538
  121POPC   PO4 5772  10.369  43.367   9.620
  121POPC   GL1 5773  10.539  43.096   9.252
  121POPC   GL2 5774  10.895  43.201   9.088
  121POPC   C1A 5775  10.521  42.989   8.813
  121POPC   D2A 5776  10.342  43.162   8.434
  121POPC   C3A 5777  10.559  42.975   8.115
  121POPC   C4A 5778  10.536  42.936   7.692
  121POPC   C1B 5779  10.749  43.444   8.722
  121POPC   C2B 5780  10.731  43.503   8.288
  121POPC   C3B 5781  10.736  43.386   7.856
  121POPC   C4B 5782  10.727  43.345   7.425
  122POPC   NC3 5783  13.542  22.443   9.589
  122POPC   PO4 5784  13.277  21.800   9.581
  122POPC   GL1 5785  13.657  21.917   9.287
  122POPC   GL2 5786  13.701  22.282   9.138
  122POPC   C1A 5787  13.597  21.905   8.830
  122POPC   D2A 5788  13.396  22.051   8.445
  122POPC   C3A 5789  13.573  21.984   8.058
  122POPC   C4A 5790  13.472  22.123   7.670
  122POPC   C1B 5791  13.905  22.328   8.719
  122POPC   C2B 5792  13.726  22.422   8.277
  122POPC   C3B 5793  13.810  22.472   7.802
  122POPC   C4B 5794  13.832  22.323   7.344
  123POPC   NC3 5795  14.747  41.595   9.389
  123POPC   PO4 5796  14.104  41.319   9.369
  123POPC   GL1 5797  14.327  41.643   9.094
  123POPC   GL2 5798  14.660  41.528   8.905
  123POPC   C1A 5799  14.287  41.786   8.673
  123POPC   D2A 5800  14.093  41.562   8.341
  123POPC   C3A 5801  14.086  41.736   7.931
  123POPC   C4A 5802  14.340  41.988   7.694
  123POPC   C1B 5803  14.357  41.260   8.719
  123POPC   C2B 5804  14.377  41.147   8.297
  123POPC   C3B 5805  14.553  41.531   8.042
  123POPC   C4B 5806  14.787  41.628   7.652
  124POPC   NC3 5807  14.679  32.390   9.511
  124POPC   PO4 5808  14.104  32.234   9.649
  124POPC   GL1 5809  14.324  32.266   9.160
  124POPC   GL2 5810  14.441  31.946   8.950
  124POPC   C1A 5811  14.394  32.420   8.737
  124POPC   D2A 5812  14.378  32.237   8.318
  124POPC   C3A 5813  14.569  32.415   7.961
  124POPC   C4A 5814  14.488  32.345   7.527
  124POPC   C1B 5815  14.051  32.051   8.716
  124POPC   C2B 5816  13.882  32.126   8.291
  124POPC   C3B 5817  14.061  32.222   7.880
  124POPC   C4B 5818  14.264  31.922   7.619
  125POPC   NC3 5819  31.551   1.799   9.692
  125POPC   PO4 5820  31.685   1.469   9.180
  125POPC   GL1 5821  31.584   1.928   9.008
  125POPC   GL2 5822  31.421   2.291   8.997
  125POPC   C1A 5823  31.636   2.103   8.588
  125POPC   D2A 5824  31.910   1.970   8.261
  125POPC   C3A 5825  31.686   1.860   7.884
  125POPC   C4A 5826  31.714   1.805   7.448
  125POPC   C1B 5827  31.133   2.322   8.692
  125POPC   C2B 5828  31.180   2.102   8.320
  125POPC   C3B 5829  31.333   2.219   7.913
  125POPC   C4B 5830  31.348   2.170   7.466
  126POPC   NC3 5831  14.865   8.349   9.423
  126POPC   PO4 5832  14.267   8.018   9.536
  126POPC   GL1 5833  14.387   8.148   9.132
  126POPC   GL2 5834  14.482   8.496   9.128
  126POPC   C1A 5835  14.356   8.263   8.697
  126POPC   D2A 5836  14.322   8.043   8.329
  126POPC   C3A 5837  14.313   8.234   7.938
  126POPC   C4A 5838  14.493   8.122   7.527
  126POPC   C1B 5839  14.792   8.518   8.753
  126POPC   C2B 5840  14.654   8.428   8.305
  126POPC   C3B 5841  14.781   8.423   7.876
  126POPC   C4B 5842  14.891   8.429   7.460
  127POPC   NC3 5843  19.765  21.163   9.745
  127POPC   PO4 5844  20.211  21.552   9.471
  127POPC   GL1 5845  19.932  21.282   9.258
  127POPC   GL2 5846  19.702  21.569   9.244
  127POPC   C1A 5847  20.018  21.023   8.866
  127POPC   D2A 5848  20.029  21.242   8.443
  127POPC   C3A 5849  19.717  21.170   8.123
  127POPC   C4A 5850  19.638  21.373   7.720
  127POPC   C1B 5851  19.677  21.385   8.811
  127POPC   C2B 5852  19.569  21.567   8.416
  127POPC   C3B 5853  19.476  21.744   8.033
  127POPC   C4B 5854  19.426  21.835   7.621
  128POPC   NC3 5855  44.068  37.535   9.575
  128POPC   PO4 5856  44.693  37.674   9.615
  128POPC   GL1 5857  44.634  37.679   9.170
  128POPC   GL2 5858  44.271  37.735   9.142
  128POPC   C1A 5859  44.686  37.441   8.754
  128POPC   D2A 5860  44.473  37.384   8.330
  128POPC   C3A 5861  44.749  37.341   7.961
  128POPC   C4A 5862  44.972  37.662   7.707
  128POPC   C1B 5863  44.429  37.860   8.739
  128POPC   C2B 5864  44.693  37.857   8.382
  128POPC   C3B 5865  44.552  37.839   7.981
  128POPC   C4B 5866  44.303  37.556   7.863
  129POPC   NC3 5867  19.311  20.491   9.446
  129POPC   PO4 5868  18.761  20.887   9.544
  129POPC   GL1 5869  19.089  20.929   9.233
  129POPC   GL2 5870  18.908  20.672   9.046
  129POPC   C1A 5871  19.290  20.894   8.808
  129POPC   D2A 5872  19.006  20.707   8.456
  129POPC   C3A 5873  19.103  20.768   8.002
  129POPC   C4A 5874  19.149  20.890   7.548
  129POPC   C1B 5875  18.744  20.344   8.762
  129POPC   C2B 5876  18.628  20.356   8.333
  129POPC   C3B 5877  18.860  20.223   7.970
  129POPC   C4B 5878  18.981  20.409   7.602
  130POPC   NC3 5879   9.277  19.929   9.563
  130POPC   PO4 5880   8.599  20.192   9.329
  130POPC   GL1 5881   8.667  19.913   9.001
  130POPC   GL2 5882   8.968  19.766   9.155
  130POPC   C1A 5883   8.675  19.866   8.519
  130POPC   D2A 5884   9.041  19.968   8.274
  130POPC   C3A 5885   9.102  19.913   7.891
  130POPC   C4A 5886   8.712  19.980   7.646
  130POPC   C1B 5887   9.009  19.588   8.758
  130POPC   C2B 5888   9.045  19.471   8.349
  130POPC   C3B 5889   8.800  19.546   7.983
  130POPC   C4B 5890   8.993  19.557   7.550
  131POPC   NC3 5891   5.528   6.715   9.484
  131POPC   PO4 5892   6.008   6.190   9.541
  131POPC   GL1 5893   5.859   6.439   9.188
  131POPC   GL2 5894   5.610   6.157   9.177
  131POPC   C1A 5895   5.804   6.777   8.828
  131POPC   D2A 5896   5.928   6.619   8.432
  131POPC   C3A 5897   5.856   6.510   8.033
  131POPC   C4A 5898   5.603   6.760   7.813
  131POPC   C1B 5899   5.587   6.336   8.765
  131POPC   C2B 5900   5.555   6.214   8.364
  131POPC   C3B 5901   5.421   6.267   7.978
  131POPC   C4B 5902   5.649   6.269   7.612
  132POPC   NC3 5903  42.469  18.628   9.978
  132POPC   PO4 5904  42.294  18.172   9.485
  132POPC   GL1 5905  42.301  18.357   9.080
  132POPC   GL2 5906  42.610  18.457   9.132
  132POPC   C1A 5907  42.204  18.300   8.643
  132POPC   D2A 5908  41.975  18.390   8.265
  132POPC   C3A 5909  42.197  18.170   7.959
  132POPC   C4A 5910  42.153  17.930   7.591
  132POPC   C1B 5911  42.679  18.160   8.777
  132POPC   C2B 5912  42.546  17.970   8.390
  132POPC   C3B 5913  42.704  18.112   8.013
  132POPC   C4B 5914  42.585  18.465   7.779
  133POPC   NC3 5915  34.956  37.930   9.633
  133POPC   PO4 5916  34.470  37.466   9.561
  133POPC   GL1 5917  34.625  37.629   9.178
  133POPC   GL2 5918  34.793  37.964   9.152
  133POPC   C1A 5919  34.406  37.727   8.799
  133POPC   D2A 5920  34.552  37.658   8.378
  133POPC   C3A 5921  34.391  37.814   8.007
  133POPC   C4A 5922  34.245  37.865   7.602
  133POPC   C1B 5923  34.903  37.808   8.735
  133POPC   C2B 5924  34.912  38.030   8.339
  133POPC   C3B 5925  34.844  38.033   7.893
  133POPC   C4B 5926  34.740  37.738   7.576
  134POPC   NC3 5927   6.856  12.505   9.514
  134POPC   PO4 5928   6.377  12.887   9.617
  134POPC   GL1 5929   6.590  13.029   9.259
  134POPC   GL2 5930   6.827  12.810   9.129
  134POPC   C1A 5931   6.599  13.066   8.790
  134POPC   D2A 5932   6.860  12.929   8.470
  134POPC   C3A 5933   6.651  13.033   8.088
  134POPC   C4A 5934   6.669  12.898   7.698
  134POPC   C1B 5935   7.076  12.569   8.872
  134POPC   C2B 5936   7.016  12.423   8.471
  134POPC   C3B 5937   6.951  12.607   8.065
  134POPC   C4B 5938   6.906  12.420   7.690
  135POPC   NC3 5939   4.790  39.458   9.401
  135POPC   PO4 5940   4.980  39.984   9.865
  135POPC   GL1 5941   4.919  39.981   9.339
  135POPC   GL2 5942   5.154  39.732   9.175
  135POPC   C1A 5943   4.899  40.008   8.834
  135POPC   D2A 5944   4.743  39.797   8.449
  135POPC   C3A 5945   4.909  39.907   8.038
  135POPC   C4A 5946   5.034  40.291   7.832
  135POPC   C1B 5947   5.370  39.757   8.775
  135POPC   C2B 5948   5.275  39.968   8.411
  135POPC   C3B 5949   5.426  40.029   8.012
  135POPC   C4B 5950   5.253  39.845   7.630
  136POPC   NC3 5951  16.977   7.132   9.484
  136POPC   PO4 5952  16.580   7.671   9.422
  136POPC   GL1 5953  16.664   7.317   9.133
  136POPC   GL2 5954  16.982   7.408   9.041
  136POPC   C1A 5955  16.705   7.103   8.719
  136POPC   D2A 5956  16.926   7.306   8.352
  136POPC   C3A 5957  16.620   7.449   8.070
  136POPC   C4A 5958  16.561   7.269   7.688
  136POPC   C1B 5959  16.735   7.622   8.727
  136POPC   C2B 5960  16.876   7.807   8.344
  136POPC   C3B 5961  17.061   7.672   7.963
  136POPC   C4B 5962  16.777   7.754   7.681
  137POPC   NC3 5963   6.260   2.297   9.484
  137POPC   PO4 5964   6.833   1.900   9.608
  137POPC   GL1 5965   6.642   1.895   9.210
  137POPC   GL2 5966   6.591   2.257   9.087
  137POPC   C1A 5967   6.737   1.869   8.775
  137POPC   D2A 5968   6.528   2.015   8.402
  137POPC   C3A 5969   6.569   1.725   8.076
  137POPC   C4A 5970   6.834   1.716   7.714
  137POPC   C1B 5971   6.293   2.366   8.734
  137POPC   C2B 5972   6.323   2.486   8.280
  137POPC   C3B 5973   6.466   2.223   7.924
  137POPC   C4B 5974   6.337   1.901   7.647
  138POPC   NC3 5975  25.495  26.173   9.734
  138POPC   PO4 5976  25.311  25.654   9.430
  138POPC   GL1 5977  25.357  25.998   9.203
  138POPC   GL2 5978  25.046  26.101   9.207
  138POPC   C1A 5979  25.395  26.027   8.747
  138POPC   D2A 5980  25.358  25.854   8.333
  138POPC   C3A 5981  25.397  26.159   8.004
  138POPC   C4A 5982  25.612  26.188   7.606
  138POPC   C1B 5983  24.980  25.769   8.876
  138POPC   C2B 5984  24.865  25.716   8.453
  138POPC   C3B 5985  25.026  25.592   8.053
  138POPC   C4B 5986  25.162  25.806   7.689
  139POPC   NC3 5987  42.148  17.699   9.513
  139POPC   PO4 5988  42.730  17.274   9.534
  139POPC   GL1 5989  42.446  17.398   9.213
  139POPC   GL2 5990  42.155  17.259   9.057
  139POPC   C1A 5991  42.439  17.588   8.799
  139POPC   D2A 5992  42.186  17.363   8.500
  139POPC   C3A 5993  42.391  17.497   8.157
  139POPC   C4A 5994  42.591  17.679   7.796
  139POPC   C1B 5995  41.936  17.647   8.857
  139POPC   C2B 5996  42.014  17.857   8.434
  139POPC   C3B 5997  41.950  17.718   8.012
  139POPC   C4B 5998  42.155  17.423   7.719
  140POPC   NC3 5999  23.351   1.895   9.409
  140POPC   PO4 6000  22.749   2.160   9.483
  140POPC   GL1 6001  22.948   1.936   9.094
  140POPC   GL2 6002  23.261   2.123   8.982
  140POPC   C1A 6003  22.992   1.790   8.633
  140POPC   D2A 6004  22.915   2.021   8.227
  140POPC   C3A 6005  22.772   1.896   7.841
  140POPC   C4A 6006  22.972   1.608   7.573
  140POPC   C1B 6007  23.296   2.200   8.570
  140POPC   C2B 6008  23.409   1.963   8.218
  140POPC   C3B 6009  23.300   2.017   7.797
  140POPC   C4B 6010  23.448   2.257   7.427
  141POPC   NC3 6011  16.249  11.519   9.607
  141POPC   PO4 6012  15.666  11.344   9.882
  141POPC   GL1 6013  15.819  11.270   9.371
  141POPC   GL2 6014  16.123  11.377   9.144
  141POPC   C1A 6015  15.786  11.148   8.861
  141POPC   D2A 6016  15.964  11.159   8.400
  141POPC   C3A 6017  15.778  11.438   8.054
  141POPC   C4A 6018  15.737  11.549   7.594
  141POPC   C1B 6019  16.295  11.403   8.719
  141POPC   C2B 6020  16.304  11.565   8.285
  141POPC   C3B 6021  16.256  11.389   7.865
  141POPC   C4B 6022  16.275  11.603   7.465
  142POPC   NC3 6023  22.692  21.032   9.530
  142POPC   PO4 6024  22.858  20.393   9.278
  142POPC   GL1 6025  22.789  20.763   9.094
  142POPC   GL2 6026  22.452  20.624   9.068
  142POPC   C1A 6027  23.047  20.930   8.746
  142POPC   D2A 6028  23.242  20.784   8.338
  142POPC   C3A 6029  23.063  20.906   7.934
  142POPC   C4A 6030  22.787  20.997   7.582
  142POPC   C1B 6031  22.651  20.494   8.669
  142POPC   C2B 6032  22.720  20.686   8.276
  142POPC   C3B 6033  22.678  20.564   7.858
  142POPC   C4B 6034  22.771  20.167   7.717
  143POPC   NC3 6035   8.796  16.539   9.795
  143POPC   PO4 6036   9.008  15.920   9.670
  143POPC   GL1 6037   9.063  15.956   9.241
  143POPC   GL2 6038   9.330  16.195   9.311
  143POPC   C1A 6039   8.944  15.884   8.789
  143POPC   D2A 6040   8.902  15.561   8.431
  143POPC   C3A 6041   8.941  15.720   8.003
  143POPC   C4A 6042   8.683  15.999   7.742
  143POPC   C1B 6043   9.217  16.353   8.917
  143POPC   C2B 6044   9.352  16.224   8.509
  143POPC   C3B 6045   9.385  16.392   8.112
  143POPC   C4B 6046   9.223  16.117   7.765
  144POPC   NC3 6047  16.242   6.591   9.469
  144POPC   PO4 6048  15.629   6.826   9.513
  144POPC   GL1 6049  15.875   6.830   9.094
  144POPC   GL2 6050  16.072   6.535   9.015
  144POPC   C1A 6051  15.786   6.695   8.643
  144POPC   D2A 6052  15.527   6.660   8.287
  144POPC   C3A 6053  15.721   6.807   7.959
  144POPC   C4A 6054  15.908   6.556   7.678
  144POPC   C1B 6055  16.336   6.730   8.731
  144POPC   C2B 6056  16.189   6.839   8.316
  144POPC   C3B 6057  16.054   6.460   8.161
  144POPC   C4B 6058  16.297   6.280   7.845
  145POPC   NC3 6059  43.414  33.142   9.343
  145POPC   PO4 6060  43.962  32.905   9.771
  145POPC   GL1 6061  43.903  32.865   9.292
  145POPC   GL2 6062  43.859  33.169   9.110
  145POPC   C1A 6063  43.872  32.783   8.804
  145POPC   D2A 6064  43.773  32.936   8.373
  145POPC   C3A 6065  43.814  32.714   7.996
  145POPC   C4A 6066  44.022  32.886   7.672
  145POPC   C1B 6067  43.799  33.317   8.703
  145POPC   C2B 6068  43.629  33.420   8.283
  145POPC   C3B 6069  43.636  33.169   7.897
  145POPC   C4B 6070  43.762  33.265   7.466
  146POPC   NC3 6071   4.558  13.031   9.474
  146POPC   PO4 6072   4.019  12.715   9.544
  146POPC   GL1 6073   4.175  12.912   9.177
  146POPC   GL2 6074   4.395  12.598   9.165
  146POPC   C1A 6075   4.469  12.941   8.805
  146POPC   D2A 6076   4.300  12.896   8.452
  146POPC   C3A 6077   4.391  13.055   8.067
  146POPC   C4A 6078   4.565  12.837   7.738
  146POPC   C1B 6079   4.068  12.569   8.831
  146POPC   C2B 6080   3.929  12.533   8.417
  146POPC   C3B 6081   4.152  12.611   8.060
  146POPC   C4B 6082   4.179  12.433   7.720
  147POPC   NC3 6083   2.976  19.474   9.560
  147POPC   PO4 6084   2.416  19.818   9.607
  147POPC   GL1 6085   2.691  19.790   9.232
  147POPC   GL2 6086   2.481  19.582   9.129
  147POPC   C1A 6087   2.787  20.062   8.844
  147POPC   D2A 6088   2.687  20.063   8.387
  147POPC   C3A 6089   2.872  19.686   8.202
  147POPC   C4A 6090   3.064  19.684   7.819
  147POPC   C1B 6091   2.578  19.608   8.706
  147POPC   C2B 6092   2.373  19.649   8.305
  147POPC   C3B 6093   2.471  19.715   7.881
  147POPC   C4B 6094   2.205  19.445   7.631
  148POPC   NC3 6095  26.230  25.510   9.591
  148POPC   PO4 6096  25.957  26.188   9.743
  148POPC   GL1 6097  25.967  26.321   9.214
  148POPC   GL2 6098  25.824  26.061   9.024
  148POPC   C1A 6099  26.154  26.266   8.739
  148POPC   D2A 6100  25.961  26.401   8.345
  148POPC   C3A 6101  25.953  26.098   7.999
  148POPC   C4A 6102  26.243  26.054   7.647
  148POPC   C1B 6103  25.863  25.827   8.627
  148POPC   C2B 6104  25.772  25.582   8.234
  148POPC   C3B 6105  25.650  25.724   7.831
  148POPC   C4B 6106  25.829  25.742   7.438
  149POPC   NC3 6107  43.368  42.538   9.568
  149POPC   PO4 6108  42.717  42.363   9.654
  149POPC   GL1 6109  42.990  42.287   9.237
  149POPC   GL2 6110  43.293  42.473   9.082
  149POPC   C1A 6111  42.941  42.372   8.750
  149POPC   D2A 6112  43.010  42.103   8.389
  149POPC   C3A 6113  42.922  42.251   7.983
  149POPC   C4A 6114  43.025  42.556   7.719
  149POPC   C1B 6115  43.600  42.534   8.756
  149POPC   C2B 6116  43.699  42.441   8.338
  149POPC   C3B 6117  43.423  42.322   8.004
  149POPC   C4B 6118  43.333  42.148   7.589
  150POPC   NC3 6119  23.406  30.689   9.531
  150POPC   PO4 6120  22.766  30.847   9.500
  150POPC   GL1 6121  22.923  30.713   9.147
  150POPC   GL2 6122  23.221  30.899   9.100
  150POPC   C1A 6123  22.814  30.792   8.721
  150POPC   D2A 6124  22.615  30.938   8.348
  150POPC   C3A 6125  22.839  30.880   7.976
  150POPC   C4A 6126  22.817  30.515   7.764
  150POPC   C1B 6127  23.287  30.541   8.818
  150POPC   C2B 6128  23.103  30.476   8.418
  150POPC   C3B 6129  23.251  30.492   8.015
  150POPC   C4B 6130  23.301  30.783   7.689
  151POPC   NC3 6131  31.295  38.783   9.322
  151POPC   PO4 6132  31.634  39.328   9.600
  151POPC   GL1 6133  31.624  39.228   9.187
  151POPC   GL2 6134  31.267  39.314   9.182
  151POPC   C1A 6135  31.631  39.454   8.791
  151POPC   D2A 6136  31.532  39.340   8.367
  151POPC   C3A 6137  31.648  39.446   7.961
  151POPC   C4A 6138  31.762  39.109   7.688
  151POPC   C1B 6139  31.207  39.160   8.772
  151POPC   C2B 6140  31.042  39.238   8.387
  151POPC   C3B 6141  31.181  39.146   8.027
  151POPC   C4B 6142  31.223  39.352   7.678
  152POPC   NC3 6143  43.033  34.122   9.647
  152POPC   PO4 6144  43.154  33.471   9.607
  152POPC   GL1 6145  43.060  33.752   9.265
  152POPC   GL2 6146  43.325  33.989   9.215
  152POPC   C1A 6147  43.008  33.785   8.814
  152POPC   D2A 6148  42.942  33.994   8.407
  152POPC   C3A 6149  43.023  33.785   8.017
  152POPC   C4A 6150  42.902  34.003   7.649
  152POPC   C1B 6151  43.300  34.212   8.806
  152POPC   C2B 6152  43.397  34.375   8.393
  152POPC   C3B 6153  43.248  34.235   8.022
  152POPC   C4B 6154  43.412  34.114   7.652
  153POPC   NC3 6155  29.627  24.706   9.450
  153POPC   PO4 6156  30.243  24.524   9.416
  153POPC   GL1 6157  29.956  24.613   9.050
  153POPC   GL2 6158  29.676  24.893   8.998
  153POPC   C1A 6159  29.709  24.334   8.822
  153POPC   D2A 6160  29.784  24.158   8.440
  153POPC   C3A 6161  29.791  24.435   8.123
  153POPC   C4A 6162  29.545  24.354   7.800
  153POPC   C1B 6163  29.783  24.788   8.584
  153POPC   C2B 6164  30.173  24.666   8.423
  153POPC   C3B 6165  30.262  24.576   7.997
  153POPC   C4B 6166  29.940  24.638   7.646
  154POPC   NC3 6167  44.708   6.511   9.545
  154POPC   PO4 6168  44.439   7.181   9.516
  154POPC   GL1 6169  44.562   6.824   9.172
  154POPC   GL2 6170  44.862   6.607   9.089
  154POPC   C1A 6171  44.503   6.539   8.765
  154POPC   D2A 6172  44.533   6.683   8.365
  154POPC   C3A 6173  44.282   6.510   8.057
  154POPC   C4A 6174  44.379   6.471   7.628
  154POPC   C1B 6175   0.045   6.497   8.709
  154POPC   C2B 6176   0.028   6.550   8.271
  154POPC   C3B 6177  44.801   6.577   7.907
  154POPC   C4B 6178  44.856   6.503   7.448
  155POPC   NC3 6179  42.110   2.967   9.410
  155POPC   PO4 6180  42.653   2.586   9.387
  155POPC   GL1 6181  42.391   2.568   9.085
  155POPC   GL2 6182  42.065   2.452   9.190
  155POPC   C1A 6183  42.525   2.656   8.682
  155POPC   D2A 6184  42.613   2.875   8.329
  155POPC   C3A 6185  42.402   2.660   7.982
  155POPC   C4A 6186  42.420   2.878   7.568
  155POPC   C1B 6187  41.998   2.756   8.820
  155POPC   C2B 6188  42.129   2.961   8.472
  155POPC   C3B 6189  42.038   2.995   8.062
  155POPC   C4B 6190  41.960   2.725   7.714
  156POPC   NC3 6191   6.068   7.554   9.556
  156POPC   PO4 6192   5.944   6.926   9.461
  156POPC   GL1 6193   6.111   7.289   9.112
  156POPC   GL2 6194   6.162   7.714   9.092
  156POPC   C1A 6195   5.944   7.329   8.678
  156POPC   D2A 6196   5.713   7.108   8.311
  156POPC   C3A 6197   5.715   7.281   7.859
  156POPC   C4A 6198   5.805   7.077   7.458
  156POPC   C1B 6199   6.376   7.681   8.722
  156POPC   C2B 6200   6.264   7.524   8.316
  156POPC   C3B 6201   6.234   7.425   7.895
  156POPC   C4B 6202   6.102   7.497   7.477
  157POPC   NC3 6203  11.022  18.484   9.473
  157POPC   PO4 6204  11.440  18.000   9.512
  157POPC   GL1 6205  11.393  18.254   9.150
  157POPC   GL2 6206  11.091  18.133   9.059
  157POPC   C1A 6207  11.424  18.250   8.678
  157POPC   D2A 6208  11.254  18.393   8.273
  157POPC   C3A 6209  11.511  18.249   7.901
  157POPC   C4A 6210  11.615  18.477   7.483
  157POPC   C1B 6211  11.024  18.562   8.827
  157POPC   C2B 6212  10.848  18.812   8.487
  157POPC   C3B 6213  10.857  18.808   8.025
  157POPC   C4B 6214  11.219  18.636   7.787
  158POPC   NC3 6215  37.894  19.185   9.452
  158POPC   PO4 6216  37.290  19.340   9.118
  158POPC   GL1 6217  37.668  19.122   8.920
  158POPC   GL2 6218  37.967  18.925   9.024
  158POPC   C1A 6219  37.787  18.885   8.533
  158POPC   D2A 6220  37.769  18.542   8.259
  158POPC   C3A 6221  37.487  18.699   7.957
  158POPC   C4A 6222  37.472  19.055   7.694
  158POPC   C1B 6223  38.206  19.097   8.691
  158POPC   C2B 6224  38.146  19.217   8.314
  158POPC   C3B 6225  37.905  19.018   8.036
  158POPC   C4B 6226  37.969  19.170   7.651
  159POPC   NC3 6227  35.806   4.931   9.498
  159POPC   PO4 6228  36.420   4.620   9.480
  159POPC   GL1 6229  36.169   4.871   9.139
  159POPC   GL2 6230  35.938   5.213   9.089
  159POPC   C1A 6231  35.944   4.841   8.758
  159POPC   D2A 6232  36.137   4.784   8.360
  159POPC   C3A 6233  36.075   4.925   7.941
  159POPC   C4A 6234  36.496   4.882   7.739
  159POPC   C1B 6235  35.998   5.308   8.609
  159POPC   C2B 6236  36.292   5.271   8.244
  159POPC   C3B 6237  36.306   5.365   7.784
  159POPC   C4B 6238  36.162   5.525   7.360
  160POPC   NC3 6239  23.180   5.297   9.444
  160POPC   PO4 6240  22.652   4.807   9.451
  160POPC   GL1 6241  22.741   5.143   9.161
  160POPC   GL2 6242  23.068   5.026   9.042
  160POPC   C1A 6243  22.776   5.303   8.735
  160POPC   D2A 6244  23.111   5.231   8.435
  160POPC   C3A 6245  22.981   5.177   8.026
  160POPC   C4A 6246  22.675   5.352   7.757
  160POPC   C1B 6247  23.093   4.769   8.720
  160POPC   C2B 6248  23.361   4.775   8.389
  160POPC   C3B 6249  23.409   4.888   7.987
  160POPC   C4B 6250  23.204   4.970   7.614
  161POPC   NC3 6251  35.730   1.747   9.364
  161POPC   PO4 6252  35.271   2.155   9.500
  161POPC   GL1 6253  35.276   1.952   9.138
  161POPC   GL2 6254  35.114   1.646   9.138
  161POPC   C1A 6255  35.294   2.106   8.730
  161POPC   D2A 6256  35.433   2.116   8.302
  161POPC   C3A 6257  35.296   2.130   7.858
  161POPC   C4A 6258  35.547   2.103   7.478
  161POPC   C1B 6259  35.446   1.603   8.801
  161POPC   C2B 6260  35.626   1.615   8.406
  161POPC   C3B 6261  35.474   1.675   8.011
  161POPC   C4B 6262  35.757   1.663   7.740
  162POPC   NC3 6263  22.731  39.706   9.506
  162POPC   PO4 6264  23.191  40.193   9.448
  162POPC   GL1 6265  22.901  40.022   9.140
  162POPC   GL2 6266  23.081  39.725   9.089
  162POPC   C1A 6267  22.594  40.127   8.797
  162POPC   D2A 6268  22.774  40.221   8.361
  162POPC   C3A 6269  22.642  40.060   7.941
  162POPC   C4A 6270  22.779  39.910   7.514
  162POPC   C1B 6271  22.985  39.839   8.659
  162POPC   C2B 6272  22.923  39.691   8.251
  162POPC   C3B 6273  23.132  39.817   7.893
  162POPC   C4B 6274  23.496  40.110   7.865
  163POPC   NC3 6275   1.708  22.396   9.497
  163POPC   PO4 6276   2.372  22.321   9.448
  163POPC   GL1 6277   2.205  22.075   9.106
  163POPC   GL2 6278   1.824  22.118   9.100
  163POPC   C1A 6279   2.184  22.176   8.667
  163POPC   D2A 6280   2.378  22.192   8.251
  163POPC   C3A 6281   2.196  22.401   7.906
  163POPC   C4A 6282   2.158  22.309   7.465
  163POPC   C1B 6283   1.720  22.370   8.773
  163POPC   C2B 6284   1.750  22.210   8.379
  163POPC   C3B 6285   1.708  22.361   8.017
  163POPC   C4B 6286   1.695  22.228   7.637
  164POPC   NC3 6287  10.385  34.386   9.487
  164POPC   PO4 6288  10.678  34.984   9.557
  164POPC   GL1 6289  10.702  34.628   9.146
  164POPC   GL2 6290  10.398  34.491   8.965
  164POPC   C1A 6291  10.881  34.434   8.720
  164POPC   D2A 6292  10.805  34.542   8.248
  164POPC   C3A 6293  10.650  34.320   7.863
  164POPC   C4A 6294  10.765  34.237   7.416
  164POPC   C1B 6295  10.603  34.848   8.690
  164POPC   C2B 6296  10.630  35.030   8.313
  164POPC   C3B 6297  10.571  34.862   7.897
  164POPC   C4B 6298  10.422  34.652   7.523
  165POPC   NC3 6299  13.459  32.629   9.465
  165POPC   PO4 6300  13.301  33.378   9.484
  165POPC   GL1 6301  13.507  33.062   9.180
  165POPC   GL2 6302  13.456  32.746   8.992
  165POPC   C1A 6303  13.781  33.144   8.840
  165POPC   D2A 6304  13.683  33.298   8.448
  165POPC   C3A 6305  13.894  33.183   8.080
  165POPC   C4A 6306  13.646  33.276   7.727
  165POPC   C1B 6307  13.479  32.821   8.597
  165POPC   C2B 6308  13.480  32.888   8.213
  165POPC   C3B 6309  13.185  32.778   7.970
  165POPC   C4B 6310  13.234  32.666   7.587
  166POPC   NC3 6311  29.112  17.475   9.585
  166POPC   PO4 6312  28.643  17.916   9.558
  166POPC   GL1 6313  28.818  17.688   9.182
  166POPC   GL2 6314  29.147  17.687   9.103
  166POPC   C1A 6315  28.869  17.333   8.837
  166POPC   D2A 6316  29.136  17.235   8.477
  166POPC   C3A 6317  29.073  17.256   8.006
  166POPC   C4A 6318  29.056  17.446   7.603
  166POPC   C1B 6319  28.947  17.808   8.692
  166POPC   C2B 6320  29.043  17.708   8.260
  166POPC   C3B 6321  29.296  17.744   7.905
  166POPC   C4B 6322  29.407  18.081   7.637
  167POPC   NC3 6323  30.929  37.874   9.463
  167POPC   PO4 6324  31.050  38.614   9.697
  167POPC   GL1 6325  30.840  38.367   9.299
  167POPC   GL2 6326  30.933  38.578   9.056
  167POPC   C1A 6327  30.568  38.342   8.840
  167POPC   D2A 6328  30.722  38.372   8.392
  167POPC   C3A 6329  30.445  38.420   8.052
  167POPC   C4A 6330  30.466  38.623   7.679
  167POPC   C1B 6331  31.105  38.519   8.687
  167POPC   C2B 6332  31.159  38.739   8.347
  167POPC   C3B 6333  30.939  38.650   7.975
  167POPC   C4B 6334  30.916  38.550   7.520
  168POPC   NC3 6335  22.612  38.994   9.458
  168POPC   PO4 6336  23.176  39.420   9.499
  168POPC   GL1 6337  22.988  39.215   9.158
  168POPC   GL2 6338  22.653  39.377   9.088
  168POPC   C1A 6339  23.011  39.330   8.718
  168POPC   D2A 6340  23.234  39.253   8.369
  168POPC   C3A 6341  23.038  39.247   7.982
  168POPC   C4A 6342  23.064  39.447   7.540
  168POPC   C1B 6343  22.669  38.974   8.819
  168POPC   C2B 6344  22.781  38.923   8.415
  168POPC   C3B 6345  22.642  38.897   8.022
  168POPC   C4B 6346  22.711  39.064   7.648
  169POPC   NC3 6347  29.753  31.013   9.315
  169POPC   PO4 6348  29.867  31.507   9.757
  169POPC   GL1 6349  29.757  31.570   9.260
  169POPC   GL2 6350  29.476  31.507   9.227
  169POPC   C1A 6351  29.898  31.475   8.784
  169POPC   D2A 6352  30.067  31.588   8.361
  169POPC   C3A 6353  30.195  31.285   8.078
  169POPC   C4A 6354  30.053  31.186   7.676
  169POPC   C1B 6355  29.505  31.791   8.853
  169POPC   C2B 6356  29.580  31.656   8.374
  169POPC   C3B 6357  29.620  31.416   7.942
  169POPC   C4B 6358  29.635  31.408   7.455
  170POPC   NC3 6359  29.011  43.400   9.203
  170POPC   PO4 6360  29.521  43.108   9.522
  170POPC   GL1 6361  29.451  42.871   9.139
  170POPC   GL2 6362  29.077  42.893   9.082
  170POPC   C1A 6363  29.391  42.931   8.697
  170POPC   D2A 6364  29.312  42.902   8.285
  170POPC   C3A 6365  29.327  43.283   8.019
  170POPC   C4A 6366  29.194  43.211   7.589
  170POPC   C1B 6367  28.908  42.682   8.758
  170POPC   C2B 6368  28.762  42.837   8.389
  170POPC   C3B 6369  28.896  43.010   8.006
  170POPC   C4B 6370  28.816  42.770   7.705
  171POPC   NC3 6371  13.961  36.306   9.416
  171POPC   PO4 6372  14.617  36.323   9.562
  171POPC   GL1 6373  14.413  36.173   9.167
  171POPC   GL2 6374  14.193  36.439   8.972
  171POPC   C1A 6375  14.490  36.074   8.733
  171POPC   D2A 6376  14.358  36.157   8.311
  171POPC   C3A 6377  14.568  35.974   7.983
  171POPC   C4A 6378  14.210  35.739   7.860
  171POPC   C1B 6379  14.429  36.594   8.590
  171POPC   C2B 6380  14.252  36.631   8.163
  171POPC   C3B 6381  14.288  36.364   7.784
  171POPC   C4B 6382  14.391  36.480   7.330
  172POPC   NC3 6383  21.678   1.914   9.428
  172POPC   PO4 6384  21.143   2.305   9.581
  172POPC   GL1 6385  21.298   2.195   9.139
  172POPC   GL2 6386  21.574   1.988   8.942
  172POPC   C1A 6387  21.113   2.125   8.730
  172POPC   D2A 6388  21.320   2.137   8.307
  172POPC   C3A 6389  21.128   1.969   7.941
  172POPC   C4A 6390  20.912   2.118   7.597
  172POPC   C1B 6391  21.525   1.646   8.632
  172POPC   C2B 6392  21.488   1.658   8.172
  172POPC   C3B 6393  21.632   1.862   7.787
  172POPC   C4B 6394  21.708   1.621   7.387
  173POPC   NC3 6395  14.977   0.748   9.334
  173POPC   PO4 6396  15.226   1.398   9.477
  173POPC   GL1 6397  15.385   1.411   9.073
  173POPC   GL2 6398  15.171   1.113   9.035
  173POPC   C1A 6399  15.362   1.358   8.621
  173POPC   D2A 6400  15.072   1.252   8.271
  173POPC   C3A 6401  15.275   1.412   7.890
  173POPC   C4A 6402  15.504   1.802   7.707
  173POPC   C1B 6403  15.192   0.874   8.630
  173POPC   C2B 6404  15.285   0.788   8.226
  173POPC   C3B 6405  15.103   0.911   7.835
  173POPC   C4B 6406  14.832   1.214   7.635
  174POPC   NC3 6407  12.436  42.913   9.506
  174POPC   PO4 6408  13.145  42.959   9.484
  174POPC   GL1 6409  12.817  42.868   9.174
  174POPC   GL2 6410  12.686  43.234   9.157
  174POPC   C1A 6411  12.671  42.942   8.741
  174POPC   D2A 6412  12.857  43.190   8.427
  174POPC   C3A 6413  12.864  42.997   8.041
  174POPC   C4A 6414  13.032  43.122   7.690
  174POPC   C1B 6415  12.378  43.358   8.823
  174POPC   C2B 6416  12.337  43.234   8.398
  174POPC   C3B 6417  12.457  43.293   7.974
  174POPC   C4B 6418  12.543  42.980   7.627
  175POPC   NC3 6419  38.329   3.372   9.460
  175POPC   PO4 6420  38.809   3.868   9.671
  175POPC   GL1 6421  38.778   3.608   9.246
  175POPC   GL2 6422  38.755   3.235   9.200
  175POPC   C1A 6423  38.853   3.518   8.778
  175POPC   D2A 6424  38.817   3.317   8.357
  175POPC   C3A 6425  38.723   3.524   7.954
  175POPC   C4A 6426  38.945   3.776   7.601
  175POPC   C1B 6427  38.429   3.241   8.832
  175POPC   C2B 6428  38.377   3.527   8.494
  175POPC   C3B 6429  38.232   3.541   8.079
  175POPC   C4B 6430  38.245   3.344   7.691
  176POPC   NC3 6431  31.950  27.444   9.281
  176POPC   PO4 6432  31.342  27.548   9.621
  176POPC   GL1 6433  31.222  27.548   9.169
  176POPC   GL2 6434  31.514  27.373   9.043
  176POPC   C1A 6435  31.342  27.793   8.801
  176POPC   D2A 6436  31.664  27.813   8.503
  176POPC   C3A 6437  31.530  27.889   8.069
  176POPC   C4A 6438  31.311  27.775   7.653
  176POPC   C1B 6439  31.396  27.241   8.646
  176POPC   C2B 6440  31.505  27.144   8.228
  176POPC   C3B 6441  31.586  27.410   7.878
  176POPC   C4B 6442  31.663  27.457   7.423
  177POPC   NC3 6443   6.024  37.259   9.606
  177POPC   PO4 6444   5.583  36.773   9.563
  177POPC   GL1 6445   5.917  36.872   9.239
  177POPC   GL2 6446   5.761  37.194   9.156
  177POPC   C1A 6447   6.100  36.840   8.792
  177POPC   D2A 6448   5.982  37.030   8.429
  177POPC   C3A 6449   6.058  36.877   8.031
  177POPC   C4A 6450   6.004  36.607   7.692
  177POPC   C1B 6451   5.585  37.055   8.753
  177POPC   C2B 6452   5.485  36.961   8.295
  177POPC   C3B 6453   5.587  37.019   7.863
  177POPC   C4B 6454   5.623  36.843   7.434
  178POPC   NC3 6455  27.412  30.365   9.350
  178POPC   PO4 6456  27.879  29.947   9.722
  178POPC   GL1 6457  27.857  30.077   9.221
  178POPC   GL2 6458  27.530  30.101   8.958
  178POPC   C1A 6459  27.935  29.866   8.789
  178POPC   D2A 6460  27.644  29.932   8.412
  178POPC   C3A 6461  27.619  29.621   8.054
  178POPC   C4A 6462  27.656  29.493   7.602
  178POPC   C1B 6463  27.854  30.365   8.754
  178POPC   C2B 6464  28.102  30.227   8.418
  178POPC   C3B 6465  27.912  30.176   8.046
  178POPC   C4B 6466  27.733  30.001   7.713
  179POPC   NC3 6467  19.361  22.095   9.677
  179POPC   PO4 6468  19.199  22.501   9.241
  179POPC   GL1 6469  19.270  22.029   9.181
  179POPC   GL2 6470  18.975  21.873   9.021
  179POPC   C1A 6471  19.469  21.880   8.821
  179POPC   D2A 6472  19.203  21.936   8.418
  179POPC   C3A 6473  19.351  22.233   8.034
  179POPC   C4A 6474  19.191  22.295   7.611
  179POPC   C1B 6475  18.751  21.644   8.672
  179POPC   C2B 6476  18.853  21.608   8.218
  179POPC   C3B 6477  18.990  21.896   7.873
  179POPC   C4B 6478  18.975  21.858   7.380
  180POPC   NC3 6479  41.924  43.154   9.073
  180POPC   PO4 6480  41.543  43.362   9.561
  180POPC   GL1 6481  41.329  43.258   9.154
  180POPC   GL2 6482  41.431  42.959   8.969
  180POPC   C1A 6483  41.290  43.414   8.712
  180POPC   D2A 6484  41.563  43.480   8.333
  180POPC   C3A 6485  41.625  43.114   8.094
  180POPC   C4A 6486  41.805  42.967   7.725
  180POPC   C1B 6487  41.042  42.958   8.718
  180POPC   C2B 6488  40.892  43.123   8.322
  180POPC   C3B 6489  41.119  43.226   7.968
  180POPC   C4B 6490  41.297  42.892   7.740
  181POPC   NC3 6491   4.741   9.647   9.349
  181POPC   PO4 6492   4.129   9.904   9.489
  181POPC   GL1 6493   4.373   9.973   9.114
  181POPC   GL2 6494   4.311   9.665   8.974
  181POPC   C1A 6495   4.442  10.021   8.644
  181POPC   D2A 6496   4.137  10.056   8.296
  181POPC   C3A 6497   4.342  10.044   7.882
  181POPC   C4A 6498   4.379   9.652   7.589
  181POPC   C1B 6499   4.196   9.559   8.536
  181POPC   C2B 6500   4.444   9.650   8.182
  181POPC   C3B 6501   4.778   9.724   7.876
  181POPC   C4B 6502   4.830   9.819   7.396
  182POPC   NC3 6503  13.878  37.085   9.674
  182POPC   PO4 6504  13.272  37.153   9.388
  182POPC   GL1 6505  13.502  36.880   9.137
  182POPC   GL2 6506  13.888  36.859   9.160
  182POPC   C1A 6507  13.599  36.881   8.715
  182POPC   D2A 6508  13.773  36.686   8.342
  182POPC   C3A 6509  13.521  36.766   7.959
  182POPC   C4A 6510  13.156  37.068   7.950
  182POPC   C1B 6511  14.101  36.963   8.743
  182POPC   C2B 6512  14.081  37.145   8.320
  182POPC   C3B 6513  13.971  36.975   7.920
  182POPC   C4B 6514  13.901  36.643   7.590
  183POPC   NC3 6515   8.712   9.572   9.583
  183POPC   PO4 6516   9.164   9.997   9.480
  183POPC   GL1 6517   9.054   9.808   9.114
  183POPC   GL2 6518   8.921   9.499   9.098
  183POPC   C1A 6519   9.030   9.802   8.678
  183POPC   D2A 6520   9.073   9.582   8.306
  183POPC   C3A 6521   8.989   9.899   8.018
  183POPC   C4A 6522   8.617   9.986   7.800
  183POPC   C1B 6523   8.737   9.378   8.668
  183POPC   C2B 6524   8.578   9.525   8.245
  183POPC   C3B 6525   8.796   9.464   7.842
  183POPC   C4B 6526   9.092   9.467   7.483
  184POPC   NC3 6527  36.440  38.330   9.399
  184POPC   PO4 6528  37.080  38.587   9.628
  184POPC   GL1 6529  36.923  38.607   9.237
  184POPC   GL2 6530  37.045  38.286   9.185
  184POPC   C1A 6531  36.740  38.550   8.828
  184POPC   D2A 6532  36.873  38.325   8.465
  184POPC   C3A 6533  36.743  38.438   8.077
  184POPC   C4A 6534  36.913  38.495   7.652
  184POPC   C1B 6535  37.248  38.206   8.810
  184POPC   C2B 6536  37.356  38.153   8.393
  184POPC   C3B 6537  37.082  37.992   8.098
  184POPC   C4B 6538  37.171  38.023   7.676
  185POPC   NC3 6539  39.024  13.037   9.567
  185POPC   PO4 6540  39.626  12.561   9.474
  185POPC   GL1 6541  39.395  12.876   9.232
  185POPC   GL2 6542  39.083  12.843   9.114
  185POPC   C1A 6543  39.395  12.983   8.763
  185POPC   D2A 6544  39.339  12.742   8.407
  185POPC   C3A 6545  39.359  13.022   8.084
  185POPC   C4A 6546  39.279  12.864   7.674
  185POPC   C1B 6547  38.795  13.005   8.824
  185POPC   C2B 6548  38.923  13.100   8.406
  185POPC   C3B 6549  38.878  12.922   7.999
  185POPC   C4B 6550  38.727  13.100   7.655
  186POPC   NC3 6551  43.200  10.510   9.525
  186POPC   PO4 6552  42.573  10.803   9.492
  186POPC   GL1 6553  42.888  10.566   9.106
  186POPC   GL2 6554  43.237  10.344   9.058
  186POPC   C1A 6555  42.943  10.391   8.662
  186POPC   D2A 6556  43.176  10.454   8.267
  186POPC   C3A 6557  42.988  10.494   7.841
  186POPC   C4A 6558  42.754  10.760   7.592
  186POPC   C1B 6559  43.419  10.646   8.739
  186POPC   C2B 6560  43.451  10.902   8.338
  186POPC   C3B 6561  43.427  10.729   7.906
  186POPC   C4B 6562  43.464  10.306   7.714
  187POPC   NC3 6563   0.978   1.542   9.499
  187POPC   PO4 6564   1.154   0.867   9.576
  187POPC   GL1 6565   1.132   0.982   9.158
  187POPC   GL2 6566   1.217   1.295   9.107
  187POPC   C1A 6567   1.259   0.932   8.724
  187POPC   D2A 6568   1.001   0.803   8.381
  187POPC   C3A 6569   1.174   0.959   8.035
  187POPC   C4A 6570   1.171   1.047   7.608
  187POPC   C1B 6571   1.094   1.512   8.722
  187POPC   C2B 6572   1.169   1.575   8.313
  187POPC   C3B 6573   1.010   1.472   7.932
  187POPC   C4B 6574   0.804   1.385   7.567
  188POPC   NC3 6575   5.305   0.549   9.456
  188POPC   PO4 6576   4.584   0.361   9.499
  188POPC   GL1 6577   4.869   0.303   9.168
  188POPC   GL2 6578   4.950   0.647   9.069
  188POPC   C1A 6579   5.069   0.235   8.763
  188POPC   D2A 6580   5.110   0.469   8.361
  188POPC   C3A 6581   5.376   0.355   7.986
  188POPC   C4A 6582   5.193   0.220   7.586
  188POPC   C1B 6583   5.339   0.691   8.797
  188POPC   C2B 6584   5.443   0.858   8.374
  188POPC   C3B 6585   5.196   0.840   7.989
  188POPC   C4B 6586   5.239   0.720   7.547
  189POPC   NC3 6587  38.914  14.747  10.003
  189POPC   PO4 6588  39.157  14.395   9.456
  189POPC   GL1 6589  39.215  14.290   9.075
  189POPC   GL2 6590  39.554  14.195   8.980
  189POPC   C1A 6591  39.019  14.392   8.691
  189POPC   D2A 6592  38.739  14.511   8.375
  189POPC   C3A 6593  38.935  14.609   8.005
  189POPC   C4A 6594  39.220  14.340   7.746
  189POPC   C1B 6595  39.484  14.596   8.766
  189POPC   C2B 6596  39.385  14.524   8.332
  189POPC   C3B 6597  39.431  14.742   7.967
  189POPC   C4B 6598  39.654  14.750   7.612
  190POPC   NC3 6599  23.967  41.440   9.555
  190POPC   PO4 6600  23.385  41.753   9.408
  190POPC   GL1 6601  23.650  41.441   9.118
  190POPC   GL2 6602  23.998  41.482   9.037
  190POPC   C1A 6603  23.781  41.301   8.639
  190POPC   D2A 6604  23.923  41.447   8.212
  190POPC   C3A 6605  23.571  41.378   7.901
  190POPC   C4A 6606  23.601  41.353   7.437
  190POPC   C1B 6607  24.175  41.729   8.701
  190POPC   C2B 6608  24.281  41.968   8.334
  190POPC   C3B 6609  24.236  41.783   7.967
  190POPC   C4B 6610  23.884  41.727   7.684
  191POPC   NC3 6611   5.339  16.245   9.399
  191POPC   PO4 6612   4.913  15.751   9.446
  191POPC   GL1 6613   4.962  15.951   9.079
  191POPC   GL2 6614   5.326  15.850   9.062
  191POPC   C1A 6615   4.623  15.984   8.753
  191POPC   D2A 6616   4.652  15.783   8.358
  191POPC   C3A 6617   5.036  15.893   8.140
  191POPC   C4A 6618   4.952  16.027   7.730
  191POPC   C1B 6619   5.513  15.499   8.825
  191POPC   C2B 6620   5.531  15.383   8.380
  191POPC   C3B 6621   5.424  15.526   7.985
  191POPC   C4B 6622   5.391  15.787   7.664
  192POPC   NC3 6623  21.160  12.583   9.528
  192POPC   PO4 6624  21.652  12.902   9.948
  192POPC   GL1 6625  21.563  12.892   9.398
  192POPC   GL2 6626  21.248  12.923   9.172
  192POPC   C1A 6627  21.606  12.731   8.913
  192POPC   D2A 6628  21.327  12.625   8.566
  192POPC   C3A 6629  21.391  12.821   8.140
  192POPC   C4A 6630  21.402  12.623   7.737
  192POPC   C1B 6631  21.297  13.141   8.775
  192POPC   C2B 6632  21.097  13.406   8.469
  192POPC   C3B 6633  20.971  13.302   8.071
  192POPC   C4B 6634  21.024  12.980   7.785
  193POPC   NC3 6635  32.983  39.139   9.575
  193POPC   PO4 6636  32.581  39.777   9.443
  193POPC   GL1 6637  32.853  39.465   9.197
  193POPC   GL2 6638  32.655  39.128   9.194
  193POPC   C1A 6639  33.231  39.304   8.925
  193POPC   D2A 6640  33.353  39.399   8.487
  193POPC   C3A 6641  33.239  39.193   8.098
  193POPC   C4A 6642  33.031  39.260   7.736
  193POPC   C1B 6643  32.808  39.053   8.781
  193POPC   C2B 6644  32.850  38.998   8.354
  193POPC   C3B 6645  32.630  39.074   7.974
  193POPC   C4B 6646  32.643  39.005   7.494
  194POPC   NC3 6647   0.196  42.142   9.418
  194POPC   PO4 6648  44.563  42.216   9.553
  194POPC   GL1 6649  44.724  42.292   9.189
  194POPC   GL2 6650  44.503  42.565   9.145
  194POPC   C1A 6651  44.719  42.076   8.797
  194POPC   D2A 6652  44.897  41.995   8.400
  194POPC   C3A 6653  44.596  42.062   8.088
  194POPC   C4A 6654  44.658  42.163   7.683
  194POPC   C1B 6655  44.732  42.604   8.777
  194POPC   C2B 6656  44.648  42.472   8.393
  194POPC   C3B 6657  44.684  42.563   7.982
  194POPC   C4B 6658  44.614  42.846   7.724
  195POPC   NC3 6659   9.110  42.769   9.676
  195POPC   PO4 6660   8.866  43.405   9.476
  195POPC   GL1 6661   9.043  43.141   9.120
  195POPC   GL2 6662   8.999  42.762   9.174
  195POPC   C1A 6663   9.096  43.273   8.669
  195POPC   D2A 6664   9.156  43.488   8.254
  195POPC   C3A 6665   8.941  43.294   7.917
  195POPC   C4A 6666   9.134  42.942   7.800
  195POPC   C1B 6667   8.825  42.817   8.750
  195POPC   C2B 6668   8.876  42.947   8.314
  195POPC   C3B 6669   8.622  42.881   7.959
  195POPC   C4B 6670   8.714  42.757   7.570
  196POPC   NC3 6671  12.690  26.647   9.663
  196POPC   PO4 6672  13.052  27.179   9.725
  196POPC   GL1 6673  12.974  26.824   9.288
  196POPC   GL2 6674  12.629  26.729   9.136
  196POPC   C1A 6675  12.951  26.864   8.761
  196POPC   D2A 6676  13.188  27.046   8.388
  196POPC   C3A 6677  13.056  26.891   7.976
  196POPC   C4A 6678  13.136  26.560   7.671
  196POPC   C1B 6679  12.436  26.899   8.715
  196POPC   C2B 6680  12.623  27.098   8.336
  196POPC   C3B 6681  12.559  27.090   7.876
  196POPC   C4B 6682  12.640  26.710   7.697
  197POPC   NC3 6683  13.125  23.066   9.568
  197POPC   PO4 6684  12.474  22.927   9.527
  197POPC   GL1 6685  12.644  23.132   9.175
  197POPC   GL2 6686  12.873  22.889   9.136
  197POPC   C1A 6687  12.776  23.272   8.759
  197POPC   D2A 6688  12.824  23.072   8.349
  197POPC   C3A 6689  12.741  23.279   7.970
  197POPC   C4A 6690  12.512  23.116   7.638
  197POPC   C1B 6691  13.033  22.809   8.737
  197POPC   C2B 6692  13.010  22.587   8.316
  197POPC   C3B 6693  12.789  22.722   7.932
  197POPC   C4B 6694  12.883  22.541   7.531
  198POPC   NC3 6695  33.144  27.817   9.691
  198POPC   PO4 6696  32.950  27.184   9.652
  198POPC   GL1 6697  32.979  27.381   9.219
  198POPC   GL2 6698  32.816  27.676   9.250
  198POPC   C1A 6699  33.187  27.474   8.793
  198POPC   D2A 6700  33.450  27.526   8.407
  198POPC   C3A 6701  33.328  27.458   7.987
  198POPC   C4A 6702  32.925  27.262   7.913
  198POPC   C1B 6703  32.728  27.700   8.753
  198POPC   C2B 6704  32.870  27.614   8.316
  198POPC   C3B 6705  32.948  27.783   7.909
  198POPC   C4B 6706  33.322  27.898   7.668
  199POPC   NC3 6707  19.314  29.971   9.569
  199POPC   PO4 6708  19.884  29.809   9.362
  199POPC   GL1 6709  20.026  29.603   8.981
  199POPC   GL2 6710  19.803  29.844   8.821
  199POPC   C1A 6711  20.097  29.628   8.489
  199POPC   D2A 6712  19.874  29.961   8.229
  199POPC   C3A 6713  19.564  29.960   7.903
  199POPC   C4A 6714  19.497  30.181   7.490
  199POPC   C1B 6715  19.943  30.261   8.646
  199POPC   C2B 6716  20.030  30.455   8.226
  199POPC   C3B 6717  19.892  30.373   7.770
  199POPC   C4B 6718  19.973  30.300   7.299
  200POPC   NC3 6719  42.933  39.946   9.512
  200POPC   PO4 6720  42.475  40.250   9.230
  200POPC   GL1 6721  42.924  40.288   9.121
  200POPC   GL2 6722  43.270  40.155   9.197
  200POPC   C1A 6723  43.142  40.486   8.834
  200POPC   D2A 6724  43.104  40.556   8.459
  200POPC   C3A 6725  43.127  40.218   8.186
  200POPC   C4A 6726  43.100  40.349   7.762
  200POPC   C1B 6727  43.352  40.005   8.776
  200POPC   C2B 6728  43.665  39.963   8.463
  200POPC   C3B 6729  43.587  39.996   8.060
  200POPC   C4B 6730  43.280  39.869   7.814
  201POPC   NC3 6731  29.337  20.550   9.495
  201POPC   PO4 6732  28.899  20.987   9.262
  201POPC   GL1 6733  29.200  20.716   9.007
  201POPC   GL2 6734  29.261  20.345   9.047
  201POPC   C1A 6735  28.993  20.686   8.614
  201POPC   D2A 6736  28.803  20.905   8.280
  201POPC   C3A 6737  29.140  20.914   8.006
  201POPC   C4A 6738  29.040  20.772   7.614
  201POPC   C1B 6739  29.283  20.275   8.634
  201POPC   C2B 6740  29.284  20.482   8.253
  201POPC   C3B 6741  29.099  20.359   7.911
  201POPC   C4B 6742  29.253  20.289   7.530
  202POPC   NC3 6743  24.547  31.137   9.519
  202POPC   PO4 6744  24.581  30.516   9.468
  202POPC   GL1 6745  24.322  30.624   9.138
  202POPC   GL2 6746  24.371  30.956   9.093
  202POPC   C1A 6747  24.289  30.603   8.699
  202POPC   D2A 6748  24.121  30.427   8.339
  202POPC   C3A 6749  24.328  30.419   7.978
  202POPC   C4A 6750  24.542  30.703   7.751
  202POPC   C1B 6751  24.311  31.139   8.711
  202POPC   C2B 6752  24.396  30.976   8.321
  202POPC   C3B 6753  24.716  31.092   8.046
  202POPC   C4B 6754  24.705  31.170   7.609
  203POPC   NC3 6755  17.094  40.245   9.413
  203POPC   PO4 6756  16.422  40.194   9.453
  203POPC   GL1 6757  16.485  39.923   9.122
  203POPC   GL2 6758  16.845  39.872   9.123
  203POPC   C1A 6759  16.512  39.969   8.688
  203POPC   D2A 6760  16.659  40.175   8.323
  203POPC   C3A 6761  16.584  39.953   7.933
  203POPC   C4A 6762  16.361  40.116   7.596
  203POPC   C1B 6763  17.070  39.907   8.720
  203POPC   C2B 6764  17.169  40.225   8.390
  203POPC   C3B 6765  17.055  40.165   7.987
  203POPC   C4B 6766  17.105  39.755   7.837
  204POPC   NC3 6767  23.827  26.876   9.584
  204POPC   PO4 6768  23.131  26.958   9.535
  204POPC   GL1 6769  23.430  26.826   9.160
  204POPC   GL2 6770  23.810  26.713   9.109
  204POPC   C1A 6771  23.530  26.949   8.744
  204POPC   D2A 6772  23.785  26.952   8.375
  204POPC   C3A 6773  23.570  26.961   7.995
  204POPC   C4A 6774  23.768  26.784   7.625
  204POPC   C1B 6775  23.806  26.505   8.713
  204POPC   C2B 6776  23.922  26.316   8.316
  204POPC   C3B 6777  23.996  26.382   7.844
  204POPC   C4B 6778  23.893  26.347   7.366
  205POPC   NC3 6779  39.632  14.279   9.489
  205POPC   PO4 6780  40.212  14.493   9.325
  205POPC   GL1 6781  40.030  14.391   8.983
  205POPC   GL2 6782  40.298  14.211   8.894
  205POPC   C1A 6783  39.905  14.415   8.564
  205POPC   D2A 6784  39.917  14.618   8.161
  205POPC   C3A 6785  39.731  14.320   7.861
  205POPC   C4A 6786  39.782  14.311   7.390
  205POPC   C1B 6787  40.425  14.130   8.511
  205POPC   C2B 6788  40.220  14.200   8.145
  205POPC   C3B 6789  40.183  13.947   7.787
  205POPC   C4B 6790  39.932  13.844   7.433
  206POPC   NC3 6791  39.235  10.645   9.569
  206POPC   PO4 6792  39.215  10.017   9.493
  206POPC   GL1 6793  39.401  10.300   9.162
  206POPC   GL2 6794  39.251  10.646   9.067
  206POPC   C1A 6795  39.354  10.267   8.723
  206POPC   D2A 6796  39.575  10.336   8.365
  206POPC   C3A 6797  39.407  10.310   7.945
  206POPC   C4A 6798  39.332  10.394   7.492
  206POPC   C1B 6799  39.086  10.709   8.646
  206POPC   C2B 6800  39.219  10.721   8.222
  206POPC   C3B 6801  39.115  10.735   7.784
  206POPC   C4B 6802  39.412  10.891   7.458
  207POPC   NC3 6803   7.243   5.424   9.454
  207POPC   PO4 6804   7.588   4.851   9.608
  207POPC   GL1 6805   7.397   4.970   9.136
  207POPC   GL2 6806   7.227   5.311   8.982
  207POPC   C1A 6807   7.365   4.992   8.648
  207POPC   D2A 6808   7.378   5.337   8.402
  207POPC   C3A 6809   7.421   5.270   7.990
  207POPC   C4A 6810   7.363   4.931   7.760
  207POPC   C1B 6811   7.648   5.410   8.838
  207POPC   C2B 6812   7.868   5.484   8.437
  207POPC   C3B 6813   7.941   5.424   7.995
  207POPC   C4B 6814   7.740   5.406   7.597
  208POPC   NC3 6815   7.335  31.050   9.277
  208POPC   PO4 6816   6.764  31.228   9.511
  208POPC   GL1 6817   6.603  31.453   9.106
  208POPC   GL2 6818   6.742  31.773   9.033
  208POPC   C1A 6819   6.363  31.632   8.724
  208POPC   D2A 6820   6.325  31.655   8.261
  208POPC   C3A 6821   6.557  31.327   8.063
  208POPC   C4A 6822   6.461  31.335   7.638
  208POPC   C1B 6823   6.854  31.483   8.651
  208POPC   C2B 6824   6.889  31.688   8.260
  208POPC   C3B 6825   6.809  31.711   7.847
  208POPC   C4B 6826   6.969  31.301   7.714
  209POPC   NC3 6827   1.487  24.759   9.522
  209POPC   PO4 6828   0.976  24.321   9.411
  209POPC   GL1 6829   1.079  24.397   9.030
  209POPC   GL2 6830   1.386  24.485   9.095
  209POPC   C1A 6831   1.134  24.542   8.631
  209POPC   D2A 6832   1.263  24.396   8.256
  209POPC   C3A 6833   0.992  24.495   7.966
  209POPC   C4A 6834   1.013  24.761   7.642
  209POPC   C1B 6835   1.528  24.810   8.836
  209POPC   C2B 6836   1.617  24.761   8.404
  209POPC   C3B 6837   1.419  24.842   7.984
  209POPC   C4B 6838   1.523  24.812   7.538
  210POPC   NC3 6839  39.485  20.732   9.466
  210POPC   PO4 6840  39.324  20.079   9.577
  210POPC   GL1 6841  39.135  20.380   9.204
  210POPC   GL2 6842  39.289  20.707   8.994
  210POPC   C1A 6843  38.880  20.405   8.773
  210POPC   D2A 6844  38.929  20.666   8.383
  210POPC   C3A 6845  38.930  20.476   7.976
  210POPC   C4A 6846  39.205  20.380   7.668
  210POPC   C1B 6847  39.524  21.037   8.667
  210POPC   C2B 6848  39.649  20.918   8.281
  210POPC   C3B 6849  39.428  20.738   7.969
  210POPC   C4B 6850  39.391  20.823   7.541
  211POPC   NC3 6851  37.217  14.988   9.526
  211POPC   PO4 6852  36.685  15.389   9.422
  211POPC   GL1 6853  36.749  15.147   9.068
  211POPC   GL2 6854  37.091  15.179   9.075
  211POPC   C1A 6855  36.898  15.211   8.616
  211POPC   D2A 6856  37.195  15.396   8.323
  211POPC   C3A 6857  36.898  15.422   8.002
  211POPC   C4A 6858  36.581  15.205   7.772
  211POPC   C1B 6859  37.281  14.873   8.778
  211POPC   C2B 6860  37.332  14.697   8.353
  211POPC   C3B 6861  37.322  14.976   8.016
  211POPC   C4B 6862  37.281  15.270   7.695
  212POPC   NC3 6863  24.400  17.975   9.379
  212POPC   PO4 6864  24.860  18.506   9.294
  212POPC   GL1 6865  24.528  18.340   9.035
  212POPC   GL2 6866  24.213  18.109   8.936
  212POPC   C1A 6867  24.631  18.237   8.620
  212POPC   D2A 6868  24.824  18.347   8.239
  212POPC   C3A 6869  24.579  18.142   7.996
  212POPC   C4A 6870  24.681  18.017   7.657
  212POPC   C1B 6871  24.195  18.508   8.701
  212POPC   C2B 6872  24.342  18.530   8.268
  212POPC   C3B 6873  24.301  18.537   7.797
  212POPC   C4B 6874  24.292  18.254   7.424
  213POPC   NC3 6875  16.134   7.585   9.478
  213POPC   PO4 6876  15.544   7.514   9.353
  213POPC   GL1 6877  15.904   7.337   9.097
  213POPC   GL2 6878  16.226   7.521   8.991
  213POPC   C1A 6879  16.081   7.169   8.689
  213POPC   D2A 6880  16.159   7.381   8.277
  213POPC   C3A 6881  16.027   7.209   7.858
  213POPC   C4A 6882  15.767   7.458   7.518
  213POPC   C1B 6883  15.860   7.687   8.730
  213POPC   C2B 6884  15.661   7.687   8.321
  213POPC   C3B 6885  15.876   7.702   7.953
  213POPC   C4B 6886  16.256   7.659   7.737
  214POPC   NC3 6887  35.329  13.694   9.451
  214POPC   PO4 6888  34.881  13.253   9.576
  214POPC   GL1 6889  35.150  13.323   9.171
  214POPC   GL2 6890  35.496  13.447   9.022
  214POPC   C1A 6891  35.073  13.597   8.833
  214POPC   D2A 6892  35.322  13.517   8.477
  214POPC   C3A 6893  35.176  13.575   8.091
  214POPC   C4A 6894  35.224  13.448   7.693
  214POPC   C1B 6895  35.481  13.895   8.761
  214POPC   C2B 6896  35.379  14.039   8.323
  214POPC   C3B 6897  35.582  13.876   7.974
  214POPC   C4B 6898  35.595  13.756   7.548
  215POPC   NC3 6899  43.842  23.750   9.440
  215POPC   PO4 6900  44.159  23.141   9.471
  215POPC   GL1 6901  43.931  23.394   9.076
  215POPC   GL2 6902  43.991  23.767   8.961
  215POPC   C1A 6903  43.809  23.473   8.581
  215POPC   D2A 6904  43.869  23.752   8.190
  215POPC   C3A 6905  43.814  23.592   7.754
  215POPC   C4A 6906  43.996  23.429   7.351
  215POPC   C1B 6907  43.702  24.061   8.782
  215POPC   C2B 6908  43.546  24.156   8.377
  215POPC   C3B 6909  43.702  24.185   7.963
  215POPC   C4B 6910  43.516  23.988   7.629
  216POPC   NC3 6911  44.982  22.187   9.872
  216POPC   PO4 6912   0.472  21.932   9.402
  216POPC   GL1 6913   0.351  22.115   9.055
  216POPC   GL2 6914   0.014  22.019   8.993
  216POPC   C1A 6915   0.513  22.238   8.689
  216POPC   D2A 6916   0.640  22.230   8.302
  216POPC   C3A 6917   0.410  21.898   8.099
  216POPC   C4A 6918   0.550  22.023   7.726
  216POPC   C1B 6919   0.024  22.389   8.733
  216POPC   C2B 6920   0.102  22.258   8.345
  216POPC   C3B 6921   0.245  22.400   7.992
  216POPC   C4B 6922   0.065  22.210   7.698
  217POPC   NC3 6923  34.950  30.834   9.485
  217POPC   PO4 6924  34.351  30.625   9.438
  217POPC   GL1 6925  34.613  30.684   9.097
  217POPC   GL2 6926  34.915  30.868   8.981
  217POPC   C1A 6927  34.637  30.488   8.749
  217POPC   D2A 6928  34.465  30.273   8.482
  217POPC   C3A 6929  34.599  30.438   8.101
  217POPC   C4A 6930  34.678  30.324   7.701
  217POPC   C1B 6931  34.682  30.996   8.683
  217POPC   C2B 6932  34.445  30.837   8.376
  217POPC   C3B 6933  34.677  30.941   7.991
  217POPC   C4B 6934  34.823  30.826   7.571
  218POPC   NC3 6935  25.794  25.681   9.351
  218POPC   PO4 6936  25.890  24.987   9.167
  218POPC   GL1 6937  26.039  25.368   9.028
  218POPC   GL2 6938  26.351  25.490   9.094
  218POPC   C1A 6939  25.951  25.321   8.625
  218POPC   D2A 6940  25.809  24.989   8.392
  218POPC   C3A 6941  25.935  25.127   8.013
  218POPC   C4A 6942  25.868  25.258   7.574
  218POPC   C1B 6943  26.341  25.641   8.684
  218POPC   C2B 6944  26.256  25.783   8.267
  218POPC   C3B 6945  26.156  25.589   7.870
  218POPC   C4B 6946  26.301  25.591   7.432
  219POPC   NC3 6947  36.563   1.655   9.564
  219POPC   PO4 6948  36.902   2.233   9.568
  219POPC   GL1 6949  36.796   1.974   9.175
  219POPC   GL2 6950  36.568   2.247   9.070
  219POPC   C1A 6951  36.935   1.691   8.776
  219POPC   D2A 6952  37.016   1.511   8.322
  219POPC   C3A 6953  36.932   1.741   7.934
  219POPC   C4A 6954  36.764   1.702   7.510
  219POPC   C1B 6955  36.651   2.134   8.636
  219POPC   C2B 6956  36.596   2.019   8.211
  219POPC   C3B 6957  36.531   2.061   7.776
  219POPC   C4B 6958  36.775   2.220   7.401
  220POPC   NC3 6959  10.536  36.972   9.523
  220POPC   PO4 6960  10.116  36.459   9.401
  220POPC   GL1 6961  10.320  36.813   9.102
  220POPC   GL2 6962  10.245  37.233   9.219
  220POPC   C1A 6963  10.695  36.884   8.804
  220POPC   D2A 6964  10.898  36.853   8.368
  220POPC   C3A 6965  10.630  36.877   7.987
  220POPC   C4A 6966  10.164  36.863   7.951
  220POPC   C1B 6967  10.359  37.264   8.818
  220POPC   C2B 6968  10.364  37.081   8.414
  220POPC   C3B 6969  10.360  37.325   8.050
  220POPC   C4B 6970  10.362  37.240   7.638
  221POPC   NC3 6971  42.697  27.217   9.396
  221POPC   PO4 6972  42.259  27.762   9.478
  221POPC   GL1 6973  42.333  27.483   9.138
  221POPC   GL2 6974  42.590  27.732   9.072
  221POPC   C1A 6975  42.272  27.533   8.686
  221POPC   D2A 6976  42.434  27.604   8.278
  221POPC   C3A 6977  42.289  27.832   7.969
  221POPC   C4A 6978  41.979  27.569   7.851
  221POPC   C1B 6979  42.762  27.441   8.800
  221POPC   C2B 6980  42.650  27.191   8.477
  221POPC   C3B 6981  42.788  27.281   8.084
  221POPC   C4B 6982  42.578  27.470   7.768
  222POPC   NC3 6983  30.809  32.689   9.509
  222POPC   PO4 6984  30.248  33.093   9.472
  222POPC   GL1 6985  30.626  33.112   9.223
  222POPC   GL2 6986  30.935  33.313   9.171
  222POPC   C1A 6987  30.676  33.003   8.815
  222POPC   D2A 6988  30.501  33.045   8.423
  222POPC   C3A 6989  30.780  32.978   8.097
  222POPC   C4A 6990  30.548  32.838   7.733
  222POPC   C1B 6991  31.106  33.274   8.747
  222POPC   C2B 6992  31.218  33.422   8.347
  222POPC   C3B 6993  31.204  33.400   7.917
  222POPC   C4B 6994  30.862  33.256   7.687
  223POPC   NC3 6995  10.066  26.402   9.319
  223POPC   PO4 6996   9.686  26.900   9.547
  223POPC   GL1 6997   9.611  26.668   9.188
  223POPC   GL2 6998   9.821  26.880   9.038
  223POPC   C1A 6999   9.560  26.569   8.750
  223POPC   D2A 7000   9.572  26.827   8.395
  223POPC   C3A 7001   9.622  26.577   8.042
  223POPC   C4A 7002   9.601  26.648   7.579
  223POPC   C1B 7003  10.026  26.837   8.686
  223POPC   C2B 7004  10.038  26.964   8.260
  223POPC   C3B 7005   9.916  26.970   7.856
  223POPC   C4B 7006  10.047  27.341   7.578
  224POPC   NC3 7007  21.578  31.130   9.511
  224POPC   PO4 7008  21.640  31.766   9.466
  224POPC   GL1 7009  21.646  31.434   9.113
  224POPC   GL2 7010  21.399  31.117   9.044
  224POPC   C1A 7011  21.533  31.488   8.695
  224POPC   D2A 7012  21.476  31.556   8.253
  224POPC   C3A 7013  21.288  31.337   7.931
  224POPC   C4A 7014  21.294  31.538   7.526
  224POPC   C1B 7015  21.730  31.001   8.778
  224POPC   C2B 7016  21.825  31.199   8.404
  224POPC   C3B 7017  21.829  31.239   7.989
  224POPC   C4B 7018  21.657  31.206   7.592
  225POPC   NC3 7019  31.459  42.434   9.571
  225POPC   PO4 7020  31.772  41.870   9.384
  225POPC   GL1 7021  31.665  42.244   9.147
  225POPC   GL2 7022  31.272  42.351   9.099
  225POPC   C1A 7023  31.651  42.397   8.748
  225POPC   D2A 7024  31.260  42.206   8.599
  225POPC   C3A 7025  31.381  42.116   8.207
  225POPC   C4A 7026  31.326  42.197   7.796
  225POPC   C1B 7027  31.242  42.694   8.754
  225POPC   C2B 7028  31.519  42.777   8.408
  225POPC   C3B 7029  31.532  42.637   7.985
  225POPC   C4B 7030  31.253  42.656   7.604
  226POPC   NC3 7031  21.260  11.757   9.539
  226POPC   PO4 7032  21.557  12.362   9.433
  226POPC   GL1 7033  21.293  12.157   9.166
  226POPC   GL2 7034  21.146  12.436   9.005
  226POPC   C1A 7035  21.262  11.774   8.885
  226POPC   D2A 7036  21.246  11.624   8.457
  226POPC   C3A 7037  21.393  11.774   8.034
  226POPC   C4A 7038  21.563  11.798   7.606
  226POPC   C1B 7039  21.011  12.158   8.651
  226POPC   C2B 7040  20.963  12.066   8.196
  226POPC   C3B 7041  21.068  12.064   7.751
  226POPC   C4B 7042  21.319  12.215   7.401
  227POPC   NC3 7043   1.811   4.524   9.533
  227POPC   PO4 7044   2.458   4.528   9.328
  227POPC   GL1 7045   2.082   4.442   9.053
  227POPC   GL2 7046   1.740   4.261   9.111
  227POPC   C1A 7047   1.910   4.320   8.626
  227POPC   D2A 7048   1.842   3.973   8.312
  227POPC   C3A 7049   1.947   4.169   7.894
  227POPC   C4A 7050   2.262   4.517   7.829
  227POPC   C1B 7051   1.627   4.657   8.906
  227POPC   C2B 7052   1.653   4.790   8.475
  227POPC   C3B 7053   1.727   4.622   8.052
  227POPC   C4B 7054   1.783   4.570   7.612
  228POPC   NC3 7055  33.534  20.880   9.475
  228POPC   PO4 7056  33.993  20.438   9.474
  228POPC   GL1 7057  33.843  20.625   9.114
  228POPC   GL2 7058  33.515  20.516   9.124
  228POPC   C1A 7059  33.880  20.791   8.686
  228POPC   D2A 7060  33.830  21.022   8.306
  228POPC   C3A 7061  33.970  20.778   7.933
  228POPC   C4A 7062  33.787  20.618   7.538
  228POPC   C1B 7063  33.354  20.709   8.745
  228POPC   C2B 7064  33.534  20.600   8.353
  228POPC   C3B 7065  33.601  20.427   7.978
  228POPC   C4B 7066  33.300  20.487   7.663
  229POPC   NC3 7067  32.447  10.508   9.340
  229POPC   PO4 7068  31.788  10.565   9.449
  229POPC   GL1 7069  32.004  10.559   9.067
  229POPC   GL2 7070  32.100  10.190   9.108
  229POPC   C1A 7071  32.220  10.744   8.685
  229POPC   D2A 7072  32.325  10.890   8.249
  229POPC   C3A 7073  32.293  10.610   7.891
  229POPC   C4A 7074  32.020  10.769   7.660
  229POPC   C1B 7075  32.070  10.244   8.677
  229POPC   C2B 7076  32.090  10.414   8.301
  229POPC   C3B 7077  31.842  10.373   7.949
  229POPC   C4B 7078  31.769  10.031   7.718
  230POPC   NC3 7079  27.820  16.219   9.546
  230POPC   PO4 7080  27.304  16.664   9.334
  230POPC   GL1 7081  27.693  16.832   9.157
  230POPC   GL2 7082  27.697  16.510   9.009
  230POPC   C1A 7083  27.914  16.921   8.755
  230POPC   D2A 7084  27.839  16.730   8.341
  230POPC   C3A 7085  27.849  16.940   7.935
  230POPC   C4A 7086  27.649  16.887   7.534
  230POPC   C1B 7087  27.439  16.726   8.706
  230POPC   C2B 7088  27.269  16.880   8.345
  230POPC   C3B 7089  27.429  16.658   8.005
  230POPC   C4B 7090  27.264  16.586   7.640
  231POPC   NC3 7091  29.325  38.220   9.550
  231POPC   PO4 7092  29.007  38.837   9.533
  231POPC   GL1 7093  29.283  38.609   9.215
  231POPC   GL2 7094  29.071  38.441   9.028
  231POPC   C1A 7095  29.500  38.636   8.800
  231POPC   D2A 7096  29.371  38.470   8.367
  231POPC   C3A 7097  29.438  38.580   7.925
  231POPC   C4A 7098  29.548  38.283   7.587
  231POPC   C1B 7099  28.935  38.339   8.614
  231POPC   C2B 7100  28.867  38.460   8.262
  231POPC   C3B 7101  28.767  38.220   7.928
  231POPC   C4B 7102  29.056  38.333   7.655
  232POPC   NC3 7103   7.998   5.615   9.368
  232POPC   PO4 7104   8.324   6.131   9.542
  232POPC   GL1 7105   8.217   6.036   9.108
  232POPC   GL2 7106   7.858   5.991   9.082
  232POPC   C1A 7107   8.209   5.764   8.714
  232POPC   D2A 7108   8.417   5.814   8.299
  232POPC   C3A 7109   8.421   5.558   7.916
  232POPC   C4A 7110   8.280   5.577   7.479
  232POPC   C1B 7111   7.897   6.186   8.721
  232POPC   C2B 7112   7.883   5.991   8.355
  232POPC   C3B 7113   8.061   5.955   7.991
  232POPC   C4B 7114   7.921   5.881   7.658
  233POPC   NC3 7115  28.195  10.561   9.484
  233POPC   PO4 7116  28.748  10.897   9.412
  233POPC   GL1 7117  28.640  10.570   9.067
  233POPC   GL2 7118  28.336  10.337   9.065
  233POPC   C1A 7119  28.440  10.538   8.624
  233POPC   D2A 7120  28.240  10.261   8.318
  233POPC   C3A 7121  28.421  10.369   7.961
  233POPC   C4A 7122  28.602  10.761   7.822
  233POPC   C1B 7123  28.014  10.186   8.769
  233POPC   C2B 7124  27.742  10.150   8.355
  233POPC   C3B 7125  27.882  10.226   7.916
  233POPC   C4B 7126  28.025  10.621   7.723
  234POPC   NC3 7127  27.332  42.805   9.355
  234POPC   PO4 7128  27.826  43.269   9.535
  234POPC   GL1 7129  27.729  43.327   9.149
  234POPC   GL2 7130  27.423  43.333   9.104
  234POPC   C1A 7131  27.814  43.278   8.735
  234POPC   D2A 7132  27.748  43.040   8.357
  234POPC   C3A 7133  27.700  43.197   7.930
  234POPC   C4A 7134  27.836  43.014   7.495
  234POPC   C1B 7135  27.335  43.113   8.737
  234POPC   C2B 7136  27.193  43.207   8.325
  234POPC   C3B 7137  27.173  43.005   7.929
  234POPC   C4B 7138  27.360  43.222   7.549
  235POPC   NC3 7139   6.939  40.077   9.363
  235POPC   PO4 7140   6.476  39.646   9.514
  235POPC   GL1 7141   6.486  39.880   9.132
  235POPC   GL2 7142   6.783  39.683   9.084
  235POPC   C1A 7143   6.662  40.120   8.782
  235POPC   D2A 7144   6.643  40.185   8.366
  235POPC   C3A 7145   6.770  40.113   7.966
  235POPC   C4A 7146   6.492  39.883   7.695
  235POPC   C1B 7147   7.036  39.738   8.748
  235POPC   C2B 7148   6.920  39.759   8.345
  235POPC   C3B 7149   6.904  39.629   7.966
  235POPC   C4B 7150   7.038  39.758   7.604
  236POPC   NC3 7151  44.967  39.797   9.766
  236POPC   PO4 7152  44.673  40.394   9.473
  236POPC   GL1 7153  44.861  40.215   9.091
  236POPC   GL2 7154  44.975  39.884   9.125
  236POPC   C1A 7155  44.632  40.028   8.708
  236POPC   D2A 7156  44.403  40.096   8.324
  236POPC   C3A 7157  44.519  39.944   7.914
  236POPC   C4A 7158  44.439  40.294   7.614
  236POPC   C1B 7159   0.028  39.730   8.696
  236POPC   C2B 7160   0.002  39.878   8.250
  236POPC   C3B 7161   0.020  39.825   7.799
  236POPC   C4B 7162  44.777  39.965   7.447
  237POPC   NC3 7163  26.116  22.497   9.863
  237POPC   PO4 7164  25.655  22.374   9.361
  237POPC   GL1 7165  25.877  22.385   9.051
  237POPC   GL2 7166  26.046  22.101   9.055
  237POPC   C1A 7167  25.800  22.247   8.646
  237POPC   D2A 7168  26.111  22.259   8.388
  237POPC   C3A 7169  25.975  22.478   8.072
  237POPC   C4A 7170  25.912  22.283   7.736
  237POPC   C1B 7171  26.272  21.864   8.734
  237POPC   C2B 7172  26.384  21.823   8.320
  237POPC   C3B 7173  26.490  22.171   8.064
  237POPC   C4B 7174  26.362  21.987   7.724
  238POPC   NC3 7175   6.290  10.675   9.773
  238POPC   PO4 7176   5.700  10.740   9.528
  238POPC   GL1 7177   5.846  10.472   9.186
  238POPC   GL2 7178   5.631  10.188   9.085
  238POPC   C1A 7179   5.981  10.630   8.780
  238POPC   D2A 7180   5.998  10.488   8.360
  238POPC   C3A 7181   6.098  10.728   8.015
  238POPC   C4A 7182   5.872  10.522   7.693
  238POPC   C1B 7183   5.864  10.123   8.688
  238POPC   C2B 7184   5.910   9.997   8.219
  238POPC   C3B 7185   6.016   9.989   7.768
  238POPC   C4B 7186   5.873  10.117   7.330
  239POPC   NC3 7187  21.901  25.277   9.594
  239POPC   PO4 7188  22.487  25.512   9.705
  239POPC   GL1 7189  22.293  25.342   9.262
  239POPC   GL2 7190  22.023  25.536   9.154
  239POPC   C1A 7191  22.113  25.094   8.852
  239POPC   D2A 7192  21.881  25.152   8.442
  239POPC   C3A 7193  22.045  25.094   8.032
  239POPC   C4A 7194  21.804  25.092   7.655
  239POPC   C1B 7195  22.199  25.593   8.786
  239POPC   C2B 7196  22.139  25.580   8.377
  239POPC   C3B 7197  22.029  25.598   7.991
  239POPC   C4B 7198  22.294  25.450   7.685
  240POPC   NC3 7199  34.292   0.691   9.497
  240POPC   PO4 7200  34.959   0.715   9.421
  240POPC   GL1 7201  34.715   0.466   9.122
  240POPC   GL2 7202  34.377   0.308   9.126
  240POPC   C1A 7203  34.643   0.419   8.693
  240POPC   D2A 7204  34.802   0.615   8.341
  240POPC   C3A 7205  34.776   0.475   7.943
  240POPC   C4A 7206  34.985   0.581   7.587
  240POPC   C1B 7207  34.204   0.636   8.847
  240POPC   C2B 7208  34.294   0.756   8.426
  240POPC   C3B 7209  34.274   0.544   8.042
  240POPC   C4B 7210  34.359   0.574   7.627
  241POPC   NC3 7211  40.015  42.710   9.670
  241POPC   PO4 7212  40.331  43.305   9.699
  241POPC   GL1 7213  40.341  43.216   9.271
  241POPC   GL2 7214  40.155  42.926   9.207
  241POPC   C1A 7215  40.265  43.336   8.862
  241POPC   D2A 7216  39.936  43.337   8.551
  241POPC   C3A 7217  40.026  43.229   8.130
  241POPC   C4A 7218  40.219  43.203   7.733
  241POPC   C1B 7219  40.024  42.864   8.757
  241POPC   C2B 7220  39.995  42.730   8.304
  241POPC   C3B 7221  39.881  42.835   7.840
  241POPC   C4B 7222  39.734  42.794   7.386
  242POPC   NC3 7223   5.612  25.512   9.474
  242POPC   PO4 7224   6.065  25.088   9.717
  242POPC   GL1 7225   5.925  25.133   9.275
  242POPC   GL2 7226   5.933  25.483   9.079
  242POPC   C1A 7227   5.928  25.028   8.860
  242POPC   D2A 7228   5.956  25.317   8.536
  242POPC   C3A 7229   5.967  25.216   8.128
  242POPC   C4A 7230   6.078  25.423   7.754
  242POPC   C1B 7231   5.538  25.391   8.827
  242POPC   C2B 7232   5.429  25.493   8.404
  242POPC   C3B 7233   5.591  25.587   8.001
  242POPC   C4B 7234   5.584  25.341   7.635
  243POPC   NC3 7235   1.497  11.523   9.298
  243POPC   PO4 7236   0.908  11.224   9.520
  243POPC   GL1 7237   0.975  11.132   9.089
  243POPC   GL2 7238   1.329  11.134   9.041
  243POPC   C1A 7239   1.030  11.381   8.712
  243POPC   D2A 7240   1.153  11.606   8.351
  243POPC   C3A 7241   1.126  11.353   7.995
  243POPC   C4A 7242   1.239  11.549   7.618
  243POPC   C1B 7243   1.528  11.362   8.658
  243POPC   C2B 7244   1.756  11.502   8.289
  243POPC   C3B 7245   1.634  11.359   7.897
  243POPC   C4B 7246   1.540  11.142   7.524
  244POPC   NC3 7247  12.588   2.001   9.644
  244POPC   PO4 7248  13.144   2.299   9.477
  244POPC   GL1 7249  12.946   2.156   9.099
  244POPC   GL2 7250  12.625   2.015   9.140
  244POPC   C1A 7251  13.125   2.021   8.695
  244POPC   D2A 7252  12.918   1.787   8.349
  244POPC   C3A 7253  12.933   1.941   7.945
  244POPC   C4A 7254  13.075   1.725   7.609
  244POPC   C1B 7255  12.634   1.976   8.711
  244POPC   C2B 7256  12.493   2.113   8.301
  244POPC   C3B 7257  12.416   1.998   7.874
  244POPC   C4B 7258  12.413   2.242   7.531
  245POPC   NC3 7259   5.129  29.628   9.312
  245POPC   PO4 7260   4.838  29.088   9.688
  245POPC   GL1 7261   5.062  29.070   9.224
  245POPC   GL2 7262   5.381  29.227   9.065
  245POPC   C1A 7263   5.006  29.119   8.774
  245POPC   D2A 7264   5.018  28.979   8.374
  245POPC   C3A 7265   5.106  29.241   8.066
  245POPC   C4A 7266   4.988  29.075   7.723
  245POPC   C1B 7267   5.528  28.955   8.719
  245POPC   C2B 7268   5.515  28.938   8.248
  245POPC   C3B 7269   5.512  29.053   7.803
  245POPC   C4B 7270   5.323  29.155   7.366
  246POPC   NC3 7271   9.420   6.720   9.476
  246POPC   PO4 7272  10.072   6.454   9.502
  246POPC   GL1 7273   9.801   6.521   9.177
  246POPC   GL2 7274   9.767   6.860   9.075
  246POPC   C1A 7275   9.867   6.392   8.773
  246POPC   D2A 7276  10.035   6.495   8.401
  246POPC   C3A 7277   9.832   6.331   8.058
  246POPC   C4A 7278   9.848   6.513   7.691
  246POPC   C1B 7279   9.429   6.680   8.810
  246POPC   C2B 7280   9.487   6.580   8.371
  246POPC   C3B 7281   9.425   6.731   7.955
  246POPC   C4B 7282   9.748   6.985   7.899
  247POPC   NC3 7283  21.980   1.100   9.783
  247POPC   PO4 7284  22.169   0.506   9.417
  247POPC   GL1 7285  21.940   0.443   9.053
  247POPC   GL2 7286  21.767   0.712   8.905
  247POPC   C1A 7287  21.985   0.285   8.645
  247POPC   D2A 7288  22.364   0.369   8.428
  247POPC   C3A 7289  22.288   0.367   7.999
  247POPC   C4A 7290  22.626   0.550   7.827
  247POPC   C1B 7291  22.151   0.798   8.664
  247POPC   C2B 7292  22.117   0.782   8.226
  247POPC   C3B 7293  22.213   0.834   7.787
  247POPC   C4B 7294  21.917   0.800   7.469
  248POPC   NC3 7295  20.564  28.939   9.487
  248POPC   PO4 7296  20.744  29.607   9.583
  248POPC   GL1 7297  20.491  29.394   9.214
  248POPC   GL2 7298  20.746  29.155   9.055
  248POPC   C1A 7299  20.336  29.251   8.774
  248POPC   D2A 7300  20.505  29.052   8.389
  248POPC   C3A 7301  20.320  29.116   7.984
  248POPC   C4A 7302  20.390  28.816   7.693
  248POPC   C1B 7303  20.905  28.903   8.687
  248POPC   C2B 7304  21.019  28.910   8.246
  248POPC   C3B 7305  20.825  29.034   7.835
  248POPC   C4B 7306  20.892  29.435   7.595
  249POPC   NC3 7307   0.892  25.948   9.606
  249POPC   PO4 7308   1.432  26.225   9.241
  249POPC   GL1 7309   1.044  26.286   9.050
  249POPC   GL2 7310   0.818  26.489   9.241
  249POPC   C1A 7311   1.072  26.180   8.608
  249POPC   D2A 7312   1.423  25.929   8.419
  249POPC   C3A 7313   1.576  26.023   8.027
  249POPC   C4A 7314   1.235  25.913   7.776
  249POPC   C1B 7315   0.586  26.445   8.842
  249POPC   C2B 7316   0.648  26.361   8.398
  249POPC   C3B 7317   0.948  26.218   8.069
  249POPC   C4B 7318   0.941  26.380   7.600
  250POPC   NC3 7319  19.815  27.624   9.547
  250POPC   PO4 7320  20.415  27.700   9.293
  250POPC   GL1 7321  20.062  27.464   9.117
  250POPC   GL2 7322  19.677  27.580   9.060
  250POPC   C1A 7323  20.020  27.386   8.707
  250POPC   D2A 7324  19.779  27.727   8.535
  250POPC   C3A 7325  19.852  27.746   8.107
  250POPC   C4A 7326  20.006  27.480   7.772
  250POPC   C1B 7327  19.523  27.301   8.726
  250POPC   C2B 7328  19.715  27.285   8.294
  250POPC   C3B 7329  19.508  27.386   7.912
  250POPC   C4B 7330  19.566  27.404   7.488
  251POPC   NC3 7331  18.084   0.680   9.423
  251POPC   PO4 7332  18.350   0.110   9.587
  251POPC   GL1 7333  18.384   0.370   9.128
  251POPC   GL2 7334  18.111   0.571   8.936
  251POPC   C1A 7335  18.527   0.452   8.663
  251POPC   D2A 7336  18.664   0.462   8.195
  251POPC   C3A 7337  18.438   0.445   7.812
  251POPC   C4A 7338  18.609   0.447   7.385
  251POPC   C1B 7339  18.028   0.223   8.662
  251POPC   C2B 7340  18.176   0.245   8.262
  251POPC   C3B 7341  18.049   0.117   7.881
  251POPC   C4B 7342  17.671   0.163   7.662
  252POPC   NC3 7343  19.360  39.910   9.644
  252POPC   PO4 7344  18.817  39.721   9.264
  252POPC   GL1 7345  19.095  39.991   9.080
  252POPC   GL2 7346  19.361  39.792   8.869
  252POPC   C1A 7347  19.035  40.155   8.694
  252POPC   D2A 7348  19.138  39.961   8.334
  252POPC   C3A 7349  18.958  40.181   8.013
  252POPC   C4A 7350  18.936  40.208   7.591
  252POPC   C1B 7351  19.009  39.547   8.671
  252POPC   C2B 7352  18.809  39.439   8.289
  252POPC   C3B 7353  18.904  39.669   7.957
  252POPC   C4B 7354  19.315  39.829   7.853
  253POPC   NC3 7355  31.599  25.017   9.592
  253POPC   PO4 7356  31.184  25.529   9.664
  253POPC   GL1 7357  31.191  25.252   9.267
  253POPC   GL2 7358  31.558  25.262   9.143
  253POPC   C1A 7359  31.237  25.182   8.784
  253POPC   D2A 7360  31.538  25.337   8.454
  253POPC   C3A 7361  31.362  25.483   8.078
  253POPC   C4A 7362  31.322  25.347   7.661
  253POPC   C1B 7363  31.710  24.985   8.779
  253POPC   C2B 7364  31.652  24.829   8.385
  253POPC   C3B 7365  31.686  25.068   8.024
  253POPC   C4B 7366  31.846  24.982   7.640
  254POPC   NC3 7367  17.909  11.556   9.360
  254POPC   PO4 7368  17.467  11.257   9.720
  254POPC   GL1 7369  17.436  11.336   9.256
  254POPC   GL2 7370  17.114  11.331   9.123
  254POPC   C1A 7371  17.616  11.320   8.809
  254POPC   D2A 7372  17.827  11.307   8.406
  254POPC   C3A 7373  17.562  11.201   8.072
  254POPC   C4A 7374  17.398  11.205   7.665
  254POPC   C1B 7375  17.218  11.620   8.806
  254POPC   C2B 7376  17.292  11.507   8.388
  254POPC   C3B 7377  17.114  11.719   8.019
  254POPC   C4B 7378  17.178  11.660   7.605
  255POPC   NC3 7379  20.325  38.153   9.546
  255POPC   PO4 7380  20.599  37.519   9.556
  255POPC   GL1 7381  20.605  37.733   9.180
  255POPC   GL2 7382  20.928  37.592   9.106
  255POPC   C1A 7383  20.536  37.784   8.719
  255POPC   D2A 7384  20.279  37.697   8.329
  255POPC   C3A 7385  20.365  37.882   7.948
  255POPC   C4A 7386  20.630  37.876   7.619
  255POPC   C1B 7387  20.795  37.333   8.819
  255POPC   C2B 7388  20.778  37.440   8.405
  255POPC   C3B 7389  20.915  37.376   7.992
  255POPC   C4B 7390  20.768  37.171   7.638
  256POPC   NC3 7391  44.519  25.219   9.519
  256POPC   PO4 7392   0.140  25.088   9.496
  256POPC   GL1 7393  44.956  25.241   9.080
  256POPC   GL2 7394  44.598  25.212   9.023
  256POPC   C1A 7395  44.926  25.313   8.646
  256POPC   D2A 7396  44.755  25.309   8.252
  256POPC   C3A 7397  44.994  25.248   7.920
  256POPC   C4A 7398  44.644  25.316   7.650
  256POPC   C1B 7399  44.390  25.240   8.609
  256POPC   C2B 7400  44.268  25.001   8.258
  256POPC   C3B 7401  44.524  24.875   7.898
  256POPC   C4B 7402  44.332  24.756   7.493
  257POPC   NC3 7403  41.578   9.940   9.346
  257POPC   PO4 7404  41.765   9.378   9.703
  257POPC   GL1 7405  41.762   9.483   9.274
  257POPC   GL2 7406  41.413   9.466   9.121
  257POPC   C1A 7407  41.775   9.568   8.814
  257POPC   D2A 7408  41.737   9.714   8.409
  257POPC   C3A 7409  41.508   9.474   8.088
  257POPC   C4A 7410  41.554   9.533   7.642
  257POPC   C1B 7411  41.281   9.737   8.751
  257POPC   C2B 7412  41.295   9.931   8.344
  257POPC   C3B 7413  41.471   9.968   7.949
  257POPC   C4B 7414  41.133   9.810   7.753
  258POPC   NC3 7415  32.490  40.162   9.697
  258POPC   PO4 7416  33.201  40.290   9.630
  258POPC   GL1 7417  33.067  39.993   9.285
  258POPC   GL2 7418  33.075  40.283   9.078
  258POPC   C1A 7419  33.116  39.810   8.844
  258POPC   D2A 7420  33.358  39.956   8.472
  258POPC   C3A 7421  33.348  39.740   8.072
  258POPC   C4A 7422  33.112  39.771   7.711
  258POPC   C1B 7423  32.951  40.269   8.637
  258POPC   C2B 7424  33.115  40.360   8.236
  258POPC   C3B 7425  33.192  40.254   7.829
  258POPC   C4B 7426  32.886  40.361   7.531
  259POPC   NC3 7427  10.370  37.844   9.830
  259POPC   PO4 7428  10.757  37.376   9.478
  259POPC   GL1 7429  10.551  37.725   9.261
  259POPC   GL2 7430  10.805  37.944   9.071
  259POPC   C1A 7431  10.360  37.786   8.864
  259POPC   D2A 7432  10.375  37.622   8.455
  259POPC   C3A 7433  10.623  37.776   8.101
  259POPC   C4A 7434  10.466  37.727   7.709
  259POPC   C1B 7435  10.813  37.570   8.777
  259POPC   C2B 7436  10.813  37.359   8.350
  259POPC   C3B 7437  10.848  37.342   7.882
  259POPC   C4B 7438  10.822  37.253   7.427
  260POPC   NC3 7439  33.899   1.429   9.847
  260POPC   PO4 7440  33.700   2.045   9.527
  260POPC   GL1 7441  33.853   2.009   9.133
  260POPC   GL2 7442  33.589   1.742   9.100
  260POPC   C1A 7443  33.900   1.894   8.705
  260POPC   D2A 7444  33.944   2.049   8.304
  260POPC   C3A 7445  33.974   1.831   7.938
  260POPC   C4A 7446  33.897   2.034   7.546
  260POPC   C1B 7447  33.443   1.675   8.692
  260POPC   C2B 7448  33.427   1.940   8.329
  260POPC   C3B 7449  33.487   1.984   7.889
  260POPC   C4B 7450  33.488   1.745   7.493
  261POPC   NC3 7451  23.589  15.487   9.382
  261POPC   PO4 7452  24.301  15.600   9.430
  261POPC   GL1 7453  24.038  15.338   9.118
  261POPC   GL2 7454  23.751  15.057   9.141
  261POPC   C1A 7455  23.752  15.404   8.765
  261POPC   D2A 7456  23.917  15.555   8.423
  261POPC   C3A 7457  23.782  15.427   8.025
  261POPC   C4A 7458  23.901  15.256   7.667
  261POPC   C1B 7459  23.661  14.919   8.682
  261POPC   C2B 7460  23.475  15.040   8.246
  261POPC   C3B 7461  23.642  14.850   7.862
  261POPC   C4B 7462  23.701  14.778   7.424
  262POPC   NC3 7463  27.509   8.566   9.369
  262POPC   PO4 7464  27.781   9.186   9.409
  262POPC   GL1 7465  27.488   9.051   9.060
  262POPC   GL2 7466  27.295   8.743   8.947
  262POPC   C1A 7467  27.453   9.157   8.650
  262POPC   D2A 7468  27.403   9.143   8.258
  262POPC   C3A 7469  27.739   8.972   8.037
  262POPC   C4A 7470  28.009   8.880   7.753
  262POPC   C1B 7471  27.218   8.717   8.514
  262POPC   C2B 7472  27.497   8.575   8.226
  262POPC   C3B 7473  27.585   8.532   7.829
  262POPC   C4B 7474  27.342   8.456   7.520
  263POPC   NC3 7475  39.858   1.529   9.709
  263POPC   PO4 7476  40.117   2.046   9.433
  263POPC   GL1 7477  40.176   1.807   9.106
  263POPC   GL2 7478  40.210   2.131   8.907
  263POPC   C1A 7479  40.136   1.656   8.697
  263POPC   D2A 7480  40.122   1.922   8.403
  263POPC   C3A 7481  40.303   1.738   8.087
  263POPC   C4A 7482  40.232   1.975   7.740
  263POPC   C1B 7483  39.769   1.976   8.783
  263POPC   C2B 7484  39.668   1.680   8.424
  263POPC   C3B 7485  39.800   1.771   8.026
  263POPC   C4B 7486  39.737   2.118   7.766
  264POPC   NC3 7487   9.835   3.357   9.344
  264POPC   PO4 7488   9.762   2.735   9.573
  264POPC   GL1 7489   9.669   2.668   9.157
  264POPC   GL2 7490   9.502   2.975   9.152
  264POPC   C1A 7491   9.915   2.701   8.793
  264POPC   D2A 7492  10.038   2.447   8.416
  264POPC   C3A 7493  10.036   2.700   8.015
  264POPC   C4A 7494   9.773   2.771   7.654
  264POPC   C1B 7495   9.619   3.144   8.757
  264POPC   C2B 7496   9.738   2.934   8.377
  264POPC   C3B 7497   9.723   3.128   8.010
  264POPC   C4B 7498   9.955   3.236   7.656
  265POPC   NC3 7499   9.966   4.293   9.439
  265POPC   PO4 7500   9.337   4.149   9.553
  265POPC   GL1 7501   9.522   4.331   9.155
  265POPC   GL2 7502   9.839   4.176   8.971
  265POPC   C1A 7503   9.590   4.582   8.777
  265POPC   D2A 7504   9.753   4.407   8.410
  265POPC   C3A 7505   9.563   4.547   8.040
  265POPC   C4A 7506   9.783   4.556   7.662
  265POPC   C1B 7507   9.481   4.064   8.707
  265POPC   C2B 7508   9.499   3.888   8.305
  265POPC   C3B 7509   9.636   4.006   7.885
  265POPC   C4B 7510   9.996   4.090   7.622
  266POPC   NC3 7511  13.865  24.347   9.483
  266POPC   PO4 7512  13.264  24.365   9.400
  266POPC   GL1 7513  13.480  24.467   9.023
  266POPC   GL2 7514  13.806  24.647   9.059
  266POPC   C1A 7515  13.360  24.333   8.599
  266POPC   D2A 7516  13.274  24.151   8.166
  266POPC   C3A 7517  13.485  24.238   7.742
  266POPC   C4A 7518  13.500  24.131   7.257
  266POPC   C1B 7519  13.860  24.436   8.651
  266POPC   C2B 7520  13.691  24.456   8.228
  266POPC   C3B 7521  13.687  24.708   7.877
  266POPC   C4B 7522  13.921  24.989   7.574
  267POPC   NC3 7523   0.186   3.617   9.492
  267POPC   PO4 7524   0.888   3.660   9.655
  267POPC   GL1 7525   0.753   3.521   9.181
  267POPC   GL2 7526   0.409   3.401   9.103
  267POPC   C1A 7527   0.636   3.591   8.692
  267POPC   D2A 7528   0.614   3.910   8.334
  267POPC   C3A 7529   0.475   3.757   7.928
  267POPC   C4A 7530   0.707   3.480   7.714
  267POPC   C1B 7531   0.317   3.167   8.724
  267POPC   C2B 7532   0.435   3.234   8.310
  267POPC   C3B 7533   0.198   3.331   7.953
  267POPC   C4B 7534   0.140   3.125   7.546
  268POPC   NC3 7535   6.033  26.417   9.523
  268POPC   PO4 7536   5.542  26.859   9.541
  268POPC   GL1 7537   5.811  26.758   9.202
  268POPC   GL2 7538   5.596  26.506   9.137
  268POPC   C1A 7539   6.077  26.822   8.818
  268POPC   D2A 7540   5.948  26.769   8.376
  268POPC   C3A 7541   6.058  26.934   7.985
  268POPC   C4A 7542   6.198  26.891   7.548
  268POPC   C1B 7543   5.548  26.786   8.779
  268POPC   C2B 7544   5.438  26.860   8.379
  268POPC   C3B 7545   5.595  26.731   7.998
  268POPC   C4B 7546   5.460  26.899   7.640
  269POPC   NC3 7547  28.873   7.968   9.488
  269POPC   PO4 7548  29.377   8.256   9.530
  269POPC   GL1 7549  29.143   8.246   9.124
  269POPC   GL2 7550  29.198   7.906   9.075
  269POPC   C1A 7551  29.146   8.221   8.666
  269POPC   D2A 7552  29.149   8.276   8.246
  269POPC   C3A 7553  29.414   8.178   7.916
  269POPC   C4A 7554  29.167   8.397   7.661
  269POPC   C1B 7555  28.825   7.864   8.797
  269POPC   C2B 7556  28.968   7.794   8.360
  269POPC   C3B 7557  28.942   7.940   7.922
  269POPC   C4B 7558  29.183   7.890   7.555
  270POPC   NC3 7559  42.855  21.414   9.400
  270POPC   PO4 7560  42.204  21.415   9.483
  270POPC   GL1 7561  42.432  21.562   9.131
  270POPC   GL2 7562  42.509  21.203   9.081
  270POPC   C1A 7563  42.607  21.743   8.747
  270POPC   D2A 7564  42.457  21.699   8.312
  270POPC   C3A 7565  42.235  21.546   7.958
  270POPC   C4A 7566  42.010  21.176   7.825
  270POPC   C1B 7567  42.375  21.290   8.670
  270POPC   C2B 7568  42.591  21.203   8.304
  270POPC   C3B 7569  42.488  21.007   7.940
  270POPC   C4B 7570  42.738  20.895   7.561
  271POPC   NC3 7571  21.011   7.356   9.314
  271POPC   PO4 7572  21.623   7.073   9.500
  271POPC   GL1 7573  21.496   7.220   9.119
  271POPC   GL2 7574  21.407   7.585   9.073
  271POPC   C1A 7575  21.528   7.010   8.740
  271POPC   D2A 7576  21.224   6.996   8.423
  271POPC   C3A 7577  21.297   7.095   8.010
  271POPC   C4A 7578  21.487   7.248   7.653
  271POPC   C1B 7579  21.264   7.456   8.679
  271POPC   C2B 7580  21.411   7.506   8.269
  271POPC   C3B 7581  21.182   7.581   7.880
  271POPC   C4B 7582  21.232   7.710   7.441
  272POPC   NC3 7583   1.896  30.473   9.609
  272POPC   PO4 7584   2.276  31.029   9.598
  272POPC   GL1 7585   2.173  30.728   9.223
  272POPC   GL2 7586   1.822  30.662   9.148
  272POPC   C1A 7587   2.114  30.646   8.745
  272POPC   D2A 7588   1.995  30.483   8.331
  272POPC   C3A 7589   2.093  30.598   7.885
  272POPC   C4A 7590   2.062  30.431   7.427
  272POPC   C1B 7591   1.604  30.545   8.771
  272POPC   C2B 7592   1.477  30.747   8.421
  272POPC   C3B 7593   1.599  30.608   8.045
  272POPC   C4B 7594   1.637  30.570   7.641
  273POPC   NC3 7595  20.472  16.454   9.435
  273POPC   PO4 7596  20.424  17.083   9.577
  273POPC   GL1 7597  20.515  16.921   9.191
  273POPC   GL2 7598  20.546  17.127   8.917
  273POPC   C1A 7599  20.640  16.654   8.856
  273POPC   D2A 7600  20.786  16.845   8.526
  273POPC   C3A 7601  20.733  16.742   8.097
  273POPC   C4A 7602  20.672  16.811   7.645
  273POPC   C1B 7603  20.221  16.898   8.723
  273POPC   C2B 7604  20.157  16.723   8.336
  273POPC   C3B 7605  20.248  16.809   7.920
  273POPC   C4B 7606  20.087  17.198   7.768
  274POPC   NC3 7607   8.462  38.137   9.296
  274POPC   PO4 7608   8.027  38.589   9.571
  274POPC   GL1 7609   8.100  38.686   9.169
  274POPC   GL2 7610   7.948  38.396   9.085
  274POPC   C1A 7611   8.118  38.692   8.716
  274POPC   D2A 7612   8.325  38.516   8.356
  274POPC   C3A 7613   8.171  38.666   7.967
  274POPC   C4A 7614   8.316  38.526   7.576
  274POPC   C1B 7615   8.082  38.175   8.724
  274POPC   C2B 7616   7.956  38.146   8.341
  274POPC   C3B 7617   8.192  38.153   7.976
  274POPC   C4B 7618   8.203  38.035   7.568
  275POPC   NC3 7619  11.217  37.386   9.421
  275POPC   PO4 7620  11.565  37.963   9.422
  275POPC   GL1 7621  11.317  38.025   9.105
  275POPC   GL2 7622  11.296  37.655   9.010
  275POPC   C1A 7623  11.184  38.010   8.691
  275POPC   D2A 7624  11.219  37.662   8.481
  275POPC   C3A 7625  11.156  37.711   8.082
  275POPC   C4A 7626  11.385  37.453   7.853
  275POPC   C1B 7627  11.567  37.382   8.759
  275POPC   C2B 7628  11.713  37.494   8.359
  275POPC   C3B 7629  11.901  37.443   7.957
  275POPC   C4B 7630  11.766  37.367   7.528
  276POPC   NC3 7631  14.334   7.562   9.583
  276POPC   PO4 7632  14.726   7.052   9.695
  276POPC   GL1 7633  14.592   7.252   9.249
  276POPC   GL2 7634  14.527   7.641   9.119
  276POPC   C1A 7635  14.455   7.249   8.796
  276POPC   D2A 7636  14.500   7.538   8.416
  276POPC   C3A 7637  14.364   7.449   8.019
  276POPC   C4A 7638  14.530   7.625   7.664
  276POPC   C1B 7639  14.223   7.768   8.769
  276POPC   C2B 7640  13.995   7.678   8.342
  276POPC   C3B 7641  14.020   7.808   7.873
  276POPC   C4B 7642  14.124   7.742   7.417
  277POPC   NC3 7643  24.859  21.420   9.464
  277POPC   PO4 7644  24.141  21.200   9.537
  277POPC   GL1 7645  24.353  21.006   9.160
  277POPC   GL2 7646  24.722  21.050   9.144
  277POPC   C1A 7647  24.426  21.268   8.797
  277POPC   D2A 7648  24.577  21.445   8.434
  277POPC   C3A 7649  24.255  21.552   8.156
  277POPC   C4A 7650  24.341  21.295   7.825
  277POPC   C1B 7651  24.970  21.128   8.741
  277POPC   C2B 7652  25.104  21.432   8.426
  277POPC   C3B 7653  24.910  21.570   8.064
  277POPC   C4B 7654  24.814  21.388   7.699
  278POPC   NC3 7655  10.514   1.814   9.561
  278POPC   PO4 7656  10.926   2.091   9.119
  278POPC   GL1 7657  10.501   2.063   9.099
  278POPC   GL2 7658  10.396   1.720   9.088
  278POPC   C1A 7659  10.373   2.084   8.672
  278POPC   D2A 7660  10.685   1.977   8.316
  278POPC   C3A 7661  10.568   2.181   7.958
  278POPC   C4A 7662  10.126   2.199   7.835
  278POPC   C1B 7663  10.607   1.634   8.732
  278POPC   C2B 7664  10.321   1.644   8.394
  278POPC   C3B 7665  10.340   1.734   7.975
  278POPC   C4B 7666  10.736   1.627   7.780
  279POPC   NC3 7667  24.953  30.224   9.481
  279POPC   PO4 7668  25.338  29.613   9.427
  279POPC   GL1 7669  25.288  29.792   9.060
  279POPC   GL2 7670  25.286  30.125   9.104
  279POPC   C1A 7671  25.486  29.831   8.664
  279POPC   D2A 7672  25.260  29.817   8.300
  279POPC   C3A 7673  25.495  29.741   7.957
  279POPC   C4A 7674  25.195  29.748   7.643
  279POPC   C1B 7675  25.088  30.118   8.701
  279POPC   C2B 7676  25.136  30.302   8.290
  279POPC   C3B 7677  25.274  30.194   7.862
  279POPC   C4B 7678  25.133  30.232   7.394
  280POPC   NC3 7679   6.699  28.129  10.195
  280POPC   PO4 7680   6.647  28.489   9.595
  280POPC   GL1 7681   6.488  28.382   9.222
  280POPC   GL2 7682   6.275  28.676   9.203
  280POPC   C1A 7683   6.685  28.206   8.847
  280POPC   D2A 7684   6.978  28.320   8.536
  280POPC   C3A 7685   6.786  28.302   8.144
  280POPC   C4A 7686   6.816  28.252   7.708
  280POPC   C1B 7687   6.480  28.675   8.804
  280POPC   C2B 7688   6.438  28.542   8.440
  280POPC   C3B 7689   6.404  28.722   8.076
  280POPC   C4B 7690   6.449  28.589   7.702
  281POPC   NC3 7691  20.941  11.053   9.422
  281POPC   PO4 7692  21.558  11.371   9.568
  281POPC   GL1 7693  21.328  11.325   9.218
  281POPC   GL2 7694  21.392  10.965   9.220
  281POPC   C1A 7695  21.157  11.250   8.811
  281POPC   D2A 7696  21.042  11.138   8.401
  281POPC   C3A 7697  21.278  11.278   8.088
  281POPC   C4A 7698  21.196  11.409   7.658
  281POPC   C1B 7699  21.609  10.815   8.864
  281POPC   C2B 7700  21.577  11.010   8.491
  281POPC   C3B 7701  21.718  11.001   8.100
  281POPC   C4B 7702  21.672  11.303   7.779
  282POPC   NC3 7703  10.780  25.662   9.588
  282POPC   PO4 7704  10.337  26.099   9.544
  282POPC   GL1 7705  10.270  25.968   9.146
  282POPC   GL2 7706  10.620  25.862   9.130
  282POPC   C1A 7707  10.335  25.933   8.723
  282POPC   D2A 7708  10.471  26.133   8.368
  282POPC   C3A 7709  10.373  25.977   8.004
  282POPC   C4A 7710  10.654  26.041   7.687
  282POPC   C1B 7711  10.801  26.186   8.834
  282POPC   C2B 7712  10.887  26.426   8.442
  282POPC   C3B 7713  10.708  26.449   8.019
  282POPC   C4B 7714  10.877  26.568   7.632
  283POPC   NC3 7715   8.583  42.176   9.478
  283POPC   PO4 7716   9.161  42.295   9.636
  283POPC   GL1 7717   9.015  42.230   9.170
  283POPC   GL2 7718   8.731  42.037   8.990
  283POPC   C1A 7719   9.117  42.379   8.732
  283POPC   D2A 7720   8.910  42.427   8.308
  283POPC   C3A 7721   9.022  42.460   7.861
  283POPC   C4A 7722   9.140  42.559   7.397
  283POPC   C1B 7723   8.920  41.927   8.586
  283POPC   C2B 7724   9.302  41.979   8.318
  283POPC   C3B 7725   9.298  42.033   7.858
  283POPC   C4B 7726   8.930  42.077   7.542
  284POPC   NC3 7727  28.037  30.944   9.497
  284POPC   PO4 7728  28.497  30.442   9.469
  284POPC   GL1 7729  28.539  30.650   9.099
  284POPC   GL2 7730  28.441  30.988   9.181
  284POPC   C1A 7731  28.358  30.700   8.673
  284POPC   D2A 7732  28.428  30.611   8.240
  284POPC   C3A 7733  28.179  30.588   7.910
  284POPC   C4A 7734  27.846  30.508   7.648
  284POPC   C1B 7735  28.685  31.051   8.825
  284POPC   C2B 7736  28.630  31.057   8.413
  284POPC   C3B 7737  28.761  30.994   8.013
  284POPC   C4B 7738  28.557  30.842   7.681
  285POPC   NC3 7739  32.775   0.569   9.448
  285POPC   PO4 7740  33.341   0.279   9.683
  285POPC   GL1 7741  33.111   0.254   9.228
  285POPC   GL2 7742  32.724   0.172   9.153
  285POPC   C1A 7743  33.134   0.407   8.785
  285POPC   D2A 7744  33.080   0.228   8.404
  285POPC   C3A 7745  33.257   0.382   8.039
  285POPC   C4A 7746  33.387   0.713   7.794
  285POPC   C1B 7747  32.632   0.482   8.786
  285POPC   C2B 7748  32.720   0.568   8.341
  285POPC   C3B 7749  32.815   0.586   7.904
  285POPC   C4B 7750  32.668   0.839   7.592
  286POPC   NC3 7751  42.040  25.029   9.475
  286POPC   PO4 7752  42.351  25.613   9.510
  286POPC   GL1 7753  42.482  25.455   9.128
  286POPC   GL2 7754  42.448  25.109   9.181
  286POPC   C1A 7755  42.293  25.361   8.758
  286POPC   D2A 7756  42.426  25.230   8.384
  286POPC   C3A 7757  42.281  25.457   8.003
  286POPC   C4A 7758  42.452  25.645   7.620
  286POPC   C1B 7759  42.286  24.842   8.835
  286POPC   C2B 7760  42.344  24.708   8.422
  286POPC   C3B 7761  42.355  24.882   8.026
  286POPC   C4B 7762  42.443  25.130   7.649
  287POPC   NC3 7763   6.800  28.930   9.652
  287POPC   PO4 7764   6.321  29.389   9.498
  287POPC   GL1 7765   6.556  29.126   9.213
  287POPC   GL2 7766   6.777  28.824   9.171
  287POPC   C1A 7767   6.620  29.161   8.792
  287POPC   D2A 7768   6.379  29.084   8.432
  287POPC   C3A 7769   6.603  29.198   8.068
  287POPC   C4A 7770   6.465  29.470   7.775
  287POPC   C1B 7771   6.970  28.783   8.785
  287POPC   C2B 7772   6.850  28.837   8.359
  287POPC   C3B 7773   6.888  28.739   7.910
  287POPC   C4B 7774   6.758  29.017   7.594
  288POPC   NC3 7775  24.665   3.288   9.473
  288POPC   PO4 7776  24.471   2.596   9.593
  288POPC   GL1 7777  24.515   2.590   9.189
  288POPC   GL2 7778  24.740   2.880   9.164
  288POPC   C1A 7779  24.690   2.546   8.802
  288POPC   D2A 7780  24.558   2.741   8.474
  288POPC   C3A 7781  24.602   2.476   8.160
  288POPC   C4A 7782  24.712   2.395   7.760
  288POPC   C1B 7783  24.681   3.116   8.813
  288POPC   C2B 7784  24.821   3.162   8.405
  288POPC   C3B 7785  24.838   2.940   8.037
  288POPC   C4B 7786  24.823   3.122   7.643
  289POPC   NC3 7787  20.181  42.135   9.438
  289POPC   PO4 7788  20.815  42.537   9.616
  289POPC   GL1 7789  20.713  42.589   9.165
  289POPC   GL2 7790  20.514  42.292   9.068
  289POPC   C1A 7791  20.909  42.643   8.747
  289POPC   D2A 7792  20.784  42.598   8.312
  289POPC   C3A 7793  20.955  42.276   8.029
  289POPC   C4A 7794  20.797  42.155   7.643
  289POPC   C1B 7795  20.363  42.592   8.760
  289POPC   C2B 7796  19.955  42.632   8.553
  289POPC   C3B 7797  20.057  42.643   8.129
  289POPC   C4B 7798  20.403  42.403   7.923
  290POPC   NC3 7799  12.542  19.435   9.489
  290POPC   PO4 7800  12.927  18.860   9.445
  290POPC   GL1 7801  12.723  19.049   9.163
  290POPC   GL2 7802  13.007  19.221   9.030
  290POPC   C1A 7803  12.537  19.218   8.834
  290POPC   D2A 7804  12.774  19.334   8.494
  290POPC   C3A 7805  12.699  19.180   8.077
  290POPC   C4A 7806  12.935  19.128   7.686
  290POPC   C1B 7807  12.918  18.877   8.708
  290POPC   C2B 7808  13.002  18.777   8.267
  290POPC   C3B 7809  13.222  18.747   7.861
  290POPC   C4B 7810  13.368  18.894   7.414
  291POPC   NC3 7811   5.858  43.085   9.345
  291POPC   PO4 7812   6.423  43.107   9.696
  291POPC   GL1 7813   6.578  43.075   9.259
  291POPC   GL2 7814   6.288  43.049   9.069
  291POPC   C1A 7815   6.774  43.223   8.881
  291POPC   D2A 7816   6.662  43.047   8.507
  291POPC   C3A 7817   6.760  43.218   8.122
  291POPC   C4A 7818   6.668  43.183   7.702
  291POPC   C1B 7819   6.243  42.798   8.709
  291POPC   C2B 7820   6.305  42.779   8.265
  291POPC   C3B 7821   6.377  42.756   7.847
  291POPC   C4B 7822   6.321  42.720   7.416
  292POPC   NC3 7823  25.444   4.694   9.550
  292POPC   PO4 7824  25.093   4.062   9.532
  292POPC   GL1 7825  25.420   4.138   9.208
  292POPC   GL2 7826  25.458   4.478   9.095
  292POPC   C1A 7827  25.426   4.113   8.744
  292POPC   D2A 7828  25.432   4.346   8.354
  292POPC   C3A 7829  25.319   3.989   8.090
  292POPC   C4A 7830  25.485   3.883   7.704
  292POPC   C1B 7831  25.169   4.567   8.763
  292POPC   C2B 7832  25.082   4.733   8.352
  292POPC   C3B 7833  25.305   4.685   7.970
  292POPC   C4B 7834  25.245   4.323   7.711
  293POPC   NC3 7835  20.496  27.242   9.319
  293POPC   PO4 7836  20.837  27.522   9.803
  293POPC   GL1 7837  20.958  27.523   9.278
  293POPC   GL2 7838  20.872  27.291   8.987
  293POPC   C1A 7839  20.839  27.777   8.841
  293POPC   D2A 7840  20.401  27.744   8.589
  293POPC   C3A 7841  20.446  27.639   8.133
  293POPC   C4A 7842  20.753  27.840   7.822
  293POPC   C1B 7843  21.066  27.399   8.579
  293POPC   C2B 7844  20.903  27.361   8.152
  293POPC   C3B 7845  20.671  27.311   7.773
  293POPC   C4B 7846  20.917  27.512   7.436
  294POPC   NC3 7847  28.709  25.934   9.605
  294POPC   PO4 7848  28.080  26.039   9.332
  294POPC   GL1 7849  28.494  25.968   9.115
  294POPC   GL2 7850  28.591  25.633   9.113
  294POPC   C1A 7851  28.506  25.933   8.652
  294POPC   D2A 7852  28.123  26.044   8.413
  294POPC   C3A 7853  28.115  26.258   8.018
  294POPC   C4A 7854  28.228  26.187   7.596
  294POPC   C1B 7855  28.810  25.506   8.730
  294POPC   C2B 7856  28.643  25.496   8.318
  294POPC   C3B 7857  28.465  25.819   8.056
  294POPC   C4B 7858  28.672  25.901   7.675
  295POPC   NC3 7859  19.871  41.462   9.798
  295POPC   PO4 7860  19.692  42.024   9.435
  295POPC   GL1 7861  19.882  41.686   9.207
  295POPC   GL2 7862  19.688  41.375   9.280
  295POPC   C1A 7863  20.047  41.612   8.788
  295POPC   D2A 7864  19.809  41.568   8.394
  295POPC   C3A 7865  20.072  41.654   8.093
  295POPC   C4A 7866  20.125  41.457   7.746
  295POPC   C1B 7867  19.583  41.422   8.826
  295POPC   C2B 7868  19.361  41.773   8.555
  295POPC   C3B 7869  19.403  41.792   8.110
  295POPC   C4B 7870  19.628  41.491   7.842
  296POPC   NC3 7871  12.721   4.621   9.528
  296POPC   PO4 7872  12.437   4.020   9.375
  296POPC   GL1 7873  12.762   4.265   9.125
  296POPC   GL2 7874  12.732   4.599   9.035
  296POPC   C1A 7875  12.915   4.282   8.692
  296POPC   D2A 7876  12.731   4.064   8.335
  296POPC   C3A 7877  13.000   4.117   7.965
  296POPC   C4A 7878  13.003   4.545   7.797
  296POPC   C1B 7879  12.452   4.491   8.692
  296POPC   C2B 7880  12.288   4.507   8.287
  296POPC   C3B 7881  12.548   4.344   7.948
  296POPC   C4B 7882  12.561   3.903   7.817
  297POPC   NC3 7883  35.618  12.987   9.512
  297POPC   PO4 7884  36.235  12.751   9.451
  297POPC   GL1 7885  35.932  12.786   9.140
  297POPC   GL2 7886  35.876  13.106   9.087
  297POPC   C1A 7887  35.918  12.664   8.728
  297POPC   D2A 7888  36.243  12.761   8.438
  297POPC   C3A 7889  36.169  12.533   8.067
  297POPC   C4A 7890  35.832  12.659   7.826
  297POPC   C1B 7891  36.218  13.148   8.818
  297POPC   C2B 7892  36.251  13.291   8.403
  297POPC   C3B 7893  36.049  13.081   8.064
  297POPC   C4B 7894  36.238  13.098   7.680
  298POPC   NC3 7895   0.024   8.032   9.296
  298POPC   PO4 7896  44.405   8.180   9.556
  298POPC   GL1 7897  44.518   8.280   9.115
  298POPC   GL2 7898  44.838   8.442   9.021
  298POPC   C1A 7899  44.566   8.165   8.667
  298POPC   D2A 7900  44.755   8.341   8.298
  298POPC   C3A 7901  44.503   8.225   7.974
  298POPC   C4A 7902  44.276   8.357   7.648
  298POPC   C1B 7903   0.079   8.211   8.688
  298POPC   C2B 7904  44.991   7.888   8.383
  298POPC   C3B 7905  44.971   8.002   7.950
  298POPC   C4B 7906   0.026   8.200   7.545
  299POPC   NC3 7907  29.634  21.651   9.926
  299POPC   PO4 7908  29.978  22.030   9.513
  299POPC   GL1 7909  29.864  22.273   9.148
  299POPC   GL2 7910  29.945  22.003   8.993
  299POPC   C1A 7911  29.807  22.404   8.688
  299POPC   D2A 7912  29.803  22.226   8.277
  299POPC   C3A 7913  29.817  22.484   7.924
  299POPC   C4A 7914  29.741  22.433   7.488
  299POPC   C1B 7915  29.874  21.841   8.616
  299POPC   C2B 7916  29.839  21.719   8.179
  299POPC   C3B 7917  29.815  21.971   7.796
  299POPC   C4B 7918  29.711  21.930   7.364
  300POPC   NC3 7919   8.533  40.600   9.410
  300POPC   PO4 7920   8.014  41.097   9.528
  300POPC   GL1 7921   8.198  40.937   9.219
  300POPC   GL2 7922   7.992  40.642   9.167
  300POPC   C1A 7923   8.341  40.994   8.833
  300POPC   D2A 7924   8.431  41.152   8.454
  300POPC   C3A 7925   8.422  40.819   8.171
  300POPC   C4A 7926   8.157  40.693   7.827
  300POPC   C1B 7927   7.786  40.977   8.909
  300POPC   C2B 7928   7.727  40.987   8.495
  300POPC   C3B 7929   7.960  41.071   8.135
  300POPC   C4B 7930   7.797  41.042   7.733
  301POPC   NC3 7931  14.501   3.260   9.422
  301POPC   PO4 7932  14.590   2.609   9.480
  301POPC   GL1 7933  14.450   2.625   9.092
  301POPC   GL2 7934  14.232   2.912   9.123
  301POPC   C1A 7935  14.239   2.542   8.722
  301POPC   D2A 7936  14.005   2.854   8.477
  301POPC   C3A 7937  14.234   2.960   8.101
  301POPC   C4A 7938  14.500   2.772   7.791
  301POPC   C1B 7939  14.458   3.016   8.744
  301POPC   C2B 7940  14.845   3.136   8.557
  301POPC   C3B 7941  14.918   3.179   8.098
  301POPC   C4B 7942  14.581   3.274   7.830
  302POPC   NC3 7943   3.769  44.172   9.889
  302POPC   PO4 7944   3.609  44.818   9.625
  302POPC   GL1 7945   3.565  44.740   9.179
  302POPC   GL2 7946   3.466  44.395   9.117
  302POPC   C1A 7947   3.573  44.697   8.724
  302POPC   D2A 7948   3.697  44.816   8.317
  302POPC   C3A 7949   3.588  44.596   7.986
  302POPC   C4A 7950   3.428  44.665   7.596
  302POPC   C1B 7951   3.821  44.254   8.762
  302POPC   C2B 7952   3.722  44.183   8.323
  302POPC   C3B 7953   3.938  44.062   7.950
  302POPC   C4B 7954   3.689  44.223   7.654
  303POPC   NC3 7955  35.223  18.996   9.668
  303POPC   PO4 7956  35.791  19.293   9.500
  303POPC   GL1 7957  35.518  19.144   9.177
  303POPC   GL2 7958  35.170  19.243   9.140
  303POPC   C1A 7959  35.468  18.898   8.793
  303POPC   D2A 7960  35.640  18.672   8.418
  303POPC   C3A 7961  35.489  18.717   7.981
  303POPC   C4A 7962  35.184  18.929   7.746
  303POPC   C1B 7963  35.039  19.148   8.717
  303POPC   C2B 7964  35.163  18.996   8.303
  303POPC   C3B 7965  34.906  19.236   8.017
  303POPC   C4B 7966  34.970  19.435   7.625
  304POPC   NC3 7967  14.815  29.267   9.548
  304POPC   PO4 7968  15.323  29.747   9.616
  304POPC   GL1 7969  15.333  29.700   9.185
  304POPC   GL2 7970  15.023  29.566   9.161
  304POPC   C1A 7971  15.313  29.837   8.754
  304POPC   D2A 7972  15.580  29.930   8.440
  304POPC   C3A 7973  15.344  29.919   8.063
  304POPC   C4A 7974  14.985  30.077   7.871
  304POPC   C1B 7975  14.843  29.673   8.791
  304POPC   C2B 7976  14.867  29.841   8.389
  304POPC   C3B 7977  14.887  29.603   8.052
  304POPC   C4B 7978  15.061  29.585   7.689
  305POPC   NC3 7979   9.847  22.878   9.411
  305POPC   PO4 7980   9.246  22.566   9.534
  305POPC   GL1 7981   9.411  22.837   9.183
  305POPC   GL2 7982   9.349  23.199   9.160
  305POPC   C1A 7983   9.628  22.924   8.800
  305POPC   D2A 7984   9.418  23.012   8.442
  305POPC   C3A 7985   9.624  23.007   8.076
  305POPC   C4A 7986   9.735  22.846   7.684
  305POPC   C1B 7987   9.449  23.405   8.790
  305POPC   C2B 7988   9.748  23.418   8.470
  305POPC   C3B 7989   9.639  23.511   8.057
  305POPC   C4B 7990   9.759  23.349   7.687
  306POPC   NC3 7991   5.511   9.684   9.241
  306POPC   PO4 7992   4.960  10.071   9.459
  306POPC   GL1 7993   5.136  10.014   9.089
  306POPC   GL2 7994   4.853   9.875   8.907
  306POPC   C1A 7995   5.327   9.976   8.681
  306POPC   D2A 7996   5.089   9.778   8.376
  306POPC   C3A 7997   5.195   9.951   8.036
  306POPC   C4A 7998   4.947  10.209   7.774
  306POPC   C1B 7999   4.707   9.543   8.621
  306POPC   C2B 8000   4.987   9.258   8.383
  306POPC   C3B 8001   5.193   9.389   7.998
  306POPC   C4B 8002   5.222   9.636   7.640
  307POPC   NC3 8003  23.353   8.195   9.487
  307POPC   PO4 8004  22.724   8.207   9.541
  307POPC   GL1 8005  22.721   8.029   9.126
  307POPC   GL2 8006  22.962   8.274   9.061
  307POPC   C1A 8007  22.728   8.106   8.652
  307POPC   D2A 8008  22.961   8.293   8.287
  307POPC   C3A 8009  22.832   8.281   7.857
  307POPC   C4A 8010  22.715   7.893   7.745
  307POPC   C1B 8011  23.087   8.587   8.722
  307POPC   C2B 8012  23.165   8.753   8.303
  307POPC   C3B 8013  23.284   8.526   7.943
  307POPC   C4B 8014  23.231   8.407   7.514
  308POPC   NC3 8015   9.356  27.263   9.540
  308POPC   PO4 8016   8.858  27.750   9.465
  308POPC   GL1 8017   8.988  27.684   9.072
  308POPC   GL2 8018   9.140  27.377   9.094
  308POPC   C1A 8019   8.817  27.527   8.676
  308POPC   D2A 8020   8.969  27.678   8.309
  308POPC   C3A 8021   8.753  27.468   8.020
  308POPC   C4A 8022   8.574  27.468   7.626
  308POPC   C1B 8023   9.315  27.521   8.717
  308POPC   C2B 8024   9.380  27.348   8.331
  308POPC   C3B 8025   9.259  27.478   7.951
  308POPC   C4B 8026   9.096  27.302   7.614
  309POPC   NC3 8027  41.007   4.000   9.407
  309POPC   PO4 8028  40.603   3.504   9.485
  309POPC   GL1 8029  40.655   3.697   9.110
  309POPC   GL2 8030  40.811   3.377   8.997
  309POPC   C1A 8031  40.720   3.771   8.683
  309POPC   D2A 8032  40.719   3.539   8.309
  309POPC   C3A 8033  40.483   3.584   7.915
  309POPC   C4A 8034  40.558   3.676   7.476
  309POPC   C1B 8035  41.104   3.394   8.664
  309POPC   C2B 8036  41.229   3.595   8.289
  309POPC   C3B 8037  41.012   3.652   7.877
  309POPC   C4B 8038  40.979   3.429   7.468
  310POPC   NC3 8039  28.413  41.955   9.544
  310POPC   PO4 8040  27.945  42.529   9.628
  310POPC   GL1 8041  28.239  42.541   9.208
  310POPC   GL2 8042  28.529  42.346   9.209
  310POPC   C1A 8043  28.434  42.530   8.761
  310POPC   D2A 8044  28.637  42.304   8.441
  310POPC   C3A 8045  28.508  42.507   8.063
  310POPC   C4A 8046  28.544  42.334   7.687
  310POPC   C1B 8047  28.396  42.033   8.865
  310POPC   C2B 8048  28.177  41.972   8.448
  310POPC   C3B 8049  28.343  41.991   8.019
  310POPC   C4B 8050  28.154  42.021   7.572
  311POPC   NC3 8051   8.162  20.373   9.482
  311POPC   PO4 8052   8.578  20.982   9.580
  311POPC   GL1 8053   8.320  20.791   9.229
  311POPC   GL2 8054   8.479  20.565   9.045
  311POPC   C1A 8055   8.044  20.732   8.810
  311POPC   D2A 8056   7.899  20.884   8.365
  311POPC   C3A 8057   8.076  20.732   7.956
  311POPC   C4A 8058   8.177  20.932   7.536
  311POPC   C1B 8059   8.396  20.357   8.685
  311POPC   C2B 8060   8.385  20.704   8.412
  311POPC   C3B 8061   8.642  20.791   8.085
  311POPC   C4B 8062   8.541  20.613   7.721
  312POPC   NC3 8063  11.320  30.982   9.430
  312POPC   PO4 8064  11.318  30.395   9.658
  312POPC   GL1 8065  11.293  30.543   9.192
  312POPC   GL2 8066  10.987  30.783   9.108
  312POPC   C1A 8067  11.542  30.715   8.828
  312POPC   D2A 8068  11.479  30.868   8.413
  312POPC   C3A 8069  11.541  30.671   8.037
  312POPC   C4A 8070  11.544  30.947   7.726
  312POPC   C1B 8071  11.066  31.027   8.731
  312POPC   C2B 8072  10.879  30.919   8.302
  312POPC   C3B 8073  11.007  30.985   7.873
  312POPC   C4B 8074  10.996  30.968   7.405
  313POPC   NC3 8075  34.861  24.430   9.873
  313POPC   PO4 8076  34.533  24.885   9.544
  313POPC   GL1 8077  34.652  24.626   9.174
  313POPC   GL2 8078  34.978  24.788   9.082
  313POPC   C1A 8079  34.397  24.422   8.799
  313POPC   D2A 8080  34.548  24.098   8.482
  313POPC   C3A 8081  34.490  24.224   8.093
  313POPC   C4A 8082  34.654  24.213   7.684
  313POPC   C1B 8083  34.743  24.812   8.692
  313POPC   C2B 8084  34.462  24.677   8.362
  313POPC   C3B 8085  34.636  24.693   7.942
  313POPC   C4B 8086  34.483  24.684   7.532
  314POPC   NC3 8087  33.478  24.360   9.401
  314POPC   PO4 8088  32.986  24.747   9.491
  314POPC   GL1 8089  33.026  24.487   9.148
  314POPC   GL2 8090  32.702  24.434   9.062
  314POPC   C1A 8091  33.040  24.562   8.710
  314POPC   D2A 8092  33.060  24.835   8.375
  314POPC   C3A 8093  33.286  24.660   8.032
  314POPC   C4A 8094  33.118  24.383   7.752
  314POPC   C1B 8095  32.540  24.403   8.697
  314POPC   C2B 8096  32.553  24.599   8.327
  314POPC   C3B 8097  32.735  24.688   7.956
  314POPC   C4B 8098  32.650  24.514   7.551
  315POPC   NC3 8099  31.557  40.653   9.517
  315POPC   PO4 8100  31.236  41.209   9.287
  315POPC   GL1 8101  31.327  40.867   9.075
  315POPC   GL2 8102  31.121  40.646   9.226
  315POPC   C1A 8103  31.582  40.624   8.803
  315POPC   D2A 8104  31.755  40.435   8.419
  315POPC   C3A 8105  31.770  40.646   8.020
  315POPC   C4A 8106  31.536  40.881   7.730
  315POPC   C1B 8107  31.029  40.535   8.808
  315POPC   C2B 8108  31.230  40.586   8.424
  315POPC   C3B 8109  31.164  40.714   8.039
  315POPC   C4B 8110  31.166  40.492   7.660
  316POPC   NC3 8111  31.596  41.450   9.441
  316POPC   PO4 8112  31.204  41.975   9.608
  316POPC   GL1 8113  31.333  41.832   9.138
  316POPC   GL2 8114  31.474  41.497   8.967
  316POPC   C1A 8115  31.607  41.886   8.727
  316POPC   D2A 8116  31.471  41.607   8.377
  316POPC   C3A 8117  31.530  41.708   7.924
  316POPC   C4A 8118  31.536  41.900   7.463
  316POPC   C1B 8119  31.640  41.134   8.743
  316POPC   C2B 8120  31.551  40.988   8.336
  316POPC   C3B 8121  31.322  41.228   8.047
  316POPC   C4B 8122  31.360  41.346   7.606
  317POPC   NC3 8123   3.277  29.181   9.531
  317POPC   PO4 8124   3.938  29.028   9.701
  317POPC   GL1 8125   3.682  29.082   9.210
  317POPC   GL2 8126   3.394  29.318   9.066
  317POPC   C1A 8127   3.683  29.193   8.692
  317POPC   D2A 8128   3.469  29.126   8.299
  317POPC   C3A 8129   3.555  29.221   7.867
  317POPC   C4A 8130   3.597  28.878   7.626
  317POPC   C1B 8131   3.159  29.093   8.737
  317POPC   C2B 8132   3.099  28.803   8.394
  317POPC   C3B 8133   3.284  28.727   8.010
  317POPC   C4B 8134   3.093  28.877   7.695
  318POPC   NC3 8135  15.342   6.411   9.552
  318POPC   PO4 8136  14.909   6.748   9.253
  318POPC   GL1 8137  15.330   6.770   9.078
  318POPC   GL2 8138  15.551   6.446   9.087
  318POPC   C1A 8139  15.218   6.820   8.650
  318POPC   D2A 8140  15.178   7.092   8.314
  318POPC   C3A 8141  15.163   6.883   7.944
  318POPC   C4A 8142  15.388   6.719   7.598
  318POPC   C1B 8143  15.212   6.340   8.822
  318POPC   C2B 8144  15.213   6.278   8.396
  318POPC   C3B 8145  15.169   6.375   7.972
  318POPC   C4B 8146  15.466   6.248   7.706
  319POPC   NC3 8147  28.294  27.058   9.567
  319POPC   PO4 8148  28.099  26.388   9.814
  319POPC   GL1 8149  28.435  26.410   9.383
  319POPC   GL2 8150  28.492  26.745   9.214
  319POPC   C1A 8151  28.364  26.418   8.869
  319POPC   D2A 8152  28.557  26.667   8.523
  319POPC   C3A 8153  28.286  26.743   8.167
  319POPC   C4A 8154  28.331  26.656   7.733
  319POPC   C1B 8155  28.534  27.065   8.865
  319POPC   C2B 8156  28.746  27.171   8.477
  319POPC   C3B 8157  28.766  27.344   8.080
  319POPC   C4B 8158  28.494  27.105   7.853
  320POPC   NC3 8159  24.183  20.731   9.555
  320POPC   PO4 8160  24.206  20.059   9.498
  320POPC   GL1 8161  24.312  20.395   9.191
  320POPC   GL2 8162  24.650  20.534   9.236
  320POPC   C1A 8163  24.273  20.556   8.772
  320POPC   D2A 8164  24.591  20.395   8.433
  320POPC   C3A 8165  24.597  20.590   8.036
  320POPC   C4A 8166  24.383  20.808   7.717
  320POPC   C1B 8167  24.745  20.681   8.820
  320POPC   C2B 8168  24.587  20.909   8.467
  320POPC   C3B 8169  24.735  21.081   8.099
  320POPC   C4B 8170  24.907  20.872   7.751
  321POPC   NC3 8171  13.982   5.878   9.456
  321POPC   PO4 8172  13.289   6.226   9.441
  321POPC   GL1 8173  13.511   5.896   9.187
  321POPC   GL2 8174  13.813   6.061   9.023
  321POPC   C1A 8175  13.504   5.747   8.749
  321POPC   D2A 8176  13.774   5.956   8.428
  321POPC   C3A 8177  13.636   6.027   7.988
  321POPC   C4A 8178  13.336   5.837   7.710
  321POPC   C1B 8179  13.999   5.694   8.836
  321POPC   C2B 8180  14.013   5.518   8.494
  321POPC   C3B 8181  13.729   5.507   8.153
  321POPC   C4B 8182  13.792   5.614   7.729
  322POPC   NC3 8183   8.583  19.762   9.517
  322POPC   PO4 8184   7.907  19.901   9.531
  322POPC   GL1 8185   8.183  19.759   9.206
  322POPC   GL2 8186   8.178  20.071   9.064
  322POPC   C1A 8187   8.255  19.658   8.767
  322POPC   D2A 8188   8.196  19.912   8.391
  322POPC   C3A 8189   8.303  19.738   7.951
  322POPC   C4A 8190   8.476  19.527   7.545
  322POPC   C1B 8191   7.902  20.208   8.761
  322POPC   C2B 8192   7.968  20.381   8.368
  322POPC   C3B 8193   8.325  20.305   8.094
  322POPC   C4B 8194   8.236  20.181   7.704
  323POPC   NC3 8195  37.767  44.618   9.522
  323POPC   PO4 8196  37.145  44.703   9.622
  323POPC   GL1 8197  37.365  44.640   9.179
  323POPC   GL2 8198  37.588  44.358   9.108
  323POPC   C1A 8199  37.429  44.820   8.750
  323POPC   D2A 8200  37.401   0.013   8.327
  323POPC   C3A 8201  37.339  44.737   7.994
  323POPC   C4A 8202  37.496  44.420   7.724
  323POPC   C1B 8203  37.864  44.570   8.800
  323POPC   C2B 8204  37.768  44.618   8.353
  323POPC   C3B 8205  37.936  44.537   7.941
  323POPC   C4B 8206  38.084  44.596   7.532
  324POPC   NC3 8207  28.313  29.984   9.556
  324POPC   PO4 8208  28.833  29.600   9.523
  324POPC   GL1 8209  28.603  29.720   9.107
  324POPC   GL2 8210  28.615  30.075   9.141
  324POPC   C1A 8211  28.422  29.765   8.633
  324POPC   D2A 8212  28.074  29.620   8.344
  324POPC   C3A 8213  28.104  29.705   7.906
  324POPC   C4A 8214  28.436  29.679   7.664
  324POPC   C1B 8215  28.448  30.227   8.797
  324POPC   C2B 8216  28.638  30.170   8.381
  324POPC   C3B 8217  28.425  30.097   8.019
  324POPC   C4B 8218  28.223  30.154   7.632
  325POPC   NC3 8219   3.539  17.106   9.786
  325POPC   PO4 8220   3.508  16.525   9.723
  325POPC   GL1 8221   3.549  16.892   9.324
  325POPC   GL2 8222   3.882  16.970   9.204
  325POPC   C1A 8223   3.365  17.062   8.880
  325POPC   D2A 8224   3.473  16.907   8.422
  325POPC   C3A 8225   3.269  16.546   8.192
  325POPC   C4A 8226   3.042  16.522   7.788
  325POPC   C1B 8227   3.737  16.719   8.843
  325POPC   C2B 8228   3.922  16.618   8.443
  325POPC   C3B 8229   3.837  16.786   8.056
  325POPC   C4B 8230   3.437  16.893   7.859
  326POPC   NC3 8231   5.156  36.962   9.641
  326POPC   PO4 8232   5.105  36.305   9.700
  326POPC   GL1 8233   5.063  36.192   9.247
  326POPC   GL2 8234   5.373  36.248   9.120
  326POPC   C1A 8235   5.041  36.270   8.749
  326POPC   D2A 8236   5.231  36.481   8.359
  326POPC   C3A 8237   5.133  36.306   7.918
  326POPC   C4A 8238   4.801  36.219   7.595
  326POPC   C1B 8239   5.533  36.122   8.667
  326POPC   C2B 8240   5.507  36.069   8.213
  326POPC   C3B 8241   5.405  35.827   7.843
  326POPC   C4B 8242   5.203  35.901   7.437
  327POPC   NC3 8243   6.894   0.326   9.454
  327POPC   PO4 8244   6.312   0.311   9.123
  327POPC   GL1 8245   6.640   0.548   9.051
  327POPC   GL2 8246   6.392   0.810   8.958
  327POPC   C1A 8247   6.942   0.387   8.768
  327POPC   D2A 8248   6.993   0.469   8.338
  327POPC   C3A 8249   6.782   0.181   8.033
  327POPC   C4A 8250   6.758   0.186   7.567
  327POPC   C1B 8251   6.319   0.845   8.553
  327POPC   C2B 8252   6.455   0.552   8.264
  327POPC   C3B 8253   6.481   0.568   7.847
  327POPC   C4B 8254   6.170   0.714   7.552
  328POPC   NC3 8255  32.960  20.914   9.919
  328POPC   PO4 8256  33.194  20.412   9.551
  328POPC   GL1 8257  33.048  20.710   9.247
  328POPC   GL2 8258  33.019  20.408   9.021
  328POPC   C1A 8259  32.831  20.835   8.850
  328POPC   D2A 8260  32.885  20.597   8.474
  328POPC   C3A 8261  33.083  20.763   8.106
  328POPC   C4A 8262  32.946  20.854   7.682
  328POPC   C1B 8263  33.237  20.234   8.635
  328POPC   C2B 8264  33.160  20.253   8.185
  328POPC   C3B 8265  32.836  20.370   7.885
  328POPC   C4B 8266  32.825  20.388   7.430
  329POPC   NC3 8267  15.507   7.955   9.489
  329POPC   PO4 8268  15.594   8.644   9.450
  329POPC   GL1 8269  15.306   8.471   9.150
  329POPC   GL2 8270  15.230   8.100   9.077
  329POPC   C1A 8271  15.323   8.432   8.722
  329POPC   D2A 8272  15.341   8.079   8.477
  329POPC   C3A 8273  15.152   8.156   8.095
  329POPC   C4A 8274  15.297   8.258   7.687
  329POPC   C1B 8275  14.827   8.010   8.863
  329POPC   C2B 8276  14.804   7.969   8.454
  329POPC   C3B 8277  14.715   7.911   8.031
  329POPC   C4B 8278  14.945   7.914   7.646
  330POPC   NC3 8279   7.774  44.876   9.301
  330POPC   PO4 8280   7.530   0.359   9.681
  330POPC   GL1 8281   7.392   0.398   9.236
  330POPC   GL2 8282   7.158   0.648   9.154
  330POPC   C1A 8283   7.461   0.210   8.818
  330POPC   D2A 8284   7.672   0.311   8.431
  330POPC   C3A 8285   7.406   0.360   8.071
  330POPC   C4A 8286   7.483   0.397   7.676
  330POPC   C1B 8287   7.359   0.696   8.756
  330POPC   C2B 8288   7.444   0.797   8.364
  330POPC   C3B 8289   7.168   0.858   8.036
  330POPC   C4B 8290   7.013   0.572   7.773
  331POPC   NC3 8291   2.568   4.433   9.762
  331POPC   PO4 8292   3.084   4.147   9.503
  331POPC   GL1 8293   2.955   4.395   9.143
  331POPC   GL2 8294   2.624   4.281   8.930
  331POPC   C1A 8295   2.973   4.562   8.740
  331POPC   D2A 8296   2.746   4.382   8.398
  331POPC   C3A 8297   2.824   4.428   7.973
  331POPC   C4A 8298   3.012   4.132   7.663
  331POPC   C1B 8299   2.376   4.081   8.652
  331POPC   C2B 8300   2.312   4.179   8.237
  331POPC   C3B 8301   2.494   4.052   7.846
  331POPC   C4B 8302   2.601   3.926   7.444
  332POPC   NC3 8303  42.054  23.574   9.547
  332POPC   PO4 8304  41.446  23.325   9.476
  332POPC   GL1 8305  41.580  23.621   9.128
  332POPC   GL2 8306  41.905  23.785   9.085
  332POPC   C1A 8307  41.395  23.711   8.716
  332POPC   D2A 8308  41.232  23.643   8.282
  332POPC   C3A 8309  41.473  23.627   7.876
  332POPC   C4A 8310  41.463  23.892   7.487
  332POPC   C1B 8311  41.879  23.545   8.714
  332POPC   C2B 8312  41.745  23.449   8.309
  332POPC   C3B 8313  41.980  23.532   7.946
  332POPC   C4B 8314  41.912  23.706   7.574
  333POPC   NC3 8315   3.283  14.528   9.514
  333POPC   PO4 8316   3.928  14.226   9.545
  333POPC   GL1 8317   3.638  14.271   9.186
  333POPC   GL2 8318   3.701  14.628   9.151
  333POPC   C1A 8319   3.434  14.447   8.757
  333POPC   D2A 8320   3.242  14.382   8.371
  333POPC   C3A 8321   3.444  14.406   7.977
  333POPC   C4A 8322   3.466  14.172   7.606
  333POPC   C1B 8323   3.782  14.806   8.720
  333POPC   C2B 8324   3.630  14.768   8.316
  333POPC   C3B 8325   3.758  14.812   7.901
  333POPC   C4B 8326   3.470  14.777   7.619
  334POPC   NC3 8327   6.614  10.994   9.307
  334POPC   PO4 8328   6.606  10.369   9.615
  334POPC   GL1 8329   6.720  10.500   9.204
  334POPC   GL2 8330   6.376  10.444   9.099
  334POPC   C1A 8331   6.699  10.701   8.760
  334POPC   D2A 8332   6.385  10.817   8.449
  334POPC   C3A 8333   6.604  10.785   8.069
  334POPC   C4A 8334   6.833  10.463   7.878
  334POPC   C1B 8335   6.637  10.198   8.795
  334POPC   C2B 8336   6.655  10.342   8.372
  334POPC   C3B 8337   6.369  10.284   8.055
  334POPC   C4B 8338   6.499  10.117   7.688
  335POPC   NC3 8339  33.182  31.236   9.469
  335POPC   PO4 8340  33.879  31.303   9.536
  335POPC   GL1 8341  33.786  31.236   9.116
  335POPC   GL2 8342  33.997  31.511   9.082
  335POPC   C1A 8343  33.677  31.346   8.665
  335POPC   D2A 8344  33.773  31.640   8.308
  335POPC   C3A 8345  33.663  31.518   7.889
  335POPC   C4A 8346  33.452  31.156   7.729
  335POPC   C1B 8347  34.049  31.713   8.739
  335POPC   C2B 8348  34.287  31.751   8.387
  335POPC   C3B 8349  34.220  31.589   8.002
  335POPC   C4B 8350  34.059  31.596   7.585
  336POPC   NC3 8351  29.914  30.129   9.413
  336POPC   PO4 8352  29.806  29.377   9.489
  336POPC   GL1 8353  29.881  29.664   9.193
  336POPC   GL2 8354  29.583  29.761   9.162
  336POPC   C1A 8355  30.037  29.755   8.789
  336POPC   D2A 8356  30.034  29.494   8.404
  336POPC   C3A 8357  29.913  29.665   7.994
  336POPC   C4A 8358  30.162  29.850   7.643
  336POPC   C1B 8359  29.465  29.905   8.785
  336POPC   C2B 8360  29.651  29.865   8.412
  336POPC   C3B 8361  29.647  30.107   8.052
  336POPC   C4B 8362  29.540  29.899   7.686
  337POPC   NC3 8363  11.524   3.253   9.525
  337POPC   PO4 8364  10.835   3.256   9.512
  337POPC   GL1 8365  11.096   3.460   9.187
  337POPC   GL2 8366  11.452   3.474   9.082
  337POPC   C1A 8367  11.021   3.425   8.749
  337POPC   D2A 8368  11.232   3.444   8.368
  337POPC   C3A 8369  11.006   3.289   8.048
  337POPC   C4A 8370  11.197   3.411   7.668
  337POPC   C1B 8371  11.408   3.752   8.737
  337POPC   C2B 8372  11.612   3.840   8.349
  337POPC   C3B 8373  11.524   3.743   7.928
  337POPC   C4B 8374  11.369   3.937   7.553
  338POPC   NC3 8375  20.955  43.786   9.448
  338POPC   PO4 8376  21.527  44.030   9.579
  338POPC   GL1 8377  21.351  43.954   9.178
  338POPC   GL2 8378  21.315  43.579   9.149
  338POPC   C1A 8379  21.421  44.112   8.774
  338POPC   D2A 8380  21.205  44.156   8.415
  338POPC   C3A 8381  21.314  43.881   8.123
  338POPC   C4A 8382  21.405  43.864   7.704
  338POPC   C1B 8383  21.150  43.664   8.743
  338POPC   C2B 8384  21.172  43.434   8.368
  338POPC   C3B 8385  21.152  43.425   7.939
  338POPC   C4B 8386  20.919  43.726   7.729
  339POPC   NC3 8387  34.249  24.485   9.453
  339POPC   PO4 8388  33.658  24.836   9.433
  339POPC   GL1 8389  33.503  24.717   9.040
  339POPC   GL2 8390  33.854  24.542   9.026
  339POPC   C1A 8391  33.538  24.588   8.610
  339POPC   D2A 8392  33.969  24.543   8.465
  339POPC   C3A 8393  34.079  24.546   8.037
  339POPC   C4A 8394  33.997  24.580   7.613
  339POPC   C1B 8395  33.787  24.165   8.775
  339POPC   C2B 8396  33.457  24.084   8.497
  339POPC   C3B 8397  33.397  24.111   8.084
  339POPC   C4B 8398  33.645  24.269   7.770
  340POPC   NC3 8399  10.773  31.818   9.419
  340POPC   PO4 8400  10.199  31.576   9.659
  340POPC   GL1 8401  10.309  31.636   9.231
  340POPC   GL2 8402  10.562  31.425   9.121
  340POPC   C1A 8403  10.306  31.713   8.787
  340POPC   D2A 8404  10.474  31.861   8.391
  340POPC   C3A 8405  10.360  31.657   7.992
  340POPC   C4A 8406  10.413  31.532   7.558
  340POPC   C1B 8407  10.750  31.471   8.758
  340POPC   C2B 8408  10.659  31.386   8.366
  340POPC   C3B 8409  10.841  31.505   8.025
  340POPC   C4B 8410  10.905  31.418   7.620
  341POPC   NC3 8411  38.347  20.952   9.315
  341POPC   PO4 8412  38.651  21.458   9.633
  341POPC   GL1 8413  38.543  21.392   9.178
  341POPC   GL2 8414  38.213  21.419   9.112
  341POPC   C1A 8415  38.606  21.340   8.744
  341POPC   D2A 8416  38.749  21.590   8.410
  341POPC   C3A 8417  38.701  21.395   8.017
  341POPC   C4A 8418  38.598  21.397   7.573
  341POPC   C1B 8419  38.209  21.635   8.727
  341POPC   C2B 8420  38.253  21.441   8.311
  341POPC   C3B 8421  38.262  21.616   7.903
  341POPC   C4B 8422  38.075  21.708   7.541
  342POPC   NC3 8423  41.800  28.912   9.441
  342POPC   PO4 8424  41.353  28.456   9.420
  342POPC   GL1 8425  41.674  28.294   9.142
  342POPC   GL2 8426  41.500  28.020   9.046
  342POPC   C1A 8427  41.764  28.376   8.696
  342POPC   D2A 8428  41.589  28.317   8.297
  342POPC   C3A 8429  41.622  28.530   7.902
  342POPC   C4A 8430  41.665  28.316   7.517
  342POPC   C1B 8431  41.290  28.137   8.703
  342POPC   C2B 8432  41.110  28.145   8.283
  342POPC   C3B 8433  41.314  28.122   7.883
  342POPC   C4B 8434  41.219  28.069   7.432
  343POPC   NC3 8435   4.131  42.640   9.616
  343POPC   PO4 8436   4.300  42.009   9.451
  343POPC   GL1 8437   4.512  42.358   9.262
  343POPC   GL2 8438   4.233  42.516   9.126
  343POPC   C1A 8439   4.644  42.457   8.837
  343POPC   D2A 8440   4.460  42.553   8.423
  343POPC   C3A 8441   4.432  42.190   8.132
  343POPC   C4A 8442   4.434  42.278   7.700
  343POPC   C1B 8443   4.114  42.324   8.761
  343POPC   C2B 8444   3.952  42.327   8.356
  343POPC   C3B 8445   3.838  42.561   7.993
  343POPC   C4B 8446   3.937  42.339   7.606
  344POPC   NC3 8447  37.725  16.596   9.202
  344POPC   PO4 8448  37.705  17.246   9.402
  344POPC   GL1 8449  37.783  17.291   8.982
  344POPC   GL2 8450  38.125  17.240   9.021
  344POPC   C1A 8451  37.710  17.039   8.597
  344POPC   D2A 8452  37.463  16.708   8.395
  344POPC   C3A 8453  37.266  16.754   8.001
  344POPC   C4A 8454  37.608  16.627   7.732
  344POPC   C1B 8455  38.239  16.944   8.676
  344POPC   C2B 8456  38.158  16.861   8.226
  344POPC   C3B 8457  37.997  16.485   8.052
  344POPC   C4B 8458  38.060  16.191   7.742
  345POPC   NC3 8459  21.961   7.385   9.623
  345POPC   PO4 8460  22.517   7.248   9.529
  345POPC   GL1 8461  22.336   7.453   9.166
  345POPC   GL2 8462  21.963   7.466   9.132
  345POPC   C1A 8463  22.289   7.348   8.718
  345POPC   D2A 8464  22.345   7.377   8.259
  345POPC   C3A 8465  22.322   7.710   8.010
  345POPC   C4A 8466  22.436   7.467   7.666
  345POPC   C1B 8467  21.782   7.470   8.757
  345POPC   C2B 8468  21.862   7.282   8.409
  345POPC   C3B 8469  21.866   7.243   7.990
  345POPC   C4B 8470  22.013   7.141   7.588
  346POPC   NC3 8471  32.182   9.575   9.579
  346POPC   PO4 8472  32.632  10.078   9.412
  346POPC   GL1 8473  32.399   9.760   9.148
  346POPC   GL2 8474  32.361   9.370   9.162
  346POPC   C1A 8475  32.250   9.771   8.720
  346POPC   D2A 8476  32.388   9.985   8.348
  346POPC   C3A 8477  32.257  10.064   7.933
  346POPC   C4A 8478  32.463   9.949   7.527
  346POPC   C1B 8479  32.165   9.254   8.799
  346POPC   C2B 8480  31.955   9.408   8.457
  346POPC   C3B 8481  32.130   9.423   8.064
  346POPC   C4B 8482  32.109   9.637   7.696
  347POPC   NC3 8483  29.674   0.728   9.794
  347POPC   PO4 8484  29.087   0.692   9.511
  347POPC   GL1 8485  29.031   0.441   9.171
  347POPC   GL2 8486  29.357   0.370   9.181
  347POPC   C1A 8487  29.113   0.535   8.744
  347POPC   D2A 8488  29.104   0.825   8.439
  347POPC   C3A 8489  29.209   0.642   8.056
  347POPC   C4A 8490  28.899   0.480   7.793
  347POPC   C1B 8491  29.381   0.114   8.797
  347POPC   C2B 8492  29.448   0.270   8.386
  347POPC   C3B 8493  29.591   0.278   7.967
  347POPC   C4B 8494  29.281   0.188   7.680
  348POPC   NC3 8495  26.616   7.758   9.478
  348POPC   PO4 8496  27.095   7.282   9.531
  348POPC   GL1 8497  26.943   7.344   9.144
  348POPC   GL2 8498  26.618   7.266   9.141
  348POPC   C1A 8499  27.016   7.515   8.722
  348POPC   D2A 8500  26.814   7.534   8.338
  348POPC   C3A 8501  27.027   7.396   7.984
  348POPC   C4A 8502  26.933   7.452   7.565
  348POPC   C1B 8503  26.745   7.081   8.746
  348POPC   C2B 8504  26.664   6.930   8.363
  348POPC   C3B 8505  26.598   7.112   7.991
  348POPC   C4B 8506  26.750   6.985   7.607
  349POPC   NC3 8507  32.689  36.238   9.439
  349POPC   PO4 8508  33.322  36.460   9.469
  349POPC   GL1 8509  33.083  36.329   9.120
  349POPC   GL2 8510  33.068  35.969   9.163
  349POPC   C1A 8511  33.000  36.224   8.686
  349POPC   D2A 8512  32.859  36.094   8.279
  349POPC   C3A 8513  33.006  36.413   7.965
  349POPC   C4A 8514  33.230  36.318   7.583
  349POPC   C1B 8515  33.326  35.848   8.812
  349POPC   C2B 8516  33.455  36.031   8.429
  349POPC   C3B 8517  33.297  35.994   8.013
  349POPC   C4B 8518  33.331  35.826   7.618
  350POPC   NC3 8519  31.323  33.817   9.583
  350POPC   PO4 8520  31.938  33.632   9.449
  350POPC   GL1 8521  31.564  33.758   9.146
  350POPC   GL2 8522  31.293  34.039   9.133
  350POPC   C1A 8523  31.573  33.921   8.736
  350POPC   D2A 8524  31.618  33.754   8.333
  350POPC   C3A 8525  31.445  33.916   7.972
  350POPC   C4A 8526  31.477  33.724   7.584
  350POPC   C1B 8527  31.087  33.782   8.837
  350POPC   C2B 8528  31.140  33.918   8.409
  350POPC   C3B 8529  30.937  33.851   8.026
  350POPC   C4B 8530  30.975  33.726   7.587
  351POPC   NC3 8531  34.408  22.819   9.295
  351POPC   PO4 8532  34.638  23.430   9.512
  351POPC   GL1 8533  34.538  23.279   9.094
  351POPC   GL2 8534  34.812  23.036   9.060
  351POPC   C1A 8535  34.466  23.032   8.700
  351POPC   D2A 8536  34.556  22.742   8.378
  351POPC   C3A 8537  34.527  22.856   7.982
  351POPC   C4A 8538  34.605  22.686   7.617
  351POPC   C1B 8539  34.885  23.284   8.687
  351POPC   C2B 8540  34.690  23.248   8.261
  351POPC   C3B 8541  34.674  23.339   7.815
  351POPC   C4B 8542  34.682  23.422   7.357
  352POPC   NC3 8543  43.448   1.806   9.336
  352POPC   PO4 8544  44.121   2.002   9.463
  352POPC   GL1 8545  44.014   1.971   9.093
  352POPC   GL2 8546  43.717   2.167   9.066
  352POPC   C1A 8547  43.934   1.747   8.758
  352POPC   D2A 8548  43.821   1.790   8.358
  352POPC   C3A 8549  44.018   1.985   8.029
  352POPC   C4A 8550  44.063   1.884   7.627
  352POPC   C1B 8551  43.861   2.244   8.662
  352POPC   C2B 8552  43.615   2.242   8.273
  352POPC   C3B 8553  43.536   1.981   7.926
  352POPC   C4B 8554  43.671   2.205   7.578
  353POPC   NC3 8555  41.942  15.484   9.257
  353POPC   PO4 8556  42.325  15.773   9.687
  353POPC   GL1 8557  42.310  15.868   9.275
  353POPC   GL2 8558  42.514  15.563   9.200
  353POPC   C1A 8559  42.298  15.865   8.831
  353POPC   D2A 8560  42.606  15.943   8.529
  353POPC   C3A 8561  42.418  16.018   8.170
  353POPC   C4A 8562  42.192  16.034   7.823
  353POPC   C1B 8563  42.590  15.452   8.744
  353POPC   C2B 8564  42.484  15.500   8.283
  353POPC   C3B 8565  42.468  15.609   7.845
  353POPC   C4B 8566  42.510  15.547   7.386
  354POPC   NC3 8567  36.922  43.440   9.834
  354POPC   PO4 8568  37.062  42.887   9.443
  354POPC   GL1 8569  36.998  43.201   9.111
  354POPC   GL2 8570  36.718  43.432   9.018
  354POPC   C1A 8571  37.034  43.293   8.665
  354POPC   D2A 8572  37.062  43.014   8.379
  354POPC   C3A 8573  36.942  43.221   8.039
  354POPC   C4A 8574  37.091  43.105   7.680
  354POPC   C1B 8575  36.637  43.004   8.803
  354POPC   C2B 8576  36.536  42.992   8.372
  354POPC   C3B 8577  36.618  42.826   7.972
  354POPC   C4B 8578  36.586  43.141   7.664
  355POPC   NC3 8579  41.001  15.766   9.440
  355POPC   PO4 8580  40.376  16.069   9.506
  355POPC   GL1 8581  40.672  16.054   9.149
  355POPC   GL2 8582  40.772  15.696   9.006
  355POPC   C1A 8583  40.883  16.223   8.797
  355POPC   D2A 8584  41.009  16.116   8.389
  355POPC   C3A 8585  40.807  16.098   7.968
  355POPC   C4A 8586  40.765  15.717   7.768
  355POPC   C1B 8587  41.171  15.785   8.794
  355POPC   C2B 8588  41.403  15.796   8.414
  355POPC   C3B 8589  41.186  15.730   8.083
  355POPC   C4B 8590  41.268  15.796   7.710
  356POPC   NC3 8591  13.774  33.360   9.486
  356POPC   PO4 8592  13.517  33.962   9.689
  356POPC   GL1 8593  13.538  33.792   9.271
  356POPC   GL2 8594  13.800  34.000   9.173
  356POPC   C1A 8595  13.636  33.629   8.854
  356POPC   D2A 8596  13.767  33.832   8.472
  356POPC   C3A 8597  13.655  33.665   8.082
  356POPC   C4A 8598  13.822  33.795   7.707
  356POPC   C1B 8599  13.502  34.123   8.807
  356POPC   C2B 8600  13.282  34.143   8.434
  356POPC   C3B 8601  13.477  34.154   8.032
  356POPC   C4B 8602  13.253  34.201   7.661
  357POPC   NC3 8603  28.050  21.110   9.477
  357POPC   PO4 8604  28.476  21.650   9.409
  357POPC   GL1 8605  28.192  21.492   9.144
  357POPC   GL2 8606  27.986  21.732   9.092
  357POPC   C1A 8607  28.097  21.367   8.719
  357POPC   D2A 8608  28.405  21.509   8.411
  357POPC   C3A 8609  28.420  21.355   8.008
  357POPC   C4A 8610  28.138  21.224   7.677
  357POPC   C1B 8611  28.227  21.861   8.741
  357POPC   C2B 8612  28.331  22.042   8.356
  357POPC   C3B 8613  28.195  21.811   8.041
  357POPC   C4B 8614  28.170  21.728   7.651
  358POPC   NC3 8615  44.624  39.051   9.553
  358POPC   PO4 8616  44.668  39.647   9.454
  358POPC   GL1 8617  44.534  39.396   9.106
  358POPC   GL2 8618  44.461  39.042   9.068
  358POPC   C1A 8619  44.643  39.342   8.680
  358POPC   D2A 8620  44.596  39.612   8.359
  358POPC   C3A 8621  44.724  39.457   8.013
  358POPC   C4A 8622  44.683  39.487   7.609
  358POPC   C1B 8623  44.879  38.920   8.878
  358POPC   C2B 8624   0.024  38.870   8.402
  358POPC   C3B 8625   0.005  39.039   7.961
  358POPC   C4B 8626  44.595  39.007   7.733
  359POPC   NC3 8627  31.351  13.282   9.862
  359POPC   PO4 8628  31.604  13.714   9.389
  359POPC   GL1 8629  31.413  13.468   9.053
  359POPC   GL2 8630  31.713  13.510   8.910
  359POPC   C1A 8631  31.218  13.618   8.629
  359POPC   D2A 8632  31.176  13.653   8.205
  359POPC   C3A 8633  31.418  13.886   7.932
  359POPC   C4A 8634  31.202  13.780   7.576
  359POPC   C1B 8635  31.569  13.245   8.606
  359POPC   C2B 8636  31.492  13.238   8.201
  359POPC   C3B 8637  31.406  13.394   7.823
  359POPC   C4B 8638  31.628  13.492   7.456
  360POPC   NC3 8639  10.666   3.714   9.537
  360POPC   PO4 8640  10.168   3.304   9.688
  360POPC   GL1 8641  10.329   3.446   9.239
  360POPC   GL2 8642  10.631   3.623   9.055
  360POPC   C1A 8643  10.250   3.484   8.779
  360POPC   D2A 8644  10.604   3.655   8.532
  360POPC   C3A 8645  10.572   3.658   8.109
  360POPC   C4A 8646  10.689   3.511   7.714
  360POPC   C1B 8647  10.920   3.927   8.840
  360POPC   C2B 8648  11.067   3.972   8.377
  360POPC   C3B 8649  11.010   3.854   7.906
  360POPC   C4B 8650  10.901   3.821   7.390
  361POPC   NC3 8651  18.587  37.643   9.427
  361POPC   PO4 8652  18.150  38.186   9.473
  361POPC   GL1 8653  18.137  38.091   8.998
  361POPC   GL2 8654  18.371  37.806   9.004
  361POPC   C1A 8655  18.106  37.834   8.560
  361POPC   D2A 8656  17.946  37.492   8.247
  361POPC   C3A 8657  18.093  37.535   7.796
  361POPC   C4A 8658  18.157  37.507   7.335
  361POPC   C1B 8659  18.571  37.640   8.642
  361POPC   C2B 8660  18.451  37.554   8.233
  361POPC   C3B 8661  18.581  37.732   7.874
  361POPC   C4B 8662  18.387  37.931   7.559
  362POPC   NC3 8663  24.654  26.322   9.483
  362POPC   PO4 8664  24.316  25.745   9.516
  362POPC   GL1 8665  24.242  26.104   9.234
  362POPC   GL2 8666  24.550  25.994   9.092
  362POPC   C1A 8667  24.246  26.257   8.796
  362POPC   D2A 8668  24.454  26.028   8.479
  362POPC   C3A 8669  24.397  26.224   8.120
  362POPC   C4A 8670  24.460  26.185   7.703
  362POPC   C1B 8671  24.779  26.240   8.804
  362POPC   C2B 8672  25.001  26.213   8.437
  362POPC   C3B 8673  24.882  26.083   8.055
  362POPC   C4B 8674  24.951  26.291   7.706
  363POPC   NC3 8675  35.142  43.502   9.328
  363POPC   PO4 8676  35.621  44.003   9.604
  363POPC   GL1 8677  35.459  43.943   9.189
  363POPC   GL2 8678  35.174  44.104   9.076
  363POPC   C1A 8679  35.509  43.950   8.735
  363POPC   D2A 8680  35.475  43.602   8.420
  363POPC   C3A 8681  35.403  43.667   7.983
  363POPC   C4A 8682  35.457  43.887   7.594
  363POPC   C1B 8683  35.048  43.779   8.760
  363POPC   C2B 8684  34.983  43.761   8.367
  363POPC   C3B 8685  34.956  43.953   8.022
  363POPC   C4B 8686  34.954  43.777   7.649
  364POPC   NC3 8687  19.403   4.846   9.419
  364POPC   PO4 8688  18.892   5.253   9.506
  364POPC   GL1 8689  18.974   5.144   9.123
  364POPC   GL2 8690  18.962   4.778   9.159
  364POPC   C1A 8691  18.977   5.331   8.720
  364POPC   D2A 8692  19.148   5.173   8.361
  364POPC   C3A 8693  19.150   5.368   7.995
  364POPC   C4A 8694  18.866   5.269   7.715
  364POPC   C1B 8695  19.148   4.823   8.748
  364POPC   C2B 8696  19.072   4.663   8.335
  364POPC   C3B 8697  19.011   4.860   7.977
  364POPC   C4B 8698  19.171   4.859   7.602
  365POPC   NC3 8699  31.215  13.906   9.199
  365POPC   PO4 8700  30.619  13.654   9.555
  365POPC   GL1 8701  30.540  13.501   9.167
  365POPC   GL2 8702  30.881  13.394   9.112
  365POPC   C1A 8703  30.586  13.695   8.792
  365POPC   D2A 8704  30.730  13.548   8.429
  365POPC   C3A 8705  30.584  13.747   8.090
  365POPC   C4A 8706  30.495  13.810   7.706
  365POPC   C1B 8707  31.069  13.169   8.785
  365POPC   C2B 8708  31.020  13.137   8.355
  365POPC   C3B 8709  30.880  13.337   7.950
  365POPC   C4B 8710  30.812  13.471   7.513
  366POPC   NC3 8711   4.671  44.893   9.452
  366POPC   PO4 8712   4.127  44.604   9.607
  366POPC   GL1 8713   4.234  44.631   9.172
  366POPC   GL2 8714   4.362  44.976   9.055
  366POPC   C1A 8715   4.306  44.476   8.768
  366POPC   D2A 8716   4.385  44.675   8.380
  366POPC   C3A 8717   4.098  44.552   8.084
  366POPC   C4A 8718   4.352  44.386   7.786
  366POPC   C1B 8719   4.050  44.912   8.714
  366POPC   C2B 8720   4.107   0.117   8.311
  366POPC   C3B 8721   4.299   0.011   7.901
  366POPC   C4B 8722   4.148   0.127   7.475
  367POPC   NC3 8723  40.411  18.134   9.237
  367POPC   PO4 8724  39.904  18.423   9.533
  367POPC   GL1 8725  39.974  18.380   9.131
  367POPC   GL2 8726  40.221  18.616   9.077
  367POPC   C1A 8727  39.944  18.341   8.701
  367POPC   D2A 8728  39.590  18.469   8.454
  367POPC   C3A 8729  39.559  18.346   8.019
  367POPC   C4A 8730  39.689  18.290   7.556
  367POPC   C1B 8731  40.303  18.729   8.684
  367POPC   C2B 8732  40.063  18.671   8.314
  367POPC   C3B 8733  40.057  18.428   7.931
  367POPC   C4B 8734  40.178  18.392   7.517
  368POPC   NC3 8735   6.258  25.903   9.108
  368POPC   PO4 8736   5.727  26.049   9.443
  368POPC   GL1 8737   5.784  26.039   9.021
  368POPC   GL2 8738   6.050  26.337   9.023
  368POPC   C1A 8739   5.821  25.828   8.599
  368POPC   D2A 8740   6.126  25.722   8.249
  368POPC   C3A 8741   5.974  25.903   7.888
  368POPC   C4A 8742   5.800  25.767   7.496
  368POPC   C1B 8743   5.841  26.372   8.663
  368POPC   C2B 8744   5.946  26.252   8.263
  368POPC   C3B 8745   6.007  26.435   7.852
  368POPC   C4B 8746   5.815  26.529   7.443
  369POPC   NC3 8747  34.813   2.110   9.532
  369POPC   PO4 8748  34.430   1.582   9.477
  369POPC   GL1 8749  34.397   1.834   9.102
  369POPC   GL2 8750  34.734   1.980   9.041
  369POPC   C1A 8751  34.345   2.136   8.748
  369POPC   D2A 8752  34.393   2.288   8.323
  369POPC   C3A 8753  34.473   1.967   8.055
  369POPC   C4A 8754  34.386   1.935   7.639
  369POPC   C1B 8755  34.907   1.770   8.671
  369POPC   C2B 8756  35.009   1.786   8.220
  369POPC   C3B 8757  34.889   1.837   7.778
  369POPC   C4B 8758  34.828   2.175   7.485
  370POPC   NC3 8759  42.604   5.581   9.490
  370POPC   PO4 8760  42.108   5.947   9.561
  370POPC   GL1 8761  42.316   5.834   9.162
  370POPC   GL2 8762  42.602   6.064   9.186
  370POPC   C1A 8763  42.131   5.760   8.744
  370POPC   D2A 8764  41.861   5.684   8.400
  370POPC   C3A 8765  42.029   5.800   8.001
  370POPC   C4A 8766  42.054   5.896   7.572
  370POPC   C1B 8767  42.710   5.762   8.854
  370POPC   C2B 8768  42.792   5.671   8.451
  370POPC   C3B 8769  42.772   5.587   8.021
  370POPC   C4B 8770  42.441   5.635   7.762
  371POPC   NC3 8771  15.721  35.883   9.540
  371POPC   PO4 8772  16.030  36.486   9.447
  371POPC   GL1 8773  15.895  36.245   9.090
  371POPC   GL2 8774  15.904  35.881   9.073
  371POPC   C1A 8775  16.010  36.116   8.648
  371POPC   D2A 8776  15.754  36.207   8.325
  371POPC   C3A 8777  15.998  36.248   8.010
  371POPC   C4A 8778  15.871  36.217   7.642
  371POPC   C1B 8779  15.630  35.790   8.704
  371POPC   C2B 8780  15.706  35.708   8.258
  371POPC   C3B 8781  15.981  35.771   7.881
  371POPC   C4B 8782  15.834  35.742   7.445
  372POPC   NC3 8783  21.715   3.686   9.321
  372POPC   PO4 8784  21.596   3.178   9.759
  372POPC   GL1 8785  21.548   3.280   9.152
  372POPC   GL2 8786  21.323   3.530   9.026
  372POPC   C1A 8787  21.734   3.344   8.743
  372POPC   D2A 8788  21.477   3.295   8.397
  372POPC   C3A 8789  21.655   3.227   8.006
  372POPC   C4A 8790  21.410   3.239   7.643
  372POPC   C1B 8791  21.486   3.763   8.635
  372POPC   C2B 8792  21.466   3.945   8.207
  372POPC   C3B 8793  21.552   3.709   7.809
  372POPC   C4B 8794  21.220   3.696   7.446
  373POPC   NC3 8795  10.151  32.001   9.880
  373POPC   PO4 8796  10.672  32.241   9.605
  373POPC   GL1 8797  10.666  32.216   9.136
  373POPC   GL2 8798  10.833  31.961   8.914
  373POPC   C1A 8799  10.403  32.211   8.811
  373POPC   D2A 8800  10.283  32.335   8.438
  373POPC   C3A 8801  10.173  32.129   8.043
  373POPC   C4A 8802  10.273  32.019   7.623
  373POPC   C1B 8803  10.872  32.394   8.710
  373POPC   C2B 8804  10.723  32.624   8.335
  373POPC   C3B 8805  10.641  32.373   7.943
  373POPC   C4B 8806  10.662  32.368   7.476
  374POPC   NC3 8807  39.591  15.204   9.525
  374POPC   PO4 8808  39.030  15.184   9.888
  374POPC   GL1 8809  38.892  15.301   9.418
  374POPC   GL2 8810  39.198  15.371   9.209
  374POPC   C1A 8811  38.814  15.119   8.949
  374POPC   D2A 8812  39.059  14.895   8.581
  374POPC   C3A 8813  39.139  15.100   8.184
  374POPC   C4A 8814  39.040  15.300   7.790
  374POPC   C1B 8815  39.479  15.370   8.842
  374POPC   C2B 8816  39.529  15.635   8.502
  374POPC   C3B 8817  39.407  15.550   8.093
  374POPC   C4B 8818  39.523  15.434   7.679
  375POPC   NC3 8819  31.081  28.759   9.568
  375POPC   PO4 8820  31.660  28.449   9.858
  375POPC   GL1 8821  31.637  28.425   9.357
  375POPC   GL2 8822  31.325  28.522   9.185
  375POPC   C1A 8823  31.662  28.265   8.896
  375POPC   D2A 8824  31.390  28.246   8.542
  375POPC   C3A 8825  31.506  28.420   8.143
  375POPC   C4A 8826  31.472  28.277   7.723
  375POPC   C1B 8827  31.331  28.722   8.776
  375POPC   C2B 8828  31.095  28.637   8.396
  375POPC   C3B 8829  31.152  28.753   7.959
  375POPC   C4B 8830  31.031  28.497   7.627
  376POPC   NC3 8831  18.791  26.649   9.763
  376POPC   PO4 8832  19.330  26.940   9.562
  376POPC   GL1 8833  19.185  26.913   9.138
  376POPC   GL2 8834  18.891  26.721   9.222
  376POPC   C1A 8835  19.107  26.995   8.716
  376POPC   D2A 8836  19.362  26.947   8.371
  376POPC   C3A 8837  19.190  26.899   7.993
  376POPC   C4A 8838  19.229  27.058   7.615
  376POPC   C1B 8839  19.076  26.511   8.838
  376POPC   C2B 8840  18.994  26.581   8.385
  376POPC   C3B 8841  19.103  26.396   7.967
  376POPC   C4B 8842  19.003  26.570   7.564
  377POPC   NC3 8843  26.672  42.813   9.671
  377POPC   PO4 8844  27.108  43.256   9.484
  377POPC   GL1 8845  26.957  43.075   9.121
  377POPC   GL2 8846  26.622  43.023   9.169
  377POPC   C1A 8847  26.836  43.121   8.692
  377POPC   D2A 8848  26.839  42.787   8.393
  377POPC   C3A 8849  26.655  42.831   8.028
  377POPC   C4A 8850  26.707  43.104   7.718
  377POPC   C1B 8851  26.458  42.803   8.789
  377POPC   C2B 8852  26.381  43.067   8.414
  377POPC   C3B 8853  26.524  43.404   8.109
  377POPC   C4B 8854  26.483  43.529   7.653
  378POPC   NC3 8855  31.052  31.176   9.340
  378POPC   PO4 8856  31.633  30.861   9.507
  378POPC   GL1 8857  31.416  30.802   9.143
  378POPC   GL2 8858  31.711  30.609   9.054
  378POPC   C1A 8859  31.444  30.857   8.702
  378POPC   D2A 8860  31.709  30.804   8.382
  378POPC   C3A 8861  31.520  30.951   8.037
  378POPC   C4A 8862  31.405  31.051   7.618
  378POPC   C1B 8863  31.501  30.368   8.787
  378POPC   C2B 8864  31.267  30.437   8.436
  378POPC   C3B 8865  31.458  30.423   8.079
  378POPC   C4B 8866  31.523  30.561   7.699
  379POPC   NC3 8867  38.975  11.608   9.641
  379POPC   PO4 8868  38.853  10.944   9.581
  379POPC   GL1 8869  39.124  11.139   9.221
  379POPC   GL2 8870  39.154  11.513   9.176
  379POPC   C1A 8871  39.253  11.173   8.763
  379POPC   D2A 8872  39.015  11.187   8.357
  379POPC   C3A 8873  39.131  11.219   7.903
  379POPC   C4A 8874  39.010  11.502   7.561
  379POPC   C1B 8875  39.349  11.680   8.806
  379POPC   C2B 8876  39.478  11.482   8.390
  379POPC   C3B 8877  39.468  11.585   7.929
  379POPC   C4B 8878  39.495  11.392   7.485
  380POPC   NC3 8879  35.628  40.973   9.255
  380POPC   PO4 8880  36.038  40.595   9.451
  380POPC   GL1 8881  36.113  40.880   9.099
  380POPC   GL2 8882  35.880  40.657   8.954
  380POPC   C1A 8883  36.277  40.849   8.682
  380POPC   D2A 8884  36.440  40.542   8.397
  380POPC   C3A 8885  36.371  40.707   7.995
  380POPC   C4A 8886  36.322  41.083   7.738
  380POPC   C1B 8887  35.961  40.432   8.596
  380POPC   C2B 8888  35.937  40.725   8.282
  380POPC   C3B 8889  35.873  40.887   7.889
  380POPC   C4B 8890  35.855  41.068   7.465
  381POPC   NC3 8891  24.727  15.862   9.381
  381POPC   PO4 8892  24.384  16.318   9.723
  381POPC   GL1 8893  24.326  16.133   9.269
  381POPC   GL2 8894  24.543  16.365   9.178
  381POPC   C1A 8895  24.528  15.995   8.799
  381POPC   D2A 8896  24.689  15.907   8.341
  381POPC   C3A 8897  24.653  15.681   7.960
  381POPC   C4A 8898  24.351  15.539   7.657
  381POPC   C1B 8899  24.190  16.344   8.856
  381POPC   C2B 8900  24.341  16.355   8.475
  381POPC   C3B 8901  24.256  16.103   8.142
  381POPC   C4B 8902  24.468  16.154   7.810
  382POPC   NC3 8903  21.097  42.192   9.834
  382POPC   PO4 8904  21.678  42.183   9.448
  382POPC   GL1 8905  21.539  42.554   9.236
  382POPC   GL2 8906  21.210  42.418   9.134
  382POPC   C1A 8907  21.475  42.693   8.803
  382POPC   D2A 8908  21.288  42.436   8.423
  382POPC   C3A 8909  21.411  42.546   7.986
  382POPC   C4A 8910  21.137  42.542   7.603
  382POPC   C1B 8911  21.485  42.155   8.807
  382POPC   C2B 8912  21.574  41.921   8.390
  382POPC   C3B 8913  21.574  41.832   7.930
  382POPC   C4B 8914  21.380  42.120   7.683
  383POPC   NC3 8915  29.184   9.328   9.551
  383POPC   PO4 8916  29.234   9.920   9.700
  383POPC   GL1 8917  29.183   9.783   9.248
  383POPC   GL2 8918  28.903   9.547   9.166
  383POPC   C1A 8919  29.087   9.910   8.790
  383POPC   D2A 8920  29.234  10.104   8.393
  383POPC   C3A 8921  29.235   9.869   7.997
  383POPC   C4A 8922  29.013   9.784   7.596
  383POPC   C1B 8923  28.765   9.498   8.762
  383POPC   C2B 8924  28.953   9.586   8.363
  383POPC   C3B 8925  29.228   9.341   8.099
  383POPC   C4B 8926  29.393   9.459   7.710
  384POPC   NC3 8927  27.040  14.888   9.549
  384POPC   PO4 8928  26.881  15.551   9.544
  384POPC   GL1 8929  26.975  15.343   9.153
  384POPC   GL2 8930  27.258  15.102   9.116
  384POPC   C1A 8931  27.105  15.400   8.723
  384POPC   D2A 8932  26.937  15.519   8.332
  384POPC   C3A 8933  27.028  15.346   7.932
  384POPC   C4A 8934  27.157  14.958   7.785
  384POPC   C1B 8935  27.096  14.895   8.721
  384POPC   C2B 8936  26.889  14.999   8.299
  384POPC   C3B 8937  26.671  14.947   7.877
  384POPC   C4B 8938  26.819  14.687   7.502
  385POPC   NC3 8939  12.697  32.386   9.511
  385POPC   PO4 8940  13.289  32.344   9.805
  385POPC   GL1 8941  13.283  32.154   9.345
  385POPC   GL2 8942  12.958  31.994   9.260
  385POPC   C1A 8943  13.202  32.170   8.861
  385POPC   D2A 8944  13.027  32.529   8.593
  385POPC   C3A 8945  12.921  32.381   8.153
  385POPC   C4A 8946  12.738  32.562   7.751
  385POPC   C1B 8947  12.746  31.913   8.833
  385POPC   C2B 8948  12.671  31.870   8.359
  385POPC   C3B 8949  12.641  32.023   7.912
  385POPC   C4B 8950  12.660  32.139   7.460
  386POPC   NC3 8951  17.627  42.683   9.351
  386POPC   PO4 8952  17.329  43.200   9.655
  386POPC   GL1 8953  17.414  43.157   9.171
  386POPC   GL2 8954  17.371  42.825   8.945
  386POPC   C1A 8955  17.342  43.302   8.718
  386POPC   D2A 8956  17.126  43.250   8.279
  386POPC   C3A 8957  17.370  43.312   7.891
  386POPC   C4A 8958  17.244  43.275   7.437
  386POPC   C1B 8959  17.714  42.973   8.730
  386POPC   C2B 8960  17.634  43.104   8.304
  386POPC   C3B 8961  17.818  42.966   7.953
  386POPC   C4B 8962  17.586  42.938   7.597
  387POPC   NC3 8963   2.345  44.550   9.476
  387POPC   PO4 8964   1.885   0.021   9.523
  387POPC   GL1 8965   1.918  44.746   9.193
  387POPC   GL2 8966   1.635  44.540   9.221
  387POPC   C1A 8967   2.037  44.790   8.763
  387POPC   D2A 8968   2.290  44.878   8.400
  387POPC   C3A 8969   2.073  44.808   8.025
  387POPC   C4A 8970   1.830  44.932   7.708
  387POPC   C1B 8971   1.715  44.345   8.793
  387POPC   C2B 8972   1.813  44.488   8.358
  387POPC   C3B 8973   1.656  44.413   7.933
  387POPC   C4B 8974   1.705  44.455   7.468
  388POPC   NC3 8975  29.114  25.130   9.654
  388POPC   PO4 8976  29.023  25.725   9.347
  388POPC   GL1 8977  29.213  25.364   9.139
  388POPC   GL2 8978  29.156  25.032   9.171
  388POPC   C1A 8979  29.374  25.227   8.755
  388POPC   D2A 8980  29.238  25.463   8.413
  388POPC   C3A 8981  29.411  25.352   8.036
  388POPC   C4A 8982  29.487  25.080   7.682
  388POPC   C1B 8983  28.894  25.013   8.838
  388POPC   C2B 8984  29.048  24.968   8.440
  388POPC   C3B 8985  28.948  25.152   8.092
  388POPC   C4B 8986  29.006  25.236   7.706
  389POPC   NC3 8987  35.244  20.562   9.514
  389POPC   PO4 8988  34.731  20.922   9.336
  389POPC   GL1 8989  35.185  20.934   9.144
  389POPC   GL2 8990  35.541  20.739   9.127
  389POPC   C1A 8991  35.423  21.048   8.756
  389POPC   D2A 8992  35.440  20.764   8.443
  389POPC   C3A 8993  35.188  20.811   8.135
  389POPC   C4A 8994  35.266  20.716   7.720
  389POPC   C1B 8995  35.369  20.446   8.844
  389POPC   C2B 8996  35.173  20.319   8.438
  389POPC   C3B 8997  35.351  20.332   8.039
  389POPC   C4B 8998  35.198  20.213   7.610
  390POPC   NC3 8999  42.468  28.172   9.522
  390POPC   PO4 9000  42.280  28.819   9.515
  390POPC   GL1 9001  42.178  28.483   9.229
  390POPC   GL2 9002  42.531  28.492   9.130
  390POPC   C1A 9003  42.225  28.230   8.839
  390POPC   D2A 9004  42.332  28.504   8.493
  390POPC   C3A 9005  42.074  28.477   8.131
  390POPC   C4A 9006  42.166  28.383   7.697
  390POPC   C1B 9007  42.737  28.172   8.851
  390POPC   C2B 9008  42.543  28.045   8.464
  390POPC   C3B 9009  42.532  28.273   8.077
  390POPC   C4B 9010  42.733  28.426   7.737
  391POPC   NC3 9011  18.818   1.401   9.501
  391POPC   PO4 9012  19.453   1.257   9.402
  391POPC   GL1 9013  19.171   1.416   9.071
  391POPC   GL2 9014  18.800   1.474   9.016
  391POPC   C1A 9015  19.124   1.326   8.633
  391POPC   D2A 9016  19.204   1.001   8.354
  391POPC   C3A 9017  18.931   0.918   8.031
  391POPC   C4A 9018  19.072   1.056   7.610
  391POPC   C1B 9019  18.807   1.732   8.673
  391POPC   C2B 9020  18.879   1.621   8.225
  391POPC   C3B 9021  18.755   1.359   7.868
  391POPC   C4B 9022  18.810   1.412   7.392
  392POPC   NC3 9023   2.424  26.372   9.672
  392POPC   PO4 9024   1.798  26.771   9.534
  392POPC   GL1 9025   2.014  26.815   9.123
  392POPC   GL2 9026   2.258  26.540   9.036
  392POPC   C1A 9027   2.104  26.956   8.700
  392POPC   D2A 9028   2.023  27.166   8.290
  392POPC   C3A 9029   1.946  26.957   7.895
  392POPC   C4A 9030   1.756  27.156   7.509
  392POPC   C1B 9031   1.915  26.489   8.713
  392POPC   C2B 9032   1.809  26.645   8.313
  392POPC   C3B 9033   1.833  26.464   7.913
  392POPC   C4B 9034   1.698  26.651   7.532
  393POPC   NC3 9035  36.138  35.063   9.382
  393POPC   PO4 9036  35.774  35.625   9.354
  393POPC   GL1 9037  35.948  35.464   9.045
  393POPC   GL2 9038  35.587  35.524   8.897
  393POPC   C1A 9039  36.313  35.541   8.774
  393POPC   D2A 9040  36.422  35.855   8.444
  393POPC   C3A 9041  36.338  35.678   8.030
  393POPC   C4A 9042  36.468  35.595   7.591
  393POPC   C1B 9043  35.845  35.439   8.565
  393POPC   C2B 9044  36.087  35.152   8.368
  393POPC   C3B 9045  36.373  35.168   8.072
  393POPC   C4B 9046  36.116  35.274   7.742
  394POPC   NC3 9047   2.600  31.961   9.536
  394POPC   PO4 9048   3.046  32.353   9.732
  394POPC   GL1 9049   2.983  32.306   9.267
  394POPC   GL2 9050   2.996  31.974   9.178
  394POPC   C1A 9051   2.772  32.322   8.820
  394POPC   D2A 9052   2.895  32.197   8.362
  394POPC   C3A 9053   2.766  32.476   8.017
  394POPC   C4A 9054   2.762  32.622   7.583
  394POPC   C1B 9055   2.875  31.835   8.759
  394POPC   C2B 9056   2.500  31.900   8.489
  394POPC   C3B 9057   2.493  31.959   8.056
  394POPC   C4B 9058   2.860  32.031   7.784
  395POPC   NC3 9059  27.102   3.515   9.327
  395POPC   PO4 9060  26.840   3.104   9.735
  395POPC   GL1 9061  26.670   3.253   9.250
  395POPC   GL2 9062  26.642   3.633   9.108
  395POPC   C1A 9063  26.633   3.292   8.762
  395POPC   D2A 9064  26.485   3.624   8.446
  395POPC   C3A 9065  26.577   3.580   8.013
  395POPC   C4A 9066  26.719   3.808   7.696
  395POPC   C1B 9067  26.881   3.758   8.734
  395POPC   C2B 9068  26.968   3.520   8.357
  395POPC   C3B 9069  27.091   3.569   7.957
  395POPC   C4B 9070  27.039   3.416   7.587
  396POPC   NC3 9071   8.620   8.062   9.452
  396POPC   PO4 9072   9.039   8.505   9.341
  396POPC   GL1 9073   8.914   8.232   9.061
  396POPC   GL2 9074   8.581   8.392   9.074
  396POPC   C1A 9075   9.102   8.011   8.708
  396POPC   D2A 9076   9.175   7.900   8.274
  396POPC   C3A 9077   9.170   8.205   7.945
  396POPC   C4A 9078   9.332   8.242   7.514
  396POPC   C1B 9079   8.724   8.463   8.665
  396POPC   C2B 9080   8.895   8.527   8.304
  396POPC   C3B 9081   8.732   8.466   7.938
  396POPC   C4B 9082   8.474   8.486   7.607
  397POPC   NC3 9083  44.145  15.519   9.299
  397POPC   PO4 9084  43.703  15.056   9.528
  397POPC   GL1 9085  43.883  15.085   9.140
  397POPC   GL2 9086  43.636  15.339   9.087
  397POPC   C1A 9087  43.970  15.264   8.715
  397POPC   D2A 9088  43.929  15.594   8.426
  397POPC   C3A 9089  44.017  15.447   8.019
  397POPC   C4A 9090  43.819  15.488   7.644
  397POPC   C1B 9091  43.531  14.995   8.772
  397POPC   C2B 9092  43.672  15.098   8.328
  397POPC   C3B 9093  43.422  15.035   7.947
  397POPC   C4B 9094  43.649  15.000   7.618
  398POPC   NC3 9095   3.070   6.936   9.418
  398POPC   PO4 9096   2.663   6.350   9.433
  398POPC   GL1 9097   2.727   6.597   9.067
  398POPC   GL2 9098   3.042   6.536   9.063
  398POPC   C1A 9099   2.867   6.792   8.646
  398POPC   D2A 9100   2.951   6.832   8.168
  398POPC   C3A 9101   2.579   6.875   7.871
  398POPC   C4A 9102   2.251   6.568   7.752
  398POPC   C1B 9103   3.312   6.529   8.668
  398POPC   C2B 9104   3.414   6.295   8.291
  398POPC   C3B 9105   3.140   6.253   7.901
  398POPC   C4B 9106   2.980   6.616   7.685
  399POPC   NC3 9107   8.800  18.993   9.396
  399POPC   PO4 9108   9.296  19.480   9.420
  399POPC   GL1 9109   9.142  19.247   9.098
  399POPC   GL2 9110   9.315  18.954   9.128
  399POPC   C1A 9111   9.046  19.078   8.692
  399POPC   D2A 9112   8.846  19.016   8.290
  399POPC   C3A 9113   9.064  19.119   7.898
  399POPC   C4A 9114   8.826  19.074   7.503
  399POPC   C1B 9115   9.533  18.870   8.730
  399POPC   C2B 9116   9.373  18.945   8.306
  399POPC   C3B 9117   9.390  18.690   7.904
  399POPC   C4B 9118   9.282  18.851   7.479
  400POPC   NC3 9119  18.132  12.416   9.497
  400POPC   PO4 9120  18.320  11.742   9.523
  400POPC   GL1 9121  18.335  12.017   9.226
  400POPC   GL2 9122  17.997  12.031   9.168
  400POPC   C1A 9123  18.421  12.074   8.818
  400POPC   D2A 9124  18.212  12.054   8.462
  400POPC   C3A 9125  18.453  11.993   8.107
  400POPC   C4A 9126  18.372  12.187   7.778
  400POPC   C1B 9127  17.906  12.296   8.832
  400POPC   C2B 9128  17.791  12.347   8.401
  400POPC   C3B 9129  17.923  12.141   8.016
  400POPC   C4B 9130  17.929  12.112   7.575
  401POPC   NC3 9131  10.580  43.508  10.071
  401POPC   PO4 9132  10.793  44.051   9.632
  401POPC   GL1 9133  10.675  43.952   9.201
  401POPC   GL2 9134  10.584  43.603   9.176
  401POPC   C1A 9135  10.542  43.902   8.751
  401POPC   D2A 9136  10.547  44.082   8.332
  401POPC   C3A 9137  10.504  43.830   7.960
  401POPC   C4A 9138  10.561  43.935   7.539
  401POPC   C1B 9139  10.252  43.478   8.837
  401POPC   C2B 9140  10.204  43.686   8.428
  401POPC   C3B 9141  10.107  43.486   8.051
  401POPC   C4B 9142  10.246  43.365   7.643
  402POPC   NC3 9143  31.536   2.402   9.457
  402POPC   PO4 9144  31.253   3.004   9.460
  402POPC   GL1 9145  31.509   2.818   9.149
  402POPC   GL2 9146  31.766   2.949   9.309
  402POPC   C1A 9147  31.545   2.743   8.703
  402POPC   D2A 9148  31.390   3.036   8.373
  402POPC   C3A 9149  31.249   2.777   8.033
  402POPC   C4A 9150  31.485   2.650   7.681
  402POPC   C1B 9151  31.980   2.937   8.942
  402POPC   C2B 9152  32.047   2.956   8.512
  402POPC   C3B 9153  31.832   2.897   8.138
  402POPC   C4B 9154  31.979   2.825   7.717
  403POPC   NC3 9155   0.159  10.099   9.535
  403POPC   PO4 9156   0.529   9.562   9.405
  403POPC   GL1 9157   0.208   9.706   9.185
  403POPC   GL2 9158   0.316  10.015   9.039
  403POPC   C1A 9159   0.119   9.648   8.769
  403POPC   D2A 9160   0.146   9.876   8.412
  403POPC   C3A 9161   0.291   9.695   8.029
  403POPC   C4A 9162   0.360   9.723   7.537
  403POPC   C1B 9163   0.600   9.831   8.690
  403POPC   C2B 9164   0.834   9.748   8.306
  403POPC   C3B 9165   0.750   9.776   7.850
  403POPC   C4B 9166   0.900   9.862   7.435
  404POPC   NC3 9167   5.308  15.484   9.490
  404POPC   PO4 9168   5.336  14.846   9.491
  404POPC   GL1 9169   5.305  15.113   9.108
  404POPC   GL2 9170   5.046  15.399   9.070
  404POPC   C1A 9171   5.167  15.100   8.664
  404POPC   D2A 9172   5.321  14.896   8.282
  404POPC   C3A 9173   5.166  15.082   7.872
  404POPC   C4A 9174   5.338  15.310   7.495
  404POPC   C1B 9175   5.036  15.613   8.671
  404POPC   C2B 9176   5.004  15.397   8.256
  404POPC   C3B 9177   4.928  15.523   7.811
  404POPC   C4B 9178   4.985  15.644   7.352
  405POPC   NC3 9179  20.400   4.765   9.413
  405POPC   PO4 9180  20.631   5.359   9.581
  405POPC   GL1 9181  20.684   5.139   9.207
  405POPC   GL2 9182  20.332   5.201   9.140
  405POPC   C1A 9183  20.654   4.924   8.809
  405POPC   D2A 9184  20.717   5.156   8.430
  405POPC   C3A 9185  20.593   5.075   8.008
  405POPC   C4A 9186  20.786   4.857   7.670
  405POPC   C1B 9187  20.436   5.481   8.793
  405POPC   C2B 9188  20.319   5.493   8.344
  405POPC   C3B 9189  20.366   5.529   7.887
  405POPC   C4B 9190  20.464   5.328   7.530
  406POPC   NC3 9191   2.792  27.974   9.540
  406POPC   PO4 9192   2.954  27.354   9.717
  406POPC   GL1 9193   2.816  27.511   9.292
  406POPC   GL2 9194   2.536  27.684   9.196
  406POPC   C1A 9195   2.870  27.561   8.834
  406POPC   D2A 9196   2.857  27.351   8.430
  406POPC   C3A 9197   2.892  27.534   8.009
  406POPC   C4A 9198   2.647  27.487   7.627
  406POPC   C1B 9199   2.463  27.866   8.799
  406POPC   C2B 9200   2.723  27.852   8.405
  406POPC   C3B 9201   2.533  27.958   7.999
  406POPC   C4B 9202   2.179  27.881   7.753
  407POPC   NC3 9203  33.233   5.740   9.492
  407POPC   PO4 9204  33.885   5.728   9.579
  407POPC   GL1 9205  33.697   5.773   9.153
  407POPC   GL2 9206  33.956   5.973   9.110
  407POPC   C1A 9207  33.648   5.932   8.676
  407POPC   D2A 9208  33.708   6.281   8.337
  407POPC   C3A 9209  33.590   6.242   7.897
  407POPC   C4A 9210  33.441   5.856   7.755
  407POPC   C1B 9211  34.143   5.847   8.756
  407POPC   C2B 9212  34.121   5.985   8.367
  407POPC   C3B 9213  33.851   5.846   8.093
  407POPC   C4B 9214  33.961   5.842   7.698
  408POPC   NC3 9215  31.775  32.943   9.460
  408POPC   PO4 9216  31.176  32.984   9.479
  408POPC   GL1 9217  31.442  33.158   9.131
  408POPC   GL2 9218  31.802  33.296   9.095
  408POPC   C1A 9219  31.542  32.927   8.747
  408POPC   D2A 9220  31.266  32.901   8.401
  408POPC   C3A 9221  31.451  32.953   8.021
  408POPC   C4A 9222  31.191  32.876   7.708
  408POPC   C1B 9223  31.620  33.424   8.729
  408POPC   C2B 9224  31.698  33.257   8.345
  408POPC   C3B 9225  31.726  33.428   7.935
  408POPC   C4B 9226  31.568  33.197   7.576
  409POPC   NC3 9227  11.676   2.204   9.879
  409POPC   PO4 9228  12.235   1.857   9.906
  409POPC   GL1 9229  12.208   1.755   9.390
  409POPC   GL2 9230  12.112   2.028   9.149
  409POPC   C1A 9231  12.289   1.642   8.900
  409POPC   D2A 9232  12.363   1.634   8.445
  409POPC   C3A 9233  12.036   1.819   8.162
  409POPC   C4A 9234  11.970   1.727   7.718
  409POPC   C1B 9235  12.268   2.278   8.821
  409POPC   C2B 9236  12.073   2.395   8.463
  409POPC   C3B 9237  12.108   2.432   8.045
  409POPC   C4B 9238  11.936   2.235   7.709
  410POPC   NC3 9239  43.358  15.405   9.531
  410POPC   PO4 9240  42.763  15.071   9.398
  410POPC   GL1 9241  43.101  15.199   9.144
  410POPC   GL2 9242  43.179  15.560   9.054
  410POPC   C1A 9243  43.037  15.176   8.753
  410POPC   D2A 9244  43.183  15.101   8.392
  410POPC   C3A 9245  42.981  15.244   8.072
  410POPC   C4A 9246  42.836  15.313   7.700
  410POPC   C1B 9247  43.441  15.475   8.629
  410POPC   C2B 9248  43.426  15.528   8.164
  410POPC   C3B 9249  43.324  15.491   7.722
  410POPC   C4B 9250  43.472  15.557   7.269
  411POPC   NC3 9251  26.130  28.305   9.539
  411POPC   PO4 9252  26.050  28.920   9.313
  411POPC   GL1 9253  25.961  28.547   9.058
  411POPC   GL2 9254  26.110  28.212   9.043
  411POPC   C1A 9255  25.919  28.536   8.614
  411POPC   D2A 9256  26.227  28.674   8.299
  411POPC   C3A 9257  26.062  28.722   7.863
  411POPC   C4A 9258  26.169  28.768   7.404
  411POPC   C1B 9259  26.320  28.217   8.650
  411POPC   C2B 9260  26.252  27.965   8.308
  411POPC   C3B 9261  26.337  27.936   7.867
  411POPC   C4B 9262  26.193  28.268   7.624
  412POPC   NC3 9263   0.266   1.673   9.658
  412POPC   PO4 9264   0.754   1.950   9.492
  412POPC   GL1 9265   0.424   1.866   9.197
  412POPC   GL2 9266   0.174   1.617   9.159
  412POPC   C1A 9267   0.307   2.079   8.848
  412POPC   D2A 9268   0.466   2.245   8.491
  412POPC   C3A 9269   0.419   2.092   8.099
  412POPC   C4A 9270   0.455   2.270   7.689
  412POPC   C1B 9271  44.945   1.728   8.791
  412POPC   C2B 9272   0.193   1.785   8.440
  412POPC   C3B 9273   0.077   1.717   8.046
  412POPC   C4B 9274   0.111   1.860   7.685
  413POPC   NC3 9275   5.373  27.981   9.548
  413POPC   PO4 9276   4.854  27.569   9.390
  413POPC   GL1 9277   5.155  27.668   9.112
  413POPC   GL2 9278   5.465  27.538   9.253
  413POPC   C1A 9279   4.975  27.682   8.698
  413POPC   D2A 9280   4.722  27.593   8.331
  413POPC   C3A 9281   5.038  27.685   8.032
  413POPC   C4A 9282   5.016  27.917   7.663
  413POPC   C1B 9283   5.596  27.667   8.840
  413POPC   C2B 9284   5.428  27.673   8.443
  413POPC   C3B 9285   5.541  27.870   8.085
  413POPC   C4B 9286   5.508  27.732   7.705
  414POPC   NC3 9287  22.334  37.080   9.463
  414POPC   PO4 9288  21.709  37.138   9.437
  414POPC   GL1 9289  21.961  36.870   9.130
  414POPC   GL2 9290  22.214  36.624   9.171
  414POPC   C1A 9291  22.219  37.012   8.777
  414POPC   D2A 9292  22.117  37.264   8.417
  414POPC   C3A 9293  21.909  37.051   8.056
  414POPC   C4A 9294  21.736  37.198   7.661
  414POPC   C1B 9295  22.054  36.535   8.735
  414POPC   C2B 9296  22.140  36.706   8.351
  414POPC   C3B 9297  22.271  36.653   7.938
  414POPC   C4B 9298  22.115  36.812   7.575
  415POPC   NC3 9299  30.600  37.616   9.814
  415POPC   PO4 9300  31.114  37.439   9.425
  415POPC   GL1 9301  30.783  37.536   9.108
  415POPC   GL2 9302  30.675  37.902   9.047
  415POPC   C1A 9303  30.689  37.574   8.675
  415POPC   D2A 9304  30.595  37.859   8.347
  415POPC   C3A 9305  30.747  37.642   7.993
  415POPC   C4A 9306  30.533  37.443   7.655
  415POPC   C1B 9307  30.947  38.020   8.731
  415POPC   C2B 9308  31.088  37.996   8.302
  415POPC   C3B 9309  30.882  38.147   7.912
  415POPC   C4B 9310  30.845  38.055   7.448
  416POPC   NC3 9311   8.011  37.415   9.273
  416POPC   PO4 9312   8.257  36.861   9.572
  416POPC   GL1 9313   8.238  36.761   9.132
  416POPC   GL2 9314   8.267  37.120   8.961
  416POPC   C1A 9315   8.102  36.739   8.688
  416POPC   D2A 9316   8.239  37.059   8.381
  416POPC   C3A 9317   8.150  36.903   7.966
  416POPC   C4A 9318   7.825  36.801   7.678
  416POPC   C1B 9319   8.624  37.297   8.708
  416POPC   C2B 9320   8.643  37.430   8.264
  416POPC   C3B 9321   8.518  37.246   7.851
  416POPC   C4B 9322   8.165  37.172   7.509
  417POPC   NC3 9323  22.298  10.176   9.501
  417POPC   PO4 9324  21.979  10.663   9.827
  417POPC   GL1 9325  21.964  10.656   9.317
  417POPC   GL2 9326  21.898  10.318   9.204
  417POPC   C1A 9327  22.182  10.578   8.865
  417POPC   D2A 9328  22.219  10.212   8.522
  417POPC   C3A 9329  22.198  10.374   8.098
  417POPC   C4A 9330  22.318  10.728   7.879
  417POPC   C1B 9331  21.796  10.277   8.784
  417POPC   C2B 9332  21.797  10.553   8.408
  417POPC   C3B 9333  21.710  10.486   7.944
  417POPC   C4B 9334  21.929  10.171   7.675
  418POPC   NC3 9335  40.856  34.469   9.625
  418POPC   PO4 9336  41.090  35.099   9.418
  418POPC   GL1 9337  40.920  34.913   9.076
  418POPC   GL2 9338  40.752  34.601   9.136
  418POPC   C1A 9339  40.989  34.728   8.703
  418POPC   D2A 9340  41.048  34.581   8.348
  418POPC   C3A 9341  40.726  34.683   8.105
  418POPC   C4A 9342  40.866  34.590   7.719
  418POPC   C1B 9343  40.509  34.567   8.707
  418POPC   C2B 9344  40.306  34.391   8.309
  418POPC   C3B 9345  40.325  34.491   7.843
  418POPC   C4B 9346  40.482  34.497   7.417
  419POPC   NC3 9347  37.241  36.712   9.507
  419POPC   PO4 9348  37.770  36.973   9.457
  419POPC   GL1 9349  37.592  36.838   9.116
  419POPC   GL2 9350  37.911  36.902   8.962
  419POPC   C1A 9351  37.478  36.842   8.690
  419POPC   D2A 9352  37.863  36.858   8.434
  419POPC   C3A 9353  37.750  36.622   8.086
  419POPC   C4A 9354  37.402  36.763   7.853
  419POPC   C1B 9355  38.063  37.270   8.729
  419POPC   C2B 9356  38.128  37.469   8.334
  419POPC   C3B 9357  38.096  37.332   7.913
  419POPC   C4B 9358  37.929  36.937   7.718
  420POPC   NC3 9359   0.740   7.805   9.330
  420POPC   PO4 9360   0.390   8.297   9.429
  420POPC   GL1 9361   0.461   8.194   9.042
  420POPC   GL2 9362   0.373   7.870   8.937
  420POPC   C1A 9363   0.582   8.381   8.671
  420POPC   D2A 9364   0.456   8.171   8.301
  420POPC   C3A 9365   0.287   8.429   7.999
  420POPC   C4A 9366   0.455   8.491   7.615
  420POPC   C1B 9367   0.732   7.906   8.691
  420POPC   C2B 9368   0.924   7.888   8.315
  420POPC   C3B 9369   0.782   7.820   7.928
  420POPC   C4B 9370   0.429   7.978   7.742
  421POPC   NC3 9371   5.366  44.534   9.516
  421POPC   PO4 9372   4.736  44.504   9.239
  421POPC   GL1 9373   5.107  44.699   9.083
  421POPC   GL2 9374   5.282  44.990   9.255
  421POPC   C1A 9375   5.079  44.717   8.644
  421POPC   D2A 9376   4.862  44.396   8.393
  421POPC   C3A 9377   4.930  44.466   8.001
  421POPC   C4A 9378   4.762  44.771   7.772
  421POPC   C1B 9379   5.497  44.955   8.860
  421POPC   C2B 9380   5.421   0.050   8.431
  421POPC   C3B 9381   5.078  44.969   8.157
  421POPC   C4B 9382   5.292  44.788   7.817
  422POPC   NC3 9383  27.576   4.881   9.417
  422POPC   PO4 9384  27.919   5.384   9.557
  422POPC   GL1 9385  27.784   5.277   9.138
  422POPC   GL2 9386  27.440   5.311   9.136
  422POPC   C1A 9387  27.698   4.979   8.780
  422POPC   D2A 9388  27.416   4.897   8.429
  422POPC   C3A 9389  27.598   4.988   8.075
  422POPC   C4A 9390  27.698   4.849   7.697
  422POPC   C1B 9391  27.203   5.217   8.755
  422POPC   C2B 9392  27.168   5.381   8.310
  422POPC   C3B 9393  27.243   5.297   7.852
  422POPC   C4B 9394  27.543   5.306   7.469
  423POPC   NC3 9395   2.379   4.984   9.431
  423POPC   PO4 9396   1.688   5.007   9.551
  423POPC   GL1 9397   1.906   4.947   9.210
  423POPC   GL2 9398   1.953   5.278   9.170
  423POPC   C1A 9399   2.055   4.908   8.795
  423POPC   D2A 9400   2.244   4.703   8.441
  423POPC   C3A 9401   2.128   4.937   8.090
  423POPC   C4A 9402   2.060   4.980   7.675
  423POPC   C1B 9403   2.041   5.438   8.782
  423POPC   C2B 9404   1.948   5.284   8.419
  423POPC   C3B 9405   2.038   5.446   8.021
  423POPC   C4B 9406   1.877   5.443   7.626
  424POPC   NC3 9407  10.720  44.520   9.615
  424POPC   PO4 9408  10.405   0.044   9.479
  424POPC   GL1 9409  10.706  44.881   9.186
  424POPC   GL2 9410  10.630  44.492   9.113
  424POPC   C1A 9411  10.765  44.831   8.737
  424POPC   D2A 9412  10.511  44.622   8.416
  424POPC   C3A 9413  10.487  44.909   8.095
  424POPC   C4A 9414  10.358  44.915   7.687
  424POPC   C1B 9415  10.812  44.319   8.742
  424POPC   C2B 9416  10.956  44.405   8.329
  424POPC   C3B 9417  10.695  44.424   7.936
  424POPC   C4B 9418  10.741  44.402   7.471
  425POPC   NC3 9419   9.250  23.035   9.628
  425POPC   PO4 9420   8.603  22.937   9.514
  425POPC   GL1 9421   8.910  22.912   9.226
  425POPC   GL2 9422   8.922  22.654   9.069
  425POPC   C1A 9423   9.044  23.063   8.795
  425POPC   D2A 9424   8.914  23.054   8.370
  425POPC   C3A 9425   9.162  23.275   8.089
  425POPC   C4A 9426   9.272  23.092   7.698
  425POPC   C1B 9427   9.234  22.597   8.789
  425POPC   C2B 9428   9.230  22.540   8.386
  425POPC   C3B 9429   9.096  22.695   7.999
  425POPC   C4B 9430   8.797  22.479   7.743
  426POPC   NC3 9431  22.768  16.574   9.524
  426POPC   PO4 9432  22.630  17.118   9.202
  426POPC   GL1 9433  22.944  16.810   9.037
  426POPC   GL2 9434  23.135  16.507   9.151
  426POPC   C1A 9435  22.847  16.540   8.730
  426POPC   D2A 9436  22.964  16.446   8.360
  426POPC   C3A 9437  22.841  16.648   7.966
  426POPC   C4A 9438  23.131  16.914   7.751
  426POPC   C1B 9439  23.369  16.527   8.756
  426POPC   C2B 9440  23.449  16.301   8.386
  426POPC   C3B 9441  23.340  16.506   8.021
  426POPC   C4B 9442  23.150  16.423   7.603
  427POPC   NC3 9443   0.709  24.668   9.264
  427POPC   PO4 9444   0.183  24.327   9.478
  427POPC   GL1 9445   0.230  24.529   9.122
  427POPC   GL2 9446  44.959  24.737   9.154
  427POPC   C1A 9447   0.445  24.444   8.733
  427POPC   D2A 9448   0.673  24.577   8.366
  427POPC   C3A 9449   0.470  24.434   8.000
  427POPC   C4A 9450   0.637  24.409   7.615
  427POPC   C1B 9451   0.089  24.832   8.743
  427POPC   C2B 9452   0.145  24.599   8.362
  427POPC   C3B 9453   0.047  24.745   7.974
  427POPC   C4B 9454   0.299  24.777   7.623
  428POPC   NC3 9455   0.856  32.457   9.392
  428POPC   PO4 9456   1.401  32.138   9.543
  428POPC   GL1 9457   1.255  32.145   9.113
  428POPC   GL2 9458   0.952  31.941   9.086
  428POPC   C1A 9459   1.396  32.271   8.677
  428POPC   D2A 9460   1.342  32.605   8.367
  428POPC   C3A 9461   1.289  32.448   7.964
  428POPC   C4A 9462   1.574  32.236   7.682
  428POPC   C1B 9463   0.909  32.113   8.716
  428POPC   C2B 9464   1.066  32.070   8.299
  428POPC   C3B 9465   1.037  31.974   7.867
  428POPC   C4B 9466   1.076  32.257   7.545
  429POPC   NC3 9467  23.624   7.232   9.466
  429POPC   PO4 9468  23.748   7.963   9.365
  429POPC   GL1 9469  23.659   7.633   9.090
  429POPC   GL2 9470  23.898   7.397   9.061
  429POPC   C1A 9471  23.660   7.717   8.647
  429POPC   D2A 9472  23.446   7.651   8.247
  429POPC   C3A 9473  23.675   7.754   7.866
  429POPC   C4A 9474  23.895   7.578   7.520
  429POPC   C1B 9475  23.684   7.198   8.751
  429POPC   C2B 9476  23.800   7.302   8.369
  429POPC   C3B 9477  23.882   7.306   7.956
  429POPC   C4B 9478  23.760   7.061   7.623
  430POPC   NC3 9479  15.554  28.686   9.506
  430POPC   PO4 9480  15.129  28.140   9.546
  430POPC   GL1 9481  15.184  28.355   9.181
  430POPC   GL2 9482  14.866  28.315   9.102
  430POPC   C1A 9483  15.170  28.204   8.714
  430POPC   D2A 9484  14.899  28.152   8.348
  430POPC   C3A 9485  15.213  28.034   8.030
  430POPC   C4A 9486  15.330  28.156   7.652
  430POPC   C1B 9487  14.995  28.674   8.830
  430POPC   C2B 9488  15.127  28.638   8.416
  430POPC   C3B 9489  15.057  28.510   8.011
  430POPC   C4B 9490  15.236  28.662   7.669
  431POPC   NC3 9491  30.850  42.214   9.445
  431POPC   PO4 9492  30.337  42.630   9.432
  431POPC   GL1 9493  30.561  42.443   9.080
  431POPC   GL2 9494  30.621  42.053   9.008
  431POPC   C1A 9495  30.777  42.490   8.677
  431POPC   D2A 9496  31.050  42.528   8.295
  431POPC   C3A 9497  30.865  42.283   7.995
  431POPC   C4A 9498  30.553  42.447   7.741
  431POPC   C1B 9499  30.341  42.181   8.704
  431POPC   C2B 9500  30.422  42.343   8.285
  431POPC   C3B 9501  30.308  42.081   7.958
  431POPC   C4B 9502  30.604  41.875   7.772
  432POPC   NC3 9503  33.483  23.199   9.329
  432POPC   PO4 9504  33.081  22.656   9.404
  432POPC   GL1 9505  33.061  22.878   9.062
  432POPC   GL2 9506  32.974  23.225   9.155
  432POPC   C1A 9507  32.780  22.976   8.716
  432POPC   D2A 9508  32.600  22.757   8.374
  432POPC   C3A 9509  32.893  22.763   8.060
  432POPC   C4A 9510  32.701  23.028   7.773
  432POPC   C1B 9511  33.230  23.233   8.756
  432POPC   C2B 9512  33.121  23.179   8.351
  432POPC   C3B 9513  33.235  23.176   7.934
  432POPC   C4B 9514  33.189  22.896   7.637
  433POPC   NC3 9515   4.084  31.074   9.222
  433POPC   PO4 9516   4.436  30.615   9.382
  433POPC   GL1 9517   4.316  30.700   8.985
  433POPC   GL2 9518   3.992  30.550   9.039
  433POPC   C1A 9519   4.579  30.732   8.654
  433POPC   D2A 9520   4.757  30.475   8.373
  433POPC   C3A 9521   4.473  30.478   8.075
  433POPC   C4A 9522   4.462  30.757   7.764
  433POPC   C1B 9523   3.929  30.802   8.652
  433POPC   C2B 9524   4.081  30.744   8.269
  433POPC   C3B 9525   3.969  30.556   7.895
  433POPC   C4B 9526   4.079  30.649   7.465
  434POPC   NC3 9527  38.553  35.539   9.851
  434POPC   PO4 9528  38.120  35.098   9.537
  434POPC   GL1 9529  38.327  35.182   9.167
  434POPC   GL2 9530  38.524  35.484   9.165
  434POPC   C1A 9531  38.223  35.312   8.749
  434POPC   D2A 9532  38.399  35.413   8.358
  434POPC   C3A 9533  38.261  35.210   7.990
  434POPC   C4A 9534  38.319  35.364   7.599
  434POPC   C1B 9535  38.786  35.626   8.812
  434POPC   C2B 9536  38.759  35.751   8.360
  434POPC   C3B 9537  38.663  35.610   7.930
  434POPC   C4B 9538  38.847  35.336   7.635
  435POPC   NC3 9539  16.057   4.040   9.406
  435POPC   PO4 9540  15.623   4.570   9.490
  435POPC   GL1 9541  15.719   4.313   9.140
  435POPC   GL2 9542  16.054   4.436   9.097
  435POPC   C1A 9543  15.888   4.083   8.759
  435POPC   D2A 9544  16.174   3.951   8.411
  435POPC   C3A 9545  16.089   4.144   7.989
  435POPC   C4A 9546  15.805   4.029   7.639
  435POPC   C1B 9547  16.271   4.615   8.755
  435POPC   C2B 9548  16.361   4.797   8.341
  435POPC   C3B 9549  16.045   4.665   8.054
  435POPC   C4B 9550  15.914   4.531   7.657
  436POPC   NC3 9551  11.575  36.589   9.415
  436POPC   PO4 9552  10.892  36.689   9.412
  436POPC   GL1 9553  11.183  36.911   9.142
  436POPC   GL2 9554  11.345  36.644   8.962
  436POPC   C1A 9555  11.130  37.143   8.739
  436POPC   D2A 9556  11.311  37.182   8.312
  436POPC   C3A 9557  11.185  36.960   7.945
  436POPC   C4A 9558  11.293  37.087   7.529
  436POPC   C1B 9559  11.564  36.852   8.633
  436POPC   C2B 9560  11.568  36.712   8.211
  436POPC   C3B 9561  11.413  36.515   7.817
  436POPC   C4B 9562  11.039  36.659   7.525
  437POPC   NC3 9563  30.918  26.569   9.302
  437POPC   PO4 9564  30.324  26.724   9.335
  437POPC   GL1 9565  30.535  26.813   9.021
  437POPC   GL2 9566  30.661  27.123   9.148
  437POPC   C1A 9567  30.563  26.686   8.619
  437POPC   D2A 9568  30.643  26.650   8.206
  437POPC   C3A 9569  30.436  26.783   7.893
  437POPC   C4A 9570  30.788  26.812   7.699
  437POPC   C1B 9571  30.485  27.234   8.738
  437POPC   C2B 9572  30.453  27.117   8.304
  437POPC   C3B 9573  30.648  27.262   7.906
  437POPC   C4B 9574  31.108  27.238   7.753
  438POPC   NC3 9575  43.972   6.958   9.446
  438POPC   PO4 9576  44.069   6.253   9.517
  438POPC   GL1 9577  43.843   6.517   9.210
  438POPC   GL2 9578  44.095   6.672   9.029
  438POPC   C1A 9579  43.696   6.494   8.785
  438POPC   D2A 9580  43.984   6.645   8.469
  438POPC   C3A 9581  43.737   6.601   8.107
  438POPC   C4A 9582  43.887   6.575   7.721
  438POPC   C1B 9583  44.291   7.008   8.771
  438POPC   C2B 9584  44.278   7.144   8.346
  438POPC   C3B 9585  44.423   7.010   7.976
  438POPC   C4B 9586  44.232   6.975   7.633
  439POPC   NC3 9587  16.225  39.709   9.520
  439POPC   PO4 9588  15.924  40.174   9.842
  439POPC   GL1 9589  15.928  40.249   9.346
  439POPC   GL2 9590  15.928  39.919   9.159
  439POPC   C1A 9591  16.086  40.346   8.906
  439POPC   D2A 9592  16.226  40.416   8.460
  439POPC   C3A 9593  16.116  40.134   8.097
  439POPC   C4A 9594  15.866  40.290   7.743
  439POPC   C1B 9595  16.157  39.607   8.856
  439POPC   C2B 9596  16.300  39.566   8.420
  439POPC   C3B 9597  16.048  39.596   8.037
  439POPC   C4B 9598  15.961  39.800   7.666
  440POPC   NC3 9599   6.244  28.081   9.567
  440POPC   PO4 9600   5.698  28.607   9.519
  440POPC   GL1 9601   5.904  28.325   9.230
  440POPC   GL2 9602   5.760  28.556   8.997
  440POPC   C1A 9603   6.177  28.273   8.822
  440POPC   D2A 9604   6.374  28.043   8.432
  440POPC   C3A 9605   6.261  28.240   8.017
  440POPC   C4A 9606   5.971  28.215   7.631
  440POPC   C1B 9607   5.692  28.160   8.799
  440POPC   C2B 9608   5.860  28.126   8.415
  440POPC   C3B 9609   5.777  28.364   8.084
  440POPC   C4B 9610   5.787  28.654   7.741
  441POPC   NC3 9611  39.060  20.180   9.935
  441POPC   PO4 9612  39.015  19.587   9.551
  441POPC   GL1 9613  39.200  19.830   9.155
  441POPC   GL2 9614  39.488  20.023   9.106
  441POPC   C1A 9615  39.380  19.700   8.739
  441POPC   D2A 9616  39.265  19.862   8.338
  441POPC   C3A 9617  39.411  19.619   8.003
  441POPC   C4A 9618  39.259  19.561   7.611
  441POPC   C1B 9619  39.339  20.216   8.757
  441POPC   C2B 9620  39.365  20.399   8.375
  441POPC   C3B 9621  39.523  20.218   8.037
  441POPC   C4B 9622  39.534  19.985   7.666
  442POPC   NC3 9623  40.565  39.489   9.561
  442POPC   PO4 9624  41.017  39.034   9.522
  442POPC   GL1 9625  40.881  39.103   9.116
  442POPC   GL2 9626  40.571  39.277   9.088
  442POPC   C1A 9627  41.012  39.289   8.783
  442POPC   D2A 9628  40.874  39.357   8.401
  442POPC   C3A 9629  41.086  39.171   8.071
  442POPC   C4A 9630  40.993  39.406   7.726
  442POPC   C1B 9631  40.538  39.032   8.691
  442POPC   C2B 9632  40.678  38.903   8.277
  442POPC   C3B 9633  40.596  39.246   7.981
  442POPC   C4B 9634  40.422  39.279   7.599
  443POPC   NC3 9635   3.131  11.885   9.515
  443POPC   PO4 9636   2.548  12.110   9.717
  443POPC   GL1 9637   2.785  11.852   9.187
  443POPC   GL2 9638   3.032  12.104   9.049
  443POPC   C1A 9639   2.866  11.700   8.773
  443POPC   D2A 9640   3.053  11.725   8.344
  443POPC   C3A 9641   2.838  12.014   8.049
  443POPC   C4A 9642   2.890  12.290   7.714
  443POPC   C1B 9643   2.890  12.193   8.597
  443POPC   C2B 9644   2.606  12.411   8.285
  443POPC   C3B 9645   2.384  12.334   7.892
  443POPC   C4B 9646   2.440  12.251   7.438
  444POPC   NC3 9647  10.817  23.185   9.561
  444POPC   PO4 9648  10.293  22.825   9.435
  444POPC   GL1 9649  10.362  23.153   9.176
  444POPC   GL2 9650  10.693  23.100   9.077
  444POPC   C1A 9651  10.290  23.143   8.737
  444POPC   D2A 9652  10.433  23.024   8.335
  444POPC   C3A 9653  10.123  23.103   7.993
  444POPC   C4A 9654  10.242  22.867   7.618
  444POPC   C1B 9655  10.652  22.726   8.790
  444POPC   C2B 9656  10.782  22.603   8.345
  444POPC   C3B 9657  10.764  22.863   7.964
  444POPC   C4B 9658  10.579  23.281   7.895
  445POPC   NC3 9659   8.271  14.933   9.528
  445POPC   PO4 9660   8.440  15.536   9.580
  445POPC   GL1 9661   8.182  15.352   9.214
  445POPC   GL2 9662   7.869  15.101   9.236
  445POPC   C1A 9663   8.039  15.330   8.776
  445POPC   D2A 9664   7.840  15.153   8.422
  445POPC   C3A 9665   7.936  15.310   8.008
  445POPC   C4A 9666   8.113  15.282   7.603
  445POPC   C1B 9667   7.902  14.824   8.859
  445POPC   C2B 9668   8.122  14.738   8.473
  445POPC   C3B 9669   7.985  14.761   8.058
  445POPC   C4B 9670   8.240  14.734   7.683
  446POPC   NC3 9671  22.825  37.513   9.572
  446POPC   PO4 9672  22.726  38.188   9.513
  446POPC   GL1 9673  22.944  37.988   9.135
  446POPC   GL2 9674  23.110  37.671   9.194
  446POPC   C1A 9675  23.009  38.066   8.681
  446POPC   D2A 9676  22.706  38.002   8.351
  446POPC   C3A 9677  22.871  37.900   7.962
  446POPC   C4A 9678  23.049  37.784   7.583
  446POPC   C1B 9679  22.930  37.577   8.795
  446POPC   C2B 9680  23.078  37.600   8.356
  446POPC   C3B 9681  22.993  37.395   7.940
  446POPC   C4B 9682  22.702  37.427   7.600
  447POPC   NC3 9683  44.002  28.805   9.378
  447POPC   PO4 9684  43.507  29.368   9.552
  447POPC   GL1 9685  43.641  29.304   9.126
  447POPC   GL2 9686  43.974  29.255   9.155
  447POPC   C1A 9687  43.656  29.186   8.677
  447POPC   D2A 9688  43.808  28.877   8.378
  447POPC   C3A 9689  43.873  29.038   7.970
  447POPC   C4A 9690  43.554  29.244   7.742
  447POPC   C1B 9691  44.171  29.078   8.788
  447POPC   C2B 9692  44.369  29.245   8.415
  447POPC   C3B 9693  44.433  29.065   7.999
  447POPC   C4B 9694  44.215  29.204   7.636
  448POPC   NC3 9695   3.865  24.049   9.514
  448POPC   PO4 9696   3.419  24.611   9.374
  448POPC   GL1 9697   3.620  24.321   9.136
  448POPC   GL2 9698   3.852  24.610   9.054
  448POPC   C1A 9699   3.543  24.205   8.718
  448POPC   D2A 9700   3.285  24.429   8.402
  448POPC   C3A 9701   3.373  24.409   7.946
  448POPC   C4A 9702   3.218  24.557   7.529
  448POPC   C1B 9703   3.669  24.732   8.654
  448POPC   C2B 9704   3.717  24.714   8.197
  448POPC   C3B 9705   3.601  24.860   7.778
  448POPC   C4B 9706   3.556  24.834   7.283
  449POPC   NC3 9707  42.197  25.984   9.725
  449POPC   PO4 9708  42.794  26.175   9.455
  449POPC   GL1 9709  42.513  25.977   9.156
  449POPC   GL2 9710  42.143  25.992   9.206
  449POPC   C1A 9711  42.398  25.863   8.746
  449POPC   D2A 9712  42.544  25.758   8.329
  449POPC   C3A 9713  42.345  26.001   7.972
  449POPC   C4A 9714  42.270  26.116   7.511
  449POPC   C1B 9715  41.942  26.105   8.816
  449POPC   C2B 9716  42.015  25.943   8.392
  449POPC   C3B 9717  41.854  25.770   8.019
  449POPC   C4B 9718  41.874  25.809   7.592
  450POPC   NC3 9719   0.273  13.183   9.461
  450POPC   PO4 9720   0.355  12.528   9.473
  450POPC   GL1 9721   0.601  12.655   9.133
  450POPC   GL2 9722   0.672  13.017   9.170
  450POPC   C1A 9723   0.460  12.603   8.709
  450POPC   D2A 9724   0.515  12.460   8.322
  450POPC   C3A 9725   0.281  12.574   7.972
  450POPC   C4A 9726   0.270  12.750   7.544
  450POPC   C1B 9727   0.489  13.109   8.771
  450POPC   C2B 9728   0.654  13.120   8.360
  450POPC   C3B 9729   0.428  13.140   7.966
  450POPC   C4B 9730   0.240  13.264   7.563
  451POPC   NC3 9731   8.223   3.912   9.515
  451POPC   PO4 9732   8.443   4.591   9.614
  451POPC   GL1 9733   8.340   4.497   9.181
  451POPC   GL2 9734   8.266   4.159   9.085
  451POPC   C1A 9735   8.185   4.559   8.766
  451POPC   D2A 9736   7.827   4.480   8.468
  451POPC   C3A 9737   7.946   4.506   8.032
  451POPC   C4A 9738   8.327   4.558   7.767
  451POPC   C1B 9739   8.112   4.052   8.690
  451POPC   C2B 9740   8.219   4.143   8.265
  451POPC   C3B 9741   8.388   4.034   7.857
  451POPC   C4B 9742   8.425   3.926   7.418
  452POPC   NC3 9743  29.126   4.622   9.549
  452POPC   PO4 9744  29.266   3.988   9.411
  452POPC   GL1 9745  29.198   4.341   9.088
  452POPC   GL2 9746  29.344   4.701   9.036
  452POPC   C1A 9747  29.000   4.259   8.685
  452POPC   D2A 9748  28.782   3.959   8.392
  452POPC   C3A 9749  28.989   4.096   8.035
  452POPC   C4A 9750  28.953   4.462   7.760
  452POPC   C1B 9751  29.534   4.475   8.691
  452POPC   C2B 9752  29.450   4.311   8.261
  452POPC   C3B 9753  29.450   4.255   7.818
  452POPC   C4B 9754  29.602   4.545   7.529
  453POPC   NC3 9755  13.983  19.633   9.765
  453POPC   PO4 9756  13.585  20.142   9.490
  453POPC   GL1 9757  14.005  20.141   9.214
  453POPC   GL2 9758  14.403  20.142   9.173
  453POPC   C1A 9759  14.047  20.079   8.775
  453POPC   D2A 9760  14.157  20.190   8.341
  453POPC   C3A 9761  14.305  19.865   8.051
  453POPC   C4A 9762  14.405  19.750   7.631
  453POPC   C1B 9763  14.559  20.020   8.731
  453POPC   C2B 9764  14.687  20.105   8.292
  453POPC   C3B 9765  14.776  20.052   7.832
  453POPC   C4B 9766  14.870  19.911   7.398
  454POPC   NC3 9767  36.322  39.419   9.381
  454POPC   PO4 9768  35.715  39.103   9.601
  454POPC   GL1 9769  35.805  39.241   9.148
  454POPC   GL2 9770  36.115  39.119   9.029
  454POPC   C1A 9771  35.929  39.475   8.714
  454POPC   D2A 9772  36.167  39.385   8.330
  454POPC   C3A 9773  36.141  39.541   7.900
  454POPC   C4A 9774  36.307  39.382   7.496
  454POPC   C1B 9775  36.286  38.841   8.714
  454POPC   C2B 9776  36.350  38.791   8.264
  454POPC   C3B 9777  36.238  39.044   7.911
  454POPC   C4B 9778  36.129  38.909   7.497
  455POPC   NC3 9779  19.264  39.557   9.296
  455POPC   PO4 9780  19.788  39.946   9.478
  455POPC   GL1 9781  19.763  40.062   9.077
  455POPC   GL2 9782  19.495  40.311   9.091
  455POPC   C1A 9783  20.009  40.007   8.698
  455POPC   D2A 9784  20.050  39.787   8.314
  455POPC   C3A 9785  20.093  40.091   8.039
  455POPC   C4A 9786  19.813  40.057   7.738
  455POPC   C1B 9787  19.537  40.191   8.633
  455POPC   C2B 9788  19.605  40.141   8.204
  455POPC   C3B 9789  19.397  40.328   7.837
  455POPC   C4B 9790  19.425  40.139   7.424
  456POPC   NC3 9791  28.517  14.657   9.890
  456POPC   PO4 9792  28.286  15.253   9.994
  456POPC   GL1 9793  28.310  15.345   9.482
  456POPC   GL2 9794  28.486  15.026   9.444
  456POPC   C1A 9795  28.223  15.387   8.972
  456POPC   D2A 9796  28.086  15.294   8.518
  456POPC   C3A 9797  28.407  15.292   8.145
  456POPC   C4A 9798  28.456  15.098   7.717
  456POPC   C1B 9799  28.475  14.950   9.006
  456POPC   C2B 9800  28.487  14.943   8.535
  456POPC   C3B 9801  28.395  14.773   8.122
  456POPC   C4B 9802  28.605  14.625   7.737
  457POPC   NC3 9803  27.736  12.357   9.515
  457POPC   PO4 9804  27.246  12.118   9.424
  457POPC   GL1 9805  27.506  12.127   9.055
  457POPC   GL2 9806  27.784  11.919   9.094
  457POPC   C1A 9807  27.692  12.255   8.651
  457POPC   D2A 9808  27.810  12.331   8.208
  457POPC   C3A 9809  27.554  12.202   7.856
  457POPC   C4A 9810  27.541  12.351   7.414
  457POPC   C1B 9811  27.817  11.762   8.646
  457POPC   C2B 9812  27.753  11.816   8.185
  457POPC   C3B 9813  27.985  11.911   7.817
  457POPC   C4B 9814  28.079  11.677   7.451
  458POPC   NC3 9815  23.119  19.505   9.292
  458POPC   PO4 9816  22.626  19.858   9.610
  458POPC   GL1 9817  22.721  19.860   9.178
  458POPC   GL2 9818  22.555  19.593   9.092
  458POPC   C1A 9819  22.801  19.984   8.739
  458POPC   D2A 9820  22.757  20.143   8.307
  458POPC   C3A 9821  23.117  20.032   8.067
  458POPC   C4A 9822  23.112  19.757   7.720
  458POPC   C1B 9823  22.627  19.503   8.699
  458POPC   C2B 9824  22.852  19.626   8.314
  458POPC   C3B 9825  22.651  19.721   7.935
  458POPC   C4B 9826  22.491  19.408   7.679
  459POPC   NC3 9827  30.333   5.784   9.351
  459POPC   PO4 9828  30.679   6.302   9.708
  459POPC   GL1 9829  30.783   5.955   9.245
  459POPC   GL2 9830  30.817   5.586   9.170
  459POPC   C1A 9831  30.660   5.890   8.797
  459POPC   D2A 9832  30.853   5.865   8.436
  459POPC   C3A 9833  30.645   5.825   8.057
  459POPC   C4A 9834  30.769   5.798   7.667
  459POPC   C1B 9835  30.496   5.419   8.817
  459POPC   C2B 9836  30.358   5.627   8.444
  459POPC   C3B 9837  30.200   5.599   8.021
  459POPC   C4B 9838  30.333   5.525   7.606
  460POPC   NC3 9839   4.581  33.983   9.513
  460POPC   PO4 9840   3.860  33.772   9.490
  460POPC   GL1 9841   4.192  33.835   9.171
  460POPC   GL2 9842   4.501  33.650   9.125
  460POPC   C1A 9843   4.262  33.830   8.717
  460POPC   D2A 9844   4.066  33.838   8.327
  460POPC   C3A 9845   4.366  33.857   8.004
  460POPC   C4A 9846   4.328  33.640   7.658
  460POPC   C1B 9847   4.580  33.411   8.788
  460POPC   C2B 9848   4.594  33.571   8.392
  460POPC   C3B 9849   4.806  33.426   8.066
  460POPC   C4B 9850   4.702  33.303   7.694
  461POPC   NC3 9851   9.585  33.958   9.655
  461POPC   PO4 9852  10.112  33.631   9.480
  461POPC   GL1 9853   9.972  33.798   9.091
  461POPC   GL2 9854   9.985  34.137   9.105
  461POPC   C1A 9855   9.867  33.897   8.648
  461POPC   D2A 9856  10.087  33.887   8.269
  461POPC   C3A 9857  10.048  33.489   8.071
  461POPC   C4A 9858   9.721  33.353   7.788
  461POPC   C1B 9859   9.511  34.072   8.980
  461POPC   C2B 9860   9.356  34.034   8.539
  461POPC   C3B 9861   9.538  33.747   8.242
  461POPC   C4B 9862   9.708  33.864   7.866
  462POPC   NC3 9863   5.253  28.819   9.623
  462POPC   PO4 9864   5.012  28.180   9.835
  462POPC   GL1 9865   4.971  28.249   9.353
  462POPC   GL2 9866   5.299  28.395   9.232
  462POPC   C1A 9867   4.756  28.404   8.939
  462POPC   D2A 9868   4.888  28.486   8.483
  462POPC   C3A 9869   4.892  28.197   8.091
  462POPC   C4A 9870   4.864  28.403   7.665
  462POPC   C1B 9871   5.193  28.132   8.858
  462POPC   C2B 9872   5.321  28.208   8.416
  462POPC   C3B 9873   5.295  28.498   8.045
  462POPC   C4B 9874   5.442  28.244   7.707
  463POPC   NC3 9875   7.494  30.254   9.525
  463POPC   PO4 9876   7.218  29.626   9.466
  463POPC   GL1 9877   7.179  29.842   9.098
  463POPC   GL2 9878   7.515  29.837   8.986
  463POPC   C1A 9879   7.135  29.798   8.649
  463POPC   D2A 9880   7.183  30.014   8.277
  463POPC   C3A 9881   7.440  29.798   8.005
  463POPC   C4A 9882   7.168  29.988   7.766
  463POPC   C1B 9883   7.564  30.041   8.587
  463POPC   C2B 9884   7.557  30.423   8.405
  463POPC   C3B 9885   7.716  30.462   8.033
  463POPC   C4B 9886   7.618  30.190   7.703
  464POPC   NC3 9887  17.636   7.832   9.459
  464POPC   PO4 9888  17.555   7.124   9.416
  464POPC   GL1 9889  17.609   7.230   9.000
  464POPC   GL2 9890  17.840   7.502   9.057
  464POPC   C1A 9891  17.640   7.238   8.555
  464POPC   D2A 9892  17.433   7.415   8.201
  464POPC   C3A 9893  17.288   7.173   7.898
  464POPC   C4A 9894  17.659   6.954   7.807
  464POPC   C1B 9895  17.781   7.710   8.636
  464POPC   C2B 9896  17.917   7.596   8.263
  464POPC   C3B 9897  17.910   7.391   7.919
  464POPC   C4B 9898  17.938   7.690   7.638
  465POPC   NC3 9899  40.192  14.560   9.778
  465POPC   PO4 9900  40.900  14.628   9.500
  465POPC   GL1 9901  40.677  14.479   9.100
  465POPC   GL2 9902  40.419  14.725   8.929
  465POPC   C1A 9903  40.816  14.435   8.689
  465POPC   D2A 9904  41.030  14.267   8.302
  465POPC   C3A 9905  41.024  14.470   7.916
  465POPC   C4A 9906  40.904  14.807   7.681
  465POPC   C1B 9907  40.352  14.618   8.570
  465POPC   C2B 9908  40.602  14.568   8.243
  465POPC   C3B 9909  40.508  14.511   7.867
  465POPC   C4B 9910  40.161  14.494   7.683
  466POPC   NC3 9911  33.890   8.021   9.412
  466POPC   PO4 9912  33.301   8.115   9.755
  466POPC   GL1 9913  33.400   8.093   9.270
  466POPC   GL2 9914  33.301   8.373   9.094
  466POPC   C1A 9915  33.639   8.092   8.827
  466POPC   D2A 9916  33.554   7.972   8.382
  466POPC   C3A 9917  33.789   8.014   7.994
  466POPC   C4A 9918  34.063   8.354   7.783
  466POPC   C1B 9919  33.563   8.602   8.826
  466POPC   C2B 9920  33.597   8.468   8.452
  466POPC   C3B 9921  33.678   8.512   8.072
  466POPC   C4B 9922  33.570   8.526   7.667
  467POPC   NC3 9923   4.649  23.776   9.735
  467POPC   PO4 9924   4.121  23.610   9.576
  467POPC   GL1 9925   4.255  23.727   9.160
  467POPC   GL2 9926   4.574  23.888   9.231
  467POPC   C1A 9927   4.370  23.544   8.751
  467POPC   D2A 9928   4.181  23.483   8.389
  467POPC   C3A 9929   4.314  23.337   8.036
  467POPC   C4A 9930   4.276  23.510   7.615
  467POPC   C1B 9931   4.520  24.027   8.817
  467POPC   C2B 9932   4.344  23.979   8.441
  467POPC   C3B 9933   4.237  23.860   8.055
  467POPC   C4B 9934   4.372  23.999   7.699
  468POPC   NC3 9935  18.072  42.178   9.351
  468POPC   PO4 9936  18.717  42.228   9.347
  468POPC   GL1 9937  18.484  42.203   9.000
  468POPC   GL2 9938  18.176  42.397   8.922
  468POPC   C1A 9939  18.548  42.363   8.596
  468POPC   D2A 9940  18.211  42.384   8.314
  468POPC   C3A 9941  18.489  42.286   8.011
  468POPC   C4A 9942  18.619  42.469   7.651
  468POPC   C1B 9943  17.783  42.451   8.773
  468POPC   C2B 9944  17.726  42.615   8.373
  468POPC   C3B 9945  17.803  42.449   7.979
  468POPC   C4B 9946  18.134  42.571   7.772
  469POPC   NC3 9947  11.243  29.934   9.722
  469POPC   PO4 9948  11.736  30.249   9.287
  469POPC   GL1 9949  11.456  30.082   9.066
  469POPC   GL2 9950  11.352  29.813   9.208
  469POPC   C1A 9951  11.423  30.157   8.638
  469POPC   D2A 9952  11.575  29.993   8.250
  469POPC   C3A 9953  11.316  30.193   7.961
  469POPC   C4A 9954  10.866  30.191   7.824
  469POPC   C1B 9955  11.153  29.729   8.799
  469POPC   C2B 9956  11.059  29.895   8.367
  469POPC   C3B 9957  11.077  29.734   7.945
  469POPC   C4B 9958  11.029  29.485   7.601
  470POPC   NC3 9959  14.762  40.140   9.600
  470POPC   PO4 9960  14.234  39.684   9.540
  470POPC   GL1 9961  14.387  39.972   9.231
  470POPC   GL2 9962  14.701  39.954   9.114
  470POPC   C1A 9963  14.287  39.896   8.806
  470POPC   D2A 9964  14.076  40.108   8.476
  470POPC   C3A 9965  14.246  40.056   8.077
  470POPC   C4A 9966  14.345  39.956   7.646
  470POPC   C1B 9967  14.795  39.933   8.678
  470POPC   C2B 9968  14.697  40.134   8.301
  470POPC   C3B 9969  14.710  40.250   7.862
  470POPC   C4B 9970  14.638  40.247   7.360
  471POPC   NC3 9971   4.186  40.252   9.478
  471POPC   PO4 9972   4.464  39.678   9.160
  471POPC   GL1 9973   4.425  40.080   9.017
  471POPC   GL2 9974   4.551  40.383   9.121
  471POPC   C1A 9975   4.409  40.202   8.597
  471POPC   D2A 9976   4.238  40.024   8.236
  471POPC   C3A 9977   4.420  39.868   7.868
  471POPC   C4A 9978   4.286  39.964   7.448
  471POPC   C1B 9979   4.793  40.505   8.733
  471POPC   C2B 9980   4.853  40.314   8.348
  471POPC   C3B 9981   4.568  40.353   7.997
  471POPC   C4B 9982   4.502  40.425   7.544
  472POPC   NC3 9983  12.250  39.794   9.519
  472POPC   PO4 9984  11.808  40.286   9.576
  472POPC   GL1 9985  12.077  40.245   9.198
  472POPC   GL2 9986  11.905  39.953   9.176
  472POPC   C1A 9987  12.207  40.067   8.766
  472POPC   D2A 9988  12.114  39.876   8.338
  472POPC   C3A 9989  12.180  40.101   7.929
  472POPC   C4A 9990  11.928  40.332   7.609
  472POPC   C1B 9991  11.787  39.746   8.817
  472POPC   C2B 9992  11.800  39.496   8.449
  472POPC   C3B 9993  11.761  39.612   8.017
  472POPC   C4B 9994  12.172  39.603   7.834
  473POPC   NC3 9995  29.765   8.514   9.551
  473POPC   PO4 9996  30.159   7.888   9.500
  473POPC   GL1 9997  29.994   8.160   9.168
  473POPC   GL2 9998  29.659   8.179   9.121
  473POPC   C1A 9999  29.961   8.027   8.706
  473POPC   D2A10000  30.245   8.095   8.352
  473POPC   C3A10001  30.148   8.312   7.990
  473POPC   C4A10002  29.947   8.203   7.634
  473POPC   C1B10003  29.593   8.402   8.759
  473POPC   C2B10004  29.661   8.316   8.354
  473POPC   C3B10005  29.709   8.590   8.020
  473POPC   C4B10006  29.625   8.587   7.620
  474POPC   NC310007   4.769   2.005   9.456
  474POPC   PO410008   5.359   1.765   9.583
  474POPC   GL110009   5.181   1.812   9.203
  474POPC   GL210010   5.269   2.129   9.118
  474POPC   C1A10011   5.138   1.676   8.768
  474POPC   D2A10012   5.228   1.847   8.361
  474POPC   C3A10013   4.977   1.954   7.997
  474POPC   C4A10014   5.314   1.856   7.721
  474POPC   C1B10015   4.916   2.151   8.833
  474POPC   C2B10016   4.938   2.265   8.430
  474POPC   C3B10017   4.732   2.445   8.115
  474POPC   C4B10018   4.915   2.421   7.716
  475POPC   NC310019  32.611   5.374   9.973
  475POPC   PO410020  32.371   5.144   9.357
  475POPC   GL110021  32.277   5.047   8.983
  475POPC   GL210022  32.195   4.732   8.898
  475POPC   C1A10023  32.035   5.157   8.636
  475POPC   D2A10024  32.355   5.157   8.319
  475POPC   C3A10025  32.291   5.340   7.926
  475POPC   C4A10026  32.293   5.162   7.521
  475POPC   C1B10027  32.586   4.805   8.674
  475POPC   C2B10028  32.625   4.659   8.262
  475POPC   C3B10029  32.427   4.823   7.904
  475POPC   C4B10030  32.692   4.858   7.533
  476POPC   NC310031   3.867  44.301   9.391
  476POPC   PO410032   3.399  43.935   9.722
  476POPC   GL110033   3.594  43.766   9.333
  476POPC   GL210034   3.364  43.879   9.077
  476POPC   C1A10035   3.825  43.754   8.934
  476POPC   D2A10036   3.576  43.750   8.588
  476POPC   C3A10037   3.637  43.688   8.146
  476POPC   C4A10038   3.443  43.765   7.721
  476POPC   C1B10039   3.335  44.196   8.693
  476POPC   C2B10040   3.232  44.391   8.318
  476POPC   C3B10041   3.246  44.208   7.915
  476POPC   C4B10042   3.232  44.224   7.445
  477POPC   NC310043  42.499  37.728   9.478
  477POPC   PO410044  42.394  37.165   9.784
  477POPC   GL110045  42.416  37.277   9.257
  477POPC   GL210046  42.221  37.615   9.088
  477POPC   C1A10047  42.294  37.212   8.794
  477POPC   D2A10048  42.111  37.313   8.358
  477POPC   C3A10049  42.260  37.648   8.092
  477POPC   C4A10050  42.517  37.518   7.764
  477POPC   C1B10051  42.239  37.978   8.760
  477POPC   C2B10052  42.472  38.065   8.349
  477POPC   C3B10053  42.714  37.967   7.968
  477POPC   C4B10054  42.682  37.926   7.502
  478POPC   NC310055  25.256  18.470   9.533
  478POPC   PO410056  25.471  17.876   9.744
  478POPC   GL110057  25.481  17.988   9.291
  478POPC   GL210058  25.134  17.926   9.293
  478POPC   C1A10059  25.356  18.258   8.912
  478POPC   D2A10060  25.434  18.438   8.491
  478POPC   C3A10061  25.426  18.238   8.096
  478POPC   C4A10062  25.095  18.262   7.816
  478POPC   C1B10063  24.955  17.924   8.893
  478POPC   C2B10064  25.102  18.019   8.488
  478POPC   C3B10065  25.056  17.827   8.062
  478POPC   C4B10066  25.156  17.793   7.614
  479POPC   NC310067  42.684   3.782   9.491
  479POPC   PO410068  43.231   3.306   9.466
  479POPC   GL110069  42.950   3.429   9.159
  479POPC   GL210070  42.965   3.771   9.088
  479POPC   C1A10071  42.899   3.444   8.720
  479POPC   D2A10072  43.162   3.424   8.385
  479POPC   C3A10073  43.010   3.391   7.981
  479POPC   C4A10074  43.028   3.692   7.652
  479POPC   C1B10075  43.123   3.992   8.770
  479POPC   C2B10076  43.314   3.910   8.431
  479POPC   C3B10077  43.398   3.800   8.051
  479POPC   C4B10078  43.416   4.017   7.663
  480POPC   NC310079  38.847  36.217   9.451
  480POPC   PO410080  39.533  36.066   9.462
  480POPC   GL110081  39.263  36.253   9.147
  480POPC   GL210082  39.065  36.590   9.188
  480POPC   C1A10083  39.049  36.098   8.778
  480POPC   D2A10084  39.224  35.935   8.399
  480POPC   C3A10085  39.100  35.886   7.975
  480POPC   C4A10086  39.300  36.141   7.692
  480POPC   C1B10087  38.750  36.514   8.847
  480POPC   C2B10088  38.629  36.213   8.517
  480POPC   C3B10089  38.831  36.291   8.131
  480POPC   C4B10090  38.827  36.669   7.883
  481POPC   NC310091  29.869  42.785   9.478
  481POPC   PO410092  30.287  43.340   9.460
  481POPC   GL110093  30.101  43.119   9.162
  481POPC   GL210094  30.378  42.968   9.046
  481POPC   C1A10095  29.887  42.997   8.803
  481POPC   D2A10096  29.777  43.177   8.417
  481POPC   C3A10097  29.755  42.972   8.044
  481POPC   C4A10098  29.698  43.156   7.694
  481POPC   C1B10099  30.362  43.199   8.669
  481POPC   C2B10100  30.286  43.067   8.245
  481POPC   C3B10101  30.158  43.259   7.863
  481POPC   C4B10102  30.098  43.539   7.487
  482POPC   NC310103   6.245  39.272   9.642
  482POPC   PO410104   6.807  38.968   9.818
  482POPC   GL110105   6.695  39.195   9.379
  482POPC   GL210106   6.525  38.953   9.226
  482POPC   C1A10107   6.422  39.370   8.946
  482POPC   D2A10108   6.500  39.668   8.630
  482POPC   C3A10109   6.446  39.606   8.199
  482POPC   C4A10110   6.465  39.370   7.830
  482POPC   C1B10111   6.872  39.170   8.910
  482POPC   C2B10112   7.015  39.267   8.486
  482POPC   C3B10113   6.857  39.147   8.096
  482POPC   C4B10114   6.921  39.248   7.643
  483POPC   NC310115  41.327  35.477   9.545
  483POPC   PO410116  41.966  35.701   9.481
  483POPC   GL110117  41.701  35.590   9.113
  483POPC   GL210118  41.479  35.859   9.176
  483POPC   C1A10119  41.723  35.355   8.676
  483POPC   D2A10120  41.596  35.057   8.315
  483POPC   C3A10121  41.493  35.200   7.882
  483POPC   C4A10122  41.699  35.302   7.465
  483POPC   C1B10123  41.395  35.759   8.717
  483POPC   C2B10124  41.525  35.701   8.284
  483POPC   C3B10125  41.518  35.704   7.823
  483POPC   C4B10126  41.228  35.599   7.506
  484POPC   NC310127  21.709  14.268   9.443
  484POPC   PO410128  22.301  14.537   9.480
  484POPC   GL110129  22.001  14.606   9.169
  484POPC   GL210130  22.080  14.302   9.026
  484POPC   C1A10131  21.845  14.617   8.721
  484POPC   D2A10132  22.046  14.431   8.359
  484POPC   C3A10133  21.873  14.439   7.943
  484POPC   C4A10134  21.841  14.661   7.564
  484POPC   C1B10135  22.359  14.608   8.754
  484POPC   C2B10136  22.463  14.725   8.285
  484POPC   C3B10137  22.431  14.478   7.858
  484POPC   C4B10138  22.434  14.264   7.436
  485POPC   NC310139  33.360  38.065   9.457
  485POPC   PO410140  33.264  38.776   9.466
  485POPC   GL110141  32.881  38.640   9.201
  485POPC   GL210142  32.757  38.254   9.200
  485POPC   C1A10143  32.803  38.536   8.751
  485POPC   D2A10144  32.932  38.339   8.360
  485POPC   C3A10145  32.811  38.597   8.038
  485POPC   C4A10146  33.035  38.748   7.675
  485POPC   C1B10147  32.813  38.019   8.798
  485POPC   C2B10148  32.625  37.917   8.384
  485POPC   C3B10149  32.835  37.926   7.984
  485POPC   C4B10150  33.121  38.244   7.835
  486POPC   NC310151  28.250  23.948   9.533
  486POPC   PO410152  28.395  23.314   9.614
  486POPC   GL110153  28.427  23.535   9.189
  486POPC   GL210154  28.560  23.876   9.143
  486POPC   C1A10155  28.496  23.616   8.714
  486POPC   D2A10156  28.534  23.610   8.277
  486POPC   C3A10157  28.224  23.440   8.049
  486POPC   C4A10158  28.334  23.549   7.660
  486POPC   C1B10159  28.125  23.881   8.900
  486POPC   C2B10160  28.070  23.863   8.441
  486POPC   C3B10161  28.229  23.967   8.013
  486POPC   C4B10162  28.317  24.059   7.589
  487POPC   NC310163  30.946  23.657   9.282
  487POPC   PO410164  31.608  23.828   9.393
  487POPC   GL110165  31.489  23.444   9.163
  487POPC   GL210166  31.241  23.559   8.883
  487POPC   C1A10167  31.577  23.186   8.801
  487POPC   D2A10168  31.287  23.274   8.441
  487POPC   C3A10169  31.459  23.474   8.058
  487POPC   C4A10170  31.230  23.587   7.671
  487POPC   C1B10171  31.668  23.697   8.731
  487POPC   C2B10172  31.859  23.882   8.369
  487POPC   C3B10173  31.907  24.066   7.967
  487POPC   C4B10174  31.631  23.870   7.685
  488POPC   NC310175  20.495  42.915   9.496
  488POPC   PO410176  20.158  43.590   9.396
  488POPC   GL110177  20.473  43.342   9.170
  488POPC   GL210178  20.798  43.493   9.079
  488POPC   C1A10179  20.599  43.049   8.849
  488POPC   D2A10180  20.760  43.118   8.404
  488POPC   C3A10181  20.536  42.949   8.038
  488POPC   C4A10182  20.693  42.745   7.691
  488POPC   C1B10183  20.632  43.545   8.709
  488POPC   C2B10184  20.403  43.504   8.371
  488POPC   C3B10185  20.574  43.476   8.004
  488POPC   C4B10186  20.719  43.250   7.662
  489POPC   NC310187  43.871  17.598   9.620
  489POPC   PO410188  43.454  18.050   9.395
  489POPC   GL110189  43.713  17.746   9.141
  489POPC   GL210190  43.656  17.349   9.237
  489POPC   C1A10191  43.904  17.776   8.725
  489POPC   D2A10192  44.129  17.599   8.358
  489POPC   C3A10193  44.030  17.759   7.940
  489POPC   C4A10194  43.668  17.778   7.691
  489POPC   C1B10195  43.834  17.282   8.845
  489POPC   C2B10196  43.667  17.390   8.436
  489POPC   C3B10197  43.763  17.330   8.025
  489POPC   C4B10198  44.047  17.165   7.769
  490POPC   NC310199  26.863  39.480   9.608
  490POPC   PO410200  26.529  38.963   9.808
  490POPC   GL110201  26.754  39.052   9.342
  490POPC   GL210202  26.743  39.392   9.118
  490POPC   C1A10203  26.820  38.968   8.859
  490POPC   D2A10204  26.730  39.160   8.454
  490POPC   C3A10205  26.923  39.059   8.098
  490POPC   C4A10206  26.787  39.036   7.688
  490POPC   C1B10207  27.080  39.403   8.760
  490POPC   C2B10208  27.069  39.526   8.306
  490POPC   C3B10209  27.091  39.454   7.848
  490POPC   C4B10210  26.887  39.505   7.477
  491POPC   NC310211  34.769  42.069   9.794
  491POPC   PO410212  34.258  42.398   9.478
  491POPC   GL110213  34.584  42.433   9.230
  491POPC   GL210214  34.319  42.575   8.995
  491POPC   C1A10215  34.762  42.406   8.852
  491POPC   D2A10216  34.610  42.446   8.475
  491POPC   C3A10217  34.866  42.351   8.128
  491POPC   C4A10218  34.688  42.349   7.727
  491POPC   C1B10219  34.474  42.906   8.738
  491POPC   C2B10220  34.639  42.959   8.339
  491POPC   C3B10221  34.467  42.701   8.058
  491POPC   C4B10222  34.321  42.734   7.692
  492POPC   NC310223  14.344   9.779   9.808
  492POPC   PO410224  14.710   9.763   9.229
  492POPC   GL110225  14.277   9.779   9.017
  492POPC   GL210226  13.932   9.664   9.160
  492POPC   C1A10227  14.309   9.825   8.571
  492POPC   D2A10228  14.716   9.783   8.339
  492POPC   C3A10229  14.617   9.886   7.920
  492POPC   C4A10230  14.461   9.980   7.522
  492POPC   C1B10231  13.930   9.480   8.721
  492POPC   C2B10232  13.998   9.551   8.249
  492POPC   C3B10233  14.132   9.642   7.791
  492POPC   C4B10234  14.000   9.843   7.355
  493POPC   NC310235  13.512  44.052   9.760
  493POPC   PO410236  13.692  44.274   9.127
  493POPC   GL110237  13.448  43.903   9.056
  493POPC   GL210238  13.093  43.878   9.151
  493POPC   C1A10239  13.588  43.665   8.704
  493POPC   D2A10240  13.768  43.463   8.308
  493POPC   C3A10241  13.780  43.658   7.896
  493POPC   C4A10242  13.778  44.100   7.778
  493POPC   C1B10243  13.081  43.593   8.773
  493POPC   C2B10244  13.236  43.699   8.341
  493POPC   C3B10245  13.310  43.864   7.936
  493POPC   C4B10246  13.322  43.542   7.650
  494POPC   NC310247   7.126  34.354   9.725
  494POPC   PO410248   7.535  34.813   9.517
  494POPC   GL110249   7.378  34.536   9.219
  494POPC   GL210250   7.072  34.704   9.239
  494POPC   C1A10251   7.528  34.426   8.802
  494POPC   D2A10252   7.481  34.733   8.458
  494POPC   C3A10253   7.663  34.632   8.054
  494POPC   C4A10254   7.497  34.323   7.770
  494POPC   C1B10255   7.070  34.645   8.809
  494POPC   C2B10256   7.123  34.365   8.464
  494POPC   C3B10257   7.135  34.571   8.100
  494POPC   C4B10258   7.134  34.680   7.705
  495POPC   NC310259  29.784  28.863   9.398
  495POPC   PO410260  29.366  29.194   9.828
  495POPC   GL110261  29.271  29.077   9.334
  495POPC   GL210262  29.497  29.233   9.117
  495POPC   C1A10263  29.060  29.070   8.894
  495POPC   D2A10264  29.166  29.012   8.465
  495POPC   C3A10265  28.983  29.160   8.098
  495POPC   C4A10266  29.089  29.071   7.703
  495POPC   C1B10267  29.656  29.421   8.754
  495POPC   C2B10268  29.556  29.345   8.327
  495POPC   C3B10269  29.397  29.460   7.925
  495POPC   C4B10270  29.330  29.468   7.473
  496POPC   NC310271  18.034  41.180   9.393
  496POPC   PO410272  18.210  41.826   9.627
  496POPC   GL110273  18.114  41.669   9.215
  496POPC   GL210274  17.995  41.880   8.978
  496POPC   C1A10275  18.370  41.516   8.862
  496POPC   D2A10276  18.611  41.363   8.507
  496POPC   C3A10277  18.314  41.358   8.174
  496POPC   C4A10278  18.267  41.457   7.759
  496POPC   C1B10279  18.199  41.963   8.639
  496POPC   C2B10280  18.142  41.852   8.256
  496POPC   C3B10281  18.101  41.992   7.862
  496POPC   C4B10282  18.083  41.810   7.466
  497POPC   NC310283   7.976  37.361   9.784
  497POPC   PO410284   8.398  37.687   9.349
  497POPC   GL110285   8.249  37.756   8.979
  497POPC   GL210286   7.953  37.901   9.127
  497POPC   C1A10287   8.212  37.546   8.589
  497POPC   D2A10288   8.184  37.689   8.207
  497POPC   C3A10289   8.165  37.593   7.791
  497POPC   C4A10290   8.484  37.562   7.441
  497POPC   C1B10291   7.786  37.735   8.770
  497POPC   C2B10292   7.700  37.643   8.379
  497POPC   C3B10293   7.754  37.840   7.996
  497POPC   C4B10294   7.649  37.734   7.631
  498POPC   NC310295   7.751  27.725   9.519
  498POPC   PO410296   7.299  27.250   9.367
  498POPC   GL110297   7.111  27.610   9.176
  498POPC   GL210298   7.401  27.852   9.166
  498POPC   C1A10299   7.179  27.714   8.742
  498POPC   D2A10300   7.459  27.498   8.451
  498POPC   C3A10301   7.252  27.447   8.054
  498POPC   C4A10302   7.085  27.823   7.866
  498POPC   C1B10303   7.740  27.710   8.860
  498POPC   C2B10304   7.919  27.784   8.448
  498POPC   C3B10305   7.785  27.616   8.064
  498POPC   C4B10306   7.665  27.851   7.739
  499POPC   NC310307   8.398   0.304   9.525
  499POPC   PO410308   8.714   0.902   9.509
  499POPC   GL110309   8.531   0.615   9.119
  499POPC   GL210310   8.306   0.243   9.046
  499POPC   C1A10311   8.456   0.525   8.673
  499POPC   D2A10312   8.293   0.311   8.312
  499POPC   C3A10313   8.326   0.635   8.022
  499POPC   C4A10314   8.475   0.777   7.640
  499POPC   C1B10315   7.975   0.545   8.855
  499POPC   C2B10316   8.006   0.751   8.439
  499POPC   C3B10317   7.816   0.652   8.053
  499POPC   C4B10318   7.964   0.639   7.665
  500POPC   NC310319   1.134   3.300   9.499
  500POPC   PO410320   0.904   2.675   9.483
  500POPC   GL110321   1.142   2.774   9.109
  500POPC   GL210322   1.478   2.932   9.173
  500POPC   C1A10323   1.159   2.547   8.704
  500POPC   D2A10324   0.926   2.425   8.330
  500POPC   C3A10325   1.184   2.437   7.956
  500POPC   C4A10326   1.556   2.578   7.750
  500POPC   C1B10327   1.444   2.988   8.725
  500POPC   C2B10328   1.414   2.806   8.296
  500POPC   C3B10329   1.377   3.018   7.920
  500POPC   C4B10330   1.037   3.106   7.681
  501POPC   NC310331  24.954  40.303   9.782
  501POPC   PO410332  25.364  40.788   9.398
  501POPC   GL110333  25.129  40.846   9.057
  501POPC   GL210334  24.967  40.614   8.885
  501POPC   C1A10335  25.281  40.999   8.647
  501POPC   D2A10336  25.599  41.145   8.346
  501POPC   C3A10337  25.397  40.944   8.006
  501POPC   C4A10338  25.430  40.557   7.767
  501POPC   C1B10339  24.751  40.992   8.756
  501POPC   C2B10340  24.814  41.101   8.350
  501POPC   C3B10341  24.868  40.824   8.035
  501POPC   C4B10342  24.925  40.633   7.651
  502POPC   NC310343  27.299  19.613   9.536
  502POPC   PO410344  27.582  19.017   9.455
  502POPC   GL110345  27.595  19.197   9.064
  502POPC   GL210346  27.282  19.319   9.108
  502POPC   C1A10347  27.696  19.115   8.622
  502POPC   D2A10348  27.584  18.820   8.337
  502POPC   C3A10349  27.759  18.815   7.927
  502POPC   C4A10350  27.624  18.996   7.509
  502POPC   C1B10351  27.207  19.145   8.710
  502POPC   C2B10352  27.287  19.318   8.343
  502POPC   C3B10353  27.361  19.140   7.990
  502POPC   C4B10354  27.178  19.252   7.645
  503POPC   NC310355  12.875  16.805   9.569
  503POPC   PO410356  13.291  16.347   9.383
  503POPC   GL110357  12.897  16.513   9.153
  503POPC   GL210358  13.033  16.828   9.093
  503POPC   C1A10359  12.661  16.730   8.768
  503POPC   D2A10360  12.771  16.984   8.388
  503POPC   C3A10361  12.652  16.815   8.008
  503POPC   C4A10362  12.772  16.573   7.664
  503POPC   C1B10363  13.172  16.838   8.671
  503POPC   C2B10364  13.217  16.829   8.219
  503POPC   C3B10365  13.243  16.567   7.868
  503POPC   C4B10366  13.314  16.684   7.460
  504POPC   NC310367   3.936   6.611   9.439
  504POPC   PO410368   4.473   6.232   9.731
  504POPC   GL110369   4.422   6.497   9.308
  504POPC   GL210370   4.709   6.321   9.226
  504POPC   C1A10371   4.207   6.699   8.875
  504POPC   D2A10372   4.269   6.683   8.416
  504POPC   C3A10373   4.044   6.605   8.010
  504POPC   C4A10374   4.200   6.638   7.588
  504POPC   C1B10375   4.694   6.558   8.847
  504POPC   C2B10376   4.800   6.689   8.417
  504POPC   C3B10377   4.614   6.656   8.036
  504POPC   C4B10378   4.700   6.590   7.650
  505POPC   NC310379   1.348  26.569   9.525
  505POPC   PO410380   0.874  27.149   9.534
  505POPC   GL110381   1.126  26.911   9.182
  505POPC   GL210382   1.483  26.733   9.077
  505POPC   C1A10383   1.071  26.725   8.771
  505POPC   D2A10384   1.268  26.633   8.385
  505POPC   C3A10385   0.952  26.723   8.112
  505POPC   C4A10386   0.945  26.871   7.730
  505POPC   C1B10387   1.586  26.951   8.702
  505POPC   C2B10388   1.518  27.097   8.292
  505POPC   C3B10389   1.431  26.900   7.913
  505POPC   C4B10390   1.340  26.474   7.873
  506POPC   NC310391  33.153   4.542   9.856
  506POPC   PO410392  33.084   4.019   9.515
  506POPC   GL110393  33.038   4.274   9.205
  506POPC   GL210394  32.789   4.033   9.078
  506POPC   C1A10395  32.984   4.466   8.796
  506POPC   D2A10396  33.153   4.622   8.438
  506POPC   C3A10397  33.250   4.365   8.075
  506POPC   C4A10398  33.013   4.510   7.727
  506POPC   C1B10399  32.722   3.813   8.705
  506POPC   C2B10400  32.587   3.871   8.302
  506POPC   C3B10401  32.768   4.174   8.034
  506POPC   C4B10402  32.838   4.040   7.611
  507POPC   NC310403   0.357  39.651   9.365
  507POPC   PO410404   0.440  40.261   9.616
  507POPC   GL110405   0.453  40.146   9.199
  507POPC   GL210406   0.732  39.940   9.136
  507POPC   C1A10407   0.335  40.117   8.777
  507POPC   D2A10408   0.324  40.271   8.361
  507POPC   C3A10409   0.087  40.304   7.974
  507POPC   C4A10410   0.206  40.233   7.541
  507POPC   C1B10411   0.661  39.722   8.768
  507POPC   C2B10412   0.479  39.783   8.390
  507POPC   C3B10413   0.506  39.944   7.961
  507POPC   C4B10414   0.873  39.842   7.709
  508POPC   NC310415  12.170  22.621   9.661
  508POPC   PO410416  11.901  23.142   9.444
  508POPC   GL110417  12.131  23.039   9.109
  508POPC   GL210418  12.288  22.752   9.108
  508POPC   C1A10419  12.024  22.974   8.690
  508POPC   D2A10420  11.933  23.171   8.301
  508POPC   C3A10421  12.216  22.968   8.033
  508POPC   C4A10422  11.935  22.742   7.772
  508POPC   C1B10423  12.515  22.830   8.757
  508POPC   C2B10424  12.499  22.647   8.372
  508POPC   C3B10425  12.305  22.472   8.029
  508POPC   C4B10426  12.380  22.601   7.601
  509POPC   NC310427  12.277  28.131   9.469
  509POPC   PO410428  12.004  28.765   9.480
  509POPC   GL110429  12.062  28.460   9.143
  509POPC   GL210430  11.801  28.190   9.219
  509POPC   C1A10431  12.281  28.402   8.743
  509POPC   D2A10432  12.151  28.314   8.335
  509POPC   C3A10433  12.077  28.516   7.952
  509POPC   C4A10434  12.224  28.400   7.536
  509POPC   C1B10435  11.831  28.112   8.763
  509POPC   C2B10436  11.668  28.052   8.366
  509POPC   C3B10437  11.767  28.112   7.915
  509POPC   C4B10438  11.791  28.109   7.445
  510POPC   NC310439  10.307  21.659   9.567
  510POPC   PO410440  10.721  21.119   9.477
  510POPC   GL110441  10.500  21.375   9.187
  510POPC   GL210442  10.130  21.321   9.136
  510POPC   C1A10443  10.611  21.565   8.815
  510POPC   D2A10444  10.639  21.427   8.408
  510POPC   C3A10445  10.514  21.633   8.013
  510POPC   C4A10446  10.584  21.438   7.602
  510POPC   C1B10447  10.109  21.429   8.674
  510POPC   C2B10448  10.186  21.296   8.241
  510POPC   C3B10449  10.221  21.151   7.812
  510POPC   C4B10450  10.253  21.098   7.368
  511POPC   NC310451  41.130   0.676   9.519
  511POPC   PO410452  40.476   0.565   9.473
  511POPC   GL110453  40.632   0.447   9.090
  511POPC   GL210454  41.009   0.381   9.096
  511POPC   C1A10455  40.619   0.279   8.673
  511POPC   D2A10456  40.756   0.454   8.323
  511POPC   C3A10457  40.540   0.412   7.996
  511POPC   C4A10458  40.529   0.605   7.601
  511POPC   C1B10459  40.950   0.682   8.766
  511POPC   C2B10460  41.106   0.817   8.358
  511POPC   C3B10461  40.877   0.817   7.931
  511POPC   C4B10462  40.897   0.897   7.442
  512POPC   NC310463  19.394  40.700   9.449
  512POPC   PO410464  20.024  40.915   9.544
  512POPC   GL110465  19.842  40.702   9.203
  512POPC   GL210466  19.567  40.931   9.039
  512POPC   C1A10467  19.836  40.562   8.792
  512POPC   D2A10468  19.732  40.740   8.402
  512POPC   C3A10469  19.843  40.556   7.977
  512POPC   C4A10470  19.716  40.544   7.521
  512POPC   C1B10471  19.982  41.100   8.915
  512POPC   C2B10472  20.065  41.158   8.507
  512POPC   C3B10473  19.889  41.139   8.111
  512POPC   C4B10474  19.863  41.006   7.717
  513POPC   NC310475  28.833  23.245   9.483
  513POPC   PO410476  29.310  22.834   9.686
  513POPC   GL110477  29.150  22.902   9.237
  513POPC   GL210478  28.895  22.654   9.070
  513POPC   C1A10479  29.103  23.035   8.803
  513POPC   D2A10480  28.960  22.761   8.441
  513POPC   C3A10481  29.074  23.009   8.081
  513POPC   C4A10482  29.224  23.074   7.652
  513POPC   C1B10483  29.306  22.569   8.791
  513POPC   C2B10484  29.469  22.632   8.340
  513POPC   C3B10485  29.328  22.618   7.883
  513POPC   C4B10486  29.280  22.621   7.411
  514POPC   NC310487  32.598   3.786   9.507
  514POPC   PO410488  31.999   3.326   9.551
  514POPC   GL110489  32.125   3.401   9.149
  514POPC   GL210490  32.244   3.746   9.140
  514POPC   C1A10491  32.216   3.384   8.726
  514POPC   D2A10492  32.362   3.357   8.322
  514POPC   C3A10493  32.317   3.575   7.943
  514POPC   C4A10494  32.430   3.243   7.682
  514POPC   C1B10495  32.227   3.889   8.723
  514POPC   C2B10496  32.054   3.793   8.349
  514POPC   C3B10497  31.859   3.911   8.000
  514POPC   C4B10498  31.985   3.817   7.561
  515POPC   NC310499   5.366  10.414   9.495
  515POPC   PO410500   4.764  10.702   9.424
  515POPC   GL110501   5.036  10.529   9.114
  515POPC   GL210502   5.385  10.684   9.061
  515POPC   C1A10503   4.953  10.345   8.733
  515POPC   D2A10504   4.967  10.335   8.308
  515POPC   C3A10505   5.169  10.694   8.134
  515POPC   C4A10506   5.288  10.602   7.729
  515POPC   C1B10507   5.491  10.477   8.632
  515POPC   C2B10508   5.521  10.322   8.174
  515POPC   C3B10509   5.519  10.160   7.710
  515POPC   C4B10510   5.488  10.434   7.291
  516POPC   NC310511   5.167  13.565   9.534
  516POPC   PO410512   4.540  13.424   9.230
  516POPC   GL110513   4.924  13.625   9.062
  516POPC   GL210514   5.262  13.483   9.031
  516POPC   C1A10515   4.942  13.575   8.620
  516POPC   D2A10516   4.747  13.214   8.409
  516POPC   C3A10517   4.866  13.208   7.973
  516POPC   C4A10518   5.008  13.541   7.713
  516POPC   C1B10519   5.463  13.557   8.622
  516POPC   C2B10520   5.343  13.581   8.164
  516POPC   C3B10521   5.349  13.938   7.855
  516POPC   C4B10522   5.219  13.917   7.418
  517POPC   NC310523   3.195  42.827   9.885
  517POPC   PO410524   3.565  43.138   9.402
  517POPC   GL110525   3.640  43.272   9.018
  517POPC   GL210526   3.413  42.992   8.902
  517POPC   C1A10527   3.713  43.242   8.563
  517POPC   D2A10528   3.555  43.030   8.205
  517POPC   C3A10529   3.546  43.268   7.872
  517POPC   C4A10530   3.699  42.973   7.638
  517POPC   C1B10531   3.238  43.384   8.738
  517POPC   C2B10532   3.251  43.397   8.353
  517POPC   C3B10533   3.073  43.178   8.072
  517POPC   C4B10534   3.206  42.897   7.810
  518POPC   NC310535  30.970  29.512   9.524
  518POPC   PO410536  30.369  29.930   9.488
  518POPC   GL110537  30.676  30.063   9.200
  518POPC   GL210538  30.936  29.836   9.120
  518POPC   C1A10539  30.514  30.020   8.815
  518POPC   D2A10540  30.428  29.807   8.454
  518POPC   C3A10541  30.379  30.031   8.087
  518POPC   C4A10542  30.666  30.015   7.761
  518POPC   C1B10543  30.843  29.633   8.723
  518POPC   C2B10544  30.852  29.611   8.250
  518POPC   C3B10545  31.017  29.645   7.813
  518POPC   C4B10546  31.238  29.781   7.442
  519POPC   NC310547  30.601   2.035   9.438
  519POPC   PO410548  31.262   2.020   9.402
  519POPC   GL110549  30.899   1.960   9.028
  519POPC   GL210550  30.496   1.842   9.005
  519POPC   C1A10551  30.649   2.155   8.644
  519POPC   D2A10552  30.731   2.356   8.226
  519POPC   C3A10553  30.872   2.034   7.922
  519POPC   C4A10554  30.867   1.976   7.473
  519POPC   C1B10555  30.288   1.707   8.628
  519POPC   C2B10556  30.478   1.764   8.221
  519POPC   C3B10557  30.422   1.891   7.792
  519POPC   C4B10558  30.361   1.945   7.342
  520POPC   NC310559  27.462   7.731   9.862
  520POPC   PO410560  27.793   8.187   9.463
  520POPC   GL110561  27.713   8.241   9.057
  520POPC   GL210562  27.407   8.075   9.112
  520POPC   C1A10563  27.566   8.355   8.676
  520POPC   D2A10564  27.477   8.066   8.324
  520POPC   C3A10565  27.706   8.066   7.979
  520POPC   C4A10566  27.676   8.028   7.579
  520POPC   C1B10567  27.185   8.031   8.735
  520POPC   C2B10568  27.014   8.278   8.388
  520POPC   C3B10569  27.123   8.309   7.975
  520POPC   C4B10570  27.197   7.964   7.754
  521POPC   NC310571  38.957  13.973   9.506
  521POPC   PO410572  39.339  13.432   9.540
  521POPC   GL110573  39.072  13.517   9.238
  521POPC   GL210574  39.303  13.783   9.165
  521POPC   C1A10575  39.106  13.396   8.821
  521POPC   D2A10576  39.414  13.481   8.494
  521POPC   C3A10577  39.301  13.544   8.066
  521POPC   C4A10578  39.158  13.362   7.679
  521POPC   C1B10579  39.073  13.889   8.823
  521POPC   C2B10580  39.257  14.010   8.460
  521POPC   C3B10581  39.021  14.085   8.134
  521POPC   C4B10582  39.008  13.851   7.759
  522POPC   NC310583  44.502  43.627   9.402
  522POPC   PO410584   0.039  44.011   9.435
  522POPC   GL110585  44.827  43.904   9.071
  522POPC   GL210586  44.583  44.150   9.168
  522POPC   C1A10587  44.512  43.762   8.744
  522POPC   D2A10588  44.543  43.519   8.366
  522POPC   C3A10589  44.617  43.734   7.986
  522POPC   C4A10590  44.270  43.650   7.728
  522POPC   C1B10591  44.639  44.262   8.741
  522POPC   C2B10592  44.325  44.247   8.482
  522POPC   C3B10593  44.403  44.177   8.120
  522POPC   C4B10594  44.465  44.243   7.739
  523POPC   NC310595   6.956  16.236   9.471
  523POPC   PO410596   6.583  15.659   9.580
  523POPC   GL110597   6.612  15.940   9.202
  523POPC   GL210598   6.507  16.306   9.198
  523POPC   C1A10599   6.701  15.793   8.775
  523POPC   D2A10600   6.726  15.533   8.411
  523POPC   C3A10601   6.785  15.798   8.062
  523POPC   C4A10602   6.513  15.977   7.770
  523POPC   C1B10603   6.762  16.349   8.827
  523POPC   C2B10604   6.716  16.184   8.416
  523POPC   C3B10605   6.674  16.388   8.028
  523POPC   C4B10606   6.747  16.389   7.606
  524POPC   NC310607  20.004  25.021   9.681
  524POPC   PO410608  19.562  24.624   9.660
  524POPC   GL110609  19.975  24.619   9.326
  524POPC   GL210610  20.118  24.280   9.180
  524POPC   C1A10611  20.138  24.671   8.857
  524POPC   D2A10612  19.950  24.651   8.414
  524POPC   C3A10613  20.171  24.741   8.008
  524POPC   C4A10614  20.020  24.863   7.577
  524POPC   C1B10615  19.984  24.177   8.714
  524POPC   C2B10616  19.893  24.160   8.261
  524POPC   C3B10617  19.772  24.395   7.877
  524POPC   C4B10618  19.424  24.249   7.609
  525POPC   NC310619   9.800  24.704   9.397
  525POPC   PO410620   9.992  23.979   9.428
  525POPC   GL110621   9.827  24.268   9.130
  525POPC   GL210622   9.521  24.316   9.060
  525POPC   C1A10623   9.903  24.543   8.763
  525POPC   D2A10624   9.803  24.391   8.369
  525POPC   C3A10625   9.999  24.611   8.034
  525POPC   C4A10626   9.825  24.405   7.710
  525POPC   C1B10627   9.410  24.679   8.823
  525POPC   C2B10628   9.567  24.845   8.459
  525POPC   C3B10629   9.506  24.737   8.064
  525POPC   C4B10630   9.587  24.867   7.709
  526POPC   NC310631  15.371   9.211   9.447
  526POPC   PO410632  14.799   8.833   9.352
  526POPC   GL110633  15.089   8.955   9.072
  526POPC   GL210634  14.811   9.095   8.914
  526POPC   C1A10635  15.235   8.936   8.646
  526POPC   D2A10636  15.104   8.648   8.315
  526POPC   C3A10637  15.226   8.708   7.917
  526POPC   C4A10638  15.538   8.981   7.807
  526POPC   C1B10639  14.919   9.366   8.594
  526POPC   C2B10640  15.116   9.221   8.234
  526POPC   C3B10641  15.077   9.196   7.811
  526POPC   C4B10642  15.302   9.365   7.491
  527POPC   NC310643  12.306  15.657   9.635
  527POPC   PO410644  11.810  15.344   9.311
  527POPC   GL110645  11.999  15.810   9.170
  527POPC   GL210646  12.281  16.055   9.291
  527POPC   C1A10647  12.032  16.024   8.738
  527POPC   D2A10648  11.864  16.137   8.294
  527POPC   C3A10649  12.056  15.996   7.867
  527POPC   C4A10650  12.248  15.620   7.659
  527POPC   C1B10651  12.450  16.278   8.908
  527POPC   C2B10652  12.292  16.430   8.509
  527POPC   C3B10653  12.374  16.376   8.076
  527POPC   C4B10654  12.287  16.423   7.652
  528POPC   NC310655  16.041  41.545   9.554
  528POPC   PO410656  15.613  40.994   9.673
  528POPC   GL110657  15.737  41.242   9.263
  528POPC   GL210658  16.094  41.296   9.090
  528POPC   C1A10659  15.669  41.442   8.845
  528POPC   D2A10660  15.826  41.601   8.456
  528POPC   C3A10661  15.863  41.324   8.101
  528POPC   C4A10662  15.826  41.352   7.674
  528POPC   C1B10663  16.121  41.705   8.887
  528POPC   C2B10664  16.280  41.848   8.483
  528POPC   C3B10665  16.073  41.878   8.075
  528POPC   C4B10666  16.223  41.737   7.687
  529POPC   NC310667  33.557  22.538   9.450
  529POPC   PO410668  34.240  22.468   9.553
  529POPC   GL110669  33.952  22.215   9.297
  529POPC   GL210670  33.875  22.430   9.049
  529POPC   C1A10671  33.717  21.965   8.956
  529POPC   D2A10672  33.762  21.796   8.536
  529POPC   C3A10673  33.882  22.043   8.190
  529POPC   C4A10674  33.802  22.273   7.812
  529POPC   C1B10675  33.949  22.287   8.642
  529POPC   C2B10676  34.189  22.421   8.306
  529POPC   C3B10677  34.314  22.383   7.912
  529POPC   C4B10678  34.324  22.248   7.501
  530POPC   NC310679  12.243  43.973   9.562
  530POPC   PO410680  12.302  43.371   9.472
  530POPC   GL110681  12.115  43.686   9.142
  530POPC   GL210682  11.993  44.037   9.141
  530POPC   C1A10683  12.125  43.814   8.685
  530POPC   D2A10684  11.884  43.972   8.337
  530POPC   C3A10685  11.961  43.943   7.912
  530POPC   C4A10686  12.245  43.659   7.695
  530POPC   C1B10687  12.291  44.264   8.893
  530POPC   C2B10688  12.492  44.173   8.490
  530POPC   C3B10689  12.436  43.992   8.089
  530POPC   C4B10690  12.379  44.167   7.682
  531POPC   NC310691  39.443  25.405   9.788
  531POPC   PO410692  39.037  25.024   9.361
  531POPC   GL110693  38.887  25.211   8.982
  531POPC   GL210694  38.888  25.561   9.098
  531POPC   C1A10695  39.128  25.169   8.582
  531POPC   D2A10696  39.563  25.037   8.450
  531POPC   C3A10697  39.515  25.198   8.042
  531POPC   C4A10698  39.303  25.008   7.706
  531POPC   C1B10699  38.940  25.669   8.680
  531POPC   C2B10700  38.863  25.523   8.238
  531POPC   C3B10701  39.056  25.425   7.824
  531POPC   C4B10702  39.038  25.641   7.418
  532POPC   NC310703  43.494  19.879   9.946
  532POPC   PO410704  44.076  19.889   9.672
  532POPC   GL110705  43.895  20.028   9.254
  532POPC   GL210706  43.613  19.805   9.131
  532POPC   C1A10707  44.022  20.051   8.822
  532POPC   D2A10708  44.195  19.840   8.460
  532POPC   C3A10709  44.028  20.040   8.092
  532POPC   C4A10710  43.802  20.087   7.702
  532POPC   C1B10711  43.659  19.671   8.697
  532POPC   C2B10712  43.796  19.593   8.276
  532POPC   C3B10713  43.875  19.592   7.848
  532POPC   C4B10714  43.601  19.556   7.504
  533POPC   NC310715   2.392  14.320   9.492
  533POPC   PO410716   3.097  14.082   9.550
  533POPC   GL110717   2.816  14.153   9.182
  533POPC   GL210718   3.106  14.311   9.088
  533POPC   C1A10719   2.741  14.458   8.780
  533POPC   D2A10720   2.939  14.773   8.468
  533POPC   C3A10721   2.950  14.592   8.009
  533POPC   C4A10722   2.660  14.326   7.734
  533POPC   C1B10723   3.056  14.047   8.732
  533POPC   C2B10724   2.878  14.024   8.320
  533POPC   C3B10725   3.071  14.061   7.931
  533POPC   C4B10726   3.006  13.999   7.489
  534POPC   NC310727  35.217  34.720   9.564
  534POPC   PO410728  35.896  34.636   9.437
  534POPC   GL110729  35.695  34.642   9.060
  534POPC   GL210730  35.332  34.695   9.075
  534POPC   C1A10731  35.569  34.478   8.687
  534POPC   D2A10732  35.320  34.484   8.342
  534POPC   C3A10733  35.500  34.480   7.943
  534POPC   C4A10734  35.680  34.490   7.564
  534POPC   C1B10735  35.092  34.770   8.698
  534POPC   C2B10736  34.895  34.756   8.278
  534POPC   C3B10737  35.138  34.856   7.949
  534POPC   C4B10738  34.932  35.131   7.731
  535POPC   NC310739   8.255  35.884   9.526
  535POPC   PO410740   7.705  36.104   9.223
  535POPC   GL110741   8.164  36.206   9.105
  535POPC   GL210742   8.355  35.891   9.017
  535POPC   C1A10743   8.415  36.302   8.713
  535POPC   D2A10744   8.408  36.545   8.325
  535POPC   C3A10745   8.315  36.381   7.922
  535POPC   C4A10746   7.968  36.294   7.656
  535POPC   C1B10747   8.037  35.775   8.693
  535POPC   C2B10748   7.919  35.682   8.231
  535POPC   C3B10749   8.163  35.858   7.868
  535POPC   C4B10750   8.617  35.930   7.888
  536POPC   NC310751  11.166  35.666   9.278
  536POPC   PO410752  11.454  36.151   9.592
  536POPC   GL110753  11.436  36.154   9.166
  536POPC   GL210754  11.070  36.218   9.221
  536POPC   C1A10755  11.525  35.999   8.752
  536POPC   D2A10756  11.222  35.848   8.466
  536POPC   C3A10757  11.162  35.988   8.081
  536POPC   C4A10758  11.446  35.968   7.758
  536POPC   C1B10759  11.063  36.238   8.788
  536POPC   C2B10760  11.182  36.425   8.407
  536POPC   C3B10761  10.956  36.456   8.017
  536POPC   C4B10762  11.006  36.169   7.631
  537POPC   NC310763  41.470  16.561   9.420
  537POPC   PO410764  41.181  17.101   9.203
  537POPC   GL110765  41.448  16.855   9.007
  537POPC   GL210766  41.801  16.832   9.080
  537POPC   C1A10767  41.509  16.722   8.625
  537POPC   D2A10768  41.637  16.817   8.236
  537POPC   C3A10769  41.451  16.699   7.882
  537POPC   C4A10770  41.122  16.961   7.857
  537POPC   C1B10771  41.889  16.432   8.827
  537POPC   C2B10772  42.032  16.280   8.429
  537POPC   C3B10773  41.945  16.463   8.044
  537POPC   C4B10774  41.919  16.407   7.627
  538POPC   NC310775   5.193   3.059   9.537
  538POPC   PO410776   5.031   2.399   9.478
  538POPC   GL110777   5.252   2.664   9.187
  538POPC   GL210778   4.959   2.862   9.125
  538POPC   C1A10779   5.323   2.864   8.759
  538POPC   D2A10780   5.186   2.710   8.340
  538POPC   C3A10781   5.355   2.879   7.973
  538POPC   C4A10782   5.275   2.746   7.575
  538POPC   C1B10783   4.812   2.713   8.731
  538POPC   C2B10784   4.761   2.955   8.351
  538POPC   C3B10785   4.817   2.911   7.914
  538POPC   C4B10786   4.611   3.194   7.630
  539POPC   NC310787   7.955  33.465   9.338
  539POPC   PO410788   8.607  33.659   9.352
  539POPC   GL110789   8.324  33.839   9.105
  539POPC   GL210790   8.178  34.132   9.240
  539POPC   C1A10791   8.174  33.795   8.711
  539POPC   D2A10792   8.008  33.618   8.371
  539POPC   C3A10793   8.179  33.630   7.978
  539POPC   C4A10794   8.326  33.545   7.552
  539POPC   C1B10795   7.805  34.011   8.964
  539POPC   C2B10796   7.618  33.971   8.554
  539POPC   C3B10797   7.748  34.083   8.157
  539POPC   C4B10798   7.877  33.957   7.760
  540POPC   NC310799   7.654  29.425   9.488
  540POPC   PO410800   7.201  28.865   9.449
  540POPC   GL110801   7.380  29.124   9.131
  540POPC   GL210802   7.741  29.031   9.144
  540POPC   C1A10803   7.179  29.273   8.744
  540POPC   D2A10804   7.228  29.427   8.313
  540POPC   C3A10805   7.158  29.144   7.989
  540POPC   C4A10806   7.266  29.074   7.523
  540POPC   C1B10807   7.713  29.167   8.705
  540POPC   C2B10808   7.618  29.045   8.286
  540POPC   C3B10809   7.648  29.116   7.854
  540POPC   C4B10810   7.737  28.831   7.473
  541POPC   NC310811  32.563  27.109   9.414
  541POPC   PO410812  32.250  27.749   9.457
  541POPC   GL110813  32.371  27.556   9.062
  541POPC   GL210814  32.319  27.227   8.981
  541POPC   C1A10815  32.192  27.710   8.695
  541POPC   D2A10816  32.388  27.780   8.335
  541POPC   C3A10817  32.447  27.427   8.092
  541POPC   C4A10818  32.531  27.491   7.690
  541POPC   C1B10819  32.030  27.205   8.624
  541POPC   C2B10820  31.947  27.469   8.272
  541POPC   C3B10821  32.036  27.712   7.919
  541POPC   C4B10822  32.060  27.324   7.715
  542POPC   NC310823  39.551  26.280   9.316
  542POPC   PO410824  39.226  25.681   9.472
  542POPC   GL110825  39.349  25.839   9.101
  542POPC   GL210826  39.085  26.049   9.023
  542POPC   C1A10827  39.448  25.911   8.677
  542POPC   D2A10828  39.195  25.931   8.320
  542POPC   C3A10829  39.355  25.786   7.979
  542POPC   C4A10830  39.573  25.994   7.652
  542POPC   C1B10831  39.123  26.327   8.684
  542POPC   C2B10832  39.070  26.421   8.250
  542POPC   C3B10833  39.168  26.238   7.881
  542POPC   C4B10834  38.959  26.189   7.479
  543POPC   NC310835  42.178  20.611   9.636
  543POPC   PO410836  42.255  19.964   9.756
  543POPC   GL110837  42.200  20.261   9.277
  543POPC   GL210838  42.347  20.638   9.146
  543POPC   C1A10839  42.139  20.388   8.779
  543POPC   D2A10840  42.211  20.716   8.427
  543POPC   C3A10841  42.147  20.588   7.980
  543POPC   C4A10842  42.279  20.708   7.570
  543POPC   C1B10843  42.613  20.794   8.771
  543POPC   C2B10844  42.814  20.721   8.347
  543POPC   C3B10845  42.685  20.539   7.956
  543POPC   C4B10846  42.444  20.231   7.735
  544POPC   NC310847  27.367   7.594   9.311
  544POPC   PO410848  27.897   7.568   9.770
  544POPC   GL110849  27.870   7.437   9.320
  544POPC   GL210850  27.837   7.755   9.176
  544POPC   C1A10851  27.783   7.348   8.841
  544POPC   D2A10852  27.480   7.414   8.470
  544POPC   C3A10853  27.493   7.205   8.040
  544POPC   C4A10854  27.436   7.506   7.661
  544POPC   C1B10855  27.750   7.860   8.744
  544POPC   C2B10856  27.944   7.827   8.364
  544POPC   C3B10857  27.840   7.573   8.049
  544POPC   C4B10858  27.927   7.589   7.641
  545POPC   NC310859  24.701   4.243   9.767
  545POPC   PO410860  24.391   3.718   9.451
  545POPC   GL110861  24.389   3.504   9.086
  545POPC   GL210862  24.728   3.579   9.029
  545POPC   C1A10863  24.197   3.248   8.780
  545POPC   D2A10864  24.289   3.161   8.370
  545POPC   C3A10865  24.513   3.413   8.082
  545POPC   C4A10866  24.341   3.308   7.702
  545POPC   C1B10867  24.546   3.567   8.601
  545POPC   C2B10868  24.487   3.883   8.291
  545POPC   C3B10869  24.403   3.896   7.865
  545POPC   C4B10870  24.754   3.694   7.692
  546POPC   NC310871   7.678  38.264   9.515
  546POPC   PO410872   7.162  38.694   9.437
  546POPC   GL110873   7.452  38.547   9.125
  546POPC   GL210874   7.198  38.358   8.988
  546POPC   C1A10875   7.627  38.475   8.686
  546POPC   D2A10876   7.761  38.630   8.268
  546POPC   C3A10877   7.717  38.363   7.860
  546POPC   C4A10878   7.388  38.379   7.495
  546POPC   C1B10879   6.969  38.308   8.609
  546POPC   C2B10880   6.956  38.304   8.151
  546POPC   C3B10881   6.935  38.366   7.715
  546POPC   C4B10882   6.881  38.229   7.293
  547POPC   NC310883  36.373  22.797   9.623
  547POPC   PO410884  36.289  23.376   9.386
  547POPC   GL110885  36.089  23.029   9.209
  547POPC   GL210886  36.010  22.673   9.265
  547POPC   C1A10887  35.816  23.038   8.855
  547POPC   D2A10888  35.808  23.305   8.491
  547POPC   C3A10889  35.962  23.086   8.128
  547POPC   C4A10890  35.895  23.212   7.690
  547POPC   C1B10891  36.207  22.708   8.849
  547POPC   C2B10892  36.320  22.685   8.423
  547POPC   C3B10893  36.330  22.764   7.998
  547POPC   C4B10894  35.969  22.670   7.767
  548POPC   NC310895  14.497  21.148   9.952
  548POPC   PO410896  14.035  21.310   9.501
  548POPC   GL110897  14.188  21.450   9.117
  548POPC   GL210898  14.493  21.625   9.138
  548POPC   C1A10899  14.358  21.323   8.741
  548POPC   D2A10900  14.418  21.081   8.419
  548POPC   C3A10901  14.363  21.217   8.073
  548POPC   C4A10902  14.334  21.173   7.654
  548POPC   C1B10903  14.631  21.749   8.720
  548POPC   C2B10904  14.351  21.665   8.365
  548POPC   C3B10905  14.266  21.671   7.924
  548POPC   C4B10906  14.558  21.631   7.636
  549POPC   NC310907  25.898  44.141   9.521
  549POPC   PO410908  26.259  43.586   9.604
  549POPC   GL110909  26.085  43.636   9.155
  549POPC   GL210910  26.081  43.992   9.063
  549POPC   C1A10911  26.220  43.637   8.692
  549POPC   D2A10912  26.425  43.899   8.358
  549POPC   C3A10913  26.247  43.846   7.966
  549POPC   C4A10914  26.161  43.904   7.550
  549POPC   C1B10915  26.071  44.186   8.646
  549POPC   C2B10916  25.954  44.184   8.201
  549POPC   C3B10917  25.947  44.313   7.786
  549POPC   C4B10918  25.848  44.260   7.371
  550POPC   NC310919   7.015   7.267   9.416
  550POPC   PO410920   6.520   7.743   9.490
  550POPC   GL110921   6.653   7.531   9.150
  550POPC   GL210922   6.979   7.680   9.125
  550POPC   C1A10923   6.567   7.216   8.847
  550POPC   D2A10924   6.694   7.285   8.447
  550POPC   C3A10925   6.936   7.122   8.165
  550POPC   C4A10926   6.712   7.222   7.809
  550POPC   C1B10927   7.057   7.434   8.780
  550POPC   C2B10928   7.192   7.530   8.385
  550POPC   C3B10929   6.986   7.620   7.996
  550POPC   C4B10930   7.063   7.936   7.735
  551POPC   NC310931  34.826   1.337   9.483
  551POPC   PO410932  34.113   1.135   9.536
  551POPC   GL110933  34.355   1.183   9.154
  551POPC   GL210934  34.612   0.981   9.181
  551POPC   C1A10935  34.524   1.427   8.797
  551POPC   D2A10936  34.314   1.671   8.450
  551POPC   C3A10937  34.312   1.443   8.043
  551POPC   C4A10938  34.569   1.438   7.685
  551POPC   C1B10939  34.691   0.916   8.770
  551POPC   C2B10940  34.680   1.130   8.375
  551POPC   C3B10941  34.583   0.965   7.983
  551POPC   C4B10942  34.691   0.971   7.553
  552POPC   NC310943   0.525  18.409   9.398
  552POPC   PO410944   0.082  17.927   9.548
  552POPC   GL110945   0.259  18.030   9.137
  552POPC   GL210946   0.580  17.878   9.079
  552POPC   C1A10947   0.432  18.305   8.758
  552POPC   D2A10948   0.370  18.565   8.371
  552POPC   C3A10949   0.581  18.440   7.980
  552POPC   C4A10950   0.380  18.402   7.580
  552POPC   C1B10951   0.340  17.803   8.688
  552POPC   C2B10952   0.300  18.060   8.307
  552POPC   C3B10953   0.263  17.978   7.899
  552POPC   C4B10954   0.616  17.963   7.727
  553POPC   NC310955  42.985   2.906   9.428
  553POPC   PO410956  43.389   2.314   9.447
  553POPC   GL110957  43.205   2.543   9.158
  553POPC   GL210958  43.423   2.827   9.136
  553POPC   C1A10959  43.057   2.622   8.768
  553POPC   D2A10960  43.145   2.395   8.406
  553POPC   C3A10961  42.883   2.517   8.093
  553POPC   C4A10962  42.839   2.904   7.844
  553POPC   C1B10963  43.284   3.083   8.774
  553POPC   C2B10964  43.138   2.922   8.352
  553POPC   C3B10965  43.313   2.831   7.958
  553POPC   C4B10966  43.247   3.112   7.600
  554POPC   NC310967  36.778  16.662   9.517
  554POPC   PO410968  37.333  16.324   9.293
  554POPC   GL110969  37.124  16.774   9.127
  554POPC   GL210970  36.873  16.617   9.033
  554POPC   C1A10971  36.759  17.016   8.786
  554POPC   D2A10972  36.560  17.028   8.391
  554POPC   C3A10973  36.741  16.995   7.971
  554POPC   C4A10974  36.685  16.844   7.523
  554POPC   C1B10975  37.042  16.612   8.649
  554POPC   C2B10976  36.842  16.596   8.283
  554POPC   C3B10977  36.760  16.466   7.897
  554POPC   C4B10978  36.834  16.181   7.606
  555POPC   NC310979  26.349  23.773   9.375
  555POPC   PO410980  26.255  23.109   9.390
  555POPC   GL110981  26.108  23.412   9.069
  555POPC   GL210982  25.815  23.633   9.146
  555POPC   C1A10983  26.228  23.742   8.754
  555POPC   D2A10984  26.212  23.989   8.379
  555POPC   C3A10985  26.276  23.648   8.073
  555POPC   C4A10986  26.385  23.714   7.667
  555POPC   C1B10987  25.748  23.896   8.771
  555POPC   C2B10988  25.774  23.747   8.375
  555POPC   C3B10989  25.808  23.770   7.972
  555POPC   C4B10990  25.847  23.847   7.543
  556POPC   NC310991  12.212   5.244   9.417
  556POPC   PO410992  12.898   5.413   9.417
  556POPC   GL110993  12.894   5.091   9.082
  556POPC   GL210994  12.543   5.078   9.076
  556POPC   C1A10995  12.752   4.902   8.640
  556POPC   D2A10996  12.769   4.718   8.249
  556POPC   C3A10997  12.879   5.013   7.920
  556POPC   C4A10998  12.718   5.047   7.536
  556POPC   C1B10999  12.553   5.350   8.680
  556POPC   C2B11000  12.749   5.318   8.288
  556POPC   C3B11001  12.541   5.414   7.865
  556POPC   C4B11002  12.552   5.508   7.349
  557POPC   NC311003   1.344  24.001   9.419
  557POPC   PO411004   0.903  23.434   9.447
  557POPC   GL111005   1.190  23.579   9.111
  557POPC   GL211006   0.958  23.883   9.090
  557POPC   C1A11007   1.521  23.443   8.763
  557POPC   D2A11008   1.630  23.243   8.320
  557POPC   C3A11009   1.471  23.527   7.965
  557POPC   C4A11010   1.042  23.541   7.814
  557POPC   C1B11011   1.259  23.994   8.751
  557POPC   C2B11012   1.258  23.860   8.324
  557POPC   C3B11013   1.287  24.008   7.925
  557POPC   C4B11014   1.406  24.355   7.709
  558POPC   NC311015  26.975  17.964   9.474
  558POPC   PO411016  26.360  17.751   9.530
  558POPC   GL111017  26.562  18.097   9.177
  558POPC   GL211018  26.880  18.315   9.115
  558POPC   C1A11019  26.577  18.260   8.718
  558POPC   D2A11020  26.597  18.556   8.354
  558POPC   C3A11021  26.514  18.391   7.933
  558POPC   C4A11022  26.559  18.139   7.563
  558POPC   C1B11023  27.155  18.053   8.836
  558POPC   C2B11024  27.124  17.959   8.389
  558POPC   C3B11025  26.981  18.271   8.101
  558POPC   C4B11026  27.035  18.288   7.649
  559POPC   NC311027  24.034  29.621   9.446
  559POPC   PO411028  24.627  29.873   9.465
  559POPC   GL111029  24.654  29.995   9.067
  559POPC   GL211030  24.758  30.361   9.015
  559POPC   C1A11031  24.497  29.650   8.804
  559POPC   D2A11032  24.241  29.552   8.433
  559POPC   C3A11033  24.449  29.553   8.028
  559POPC   C4A11034  24.393  29.932   7.775
  559POPC   C1B11035  24.611  30.222   8.617
  559POPC   C2B11036  24.729  29.853   8.399
  559POPC   C3B11037  24.855  29.899   7.999
  559POPC   C4B11038  24.786  30.259   7.782
  560POPC   NC311039  32.517  41.083   9.308
  560POPC   PO411040  31.838  41.052   9.597
  560POPC   GL111041  32.050  40.843   9.200
  560POPC   GL211042  32.203  41.053   8.902
  560POPC   C1A11043  32.100  40.584   8.793
  560POPC   D2A11044  32.063  40.857   8.423
  560POPC   C3A11045  32.235  40.882   8.002
  560POPC   C4A11046  32.198  41.151   7.626
  560POPC   C1B11047  32.553  40.779   8.702
  560POPC   C2B11048  32.533  40.449   8.384
  560POPC   C3B11049  32.671  40.546   7.975
  560POPC   C4B11050  32.582  40.795   7.627
  561POPC   NC311051  15.787  36.645   9.814
  561POPC   PO411052  15.266  37.043   9.486
  561POPC   GL111053  15.382  37.117   9.093
  561POPC   GL211054  15.738  37.205   9.138
  561POPC   C1A11055  15.206  36.837   8.782
  561POPC   D2A11056  14.932  36.749   8.417
  561POPC   C3A11057  15.103  36.793   8.004
  561POPC   C4A11058  14.970  37.048   7.654
  561POPC   C1B11059  15.734  37.063   8.720
  561POPC   C2B11060  15.508  36.897   8.374
  561POPC   C3B11061  15.478  37.122   8.028
  561POPC   C4B11062  15.498  37.011   7.630
  562POPC   NC311063  42.213  41.256   9.439
  562POPC   PO411064  42.570  41.886   9.338
  562POPC   GL111065  42.333  41.642   9.099
  562POPC   GL211066  42.563  41.362   9.052
  562POPC   C1A11067  42.106  41.717   8.743
  562POPC   D2A11068  42.114  41.486   8.387
  562POPC   C3A11069  42.209  41.682   8.005
  562POPC   C4A11070  41.960  41.981   7.822
  562POPC   C1B11071  42.618  41.529   8.632
  562POPC   C2B11072  42.573  41.368   8.215
  562POPC   C3B11073  42.613  41.403   7.762
  562POPC   C4B11074  42.537  41.116   7.434
  563POPC   NC311075   6.262  34.755   9.470
  563POPC   PO411076   5.644  34.963   9.492
  563POPC   GL111077   5.830  34.753   9.155
  563POPC   GL211078   6.088  34.960   9.045
  563POPC   C1A11079   5.878  34.605   8.732
  563POPC   D2A11080   5.669  34.452   8.389
  563POPC   C3A11081   5.920  34.563   8.048
  563POPC   C4A11082   6.251  34.451   7.814
  563POPC   C1B11083   6.331  34.828   8.664
  563POPC   C2B11084   6.325  34.890   8.210
  563POPC   C3B11085   6.157  34.956   7.807
  563POPC   C4B11086   6.138  34.902   7.370
  564POPC   NC311087  29.388  19.092   9.698
  564POPC   PO411088  28.971  19.464   9.437
  564POPC   GL111089  29.099  19.389   9.036
  564POPC   GL211090  29.439  19.366   9.074
  564POPC   C1A11091  29.133  19.298   8.577
  564POPC   D2A11092  28.953  19.104   8.203
  564POPC   C3A11093  29.130  19.199   7.797
  564POPC   C4A11094  28.973  19.349   7.400
  564POPC   C1B11095  29.612  19.456   8.658
  564POPC   C2B11096  29.499  19.293   8.201
  564POPC   C3B11097  29.513  18.896   7.919
  564POPC   C4B11098  29.219  18.684   7.599
  565POPC   NC311099  38.818  19.209   9.363
  565POPC   PO411100  38.271  18.862   9.447
  565POPC   GL111101  38.487  18.932   9.096
  565POPC   GL211102  38.367  19.288   9.114
  565POPC   C1A11103  38.692  18.934   8.693
  565POPC   D2A11104  38.649  19.150   8.295
  565POPC   C3A11105  38.426  18.982   7.930
  565POPC   C4A11106  38.647  18.701   7.677
  565POPC   C1B11107  38.529  19.473   8.694
  565POPC   C2B11108  38.471  19.647   8.278
  565POPC   C3B11109  38.359  19.481   7.867
  565POPC   C4B11110  38.332  19.415   7.398
  566POPC   NC311111  43.673   3.162   9.433
  566POPC   PO411112  44.021   3.806   9.529
  566POPC   GL111113  43.788   3.654   9.216
  566POPC   GL211114  43.446   3.752   9.253
  566POPC   C1A11115  43.972   3.623   8.821
  566POPC   D2A11116  44.187   3.515   8.440
  566POPC   C3A11117  43.968   3.615   8.052
  566POPC   C4A11118  44.040   3.418   7.682
  566POPC   C1B11119  43.430   3.582   8.831
  566POPC   C2B11120  43.656   3.438   8.459
  566POPC   C3B11121  43.534   3.313   8.046
  566POPC   C4B11122  43.545   3.529   7.645
  567POPC   NC311123  32.976   8.333   9.497
  567POPC   PO411124  32.644   7.702   9.409
  567POPC   GL111125  32.931   7.953   9.120
  567POPC   GL211126  32.801   8.307   9.025
  567POPC   C1A11127  33.146   8.088   8.714
  567POPC   D2A11128  33.098   8.330   8.370
  567POPC   C3A11129  33.262   8.209   8.008
  567POPC   C4A11130  33.032   8.341   7.666
  567POPC   C1B11131  32.649   8.067   8.713
  567POPC   C2B11132  32.796   7.877   8.379
  567POPC   C3B11133  32.759   8.068   8.015
  567POPC   C4B11134  32.552   7.956   7.670
  568POPC   NC311135   5.395  18.943   9.477
  568POPC   PO411136   4.714  18.870   9.435
  568POPC   GL111137   4.839  19.086   9.053
  568POPC   GL211138   5.185  19.147   9.070
  568POPC   C1A11139   4.956  19.039   8.609
  568POPC   D2A11140   4.956  19.228   8.217
  568POPC   C3A11141   4.899  19.063   7.766
  568POPC   C4A11142   4.914  18.920   7.321
  568POPC   C1B11143   5.415  18.869   8.815
  568POPC   C2B11144   5.434  19.033   8.399
  568POPC   C3B11145   5.312  18.903   8.028
  568POPC   C4B11146   5.517  18.826   7.676
  569POPC   NC311147   8.824  20.611   9.431
  569POPC   PO411148   8.872  20.042   9.750
  569POPC   GL111149   9.090  20.243   9.221
  569POPC   GL211150   9.076  20.587   9.015
  569POPC   C1A11151   9.001  20.194   8.735
  569POPC   D2A11152   8.773  20.372   8.352
  569POPC   C3A11153   8.931  20.382   7.951
  569POPC   C4A11154   9.326  20.347   7.781
  569POPC   C1B11155   8.822  20.713   8.712
  569POPC   C2B11156   9.046  20.844   8.396
  569POPC   C3B11157   9.231  20.794   8.021
  569POPC   C4B11158   9.044  20.798   7.627
  570POPC   NC311159  34.761   3.086   9.716
  570POPC   PO411160  34.494   2.472   9.597
  570POPC   GL111161  34.409   2.854   9.329
  570POPC   GL211162  34.710   3.027   9.186
  570POPC   C1A11163  34.285   2.961   8.896
  570POPC   D2A11164  34.291   2.747   8.503
  570POPC   C3A11165  34.280   2.867   8.055
  570POPC   C4A11166  34.676   2.918   7.823
  570POPC   C1B11167  34.665   2.598   8.952
  570POPC   C2B11168  34.819   2.299   8.627
  570POPC   C3B11169  34.911   2.295   8.177
  570POPC   C4B11170  34.997   2.529   7.803
  571POPC   NC311171  19.862  38.298   9.883
  571POPC   PO411172  20.271  38.666   9.522
  571POPC   GL111173  20.026  38.456   9.230
  571POPC   GL211174  19.710  38.572   9.280
  571POPC   C1A11175  20.107  38.249   8.803
  571POPC   D2A11176  19.944  38.099   8.388
  571POPC   C3A11177  20.016  38.254   7.957
  571POPC   C4A11178  19.711  38.334   7.630
  571POPC   C1B11179  19.472  38.664   8.928
  571POPC   C2B11180  19.526  38.498   8.532
  571POPC   C3B11181  19.745  38.642   8.187
  571POPC   C4B11182  19.553  38.782   7.825
  572POPC   NC311183   0.462  19.711   9.505
  572POPC   PO411184   0.538  20.433   9.599
  572POPC   GL111185   0.715  20.172   9.265
  572POPC   GL211186   0.372  20.138   9.155
  572POPC   C1A11187   0.744  19.993   8.828
  572POPC   D2A11188   0.542  20.188   8.433
  572POPC   C3A11189   0.533  20.006   7.989
  572POPC   C4A11190   0.575  19.534   7.868
  572POPC   C1B11191   0.244  19.821   8.846
  572POPC   C2B11192   0.005  19.798   8.443
  572POPC   C3B11193   0.088  19.725   8.006
  572POPC   C4B11194  44.840  19.697   7.660
  573POPC   NC311195  24.969   0.749   9.552
  573POPC   PO411196  25.124   0.017   9.593
  573POPC   GL111197  25.123   0.317   9.199
  573POPC   GL211198  25.313   0.631   9.205
  573POPC   C1A11199  25.227   0.392   8.763
  573POPC   D2A11200  25.464   0.377   8.395
  573POPC   C3A11201  25.236   0.362   8.029
  573POPC   C4A11202  25.524   0.485   7.721
  573POPC   C1B11203  25.219   0.899   8.847
  573POPC   C2B11204  25.204   0.833   8.405
  573POPC   C3B11205  25.261   0.871   7.961
  573POPC   C4B11206  25.113   0.827   7.544
  574POPC   NC311207   2.998  43.745   9.541
  574POPC   PO411208   2.437  44.101   9.506
  574POPC   GL111209   2.643  43.946   9.150
  574POPC   GL211210   2.927  44.183   9.074
  574POPC   C1A11211   2.528  44.048   8.736
  574POPC   D2A11212   2.737  44.126   8.376
  574POPC   C3A11213   2.565  43.878   8.069
  574POPC   C4A11214   2.419  43.964   7.667
  574POPC   C1B11215   2.993  43.851   8.749
  574POPC   C2B11216   3.165  43.877   8.330
  574POPC   C3B11217   3.030  43.685   7.996
  574POPC   C4B11218   2.919  43.895   7.664
  575POPC   NC311219   7.188  39.130   9.611
  575POPC   PO411220   7.309  39.792   9.554
  575POPC   GL111221   7.251  39.482   9.175
  575POPC   GL211222   7.319  39.090   9.137
  575POPC   C1A11223   7.448  39.372   8.754
  575POPC   D2A11224   7.504  39.117   8.349
  575POPC   C3A11225   7.337  39.313   7.963
  575POPC   C4A11226   7.536  39.580   7.650
  575POPC   C1B11227   7.247  38.853   8.760
  575POPC   C2B11228   7.235  38.670   8.379
  575POPC   C3B11229   7.180  38.757   7.976
  575POPC   C4B11230   7.570  38.857   7.819
  576POPC   NC311231  40.499  16.512   9.651
  576POPC   PO411232  40.966  17.027   9.699
  576POPC   GL111233  40.732  16.809   9.274
  576POPC   GL211234  40.443  16.560   9.152
  576POPC   C1A11235  40.801  16.765   8.811
  576POPC   D2A11236  41.042  16.917   8.443
  576POPC   C3A11237  40.957  16.585   8.159
  576POPC   C4A11238  40.758  16.590   7.770
  576POPC   C1B11239  40.399  16.365   8.744
  576POPC   C2B11240  40.514  16.308   8.340
  576POPC   C3B11241  40.352  16.347   7.942
  576POPC   C4B11242  40.487  16.247   7.497
  577POPC   NC311243  22.857  27.339   9.576
  577POPC   PO411244  23.150  27.966   9.371
  577POPC   GL111245  23.149  27.751   9.020
  577POPC   GL211246  22.894  27.508   9.102
  577POPC   C1A11247  22.945  27.687   8.636
  577POPC   D2A11248  22.955  27.475   8.294
  577POPC   C3A11249  22.880  27.691   7.947
  577POPC   C4A11250  23.178  27.939   7.727
  577POPC   C1B11251  23.090  27.213   8.806
  577POPC   C2B11252  23.146  27.016   8.388
  577POPC   C3B11253  23.034  27.084   7.977
  577POPC   C4B11254  22.944  27.309   7.634
  578POPC   NC311255   5.940   3.183   9.819
  578POPC   PO411256   6.187   3.796   9.754
  578POPC   GL111257   6.027   3.681   9.283
  578POPC   GL211258   5.743   3.550   9.202
  578POPC   C1A11259   5.956   3.760   8.826
  578POPC   D2A11260   5.746   3.841   8.467
  578POPC   C3A11261   6.034   3.917   8.132
  578POPC   C4A11262   6.024   3.591   7.844
  578POPC   C1B11263   5.512   3.467   8.778
  578POPC   C2B11264   5.611   3.325   8.329
  578POPC   C3B11265   5.587   3.336   7.862
  578POPC   C4B11266   5.593   3.106   7.474
  579POPC   NC311267   6.467  20.046   9.437
  579POPC   PO411268   6.574  19.387   9.579
  579POPC   GL111269   6.562  19.608   9.171
  579POPC   GL211270   6.804  19.939   9.070
  579POPC   C1A11271   6.636  19.622   8.723
  579POPC   D2A11272   6.876  19.957   8.517
  579POPC   C3A11273   6.855  19.991   8.094
  579POPC   C4A11274   6.895  19.930   7.662
  579POPC   C1B11275   6.510  20.180   8.756
  579POPC   C2B11276   6.574  20.366   8.340
  579POPC   C3B11277   6.542  20.324   7.867
  579POPC   C4B11278   6.479  20.120   7.434
  580POPC   NC311279  43.647  12.758   9.604
  580POPC   PO411280  43.175  13.029   9.176
  580POPC   GL111281  43.264  12.869   8.864
  580POPC   GL211282  43.140  12.545   8.966
  580POPC   C1A11283  43.159  12.786   8.469
  580POPC   D2A11284  42.836  12.694   8.214
  580POPC   C3A11285  42.985  12.960   7.929
  580POPC   C4A11286  42.979  12.953   7.501
  580POPC   C1B11287  43.482  12.458   8.698
  580POPC   C2B11288  43.524  12.509   8.245
  580POPC   C3B11289  43.392  12.669   7.826
  580POPC   C4B11290  43.348  12.430   7.389
  581POPC   NC311291  29.140  27.371   9.502
  581POPC   PO411292  28.881  28.035   9.514
  581POPC   GL111293  28.996  27.749   9.166
  581POPC   GL211294  29.310  27.570   9.075
  581POPC   C1A11295  29.007  27.799   8.733
  581POPC   D2A11296  29.035  28.007   8.366
  581POPC   C3A11297  29.173  27.776   8.063
  581POPC   C4A11298  29.142  27.583   7.695
  581POPC   C1B11299  29.085  27.303   8.833
  581POPC   C2B11300  29.192  27.415   8.428
  581POPC   C3B11301  29.257  27.247   8.052
  581POPC   C4B11302  29.018  27.100   7.701
  582POPC   NC311303  25.778   8.087   9.537
  582POPC   PO411304  26.366   8.416   9.534
  582POPC   GL111305  26.144   8.254   9.209
  582POPC   GL211306  26.410   8.088   9.101
  582POPC   C1A11307  25.835   8.346   8.901
  582POPC   D2A11308  25.714   8.189   8.506
  582POPC   C3A11309  25.759   8.341   8.098
  582POPC   C4A11310  25.857   8.390   7.659
  582POPC   C1B11311  26.165   7.985   8.727
  582POPC   C2B11312  26.068   7.875   8.290
  582POPC   C3B11313  26.211   8.099   7.915
  582POPC   C4B11314  26.203   8.069   7.464
  583POPC   NC311315  41.200   6.776   9.381
  583POPC   PO411316  41.600   6.361   9.731
  583POPC   GL111317  41.696   6.568   9.287
  583POPC   GL211318  41.470   6.576   9.023
  583POPC   C1A11319  41.895   6.591   8.807
  583POPC   D2A11320  41.711   6.491   8.377
  583POPC   C3A11321  41.823   6.702   7.985
  583POPC   C4A11322  41.697   6.845   7.549
  583POPC   C1B11323  41.315   6.388   8.676
  583POPC   C2B11324  41.200   6.405   8.249
  583POPC   C3B11325  41.354   6.556   7.840
  583POPC   C4B11326  41.361   6.511   7.373
  584POPC   NC311327  14.464  21.914   9.557
  584POPC   PO411328  14.072  22.404   9.526
  584POPC   GL111329  14.162  22.071   9.183
  584POPC   GL211330  14.469  22.152   9.002
  584POPC   C1A11331  14.113  21.838   8.810
  584POPC   D2A11332  13.910  21.917   8.431
  584POPC   C3A11333  14.089  22.117   8.089
  584POPC   C4A11334  13.958  21.987   7.697
  584POPC   C1B11335  14.387  22.166   8.525
  584POPC   C2B11336  14.601  22.035   8.111
  584POPC   C3B11337  14.674  22.111   7.642
  584POPC   C4B11338  14.746  21.902   7.210
  585POPC   NC311339  33.701  34.238   9.460
  585POPC   PO411340  33.994  34.773   9.621
  585POPC   GL111341  33.937  34.621   9.189
  585POPC   GL211342  33.550  34.670   9.203
  585POPC   C1A11343  33.977  34.604   8.727
  585POPC   D2A11344  33.962  34.407   8.300
  585POPC   C3A11345  34.062  34.721   7.965
  585POPC   C4A11346  33.986  34.702   7.501
  585POPC   C1B11347  33.545  34.897   8.802
  585POPC   C2B11348  33.684  34.836   8.351
  585POPC   C3B11349  33.532  34.696   7.925
  585POPC   C4B11350  33.484  34.779   7.455
  586POPC   NC311351  14.869  31.574   9.609
  586POPC   PO411352  15.228  32.045   9.687
  586POPC   GL111353  15.181  31.760   9.237
  586POPC   GL211354  15.014  31.426   9.151
  586POPC   C1A11355  15.012  31.760   8.766
  586POPC   D2A11356  14.975  31.458   8.399
  586POPC   C3A11357  15.018  31.559   7.948
  586POPC   C4A11358  15.251  31.922   7.772
  586POPC   C1B11359  15.183  31.164   8.805
  586POPC   C2B11360  15.391  30.953   8.430
  586POPC   C3B11361  15.523  31.165   8.032
  586POPC   C4B11362  15.347  31.294   7.654
  587POPC   NC311363  41.831  14.658   9.469
  587POPC   PO411364  41.713  14.052   9.411
  587POPC   GL111365  41.524  14.391   9.172
  587POPC   GL211366  41.191  14.530   9.095
  587POPC   C1A11367  41.608  14.623   8.803
  587POPC   D2A11368  41.683  14.947   8.512
  587POPC   C3A11369  41.695  14.676   8.169
  587POPC   C4A11370  41.670  14.594   7.724
  587POPC   C1B11371  41.286  14.219   8.769
  587POPC   C2B11372  41.555  14.218   8.420
  587POPC   C3B11373  41.462  14.213   7.987
  587POPC   C4B11374  41.153  14.027   7.695
  588POPC   NC311375  13.258  44.357   9.303
  588POPC   PO411376  13.846  44.385   9.675
  588POPC   GL111377  13.611  44.728   9.311
  588POPC   GL211378  13.562   0.053   9.215
  588POPC   C1A11379  13.386  44.769   8.816
  588POPC   D2A11380  13.363  44.437   8.444
  588POPC   C3A11381  13.481  44.519   7.993
  588POPC   C4A11382  13.807  44.590   7.679
  588POPC   C1B11383  13.866  44.933   8.874
  588POPC   C2B11384  13.818  44.724   8.457
  588POPC   C3B11385  13.832  44.950   8.054
  588POPC   C4B11386  13.547   0.006   7.707
  589POPC   NC311387  44.541  19.871   9.560
  589POPC   PO411388   0.141  19.644   9.852
  589POPC   GL111389  44.999  19.813   9.329
  589POPC   GL211390  44.842  20.094   9.128
  589POPC   C1A11391  44.757  19.673   8.878
  589POPC   D2A11392  44.551  19.426   8.534
  589POPC   C3A11393  44.573  19.597   8.118
  589POPC   C4A11394  44.378  19.484   7.730
  589POPC   C1B11395  44.549  20.116   8.717
  589POPC   C2B11396  44.554  20.125   8.219
  589POPC   C3B11397  44.418  19.979   7.776
  589POPC   C4B11398  44.370  20.179   7.362
  590POPC   NC311399  28.591  39.511   9.453
  590POPC   PO411400  28.075  39.058   9.548
  590POPC   GL111401  28.294  39.203   9.191
  590POPC   GL211402  28.603  39.009   9.234
  590POPC   C1A11403  28.135  39.301   8.758
  590POPC   D2A11404  28.078  39.565   8.364
  590POPC   C3A11405  28.297  39.498   7.964
  590POPC   C4A11406  28.376  39.443   7.518
  590POPC   C1B11407  28.645  39.184   8.812
  590POPC   C2B11408  28.490  39.197   8.381
  590POPC   C3B11409  28.754  39.246   8.034
  590POPC   C4B11410  28.834  39.181   7.588
  591POPC   NC311411  16.193   4.690   9.526
  591POPC   PO411412  16.283   5.319   9.533
  591POPC   GL111413  16.004   5.260   9.175
  591POPC   GL211414  15.870   4.920   9.186
  591POPC   C1A11415  16.113   5.099   8.769
  591POPC   D2A11416  15.905   5.033   8.429
  591POPC   C3A11417  16.008   5.173   8.078
  591POPC   C4A11418  15.973   5.031   7.697
  591POPC   C1B11419  15.754   4.722   8.799
  591POPC   C2B11420  15.532   4.700   8.368
  591POPC   C3B11421  15.552   4.909   7.987
  591POPC   C4B11422  15.476   4.815   7.576
  592POPC   NC311423  41.589  40.916   9.606
  592POPC   PO411424  41.548  40.312   9.355
  592POPC   GL111425  41.629  40.716   9.109
  592POPC   GL211426  41.545  41.073   9.140
  592POPC   C1A11427  41.835  40.861   8.724
  592POPC   D2A11428  41.799  40.615   8.337
  592POPC   C3A11429  41.776  40.803   7.912
  592POPC   C4A11430  41.747  40.575   7.471
  592POPC   C1B11431  41.312  41.031   8.799
  592POPC   C2B11432  41.364  40.900   8.408
  592POPC   C3B11433  41.276  41.071   8.031
  592POPC   C4B11434  41.355  40.919   7.652
  593POPC   NC311435   3.074  24.292   9.397
  593POPC   PO411436   2.665  24.843   9.525
  593POPC   GL111437   2.728  24.578   9.159
  593POPC   GL211438   2.988  24.747   9.006
  593POPC   C1A11439   2.841  24.299   8.773
  593POPC   D2A11440   2.631  24.144   8.397
  593POPC   C3A11441   2.897  24.235   8.074
  593POPC   C4A11442   2.782  24.386   7.689
  593POPC   C1B11443   2.632  24.778   8.699
  593POPC   C2B11444   2.649  24.669   8.259
  593POPC   C3B11445   2.524  24.879   7.881
  593POPC   C4B11446   2.781  24.880   7.517
  594POPC   NC311447  41.867  15.916   9.676
  594POPC   PO411448  41.279  16.137   9.449
  594POPC   GL111449  41.484  15.989   9.127
  594POPC   GL211450  41.828  15.993   9.150
  594POPC   C1A11451  41.422  16.219   8.740
  594POPC   D2A11452  41.531  16.305   8.326
  594POPC   C3A11453  41.291  16.233   7.979
  594POPC   C4A11454  41.421  16.265   7.577
  594POPC   C1B11455  41.803  15.866   8.724
  594POPC   C2B11456  41.936  15.782   8.313
  594POPC   C3B11457  41.711  15.955   7.977
  594POPC   C4B11458  41.764  15.913   7.545
  595POPC   NC311459   7.621  12.672   9.596
  595POPC   PO411460   7.080  13.055   9.489
  595POPC   GL111461   7.347  12.899   9.129
  595POPC   GL211462   7.633  12.694   9.066
  595POPC   C1A11463   7.397  12.896   8.641
  595POPC   D2A11464   7.438  12.633   8.254
  595POPC   C3A11465   7.528  12.824   7.862
  595POPC   C4A11466   7.147  13.034   7.761
  595POPC   C1B11467   7.534  12.381   8.689
  595POPC   C2B11468   7.732  12.210   8.307
  595POPC   C3B11469   7.682  12.326   7.845
  595POPC   C4B11470   7.380  12.490   7.495
  596POPC   NC311471  36.659  24.658   9.622
  596POPC   PO411472  36.670  24.294   9.000
  596POPC   GL111473  36.909  24.587   8.761
  596POPC   GL211474  37.165  24.779   8.930
  596POPC   C1A11475  36.840  24.429   8.373
  596POPC   D2A11476  36.562  24.064   8.443
  596POPC   C3A11477  36.516  24.010   8.032
  596POPC   C4A11478  36.646  24.322   7.724
  596POPC   C1B11479  37.100  25.030   8.596
  596POPC   C2B11480  37.209  24.823   8.249
  596POPC   C3B11481  36.975  24.669   7.935
  596POPC   C4B11482  37.074  24.590   7.537
  597POPC   NC311483  27.619  27.492   9.563
  597POPC   PO411484  27.975  26.986   9.240
  597POPC   GL111485  27.681  27.180   8.972
  597POPC   GL211486  27.485  27.457   9.086
  597POPC   C1A11487  27.623  27.345   8.558
  597POPC   D2A11488  27.718  27.727   8.336
  597POPC   C3A11489  27.801  27.570   7.958
  597POPC   C4A11490  27.966  27.133   7.874
  597POPC   C1B11491  27.399  27.764   8.773
  597POPC   C2B11492  27.216  27.805   8.362
  597POPC   C3B11493  27.328  27.792   7.932
  597POPC   C4B11494  27.402  27.411   7.713
  598POPC   NC311495  27.982  31.835   9.530
  598POPC   PO411496  27.342  31.882   9.642
  598POPC   GL111497  27.621  31.615   9.228
  598POPC   GL211498  27.728  31.231   9.190
  598POPC   C1A11499  27.846  31.572   8.765
  598POPC   D2A11500  27.863  31.224   8.384
  598POPC   C3A11501  27.849  31.394   7.963
  598POPC   C4A11502  27.685  31.365   7.543
  598POPC   C1B11503  27.519  31.206   8.777
  598POPC   C2B11504  27.428  31.449   8.389
  598POPC   C3B11505  27.366  31.263   7.978
  598POPC   C4B11506  27.180  31.271   7.577
  599POPC   NC311507  43.665  36.638   9.863
  599POPC   PO411508  43.826  37.148   9.519
  599POPC   GL111509  43.673  36.972   9.138
  599POPC   GL211510  43.471  36.723   9.020
  599POPC   C1A11511  43.767  37.062   8.723
  599POPC   D2A11512  43.958  36.863   8.386
  599POPC   C3A11513  43.881  36.990   7.975
  599POPC   C4A11514  44.198  37.120   7.663
  599POPC   C1B11515  43.609  36.553   8.618
  599POPC   C2B11516  43.651  36.505   8.164
  599POPC   C3B11517  43.527  36.684   7.741
  599POPC   C4B11518  43.558  36.563   7.287
  600POPC   NC311519  22.708  28.005   9.228
  600POPC   PO411520  22.764  28.589   9.543
  600POPC   GL111521  22.840  28.497   9.107
  600POPC   GL211522  22.702  28.314   8.827
  600POPC   C1A11523  23.042  28.674   8.762
  600POPC   D2A11524  22.897  28.536   8.383
  600POPC   C3A11525  23.191  28.588   8.088
  600POPC   C4A11526  23.241  28.443   7.695
  600POPC   C1B11527  23.098  28.164   8.700
  600POPC   C2B11528  23.134  28.044   8.279
  600POPC   C3B11529  22.811  28.184   8.015
  600POPC   C4B11530  22.737  28.323   7.634
  601POPC   NC311531  43.279  22.416   9.466
  601POPC   PO411532  43.122  21.763   9.294
  601POPC   GL111533  43.120  22.124   9.042
  601POPC   GL211534  42.980  22.470   9.065
  601POPC   C1A11535  43.195  21.963   8.639
  601POPC   D2A11536  43.362  21.997   8.247
  601POPC   C3A11537  43.028  22.045   7.997
  601POPC   C4A11538  42.853  22.198   7.640
  601POPC   C1B11539  43.152  22.475   8.638
  601POPC   C2B11540  43.229  22.687   8.211
  601POPC   C3B11541  43.235  22.487   7.791
  601POPC   C4B11542  43.331  22.205   7.424
  602POPC   NC311543  22.607   3.457   9.485
  602POPC   PO411544  22.000   3.305   9.329
  602POPC   GL111545  22.258   3.480   9.067
  602POPC   GL211546  22.459   3.151   9.090
  602POPC   C1A11547  22.131   3.664   8.654
  602POPC   D2A11548  21.884   3.646   8.284
  602POPC   C3A11549  22.092   3.518   7.905
  602POPC   C4A11550  21.887   3.391   7.519
  602POPC   C1B11551  22.328   3.182   8.655
  602POPC   C2B11552  22.444   3.392   8.297
  602POPC   C3B11553  22.567   3.228   7.906
  602POPC   C4B11554  22.258   3.071   7.659
  603POPC   NC311555  24.314  38.689   9.523
  603POPC   PO411556  24.882  38.246   9.481
  603POPC   GL111557  24.503  38.312   9.222
  603POPC   GL211558  24.598  38.650   9.108
  603POPC   C1A11559  24.224  38.460   8.838
  603POPC   D2A11560  24.399  38.599   8.449
  603POPC   C3A11561  24.343  38.355   8.076
  603POPC   C4A11562  24.613  38.482   7.757
  603POPC   C1B11563  24.717  38.353   8.768
  603POPC   C2B11564  24.610  38.108   8.437
  603POPC   C3B11565  24.789  38.071   8.009
  603POPC   C4B11566  25.035  38.213   7.616
  604POPC   NC311567  17.644   9.263   9.368
  604POPC   PO411568  17.158   8.875   9.485
  604POPC   GL111569  17.130   8.988   9.017
  604POPC   GL211570  17.308   9.323   8.967
  604POPC   C1A11571  17.195   9.083   8.531
  604POPC   D2A11572  17.587   9.142   8.261
  604POPC   C3A11573  17.430   9.154   7.851
  604POPC   C4A11574  17.283   8.840   7.569
  604POPC   C1B11575  17.615   8.983   8.778
  604POPC   C2B11576  17.750   8.692   8.420
  604POPC   C3B11577  17.732   8.743   7.935
  604POPC   C4B11578  17.954   8.537   7.619
  605POPC   NC311579  31.393  36.422   9.530
  605POPC   PO411580  31.180  35.826   9.461
  605POPC   GL111581  31.344  36.044   9.130
  605POPC   GL211582  31.161  36.358   9.086
  605POPC   C1A11583  31.579  35.949   8.739
  605POPC   D2A11584  31.836  35.912   8.373
  605POPC   C3A11585  31.582  35.837   7.999
  605POPC   C4A11586  31.313  36.196   7.820
  605POPC   C1B11587  31.569  36.443   8.889
  605POPC   C2B11588  31.487  36.432   8.477
  605POPC   C3B11589  31.684  36.331   8.124
  605POPC   C4B11590  31.705  36.525   7.734
  606POPC   NC311591  31.815   5.420   9.557
  606POPC   PO411592  31.421   4.920   9.573
  606POPC   GL111593  31.560   5.131   9.225
  606POPC   GL211594  31.807   4.961   9.158
  606POPC   C1A11595  31.534   5.288   8.818
  606POPC   D2A11596  31.543   5.098   8.416
  606POPC   C3A11597  31.317   5.230   8.066
  606POPC   C4A11598  31.536   5.132   7.681
  606POPC   C1B11599  31.712   4.764   8.756
  606POPC   C2B11600  32.003   4.742   8.372
  606POPC   C3B11601  31.934   4.971   7.972
  606POPC   C4B11602  31.911   4.819   7.518
  607POPC   NC311603  43.426  37.368   9.374
  607POPC   PO411604  43.754  37.975   9.493
  607POPC   GL111605  43.658  37.779   9.097
  607POPC   GL211606  43.839  37.461   9.076
  607POPC   C1A11607  43.706  37.730   8.632
  607POPC   D2A11608  43.815  37.379   8.314
  607POPC   C3A11609  43.811  37.492   7.897
  607POPC   C4A11610  43.948  37.566   7.490
  607POPC   C1B11611  44.127  37.460   8.711
  607POPC   C2B11612  44.139  37.781   8.330
  607POPC   C3B11613  44.021  37.974   7.930
  607POPC   C4B11614  44.268  37.952   7.525
  608POPC   NC311615   4.067  29.708   9.340
  608POPC   PO411616   3.348  29.640   9.464
  608POPC   GL111617   3.624  29.807   9.110
  608POPC   GL211618   3.962  30.015   8.939
  608POPC   C1A11619   3.589  29.792   8.687
  608POPC   D2A11620   3.697  29.586   8.321
  608POPC   C3A11621   3.329  29.604   8.120
  608POPC   C4A11622   3.372  29.734   7.742
  608POPC   C1B11623   3.783  30.282   8.621
  608POPC   C2B11624   3.581  30.105   8.259
  608POPC   C3B11625   3.705  30.111   7.818
  608POPC   C4B11626   3.798  30.252   7.402
  609POPC   NC311627  30.671  11.427   9.479
  609POPC   PO411628  31.112  10.944   9.510
  609POPC   GL111629  30.921  11.007   9.120
  609POPC   GL211630  30.830  11.366   9.006
  609POPC   C1A11631  30.735  10.937   8.725
  609POPC   D2A11632  30.610  11.305   8.518
  609POPC   C3A11633  30.671  11.322   8.074
  609POPC   C4A11634  30.610  11.049   7.739
  609POPC   C1B11635  31.080  11.652   8.799
  609POPC   C2B11636  31.095  11.509   8.385
  609POPC   C3B11637  31.129  11.581   7.965
  609POPC   C4B11638  30.767  11.698   7.720
  610POPC   NC311639   7.451   0.870   9.587
  610POPC   PO411640   7.132   1.463   9.320
  610POPC   GL111641   7.318   1.124   9.060
  610POPC   GL211642   7.631   0.886   9.133
  610POPC   C1A11643   7.280   1.212   8.610
  610POPC   D2A11644   7.388   1.594   8.376
  610POPC   C3A11645   7.233   1.565   7.972
  610POPC   C4A11646   7.264   1.343   7.591
  610POPC   C1B11647   7.751   1.038   8.767
  610POPC   C2B11648   7.755   1.221   8.387
  610POPC   C3B11649   7.557   1.185   8.028
  610POPC   C4B11650   7.535   0.908   7.690
  611POPC   NC311651   7.124  20.800   9.426
  611POPC   PO411652   7.702  20.507   9.503
  611POPC   GL111653   7.567  20.369   9.110
  611POPC   GL211654   7.217  20.324   9.149
  611POPC   C1A11655   7.518  20.557   8.715
  611POPC   D2A11656   7.385  20.814   8.403
  611POPC   C3A11657   7.561  20.643   8.027
  611POPC   C4A11658   7.770  20.250   7.889
  611POPC   C1B11659   6.997  20.409   8.778
  611POPC   C2B11660   7.113  20.376   8.347
  611POPC   C3B11661   7.086  20.441   7.919
  611POPC   C4B11662   7.219  20.802   7.667
  612POPC   NC311663  39.063  17.629   9.571
  612POPC   PO411664  39.754  17.796   9.446
  612POPC   GL111665  39.427  17.562   9.149
  612POPC   GL211666  39.044  17.411   9.135
  612POPC   C1A11667  39.378  17.414   8.750
  612POPC   D2A11668  39.631  17.382   8.428
  612POPC   C3A11669  39.488  17.192   8.085
  612POPC   C4A11670  39.418  17.408   7.707
  612POPC   C1B11671  38.933  17.669   8.793
  612POPC   C2B11672  38.822  17.884   8.438
  612POPC   C3B11673  38.766  17.723   8.004
  612POPC   C4B11674  38.913  17.437   7.727
  613POPC   NC311675  24.820  37.786   9.488
  613POPC   PO411676  24.169  37.545   9.518
  613POPC   GL111677  24.420  37.738   9.151
  613POPC   GL211678  24.291  37.956   8.912
  613POPC   C1A11679  24.789  37.799   8.827
  613POPC   D2A11680  24.881  37.660   8.364
  613POPC   C3A11681  24.816  37.554   7.918
  613POPC   C4A11682  24.754  37.406   7.457
  613POPC   C1B11683  24.391  37.655   8.585
  613POPC   C2B11684  24.403  37.744   8.154
  613POPC   C3B11685  24.313  37.522   7.816
  613POPC   C4B11686  24.059  37.809   7.669
  614POPC   NC311687  38.940  38.979   9.628
  614POPC   PO411688  38.295  39.345   9.466
  614POPC   GL111689  38.405  39.265   9.063
  614POPC   GL211690  38.723  39.200   9.200
  614POPC   C1A11691  38.386  39.036   8.662
  614POPC   D2A11692  38.604  39.034   8.257
  614POPC   C3A11693  38.383  39.122   7.937
  614POPC   C4A11694  38.041  38.903   7.811
  614POPC   C1B11695  38.857  39.218   8.772
  614POPC   C2B11696  38.812  39.461   8.439
  614POPC   C3B11697  38.901  39.421   8.018
  614POPC   C4B11698  38.783  39.299   7.608
  615POPC   NC311699  32.043   6.157   9.720
  615POPC   PO411700  32.214   5.510   9.772
  615POPC   GL111701  32.113   5.708   9.281
  615POPC   GL211702  31.982   5.447   9.074
  615POPC   C1A11703  32.169   6.015   8.938
  615POPC   D2A11704  32.031   6.108   8.512
  615POPC   C3A11705  32.354   6.248   8.231
  615POPC   C4A11706  32.424   6.176   7.795
  615POPC   C1B11707  32.315   5.547   8.765
  615POPC   C2B11708  32.302   5.697   8.318
  615POPC   C3B11709  32.076   5.829   7.926
  615POPC   C4B11710  31.991   5.574   7.549
  616POPC   NC311711   2.237  15.845   9.579
  616POPC   PO411712   1.930  16.374   9.643
  616POPC   GL111713   2.001  16.128   9.226
  616POPC   GL211714   2.374  16.191   9.154
  616POPC   C1A11715   1.835  15.818   8.885
  616POPC   D2A11716   1.934  15.559   8.538
  616POPC   C3A11717   1.774  15.621   8.113
  616POPC   C4A11718   2.011  15.624   7.707
  616POPC   C1B11719   2.175  16.152   8.742
  616POPC   C2B11720   1.850  16.065   8.429
  616POPC   C3B11721   2.065  16.030   8.050
  616POPC   C4B11722   2.166  16.115   7.645
  617POPC   NC311723  22.629   0.325   9.552
  617POPC   PO411724  22.999   0.885   9.661
  617POPC   GL111725  22.895   0.700   9.250
  617POPC   GL211726  23.158   0.868   9.062
  617POPC   C1A11727  22.713   0.404   8.890
  617POPC   D2A11728  22.822   0.112   8.537
  617POPC   C3A11729  22.964   0.332   8.198
  617POPC   C4A11730  22.967   0.204   7.794
  617POPC   C1B11731  23.096   0.703   8.616
  617POPC   C2B11732  23.111   0.821   8.161
  617POPC   C3B11733  23.103   0.693   7.711
  617POPC   C4B11734  23.178   0.747   7.231
  618POPC   NC311735  32.328  33.426   9.306
  618POPC   PO411736  32.586  34.031   9.482
  618POPC   GL111737  32.369  33.919   9.094
  618POPC   GL211738  32.002  33.985   9.045
  618POPC   C1A11739  32.244  33.703   8.709
  618POPC   D2A11740  32.098  33.572   8.329
  618POPC   C3A11741  32.357  33.718   8.038
  618POPC   C4A11742  32.371  33.547   7.668
  618POPC   C1B11743  31.986  34.194   8.635
  618POPC   C2B11744  31.984  34.061   8.179
  618POPC   C3B11745  31.929  33.899   7.783
  618POPC   C4B11746  31.933  34.028   7.350
  619POPC   NC311747  15.347  35.143   9.488
  619POPC   PO411748  14.936  35.622   9.540
  619POPC   GL111749  14.858  35.243   9.303
  619POPC   GL211750  15.076  35.396   9.039
  619POPC   C1A11751  14.696  35.077   8.905
  619POPC   D2A11752  14.837  35.235   8.507
  619POPC   C3A11753  14.781  35.023   8.112
  619POPC   C4A11754  14.985  35.246   7.774
  619POPC   C1B11755  15.289  35.427   8.621
  619POPC   C2B11756  15.310  35.356   8.178
  619POPC   C3B11757  15.403  34.996   7.877
  619POPC   C4B11758  15.392  35.157   7.429
  620POPC   NC311759   5.263  34.719   9.451
  620POPC   PO411760   4.992  34.191   9.594
  620POPC   GL111761   5.142  34.230   9.159
  620POPC   GL211762   5.487  34.329   9.137
  620POPC   C1A11763   5.029  34.291   8.716
  620POPC   D2A11764   5.124  34.569   8.378
  620POPC   C3A11765   5.042  34.427   7.964
  620POPC   C4A11766   5.156  34.710   7.622
  620POPC   C1B11767   5.389  34.654   8.817
  620POPC   C2B11768   5.525  34.930   8.464
  620POPC   C3B11769   5.458  34.779   8.036
  620POPC   C4B11770   5.520  34.378   7.799
  621POPC   NC311771  36.376  24.252   9.342
  621POPC   PO411772  35.896  24.680   9.555
  621POPC   GL111773  36.020  24.598   9.159
  621POPC   GL211774  35.906  24.263   9.104
  621POPC   C1A11775  36.173  24.636   8.756
  621POPC   D2A11776  36.169  24.399   8.389
  621POPC   C3A11777  36.320  24.596   8.024
  621POPC   C4A11778  36.051  24.597   7.657
  621POPC   C1B11779  35.747  24.334   8.704
  621POPC   C2B11780  35.636  24.312   8.282
  621POPC   C3B11781  35.941  24.204   7.970
  621POPC   C4B11782  36.186  24.010   7.660
  622POPC   NC311783  24.402   8.751   9.431
  622POPC   PO411784  24.557   8.039   9.395
  622POPC   GL111785  24.493   8.329   9.096
  622POPC   GL211786  24.850   8.277   8.987
  622POPC   C1A11787  24.454   8.465   8.651
  622POPC   D2A11788  24.379   8.607   8.237
  622POPC   C3A11789  24.394   8.297   7.954
  622POPC   C4A11790  24.106   8.037   7.782
  622POPC   C1B11791  24.590   7.973   8.744
  622POPC   C2B11792  24.470   7.933   8.346
  622POPC   C3B11793  24.726   7.892   8.023
  622POPC   C4B11794  24.794   8.009   7.632
  623POPC   NC311795  41.619  34.816   9.331
  623POPC   PO411796  41.304  34.288   9.577
  623POPC   GL111797  41.256  34.461   9.112
  623POPC   GL211798  41.449  34.767   8.877
  623POPC   C1A11799  41.333  34.325   8.677
  623POPC   D2A11800  41.567  34.515   8.355
  623POPC   C3A11801  41.362  34.688   7.973
  623POPC   C4A11802  41.276  34.325   7.716
  623POPC   C1B11803  41.891  34.844   8.694
  623POPC   C2B11804  42.009  34.734   8.296
  623POPC   C3B11805  41.926  34.926   7.911
  623POPC   C4B11806  41.667  34.810   7.562
  624POPC   NC311807  13.451  34.303   9.395
  624POPC   PO411808  13.443  34.942   9.476
  624POPC   GL111809  13.623  34.737   9.121
  624POPC   GL211810  13.906  34.517   9.227
  624POPC   C1A11811  13.613  34.747   8.673
  624POPC   D2A11812  13.354  34.628   8.306
  624POPC   C3A11813  13.443  34.653   7.889
  624POPC   C4A11814  13.774  34.918   7.784
  624POPC   C1B11815  13.965  34.340   8.813
  624POPC   C2B11816  13.777  34.331   8.414
  624POPC   C3B11817  13.889  34.474   8.029
  624POPC   C4B11818  13.758  34.308   7.619
  625POPC   NC311819  12.204  37.456   9.561
  625POPC   PO411820  11.610  37.125   9.425
  625POPC   GL111821  11.832  37.020   9.064
  625POPC   GL211822  12.187  37.157   9.123
  625POPC   C1A11823  12.072  36.763   8.764
  625POPC   D2A11824  12.307  36.609   8.379
  625POPC   C3A11825  12.030  36.606   8.010
  625POPC   C4A11826  11.740  36.938   7.796
  625POPC   C1B11827  12.074  37.296   8.701
  625POPC   C2B11828  11.979  37.048   8.322
  625POPC   C3B11829  12.229  37.060   7.950
  625POPC   C4B11830  12.278  37.255   7.575
  626POPC   NC311831  10.866  40.054   9.687
  626POPC   PO411832  10.278  39.829   9.605
  626POPC   GL111833  10.603  39.865   9.263
  626POPC   GL211834  10.623  40.233   9.273
  626POPC   C1A11835  10.585  39.686   8.831
  626POPC   D2A11836  10.495  39.885   8.438
  626POPC   C3A11837  10.310  39.733   8.085
  626POPC   C4A11838   9.973  39.759   7.842
  626POPC   C1B11839  10.688  40.181   8.844
  626POPC   C2B11840  10.701  40.361   8.444
  626POPC   C3B11841  10.671  40.130   8.020
  626POPC   C4B11842  10.762  40.192   7.580
  627POPC   NC311843  40.549   3.084   9.321
  627POPC   PO411844  40.734   2.466   9.501
  627POPC   GL111845  40.468   2.570   9.123
  627POPC   GL211846  40.791   2.697   9.050
  627POPC   C1A11847  40.515   2.641   8.633
  627POPC   D2A11848  40.883   2.462   8.399
  627POPC   C3A11849  41.071   2.687   8.086
  627POPC   C4A11850  40.884   2.745   7.722
  627POPC   C1B11851  40.981   2.882   8.716
  627POPC   C2B11852  40.800   3.038   8.377
  627POPC   C3B11853  40.803   3.177   7.965
  627POPC   C4B11854  40.576   3.154   7.593
  628POPC   NC311855  40.124  33.023   9.546
  628POPC   PO411856  39.848  32.526   9.228
  628POPC   GL111857  40.092  32.874   9.058
  628POPC   GL211858  39.877  33.160   9.092
  628POPC   C1A11859  40.228  33.132   8.705
  628POPC   D2A11860  40.290  33.378   8.334
  628POPC   C3A11861  40.101  33.193   7.994
  628POPC   C4A11862  40.106  32.986   7.608
  628POPC   C1B11863  39.726  32.967   8.686
  628POPC   C2B11864  39.851  32.815   8.275
  628POPC   C3B11865  39.669  32.874   7.854
  628POPC   C4B11866  39.609  32.949   7.386
  629POPC   NC311867  24.675  31.708   9.854
  629POPC   PO411868  24.732  32.280   9.532
  629POPC   GL111869  24.804  32.236   9.030
  629POPC   GL211870  24.854  31.864   8.926
  629POPC   C1A11871  24.641  32.347   8.604
  629POPC   D2A11872  24.631  32.510   8.184
  629POPC   C3A11873  24.263  32.398   7.951
  629POPC   C4A11874  24.139  31.969   7.848
  629POPC   C1B11875  24.750  31.852   8.508
  629POPC   C2B11876  24.521  32.007   8.193
  629POPC   C3B11877  24.632  32.109   7.781
  629POPC   C4B11878  24.840  32.231   7.418
  630POPC   NC311879  31.503   9.340   9.677
  630POPC   PO411880  31.085   8.810   9.552
  630POPC   GL111881  31.328   8.859   9.216
  630POPC   GL211882  31.088   9.070   9.086
  630POPC   C1A11883  31.396   8.829   8.755
  630POPC   D2A11884  31.479   9.161   8.461
  630POPC   C3A11885  31.764   9.047   8.137
  630POPC   C4A11886  31.578   8.818   7.817
  630POPC   C1B11887  30.963   9.259   8.699
  630POPC   C2B11888  31.005   9.340   8.264
  630POPC   C3B11889  31.318   9.282   7.965
  630POPC   C4B11890  31.331   9.171   7.544
  631POPC   NC311891  21.243  42.854   9.663
  631POPC   PO411892  20.776  43.369   9.586
  631POPC   GL111893  20.974  43.054   9.254
  631POPC   GL211894  21.361  43.040   9.197
  631POPC   C1A11895  21.089  43.133   8.796
  631POPC   D2A11896  21.264  42.940   8.422
  631POPC   C3A11897  21.067  42.924   8.027
  631POPC   C4A11898  21.325  42.989   7.693
  631POPC   C1B11899  21.586  43.250   8.838
  631POPC   C2B11900  21.624  43.612   8.545
  631POPC   C3B11901  21.757  43.626   8.093
  631POPC   C4B11902  21.673  43.378   7.732
  632POPC   NC311903  31.319  24.205   9.442
  632POPC   PO411904  31.162  24.844   9.644
  632POPC   GL111905  31.389  24.767   9.206
  632POPC   GL211906  31.685  24.565   9.174
  632POPC   C1A11907  31.318  24.652   8.758
  632POPC   D2A11908  31.121  24.567   8.349
  632POPC   C3A11909  31.348  24.680   7.975
  632POPC   C4A11910  31.291  24.834   7.554
  632POPC   C1B11911  31.615  24.244   8.834
  632POPC   C2B11912  31.565  24.301   8.396
  632POPC   C3B11913  31.366  24.169   8.018
  632POPC   C4B11914  31.438  24.329   7.596
  633POPC   NC311915  42.562   1.363   9.470
  633POPC   PO411916  42.233   0.691   9.499
  633POPC   GL111917  42.408   0.953   9.192
  633POPC   GL211918  42.127   1.123   9.155
  633POPC   C1A11919  42.385   0.990   8.714
  633POPC   D2A11920  42.654   1.116   8.362
  633POPC   C3A11921  42.543   1.176   7.947
  633POPC   C4A11922  42.493   1.527   7.651
  633POPC   C1B11923  42.156   1.446   8.819
  633POPC   C2B11924  42.191   1.475   8.348
  633POPC   C3B11925  42.082   1.364   7.925
  633POPC   C4B11926  42.078   1.031   7.691
  634POPC   NC311927  22.041  10.220  10.011
  634POPC   PO411928  22.340   9.729   9.582
  634POPC   GL111929  22.273   9.755   9.174
  634POPC   GL211930  21.943   9.802   9.142
  634POPC   C1A11931  22.464   9.628   8.808
  634POPC   D2A11932  22.640   9.882   8.483
  634POPC   C3A11933  22.362   9.881   8.123
  634POPC   C4A11934  22.138   9.672   7.799
  634POPC   C1B11935  21.933   9.541   8.759
  634POPC   C2B11936  21.908   9.554   8.304
  634POPC   C3B11937  21.683   9.467   7.939
  634POPC   C4B11938  21.723   9.589   7.483
  635POPC   NC311939  17.145  21.342   9.591
  635POPC   PO411940  17.783  21.098   9.547
  635POPC   GL111941  17.550  21.389   9.250
  635POPC   GL211942  17.367  21.145   9.189
  635POPC   C1A11943  17.434  21.518   8.797
  635POPC   D2A11944  17.578  21.623   8.349
  635POPC   C3A11945  17.362  21.605   7.950
  635POPC   C4A11946  17.501  21.691   7.521
  635POPC   C1B11947  17.601  21.053   8.871
  635POPC   C2B11948  17.482  21.123   8.449
  635POPC   C3B11949  17.485  21.090   8.003
  635POPC   C4B11950  17.363  21.212   7.576
  636POPC   NC311951  16.347  40.641   9.551
  636POPC   PO411952  17.049  40.768   9.490
  636POPC   GL111953  16.742  40.594   9.228
  636POPC   GL211954  16.570  40.915   9.147
  636POPC   C1A11955  16.595  40.493   8.820
  636POPC   D2A11956  16.598  40.777   8.467
  636POPC   C3A11957  16.805  40.642   8.086
  636POPC   C4A11958  16.606  40.561   7.693
  636POPC   C1B11959  16.951  40.893   8.841
  636POPC   C2B11960  17.056  40.992   8.415
  636POPC   C3B11961  16.883  41.172   8.033
  636POPC   C4B11962  16.923  40.970   7.670
  637POPC   NC311963  22.338  21.900   9.390
  637POPC   PO411964  21.996  22.460   9.441
  637POPC   GL111965  22.117  22.250   9.069
  637POPC   GL211966  22.006  21.911   8.953
  637POPC   C1A11967  22.172  22.276   8.633
  637POPC   D2A11968  22.044  22.148   8.222
  637POPC   C3A11969  22.142  22.442   7.897
  637POPC   C4A11970  22.048  22.434   7.428
  637POPC   C1B11971  22.419  21.841   8.750
  637POPC   C2B11972  22.611  21.985   8.382
  637POPC   C3B11973  22.436  21.935   7.970
  637POPC   C4B11974  22.415  22.124   7.580
  638POPC   NC311975   3.038   9.520   9.408
  638POPC   PO411976   2.847   8.878   9.462
  638POPC   GL111977   2.585   8.960   9.111
  638POPC   GL211978   2.425   9.268   9.014
  638POPC   C1A11979   2.604   8.855   8.671
  638POPC   D2A11980   2.759   9.098   8.335
  638POPC   C3A11981   2.767   8.946   7.925
  638POPC   C4A11982   2.636   9.191   7.618
  638POPC   C1B11983   2.828   9.308   8.801
  638POPC   C2B11984   3.078   9.496   8.512
  638POPC   C3B11985   3.030   9.445   8.075
  638POPC   C4B11986   3.127   9.363   7.651
  639POPC   NC311987  25.907  42.607   9.324
  639POPC   PO411988  26.312  42.079   9.407
  639POPC   GL111989  26.113  42.219   9.076
  639POPC   GL211990  25.775  42.130   9.151
  639POPC   C1A11991  26.095  42.430   8.697
  639POPC   D2A11992  26.339  42.529   8.332
  639POPC   C3A11993  26.075  42.352   8.009
  639POPC   C4A11994  25.761  42.570   7.773
  639POPC   C1B11995  25.603  42.257   8.768
  639POPC   C2B11996  25.732  42.190   8.362
  639POPC   C3B11997  25.593  42.106   7.960
  639POPC   C4B11998  25.728  42.090   7.499
  640POPC   NC311999  28.522  11.960   9.963
  640POPC   PO412000  28.153  12.467   9.658
  640POPC   GL112001  28.190  12.173   9.282
  640POPC   GL212002  28.472  11.923   9.289
  640POPC   C1A12003  28.182  12.108   8.795
  640POPC   D2A12004  28.221  12.019   8.310
  640POPC   C3A12005  28.234  12.338   7.923
  640POPC   C4A12006  28.033  12.307   7.486
  640POPC   C1B12007  28.642  11.826   8.846
  640POPC   C2B12008  28.764  11.750   8.391
  640POPC   C3B12009  28.636  11.957   8.000
  640POPC   C4B12010  28.746  12.358   7.828
  641POPC   NC312011  10.835  20.660   9.554
  641POPC   PO412012  10.262  20.429   9.422
  641POPC   GL112013  10.382  20.822   9.193
  641POPC   GL212014  10.717  20.752   9.080
  641POPC   C1A12015  10.455  21.060   8.784
  641POPC   D2A12016  10.529  20.914   8.372
  641POPC   C3A12017  10.701  21.105   8.003
  641POPC   C4A12018  10.666  20.888   7.629
  641POPC   C1B12019  10.516  20.528   8.752
  641POPC   C2B12020  10.553  20.400   8.309
  641POPC   C3B12021  10.602  20.402   7.853
  641POPC   C4B12022  10.750  20.297   7.440
  642POPC   NC312023   1.067  40.884   9.520
  642POPC   PO412024   1.435  40.352   9.582
  642POPC   GL112025   1.478  40.639   9.178
  642POPC   GL212026   1.355  40.964   9.096
  642POPC   C1A12027   1.311  40.547   8.757
  642POPC   D2A12028   1.086  40.613   8.368
  642POPC   C3A12029   1.222  40.693   7.951
  642POPC   C4A12030   1.378  40.731   7.503
  642POPC   C1B12031   0.983  40.942   8.813
  642POPC   C2B12032   0.891  41.109   8.424
  642POPC   C3B12033   0.790  41.023   8.033
  642POPC   C4B12034   0.994  41.033   7.630
  643POPC   NC312035  32.076   0.581  10.163
  643POPC   PO412036  32.483   0.128   9.646
  643POPC   GL112037  32.183   0.195   9.295
  643POPC   GL212038  32.038  44.910   9.124
  643POPC   C1A12039  32.060   0.467   8.913
  643POPC   D2A12040  32.209   0.462   8.471
  643POPC   C3A12041  31.988   0.518   8.086
  643POPC   C4A12042  32.214   0.659   7.737
  643POPC   C1B12043  32.345   0.058   8.788
  643POPC   C2B12044  32.595   0.055   8.407
  643POPC   C3B12045  32.445   0.260   8.025
  643POPC   C4B12046  32.126   0.146   7.733
  644POPC   NC312047  41.928  12.658   9.473
  644POPC   PO412048  42.593  12.734   9.524
  644POPC   GL112049  42.582  12.672   9.116
  644POPC   GL212050  42.298  12.926   9.116
  644POPC   C1A12051  42.743  12.754   8.727
  644POPC   D2A12052  42.681  13.136   8.450
  644POPC   C3A12053  42.484  13.075   8.041
  644POPC   C4A12054  42.550  12.707   7.782
  644POPC   C1B12055  42.273  12.855   8.673
  644POPC   C2B12056  42.297  12.659   8.265
  644POPC   C3B12057  42.047  12.743   7.850
  644POPC   C4B12058  41.875  12.906   7.424
  645POPC   NC312059  29.584  21.512   9.377
  645POPC   PO412060  30.076  21.222   9.760
  645POPC   GL112061  30.003  21.216   9.243
  645POPC   GL212062  29.975  21.486   9.003
  645POPC   C1A12063  29.770  21.000   8.878
  645POPC   D2A12064  29.495  20.919   8.519
  645POPC   C3A12065  29.611  21.201   8.176
  645POPC   C4A12066  29.847  21.122   7.803
  645POPC   C1B12067  29.986  21.332   8.557
  645POPC   C2B12068  30.191  21.338   8.153
  645POPC   C3B12069  30.129  21.549   7.763
  645POPC   C4B12070  30.187  21.775   7.364
  646POPC   NC312071  11.597  41.486   9.576
  646POPC   PO412072  10.919  41.739   9.615
  646POPC   GL112073  11.025  41.528   9.176
  646POPC   GL212074  11.361  41.533   9.126
  646POPC   C1A12075  11.039  41.669   8.701
  646POPC   D2A12076  10.855  41.619   8.280
  646POPC   C3A12077  11.135  41.646   7.923
  646POPC   C4A12078  11.565  41.769   7.852
  646POPC   C1B12079  11.272  41.235   8.803
  646POPC   C2B12080  11.332  41.401   8.364
  646POPC   C3B12081  11.502  41.256   8.013
  646POPC   C4B12082  11.738  41.306   7.687
  647POPC   NC312083  19.504   9.820   9.355
  647POPC   PO412084  20.152   9.988   9.513
  647POPC   GL112085  19.991   9.879   9.140
  647POPC   GL212086  19.786  10.155   9.028
  647POPC   C1A12087  19.886   9.744   8.713
  647POPC   D2A12088  20.001   9.559   8.303
  647POPC   C3A12089  19.699   9.587   7.953
  647POPC   C4A12090  19.594   9.881   7.604
  647POPC   C1B12091  20.007  10.305   8.688
  647POPC   C2B12092  20.097  10.074   8.343
  647POPC   C3B12093  19.991  10.006   7.928
  647POPC   C4B12094  20.024  10.277   7.608
  648POPC   NC312095  22.315  17.175   9.532
  648POPC   PO412096  22.010  17.711   9.623
  648POPC   GL112097  22.270  17.833   9.245
  648POPC   GL212098  22.244  17.491   9.124
  648POPC   C1A12099  22.160  17.861   8.784
  648POPC   D2A12100  22.122  17.527   8.461
  648POPC   C3A12101  22.388  17.524   8.084
  648POPC   C4A12102  22.252  17.812   7.750
  648POPC   C1B12103  22.055  17.156   8.859
  648POPC   C2B12104  22.067  17.016   8.441
  648POPC   C3B12105  21.989  17.189   8.051
  648POPC   C4B12106  21.888  16.980   7.685
  649POPC   NC312107  19.952  19.390   9.710
  649POPC   PO412108  20.048  18.719   9.715
  649POPC   GL112109  20.008  18.992   9.307
  649POPC   GL212110  19.868  19.336   9.194
  649POPC   C1A12111  20.094  19.033   8.842
  649POPC   D2A12112  20.148  18.907   8.401
  649POPC   C3A12113  20.102  19.125   7.984
  649POPC   C4A12114  19.803  19.133   7.649
  649POPC   C1B12115  19.699  19.346   8.754
  649POPC   C2B12116  19.843  19.414   8.337
  649POPC   C3B12117  19.641  19.519   7.945
  649POPC   C4B12118  19.703  19.650   7.524
  650POPC   NC312119  11.362  24.986   9.530
  650POPC   PO412120  10.910  24.439   9.489
  650POPC   GL112121  11.258  24.540   9.201
  650POPC   GL212122  11.592  24.316   9.152
  650POPC   C1A12123  11.116  24.700   8.772
  650POPC   D2A12124  11.220  24.880   8.365
  650POPC   C3A12125  11.047  24.706   7.988
  650POPC   C4A12126  11.356  24.777   7.747
  650POPC   C1B12127  11.273  24.215   8.808
  650POPC   C2B12128  11.221  24.362   8.381
  650POPC   C3B12129  11.410  24.331   7.985
  650POPC   C4B12130  11.209  24.302   7.593
  651POPC   NC312131  40.106  12.666   9.327
  651POPC   PO412132  40.232  13.316   9.324
  651POPC   GL112133  40.159  13.065   9.007
  651POPC   GL212134  39.836  12.980   9.023
  651POPC   C1A12135  40.113  12.817   8.625
  651POPC   D2A12136  39.855  12.919   8.289
  651POPC   C3A12137  40.127  12.761   7.979
  651POPC   C4A12138  40.258  12.714   7.563
  651POPC   C1B12139  39.707  12.579   8.792
  651POPC   C2B12140  39.738  12.414   8.355
  651POPC   C3B12141  39.639  12.598   7.950
  651POPC   C4B12142  39.754  13.017   7.774
  652POPC   NC312143  14.511   4.131   9.354
  652POPC   PO412144  14.094   3.477   9.463
  652POPC   GL112145  14.320   3.677   9.157
  652POPC   GL212146  14.137   3.955   9.071
  652POPC   C1A12147  14.445   3.522   8.772
  652POPC   D2A12148  14.464   3.401   8.337
  652POPC   C3A12149  14.752   3.673   8.111
  652POPC   C4A12150  14.792   3.727   7.668
  652POPC   C1B12151  14.166   3.920   8.628
  652POPC   C2B12152  14.302   3.909   8.221
  652POPC   C3B12153  14.235   3.621   7.917
  652POPC   C4B12154  14.286   3.577   7.504
  653POPC   NC312155  18.337  44.067   9.405
  653POPC   PO412156  17.994  43.515   9.443
  653POPC   GL112157  18.115  43.733   9.072
  653POPC   GL212158  18.028  44.096   9.016
  653POPC   C1A12159  18.280  43.790   8.662
  653POPC   D2A12160  18.578  43.821   8.336
  653POPC   C3A12161  18.403  43.828   7.951
  653POPC   C4A12162  18.134  43.773   7.616
  653POPC   C1B12163  17.993  44.259   8.626
  653POPC   C2B12164  18.262  44.228   8.283
  653POPC   C3B12165  18.063  44.195   7.872
  653POPC   C4B12166  18.189  44.250   7.426
  654POPC   NC312167  41.295  12.812   9.407
  654POPC   PO412168  41.892  13.112   9.449
  654POPC   GL112169  41.698  12.870   9.084
  654POPC   GL212170  41.918  12.635   8.937
  654POPC   C1A12171  41.422  12.674   8.788
  654POPC   D2A12172  41.343  12.946   8.444
  654POPC   C3A12173  41.576  12.876   8.079
  654POPC   C4A12174  41.486  12.726   7.701
  654POPC   C1B12175  41.831  12.705   8.500
  654POPC   C2B12176  42.003  13.062   8.289
  654POPC   C3B12177  41.912  13.242   7.922
  654POPC   C4B12178  41.573  13.250   7.674
  655POPC   NC312179  20.104  28.452   9.485
  655POPC   PO412180  19.596  28.047   9.519
  655POPC   GL112181  19.708  28.375   9.158
  655POPC   GL212182  20.028  28.541   8.986
  655POPC   C1A12183  19.603  28.425   8.723
  655POPC   D2A12184  19.460  28.140   8.392
  655POPC   C3A12185  19.706  28.223   8.036
  655POPC   C4A12186  19.587  28.415   7.705
  655POPC   C1B12187  20.279  28.600   8.579
  655POPC   C2B12188  20.097  28.643   8.136
  655POPC   C3B12189  20.086  28.420   7.701
  655POPC   C4B12190  20.318  28.513   7.288
  656POPC   NC312191  12.479  18.696   9.450
  656POPC   PO412192  12.394  18.082   9.476
  656POPC   GL112193  12.685  18.101   9.110
  656POPC   GL212194  12.772  18.480   9.069
  656POPC   C1A12195  12.758  18.126   8.638
  656POPC   D2A12196  13.060  18.256   8.311
  656POPC   C3A12197  12.999  18.285   7.851
  656POPC   C4A12198  13.196  18.145   7.458
  656POPC   C1B12199  12.490  18.565   8.707
  656POPC   C2B12200  12.524  18.522   8.247
  656POPC   C3B12201  12.700  18.704   7.862
  656POPC   C4B12202  12.932  18.647   7.460
  657POPC   NC312203  13.112  20.256   9.534
  657POPC   PO412204  12.686  19.784   9.742
  657POPC   GL112205  12.674  19.878   9.273
  657POPC   GL212206  12.856  20.165   9.080
  657POPC   C1A12207  12.797  19.691   8.885
  657POPC   D2A12208  12.816  19.903   8.497
  657POPC   C3A12209  12.555  19.693   8.209
  657POPC   C4A12210  12.513  19.600   7.793
  657POPC   C1B12211  13.239  20.243   8.841
  657POPC   C2B12212  13.264  20.234   8.380
  657POPC   C3B12213  13.064  19.996   8.041
  657POPC   C4B12214  13.008  19.584   7.879
  658POPC   NC312215  28.556  18.363   9.513
  658POPC   PO412216  27.980  18.128   9.603
  658POPC   GL112217  28.133  18.213   9.184
  658POPC   GL212218  28.449  18.052   9.099
  658POPC   C1A12219  28.119  18.520   8.801
  658POPC   D2A12220  28.066  18.655   8.352
  658POPC   C3A12221  28.372  18.654   7.983
  658POPC   C4A12222  28.438  18.525   7.535
  658POPC   C1B12223  28.242  18.034   8.682
  658POPC   C2B12224  28.344  18.158   8.264
  658POPC   C3B12225  28.522  18.120   7.848
  658POPC   C4B12226  28.885  17.942   7.655
  659POPC   NC312227  29.848  29.278   9.934
  659POPC   PO412228  30.236  28.968   9.458
  659POPC   GL112229  30.213  28.945   9.058
  659POPC   GL212230  30.011  29.198   9.026
  659POPC   C1A12231  30.294  28.827   8.641
  659POPC   D2A12232  30.058  28.991   8.294
  659POPC   C3A12233  30.267  29.033   7.927
  659POPC   C4A12234  30.091  29.310   7.664
  659POPC   C1B12235  29.783  28.923   8.749
  659POPC   C2B12236  29.610  28.779   8.374
  659POPC   C3B12237  29.459  28.941   8.031
  659POPC   C4B12238  29.639  29.049   7.684
  660POPC   NC312239  21.268  16.075   9.702
  660POPC   PO412240  20.711  15.735   9.536
  660POPC   GL112241  21.118  15.889   9.251
  660POPC   GL212242  21.298  16.253   9.232
  660POPC   C1A12243  21.436  15.856   8.887
  660POPC   D2A12244  21.623  15.720   8.471
  660POPC   C3A12245  21.386  15.855   8.117
  660POPC   C4A12246  21.329  15.665   7.708
  660POPC   C1B12247  21.562  16.360   8.896
  660POPC   C2B12248  21.555  16.227   8.482
  660POPC   C3B12249  21.689  16.304   8.090
  660POPC   C4B12250  21.570  16.125   7.694
  661POPC   NC312251  44.449  12.480   9.383
  661POPC   PO412252  44.835  12.997   9.569
  661POPC   GL112253  44.766  12.912   9.148
  661POPC   GL212254  44.425  12.898   9.110
  661POPC   C1A12255  44.978  12.810   8.756
  661POPC   D2A12256   0.192  12.906   8.361
  661POPC   C3A12257  44.960  12.955   7.943
  661POPC   C4A12258  44.802  12.587   7.734
  661POPC   C1B12259  44.502  12.986   8.685
  661POPC   C2B12260  44.663  12.808   8.319
  661POPC   C3B12261  44.446  12.894   7.929
  661POPC   C4B12262  44.311  13.048   7.548
  662POPC   NC312263  36.338  40.935   9.556
  662POPC   PO412264  36.984  40.726   9.479
  662POPC   GL112265  36.908  40.618   9.085
  662POPC   GL212266  37.167  40.425   9.020
  662POPC   C1A12267  36.796  40.811   8.703
  662POPC   D2A12268  36.646  41.047   8.352
  662POPC   C3A12269  36.786  40.985   7.966
  662POPC   C4A12270  37.081  41.121   7.729
  662POPC   C1B12271  37.204  40.486   8.615
  662POPC   C2B12272  36.939  40.537   8.267
  662POPC   C3B12273  37.117  40.612   7.889
  662POPC   C4B12274  37.285  40.335   7.600
  663POPC   NC312275  15.929   5.654   9.510
  663POPC   PO412276  16.451   6.169   9.520
  663POPC   GL112277  16.068   6.056   9.176
  663POPC   GL212278  15.830   5.776   9.044
  663POPC   C1A12279  15.902   6.171   8.717
  663POPC   D2A12280  15.702   6.102   8.292
  663POPC   C3A12281  15.961   5.909   8.002
  663POPC   C4A12282  15.883   6.006   7.620
  663POPC   C1B12283  15.707   5.444   8.782
  663POPC   C2B12284  15.825   5.558   8.385
  663POPC   C3B12285  15.643   5.510   7.995
  663POPC   C4B12286  15.872   5.510   7.619
  664POPC   NC312287  15.226  21.192   9.654
  664POPC   PO412288  14.636  21.505   9.673
  664POPC   GL112289  14.924  21.421   9.309
  664POPC   GL212290  14.842  21.179   9.068
  664POPC   C1A12291  15.150  21.575   8.918
  664POPC   D2A12292  15.272  21.545   8.445
  664POPC   C3A12293  15.268  21.211   8.101
  664POPC   C4A12294  15.360  21.213   7.643
  664POPC   C1B12295  14.858  21.298   8.624
  664POPC   C2B12296  14.795  21.449   8.216
  664POPC   C3B12297  14.841  21.257   7.817
  664POPC   C4B12298  14.757  21.078   7.395
  665POPC   NC312299   6.579  21.032   9.314
  665POPC   PO412300   6.820  20.350   9.465
  665POPC   GL112301   6.558  20.513   9.153
  665POPC   GL212302   6.216  20.406   9.117
  665POPC   C1A12303   6.580  20.693   8.752
  665POPC   D2A12304   6.881  20.863   8.506
  665POPC   C3A12305   6.766  20.781   8.114
  665POPC   C4A12306   6.727  20.901   7.730
  665POPC   C1B12307   6.088  20.678   8.733
  665POPC   C2B12308   6.272  20.795   8.332
  665POPC   C3B12309   6.277  20.764   7.886
  665POPC   C4B12310   6.383  20.622   7.458
  666POPC   NC312311  22.196  40.963   9.546
  666POPC   PO412312  21.625  40.581   9.589
  666POPC   GL112313  21.887  40.590   9.234
  666POPC   GL212314  21.859  40.922   9.157
  666POPC   C1A12315  22.172  40.585   8.867
  666POPC   D2A12316  22.279  40.374   8.451
  666POPC   C3A12317  22.262  40.654   8.070
  666POPC   C4A12318  22.157  40.619   7.629
  666POPC   C1B12319  21.885  41.126   8.778
  666POPC   C2B12320  22.036  41.281   8.384
  666POPC   C3B12321  22.388  41.242   8.113
  666POPC   C4B12322  22.277  41.101   7.718
  667POPC   NC312323  11.491  42.605   9.389
  667POPC   PO412324  11.310  43.290   9.571
  667POPC   GL112325  11.395  43.403   9.164
  667POPC   GL212326  11.397  43.034   9.117
  667POPC   C1A12327  11.250  43.370   8.740
  667POPC   D2A12328  10.988  43.040   8.516
  667POPC   C3A12329  11.061  43.034   8.072
  667POPC   C4A12330  11.257  43.375   7.870
  667POPC   C1B12331  11.582  42.980   8.738
  667POPC   C2B12332  11.490  43.101   8.342
  667POPC   C3B12333  11.648  43.038   7.967
  667POPC   C4B12334  11.544  43.108   7.544
  668POPC   NC312335  43.036  29.633   9.600
  668POPC   PO412336  43.010  30.284   9.444
  668POPC   GL112337  43.063  29.946   9.175
  668POPC   GL212338  43.352  29.729   9.192
  668POPC   C1A12339  43.073  29.951   8.737
  668POPC   D2A12340  42.872  29.974   8.352
  668POPC   C3A12341  43.120  30.198   8.109
  668POPC   C4A12342  43.133  30.286   7.687
  668POPC   C1B12343  43.512  29.696   8.770
  668POPC   C2B12344  43.446  29.833   8.337
  668POPC   C3B12345  43.490  29.932   7.893
  668POPC   C4B12346  43.440  29.715   7.549
  669POPC   NC312347   5.926  41.379   9.521
  669POPC   PO412348   5.869  42.030   9.625
  669POPC   GL112349   5.766  41.768   9.216
  669POPC   GL212350   6.131  41.663   9.157
  669POPC   C1A12351   5.647  41.582   8.765
  669POPC   D2A12352   5.799  41.321   8.395
  669POPC   C3A12353   5.770  41.521   7.996
  669POPC   C4A12354   5.588  41.638   7.577
  669POPC   C1B12355   6.134  41.461   8.762
  669POPC   C2B12356   6.257  41.521   8.340
  669POPC   C3B12357   6.319  41.403   7.960
  669POPC   C4B12358   6.094  41.532   7.623
  670POPC   NC312359   1.927  14.903   9.450
  670POPC   PO412360   1.851  15.613   9.480
  670POPC   GL112361   1.883  15.350   9.128
  670POPC   GL212362   1.582  15.203   9.218
  670POPC   C1A12363   2.184  15.193   8.838
  670POPC   D2A12364   2.449  14.962   8.558
  670POPC   C3A12365   2.259  15.047   8.170
  670POPC   C4A12366   2.123  15.134   7.746
  670POPC   C1B12367   1.632  14.954   8.855
  670POPC   C2B12368   1.825  15.077   8.491
  670POPC   C3B12369   1.747  15.062   8.079
  670POPC   C4B12370   1.631  14.967   7.671
  671POPC   NC312371  37.708  33.301   9.695
  671POPC   PO412372  37.888  32.823   9.489
  671POPC   GL112373  37.738  33.147   9.166
  671POPC   GL212374  37.413  33.276   9.233
  671POPC   C1A12375  37.777  33.409   8.763
  671POPC   D2A12376  37.906  33.448   8.307
  671POPC   C3A12377  37.730  33.150   8.008
  671POPC   C4A12378  37.572  32.834   7.700
  671POPC   C1B12379  37.324  33.175   8.790
  671POPC   C2B12380  37.347  33.342   8.348
  671POPC   C3B12381  37.267  33.290   7.856
  671POPC   C4B12382  37.083  32.978   7.559
  672POPC   NC312383  13.617  30.844   9.387
  672POPC   PO412384  13.343  31.348   9.733
  672POPC   GL112385  13.208  31.093   9.213
  672POPC   GL212386  13.297  30.722   9.034
  672POPC   C1A12387  13.409  31.045   8.711
  672POPC   D2A12388  13.366  30.936   8.289
  672POPC   C3A12389  13.713  30.883   8.044
  672POPC   C4A12390  13.819  30.769   7.654
  672POPC   C1B12391  13.256  30.533   8.648
  672POPC   C2B12392  13.617  30.486   8.397
  672POPC   C3B12393  13.723  30.388   7.981
  672POPC   C4B12394  13.582  30.308   7.569
  673POPC   NC312395  32.912  42.393   9.933
  673POPC   PO412396  32.920  43.089   9.728
  673POPC   GL112397  32.913  43.096   9.249
  673POPC   GL212398  32.675  43.264   9.014
  673POPC   C1A12399  32.839  42.810   8.879
  673POPC   D2A12400  33.088  42.828   8.460
  673POPC   C3A12401  32.952  42.757   8.044
  673POPC   C4A12402  32.658  42.595   7.756
  673POPC   C1B12403  33.014  43.265   8.708
  673POPC   C2B12404  32.867  43.276   8.270
  673POPC   C3B12405  32.756  43.192   7.869
  673POPC   C4B12406  33.208  43.197   7.866
  674POPC   NC312407   9.814  30.434   9.595
  674POPC   PO412408   9.210  30.400   9.436
  674POPC   GL112409   9.522  30.555   9.181
  674POPC   GL212410   9.624  30.853   9.340
  674POPC   C1A12411   9.692  30.482   8.779
  674POPC   D2A12412   9.865  30.360   8.403
  674POPC   C3A12413  10.034  30.659   8.081
  674POPC   C4A12414  10.148  30.636   7.634
  674POPC   C1B12415   9.682  30.976   8.908
  674POPC   C2B12416   9.831  30.971   8.477
  674POPC   C3B12417   9.651  30.999   8.090
  674POPC   C4B12418   9.652  30.798   7.713
  675POPC   NC312419  13.872   8.264   9.508
  675POPC   PO412420  13.274   7.910   9.572
  675POPC   GL112421  13.436   7.984   9.157
  675POPC   GL212422  13.645   8.297   9.070
  675POPC   C1A12423  13.302   8.165   8.755
  675POPC   D2A12424  13.484   8.474   8.502
  675POPC   C3A12425  13.396   8.337   8.115
  675POPC   C4A12426  13.419   8.096   7.749
  675POPC   C1B12427  13.856   8.154   8.690
  675POPC   C2B12428  13.847   8.167   8.236
  675POPC   C3B12429  13.832   8.390   7.856
  675POPC   C4B12430  14.001   8.221   7.508
  676POPC   NC312431  29.120   8.630   9.453
  676POPC   PO412432  28.779   9.149   9.455
  676POPC   GL112433  29.098   9.040   9.132
  676POPC   GL212434  29.376   9.261   9.077
  676POPC   C1A12435  29.141   8.737   8.794
  676POPC   D2A12436  29.346   8.724   8.401
  676POPC   C3A12437  29.109   8.769   8.041
  676POPC   C4A12438  29.307   8.958   7.717
  676POPC   C1B12439  29.221   9.234   8.657
  676POPC   C2B12440  28.862   9.065   8.441
  676POPC   C3B12441  28.755   9.163   8.022
  676POPC   C4B12442  28.919   9.288   7.626
  677POPC   NC312443  30.375  36.876   9.536
  677POPC   PO412444  29.765  36.641   9.506
  677POPC   GL112445  30.002  36.869   9.175
  677POPC   GL212446  30.037  37.262   9.182
  677POPC   C1A12447  30.080  36.702   8.768
  677POPC   D2A12448  29.857  36.906   8.444
  677POPC   C3A12449  29.968  36.803   8.047
  677POPC   C4A12450  29.699  36.886   7.679
  677POPC   C1B12451  30.318  37.168   8.827
  677POPC   C2B12452  30.359  36.958   8.412
  677POPC   C3B12453  30.397  37.154   8.049
  677POPC   C4B12454  30.259  37.002   7.691
  678POPC   NC312455  11.990  35.161   9.533
  678POPC   PO412456  12.229  35.784   9.657
  678POPC   GL112457  12.328  35.545   9.216
  678POPC   GL212458  12.100  35.307   9.073
  678POPC   C1A12459  12.397  35.451   8.713
  678POPC   D2A12460  12.206  35.222   8.345
  678POPC   C3A12461  12.343  35.223   7.904
  678POPC   C4A12462  12.493  35.375   7.492
  678POPC   C1B12463  11.862  35.232   8.715
  678POPC   C2B12464  11.694  35.307   8.292
  678POPC   C3B12465  11.811  35.279   7.823
  678POPC   C4B12466  11.669  35.091   7.415
  679POPC   NC312467  31.059  41.517   9.587
  679POPC   PO412468  30.473  41.880   9.456
  679POPC   GL112469  30.548  41.552   9.189
  679POPC   GL212470  30.877  41.585   9.130
  679POPC   C1A12471  30.523  41.534   8.757
  679POPC   D2A12472  30.518  41.803   8.385
  679POPC   C3A12473  30.512  41.496   8.084
  679POPC   C4A12474  30.870  41.340   7.879
  679POPC   C1B12475  31.040  41.607   8.747
  679POPC   C2B12476  30.945  41.461   8.378
  679POPC   C3B12477  31.004  41.779   8.098
  679POPC   C4B12478  31.081  41.763   7.675
  680POPC   NC312479  12.867  21.738   9.371
  680POPC   PO412480  12.402  21.232   9.583
  680POPC   GL112481  12.604  21.219   9.094
  680POPC   GL212482  12.791  21.517   8.926
  680POPC   C1A12483  12.494  21.312   8.598
  680POPC   D2A12484  12.551  21.547   8.211
  680POPC   C3A12485  12.665  21.319   7.857
  680POPC   C4A12486  12.552  21.290   7.457
  680POPC   C1B12487  12.966  21.167   8.685
  680POPC   C2B12488  12.938  21.170   8.273
  680POPC   C3B12489  13.129  21.118   7.885
  680POPC   C4B12490  13.064  21.217   7.429
  681POPC   NC312491  41.200  18.210   9.457
  681POPC   PO412492  40.601  18.573   9.402
  681POPC   GL112493  40.757  18.463   9.034
  681POPC   GL212494  41.098  18.557   9.044
  681POPC   C1A12495  40.590  18.278   8.644
  681POPC   D2A12496  40.306  18.202   8.313
  681POPC   C3A12497  40.568  18.267   7.938
  681POPC   C4A12498  40.985  18.456   7.797
  681POPC   C1B12499  41.100  18.356   8.663
  681POPC   C2B12500  41.016  18.252   8.259
  681POPC   C3B12501  41.036  17.966   7.908
  681POPC   C4B12502  41.073  18.035   7.467
  682POPC   NC312503  22.610  44.325   9.558
  682POPC   PO412504  22.928  44.961   9.588
  682POPC   GL112505  22.870  44.844   9.188
  682POPC   GL212506  22.612  44.616   9.150
  682POPC   C1A12507  22.982  44.683   8.790
  682POPC   D2A12508  23.192  44.551   8.436
  682POPC   C3A12509  23.082  44.800   8.104
  682POPC   C4A12510  23.337  44.899   7.753
  682POPC   C1B12511  22.511  44.460   8.744
  682POPC   C2B12512  22.670  44.526   8.362
  682POPC   C3B12513  22.493  44.500   7.974
  682POPC   C4B12514  22.800  44.650   7.704
  683POPC   NC312515   8.265  11.748   9.578
  683POPC   PO412516   7.932  12.330   9.495
  683POPC   GL112517   7.997  12.041   9.172
  683POPC   GL212518   8.346  12.028   9.149
  683POPC   C1A12519   8.024  12.170   8.737
  683POPC   D2A12520   8.293  12.385   8.445
  683POPC   C3A12521   8.194  12.262   8.046
  683POPC   C4A12522   8.124  12.204   7.623
  683POPC   C1B12523   8.463  11.933   8.717
  683POPC   C2B12524   8.251  11.834   8.310
  683POPC   C3B12525   8.400  11.805   7.861
  683POPC   C4B12526   8.348  11.550   7.474
  684POPC   NC312527  41.922  27.438   9.484
  684POPC   PO412528  41.308  27.573   9.483
  684POPC   GL112529  41.546  27.518   9.117
  684POPC   GL212530  41.874  27.692   9.069
  684POPC   C1A12531  41.460  27.592   8.696
  684POPC   D2A12532  41.498  27.816   8.349
  684POPC   C3A12533  41.488  27.575   8.029
  684POPC   C4A12534  41.557  27.741   7.640
  684POPC   C1B12535  41.877  27.872   8.707
  684POPC   C2B12536  42.009  28.012   8.347
  684POPC   C3B12537  41.836  28.051   7.929
  684POPC   C4B12538  42.024  27.929   7.504
  685POPC   NC312539   3.728  23.417   9.445
  685POPC   PO412540   3.351  23.917   9.456
  685POPC   GL112541   3.397  23.680   9.114
  685POPC   GL212542   3.744  23.784   9.084
  685POPC   C1A12543   3.410  23.701   8.672
  685POPC   D2A12544   3.264  23.922   8.280
  685POPC   C3A12545   3.453  23.913   7.869
  685POPC   C4A12546   3.431  24.049   7.427
  685POPC   C1B12547   3.918  23.832   8.689
  685POPC   C2B12548   3.746  23.721   8.274
  685POPC   C3B12549   3.846  23.575   7.882
  685POPC   C4B12550   3.895  23.845   7.507
  686POPC   NC312551   6.605  23.457   9.465
  686POPC   PO412552   6.715  22.838   9.526
  686POPC   GL112553   6.515  22.933   9.154
  686POPC   GL212554   6.238  23.151   9.251
  686POPC   C1A12555   6.539  22.735   8.739
  686POPC   D2A12556   6.371  22.693   8.325
  686POPC   C3A12557   6.717  22.774   8.045
  686POPC   C4A12558   6.836  23.096   7.795
  686POPC   C1B12559   6.184  23.124   8.817
  686POPC   C2B12560   6.280  23.303   8.427
  686POPC   C3B12561   6.360  23.154   8.034
  686POPC   C4B12562   6.149  23.204   7.649
  687POPC   NC312563  21.571  10.549   9.645
  687POPC   PO412564  20.928  10.604   9.557
  687POPC   GL112565  21.074  10.562   9.148
  687POPC   GL212566  21.405  10.459   9.167
  687POPC   C1A12567  21.067  10.739   8.716
  687POPC   D2A12568  21.274  10.669   8.289
  687POPC   C3A12569  21.330  10.837   7.846
  687POPC   C4A12570  21.429  10.932   7.418
  687POPC   C1B12571  21.310  10.304   8.760
  687POPC   C2B12572  21.455  10.189   8.334
  687POPC   C3B12573  21.202  10.279   7.970
  687POPC   C4B12574  21.275  10.397   7.567
  688POPC   NC312575  25.509  24.002   9.431
  688POPC   PO412576  25.224  23.413   9.472
  688POPC   GL112577  25.284  23.619   9.117
  688POPC   GL212578  24.999  23.526   8.936
  688POPC   C1A12579  25.256  23.981   8.846
  688POPC   D2A12580  25.361  24.071   8.416
  688POPC   C3A12581  25.315  23.758   8.129
  688POPC   C4A12582  25.393  23.892   7.727
  688POPC   C1B12583  25.371  23.538   8.623
  688POPC   C2B12584  25.541  23.286   8.291
  688POPC   C3B12585  25.524  23.361   7.846
  688POPC   C4B12586  25.118  23.488   7.694
  689POPC   NC312587  31.631  43.212   9.452
  689POPC   PO412588  31.073  42.680   9.454
  689POPC   GL112589  31.282  42.944   9.185
  689POPC   GL212590  31.589  42.773   9.106
  689POPC   C1A12591  31.329  43.213   8.812
  689POPC   D2A12592  31.581  43.285   8.434
  689POPC   C3A12593  31.365  43.345   8.093
  689POPC   C4A12594  31.390  43.107   7.765
  689POPC   C1B12595  31.807  43.002   8.815
  689POPC   C2B12596  32.017  42.995   8.445
  689POPC   C3B12597  31.873  43.087   8.033
  689POPC   C4B12598  31.824  42.890   7.643
  690POPC   NC312599   6.737  14.493   9.458
  690POPC   PO412600   6.134  14.490   9.569
  690POPC   GL112601   6.315  14.539   9.164
  690POPC   GL212602   6.536  14.227   9.080
  690POPC   C1A12603   6.578  14.639   8.797
  690POPC   D2A12604   6.601  14.306   8.495
  690POPC   C3A12605   6.722  14.355   8.083
  690POPC   C4A12606   6.605  14.514   7.705
  690POPC   C1B12607   6.970  14.330   8.876
  690POPC   C2B12608   7.054  14.581   8.510
  690POPC   C3B12609   7.085  14.734   8.106
  690POPC   C4B12610   7.114  14.516   7.761
  691POPC   NC312611  38.676  14.564   9.505
  691POPC   PO412612  38.264  13.957   9.560
  691POPC   GL112613  38.289  14.304   9.263
  691POPC   GL212614  38.014  14.584   9.247
  691POPC   C1A12615  38.545  14.335   8.883
  691POPC   D2A12616  38.663  14.040   8.554
  691POPC   C3A12617  38.507  14.085   8.124
  691POPC   C4A12618  38.665  14.237   7.759
  691POPC   C1B12619  38.020  14.372   8.837
  691POPC   C2B12620  38.245  14.370   8.466
  691POPC   C3B12621  38.315  14.590   8.083
  691POPC   C4B12622  38.269  14.579   7.653
  692POPC   NC312623  25.738   7.303   9.324
  692POPC   PO412624  26.316   7.417   9.539
  692POPC   GL112625  26.236   7.609   9.142
  692POPC   GL212626  26.021   7.432   8.916
  692POPC   C1A12627  26.482   7.574   8.762
  692POPC   D2A12628  26.355   7.344   8.428
  692POPC   C3A12629  26.190   7.416   8.047
  692POPC   C4A12630  26.418   7.470   7.658
  692POPC   C1B12631  25.730   7.719   8.753
  692POPC   C2B12632  25.533   7.742   8.365
  692POPC   C3B12633  25.659   7.865   7.950
  692POPC   C4B12634  25.957   7.709   7.713
  693POPC   NC312635  44.117  20.343   9.611
  693POPC   PO412636  43.591  20.685   9.689
  693POPC   GL112637  43.799  20.630   9.249
  693POPC   GL212638  44.160  20.538   9.163
  693POPC   C1A12639  43.807  20.517   8.795
  693POPC   D2A12640  43.795  20.762   8.432
  693POPC   C3A12641  43.729  20.466   8.095
  693POPC   C4A12642  43.694  20.580   7.712
  693POPC   C1B12643  44.316  20.608   8.792
  693POPC   C2B12644  44.181  20.412   8.443
  693POPC   C3B12645  44.195  20.648   8.096
  693POPC   C4B12646  44.185  20.432   7.755
  694POPC   NC312647  20.702  38.746   9.352
  694POPC   PO412648  20.612  39.381   9.527
  694POPC   GL112649  20.593  39.417   9.101
  694POPC   GL212650  20.249  39.448   9.089
  694POPC   C1A12651  20.801  39.307   8.704
  694POPC   D2A12652  20.886  39.164   8.275
  694POPC   C3A12653  20.928  39.470   7.927
  694POPC   C4A12654  20.924  39.497   7.433
  694POPC   C1B12655  20.298  39.123   8.783
  694POPC   C2B12656  20.385  39.084   8.350
  694POPC   C3B12657  20.505  39.174   7.922
  694POPC   C4B12658  20.443  39.318   7.497
  695POPC   NC312659   9.294   2.674   9.523
  695POPC   PO412660   8.631   2.750   9.535
  695POPC   GL112661   8.817   2.657   9.113
  695POPC   GL212662   9.150   2.621   9.051
  695POPC   C1A12663   8.821   2.676   8.635
  695POPC   D2A12664   8.552   2.461   8.301
  695POPC   C3A12665   8.746   2.525   7.883
  695POPC   C4A12666   8.878   2.747   7.512
  695POPC   C1B12667   9.398   2.691   8.700
  695POPC   C2B12668   9.240   2.862   8.341
  695POPC   C3B12669   9.259   2.739   7.912
  695POPC   C4B12670   9.348   3.086   7.688
  696POPC   NC312671  33.569  21.560   9.661
  696POPC   PO412672  33.989  21.015   9.484
  696POPC   GL112673  33.913  21.142   9.057
  696POPC   GL212674  33.589  21.062   9.006
  696POPC   C1A12675  34.039  21.377   8.650
  696POPC   D2A12676  34.058  21.543   8.197
  696POPC   C3A12677  33.829  21.292   7.878
  696POPC   C4A12678  33.500  20.933   7.865
  696POPC   C1B12679  33.517  21.499   8.960
  696POPC   C2B12680  33.274  21.702   8.624
  696POPC   C3B12681  33.415  21.611   8.180
  696POPC   C4B12682  33.658  21.771   7.821
  697POPC   NC312683  28.282  32.870   9.491
  697POPC   PO412684  28.281  32.196   9.500
  697POPC   GL112685  28.294  31.956   9.110
  697POPC   GL212686  28.627  31.976   8.970
  697POPC   C1A12687  28.273  31.881   8.648
  697POPC   D2A12688  28.609  31.982   8.325
  697POPC   C3A12689  28.369  32.110   7.942
  697POPC   C4A12690  28.249  32.034   7.494
  697POPC   C1B12691  28.553  32.344   8.752
  697POPC   C2B12692  28.633  32.520   8.343
  697POPC   C3B12693  28.645  32.553   7.891
  697POPC   C4B12694  28.442  32.519   7.482
  698POPC   NC312695   6.956   8.013   9.535
  698POPC   PO412696   7.568   8.390   9.421
  698POPC   GL112697   7.421   8.013   9.206
  698POPC   GL212698   7.156   8.172   9.091
  698POPC   C1A12699   7.413   7.823   8.804
  698POPC   D2A12700   7.475   8.064   8.445
  698POPC   C3A12701   7.449   7.864   8.065
  698POPC   C4A12702   7.562   8.037   7.693
  698POPC   C1B12703   7.076   8.428   8.737
  698POPC   C2B12704   7.302   8.557   8.379
  698POPC   C3B12705   7.323   8.369   8.012
  698POPC   C4B12706   7.107   8.429   7.677
  699POPC   NC312707  43.087  44.873   9.298
  699POPC   PO412708  43.177   0.460   9.718
  699POPC   GL112709  43.156   0.415   9.268
  699POPC   GL212710  43.364   0.185   9.039
  699POPC   C1A12711  43.170   0.632   8.873
  699POPC   D2A12712  43.202   0.581   8.396
  699POPC   C3A12713  42.928   0.770   8.088
  699POPC   C4A12714  43.064   0.769   7.661
  699POPC   C1B12715  43.153   0.121   8.661
  699POPC   C2B12716  43.227   0.085   8.230
  699POPC   C3B12717  43.164   0.336   7.875
  699POPC   C4B12718  43.320   0.256   7.424
  700POPC   NC312719  15.357   4.142   9.505
  700POPC   PO412720  14.788   4.519   9.539
  700POPC   GL112721  15.022   4.404   9.227
  700POPC   GL212722  15.298   4.615   9.072
  700POPC   C1A12723  14.953   4.324   8.836
  700POPC   D2A12724  15.039   4.613   8.546
  700POPC   C3A12725  15.120   4.372   8.208
  700POPC   C4A12726  15.042   4.395   7.762
  700POPC   C1B12727  15.446   4.346   8.711
  700POPC   C2B12728  15.641   4.194   8.313
  700POPC   C3B12729  15.535   4.366   7.923
  700POPC   C4B12730  15.462   4.330   7.465
  701POPC   NC312731   0.900  20.675   9.424
  701POPC   PO412732   1.438  20.271   9.405
  701POPC   GL112733   1.225  20.342   9.050
  701POPC   GL212734   1.223  20.713   9.042
  701POPC   C1A12735   1.375  20.438   8.632
  701POPC   D2A12736   1.464  20.678   8.247
  701POPC   C3A12737   1.384  20.400   7.921
  701POPC   C4A12738   0.969  20.338   7.867
  701POPC   C1B12739   1.271  20.938   8.668
  701POPC   C2B12740   0.924  21.039   8.400
  701POPC   C3B12741   0.912  20.911   7.977
  701POPC   C4B12742   1.279  20.855   7.770
  702POPC   NC312743   9.578   5.198   9.613
  702POPC   PO412744  10.098   4.794   9.495
  702POPC   GL112745   9.873   4.814   9.124
  702POPC   GL212746   9.650   5.099   9.108
  702POPC   C1A12747   9.933   4.987   8.691
  702POPC   D2A12748   9.754   5.151   8.316
  702POPC   C3A12749   9.933   5.366   7.966
  702POPC   C4A12750   9.748   5.064   7.749
  702POPC   C1B12751   9.527   5.346   8.737
  702POPC   C2B12752   9.297   5.378   8.397
  702POPC   C3B12753   9.430   5.414   7.994
  702POPC   C4B12754   9.264   5.291   7.628
  703POPC   NC312755  34.949  28.763   9.349
  703POPC   PO412756  35.200  29.425   9.486
  703POPC   GL112757  35.217  29.146   9.150
  703POPC   GL212758  35.438  28.832   9.221
  703POPC   C1A12759  35.031  29.061   8.751
  703POPC   D2A12760  35.294  29.158   8.417
  703POPC   C3A12761  35.222  28.995   8.039
  703POPC   C4A12762  35.152  29.166   7.661
  703POPC   C1B12763  35.431  28.733   8.775
  703POPC   C2B12764  35.615  28.737   8.359
  703POPC   C3B12765  35.723  28.938   7.953
  703POPC   C4B12766  35.480  28.793   7.616
  704POPC   NC312767  19.796   4.405   9.508
  704POPC   PO412768  20.195   3.933   9.425
  704POPC   GL112769  19.849   4.066   9.101
  704POPC   GL212770  19.594   4.370   9.035
  704POPC   C1A12771  19.908   4.241   8.664
  704POPC   D2A12772  19.923   4.505   8.259
  704POPC   C3A12773  19.863   4.184   7.955
  704POPC   C4A12774  20.230   3.965   7.849
  704POPC   C1B12775  19.694   4.763   8.788
  704POPC   C2B12776  19.607   4.919   8.365
  704POPC   C3B12777  19.556   4.836   7.929
  704POPC   C4B12778  19.538   4.527   7.561
  705POPC   NC312779  29.896  39.866   9.512
  705POPC   PO412780  30.592  39.605   9.642
  705POPC   GL112781  30.244  39.627   9.226
  705POPC   GL212782  30.082  40.002   9.080
  705POPC   C1A12783  29.926  39.573   8.844
  705POPC   D2A12784  29.855  39.855   8.490
  705POPC   C3A12785  29.752  39.712   8.069
  705POPC   C4A12786  29.994  39.684   7.699
  705POPC   C1B12787  29.735  40.224   8.858
  705POPC   C2B12788  29.726  40.346   8.427
  705POPC   C3B12789  29.973  40.181   8.091
  705POPC   C4B12790  29.853  40.178   7.683
  706POPC   NC312791  43.531  25.355   9.595
  706POPC   PO412792  43.952  25.611   9.949
  706POPC   GL112793  43.998  25.445   9.417
  706POPC   GL212794  43.673  25.507   9.135
  706POPC   C1A12795  44.045  25.221   8.979
  706POPC   D2A12796  43.844  25.308   8.551
  706POPC   C3A12797  43.785  25.123   8.131
  706POPC   C4A12798  44.082  25.111   7.792
  706POPC   C1B12799  43.496  25.683   8.714
  706POPC   C2B12800  43.597  25.646   8.228
  706POPC   C3B12801  43.589  25.442   7.778
  706POPC   C4B12802  43.720  25.535   7.327
  707POPC   NC312803   8.713  32.368   9.404
  707POPC   PO412804   9.308  31.965   9.426
  707POPC   GL112805   9.094  32.181   9.140
  707POPC   GL212806   8.979  31.893   9.008
  707POPC   C1A12807   9.134  32.476   8.803
  707POPC   D2A12808   8.910  32.538   8.412
  707POPC   C3A12809   9.135  32.499   8.022
  707POPC   C4A12810   9.289  32.398   7.630
  707POPC   C1B12811   8.688  32.161   8.774
  707POPC   C2B12812   8.538  32.144   8.361
  707POPC   C3B12813   8.789  32.131   8.040
  707POPC   C4B12814   8.799  32.296   7.650
  708POPC   NC312815  34.939  12.886   9.310
  708POPC   PO412816  35.482  12.598   9.318
  708POPC   GL112817  35.420  12.898   9.023
  708POPC   GL212818  35.161  12.726   8.888
  708POPC   C1A12819  35.616  13.074   8.630
  708POPC   D2A12820  35.462  13.117   8.192
  708POPC   C3A12821  35.593  13.092   7.753
  708POPC   C4A12822  35.411  12.715   7.525
  708POPC   C1B12823  35.103  13.084   8.657
  708POPC   C2B12824  34.944  13.070   8.255
  708POPC   C3B12825  35.089  12.980   7.854
  708POPC   C4B12826  35.039  13.076   7.413
  709POPC   NC312827  22.445  33.898   9.580
  709POPC   PO412828  22.127  34.360   9.452
  709POPC   GL112829  22.237  34.078   9.098
  709POPC   GL212830  22.193  33.693   9.181
  709POPC   C1A12831  22.332  33.951   8.644
  709POPC   D2A12832  22.461  33.867   8.187
  709POPC   C3A12833  22.246  33.944   7.771
  709POPC   C4A12834  22.361  33.810   7.312
  709POPC   C1B12835  22.169  33.458   8.799
  709POPC   C2B12836  22.041  33.595   8.408
  709POPC   C3B12837  22.090  33.527   8.003
  709POPC   C4B12838  22.110  33.457   7.570
  710POPC   NC312839  43.841   5.004   9.588
  710POPC   PO412840  44.480   5.341   9.489
  710POPC   GL112841  44.101   5.211   9.206
  710POPC   GL212842  44.034   4.840   9.161
  710POPC   C1A12843  43.747   5.240   8.896
  710POPC   D2A12844  43.648   5.312   8.472
  710POPC   C3A12845  43.971   5.316   8.204
  710POPC   C4A12846  43.884   5.291   7.787
  710POPC   C1B12847  43.781   4.732   8.796
  710POPC   C2B12848  43.741   4.834   8.386
  710POPC   C3B12849  43.849   4.797   7.999
  710POPC   C4B12850  43.822   4.529   7.670
  711POPC   NC312851  44.293  15.269   9.858
  711POPC   PO412852  44.603  15.432   9.310
  711POPC   GL112853  44.730  15.173   9.085
  711POPC   GL212854  44.392  15.107   8.960
  711POPC   C1A12855  44.860  15.179   8.721
  711POPC   D2A12856  44.578  15.067   8.459
  711POPC   C3A12857  44.735  15.138   8.124
  711POPC   C4A12858  44.565  15.071   7.777
  711POPC   C1B12859  44.434  15.505   8.691
  711POPC   C2B12860  44.428  15.768   8.326
  711POPC   C3B12861  44.513  15.586   7.926
  711POPC   C4B12862  44.304  15.420   7.532
  712POPC   NC312863  36.195  20.287   9.379
  712POPC   PO412864  36.427  20.846   9.563
  712POPC   GL112865  36.403  20.715   9.110
  712POPC   GL212866  36.378  20.359   8.916
  712POPC   C1A12867  36.331  20.783   8.676
  712POPC   D2A12868  36.237  20.456   8.387
  712POPC   C3A12869  36.357  20.458   7.952
  712POPC   C4A12870  36.149  20.725   7.654
  712POPC   C1B12871  35.923  20.506   8.813
  712POPC   C2B12872  35.720  20.346   8.451
  712POPC   C3B12873  35.860  20.341   8.030
  712POPC   C4B12874  35.697  20.446   7.637
  713POPC   NC312875  34.820  29.464   9.767
  713POPC   PO412876  34.564  28.870   9.620
  713POPC   GL112877  34.630  29.240   9.323
  713POPC   GL212878  34.282  29.284   9.141
  713POPC   C1A12879  34.680  29.448   8.904
  713POPC   D2A12880  34.635  29.258   8.490
  713POPC   C3A12881  34.560  29.439   8.082
  713POPC   C4A12882  34.814  29.507   7.730
  713POPC   C1B12883  34.513  28.945   8.901
  713POPC   C2B12884  34.651  28.754   8.514
  713POPC   C3B12885  34.713  28.932   8.097
  713POPC   C4B12886  34.870  28.760   7.729
  714POPC   NC312887  29.501  23.274   9.597
  714POPC   PO412888  28.932  23.696   9.473
  714POPC   GL112889  29.225  23.498   9.197
  714POPC   GL212890  28.934  23.494   8.991
  714POPC   C1A12891  29.420  23.453   8.757
  714POPC   D2A12892  29.348  23.403   8.277
  714POPC   C3A12893  29.174  23.531   7.848
  714POPC   C4A12894  29.371  23.463   7.356
  714POPC   C1B12895  28.984  23.632   8.570
  714POPC   C2B12896  29.304  23.912   8.425
  714POPC   C3B12897  29.548  23.867   8.066
  714POPC   C4B12898  29.431  23.891   7.622
  715POPC   NC312899  26.905  31.941   9.762
  715POPC   PO412900  26.750  31.316   9.646
  715POPC   GL112901  26.847  31.216   9.188
  715POPC   GL212902  27.205  31.281   9.162
  715POPC   C1A12903  26.650  31.131   8.759
  715POPC   D2A12904  26.461  31.210   8.337
  715POPC   C3A12905  26.695  31.117   7.938
  715POPC   C4A12906  26.683  31.385   7.557
  715POPC   C1B12907  27.059  31.441   8.760
  715POPC   C2B12908  26.961  31.283   8.341
  715POPC   C3B12909  26.962  31.562   7.958
  715POPC   C4B12910  27.245  31.769   7.638
  716POPC   NC312911  23.355   6.277   9.546
  716POPC   PO412912  22.944   5.691   9.466
  716POPC   GL112913  23.002   5.979   9.143
  716POPC   GL212914  22.701   6.183   9.083
  716POPC   C1A12915  23.081   5.719   8.771
  716POPC   D2A12916  22.851   5.676   8.388
  716POPC   C3A12917  23.185   5.638   8.105
  716POPC   C4A12918  23.190   5.556   7.694
  716POPC   C1B12919  22.863   6.149   8.652
  716POPC   C2B12920  23.118   6.111   8.302
  716POPC   C3B12921  22.860   6.007   7.954
  716POPC   C4B12922  22.481   6.140   7.744
  717POPC   NC312923  29.247  32.782   9.604
  717POPC   PO412924  28.683  33.111   9.489
  717POPC   GL112925  29.071  33.046   9.169
  717POPC   GL212926  29.271  32.742   9.104
  717POPC   C1A12927  29.287  33.200   8.791
  717POPC   D2A12928  29.460  33.174   8.361
  717POPC   C3A12929  29.213  33.222   7.989
  717POPC   C4A12930  29.530  33.134   7.760
  717POPC   C1B12931  29.090  32.678   8.698
  717POPC   C2B12932  29.050  32.848   8.285
  717POPC   C3B12933  29.138  32.733   7.846
  717POPC   C4B12934  28.956  32.551   7.449
  718POPC   NC312935  13.980  26.306   9.424
  718POPC   PO412936  13.640  25.765   9.468
  718POPC   GL112937  13.423  26.034   9.144
  718POPC   GL212938  13.611  26.306   9.046
  718POPC   C1A12939  13.269  26.066   8.716
  718POPC   D2A12940  13.092  26.280   8.358
  718POPC   C3A12941  13.395  26.241   8.015
  718POPC   C4A12942  13.630  25.855   7.856
  718POPC   C1B12943  13.866  26.488   8.704
  718POPC   C2B12944  13.983  26.347   8.274
  718POPC   C3B12945  13.882  26.310   7.838
  718POPC   C4B12946  13.625  26.178   7.465
  719POPC   NC312947   7.674  25.459   9.600
  719POPC   PO412948   7.029  25.274   9.527
  719POPC   GL112949   7.356  25.314   9.193
  719POPC   GL212950   7.545  25.014   9.089
  719POPC   C1A12951   7.331  25.279   8.736
  719POPC   D2A12952   7.346  25.143   8.327
  719POPC   C3A12953   7.535  25.449   8.091
  719POPC   C4A12954   7.330  25.526   7.717
  719POPC   C1B12955   7.494  24.807   8.695
  719POPC   C2B12956   7.583  24.665   8.320
  719POPC   C3B12957   7.797  24.809   7.993
  719POPC   C4B12958   7.637  25.101   7.710
  720POPC   NC312959  43.519  44.141   9.398
  720POPC   PO412960  44.058  43.730   9.478
  720POPC   GL112961  43.818  43.781   9.118
  720POPC   GL212962  43.582  43.477   9.163
  720POPC   C1A12963  44.007  43.917   8.697
  720POPC   D2A12964  44.082  43.802   8.246
  720POPC   C3A12965  43.994  44.061   7.845
  720POPC   C4A12966  44.159  44.062   7.377
  720POPC   C1B12967  43.688  43.526   8.705
  720POPC   C2B12968  43.614  43.530   8.288
  720POPC   C3B12969  43.621  43.707   7.866
  720POPC   C4B12970  43.847  43.677   7.463
  721POPC   NC312971  42.906   6.462   9.413
  721POPC   PO412972  43.511   6.894   9.447
  721POPC   GL112973  43.359   6.711   9.111
  721POPC   GL212974  43.230   7.044   9.016
  721POPC   C1A12975  43.205   6.626   8.696
  721POPC   D2A12976  42.874   6.847   8.492
  721POPC   C3A12977  42.848   6.807   8.021
  721POPC   C4A12978  42.657   6.442   7.774
  721POPC   C1B12979  43.325   7.150   8.593
  721POPC   C2B12980  43.322   6.904   8.241
  721POPC   C3B12981  43.342   6.865   7.824
  721POPC   C4B12982  43.177   6.451   7.804
  722POPC   NC312983   4.887  38.659   9.557
  722POPC   PO412984   5.559  38.427   9.509
  722POPC   GL112985   5.271  38.642   9.189
  722POPC   GL212986   5.136  38.364   9.020
  722POPC   C1A12987   5.031  38.842   8.856
  722POPC   D2A12988   5.052  38.952   8.415
  722POPC   C3A12989   4.740  38.814   8.103
  722POPC   C4A12990   4.909  38.746   7.679
  722POPC   C1B12991   5.367  38.533   8.632
  722POPC   C2B12992   5.488  38.404   8.210
  722POPC   C3B12993   5.194  38.371   7.846
  722POPC   C4B12994   4.818  38.222   7.526
  723POPC   NC312995  21.997   9.383   9.467
  723POPC   PO412996  22.220   8.737   9.539
  723POPC   GL112997  22.297   8.867   9.135
  723POPC   GL212998  21.970   8.761   9.099
  723POPC   C1A12999  22.217   9.117   8.749
  723POPC   D2A13000  22.387   9.362   8.383
  723POPC   C3A13001  22.253   9.198   8.000
  723POPC   C4A13002  21.997   9.191   7.647
  723POPC   C1B13003  22.063   8.619   8.722
  723POPC   C2B13004  21.981   8.516   8.346
  723POPC   C3B13005  22.099   8.695   7.951
  723POPC   C4B13006  21.984   8.690   7.521
  724POPC   NC313007  43.774  11.065   9.515
  724POPC   PO413008  44.153  11.582   9.414
  724POPC   GL113009  43.941  11.295   9.087
  724POPC   GL213010  43.584  11.262   9.071
  724POPC   C1A13011  43.879  11.217   8.626
  724POPC   D2A13012  44.199  11.063   8.306
  724POPC   C3A13013  43.876  10.992   8.028
  724POPC   C4A13014  43.520  11.222   7.925
  724POPC   C1B13015  43.523  11.566   8.760
  724POPC   C2B13016  43.492  11.518   8.351
  724POPC   C3B13017  43.879  11.481   8.168
  724POPC   C4B13018  44.218  11.384   7.918
  725POPC   NC313019  16.708   9.252   9.554
  725POPC   PO413020  16.574   8.531   9.474
  725POPC   GL113021  16.656   8.727   9.107
  725POPC   GL213022  16.615   9.064   9.111
  725POPC   C1A13023  16.696   8.683   8.686
  725POPC   D2A13024  16.737   8.948   8.368
  725POPC   C3A13025  16.984   8.739   8.064
  725POPC   C4A13026  16.819   8.737   7.678
  725POPC   C1B13027  16.799   9.309   8.795
  725POPC   C2B13028  16.803   9.460   8.383
  725POPC   C3B13029  16.921   9.253   7.988
  725POPC   C4B13030  16.806   9.219   7.545
  726POPC   NC313031  29.885   3.396   9.581
  726POPC   PO413032  30.083   3.884   9.884
  726POPC   GL113033  29.864   3.805   9.313
  726POPC   GL213034  29.916   3.423   9.099
  726POPC   C1A13035  29.968   3.802   8.809
  726POPC   D2A13036  29.970   3.449   8.481
  726POPC   C3A13037  30.004   3.572   8.034
  726POPC   C4A13038  29.772   3.743   7.680
  726POPC   C1B13039  29.626   3.195   8.850
  726POPC   C2B13040  29.437   3.340   8.460
  726POPC   C3B13041  29.575   3.296   8.057
  726POPC   C4B13042  29.432   3.329   7.656
  727POPC   NC313043  15.422  43.014   9.593
  727POPC   PO413044  15.511  43.554   9.325
  727POPC   GL113045  15.365  43.165   9.096
  727POPC   GL213046  15.038  43.047   9.227
  727POPC   C1A13047  15.480  43.027   8.676
  727POPC   D2A13048  15.495  43.292   8.280
  727POPC   C3A13049  15.403  43.146   7.860
  727POPC   C4A13050  15.402  43.387   7.452
  727POPC   C1B13051  14.886  43.179   8.820
  727POPC   C2B13052  15.036  43.073   8.426
  727POPC   C3B13053  14.940  43.195   8.024
  727POPC   C4B13054  14.936  43.292   7.590
  728POPC   NC313055  11.584  29.003   9.391
  728POPC   PO413056  11.252  29.475   9.570
  728POPC   GL113057  11.254  29.311   9.138
  728POPC   GL213058  11.575  29.375   9.027
  728POPC   C1A13059  11.063  29.223   8.729
  728POPC   D2A13060  11.055  29.392   8.323
  728POPC   C3A13061  11.118  29.159   7.973
  728POPC   C4A13062  10.988  28.891   7.689
  728POPC   C1B13063  11.546  29.058   8.733
  728POPC   C2B13064  11.411  28.990   8.347
  728POPC   C3B13065  11.610  28.986   7.943
  728POPC   C4B13066  11.466  29.032   7.528
  729POPC   NC313067  43.638  13.032   9.185
  729POPC   PO413068  43.989  12.492   9.398
  729POPC   GL113069  43.877  12.624   8.999
  729POPC   GL213070  44.005  12.959   8.843
  729POPC   C1A13071  43.982  12.498   8.596
  729POPC   D2A13072  44.162  12.747   8.342
  729POPC   C3A13073  43.905  12.798   8.044
  729POPC   C4A13074  43.884  12.823   7.652
  729POPC   C1B13075  43.682  12.917   8.549
  729POPC   C2B13076  43.486  13.054   8.215
  729POPC   C3B13077  43.562  13.173   7.863
  729POPC   C4B13078  43.291  13.345   7.629
  730POPC   NC313079   4.270  13.946   9.758
  730POPC   PO413080   4.562  14.408   9.404
  730POPC   GL113081   4.263  14.267   9.117
  730POPC   GL213082   4.208  14.592   8.922
  730POPC   C1A13083   4.413  14.142   8.702
  730POPC   D2A13084   4.292  14.378   8.365
  730POPC   C3A13085   4.478  14.358   7.962
  730POPC   C4A13086   4.243  14.684   7.799
  730POPC   C1B13087   3.921  14.298   8.755
  730POPC   C2B13088   3.746  14.280   8.377
  730POPC   C3B13089   3.955  14.297   7.984
  730POPC   C4B13090   3.960  14.259   7.551
  731POPC   NC313091   7.684  26.985   9.458
  731POPC   PO413092   7.069  26.909   9.763
  731POPC   GL113093   7.247  26.734   9.310
  731POPC   GL213094   7.562  26.506   9.282
  731POPC   C1A13095   7.233  26.732   8.857
  731POPC   D2A13096   7.353  26.997   8.516
  731POPC   C3A13097   7.371  26.851   8.091
  731POPC   C4A13098   7.415  27.069   7.697
  731POPC   C1B13099   7.739  26.543   8.865
  731POPC   C2B13100   7.546  26.459   8.466
  731POPC   C3B13101   7.728  26.466   8.057
  731POPC   C4B13102   7.570  26.570   7.676
  732POPC   NC313103  27.910  15.449   9.832
  732POPC   PO413104  27.425  15.868   9.754
  732POPC   GL113105  27.492  15.991   9.249
  732POPC   GL213106  27.258  16.229   9.072
  732POPC   C1A13107  27.672  16.057   8.815
  732POPC   D2A13108  27.574  16.301   8.439
  732POPC   C3A13109  27.840  16.254   8.075
  732POPC   C4A13110  27.816  15.920   7.781
  732POPC   C1B13111  27.201  15.872   8.851
  732POPC   C2B13112  27.303  15.854   8.432
  732POPC   C3B13113  27.414  15.662   8.084
  732POPC   C4B13114  27.358  15.651   7.683
  733POPC   NC313115  21.190  33.528   9.812
  733POPC   PO413116  21.599  33.153   9.783
  733POPC   GL113117  21.629  33.025   9.325
  733POPC   GL213118  21.814  33.277   9.132
  733POPC   C1A13119  21.463  32.929   8.896
  733POPC   D2A13120  21.442  32.806   8.439
  733POPC   C3A13121  21.316  32.994   8.020
  733POPC   C4A13122  21.402  32.931   7.559
  733POPC   C1B13123  21.679  33.338   8.681
  733POPC   C2B13124  21.745  33.188   8.253
  733POPC   C3B13125  21.711  33.250   7.814
  733POPC   C4B13126  21.549  33.506   7.491
  734POPC   NC313127   0.320   9.117   9.438
  734POPC   PO413128   0.964   8.736   9.489
  734POPC   GL113129   0.672   8.655   9.159
  734POPC   GL213130   0.659   8.982   9.079
  734POPC   C1A13131   0.269   8.707   8.890
  734POPC   D2A13132   0.164   8.647   8.449
  734POPC   C3A13133   0.217   8.981   8.146
  734POPC   C4A13134   0.186   8.924   7.708
  734POPC   C1B13135   0.584   9.313   8.812
  734POPC   C2B13136   0.446   9.400   8.432
  734POPC   C3B13137   0.636   9.314   8.091
  734POPC   C4B13138   0.492   9.298   7.758
  735POPC   NC313139  38.749  41.184   9.442
  735POPC   PO413140  39.119  41.786   9.422
  735POPC   GL113141  39.287  41.601   9.058
  735POPC   GL213142  39.155  41.274   9.082
  735POPC   C1A13143  39.478  41.830   8.743
  735POPC   D2A13144  39.300  41.984   8.375
  735POPC   C3A13145  39.441  41.848   7.965
  735POPC   C4A13146  39.140  41.722   7.673
  735POPC   C1B13147  39.041  41.195   8.653
  735POPC   C2B13148  39.294  41.175   8.278
  735POPC   C3B13149  39.341  41.286   7.862
  735POPC   C4B13150  39.120  41.199   7.477
  736POPC   NC313151  21.957   0.975   9.290
  736POPC   PO413152  22.342   1.403   9.705
  736POPC   GL113153  22.243   1.404   9.221
  736POPC   GL213154  21.913   1.487   9.017
  736POPC   C1A13155  22.366   1.317   8.778
  736POPC   D2A13156  22.266   1.249   8.333
  736POPC   C3A13157  22.472   1.510   8.021
  736POPC   C4A13158  22.520   1.388   7.595
  736POPC   C1B13159  21.872   1.239   8.691
  736POPC   C2B13160  21.705   1.220   8.326
  736POPC   C3B13161  21.829   1.102   7.949
  736POPC   C4B13162  22.024   1.279   7.607
  737POPC   NC313163  17.341  37.071   9.774
  737POPC   PO413164  17.810  36.599   9.576
  737POPC   GL113165  17.565  36.795   9.203
  737POPC   GL213166  17.434  37.149   9.276
  737POPC   C1A13167  17.667  36.750   8.742
  737POPC   D2A13168  17.814  36.827   8.307
  737POPC   C3A13169  17.610  36.837   7.887
  737POPC   C4A13170  17.438  36.726   7.461
  737POPC   C1B13171  17.449  37.223   8.821
  737POPC   C2B13172  17.282  37.174   8.394
  737POPC   C3B13173  17.452  37.306   8.002
  737POPC   C4B13174  17.351  37.206   7.587
  738POPC   NC313175   4.123  39.528   9.444
  738POPC   PO413176   4.469  38.915   9.553
  738POPC   GL113177   4.338  38.974   9.127
  738POPC   GL213178   4.657  39.092   9.083
  738POPC   C1A13179   4.148  39.264   8.794
  738POPC   D2A13180   4.220  39.561   8.466
  738POPC   C3A13181   3.977  39.598   8.093
  738POPC   C4A13182   4.057  39.569   7.666
  738POPC   C1B13183   4.607  39.083   8.662
  738POPC   C2B13184   4.652  39.309   8.324
  738POPC   C3B13185   4.411  39.342   7.980
  738POPC   C4B13186   4.530  39.076   7.682
  739POPC   NC313187   4.676  44.074   9.431
  739POPC   PO413188   4.017  43.906   9.594
  739POPC   GL113189   4.238  43.822   9.243
  739POPC   GL213190   4.325  43.488   9.214
  739POPC   C1A13191   4.296  43.939   8.820
  739POPC   D2A13192   4.213  44.128   8.414
  739POPC   C3A13193   4.473  43.994   8.113
  739POPC   C4A13194   4.372  43.859   7.715
  739POPC   C1B13195   4.135  43.361   8.847
  739POPC   C2B13196   4.065  43.612   8.477
  739POPC   C3B13197   4.147  43.561   8.064
  739POPC   C4B13198   3.915  43.568   7.689
  740POPC   NC313199  16.859   0.049   9.589
  740POPC   PO413200  16.976   0.819   9.508
  740POPC   GL113201  16.683   0.510   9.276
  740POPC   GL213202  16.727   0.185   9.128
  740POPC   C1A13203  16.513   0.531   8.847
  740POPC   D2A13204  16.514   0.308   8.466
  740POPC   C3A13205  16.698   0.551   8.137
  740POPC   C4A13206  16.707   0.651   7.706
  740POPC   C1B13207  17.045   0.139   8.826
  740POPC   C2B13208  17.105   0.160   8.403
  740POPC   C3B13209  16.812   0.069   8.112
  740POPC   C4B13210  16.818   0.166   7.707
  741POPC   NC313211  21.088  14.704   9.533
  741POPC   PO413212  21.286  14.058   9.449
  741POPC   GL113213  21.223  14.375   9.135
  741POPC   GL213214  21.482  14.625   9.135
  741POPC   C1A13215  21.311  14.322   8.698
  741POPC   D2A13216  21.520  14.459   8.323
  741POPC   C3A13217  21.353  14.197   7.982
  741POPC   C4A13218  20.988  14.292   7.776
  741POPC   C1B13219  21.402  14.831   8.748
  741POPC   C2B13220  21.203  14.965   8.428
  741POPC   C3B13221  21.363  14.904   8.092
  741POPC   C4B13222  21.385  14.648   7.777
  742POPC   NC313223   0.520  24.946   9.691
  742POPC   PO413224   0.715  25.559   9.416
  742POPC   GL113225   0.655  25.281   9.116
  742POPC   GL213226   0.425  25.037   9.094
  742POPC   C1A13227   0.427  25.425   8.739
  742POPC   D2A13228   0.259  25.549   8.342
  742POPC   C3A13229   0.510  25.422   8.002
  742POPC   C4A13230   0.335  25.553   7.661
  742POPC   C1B13231   0.577  24.950   8.695
  742POPC   C2B13232   0.384  25.033   8.316
  742POPC   C3B13233   0.627  24.920   7.963
  742POPC   C4B13234   0.647  25.135   7.567
  743POPC   NC313235  20.186   3.485   9.562
  743POPC   PO413236  19.605   3.403   9.516
  743POPC   GL113237  19.852   3.535   9.141
  743POPC   GL213238  20.208   3.469   9.057
  743POPC   C1A13239  19.762   3.530   8.681
  743POPC   D2A13240  19.456   3.388   8.340
  743POPC   C3A13241  19.632   3.350   7.917
  743POPC   C4A13242  19.794   3.731   7.721
  743POPC   C1B13243  20.130   3.141   8.736
  743POPC   C2B13244  19.929   3.168   8.334
  743POPC   C3B13245  20.027   3.550   8.153
  743POPC   C4B13246  20.234   3.468   7.781
  744POPC   NC313247  28.715  24.828   9.436
  744POPC   PO413248  28.232  24.404   9.561
  744POPC   GL113249  28.266  24.310   9.153
  744POPC   GL213250  28.565  24.447   9.054
  744POPC   C1A13251  28.137  24.357   8.730
  744POPC   D2A13252  28.393  24.331   8.371
  744POPC   C3A13253  28.203  24.509   8.008
  744POPC   C4A13254  27.973  24.443   7.634
  744POPC   C1B13255  28.801  24.552   8.651
  744POPC   C2B13256  28.844  24.549   8.207
  744POPC   C3B13257  28.664  24.348   7.849
  744POPC   C4B13258  28.462  24.554   7.518
  745POPC   NC313259  10.937   4.613   9.397
  745POPC   PO413260  11.645   4.584   9.391
  745POPC   GL113261  11.339   4.386   9.148
  745POPC   GL213262  11.473   4.036   9.150
  745POPC   C1A13263  11.112   4.415   8.751
  745POPC   D2A13264  11.330   4.478   8.371
  745POPC   C3A13265  11.133   4.359   7.997
  745POPC   C4A13266  10.970   4.276   7.600
  745POPC   C1B13267  11.605   4.213   8.730
  745POPC   C2B13268  11.799   4.313   8.298
  745POPC   C3B13269  11.622   4.269   7.881
  745POPC   C4B13270  11.771   4.234   7.446
  746POPC   NC313271   4.011  17.632   9.266
  746POPC   PO413272   3.439  17.514   9.589
  746POPC   GL113273   3.466  17.501   9.147
  746POPC   GL213274   3.286  17.789   9.068
  746POPC   C1A13275   3.535  17.541   8.685
  746POPC   D2A13276   3.346  17.390   8.289
  746POPC   C3A13277   3.718  17.318   8.035
  746POPC   C4A13278   3.858  17.555   7.684
  746POPC   C1B13279   3.204  17.991   8.706
  746POPC   C2B13280   3.426  17.940   8.333
  746POPC   C3B13281   3.388  17.756   7.927
  746POPC   C4B13282   3.121  17.821   7.559
  747POPC   NC313283  43.689  18.425   9.530
  747POPC   PO413284  44.239  17.938   9.600
  747POPC   GL113285  44.080  18.184   9.180
  747POPC   GL213286  43.755  18.322   9.052
  747POPC   C1A13287  44.080  18.261   8.676
  747POPC   D2A13288  43.842  18.076   8.300
  747POPC   C3A13289  43.883  18.277   7.900
  747POPC   C4A13290  44.173  18.622   7.837
  747POPC   C1B13291  43.542  18.269   8.671
  747POPC   C2B13292  43.460  18.480   8.281
  747POPC   C3B13293  43.454  18.554   7.831
  747POPC   C4B13294  43.543  18.231   7.489
  748POPC   NC313295  28.077   3.480   9.546
  748POPC   PO413296  28.668   3.186   9.679
  748POPC   GL113297  28.474   3.489   9.216
  748POPC   GL213298  28.436   3.292   8.863
  748POPC   C1A13299  28.486   3.752   8.777
  748POPC   D2A13300  28.308   3.580   8.368
  748POPC   C3A13301  28.291   3.867   8.021
  748POPC   C4A13302  28.173   3.790   7.572
  748POPC   C1B13303  28.413   3.057   8.489
  748POPC   C2B13304  28.584   3.148   8.095
  748POPC   C3B13305  28.469   3.448   7.780
  748POPC   C4B13306  28.588   3.581   7.351
  749POPC   NC313307  35.028  38.807   9.685
  749POPC   PO413308  35.611  38.459   9.565
  749POPC   GL113309  35.247  38.395   9.240
  749POPC   GL213310  35.508  38.380   8.999
  749POPC   C1A13311  35.049  38.270   8.836
  749POPC   D2A13312  35.361  38.257   8.466
  749POPC   C3A13313  35.213  38.369   8.041
  749POPC   C4A13314  35.199  38.324   7.575
  749POPC   C1B13315  35.271  38.698   8.757
  749POPC   C2B13316  35.350  38.782   8.376
  749POPC   C3B13317  35.479  38.828   8.006
  749POPC   C4B13318  35.214  38.798   7.721
  750POPC   NC313319   9.040  21.129   9.701
  750POPC   PO413320   9.735  21.210   9.501
  750POPC   GL113321   9.645  21.025   9.095
  750POPC   GL213322   9.633  21.326   8.898
  750POPC   C1A13323   9.508  20.887   8.667
  750POPC   D2A13324   9.443  21.174   8.307
  750POPC   C3A13325   9.744  21.172   7.990
  750POPC   C4A13326   9.792  21.199   7.517
  750POPC   C1B13327   9.462  21.609   8.591
  750POPC   C2B13328   9.773  21.645   8.275
  750POPC   C3B13329   9.994  21.636   7.918
  750POPC   C4B13330   9.606  21.609   7.720
  751POPC   NC313331  42.966  23.986   9.557
  751POPC   PO413332  43.445  23.488   9.451
  751POPC   GL113333  43.342  23.829   9.194
  751POPC   GL213334  42.979  23.792   9.104
  751POPC   C1A13335  43.353  23.700   8.768
  751POPC   D2A13336  43.163  23.771   8.416
  751POPC   C3A13337  43.381  23.730   8.064
  751POPC   C4A13338  43.269  23.539   7.704
  751POPC   C1B13339  42.792  23.914   8.746
  751POPC   C2B13340  42.646  23.717   8.379
  751POPC   C3B13341  42.850  23.767   7.987
  751POPC   C4B13342  42.789  24.091   7.688
  752POPC   NC313343  38.264   1.491   9.733
  752POPC   PO413344  37.826   1.059   9.347
  752POPC   GL113345  37.962   1.030   8.951
  752POPC   GL213346  37.946   0.671   8.912
  752POPC   C1A13347  37.791   1.319   8.631
  752POPC   D2A13348  37.528   1.465   8.287
  752POPC   C3A13349  37.603   1.358   7.846
  752POPC   C4A13350  37.470   1.211   7.432
  752POPC   C1B13351  37.622   0.824   8.631
  752POPC   C2B13352  37.745   0.999   8.237
  752POPC   C3B13353  37.960   0.907   7.863
  752POPC   C4B13354  37.751   0.799   7.481
  753POPC   NC313355  39.738   5.305   9.495
  753POPC   PO413356  40.393   5.201   9.430
  753POPC   GL113357  40.020   5.069   9.122
  753POPC   GL213358  39.692   4.881   9.211
  753POPC   C1A13359  40.057   5.049   8.668
  753POPC   D2A13360  40.150   5.407   8.404
  753POPC   C3A13361  40.141   5.370   7.966
  753POPC   C4A13362  39.733   5.368   7.794
  753POPC   C1B13363  39.682   4.731   8.796
  753POPC   C2B13364  39.700   4.758   8.346
  753POPC   C3B13365  39.879   4.908   7.974
  753POPC   C4B13366  40.179   4.716   7.743
  754POPC   NC313367  41.247  39.408   9.671
  754POPC   PO413368  41.842  39.116   9.517
  754POPC   GL113369  41.727  39.106   9.121
  754POPC   GL213370  41.384  39.212   9.196
  754POPC   C1A13371  41.705  39.040   8.698
  754POPC   D2A13372  41.867  39.212   8.330
  754POPC   C3A13373  41.597  39.117   8.026
  754POPC   C4A13374  41.725  38.847   7.734
  754POPC   C1B13375  41.483  39.467   8.857
  754POPC   C2B13376  41.389  39.392   8.435
  754POPC   C3B13377  41.294  39.641   8.075
  754POPC   C4B13378  41.493  39.496   7.694
  755POPC   NC313379  43.098  13.848   9.390
  755POPC   PO413380  43.548  13.375   9.491
  755POPC   GL113381  43.424  13.465   9.058
  755POPC   GL213382  43.047  13.520   9.012
  755POPC   C1A13383  43.286  13.351   8.607
  755POPC   D2A13384  42.929  13.632   8.497
  755POPC   C3A13385  42.743  13.547   8.128
  755POPC   C4A13386  42.797  13.380   7.722
  755POPC   C1B13387  43.328  13.844   8.759
  755POPC   C2B13388  43.375  13.866   8.301
  755POPC   C3B13389  43.213  13.809   7.846
  755POPC   C4B13390  43.488  13.746   7.406
  756POPC   NC313391  29.893  44.522   9.710
  756POPC   PO413392  29.623   0.235   9.619
  756POPC   GL113393  29.570  44.909   9.212
  756POPC   GL213394  29.787  44.594   9.206
  756POPC   C1A13395  29.828  44.858   8.786
  756POPC   D2A13396  29.885  44.595   8.435
  756POPC   C3A13397  29.645  44.793   8.155
  756POPC   C4A13398  29.610  44.792   7.736
  756POPC   C1B13399  29.599  44.389   8.811
  756POPC   C2B13400  29.477  44.332   8.338
  756POPC   C3B13401  29.610  44.317   7.910
  756POPC   C4B13402  29.902  44.364   7.583
  757POPC   NC313403  30.039  32.691   9.508
  757POPC   PO413404  29.503  33.165   9.481
  757POPC   GL113405  29.803  33.005   9.155
  757POPC   GL213406  29.770  32.655   9.090
  757POPC   C1A13407  30.128  32.934   8.810
  757POPC   D2A13408  29.961  32.930   8.373
  757POPC   C3A13409  30.125  33.064   7.993
  757POPC   C4A13410  29.979  33.014   7.559
  757POPC   C1B13411  29.598  32.804   8.704
  757POPC   C2B13412  29.537  32.638   8.282
  757POPC   C3B13413  29.707  32.678   7.863
  757POPC   C4B13414  29.563  32.760   7.412
  758POPC   NC313415  11.526  31.687   9.406
  758POPC   PO413416  10.932  31.290   9.436
  758POPC   GL113417  11.108  31.565   9.112
  758POPC   GL213418  11.342  31.344   9.047
  758POPC   C1A13419  11.216  31.611   8.639
  758POPC   D2A13420  11.217  31.293   8.318
  758POPC   C3A13421  11.327  31.415   7.925
  758POPC   C4A13422  11.223  31.861   7.953
  758POPC   C1B13423  11.595  31.266   8.708
  758POPC   C2B13424  11.727  31.397   8.297
  758POPC   C3B13425  11.804  31.557   7.884
  758POPC   C4B13426  11.846  31.571   7.421
  759POPC   NC313427  24.369  22.677   9.433
  759POPC   PO413428  24.952  22.541   9.065
  759POPC   GL113429  24.559  22.832   8.984
  759POPC   GL213430  24.582  23.203   8.937
  759POPC   C1A13431  24.202  22.737   8.667
  759POPC   D2A13432  24.282  22.645   8.197
  759POPC   C3A13433  24.629  22.861   8.022
  759POPC   C4A13434  24.823  22.807   7.631
  759POPC   C1B13435  24.161  23.244   8.700
  759POPC   C2B13436  23.989  23.205   8.282
  759POPC   C3B13437  24.265  23.319   7.934
  759POPC   C4B13438  24.659  23.292   7.712
  760POPC   NC313439  10.280  14.387   9.382
  760POPC   PO413440   9.600  14.327   9.483
  760POPC   GL113441   9.794  14.495   9.114
  760POPC   GL213442   9.870  14.838   9.118
  760POPC   C1A13443   9.828  14.430   8.651
  760POPC   D2A13444   9.824  14.680   8.261
  760POPC   C3A13445   9.857  14.425   7.891
  760POPC   C4A13446   9.872  13.967   7.809
  760POPC   C1B13447   9.584  14.859   8.739
  760POPC   C2B13448   9.342  14.613   8.428
  760POPC   C3B13449   9.368  14.601   7.983
  760POPC   C4B13450   9.232  14.769   7.595
  761POPC   NC313451  29.466  14.645   9.821
  761POPC   PO413452  29.498  14.491   9.201
  761POPC   GL113453  29.158  14.580   8.935
  761POPC   GL213454  29.096  14.275   8.956
  761POPC   C1A13455  28.878  14.588   8.589
  761POPC   D2A13456  29.150  14.541   8.271
  761POPC   C3A13457  29.140  14.646   7.866
  761POPC   C4A13458  29.135  14.713   7.461
  761POPC   C1B13459  29.424  14.131   8.659
  761POPC   C2B13460  29.460  14.124   8.260
  761POPC   C3B13461  29.283  14.163   7.932
  761POPC   C4B13462  29.335  14.264   7.545
  762POPC   NC313463  15.278  14.912   9.533
  762POPC   PO413464  15.431  15.496   9.413
  762POPC   GL113465  15.305  15.169   9.096
  762POPC   GL213466  14.975  15.023   9.133
  762POPC   C1A13467  15.310  14.917   8.729
  762POPC   D2A13468  15.177  15.048   8.336
  762POPC   C3A13469  15.385  14.960   7.986
  762POPC   C4A13470  15.434  15.176   7.601
  762POPC   C1B13471  14.826  15.147   8.718
  762POPC   C2B13472  14.728  15.266   8.282
  762POPC   C3B13473  14.915  15.195   7.861
  762POPC   C4B13474  14.881  14.978   7.436
  763POPC   NC313475   5.507  19.854   9.234
  763POPC   PO413476   4.853  20.047   9.560
  763POPC   GL113477   5.036  20.010   9.213
  763POPC   GL213478   5.037  19.637   9.136
  763POPC   C1A13479   5.050  20.006   8.786
  763POPC   D2A13480   5.325  20.009   8.479
  763POPC   C3A13481   5.296  20.035   8.066
  763POPC   C4A13482   5.109  19.972   7.719
  763POPC   C1B13483   5.237  19.503   8.699
  763POPC   C2B13484   5.389  19.535   8.251
  763POPC   C3B13485   5.159  19.482   7.840
  763POPC   C4B13486   5.290  19.263   7.442
  764POPC   NC313487  20.225  39.134   9.471
  764POPC   PO413488  19.619  39.366   9.523
  764POPC   GL113489  19.743  39.479   9.135
  764POPC   GL213490  19.847  39.103   9.061
  764POPC   C1A13491  19.897  39.497   8.722
  764POPC   D2A13492  19.873  39.115   8.478
  764POPC   C3A13493  19.774  39.169   8.091
  764POPC   C4A13494  19.778  39.563   7.899
  764POPC   C1B13495  19.948  38.731   8.786
  764POPC   C2B13496  20.215  38.602   8.427
  764POPC   C3B13497  20.233  38.732   7.977
  764POPC   C4B13498  20.043  39.050   7.675
  765POPC   NC313499  30.786   3.015   9.374
  765POPC   PO413500  30.417   2.470   9.331
  765POPC   GL113501  30.687   2.578   8.993
  765POPC   GL213502  31.033   2.653   9.081
  765POPC   C1A13503  30.561   2.713   8.587
  765POPC   D2A13504  30.407   2.901   8.226
  765POPC   C3A13505  30.713   2.829   7.884
  765POPC   C4A13506  30.965   2.491   7.668
  765POPC   C1B13507  30.994   2.981   8.744
  765POPC   C2B13508  30.877   3.085   8.324
  765POPC   C3B13509  31.035   3.242   7.938
  765POPC   C4B13510  31.110   2.997   7.569
  766POPC   NC313511  25.377   7.090   9.727
  766POPC   PO413512  25.502   7.712   9.430
  766POPC   GL113513  25.249   7.411   9.190
  766POPC   GL213514  25.369   7.051   9.104
  766POPC   C1A13515  25.317   7.411   8.737
  766POPC   D2A13516  25.238   7.277   8.335
  766POPC   C3A13517  25.148   7.626   8.067
  766POPC   C4A13518  25.243   7.726   7.647
  766POPC   C1B13519  25.690   7.025   8.739
  766POPC   C2B13520  25.813   7.307   8.394
  766POPC   C3B13521  25.615   7.369   7.970
  766POPC   C4B13522  25.231   7.182   7.824
  767POPC   NC313523  43.661  21.148   9.631
  767POPC   PO413524  44.223  21.454   9.591
  767POPC   GL113525  44.076  21.130   9.306
  767POPC   GL213526  43.823  21.386   9.201
  767POPC   C1A13527  43.937  21.014   8.880
  767POPC   D2A13528  43.866  21.293   8.526
  767POPC   C3A13529  44.029  21.180   8.123
  767POPC   C4A13530  43.770  21.179   7.770
  767POPC   C1B13531  43.749  21.737   8.919
  767POPC   C2B13532  43.804  21.838   8.497
  767POPC   C3B13533  43.789  21.665   8.092
  767POPC   C4B13534  43.690  21.742   7.665
  768POPC   NC313535  30.637  24.762   9.493
  768POPC   PO413536  30.856  24.102   9.388
  768POPC   GL113537  30.671  24.415   9.126
  768POPC   GL213538  30.914  24.648   9.083
  768POPC   C1A13539  30.567  24.401   8.709
  768POPC   D2A13540  30.799  24.151   8.406
  768POPC   C3A13541  30.742  24.331   8.033
  768POPC   C4A13542  30.581  24.419   7.628
  768POPC   C1B13543  30.824  24.839   8.693
  768POPC   C2B13544  30.657  24.794   8.269
  768POPC   C3B13545  30.840  24.815   7.837
  768POPC   C4B13546  30.732  24.826   7.370
  769POPC   NC313547  30.409  39.207   9.509
  769POPC   PO413548  29.828  39.404   9.472
  769POPC   GL113549  29.769  39.123   9.113
  769POPC   GL213550  30.109  39.134   9.115
  769POPC   C1A13551  29.876  39.007   8.676
  769POPC   D2A13552  29.805  39.263   8.320
  769POPC   C3A13553  29.700  39.098   7.901
  769POPC   C4A13554  29.714  38.791   7.506
  769POPC   C1B13555  30.350  39.302   8.816
  769POPC   C2B13556  30.241  39.537   8.430
  769POPC   C3B13557  30.212  39.370   8.028
  769POPC   C4B13558  30.421  39.408   7.635
  770POPC   NC313559   9.535  15.724   9.574
  770POPC   PO413560   9.843  16.339   9.555
  770POPC   GL113561   9.828  16.039   9.206
  770POPC   GL213562   9.558  15.791   9.072
  770POPC   C1A13563   9.743  16.202   8.825
  770POPC   D2A13564   9.870  16.158   8.422
  770POPC   C3A13565   9.648  15.950   8.069
  770POPC   C4A13566   9.724  16.039   7.628
  770POPC   C1B13567   9.894  15.707   8.774
  770POPC   C2B13568  10.085  15.562   8.411
  770POPC   C3B13569  10.082  15.458   7.983
  770POPC   C4B13570   9.728  15.525   7.729
  771POPC   NC313571  24.016  24.306   9.557
  771POPC   PO413572  23.385  24.468   9.409
  771POPC   GL113573  23.678  24.500   9.134
  771POPC   GL213574  23.876  24.706   9.125
  771POPC   C1A13575  23.731  24.407   8.728
  771POPC   D2A13576  23.464  24.273   8.417
  771POPC   C3A13577  23.626  24.253   8.022
  771POPC   C4A13578  23.557  24.119   7.581
  771POPC   C1B13579  23.704  24.921   8.792
  771POPC   C2B13580  23.803  24.792   8.400
  771POPC   C3B13581  23.759  24.866   8.009
  771POPC   C4B13582  23.830  24.575   7.674
  772POPC   NC313583  33.043  33.741   9.669
  772POPC   PO413584  33.312  34.156   9.230
  772POPC   GL113585  32.946  33.892   9.137
  772POPC   GL213586  32.989  33.577   9.166
  772POPC   C1A13587  32.764  33.896   8.740
  772POPC   D2A13588  32.930  34.231   8.426
  772POPC   C3A13589  33.039  34.055   8.028
  772POPC   C4A13590  32.798  33.826   7.769
  772POPC   C1B13591  33.228  33.634   8.776
  772POPC   C2B13592  33.101  33.700   8.395
  772POPC   C3B13593  32.979  33.468   8.074
  772POPC   C4B13594  33.184  33.466   7.682
  773POPC   NC313595  31.270  21.549   9.598
  773POPC   PO413596  31.736  21.102   9.422
  773POPC   GL113597  31.523  21.423   9.163
  773POPC   GL213598  31.200  21.302   9.151
  773POPC   C1A13599  31.535  21.783   8.837
  773POPC   D2A13600  31.337  21.767   8.418
  773POPC   C3A13601  31.573  21.741   8.047
  773POPC   C4A13602  31.726  21.613   7.642
  773POPC   C1B13603  31.204  21.404   8.736
  773POPC   C2B13604  31.406  21.264   8.346
  773POPC   C3B13605  31.321  21.320   7.937
  773POPC   C4B13606  31.059  21.062   7.731
  774POPC   NC313607   1.033  29.217   9.357
  774POPC   PO413608   1.670  29.461   9.374
  774POPC   GL113609   1.443  29.188   9.026
  774POPC   GL213610   1.280  28.839   9.089
  774POPC   C1A13611   1.079  29.214   8.700
  774POPC   D2A13612   0.985  29.338   8.277
  774POPC   C3A13613   1.372  29.238   8.092
  774POPC   C4A13614   1.536  29.271   7.703
  774POPC   C1B13615   1.042  28.693   8.723
  774POPC   C2B13616   1.058  28.730   8.276
  774POPC   C3B13617   1.127  28.858   7.855
  774POPC   C4B13618   1.188  28.665   7.457
  775POPC   NC313619  20.891  29.908   9.913
  775POPC   PO413620  21.497  29.921   9.602
  775POPC   GL113621  21.378  30.089   9.199
  775POPC   GL213622  21.727  30.100   9.096
  775POPC   C1A13623  21.216  29.928   8.812
  775POPC   D2A13624  21.306  29.710   8.418
  775POPC   C3A13625  21.111  29.884   8.056
  775POPC   C4A13626  21.178  29.869   7.636
  775POPC   C1B13627  21.732  29.867   8.731
  775POPC   C2B13628  21.700  30.011   8.318
  775POPC   C3B13629  21.620  29.827   7.950
  775POPC   C4B13630  21.857  29.980   7.630
  776POPC   NC313631   0.009  22.306   9.390
  776POPC   PO413632  44.530  22.368   9.843
  776POPC   GL113633  44.492  22.301   9.291
  776POPC   GL213634  44.428  21.981   9.148
  776POPC   C1A13635  44.523  22.407   8.785
  776POPC   D2A13636  44.569  22.223   8.332
  776POPC   C3A13637  44.633  22.424   7.903
  776POPC   C4A13638  44.727  22.451   7.426
  776POPC   C1B13639  44.602  21.910   8.748
  776POPC   C2B13640  44.811  21.788   8.393
  776POPC   C3B13641  44.806  21.880   7.982
  776POPC   C4B13642  44.591  21.992   7.608
  777POPC   NC313643  44.182  41.965   9.470
  777POPC   PO413644  43.539  42.091   9.478
  777POPC   GL113645  43.749  42.212   9.142
  777POPC   GL213646  43.787  42.538   9.253
  777POPC   C1A13647  43.930  42.114   8.747
  777POPC   D2A13648  43.972  41.790   8.439
  777POPC   C3A13649  43.858  42.003   8.055
  777POPC   C4A13650  44.153  42.068   7.769
  777POPC   C1B13651  44.046  42.746   8.950
  777POPC   C2B13652  44.177  42.686   8.523
  777POPC   C3B13653  44.184  42.477   8.109
  777POPC   C4B13654  43.848  42.479   7.809
  778POPC   NC313655  27.701  29.523   9.588
  778POPC   PO413656  27.419  28.916   9.724
  778POPC   GL113657  27.393  29.107   9.316
  778POPC   GL213658  27.749  29.078   9.199
  778POPC   C1A13659  27.379  29.146   8.843
  778POPC   D2A13660  27.671  29.169   8.460
  778POPC   C3A13661  27.521  29.117   8.038
  778POPC   C4A13662  27.715  28.954   7.673
  778POPC   C1B13663  28.044  29.028   8.816
  778POPC   C2B13664  28.193  29.093   8.389
  778POPC   C3B13665  28.031  29.210   7.978
  778POPC   C4B13666  28.098  29.263   7.521
  779POPC   NC313667  10.265  16.055   9.519
  779POPC   PO413668  10.913  15.749   9.491
  779POPC   GL113669  10.659  15.781   9.123
  779POPC   GL213670  10.296  15.717   9.145
  779POPC   C1A13671  10.755  16.038   8.755
  779POPC   D2A13672  10.923  15.941   8.360
  779POPC   C3A13673  10.655  15.845   8.027
  779POPC   C4A13674  10.555  16.183   7.810
  779POPC   C1B13675  10.253  16.042   8.844
  779POPC   C2B13676  10.360  15.993   8.425
  779POPC   C3B13677  10.155  15.964   8.037
  779POPC   C4B13678  10.210  15.837   7.633
  780POPC   NC313679  10.165  33.193   9.358
  780POPC   PO413680   9.605  32.911   9.298
  780POPC   GL113681   9.926  32.898   8.998
  780POPC   GL213682  10.000  32.541   9.012
  780POPC   C1A13683   9.913  33.249   8.698
  780POPC   D2A13684   9.649  33.249   8.339
  780POPC   C3A13685   9.878  32.992   8.083
  780POPC   C4A13686  10.111  33.028   7.682
  780POPC   C1B13687   9.668  32.521   8.685
  780POPC   C2B13688   9.415  32.745   8.379
  780POPC   C3B13689   9.390  32.937   7.976
  780POPC   C4B13690   9.652  32.770   7.684
  781POPC   NC313691   8.428   1.300   9.447
  781POPC   PO413692   7.767   1.213   9.590
  781POPC   GL113693   7.966   1.288   9.177
  781POPC   GL213694   8.159   0.991   9.103
  781POPC   C1A13695   8.099   1.411   8.745
  781POPC   D2A13696   8.250   1.318   8.311
  781POPC   C3A13697   8.065   1.085   7.986
  781POPC   C4A13698   7.877   1.310   7.654
  781POPC   C1B13699   8.473   1.054   8.789
  781POPC   C2B13700   8.537   0.925   8.382
  781POPC   C3B13701   8.608   1.087   8.012
  781POPC   C4B13702   8.408   1.366   7.740
  782POPC   NC313703  15.272  32.489   9.595
  782POPC   PO413704  14.718  31.955   9.372
  782POPC   GL113705  15.030  32.230   9.191
  782POPC   GL213706  14.818  32.404   9.008
  782POPC   C1A13707  15.295  32.202   8.827
  782POPC   D2A13708  15.281  32.053   8.376
  782POPC   C3A13709  15.068  32.312   8.055
  782POPC   C4A13710  15.166  32.421   7.637
  782POPC   C1B13711  14.835  32.214   8.583
  782POPC   C2B13712  14.796  31.925   8.237
  782POPC   C3B13713  14.736  31.953   7.793
  782POPC   C4B13714  14.889  32.083   7.398
  783POPC   NC313715  39.695  39.078   9.287
  783POPC   PO413716  39.238  39.317   9.797
  783POPC   GL113717  39.237  39.280   9.295
  783POPC   GL213718  39.180  39.000   9.104
  783POPC   C1A13719  39.370  39.373   8.806
  783POPC   D2A13720  39.508  39.280   8.403
  783POPC   C3A13721  39.437  39.504   8.039
  783POPC   C4A13722  39.297  39.459   7.653
  783POPC   C1B13723  39.255  38.873   8.699
  783POPC   C2B13724  39.120  38.979   8.278
  783POPC   C3B13725  39.156  39.015   7.832
  783POPC   C4B13726  39.103  38.979   7.352
  784POPC   NC313727   3.720  18.576   9.427
  784POPC   PO413728   3.313  19.162   9.446
  784POPC   GL113729   3.587  19.078   9.177
  784POPC   GL213730   3.526  19.359   8.991
  784POPC   C1A13731   3.586  18.840   8.826
  784POPC   D2A13732   3.723  18.824   8.428
  784POPC   C3A13733   3.538  19.042   8.099
  784POPC   C4A13734   3.621  18.994   7.681
  784POPC   C1B13735   3.540  19.319   8.554
  784POPC   C2B13736   3.391  19.541   8.209
  784POPC   C3B13737   3.550  19.499   7.799
  784POPC   C4B13738   3.654  19.514   7.365
  785POPC   NC313739  34.637  39.484   9.402
  785POPC   PO413740  34.145  39.067   9.578
  785POPC   GL113741  34.430  39.025   9.172
  785POPC   GL213742  34.565  39.322   8.948
  785POPC   C1A13743  34.252  39.003   8.730
  785POPC   D2A13744  34.279  38.814   8.312
  785POPC   C3A13745  34.665  38.924   8.100
  785POPC   C4A13746  34.790  39.065   7.676
  785POPC   C1B13747  34.933  39.586   8.807
  785POPC   C2B13748  34.869  39.572   8.369
  785POPC   C3B13749  34.765  39.835   8.051
  785POPC   C4B13750  34.818  39.601   7.688
  786POPC   NC313751  21.420  41.059   9.594
  786POPC   PO413752  20.965  41.175   9.128
  786POPC   GL113753  21.204  40.902   8.920
  786POPC   GL213754  21.375  40.711   9.149
  786POPC   C1A13755  21.154  40.693   8.543
  786POPC   D2A13756  21.282  40.507   8.197
  786POPC   C3A13757  21.319  40.876   8.003
  786POPC   C4A13758  21.258  40.886   7.606
  786POPC   C1B13759  21.641  40.649   8.756
  786POPC   C2B13760  21.775  40.478   8.325
  786POPC   C3B13761  21.713  40.560   7.882
  786POPC   C4B13762  21.777  40.976   7.735
  787POPC   NC313763  27.052  36.828   9.674
  787POPC   PO413764  26.529  37.184   9.755
  787POPC   GL113765  26.740  36.955   9.284
  787POPC   GL213766  26.977  36.679   9.178
  787POPC   C1A13767  26.956  37.064   8.847
  787POPC   D2A13768  27.156  36.945   8.416
  787POPC   C3A13769  26.901  36.836   8.061
  787POPC   C4A13770  26.949  36.922   7.634
  787POPC   C1B13771  26.972  36.550   8.717
  787POPC   C2B13772  27.168  36.448   8.295
  787POPC   C3B13773  27.303  36.584   7.851
  787POPC   C4B13774  27.191  36.534   7.387
  788POPC   NC313775  32.975   4.783   9.352
  788POPC   PO413776  32.942   5.402   9.652
  788POPC   GL113777  32.904   5.318   9.166
  788POPC   GL213778  32.989   5.021   8.928
  788POPC   C1A13779  32.825   5.416   8.694
  788POPC   D2A13780  32.907   5.094   8.375
  788POPC   C3A13781  32.799   5.176   7.956
  788POPC   C4A13782  33.078   5.157   7.623
  788POPC   C1B13783  33.320   5.164   8.692
  788POPC   C2B13784  33.512   4.981   8.345
  788POPC   C3B13785  33.287   4.880   8.001
  788POPC   C4B13786  33.531   4.970   7.680
  789POPC   NC313787  19.470   0.050   9.471
  789POPC   PO413788  19.946   0.467   9.362
  789POPC   GL113789  19.661   0.387   9.076
  789POPC   GL213790  19.565   0.004   8.983
  789POPC   C1A13791  19.762   0.634   8.710
  789POPC   D2A13792  19.668   0.794   8.339
  789POPC   C3A13793  19.915   0.623   8.022
  789POPC   C4A13794  19.781   0.552   7.619
  789POPC   C1B13795  19.453   0.245   8.648
  789POPC   C2B13796  19.647   0.265   8.284
  789POPC   C3B13797  19.525   0.195   7.883
  789POPC   C4B13798  19.587  44.907   7.611
  790POPC   NC313799  44.474  13.294   9.563
  790POPC   PO413800  44.913  13.853   9.603
  790POPC   GL113801  44.587  13.751   9.296
  790POPC   GL213802  44.571  13.400   9.098
  790POPC   C1A13803  44.624  13.827   8.863
  790POPC   D2A13804  44.846  13.766   8.484
  790POPC   C3A13805  44.580  13.756   8.112
  790POPC   C4A13806  44.491  13.837   7.669
  790POPC   C1B13807  44.887  13.329   8.787
  790POPC   C2B13808  44.849  13.280   8.353
  790POPC   C3B13809  44.993  13.467   7.977
  790POPC   C4B13810  44.646  13.348   7.786
  791POPC   NC313811  24.706  24.394   9.455
  791POPC   PO413812  24.090  24.772   9.563
  791POPC   GL113813  24.388  24.743   9.219
  791POPC   GL213814  24.307  24.431   9.131
  791POPC   C1A13815  24.675  24.620   8.839
  791POPC   D2A13816  24.830  24.762   8.438
  791POPC   C3A13817  24.606  24.702   8.038
  791POPC   C4A13818  24.545  24.296   7.883
  791POPC   C1B13819  24.184  24.644   8.748
  791POPC   C2B13820  24.354  24.488   8.414
  791POPC   C3B13821  24.124  24.497   8.066
  791POPC   C4B13822  24.063  24.142   7.784
  792POPC   NC313823  17.188  37.865   9.535
  792POPC   PO413824  16.519  37.774   9.506
  792POPC   GL113825  16.728  37.635   9.153
  792POPC   GL213826  16.931  37.364   9.302
  792POPC   C1A13827  16.547  37.623   8.724
  792POPC   D2A13828  16.467  37.885   8.359
  792POPC   C3A13829  16.657  37.738   7.960
  792POPC   C4A13830  16.449  37.713   7.567
  792POPC   C1B13831  16.944  37.304   8.819
  792POPC   C2B13832  16.760  37.267   8.384
  792POPC   C3B13833  16.929  37.281   7.953
  792POPC   C4B13834  16.818  37.371   7.506
  793POPC   NC313835  17.036  41.243   9.396
  793POPC   PO413836  16.762  41.799   9.359
  793POPC   GL113837  16.619  41.456   9.122
  793POPC   GL213838  16.627  41.721   8.854
  793POPC   C1A13839  16.576  41.234   8.739
  793POPC   D2A13840  16.641  41.480   8.370
  793POPC   C3A13841  16.395  41.375   8.007
  793POPC   C4A13842  16.588  41.336   7.580
  793POPC   C1B13843  17.006  41.961   8.760
  793POPC   C2B13844  17.227  41.955   8.392
  793POPC   C3B13845  17.050  41.990   8.028
  793POPC   C4B13846  16.771  41.696   7.868
  794POPC   NC313847  10.938  40.867   9.370
  794POPC   PO413848  10.336  41.144   9.453
  794POPC   GL113849  10.444  40.734   9.225
  794POPC   GL213850  10.738  40.649   8.986
  794POPC   C1A13851  10.276  40.584   8.837
  794POPC   D2A13852  10.121  40.790   8.456
  794POPC   C3A13853  10.476  40.730   8.154
  794POPC   C4A13854  10.448  40.541   7.721
  794POPC   C1B13855  10.970  40.802   8.680
  794POPC   C2B13856  10.930  41.123   8.444
  794POPC   C3B13857  11.008  41.125   8.049
  794POPC   C4B13858  10.824  40.869   7.757
  795POPC   NC313859  18.129   1.332   9.639
  795POPC   PO413860  18.531   0.873   9.462
  795POPC   GL113861  18.200   1.093   9.162
  795POPC   GL213862  18.013   1.423   9.138
  795POPC   C1A13863  18.105   1.042   8.720
  795POPC   D2A13864  18.421   0.891   8.413
  795POPC   C3A13865  18.339   0.930   7.983
  795POPC   C4A13866  18.600   0.904   7.637
  795POPC   C1B13867  18.338   1.500   8.818
  795POPC   C2B13868  18.444   1.417   8.399
  795POPC   C3B13869  18.359   1.630   8.030
  795POPC   C4B13870  18.271   1.373   7.724
  796POPC   NC313871  22.282  41.736   9.800
  796POPC   PO413872  21.878  41.294   9.517
  796POPC   GL113873  22.119  41.396   9.151
  796POPC   GL213874  22.380  41.132   9.121
  796POPC   C1A13875  22.045  41.650   8.752
  796POPC   D2A13876  22.088  41.907   8.347
  796POPC   C3A13877  22.039  41.624   8.002
  796POPC   C4A13878  21.898  41.496   7.595
  796POPC   C1B13879  22.409  41.253   8.721
  796POPC   C2B13880  22.483  41.607   8.469
  796POPC   C3B13881  22.560  41.782   8.080
  796POPC   C4B13882  22.464  41.565   7.713
  797POPC   NC313883  20.837  13.785   9.361
  797POPC   PO413884  20.917  13.129   9.477
  797POPC   GL113885  21.177  13.431   9.202
  797POPC   GL213886  20.949  13.489   8.955
  797POPC   C1A13887  21.372  13.700   8.821
  797POPC   D2A13888  21.310  13.878   8.378
  797POPC   C3A13889  21.467  13.681   7.953
  797POPC   C4A13890  21.653  13.606   7.511
  797POPC   C1B13891  20.869  13.888   8.690
  797POPC   C2B13892  20.843  14.045   8.239
  797POPC   C3B13893  20.975  13.779   7.895
  797POPC   C4B13894  21.157  13.438   7.600
  798POPC   NC313895  35.699  10.832   9.460
  798POPC   PO413896  35.294  10.305   9.393
  798POPC   GL113897  35.148  10.610   9.069
  798POPC   GL213898  35.419  10.872   9.026
  798POPC   C1A13899  35.282  10.564   8.622
  798POPC   D2A13900  35.663  10.373   8.395
  798POPC   C3A13901  35.583  10.345   7.945
  798POPC   C4A13902  35.105  10.287   7.871
  798POPC   C1B13903  35.711  10.855   8.641
  798POPC   C2B13904  35.700  10.821   8.172
  798POPC   C3B13905  35.299  10.762   7.943
  798POPC   C4B13906  34.969  10.726   7.640
  799POPC   NC313907  38.954  37.073   9.500
  799POPC   PO413908  39.612  37.046   9.536
  799POPC   GL113909  39.406  37.001   9.150
  799POPC   GL213910  39.554  36.684   9.109
  799POPC   C1A13911  39.033  36.975   8.858
  799POPC   D2A13912  38.931  36.845   8.464
  799POPC   C3A13913  39.182  36.990   8.127
  799POPC   C4A13914  39.233  36.952   7.693
  799POPC   C1B13915  39.298  36.561   8.742
  799POPC   C2B13916  39.266  36.480   8.328
  799POPC   C3B13917  39.435  36.558   7.951
  799POPC   C4B13918  39.544  36.565   7.522
  800POPC   NC313919  38.618  44.981   9.470
  800POPC   PO413920  38.201  44.472   9.559
  800POPC   GL113921  38.293  44.517   9.137
  800POPC   GL213922  38.134  44.840   9.152
  800POPC   C1A13923  38.335  44.372   8.695
  800POPC   D2A13924  38.162  44.222   8.282
  800POPC   C3A13925  38.432  44.411   7.935
  800POPC   C4A13926  38.773  44.717   7.885
  800POPC   C1B13927  38.314  44.888   8.734
  800POPC   C2B13928  38.275  44.739   8.307
  800POPC   C3B13929  38.293  44.922   7.890
  800POPC   C4B13930  38.312   0.037   7.450
  801POPC   NC313931  39.785  12.191   9.700
  801POPC   PO413932  40.345  11.892   9.452
  801POPC   GL113933  40.129  11.973   9.048
  801POPC   GL213934  39.896  12.219   9.158
  801POPC   C1A13935  40.180  12.076   8.594
  801POPC   D2A13936  40.388  11.887   8.221
  801POPC   C3A13937  40.145  11.971   7.927
  801POPC   C4A13938  40.034  12.321   7.766
  801POPC   C1B13939  39.703  12.063   8.765
  801POPC   C2B13940  39.739  11.910   8.333
  801POPC   C3B13941  39.615  12.070   7.920
  801POPC   C4B13942  39.763  12.028   7.474
  802POPC   NC313943  31.293  26.105   9.646
  802POPC   PO413944  31.933  26.036   9.662
  802POPC   GL113945  31.534  26.050   9.224
  802POPC   GL213946  31.228  26.200   9.128
  802POPC   C1A13947  31.503  26.097   8.728
  802POPC   D2A13948  31.708  25.827   8.429
  802POPC   C3A13949  31.717  25.937   8.006
  802POPC   C4A13950  31.540  26.310   7.814
  802POPC   C1B13951  31.208  25.745   8.970
  802POPC   C2B13952  31.165  25.672   8.543
  802POPC   C3B13953  31.233  25.962   8.200
  802POPC   C4B13954  31.288  25.881   7.740
  803POPC   NC313955  27.858  39.457   9.514
  803POPC   PO413956  27.323  39.019   9.499
  803POPC   GL113957  27.629  39.122   9.151
  803POPC   GL213958  27.917  38.910   9.086
  803POPC   C1A13959  27.617  39.382   8.768
  803POPC   D2A13960  27.559  39.588   8.369
  803POPC   C3A13961  27.582  39.352   8.009
  803POPC   C4A13962  27.848  39.419   7.678
  803POPC   C1B13963  27.793  38.912   8.681
  803POPC   C2B13964  27.891  39.086   8.303
  803POPC   C3B13965  27.912  38.925   7.873
  803POPC   C4B13966  28.043  39.028   7.420
  804POPC   NC313967   1.038  30.957   9.439
  804POPC   PO413968   1.484  30.390   9.431
  804POPC   GL113969   1.261  30.613   9.139
  804POPC   GL213970   1.396  30.935   9.071
  804POPC   C1A13971   1.062  30.549   8.755
  804POPC   D2A13972   1.123  30.351   8.361
  804POPC   C3A13973   1.086  30.637   8.015
  804POPC   C4A13974   0.926  31.049   7.841
  804POPC   C1B13975   1.155  31.089   8.746
  804POPC   C2B13976   1.311  31.260   8.364
  804POPC   C3B13977   1.491  31.094   7.984
  804POPC   C4B13978   1.367  30.982   7.554
  805POPC   NC313979  12.751  30.386   9.587
  805POPC   PO413980  13.221  29.854   9.670
  805POPC   GL113981  12.994  30.019   9.288
  805POPC   GL213982  13.177  30.222   9.076
  805POPC   C1A13983  12.659  30.031   8.920
  805POPC   D2A13984  12.528  29.813   8.503
  805POPC   C3A13985  12.519  30.022   8.065
  805POPC   C4A13986  12.638  29.984   7.601
  805POPC   C1B13987  13.103  29.824   8.807
  805POPC   C2B13988  13.022  29.756   8.368
  805POPC   C3B13989  13.002  29.842   7.937
  805POPC   C4B13990  13.090  30.216   7.668
  806POPC   NC313991  28.968  30.400   9.409
  806POPC   PO413992  29.262  31.085   9.448
  806POPC   GL113993  29.050  30.842   9.116
  806POPC   GL213994  29.233  30.517   8.995
  806POPC   C1A13995  29.134  30.906   8.671
  806POPC   D2A13996  29.442  30.751   8.410
  806POPC   C3A13997  29.325  30.580   8.025
  806POPC   C4A13998  29.149  30.700   7.626
  806POPC   C1B13999  28.873  30.489   8.731
  806POPC   C2B14000  28.913  30.613   8.314
  806POPC   C3B14001  28.786  30.465   7.905
  806POPC   C4B14002  28.759  30.449   7.403
  807POPC   NC314003  21.396  25.873   9.832
  807POPC   PO414004  21.030  26.209   9.325
  807POPC   GL114005  21.403  26.176   8.964
  807POPC   GL214006  21.636  25.836   8.963
  807POPC   C1A14007  21.447  26.061   8.553
  807POPC   D2A14008  21.314  26.144   8.182
  807POPC   C3A14009  21.020  26.416   8.038
  807POPC   C4A14010  20.964  26.113   7.726
  807POPC   C1B14011  21.696  25.566   8.697
  807POPC   C2B14012  21.623  25.615   8.296
  807POPC   C3B14013  21.544  25.771   7.919
  807POPC   C4B14014  21.521  26.144   7.724
  808POPC   NC314015  21.630  22.155   9.448
  808POPC   PO414016  21.126  21.837   9.757
  808POPC   GL114017  21.213  21.983   9.239
  808POPC   GL214018  21.149  22.325   9.049
  808POPC   C1A14019  21.453  21.992   8.819
  808POPC   D2A14020  21.314  21.953   8.371
  808POPC   C3A14021  21.544  22.027   7.978
  808POPC   C4A14022  21.931  22.018   7.730
  808POPC   C1B14023  21.551  22.496   8.859
  808POPC   C2B14024  21.651  22.359   8.465
  808POPC   C3B14025  21.651  22.529   8.059
  808POPC   C4B14026  21.584  22.436   7.658
  809POPC   NC314027   8.415  27.090   9.751
  809POPC   PO414028   8.057  26.525   9.527
  809POPC   GL114029   8.151  26.708   9.146
  809POPC   GL214030   8.271  27.055   9.160
  809POPC   C1A14031   8.313  26.716   8.728
  809POPC   D2A14032   8.579  26.620   8.376
  809POPC   C3A14033   8.310  26.815   8.076
  809POPC   C4A14034   8.297  27.019   7.687
  809POPC   C1B14035   7.930  27.053   8.825
  809POPC   C2B14036   7.867  26.848   8.398
  809POPC   C3B14037   7.852  26.996   7.948
  809POPC   C4B14038   7.841  26.951   7.472
  810POPC   NC314039  15.816   0.525   9.591
  810POPC   PO414040  15.538  44.947   9.656
  810POPC   GL114041  15.809   0.145   9.229
  810POPC   GL214042  16.125   0.393   9.199
  810POPC   C1A14043  16.028   0.184   8.741
  810POPC   D2A14044  15.730   0.215   8.356
  810POPC   C3A14045  15.889   0.312   7.966
  810POPC   C4A14046  16.338   0.199   7.924
  810POPC   C1B14047  16.043   0.690   8.816
  810POPC   C2B14048  16.077   0.585   8.362
  810POPC   C3B14049  16.224   0.702   7.932
  810POPC   C4B14050  16.010   0.906   7.592
  811POPC   NC314051  24.182   7.783   9.307
  811POPC   PO414052  24.146   7.122   9.409
  811POPC   GL114053  24.401   7.351   9.085
  811POPC   GL214054  24.671   7.525   9.294
  811POPC   C1A14055  24.237   7.560   8.661
  811POPC   D2A14056  24.036   7.721   8.243
  811POPC   C3A14057  24.320   7.605   7.890
  811POPC   C4A14058  24.373   7.506   7.418
  811POPC   C1B14059  24.843   7.555   8.883
  811POPC   C2B14060  24.755   7.505   8.441
  811POPC   C3B14061  24.772   7.241   8.076
  811POPC   C4B14062  24.796   7.458   7.710
  812POPC   NC314063   1.856  26.345   9.335
  812POPC   PO414064   1.407  25.860   9.625
  812POPC   GL114065   1.694  25.807   9.177
  812POPC   GL214066   2.067  25.902   9.159
  812POPC   C1A14067   1.832  25.975   8.718
  812POPC   D2A14068   2.074  26.150   8.311
  812POPC   C3A14069   2.100  26.030   7.843
  812POPC   C4A14070   1.777  25.803   7.602
  812POPC   C1B14071   2.322  26.072   8.790
  812POPC   C2B14072   2.415  26.474   8.543
  812POPC   C3B14073   2.308  26.602   8.113
  812POPC   C4B14074   2.283  26.490   7.687
  813POPC   NC314075  22.442  20.231   9.410
  813POPC   PO414076  22.208  20.828   9.488
  813POPC   GL114077  21.953  20.743   9.096
  813POPC   GL214078  22.005  20.364   9.080
  813POPC   C1A14079  21.655  20.544   8.782
  813POPC   D2A14080  21.591  20.392   8.366
  813POPC   C3A14081  21.780  20.545   8.000
  813POPC   C4A14082  21.910  20.731   7.615
  813POPC   C1B14083  22.141  20.497   8.675
  813POPC   C2B14084  22.126  20.253   8.337
  813POPC   C3B14085  22.344  20.160   8.013
  813POPC   C4B14086  22.222  20.353   7.709
  814POPC   NC314087   8.486  14.277   9.475
  814POPC   PO414088   7.900  14.652   9.538
  814POPC   GL114089   7.997  14.414   9.216
  814POPC   GL214090   8.261  14.606   9.153
  814POPC   C1A14091   7.979  14.306   8.784
  814POPC   D2A14092   7.892  14.229   8.360
  814POPC   C3A14093   8.036  14.269   7.939
  814POPC   C4A14094   8.036  14.144   7.504
  814POPC   C1B14095   8.430  14.522   8.820
  814POPC   C2B14096   8.407  14.322   8.461
  814POPC   C3B14097   8.461  14.475   8.070
  814POPC   C4B14098   8.514  14.256   7.675
  815POPC   NC314099  21.752   8.666   9.597
  815POPC   PO414100  21.465   9.261   9.535
  815POPC   GL114101  21.399   9.128   9.147
  815POPC   GL214102  21.485   8.848   9.171
  815POPC   C1A14103  21.225   8.887   8.753
  815POPC   D2A14104  21.439   8.782   8.374
  815POPC   C3A14105  21.213   8.709   8.015
  815POPC   C4A14106  21.086   8.860   7.638
  815POPC   C1B14107  21.713   9.033   8.762
  815POPC   C2B14108  21.884   9.033   8.327
  815POPC   C3B14109  21.652   8.958   7.918
  815POPC   C4B14110  21.553   9.036   7.445
  816POPC   NC314111  43.599   6.165   9.483
  816POPC   PO414112  43.794   5.503   9.512
  816POPC   GL114113  43.948   5.679   9.099
  816POPC   GL214114  43.935   6.024   9.086
  816POPC   C1A14115  43.845   5.744   8.663
  816POPC   D2A14116  43.515   5.789   8.355
  816POPC   C3A14117  43.649   5.797   7.942
  816POPC   C4A14118  43.586   6.161   7.677
  816POPC   C1B14119  44.099   6.202   8.701
  816POPC   C2B14120  43.923   6.149   8.277
  816POPC   C3B14121  44.062   6.090   7.847
  816POPC   C4B14122  44.010   6.191   7.388
  817POPC   NC314123  17.908  29.342   9.517
  817POPC   PO414124  18.367  28.916   9.741
  817POPC   GL114125  18.271  29.020   9.306
  817POPC   GL214126  18.447  28.795   9.133
  817POPC   C1A14127  18.220  29.261   8.897
  817POPC   D2A14128  18.318  29.159   8.471
  817POPC   C3A14129  18.073  29.308   8.160
  817POPC   C4A14130  18.226  29.374   7.773
  817POPC   C1B14131  18.199  28.772   8.789
  817POPC   C2B14132  18.280  28.655   8.368
  817POPC   C3B14133  18.380  28.909   8.004
  817POPC   C4B14134  18.513  29.028   7.555
  818POPC   NC314135  20.721  24.333   9.724
  818POPC   PO414136  20.467  24.946   9.721
  818POPC   GL114137  20.514  24.641   9.287
  818POPC   GL214138  20.653  24.272   9.222
  818POPC   C1A14139  20.650  24.698   8.808
  818POPC   D2A14140  20.851  24.741   8.368
  818POPC   C3A14141  20.735  24.486   8.016
  818POPC   C4A14142  20.849  24.260   7.612
  818POPC   C1B14143  20.473  24.217   8.804
  818POPC   C2B14144  20.374  24.379   8.375
  818POPC   C3B14145  20.269  24.233   7.943
  818POPC   C4B14146  20.396  24.025   7.590
  819POPC   NC314147  42.924  17.027   9.869
  819POPC   PO414148  43.323  17.546   9.685
  819POPC   GL114149  43.223  17.636   9.228
  819POPC   GL214150  42.908  17.600   9.140
  819POPC   C1A14151  43.329  17.447   8.835
  819POPC   D2A14152  43.139  17.312   8.463
  819POPC   C3A14153  43.283  17.511   8.082
  819POPC   C4A14154  43.386  17.336   7.677
  819POPC   C1B14155  42.811  17.232   8.865
  819POPC   C2B14156  42.656  17.130   8.454
  819POPC   C3B14157  42.827  17.256   8.027
  819POPC   C4B14158  42.729  17.254   7.583
  820POPC   NC314159  27.653  41.961   9.354
  820POPC   PO414160  27.412  41.329   9.335
  820POPC   GL114161  27.736  41.477   9.061
  820POPC   GL214162  27.998  41.742   9.004
  820POPC   C1A14163  27.615  41.365   8.663
  820POPC   D2A14164  27.329  41.312   8.292
  820POPC   C3A14165  27.546  41.500   7.936
  820POPC   C4A14166  27.855  41.802   7.913
  820POPC   C1B14167  27.734  41.869   8.701
  820POPC   C2B14168  27.525  41.802   8.357
  820POPC   C3B14169  27.392  42.019   8.045
  820POPC   C4B14170  27.335  41.857   7.630
  821POPC   NC314171  25.445  41.879   9.445
  821POPC   PO414172  25.451  42.586   9.397
  821POPC   GL114173  25.221  42.328   9.133
  821POPC   GL214174  24.897  42.154   9.190
  821POPC   C1A14175  25.121  42.400   8.696
  821POPC   D2A14176  25.308  42.478   8.316
  821POPC   C3A14177  25.094  42.371   7.964
  821POPC   C4A14178  25.322  42.358   7.615
  821POPC   C1B14179  25.160  41.925   8.849
  821POPC   C2B14180  25.265  41.963   8.434
  821POPC   C3B14181  25.100  41.876   8.052
  821POPC   C4B14182  25.225  41.855   7.644
  822POPC   NC314183   7.929  32.753   9.643
  822POPC   PO414184   8.135  33.414   9.754
  822POPC   GL114185   8.377  33.210   9.344
  822POPC   GL214186   8.205  32.930   9.193
  822POPC   C1A14187   8.292  33.299   8.852
  822POPC   D2A14188   7.968  33.141   8.577
  822POPC   C3A14189   8.007  33.149   8.126
  822POPC   C4A14190   8.119  32.937   7.745
  822POPC   C1B14191   8.329  32.793   8.749
  822POPC   C2B14192   8.457  32.757   8.295
  822POPC   C3B14193   8.409  32.529   7.901
  822POPC   C4B14194   8.406  32.577   7.431
  823POPC   NC314195   5.648  33.086   9.698
  823POPC   PO414196   6.211  32.717   9.594
  823POPC   GL114197   6.007  32.985   9.259
  823POPC   GL214198   5.639  33.061   9.192
  823POPC   C1A14199   6.045  33.132   8.823
  823POPC   D2A14200   6.144  33.235   8.389
  823POPC   C3A14201   6.025  33.070   7.976
  823POPC   C4A14202   6.398  32.901   7.786
  823POPC   C1B14203   5.539  32.991   8.765
  823POPC   C2B14204   5.647  33.097   8.339
  823POPC   C3B14205   5.452  32.928   7.947
  823POPC   C4B14206   5.563  33.019   7.513
  824POPC   NC314207  32.098  38.691   9.604
  824POPC   PO414208  32.268  38.138   9.376
  824POPC   GL114209  31.996  38.382   9.082
  824POPC   GL214210  31.962  38.736   9.120
  824POPC   C1A14211  32.022  38.513   8.646
  824POPC   D2A14212  32.423  38.433   8.409
  824POPC   C3A14213  32.415  38.249   8.020
  824POPC   C4A14214  32.115  38.261   7.670
  824POPC   C1B14215  32.367  38.791   8.890
  824POPC   C2B14216  32.352  38.930   8.431
  824POPC   C3B14217  32.218  38.752   7.974
  824POPC   C4B14218  32.141  38.793   7.487
  825POPC   NC314219  16.213  12.508   9.464
  825POPC   PO414220  15.987  13.132   9.429
  825POPC   GL114221  16.152  12.936   9.063
  825POPC   GL214222  15.966  12.647   9.052
  825POPC   C1A14223  16.096  12.827   8.608
  825POPC   D2A14224  16.184  12.635   8.238
  825POPC   C3A14225  15.957  12.853   7.960
  825POPC   C4A14226  15.647  13.175   7.894
  825POPC   C1B14227  15.629  12.617   8.764
  825POPC   C2B14228  15.659  12.559   8.332
  825POPC   C3B14229  15.781  12.364   7.976
  825POPC   C4B14230  15.917  12.541   7.553
  826POPC   NC314231   8.379  11.143   9.370
  826POPC   PO414232   7.876  11.537   9.464
  826POPC   GL114233   8.086  11.508   9.129
  826POPC   GL214234   7.956  11.164   9.043
  826POPC   C1A14235   8.052  11.572   8.718
  826POPC   D2A14236   7.937  11.277   8.400
  826POPC   C3A14237   8.017  11.433   8.031
  826POPC   C4A14238   7.959  11.237   7.661
  826POPC   C1B14239   8.289  11.079   8.695
  826POPC   C2B14240   8.415  11.160   8.217
  826POPC   C3B14241   8.452  11.099   7.732
  826POPC   C4B14242   8.694  11.203   7.329
  827POPC   NC314243   5.910   9.461  10.019
  827POPC   PO414244   5.913   9.864   9.438
  827POPC   GL114245   5.998   9.747   9.029
  827POPC   GL214246   6.217   9.535   9.162
  827POPC   C1A14247   5.908   9.633   8.594
  827POPC   D2A14248   5.558   9.560   8.337
  827POPC   C3A14249   5.626   9.691   7.922
  827POPC   C4A14250   5.712   9.666   7.484
  827POPC   C1B14251   6.212   9.285   8.797
  827POPC   C2B14252   6.321   9.365   8.403
  827POPC   C3B14253   6.061   9.509   8.104
  827POPC   C4B14254   6.108   9.441   7.688
  828POPC   NC314255   7.850  16.669   9.499
  828POPC   PO414256   8.576  16.844   9.524
  828POPC   GL114257   8.299  16.621   9.204
  828POPC   GL214258   7.990  16.794   9.040
  828POPC   C1A14259   8.273  16.487   8.772
  828POPC   D2A14260   8.482  16.663   8.396
  828POPC   C3A14261   8.363  16.493   8.000
  828POPC   C4A14262   7.930  16.436   7.841
  828POPC   C1B14263   8.341  16.989   8.808
  828POPC   C2B14264   8.376  17.254   8.468
  828POPC   C3B14265   8.369  17.061   8.090
  828POPC   C4B14266   8.173  16.886   7.748
  829POPC   NC314267   0.043  19.132   9.620
  829POPC   PO414268   0.565  18.864   9.392
  829POPC   GL114269   0.464  19.250   9.231
  829POPC   GL214270   0.152  19.359   9.161
  829POPC   C1A14271   0.518  19.361   8.807
  829POPC   D2A14272   0.377  19.048   8.527
  829POPC   C3A14273   0.410  19.075   8.094
  829POPC   C4A14274   0.452  18.878   7.712
  829POPC   C1B14275  44.976  19.228   8.762
  829POPC   C2B14276  44.978  19.298   8.290
  829POPC   C3B14277  44.997  19.232   7.835
  829POPC   C4B14278   0.312  19.318   7.484
  830POPC   NC314279  15.343  39.259   9.378
  830POPC   PO414280  14.932  39.714   9.572
  830POPC   GL114281  14.928  39.514   9.171
  830POPC   GL214282  14.879  39.187   9.059
  830POPC   C1A14283  15.118  39.545   8.782
  830POPC   D2A14284  15.389  39.268   8.568
  830POPC   C3A14285  15.462  39.390   8.146
  830POPC   C4A14286  15.353  39.131   7.800
  830POPC   C1B14287  14.723  38.876   8.774
  830POPC   C2B14288  14.530  39.001   8.384
  830POPC   C3B14289  14.727  39.154   7.973
  830POPC   C4B14290  14.985  39.477   7.741
  831POPC   NC314291  27.120  26.738   9.395
  831POPC   PO414292  26.494  27.004   9.587
  831POPC   GL114293  26.707  27.058   9.227
  831POPC   GL214294  27.032  27.209   9.208
  831POPC   C1A14295  26.712  27.058   8.803
  831POPC   D2A14296  26.881  26.782   8.491
  831POPC   C3A14297  26.848  26.913   8.064
  831POPC   C4A14298  26.532  26.909   7.761
  831POPC   C1B14299  27.188  27.193   8.780
  831POPC   C2B14300  26.966  27.290   8.412
  831POPC   C3B14301  27.020  27.410   8.046
  831POPC   C4B14302  26.904  27.263   7.673
  832POPC   NC314303   5.307  33.852   9.694
  832POPC   PO414304   4.712  33.535   9.558
  832POPC   GL114305   4.992  33.754   9.285
  832POPC   GL214306   5.358  33.734   9.178
  832POPC   C1A14307   4.931  33.805   8.856
  832POPC   D2A14308   5.073  33.698   8.449
  832POPC   C3A14309   4.869  33.935   8.119
  832POPC   C4A14310   4.821  33.802   7.706
  832POPC   C1B14311   5.424  33.972   8.757
  832POPC   C2B14312   5.313  34.103   8.299
  832POPC   C3B14313   5.326  33.904   7.864
  832POPC   C4B14314   5.502  34.009   7.448
  833POPC   NC314315  30.662  10.740   9.466
  833POPC   PO414316  30.169  10.213   9.502
  833POPC   GL114317  30.480  10.344   9.136
  833POPC   GL214318  30.802  10.509   9.021
  833POPC   C1A14319  30.417  10.537   8.707
  833POPC   D2A14320  30.643  10.654   8.296
  833POPC   C3A14321  30.427  10.595   7.895
  833POPC   C4A14322  30.380  10.732   7.429
  833POPC   C1B14323  31.114  10.586   8.654
  833POPC   C2B14324  31.150  10.551   8.182
  833POPC   C3B14325  30.931  10.607   7.774
  833POPC   C4B14326  30.694  10.352   7.505
  834POPC   NC314327  24.240  28.646   9.534
  834POPC   PO414328  24.741  28.236   9.525
  834POPC   GL114329  24.544  28.383   9.194
  834POPC   GL214330  24.241  28.181   9.252
  834POPC   C1A14331  24.622  28.594   8.801
  834POPC   D2A14332  24.848  28.515   8.416
  834POPC   C3A14333  24.635  28.402   8.002
  834POPC   C4A14334  24.511  28.586   7.599
  834POPC   C1B14335  24.304  28.158   8.812
  834POPC   C2B14336  24.069  28.083   8.457
  834POPC   C3B14337  24.105  28.020   8.056
  834POPC   C4B14338  24.222  28.184   7.696
  835POPC   NC314339  28.764   7.080   9.411
  835POPC   PO414340  29.388   7.258   9.587
  835POPC   GL114341  29.189   7.396   9.182
  835POPC   GL214342  28.876   7.505   9.142
  835POPC   C1A14343  29.169   7.492   8.732
  835POPC   D2A14344  29.341   7.355   8.376
  835POPC   C3A14345  29.318   7.587   8.012
  835POPC   C4A14346  29.414   7.338   7.651
  835POPC   C1B14347  28.680   7.375   8.789
  835POPC   C2B14348  28.770   7.291   8.394
  835POPC   C3B14349  28.751   7.467   8.027
  835POPC   C4B14350  28.924   7.485   7.680
  836POPC   NC314351   4.362  31.843   9.643
  836POPC   PO414352   3.958  31.492   9.321
  836POPC   GL114353   4.329  31.521   9.055
  836POPC   GL214354   4.555  31.201   9.044
  836POPC   C1A14355   4.284  31.661   8.621
  836POPC   D2A14356   4.309  31.609   8.212
  836POPC   C3A14357   4.025  31.557   7.869
  836POPC   C4A14358   4.329  31.624   7.500
  836POPC   C1B14359   4.333  31.163   8.642
  836POPC   C2B14360   4.473  31.093   8.246
  836POPC   C3B14361   4.423  31.250   7.860
  836POPC   C4B14362   4.626  31.186   7.496
  837POPC   NC314363  34.883  12.201   9.522
  837POPC   PO414364  35.534  12.051   9.589
  837POPC   GL114365  35.412  12.125   9.144
  837POPC   GL214366  35.162  11.868   9.167
  837POPC   C1A14367  35.463  12.357   8.701
  837POPC   D2A14368  35.607  12.569   8.299
  837POPC   C3A14369  35.288  12.475   7.970
  837POPC   C4A14370  35.027  12.116   7.821
  837POPC   C1B14371  35.331  11.844   8.730
  837POPC   C2B14372  35.334  11.986   8.296
  837POPC   C3B14373  35.154  11.670   8.045
  837POPC   C4B14374  34.919  11.619   7.698
  838POPC   NC314375  13.008  38.977   9.522
  838POPC   PO414376  12.556  39.464   9.361
  838POPC   GL114377  12.702  39.093   9.126
  838POPC   GL214378  13.075  39.166   9.047
  838POPC   C1A14379  12.756  38.886   8.708
  838POPC   D2A14380  12.896  39.017   8.284
  838POPC   C3A14381  12.626  39.154   7.962
  838POPC   C4A14382  12.613  38.963   7.563
  838POPC   C1B14383  12.853  39.392   8.738
  838POPC   C2B14384  12.916  39.592   8.372
  838POPC   C3B14385  13.079  39.442   7.979
  838POPC   C4B14386  12.861  39.425   7.579
  839POPC   NC314387   8.431  18.105   9.398
  839POPC   PO414388   7.771  18.262   9.633
  839POPC   GL114389   7.946  18.230   9.177
  839POPC   GL214390   8.025  17.884   9.098
  839POPC   C1A14391   8.267  18.204   8.780
  839POPC   D2A14392   8.496  18.121   8.380
  839POPC   C3A14393   8.411  18.433   8.080
  839POPC   C4A14394   7.998  18.531   7.928
  839POPC   C1B14395   7.794  18.021   8.703
  839POPC   C2B14396   7.994  18.129   8.317
  839POPC   C3B14397   8.128  18.023   7.924
  839POPC   C4B14398   7.846  18.077   7.608
  840POPC   NC314399  41.982  29.866   9.491
  840POPC   PO414400  42.597  29.740   9.735
  840POPC   GL114401  42.470  29.846   9.298
  840POPC   GL214402  42.591  30.156   9.189
  840POPC   C1A14403  42.306  29.652   8.868
  840POPC   D2A14404  42.372  29.785   8.389
  840POPC   C3A14405  42.302  29.698   7.926
  840POPC   C4A14406  42.105  29.941   7.581
  840POPC   C1B14407  42.570  30.076   8.766
  840POPC   C2B14408  42.472  30.301   8.362
  840POPC   C3B14409  42.424  30.207   7.941
  840POPC   C4B14410  42.702  30.020   7.680
  841POPC   NC314411   6.279   6.581   9.476
  841POPC   PO414412   6.903   6.841   9.295
  841POPC   GL114413   6.788   6.509   8.955
  841POPC   GL214414   6.463   6.387   9.051
  841POPC   C1A14415   6.592   6.375   8.554
  841POPC   D2A14416   6.368   6.518   8.184
  841POPC   C3A14417   6.635   6.719   7.886
  841POPC   C4A14418   6.944   6.535   7.639
  841POPC   C1B14419   6.321   6.748   8.795
  841POPC   C2B14420   6.256   7.004   8.413
  841POPC   C3B14421   6.118   6.940   7.977
  841POPC   C4B14422   6.312   7.016   7.574
  842POPC   NC314423  17.552  14.534   9.514
  842POPC   PO414424  17.195  13.999   9.591
  842POPC   GL114425  17.242  14.195   9.202
  842POPC   GL214426  17.590  14.169   9.139
  842POPC   C1A14427  17.310  14.500   8.864
  842POPC   D2A14428  17.305  14.458   8.424
  842POPC   C3A14429  17.539  14.642   8.064
  842POPC   C4A14430  17.420  14.659   7.589
  842POPC   C1B14431  17.504  14.012   8.723
  842POPC   C2B14432  17.527  14.020   8.280
  842POPC   C3B14433  17.517  14.172   7.851
  842POPC   C4B14434  17.495  14.167   7.407
  843POPC   NC314435  41.067  10.525   9.562
  843POPC   PO414436  40.480  10.266   9.425
  843POPC   GL114437  40.734  10.525   9.116
  843POPC   GL214438  41.094  10.675   9.080
  843POPC   C1A14439  40.809  10.650   8.654
  843POPC   D2A14440  40.662  10.885   8.263
  843POPC   C3A14441  40.770  10.635   7.899
  843POPC   C4A14442  40.725  10.145   7.871
  843POPC   C1B14443  41.111  10.240   8.939
  843POPC   C2B14444  40.893  10.136   8.572
  843POPC   C3B14445  41.056  10.363   8.214
  843POPC   C4B14446  41.175  10.334   7.770
  844POPC   NC314447  12.307  23.380   9.479
  844POPC   PO414448  11.747  23.937   9.518
  844POPC   GL114449  12.031  23.872   9.184
  844POPC   GL214450  11.950  23.538   9.094
  844POPC   C1A14451  12.131  23.904   8.729
  844POPC   D2A14452  11.971  23.673   8.388
  844POPC   C3A14453  11.936  23.880   7.994
  844POPC   C4A14454  11.986  23.764   7.603
  844POPC   C1B14455  12.285  23.415   8.798
  844POPC   C2B14456  12.399  23.363   8.371
  844POPC   C3B14457  12.238  23.463   7.962
  844POPC   C4B14458  11.940  23.263   7.704
  845POPC   NC314459   0.416  10.916   9.393
  845POPC   PO414460   0.641  10.307   9.611
  845POPC   GL114461   0.459  10.482   9.140
  845POPC   GL214462   0.645  10.710   8.920
  845POPC   C1A14463   0.157  10.716   8.784
  845POPC   D2A14464   0.330  10.773   8.323
  845POPC   C3A14465   0.174  10.792   7.870
  845POPC   C4A14466   0.172  10.547   7.466
  845POPC   C1B14467   0.441  10.334   8.634
  845POPC   C2B14468   0.523  10.154   8.225
  845POPC   C3B14469   0.336  10.175   7.827
  845POPC   C4B14470   0.518  10.191   7.446
  846POPC   NC314471   6.735  38.593   9.567
  846POPC   PO414472   6.306  38.096   9.606
  846POPC   GL114473   6.348  38.383   9.264
  846POPC   GL214474   6.684  38.276   9.132
  846POPC   C1A14475   6.267  38.372   8.816
  846POPC   D2A14476   6.305  38.020   8.505
  846POPC   C3A14477   6.467  38.165   8.113
  846POPC   C4A14478   6.439  38.398   7.754
  846POPC   C1B14479   6.760  38.659   8.903
  846POPC   C2B14480   6.760  38.815   8.511
  846POPC   C3B14481   6.621  38.688   8.129
  846POPC   C4B14482   6.692  38.824   7.727
  847POPC   NC314483   6.809   3.130   9.418
  847POPC   PO414484   6.347   2.729   9.332
  847POPC   GL114485   6.649   2.874   9.003
  847POPC   GL214486   6.581   3.226   8.982
  847POPC   C1A14487   6.891   2.760   8.632
  847POPC   D2A14488   6.884   2.465   8.288
  847POPC   C3A14489   6.740   2.657   7.907
  847POPC   C4A14490   6.300   2.705   7.815
  847POPC   C1B14491   6.588   3.245   8.584
  847POPC   C2B14492   6.589   3.023   8.227
  847POPC   C3B14493   6.556   3.138   7.813
  847POPC   C4B14494   6.828   3.099   7.510
  848POPC   NC314495   1.551  21.414   9.599
  848POPC   PO414496   0.916  21.079   9.676
  848POPC   GL114497   1.080  21.187   9.256
  848POPC   GL214498   1.276  21.532   9.176
  848POPC   C1A14499   0.957  21.305   8.839
  848POPC   D2A14500   1.224  21.426   8.521
  848POPC   C3A14501   1.335  21.220   8.149
  848POPC   C4A14502   1.223  21.359   7.730
  848POPC   C1B14503   1.446  21.819   8.840
  848POPC   C2B14504   1.581  21.751   8.421
  848POPC   C3B14505   1.462  21.890   8.026
  848POPC   C4B14506   1.521  21.765   7.611
  849POPC   NC314507  13.130   8.308   9.383
  849POPC   PO414508  12.684   7.910   9.632
  849POPC   GL114509  12.683   8.053   9.172
  849POPC   GL214510  12.710   8.402   9.097
  849POPC   C1A14511  12.802   8.063   8.711
  849POPC   D2A14512  13.044   8.031   8.307
  849POPC   C3A14513  12.928   8.259   7.889
  849POPC   C4A14514  13.074   8.287   7.429
  849POPC   C1B14515  12.965   8.557   8.723
  849POPC   C2B14516  13.008   8.625   8.268
  849POPC   C3B14517  12.894   8.801   7.849
  849POPC   C4B14518  13.022   8.826   7.380
  850POPC   NC314519  14.884   1.698   9.254
  850POPC   PO414520  15.200   2.224   9.468
  850POPC   GL114521  15.258   2.166   9.083
  850POPC   GL214522  15.466   2.495   9.057
  850POPC   C1A14523  15.231   1.888   8.694
  850POPC   D2A14524  14.917   1.739   8.364
  850POPC   C3A14525  14.904   1.776   7.891
  850POPC   C4A14526  15.086   1.630   7.461
  850POPC   C1B14527  15.249   2.399   8.658
  850POPC   C2B14528  15.052   2.261   8.302
  850POPC   C3B14529  15.198   2.224   7.897
  850POPC   C4B14530  15.469   2.557   7.716
  851POPC   NC314531  41.018   8.444   9.488
  851POPC   PO414532  40.638   7.857   9.380
  851POPC   GL114533  40.920   8.084   9.110
  851POPC   GL214534  40.756   8.418   9.061
  851POPC   C1A14535  40.972   8.149   8.669
  851POPC   D2A14536  41.034   8.194   8.246
  851POPC   C3A14537  40.821   8.204   7.825
  851POPC   C4A14538  40.791   8.267   7.366
  851POPC   C1B14539  40.483   8.219   8.747
  851POPC   C2B14540  40.520   8.175   8.290
  851POPC   C3B14541  40.345   8.066   7.884
  851POPC   C4B14542  40.304   8.310   7.525
  852POPC   NC314543  17.488  10.873   9.466
  852POPC   PO414544  17.687  10.285   9.512
  852POPC   GL114545  17.459  10.459   9.165
  852POPC   GL214546  17.740  10.643   9.063
  852POPC   C1A14547  17.209  10.693   8.835
  852POPC   D2A14548  17.235  10.958   8.420
  852POPC   C3A14549  17.325  10.760   7.963
  852POPC   C4A14550  17.178  10.508   7.545
  852POPC   C1B14551  17.673  10.831   8.669
  852POPC   C2B14552  17.849  10.800   8.274
  852POPC   C3B14553  17.833  10.837   7.842
  852POPC   C4B14554  17.615  10.747   7.470
  853POPC   NC314555  17.697   2.857   9.272
  853POPC   PO414556  18.237   2.741   9.649
  853POPC   GL114557  18.224   2.795   9.201
  853POPC   GL214558  18.429   2.566   9.129
  853POPC   C1A14559  18.081   2.648   8.756
  853POPC   D2A14560  18.089   2.869   8.355
  853POPC   C3A14561  18.135   2.733   7.950
  853POPC   C4A14562  18.385   2.953   7.665
  853POPC   C1B14563  18.591   2.637   8.728
  853POPC   C2B14564  18.450   2.474   8.332
  853POPC   C3B14565  18.633   2.562   7.934
  853POPC   C4B14566  18.687   2.572   7.503
  854POPC   NC314567   2.433  42.183   9.519
  854POPC   PO414568   3.111  42.314   9.546
  854POPC   GL114569   2.924  42.428   9.162
  854POPC   GL214570   2.799  42.111   9.168
  854POPC   C1A14571   3.033  42.435   8.722
  854POPC   D2A14572   3.007  42.150   8.367
  854POPC   C3A14573   2.759  42.288   8.039
  854POPC   C4A14574   2.947  42.476   7.693
  854POPC   C1B14575   2.707  42.027   8.761
  854POPC   C2B14576   2.481  41.984   8.394
  854POPC   C3B14577   2.241  42.157   8.093
  854POPC   C4B14578   2.349  42.256   7.675
  855POPC   NC314579   1.547  29.921   9.454
  855POPC   PO414580   0.894  29.639   9.490
  855POPC   GL114581   0.900  29.792   9.079
  855POPC   GL214582   1.065  30.124   9.089
  855POPC   C1A14583   0.974  29.735   8.631
  855POPC   D2A14584   1.206  29.825   8.246
  855POPC   C3A14585   1.150  29.636   7.831
  855POPC   C4A14586   1.299  29.692   7.398
  855POPC   C1B14587   1.390  30.078   8.749
  855POPC   C2B14588   1.594  30.165   8.329
  855POPC   C3B14589   1.360  30.184   7.904
  855POPC   C4B14590   0.928  30.114   7.768
  856POPC   NC314591  17.083  39.270   9.466
  856POPC   PO414592  16.424  39.289   9.632
  856POPC   GL114593  16.622  39.409   9.248
  856POPC   GL214594  16.687  39.045   9.201
  856POPC   C1A14595  16.726  39.479   8.807
  856POPC   D2A14596  16.702  39.239   8.427
  856POPC   C3A14597  16.711  39.442   8.026
  856POPC   C4A14598  16.738  39.186   7.686
  856POPC   C1B14599  16.977  39.007   8.860
  856POPC   C2B14600  17.167  39.010   8.462
  856POPC   C3B14601  17.038  38.964   8.079
  856POPC   C4B14602  17.165  38.896   7.680
  857POPC   NC314603  17.398  13.703   9.290
  857POPC   PO414604  16.833  13.563   9.670
  857POPC   GL114605  16.888  13.657   9.252
  857POPC   GL214606  17.066  13.361   9.157
  857POPC   C1A14607  16.710  13.637   8.843
  857POPC   D2A14608  16.462  13.588   8.460
  857POPC   C3A14609  16.685  13.711   8.104
  857POPC   C4A14610  16.630  13.700   7.660
  857POPC   C1B14611  17.005  13.216   8.732
  857POPC   C2B14612  16.912  13.305   8.295
  857POPC   C3B14613  16.866  13.311   7.854
  857POPC   C4B14614  17.032  13.500   7.438
  858POPC   NC314615   5.171  40.357   9.616
  858POPC   PO414616   4.784  40.806   9.331
  858POPC   GL114617   5.059  40.472   9.149
  858POPC   GL214618   5.367  40.626   9.215
  858POPC   C1A14619   5.274  40.330   8.780
  858POPC   D2A14620   5.353  40.485   8.358
  858POPC   C3A14621   5.050  40.754   8.163
  858POPC   C4A14622   5.181  40.762   7.758
  858POPC   C1B14623   5.217  40.841   8.822
  858POPC   C2B14624   5.441  40.976   8.494
  858POPC   C3B14625   5.498  41.000   8.079
  858POPC   C4B14626   5.464  41.182   7.700
  859POPC   NC314627  19.274   8.272   9.636
  859POPC   PO414628  18.726   8.509   9.500
  859POPC   GL114629  18.978   8.260   9.199
  859POPC   GL214630  19.343   8.171   9.142
  859POPC   C1A14631  18.913   8.088   8.793
  859POPC   D2A14632  18.688   8.213   8.424
  859POPC   C3A14633  18.827   8.128   8.005
  859POPC   C4A14634  18.920   8.363   7.630
  859POPC   C1B14635  19.428   7.983   8.749
  859POPC   C2B14636  19.215   8.040   8.348
  859POPC   C3B14637  19.349   8.248   7.974
  859POPC   C4B14638  19.442   8.129   7.553
  860POPC   NC314639  42.699  12.287   9.494
  860POPC   PO414640  41.960  12.154   9.484
  860POPC   GL114641  42.230  12.312   9.191
  860POPC   GL214642  42.407  12.021   9.159
  860POPC   C1A14643  42.389  12.345   8.750
  860POPC   D2A14644  42.541  12.069   8.400
  860POPC   C3A14645  42.538  12.283   8.052
  860POPC   C4A14646  42.386  12.217   7.651
  860POPC   C1B14647  42.329  11.772   8.790
  860POPC   C2B14648  42.146  11.717   8.380
  860POPC   C3B14649  42.318  11.803   7.989
  860POPC   C4B14650  42.784  11.899   7.876
  861POPC   NC314651  17.826   3.890   9.336
  861POPC   PO414652  18.338   4.365   9.470
  861POPC   GL114653  18.182   4.316   9.091
  861POPC   GL214654  18.462   4.106   9.011
  861POPC   C1A14655  18.187   4.601   8.747
  861POPC   D2A14656  18.191   4.727   8.324
  861POPC   C3A14657  18.165   4.412   8.020
  861POPC   C4A14658  18.233   4.541   7.581
  861POPC   C1B14659  18.681   4.451   8.867
  861POPC   C2B14660  18.621   4.464   8.457
  861POPC   C3B14661  18.651   4.514   8.041
  861POPC   C4B14662  18.580   4.211   7.737
  862POPC   NC314663   4.354  18.856   9.717
  862POPC   PO414664   4.122  19.376   9.437
  862POPC   GL114665   4.291  19.024   9.178
  862POPC   GL214666   4.031  18.823   9.107
  862POPC   C1A14667   4.441  18.997   8.731
  862POPC   D2A14668   4.509  19.004   8.283
  862POPC   C3A14669   4.475  19.271   7.947
  862POPC   C4A14670   4.484  19.146   7.483
  862POPC   C1B14671   3.968  19.173   8.807
  862POPC   C2B14672   4.052  19.210   8.382
  862POPC   C3B14673   4.042  19.002   7.993
  862POPC   C4B14674   4.031  19.308   7.642
  863POPC   NC314675   3.243  42.795   9.348
  863POPC   PO414676   2.707  43.228   9.576
  863POPC   GL114677   2.830  43.036   9.188
  863POPC   GL214678   3.096  43.291   9.204
  863POPC   C1A14679   2.912  42.967   8.723
  863POPC   D2A14680   2.921  42.737   8.306
  863POPC   C3A14681   2.692  42.871   7.916
  863POPC   C4A14682   2.833  42.934   7.467
  863POPC   C1B14683   2.740  43.441   8.906
  863POPC   C2B14684   2.757  43.513   8.458
  863POPC   C3B14685   2.610  43.364   8.085
  863POPC   C4B14686   2.631  43.474   7.700
  864POPC   NC314687   8.499   3.072   9.233
  864POPC   PO414688   8.411   3.542   9.739
  864POPC   GL114689   8.217   3.475   9.283
  864POPC   GL214690   7.928   3.248   9.295
  864POPC   C1A14691   8.307   3.572   8.835
  864POPC   D2A14692   8.266   3.642   8.401
  864POPC   C3A14693   8.554   3.495   8.125
  864POPC   C4A14694   8.477   3.517   7.704
  864POPC   C1B14695   7.866   3.312   8.856
  864POPC   C2B14696   7.956   3.236   8.436
  864POPC   C3B14697   8.094   3.247   8.024
  864POPC   C4B14698   8.110   3.146   7.615
  865POPC   NC314699  30.749   9.175   9.490
  865POPC   PO414700  30.213   8.696   9.449
  865POPC   GL114701  30.447   8.727   9.077
  865POPC   GL214702  30.584   9.074   9.033
  865POPC   C1A14703  30.407   8.875   8.629
  865POPC   D2A14704  30.526   9.190   8.389
  865POPC   C3A14705  30.654   9.039   8.038
  865POPC   C4A14706  30.503   9.088   7.661
  865POPC   C1B14707  30.872   8.747   8.792
  865POPC   C2B14708  31.030   8.830   8.378
  865POPC   C3B14709  31.087   8.826   7.922
  865POPC   C4B14710  31.173   8.696   7.483
  866POPC   NC314711  28.419   8.859   9.465
  866POPC   PO414712  28.428   9.503   9.651
  866POPC   GL114713  28.394   9.316   9.169
  866POPC   GL214714  28.611   9.005   9.013
  866POPC   C1A14715  28.318   9.226   8.692
  866POPC   D2A14716  28.442   9.464   8.336
  866POPC   C3A14717  28.255   9.265   7.996
  866POPC   C4A14718  28.438   9.121   7.619
  866POPC   C1B14719  28.602   8.623   8.772
  866POPC   C2B14720  28.413   8.640   8.354
  866POPC   C3B14721  28.484   8.720   7.922
  866POPC   C4B14722  28.345   8.653   7.463
  867POPC   NC314723  29.474  25.694   9.426
  867POPC   PO414724  29.073  26.172   9.755
  867POPC   GL114725  28.967  26.240   9.289
  867POPC   GL214726  29.303  26.153   9.148
  867POPC   C1A14727  28.853  26.288   8.860
  867POPC   D2A14728  29.010  26.409   8.449
  867POPC   C3A14729  28.831  26.278   8.046
  867POPC   C4A14730  29.123  26.125   7.740
  867POPC   C1B14731  29.188  25.915   8.755
  867POPC   C2B14732  28.958  25.896   8.373
  867POPC   C3B14733  29.006  25.678   7.988
  867POPC   C4B14734  29.241  25.647   7.602
  868POPC   NC314735  28.794  34.368   9.767
  868POPC   PO414736  29.253  34.714   9.681
  868POPC   GL114737  29.381  34.736   9.220
  868POPC   GL214738  29.377  34.404   9.037
  868POPC   C1A14739  29.617  34.824   8.817
  868POPC   D2A14740  29.748  34.696   8.389
  868POPC   C3A14741  29.402  34.681   8.088
  868POPC   C4A14742  29.187  34.709   7.677
  868POPC   C1B14743  29.377  34.397   8.587
  868POPC   C2B14744  29.375  34.180   8.207
  868POPC   C3B14745  29.249  34.184   7.772
  868POPC   C4B14746  28.843  34.317   7.550
  869POPC   NC314747  32.950  10.728   9.514
  869POPC   PO414748  33.051  10.159   9.788
  869POPC   GL114749  33.118  10.317   9.281
  869POPC   GL214750  32.845  10.340   9.044
  869POPC   C1A14751  33.248  10.577   8.869
  869POPC   D2A14752  33.095  10.458   8.446
  869POPC   C3A14753  33.060  10.625   8.016
  869POPC   C4A14754  33.211  10.365   7.664
  869POPC   C1B14755  32.583  10.338   8.678
  869POPC   C2B14756  32.618  10.437   8.240
  869POPC   C3B14757  32.700  10.314   7.803
  869POPC   C4B14758  32.810  10.293   7.359
  870POPC   NC314759   5.977  43.139   9.833
  870POPC   PO414760   5.400  43.108   9.403
  870POPC   GL114761   5.588  43.387   9.038
  870POPC   GL214762   5.795  43.114   8.858
  870POPC   C1A14763   5.756  43.534   8.605
  870POPC   D2A14764   6.091  43.241   8.437
  870POPC   C3A14765   6.216  43.227   7.998
  870POPC   C4A14766   5.936  42.981   7.703
  870POPC   C1B14767   5.489  42.767   8.809
  870POPC   C2B14768   5.558  42.548   8.401
  870POPC   C3B14769   5.517  42.769   7.965
  870POPC   C4B14770   5.653  42.594   7.553
  871POPC   NC314771  25.500  24.930   9.399
  871POPC   PO414772  25.186  24.350   9.481
  871POPC   GL114773  25.077  24.425   9.093
  871POPC   GL214774  25.123  24.769   9.065
  871POPC   C1A14775  25.107  24.424   8.673
  871POPC   D2A14776  24.859  24.268   8.333
  871POPC   C3A14777  25.046  24.458   8.017
  871POPC   C4A14778  25.241  24.373   7.686
  871POPC   C1B14779  25.345  24.902   8.722
  871POPC   C2B14780  25.367  24.716   8.333
  871POPC   C3B14781  25.544  24.762   7.959
  871POPC   C4B14782  25.349  24.894   7.614
  872POPC   NC314783  11.088   1.875   9.499
  872POPC   PO414784  11.741   1.958   9.483
  872POPC   GL114785  11.483   2.010   9.180
  872POPC   GL214786  11.423   2.339   9.223
  872POPC   C1A14787  11.458   2.086   8.745
  872POPC   D2A14788  11.144   2.162   8.416
  872POPC   C3A14789  11.159   1.866   8.067
  872POPC   C4A14790  11.536   1.961   7.877
  872POPC   C1B14791  11.373   2.565   8.800
  872POPC   C2B14792  11.567   2.455   8.410
  872POPC   C3B14793  11.548   2.462   7.991
  872POPC   C4B14794  11.371   2.350   7.564
  873POPC   NC314795   3.695   5.602   9.499
  873POPC   PO414796   3.650   6.262   9.573
  873POPC   GL114797   3.601   5.989   9.168
  873POPC   GL214798   3.701   5.703   9.026
  873POPC   C1A14799   3.396   6.024   8.761
  873POPC   D2A14800   3.141   5.862   8.409
  873POPC   C3A14801   3.366   5.812   8.014
  873POPC   C4A14802   3.454   5.967   7.587
  873POPC   C1B14803   3.907   5.857   8.744
  873POPC   C2B14804   3.711   5.796   8.399
  873POPC   C3B14805   3.812   5.472   8.138
  873POPC   C4B14806   3.687   5.521   7.736
  874POPC   NC314807  44.323   1.507   9.493
  874POPC   PO414808  43.767   1.109   9.440
  874POPC   GL114809  43.993   1.250   9.089
  874POPC   GL214810  44.035   0.925   8.995
  874POPC   C1A14811  43.945   1.259   8.627
  874POPC   D2A14812  43.639   1.328   8.299
  874POPC   C3A14813  43.834   1.487   7.931
  874POPC   C4A14814  44.258   1.434   7.790
  874POPC   C1B14815  44.048   0.734   8.631
  874POPC   C2B14816  44.133   0.961   8.256
  874POPC   C3B14817  43.947   0.973   7.878
  874POPC   C4B14818  44.173   0.759   7.578
  875POPC   NC314819  26.112  38.975   9.589
  875POPC   PO414820  25.956  39.572   9.541
  875POPC   GL114821  25.889  39.255   9.190
  875POPC   GL214822  26.241  39.253   9.173
  875POPC   C1A14823  25.864  39.314   8.722
  875POPC   D2A14824  26.117  39.411   8.342
  875POPC   C3A14825  25.941  39.224   7.991
  875POPC   C4A14826  25.563  39.356   7.885
  875POPC   C1B14827  26.333  39.151   8.764
  875POPC   C2B14828  26.251  38.918   8.409
  875POPC   C3B14829  26.410  39.047   8.035
  875POPC   C4B14830  26.469  39.441   7.808
  876POPC   NC314831   2.403  21.010   9.687
  876POPC   PO414832   2.817  21.495   9.358
  876POPC   GL114833   2.693  21.407   8.967
  876POPC   GL214834   2.339  21.518   9.073
  876POPC   C1A14835   2.801  21.206   8.549
  876POPC   D2A14836   2.906  21.363   8.133
  876POPC   C3A14837   2.986  21.138   7.775
  876POPC   C4A14838   2.556  21.149   7.696
  876POPC   C1B14839   2.314  21.400   8.631
  876POPC   C2B14840   2.358  21.335   8.187
  876POPC   C3B14841   2.401  21.629   7.865
  876POPC   C4B14842   2.445  21.538   7.401
  877POPC   NC314843  43.755  31.845   9.305
  877POPC   PO414844  44.185  31.441   9.522
  877POPC   GL114845  44.136  31.524   9.104
  877POPC   GL214846  44.255  31.856   9.114
  877POPC   C1A14847  44.015  31.332   8.702
  877POPC   D2A14848  43.796  31.282   8.301
  877POPC   C3A14849  43.761  31.621   8.016
  877POPC   C4A14850  43.965  31.374   7.709
  877POPC   C1B14851  44.123  31.889   8.717
  877POPC   C2B14852  44.254  32.004   8.337
  877POPC   C3B14853  44.157  31.993   7.916
  877POPC   C4B14854  43.905  31.860   7.563
  878POPC   NC314855  21.253   1.020   9.574
  878POPC   PO414856  21.752   1.396   9.477
  878POPC   GL114857  21.500   1.192   9.157
  878POPC   GL214858  21.384   1.526   9.127
  878POPC   C1A14859  21.419   1.028   8.741
  878POPC   D2A14860  21.441   0.774   8.334
  878POPC   C3A14861  21.334   1.077   7.977
  878POPC   C4A14862  21.535   1.136   7.538
  878POPC   C1B14863  21.059   1.619   8.864
  878POPC   C2B14864  21.035   1.707   8.435
  878POPC   C3B14865  21.007   1.480   8.077
  878POPC   C4B14866  21.244   1.534   7.686
  879POPC   NC314867  25.327  38.415   9.515
  879POPC   PO414868  25.414  39.091   9.425
  879POPC   GL114869  25.083  38.920   9.097
  879POPC   GL214870  25.082  38.537   9.084
  879POPC   C1A14871  24.996  38.772   8.638
  879POPC   D2A14872  24.869  38.535   8.261
  879POPC   C3A14873  25.078  38.640   7.882
  879POPC   C4A14874  25.407  38.563   7.541
  879POPC   C1B14875  25.169  38.153   8.852
  879POPC   C2B14876  25.131  38.094   8.406
  879POPC   C3B14877  25.289  37.958   7.972
  879POPC   C4B14878  25.155  37.718   7.577
  880POPC   NC314879   7.130  17.725   9.364
  880POPC   PO414880   7.628  17.164   9.492
  880POPC   GL114881   7.422  17.353   9.138
  880POPC   GL214882   7.624  17.576   8.915
  880POPC   C1A14883   7.332  17.213   8.714
  880POPC   D2A14884   7.552  17.348   8.363
  880POPC   C3A14885   7.370  17.299   7.959
  880POPC   C4A14886   7.213  17.608   7.681
  880POPC   C1B14887   7.301  17.840   8.682
  880POPC   C2B14888   7.201  18.007   8.286
  880POPC   C3B14889   7.505  17.778   8.076
  880POPC   C4B14890   7.734  17.624   7.762
  881POPC   NC314891   8.694   3.173   9.726
  881POPC   PO414892   8.152   2.793   9.327
  881POPC   GL114893   8.094   2.860   8.921
  881POPC   GL214894   8.388   2.765   8.855
  881POPC   C1A14895   8.079   2.739   8.469
  881POPC   D2A14896   7.829   2.728   8.141
  881POPC   C3A14897   8.037   2.677   7.794
  881POPC   C4A14898   8.368   2.693   7.520
  881POPC   C1B14899   8.425   3.113   8.593
  881POPC   C2B14900   8.498   2.979   8.209
  881POPC   C3B14901   8.579   3.035   7.813
  881POPC   C4B14902   8.576   3.135   7.375
  882POPC   NC314903   8.440  25.218   9.422
  882POPC   PO414904   7.761  25.002   9.543
  882POPC   GL114905   8.048  24.944   9.228
  882POPC   GL214906   8.000  25.306   9.129
  882POPC   C1A14907   7.962  24.845   8.829
  882POPC   D2A14908   7.834  25.141   8.464
  882POPC   C3A14909   8.045  25.264   8.037
  882POPC   C4A14910   7.873  25.573   7.715
  882POPC   C1B14911   8.308  25.189   8.781
  882POPC   C2B14912   8.632  25.014   8.528
  882POPC   C3B14913   8.675  25.083   8.096
  882POPC   C4B14914   8.584  25.417   7.825
  883POPC   NC314915  23.706  10.013   9.360
  883POPC   PO414916  24.246   9.766   9.465
  883POPC   GL114917  23.926   9.453   9.226
  883POPC   GL214918  23.827   9.717   8.978
  883POPC   C1A14919  23.678   9.281   8.823
  883POPC   D2A14920  23.544   9.620   8.533
  883POPC   C3A14921  23.652   9.592   8.059
  883POPC   C4A14922  24.000   9.431   7.800
  883POPC   C1B14923  23.748  10.056   8.670
  883POPC   C2B14924  23.559  10.069   8.242
  883POPC   C3B14925  23.854  10.053   7.851
  883POPC   C4B14926  23.838  10.176   7.371
  884POPC   NC314927  41.641   5.887   9.580
  884POPC   PO414928  41.197   6.293   9.335
  884POPC   GL114929  41.572   6.084   9.119
  884POPC   GL214930  41.814   5.779   9.135
  884POPC   C1A14931  41.739   6.098   8.727
  884POPC   D2A14932  41.496   6.009   8.367
  884POPC   C3A14933  41.654   6.145   8.005
  884POPC   C4A14934  41.758   6.320   7.624
  884POPC   C1B14935  41.582   5.614   8.821
  884POPC   C2B14936  41.399   5.472   8.453
  884POPC   C3B14937  41.407   5.580   8.065
  884POPC   C4B14938  41.616   5.701   7.732
  885POPC   NC314939  14.746  23.973   9.774
  885POPC   PO414940  14.252  24.174   9.615
  885POPC   GL114941  14.277  24.429   9.185
  885POPC   GL214942  14.580  24.308   9.057
  885POPC   C1A14943  14.326  24.629   8.726
  885POPC   D2A14944  14.177  24.625   8.254
  885POPC   C3A14945  14.419  24.451   7.881
  885POPC   C4A14946  14.770  24.365   7.564
  885POPC   C1B14947  14.275  24.123   8.753
  885POPC   C2B14948  14.208  24.116   8.292
  885POPC   C3B14949  13.977  24.165   7.920
  885POPC   C4B14950  13.867  23.956   7.538
  886POPC   NC314951   7.455   9.631   9.546
  886POPC   PO414952   8.059   9.962   9.275
  886POPC   GL114953   7.677   9.827   9.118
  886POPC   GL214954   7.633   9.468   9.087
  886POPC   C1A14955   7.584   9.836   8.691
  886POPC   D2A14956   7.695   9.981   8.310
  886POPC   C3A14957   7.463   9.925   8.007
  886POPC   C4A14958   7.582   9.927   7.626
  886POPC   C1B14959   7.373   9.391   8.703
  886POPC   C2B14960   7.270   9.591   8.334
  886POPC   C3B14961   7.379   9.428   7.944
  886POPC   C4B14962   7.256   9.345   7.573
  887POPC   NC314963  37.923  25.839   9.507
  887POPC   PO414964  38.107  26.496   9.422
  887POPC   GL114965  37.758  26.176   9.178
  887POPC   GL214966  37.376  26.212   9.047
  887POPC   C1A14967  37.686  25.824   8.870
  887POPC   D2A14968  37.845  25.810   8.452
  887POPC   C3A14969  37.616  25.913   8.073
  887POPC   C4A14970  37.787  25.753   7.662
  887POPC   C1B14971  37.410  26.135   8.584
  887POPC   C2B14972  37.716  26.337   8.366
  887POPC   C3B14973  37.755  26.443   7.952
  887POPC   C4B14974  37.670  26.225   7.604
  888POPC   NC314975  23.320   3.206   9.443
  888POPC   PO414976  22.870   3.800   9.346
  888POPC   GL114977  23.163   3.619   9.114
  888POPC   GL214978  22.912   3.397   9.029
  888POPC   C1A14979  23.304   3.434   8.710
  888POPC   D2A14980  22.968   3.421   8.430
  888POPC   C3A14981  23.046   3.381   8.018
  888POPC   C4A14982  23.006   3.642   7.670
  888POPC   C1B14983  22.631   3.621   8.756
  888POPC   C2B14984  22.570   3.878   8.400
  888POPC   C3B14985  22.599   3.756   7.957
  888POPC   C4B14986  22.575   3.967   7.553
  889POPC   NC314987   4.157  32.474   9.565
  889POPC   PO414988   3.801  31.930   9.748
  889POPC   GL114989   4.054  32.060   9.270
  889POPC   GL214990   4.165  32.448   9.075
  889POPC   C1A14991   4.404  32.042   8.906
  889POPC   D2A14992   4.437  32.134   8.398
  889POPC   C3A14993   4.461  31.990   7.904
  889POPC   C4A14994   4.373  32.129   7.442
  889POPC   C1B14995   4.586  32.518   8.847
  889POPC   C2B14996   4.793  32.538   8.435
  889POPC   C3B14997   4.607  32.468   8.029
  889POPC   C4B14998   4.194  32.444   7.772
  890POPC   NC314999  12.089   6.012   9.582
  890POPC   PO415000  11.584   5.626   9.251
  890POPC   GL115001  12.008   5.692   9.164
  890POPC   GL215002  12.004   6.033   9.095
  890POPC   C1A15003  12.194   5.683   8.774
  890POPC   D2A15004  12.149   5.504   8.376
  890POPC   C3A15005  12.065   5.806   8.041
  890POPC   C4A15006  12.182   5.687   7.633
  890POPC   C1B15007  12.138   6.184   8.713
  890POPC   C2B15008  11.982   6.322   8.303
  890POPC   C3B15009  12.117   6.348   7.854
  890POPC   C4B15010  12.129   6.134   7.443
  891POPC   NC315011  36.333  41.923   9.401
  891POPC   PO415012  36.101  42.631   9.491
  891POPC   GL115013  35.943  42.374   9.174
  891POPC   GL215014  36.237  42.252   9.002
  891POPC   C1A15015  35.779  42.295   8.770
  891POPC   D2A15016  36.016  42.140   8.453
  891POPC   C3A15017  35.951  42.255   8.071
  891POPC   C4A15018  35.894  42.347   7.669
  891POPC   C1B15019  36.504  42.146   8.631
  891POPC   C2B15020  36.453  42.311   8.213
  891POPC   C3B15021  36.379  42.378   7.805
  891POPC   C4B15022  36.400  42.205   7.342
  892POPC   NC315023  41.332  44.780   9.504
  892POPC   PO415024  41.986  44.823   9.352
  892POPC   GL115025  41.699  44.514   9.137
  892POPC   GL215026  41.307  44.554   9.060
  892POPC   C1A15027  41.715  44.590   8.718
  892POPC   D2A15028  41.604  44.883   8.419
  892POPC   C3A15029  41.674  44.721   8.013
  892POPC   C4A15030  41.367  44.834   7.714
  892POPC   C1B15031  41.265  44.344   8.707
  892POPC   C2B15032  41.285  44.475   8.311
  892POPC   C3B15033  41.361  44.256   7.948
  892POPC   C4B15034  41.251  44.219   7.517
  893POPC   NC315035   0.802   8.332   9.615
  893POPC   PO415036   1.389   8.257   9.449
  893POPC   GL115037   1.285   8.011   9.120
  893POPC   GL215038   0.966   8.212   9.119
  893POPC   C1A15039   1.538   8.030   8.733
  893POPC   D2A15040   1.391   8.065   8.307
  893POPC   C3A15041   1.223   8.100   7.871
  893POPC   C4A15042   1.336   8.093   7.442
  893POPC   C1B15043   1.096   8.274   8.708
  893POPC   C2B15044   0.965   8.416   8.327
  893POPC   C3B15045   0.805   8.353   7.958
  893POPC   C4B15046   1.040   8.576   7.618
  894POPC   NC315047  16.425  10.608   9.414
  894POPC   PO415048  17.091  10.613   9.489
  894POPC   GL115049  16.858  10.352   9.175
  894POPC   GL215050  16.543  10.137   9.176
  894POPC   C1A15051  16.915  10.226   8.762
  894POPC   D2A15052  17.067  10.473   8.398
  894POPC   C3A15053  16.911  10.477   7.988
  894POPC   C4A15054  16.804  10.166   7.741
  894POPC   C1B15055  16.403  10.245   8.745
  894POPC   C2B15056  16.574  10.329   8.332
  894POPC   C3B15057  16.395  10.391   7.891
  894POPC   C4B15058  16.192  10.676   7.590
  895POPC   NC315059  41.088  20.595   9.216
  895POPC   PO415060  41.698  20.780   9.599
  895POPC   GL115061  41.589  20.767   9.185
  895POPC   GL215062  41.709  20.435   9.122
  895POPC   C1A15063  41.639  20.754   8.725
  895POPC   D2A15064  41.422  20.701   8.332
  895POPC   C3A15065  41.678  20.834   7.994
  895POPC   C4A15066  41.790  20.797   7.565
  895POPC   C1B15067  41.676  20.222   8.704
  895POPC   C2B15068  41.812  20.362   8.303
  895POPC   C3B15069  41.589  20.355   7.885
  895POPC   C4B15070  41.467  20.074   7.562
  896POPC   NC315071  38.341  27.556   9.415
  896POPC   PO415072  37.791  27.274   9.676
  896POPC   GL115073  37.814  27.409   9.185
  896POPC   GL215074  37.588  27.710   9.075
  896POPC   C1A15075  37.587  27.363   8.738
  896POPC   D2A15076  37.368  27.237   8.371
  896POPC   C3A15077  37.561  27.309   7.961
  896POPC   C4A15078  37.953  27.501   7.848
  896POPC   C1B15079  37.712  27.844   8.670
  896POPC   C2B15080  37.572  27.726   8.270
  896POPC   C3B15081  37.644  27.934   7.882
  896POPC   C4B15082  37.699  28.227   7.532
  897POPC   NC315083  42.417  29.266   9.764
  897POPC   PO415084  41.836  29.387   9.484
  897POPC   GL115085  42.253  29.264   9.240
  897POPC   GL215086  42.596  29.355   9.296
  897POPC   C1A15087  42.521  29.121   8.841
  897POPC   D2A15088  42.431  29.005   8.387
  897POPC   C3A15089  42.430  28.809   7.948
  897POPC   C4A15090  42.232  28.873   7.545
  897POPC   C1B15091  42.790  29.575   8.970
  897POPC   C2B15092  42.772  29.499   8.533
  897POPC   C3B15093  42.728  29.307   8.110
  897POPC   C4B15094  42.527  29.276   7.715
  898POPC   NC315095  35.667  33.353   9.634
  898POPC   PO415096  35.398  34.059   9.426
  898POPC   GL115097  35.326  33.788   9.109
  898POPC   GL215098  35.432  33.477   9.192
  898POPC   C1A15099  35.186  33.712   8.700
  898POPC   D2A15100  35.244  33.965   8.370
  898POPC   C3A15101  35.167  33.875   7.986
  898POPC   C4A15102  35.360  34.037   7.624
  898POPC   C1B15103  35.604  33.446   8.790
  898POPC   C2B15104  35.649  33.613   8.367
  898POPC   C3B15105  35.650  33.725   7.945
  898POPC   C4B15106  35.348  33.507   7.685
  899POPC   NC315107   3.152  41.923   9.821
  899POPC   PO415108   3.650  41.643   9.486
  899POPC   GL115109   3.418  41.541   9.125
  899POPC   GL215110   3.656  41.466   8.865
  899POPC   C1A15111   3.209  41.715   8.760
  899POPC   D2A15112   3.375  41.580   8.377
  899POPC   C3A15113   3.254  41.732   7.970
  899POPC   C4A15114   3.633  41.699   7.666
  899POPC   C1B15115   3.348  41.172   8.704
  899POPC   C2B15116   3.193  41.105   8.288
  899POPC   C3B15117   3.468  41.273   7.973
  899POPC   C4B15118   3.706  41.190   7.608
  900POPC   NC315119  40.258  25.527   9.549
  900POPC   PO415120  40.063  26.218   9.363
  900POPC   GL115121  40.074  25.910   9.090
  900POPC   GL215122  39.822  25.697   9.274
  900POPC   C1A15123  39.981  26.030   8.645
  900POPC   D2A15124  39.734  26.046   8.256
  900POPC   C3A15125  40.012  26.094   7.917
  900POPC   C4A15126  40.057  25.915   7.498
  900POPC   C1B15127  39.812  25.578   8.828
  900POPC   C2B15128  39.737  25.539   8.389
  900POPC   C3B15129  39.817  25.612   7.949
  900POPC   C4B15130  39.555  25.486   7.599
  901POPC   NC315131   1.508  11.610   9.821
  901POPC   PO415132   1.172  12.146   9.600
  901POPC   GL115133   1.235  11.949   9.214
  901POPC   GL215134   0.996  11.662   9.201
  901POPC   C1A15135   1.235  11.896   8.770
  901POPC   D2A15136   1.310  12.195   8.434
  901POPC   C3A15137   1.374  12.073   8.022
  901POPC   C4A15138   1.481  12.465   7.831
  901POPC   C1B15139   0.719  11.756   8.832
  901POPC   C2B15140   0.627  11.580   8.418
  901POPC   C3B15141   0.755  11.684   8.001
  901POPC   C4B15142   0.939  11.945   7.676
  902POPC   NC315143  21.669   5.862   9.480
  902POPC   PO415144  21.042   6.260   9.531
  902POPC   GL115145  21.238   5.978   9.201
  902POPC   GL215146  21.585   6.020   9.012
  902POPC   C1A15147  21.230   5.718   8.837
  902POPC   D2A15148  21.287   5.994   8.502
  902POPC   C3A15149  21.402   5.773   8.144
  902POPC   C4A15150  21.263   5.796   7.731
  902POPC   C1B15151  21.854   6.056   8.652
  902POPC   C2B15152  21.711   6.174   8.281
  902POPC   C3B15153  21.457   6.236   7.940
  902POPC   C4B15154  21.551   6.295   7.555
  903POPC   NC315155  21.851  39.156   9.640
  903POPC   PO415156  22.400  39.395   9.546
  903POPC   GL115157  22.108  39.346   9.206
  903POPC   GL215158  22.234  39.064   9.054
  903POPC   C1A15159  21.841  39.305   8.829
  903POPC   D2A15160  21.601  39.274   8.447
  903POPC   C3A15161  21.838  39.310   8.053
  903POPC   C4A15162  22.226  39.149   7.857
  903POPC   C1B15163  22.330  39.295   8.647
  903POPC   C2B15164  22.541  39.342   8.241
  903POPC   C3B15165  22.644  39.531   7.835
  903POPC   C4B15166  22.571  39.477   7.375
  904POPC   NC315167  23.463  39.025   9.537
  904POPC   PO415168  23.897  39.486   9.402
  904POPC   GL115169  23.744  39.208   9.170
  904POPC   GL215170  23.930  38.949   9.289
  904POPC   C1A15171  23.504  39.193   8.839
  904POPC   D2A15172  23.738  39.320   8.505
  904POPC   C3A15173  23.651  39.014   8.211
  904POPC   C4A15174  23.517  39.214   7.833
  904POPC   C1B15175  24.042  38.950   8.845
  904POPC   C2B15176  24.137  39.026   8.408
  904POPC   C3B15177  24.043  39.239   8.014
  904POPC   C4B15178  24.131  39.094   7.627
  905POPC   NC315179   2.400  29.588   9.857
  905POPC   PO415180   1.953  30.020   9.673
  905POPC   GL115181   1.990  30.153   9.225
  905POPC   GL215182   2.150  29.855   9.139
  905POPC   C1A15183   1.955  30.154   8.753
  905POPC   D2A15184   2.110  29.981   8.344
  905POPC   C3A15185   1.933  30.096   7.930
  905POPC   C4A15186   1.645  29.783   7.767
  905POPC   C1B15187   2.401  29.845   8.758
  905POPC   C2B15188   2.627  29.888   8.349
  905POPC   C3B15189   2.429  29.869   7.963
  905POPC   C4B15190   2.527  29.721   7.578
  906POPC   NC315191  33.104   7.731   9.573
  906POPC   PO415192  32.803   7.059   9.538
  906POPC   GL115193  32.989   7.272   9.157
  906POPC   GL215194  33.234   7.496   9.168
  906POPC   C1A15195  32.867   7.530   8.784
  906POPC   D2A15196  32.659   7.357   8.432
  906POPC   C3A15197  32.893   7.410   8.059
  906POPC   C4A15198  32.915   7.148   7.721
  906POPC   C1B15199  33.369   7.655   8.814
  906POPC   C2B15200  33.222   7.605   8.406
  906POPC   C3B15201  33.351   7.672   7.978
  906POPC   C4B15202  33.044   7.783   7.695
  907POPC   NC315203  14.191  31.850   9.389
  907POPC   PO415204  14.498  31.317   9.708
  907POPC   GL115205  14.496  31.465   9.254
  907POPC   GL215206  14.134  31.406   9.145
  907POPC   C1A15207  14.624  31.409   8.811
  907POPC   D2A15208  14.415  31.234   8.444
  907POPC   C3A15209  14.555  31.212   8.012
  907POPC   C4A15210  14.241  31.097   7.705
  907POPC   C1B15211  14.112  31.533   8.734
  907POPC   C2B15212  14.397  31.742   8.481
  907POPC   C3B15213  14.346  31.700   8.067
  907POPC   C4B15214  13.914  31.728   7.921
  908POPC   NC315215  20.889   5.772   9.535
  908POPC   PO415216  20.262   6.093   9.558
  908POPC   GL115217  20.379   5.881   9.221
  908POPC   GL215218  20.696   6.067   9.181
  908POPC   C1A15219  20.371   6.032   8.808
  908POPC   D2A15220  20.608   5.915   8.478
  908POPC   C3A15221  20.452   5.983   8.087
  908POPC   C4A15222  20.747   5.862   7.748
  908POPC   C1B15223  20.915   6.173   8.837
  908POPC   C2B15224  20.841   6.374   8.471
  908POPC   C3B15225  20.964   6.154   8.104
  908POPC   C4B15226  20.997   6.301   7.666
  909POPC   NC315227  34.225  23.695   9.395
  909POPC   PO415228  34.629  24.184   9.559
  909POPC   GL115229  34.492  24.093   9.163
  909POPC   GL215230  34.633  23.783   9.106
  909POPC   C1A15231  34.233  23.909   8.806
  909POPC   D2A15232  34.401  23.553   8.574
  909POPC   C3A15233  34.355  23.642   8.131
  909POPC   C4A15234  34.282  23.631   7.680
  909POPC   C1B15235  34.873  23.803   8.780
  909POPC   C2B15236  34.872  23.695   8.389
  909POPC   C3B15237  34.822  23.848   8.037
  909POPC   C4B15238  35.039  23.848   7.706
  910POPC   NC315239  30.370  24.081   9.388
  910POPC   PO415240  30.526  23.455   9.291
  910POPC   GL115241  30.592  23.608   8.908
  910POPC   GL215242  30.677  23.944   8.931
  910POPC   C1A15243  30.805  23.604   8.534
  910POPC   D2A15244  30.533  23.744   8.230
  910POPC   C3A15245  30.609  23.699   7.814
  910POPC   C4A15246  30.793  23.576   7.408
  910POPC   C1B15247  31.115  24.074   8.789
  910POPC   C2B15248  31.279  23.859   8.438
  910POPC   C3B15249  31.029  23.787   8.087
  910POPC   C4B15250  30.964  24.033   7.695
  911POPC   NC315251  10.470  17.236   9.497
  911POPC   PO415252  10.629  17.980   9.555
  911POPC   GL115253  10.709  17.741   9.093
  911POPC   GL215254  10.745  17.368   9.103
  911POPC   C1A15255  10.710  17.663   8.658
  911POPC   D2A15256  10.888  17.848   8.301
  911POPC   C3A15257  10.733  17.679   7.961
  911POPC   C4A15258  10.412  17.617   7.686
  911POPC   C1B15259  10.482  17.229   8.746
  911POPC   C2B15260  10.450  17.388   8.301
  911POPC   C3B15261  10.533  17.191   7.907
  911POPC   C4B15262  10.408  17.128   7.491
  912POPC   NC315263  11.605  26.699   9.599
  912POPC   PO415264  12.257  26.655   9.471
  912POPC   GL115265  12.057  26.878   9.176
  912POPC   GL215266  11.720  26.766   9.122
  912POPC   C1A15267  11.953  27.085   8.803
  912POPC   D2A15268  11.865  26.859   8.444
  912POPC   C3A15269  12.180  26.868   8.140
  912POPC   C4A15270  12.128  26.828   7.721
  912POPC   C1B15271  11.549  26.461   8.838
  912POPC   C2B15272  11.741  26.313   8.464
  912POPC   C3B15273  11.832  26.473   8.088
  912POPC   C4B15274  11.836  26.400   7.675
  913POPC   NC315275   7.685  44.087   9.725
  913POPC   PO415276   7.209  43.684   9.586
  913POPC   GL115277   7.356  44.007   9.254
  913POPC   GL215278   7.719  44.052   9.215
  913POPC   C1A15279   7.319  44.042   8.774
  913POPC   D2A15280   7.152  43.915   8.346
  913POPC   C3A15281   7.239  44.146   7.957
  913POPC   C4A15282   7.667  44.198   7.787
  913POPC   C1B15283   7.733  43.758   8.906
  913POPC   C2B15284   7.732  43.841   8.466
  913POPC   C3B15285   7.562  43.775   8.063
  913POPC   C4B15286   7.669  43.729   7.604
  914POPC   NC315287  30.105  19.912   9.551
  914POPC   PO415288  29.654  19.426   9.562
  914POPC   GL115289  29.849  19.667   9.177
  914POPC   GL215290  29.935  20.043   9.091
  914POPC   C1A15291  30.096  19.668   8.787
  914POPC   D2A15292  30.173  20.020   8.495
  914POPC   C3A15293  30.086  20.007   8.040
  914POPC   C4A15294  30.001  20.373   7.808
  914POPC   C1B15295  29.694  19.991   8.735
  914POPC   C2B15296  29.714  20.228   8.335
  914POPC   C3B15297  29.563  20.135   7.931
  914POPC   C4B15298  29.615  19.712   7.809
  915POPC   NC315299  18.286  20.943   9.540
  915POPC   PO415300  17.906  20.391   9.396
  915POPC   GL115301  17.996  20.768   9.158
  915POPC   GL215302  18.380  20.725   9.087
  915POPC   C1A15303  18.035  20.857   8.730
  915POPC   D2A15304  18.124  20.441   8.522
  915POPC   C3A15305  18.151  20.394   8.066
  915POPC   C4A15306  18.162  20.595   7.659
  915POPC   C1B15307  18.515  20.769   8.653
  915POPC   C2B15308  18.342  20.831   8.253
  915POPC   C3B15309  18.588  20.657   7.913
  915POPC   C4B15310  18.630  20.740   7.479
  916POPC   NC315311  42.514  22.531   9.598
  916POPC   PO415312  42.207  23.140   9.481
  916POPC   GL115313  42.209  22.853   9.164
  916POPC   GL215314  42.540  22.766   9.136
  916POPC   C1A15315  42.215  22.638   8.747
  916POPC   D2A15316  42.278  22.516   8.305
  916POPC   C3A15317  42.392  22.864   8.068
  916POPC   C4A15318  42.293  22.939   7.659
  916POPC   C1B15319  42.752  22.859   8.793
  916POPC   C2B15320  42.745  22.693   8.423
  916POPC   C3B15321  42.775  22.512   8.053
  916POPC   C4B15322  42.744  22.696   7.681
  917POPC   NC315323  38.539  13.894   9.952
  917POPC   PO415324  38.539  13.336   9.593
  917POPC   GL115325  38.572  13.458   9.151
  917POPC   GL215326  38.616  13.833   9.151
  917POPC   C1A15327  38.612  13.548   8.715
  917POPC   D2A15328  38.911  13.626   8.399
  917POPC   C3A15329  38.799  13.459   8.041
  917POPC   C4A15330  38.564  13.588   7.734
  917POPC   C1B15331  38.252  13.903   8.886
  917POPC   C2B15332  38.197  13.858   8.468
  917POPC   C3B15333  38.275  13.627   8.145
  917POPC   C4B15334  38.072  13.720   7.788
  918POPC   NC315335  44.395   9.458   9.602
  918POPC   PO415336  44.677  10.081   9.470
  918POPC   GL115337  44.685   9.700   9.219
  918POPC   GL215338  44.353   9.698   9.138
  918POPC   C1A15339  44.732   9.355   8.888
  918POPC   D2A15340  44.938   9.296   8.453
  918POPC   C3A15341  44.785   9.602   8.167
  918POPC   C4A15342  44.860   9.914   7.868
  918POPC   C1B15343  44.518   9.781   8.713
  918POPC   C2B15344  44.350   9.806   8.297
  918POPC   C3B15345  44.350   9.807   7.861
  918POPC   C4B15346  44.524   9.975   7.471
  919POPC   NC315347  37.281  41.999   9.419
  919POPC   PO415348  37.786  42.440   9.477
  919POPC   GL115349  37.543  42.391   9.144
  919POPC   GL215350  37.669  42.081   9.089
  919POPC   C1A15351  37.543  42.398   8.701
  919POPC   D2A15352  37.579  42.738   8.412
  919POPC   C3A15353  37.496  42.601   7.977
  919POPC   C4A15354  37.744  42.446   7.645
  919POPC   C1B15355  37.940  41.952   8.773
  919POPC   C2B15356  37.802  41.963   8.376
  919POPC   C3B15357  37.926  42.063   7.973
  919POPC   C4B15358  37.634  41.935   7.683
  920POPC   NC315359  33.063  37.290   9.598
  920POPC   PO415360  32.936  37.916   9.575
  920POPC   GL115361  32.967  37.659   9.189
  920POPC   GL215362  32.786  37.357   9.132
  920POPC   C1A15363  33.220  37.610   8.805
  920POPC   D2A15364  33.162  37.870   8.443
  920POPC   C3A15365  33.332  37.733   8.084
  920POPC   C4A15366  33.158  37.572   7.726
  920POPC   C1B15367  32.744  37.502   8.680
  920POPC   C2B15368  32.897  37.467   8.236
  920POPC   C3B15369  32.693  37.393   7.821
  920POPC   C4B15370  32.846  37.219   7.423
  921POPC   NC315371  34.398  26.247   9.626
  921POPC   PO415372  34.900  25.801   9.465
  921POPC   GL115373  34.754  26.221   9.256
  921POPC   GL215374  34.579  25.993   9.089
  921POPC   C1A15375  34.622  26.391   8.822
  921POPC   D2A15376  34.330  26.298   8.511
  921POPC   C3A15377  34.590  26.156   8.200
  921POPC   C4A15378  34.650  26.250   7.794
  921POPC   C1B15379  34.576  25.858   8.648
  921POPC   C2B15380  34.617  25.634   8.259
  921POPC   C3B15381  34.463  25.756   7.848
  921POPC   C4B15382  34.691  25.878   7.454
  922POPC   NC315383   3.220   3.218   9.560
  922POPC   PO415384   3.787   3.607   9.536
  922POPC   GL115385   3.581   3.490   9.152
  922POPC   GL215386   3.229   3.365   9.087
  922POPC   C1A15387   3.460   3.689   8.776
  922POPC   D2A15388   3.238   3.655   8.412
  922POPC   C3A15389   3.489   3.655   8.061
  922POPC   C4A15390   3.420   3.686   7.634
  922POPC   C1B15391   3.292   3.185   8.687
  922POPC   C2B15392   3.417   3.184   8.256
  922POPC   C3B15393   3.176   3.219   7.858
  922POPC   C4B15394   3.317   3.202   7.418
  923POPC   NC315395  27.540  42.639   9.840
  923POPC   PO415396  27.342  42.325   9.298
  923POPC   GL115397  27.742  42.441   9.169
  923POPC   GL215398  27.797  42.804   9.179
  923POPC   C1A15399  27.959  42.330   8.794
  923POPC   D2A15400  27.716  42.301   8.405
  923POPC   C3A15401  27.919  42.283   8.033
  923POPC   C4A15402  27.676  42.252   7.673
  923POPC   C1B15403  27.574  42.672   8.755
  923POPC   C2B15404  27.371  42.720   8.371
  923POPC   C3B15405  27.508  42.627   7.963
  923POPC   C4B15406  27.341  42.704   7.547
  924POPC   NC315407  13.595  14.444   9.719
  924POPC   PO415408  13.095  14.674   9.590
  924POPC   GL115409  13.391  14.601   9.221
  924POPC   GL215410  13.727  14.446   9.187
  924POPC   C1A15411  13.520  14.729   8.786
  924POPC   D2A15412  13.771  14.813   8.408
  924POPC   C3A15413  13.686  14.573   8.027
  924POPC   C4A15414  13.422  14.503   7.644
  924POPC   C1B15415  13.998  14.532   8.791
  924POPC   C2B15416  14.201  14.535   8.345
  924POPC   C3B15417  14.168  14.515   7.876
  924POPC   C4B15418  13.901  14.334   7.520
  925POPC   NC315419  41.875  40.032   9.568
  925POPC   PO415420  41.217  39.874   9.708
  925POPC   GL115421  41.415  39.788   9.281
  925POPC   GL215422  41.761  39.608   9.281
  925POPC   C1A15423  41.264  39.936   8.838
  925POPC   D2A15424  41.443  40.293   8.573
  925POPC   C3A15425  41.556  40.195   8.129
  925POPC   C4A15426  41.412  40.316   7.727
  925POPC   C1B15427  41.776  39.877   8.902
  925POPC   C2B15428  41.677  39.804   8.479
  925POPC   C3B15429  41.796  39.712   8.048
  925POPC   C4B15430  41.792  39.947   7.635
  926POPC   NC315431  13.814  35.228   9.502
  926POPC   PO415432  13.775  35.884   9.434
  926POPC   GL115433  13.730  35.546   9.108
  926POPC   GL215434  13.410  35.429   9.198
  926POPC   C1A15435  13.727  35.287   8.697
  926POPC   D2A15436  13.735  35.078   8.284
  926POPC   C3A15437  13.747  35.404   7.962
  926POPC   C4A15438  13.838  35.615   7.565
  926POPC   C1B15439  13.294  35.144   8.886
  926POPC   C2B15440  13.221  35.107   8.436
  926POPC   C3B15441  13.308  35.137   7.988
  926POPC   C4B15442  13.409  35.348   7.585
  927POPC   NC315443  18.433   2.308   9.585
  927POPC   PO415444  18.077   1.762   9.525
  927POPC   GL115445  18.342   1.951   9.211
  927POPC   GL215446  18.079   2.200   9.151
  927POPC   C1A15447  18.462   2.128   8.806
  927POPC   D2A15448  18.384   1.929   8.432
  927POPC   C3A15449  18.160   2.107   8.089
  927POPC   C4A15450  18.268   2.302   7.701
  927POPC   C1B15451  18.007   1.880   8.812
  927POPC   C2B15452  17.952   1.615   8.420
  927POPC   C3B15453  17.842   1.582   7.964
  927POPC   C4B15454  17.935   1.910   7.661
  928POPC   NC315455   3.740   9.760   9.739
  928POPC   PO415456   3.227   9.941   9.450
  928POPC   GL115457   3.463   9.687   9.121
  928POPC   GL215458   3.718   9.931   9.165
  928POPC   C1A15459   3.558   9.431   8.735
  928POPC   D2A15460   3.764   9.238   8.362
  928POPC   C3A15461   3.543   9.395   8.001
  928POPC   C4A15462   3.616   9.531   7.590
  928POPC   C1B15463   3.856   9.879   8.748
  928POPC   C2B15464   3.739   9.750   8.334
  928POPC   C3B15465   3.952   9.715   7.948
  928POPC   C4B15466   3.959   9.940   7.555
  929POPC   NC315467  40.540  36.484   9.375
  929POPC   PO415468  40.472  35.752   9.321
  929POPC   GL115469  40.681  36.071   9.079
  929POPC   GL215470  40.501  36.287   8.881
  929POPC   C1A15471  40.961  36.050   8.698
  929POPC   D2A15472  41.012  35.921   8.265
  929POPC   C3A15473  40.695  36.068   7.927
  929POPC   C4A15474  40.751  35.936   7.476
  929POPC   C1B15475  40.574  36.234   8.437
  929POPC   C2B15476  40.916  36.441   8.206
  929POPC   C3B15477  40.920  36.509   7.752
  929POPC   C4B15478  41.137  36.566   7.368
  930POPC   NC315479   6.899  25.781   9.326
  930POPC   PO415480   6.435  26.227   9.399
  930POPC   GL115481   6.575  26.361   9.036
  930POPC   GL215482   6.934  26.355   9.039
  930POPC   C1A15483   6.364  26.410   8.631
  930POPC   D2A15484   6.377  26.528   8.223
  930POPC   C3A15485   6.415  26.136   8.062
  930POPC   C4A15486   6.487  25.856   7.766
  930POPC   C1B15487   6.824  26.032   8.695
  930POPC   C2B15488   6.685  25.760   8.335
  930POPC   C3B15489   6.925  25.711   7.950
  930POPC   C4B15490   6.964  26.069   7.679
  931POPC   NC315491   5.244  43.541   9.493
  931POPC   PO415492   5.056  44.220   9.663
  931POPC   GL115493   5.185  44.152   9.227
  931POPC   GL215494   5.161  43.824   9.094
  931POPC   C1A15495   5.128  44.218   8.785
  931POPC   D2A15496   5.304  44.076   8.391
  931POPC   C3A15497   5.034  43.964   8.110
  931POPC   C4A15498   4.840  44.032   7.763
  931POPC   C1B15499   5.172  43.681   8.680
  931POPC   C2B15500   5.206  43.506   8.260
  931POPC   C3B15501   4.820  43.507   7.984
  931POPC   C4B15502   5.101  43.601   7.700
  932POPC   NC315503   9.645  37.211   9.558
  932POPC   PO415504   9.915  37.915   9.489
  932POPC   GL115505   9.953  37.659   9.138
  932POPC   GL215506   9.675  37.532   9.114
  932POPC   C1A15507   9.885  37.765   8.691
  932POPC   D2A15508  10.130  38.062   8.435
  932POPC   C3A15509  10.087  37.892   8.007
  932POPC   C4A15510   9.684  37.800   7.761
  932POPC   C1B15511   9.437  37.510   8.739
  932POPC   C2B15512   9.523  37.600   8.319
  932POPC   C3B15513   9.413  37.370   7.977
  932POPC   C4B15514   9.453  37.370   7.568
  933POPC   NC315515  33.099  32.215   9.732
  933POPC   PO415516  33.179  31.604   9.750
  933POPC   GL115517  33.270  32.037   9.308
  933POPC   GL215518  33.053  32.383   9.251
  933POPC   C1A15519  33.268  32.166   8.844
  933POPC   D2A15520  32.962  32.426   8.553
  933POPC   C3A15521  32.986  32.368   8.090
  933POPC   C4A15522  33.032  32.238   7.641
  933POPC   C1B15523  32.761  32.145   8.963
  933POPC   C2B15524  32.538  32.087   8.554
  933POPC   C3B15525  32.572  32.039   8.095
  933POPC   C4B15526  32.490  32.234   7.704
  934POPC   NC315527   9.870  40.048   9.597
  934POPC   PO415528   9.293  39.676   9.520
  934POPC   GL115529   9.569  39.900   9.168
  934POPC   GL215530   9.870  40.158   9.120
  934POPC   C1A15531   9.680  39.955   8.717
  934POPC   D2A15532   9.874  39.919   8.328
  934POPC   C3A15533   9.634  40.101   7.999
  934POPC   C4A15534   9.459  40.043   7.554
  934POPC   C1B15535  10.174  40.075   8.802
  934POPC   C2B15536  10.193  40.297   8.415
  934POPC   C3B15537  10.158  40.229   7.997
  934POPC   C4B15538   9.944  40.228   7.615
  935POPC   NC315539  31.331   4.386   9.587
  935POPC   PO415540  31.978   4.252   9.452
  935POPC   GL115541  31.680   4.446   9.152
  935POPC   GL215542  31.367   4.653   9.145
  935POPC   C1A15543  31.434   4.294   8.773
  935POPC   D2A15544  31.092   4.263   8.446
  935POPC   C3A15545  31.278   4.105   8.068
  935POPC   C4A15546  31.550   4.258   7.792
  935POPC   C1B15547  31.132   4.718   8.767
  935POPC   C2B15548  31.089   4.818   8.320
  935POPC   C3B15549  31.304   4.725   7.898
  935POPC   C4B15550  31.306   4.538   7.450
  936POPC   NC315551  37.495  21.463   9.421
  936POPC   PO415552  37.992  21.051   9.590
  936POPC   GL115553  37.805  21.132   9.171
  936POPC   GL215554  37.473  21.107   9.040
  936POPC   C1A15555  37.833  21.277   8.719
  936POPC   D2A15556  37.535  21.127   8.380
  936POPC   C3A15557  37.763  21.056   7.986
  936POPC   C4A15558  37.763  21.493   7.904
  936POPC   C1B15559  37.389  21.522   8.785
  936POPC   C2B15560  37.390  21.724   8.366
  936POPC   C3B15561  37.223  21.728   7.982
  936POPC   C4B15562  37.277  21.385   7.707
  937POPC   NC315563  36.130  17.815   9.403
  937POPC   PO415564  36.185  18.426   9.467
  937POPC   GL115565  36.256  18.324   9.061
  937POPC   GL215566  36.556  18.524   9.086
  937POPC   C1A15567  36.118  18.296   8.593
  937POPC   D2A15568  36.125  18.643   8.259
  937POPC   C3A15569  35.977  18.577   7.816
  937POPC   C4A15570  35.694  18.253   7.605
  937POPC   C1B15571  36.465  18.637   8.710
  937POPC   C2B15572  36.625  18.666   8.347
  937POPC   C3B15573  36.503  18.488   7.949
  937POPC   C4B15574  36.305  18.213   7.578
  938POPC   NC315575   0.240  25.541   9.389
  938POPC   PO415576   0.491  26.259   9.577
  938POPC   GL115577   0.536  26.037   9.220
  938POPC   GL215578   0.200  26.008   9.165
  938POPC   C1A15579   0.633  25.920   8.806
  938POPC   D2A15580   0.749  25.718   8.427
  938POPC   C3A15581   0.538  25.917   8.096
  938POPC   C4A15582   0.642  25.977   7.698
  938POPC   C1B15583   0.107  25.834   8.784
  938POPC   C2B15584   0.210  26.098   8.451
  938POPC   C3B15585   0.105  26.175   8.017
  938POPC   C4B15586   0.151  26.029   7.583
  939POPC   NC315587  15.003   5.641   9.818
  939POPC   PO415588  14.464   5.790   9.415
  939POPC   GL115589  14.353   5.939   9.082
  939POPC   GL215590  14.654   5.863   8.926
  939POPC   C1A15591  14.235   6.135   8.714
  939POPC   D2A15592  14.372   5.897   8.405
  939POPC   C3A15593  14.126   5.834   8.072
  939POPC   C4A15594  14.334   5.575   7.818
  939POPC   C1B15595  14.919   5.928   8.605
  939POPC   C2B15596  14.791   6.094   8.188
  939POPC   C3B15597  14.529   6.053   7.837
  939POPC   C4B15598  14.495   6.271   7.439
  940POPC   NC315599  27.379  15.538   9.432
  940POPC   PO415600  27.499  14.868   9.510
  940POPC   GL115601  27.766  15.042   9.164
  940POPC   GL215602  27.762  15.398   9.150
  940POPC   C1A15603  27.611  15.038   8.714
  940POPC   D2A15604  27.364  15.200   8.343
  940POPC   C3A15605  27.566  15.188   7.966
  940POPC   C4A15606  27.992  15.040   7.899
  940POPC   C1B15607  27.624  15.555   8.745
  940POPC   C2B15608  27.807  15.765   8.387
  940POPC   C3B15609  27.944  15.523   8.059
  940POPC   C4B15610  27.833  15.441   7.616
  941POPC   NC315611  32.665  44.623   9.538
  941POPC   PO415612  33.340  44.590   9.507
  941POPC   GL115613  33.051  44.747   9.211
  941POPC   GL215614  32.952  44.429   9.114
  941POPC   C1A15615  32.944  44.907   8.796
  941POPC   D2A15616  33.070  44.718   8.417
  941POPC   C3A15617  33.115  44.888   8.032
  941POPC   C4A15618  32.929   0.110   7.715
  941POPC   C1B15619  33.305  44.499   8.827
  941POPC   C2B15620  33.500  44.444   8.437
  941POPC   C3B15621  33.309  44.394   8.021
  941POPC   C4B15622  32.986  44.522   7.715
  942POPC   NC315623  25.807  19.900   9.303
  942POPC   PO415624  25.959  19.343   9.568
  942POPC   GL115625  26.107  19.414   9.097
  942POPC   GL215626  25.928  19.678   8.857
  942POPC   C1A15627  26.405  19.570   8.763
  942POPC   D2A15628  26.297  19.852   8.422
  942POPC   C3A15629  26.175  19.703   8.019
  942POPC   C4A15630  25.794  19.608   7.831
  942POPC   C1B15631  26.075  20.140   8.785
  942POPC   C2B15632  26.078  20.411   8.452
  942POPC   C3B15633  26.106  20.221   8.077
  942POPC   C4B15634  26.016  20.074   7.668
  943POPC   NC315635  42.931  36.253   9.560
  943POPC   PO415636  43.536  35.937   9.443
  943POPC   GL115637  43.236  36.100   9.160
  943POPC   GL215638  42.932  35.889   9.198
  943POPC   C1A15639  43.300  36.151   8.724
  943POPC   D2A15640  43.361  36.053   8.287
  943POPC   C3A15641  43.257  36.268   7.914
  943POPC   C4A15642  43.305  36.145   7.494
  943POPC   C1B15643  42.760  36.177   8.878
  943POPC   C2B15644  42.864  36.054   8.461
  943POPC   C3B15645  42.869  35.940   8.046
  943POPC   C4B15646  42.795  36.185   7.707
  944POPC   NC315647  29.260  24.005   9.491
  944POPC   PO415648  29.167  24.666   9.523
  944POPC   GL115649  29.074  24.533   9.124
  944POPC   GL215650  28.999  24.170   9.079
  944POPC   C1A15651  29.291  24.649   8.767
  944POPC   D2A15652  29.337  24.451   8.371
  944POPC   C3A15653  29.297  24.741   8.033
  944POPC   C4A15654  28.990  24.735   7.722
  944POPC   C1B15655  28.743  24.062   8.712
  944POPC   C2B15656  28.811  24.037   8.270
  944POPC   C3B15657  29.114  24.138   7.973
  944POPC   C4B15658  29.111  24.275   7.548
  945POPC   NC315659  37.925  15.113   9.510
  945POPC   PO415660  37.385  15.516   9.491
  945POPC   GL115661  37.561  15.376   9.146
  945POPC   GL215662  37.582  15.045   9.138
  945POPC   C1A15663  37.575  15.300   8.709
  945POPC   D2A15664  37.869  15.256   8.378
  945POPC   C3A15665  37.665  15.412   7.994
  945POPC   C4A15666  37.777  15.403   7.551
  945POPC   C1B15667  37.811  14.840   8.820
  945POPC   C2B15668  37.864  14.706   8.391
  945POPC   C3B15669  37.850  14.927   7.993
  945POPC   C4B15670  37.636  14.918   7.585
  946POPC   NC315671   0.104  30.909   9.492
  946POPC   PO415672   0.688  30.595   9.415
  946POPC   GL115673   0.487  30.816   9.133
  946POPC   GL215674   0.210  30.621   9.087
  946POPC   C1A15675   0.594  30.797   8.729
  946POPC   D2A15676   0.604  30.548   8.382
  946POPC   C3A15677   0.514  30.770   8.010
  946POPC   C4A15678   0.732  30.592   7.661
  946POPC   C1B15679   0.165  30.468   8.684
  946POPC   C2B15680   0.170  30.269   8.300
  946POPC   C3B15681   0.418  30.271   7.948
  946POPC   C4B15682   0.249  30.518   7.625
  947POPC   NC315683  30.305   1.408   9.578
  947POPC   PO415684  29.694   1.175   9.627
  947POPC   GL115685  29.704   1.331   9.169
  947POPC   GL215686  30.031   1.550   9.133
  947POPC   C1A15687  29.549   1.122   8.732
  947POPC   D2A15688  29.604   0.880   8.335
  947POPC   C3A15689  29.616   1.202   8.013
  947POPC   C4A15690  29.676   1.379   7.644
  947POPC   C1B15691  30.033   1.256   8.784
  947POPC   C2B15692  30.016   1.183   8.353
  947POPC   C3B15693  30.036   1.530   8.015
  947POPC   C4B15694  30.150   1.539   7.560
  948POPC   NC315695  21.810  18.054   9.861
  948POPC   PO415696  21.391  18.488   9.504
  948POPC   GL115697  21.192  18.444   9.126
  948POPC   GL215698  21.374  18.138   9.083
  948POPC   C1A15699  21.173  18.401   8.683
  948POPC   D2A15700  21.213  18.103   8.357
  948POPC   C3A15701  21.209  18.353   7.964
  948POPC   C4A15702  21.508  18.387   7.636
  948POPC   C1B15703  21.637  18.047   8.708
  948POPC   C2B15704  21.664  17.802   8.339
  948POPC   C3B15705  21.469  17.894   7.946
  948POPC   C4B15706  21.631  17.926   7.507
  949POPC   NC315707  24.588   6.965   9.450
  949POPC   PO415708  24.537   6.303   9.407
  949POPC   GL115709  24.604   6.583   9.087
  949POPC   GL215710  24.324   6.830   9.031
  949POPC   C1A15711  24.569   6.634   8.653
  949POPC   D2A15712  24.260   6.594   8.368
  949POPC   C3A15713  24.495   6.736   8.040
  949POPC   C4A15714  24.591   6.678   7.594
  949POPC   C1B15715  24.169   7.037   8.663
  949POPC   C2B15716  24.291   7.188   8.243
  949POPC   C3B15717  24.339   7.123   7.772
  949POPC   C4B15718  24.204   6.958   7.397
  950POPC   NC315719   1.916   1.655   9.476
  950POPC   PO415720   1.578   2.222   9.415
  950POPC   GL115721   1.908   2.043   9.160
  950POPC   GL215722   1.899   2.244   8.924
  950POPC   C1A15723   1.943   1.733   8.814
  950POPC   D2A15724   1.880   1.949   8.406
  950POPC   C3A15725   2.033   1.708   8.057
  950POPC   C4A15726   2.244   1.946   7.777
  950POPC   C1B15727   1.669   2.449   8.635
  950POPC   C2B15728   1.697   2.408   8.210
  950POPC   C3B15729   1.816   2.170   7.890
  950POPC   C4B15730   1.607   2.096   7.505
  951POPC   NC315731  20.427   7.389   9.572
  951POPC   PO415732  21.008   7.817   9.358
  951POPC   GL115733  20.628   7.628   9.121
  951POPC   GL215734  20.544   7.253   9.104
  951POPC   C1A15735  20.705   7.466   8.685
  951POPC   D2A15736  20.904   7.393   8.300
  951POPC   C3A15737  20.685   7.600   7.994
  951POPC   C4A15738  20.464   7.363   7.752
  951POPC   C1B15739  20.375   7.065   8.710
  951POPC   C2B15740  20.361   7.213   8.264
  951POPC   C3B15741  20.256   6.897   7.939
  951POPC   C4B15742  20.134   6.895   7.490
  952POPC   NC315743  13.410  27.153   9.418
  952POPC   PO415744  13.849  26.731   9.320
  952POPC   GL115745  13.442  26.774   9.072
  952POPC   GL215746  13.377  27.088   8.916
  952POPC   C1A15747  13.366  26.607   8.659
  952POPC   D2A15748  13.593  26.678   8.299
  952POPC   C3A15749  13.545  26.728   7.891
  952POPC   C4A15750  13.747  26.672   7.505
  952POPC   C1B15751  13.710  27.019   8.696
  952POPC   C2B15752  13.701  27.186   8.315
  952POPC   C3B15753  13.891  27.075   7.957
  952POPC   C4B15754  13.813  27.189   7.537
  953POPC   NC315755  27.119  31.052   9.603
  953POPC   PO415756  27.084  30.374   9.672
  953POPC   GL115757  26.922  30.384   9.224
  953POPC   GL215758  27.043  30.730   9.199
  953POPC   C1A15759  26.780  30.544   8.797
  953POPC   D2A15760  26.839  30.739   8.386
  953POPC   C3A15761  26.723  30.472   8.049
  953POPC   C4A15762  26.639  30.677   7.680
  953POPC   C1B15763  27.106  30.933   8.785
  953POPC   C2B15764  27.322  30.915   8.369
  953POPC   C3B15765  27.118  30.812   7.934
  953POPC   C4B15766  27.065  30.803   7.441
  954POPC   NC315767   7.731   2.749   9.494
  954POPC   PO415768   7.247   3.164   9.534
  954POPC   GL115769   7.292   2.836   9.214
  954POPC   GL215770   7.601   2.910   9.039
  954POPC   C1A15771   7.330   2.530   8.843
  954POPC   D2A15772   7.530   2.412   8.431
  954POPC   C3A15773   7.323   2.651   8.079
  954POPC   C4A15774   7.188   2.755   7.662
  954POPC   C1B15775   7.582   2.918   8.597
  954POPC   C2B15776   7.517   3.123   8.212
  954POPC   C3B15777   7.599   3.046   7.786
  954POPC   C4B15778   7.747   2.864   7.413
  955POPC   NC315779  25.453  15.787   9.396
  955POPC   PO415780  25.065  16.290   9.424
  955POPC   GL115781  25.170  16.094   9.084
  955POPC   GL215782  25.519  16.176   9.063
  955POPC   C1A15783  25.031  15.925   8.719
  955POPC   D2A15784  25.198  15.768   8.342
  955POPC   C3A15785  25.289  16.116   8.090
  955POPC   C4A15786  24.981  16.066   7.836
  955POPC   C1B15787  25.549  15.868   8.736
  955POPC   C2B15788  25.691  15.879   8.319
  955POPC   C3B15789  25.552  15.697   7.903
  955POPC   C4B15790  25.521  15.664   7.414
  956POPC   NC315791  41.773   3.401   9.641
  956POPC   PO415792  41.481   3.995   9.517
  956POPC   GL115793  41.633   3.799   9.158
  956POPC   GL215794  41.924   3.620   9.187
  956POPC   C1A15795  41.558   3.685   8.724
  956POPC   D2A15796  41.731   3.843   8.334
  956POPC   C3A15797  41.504   3.845   7.955
  956POPC   C4A15798  41.439   3.642   7.589
  956POPC   C1B15799  41.989   3.376   8.815
  956POPC   C2B15800  41.780   3.330   8.416
  956POPC   C3B15801  41.813   3.447   7.996
  956POPC   C4B15802  41.781   3.183   7.665
  957POPC   NC315803  31.809  20.698   9.629
  957POPC   PO415804  31.130  20.634   9.561
  957POPC   GL115805  31.370  20.821   9.210
  957POPC   GL215806  31.717  20.688   9.121
  957POPC   C1A15807  31.456  20.967   8.782
  957POPC   D2A15808  31.283  20.760   8.422
  957POPC   C3A15809  31.406  20.802   8.003
  957POPC   C4A15810  31.119  20.552   7.777
  957POPC   C1B15811  31.699  20.514   8.693
  957POPC   C2B15812  31.638  20.407   8.260
  957POPC   C3B15813  31.561  20.300   7.833
  957POPC   C4B15814  31.799  20.148   7.460
  958POPC   NC315815   9.368  14.746   9.447
  958POPC   PO415816   8.675  14.705   9.479
  958POPC   GL115817   8.905  14.550   9.141
  958POPC   GL215818   9.161  14.761   8.984
  958POPC   C1A15819   8.894  14.413   8.718
  958POPC   D2A15820   8.827  14.643   8.399
  958POPC   C3A15821   8.941  14.331   8.146
  958POPC   C4A15822   9.013  14.329   7.742
  958POPC   C1B15823   9.359  14.357   8.871
  958POPC   C2B15824   9.248  14.091   8.502
  958POPC   C3B15825   9.387  14.085   8.071
  958POPC   C4B15826   9.361  13.980   7.649
  959POPC   NC315827   2.346   6.703   9.402
  959POPC   PO415828   1.693   6.850   9.425
  959POPC   GL115829   1.873   6.613   9.088
  959POPC   GL215830   1.929   6.264   9.121
  959POPC   C1A15831   1.877   6.664   8.656
  959POPC   D2A15832   1.737   6.950   8.362
  959POPC   C3A15833   1.945   6.913   7.987
  959POPC   C4A15834   1.772   6.817   7.604
  959POPC   C1B15835   1.739   6.176   8.700
  959POPC   C2B15836   1.871   6.322   8.242
  959POPC   C3B15837   1.828   6.314   7.786
  959POPC   C4B15838   2.107   6.143   7.461
  960POPC   NC315839  30.937  21.056   9.541
  960POPC   PO415840  30.405  20.593   9.540
  960POPC   GL115841  30.629  20.745   9.202
  960POPC   GL215842  30.501  21.054   9.283
  960POPC   C1A15843  30.697  20.670   8.746
  960POPC   D2A15844  30.482  20.429   8.448
  960POPC   C3A15845  30.646  20.393   8.055
  960POPC   C4A15846  30.501  20.252   7.716
  960POPC   C1B15847  30.799  21.125   8.898
  960POPC   C2B15848  30.899  21.113   8.453
  960POPC   C3B15849  30.820  20.857   8.110
  960POPC   C4B15850  30.669  20.739   7.664
  961POPC   NC315851  29.964   2.489   9.463
  961POPC   PO415852  30.191   1.845   9.542
  961POPC   GL115853  30.072   2.069   9.199
  961POPC   GL215854  29.705   2.109   9.195
  961POPC   C1A15855  30.034   2.149   8.780
  961POPC   D2A15856  29.799   2.014   8.433
  961POPC   C3A15857  30.006   2.040   8.090
  961POPC   C4A15858  29.942   1.978   7.686
  961POPC   C1B15859  29.491   2.183   8.807
  961POPC   C2B15860  29.422   2.357   8.377
  961POPC   C3B15861  29.527   2.257   7.980
  961POPC   C4B15862  29.642   2.351   7.571
  962POPC   NC315863  10.077  25.657   9.526
  962POPC   PO415864   9.602  25.098   9.577
  962POPC   GL115865   9.799  25.227   9.240
  962POPC   GL215866   9.689  25.564   9.177
  962POPC   C1A15867   9.695  25.167   8.831
  962POPC   D2A15868   9.930  25.243   8.474
  962POPC   C3A15869   9.781  25.171   8.095
  962POPC   C4A15870  10.027  25.125   7.738
  962POPC   C1B15871   9.912  25.650   8.781
  962POPC   C2B15872  10.063  25.722   8.341
  962POPC   C3B15873   9.936  25.628   7.901
  962POPC   C4B15874   9.584  25.405   7.676
  963POPC   NC315875  17.189  22.334   9.715
  963POPC   PO415876  17.392  21.746   9.633
  963POPC   GL115877  17.352  21.869   9.153
  963POPC   GL215878  17.518  22.172   9.051
  963POPC   C1A15879  17.253  21.974   8.660
  963POPC   D2A15880  17.489  22.127   8.287
  963POPC   C3A15881  17.402  22.113   7.844
  963POPC   C4A15882  17.275  22.400   7.523
  963POPC   C1B15883  17.761  21.925   8.738
  963POPC   C2B15884  17.970  21.943   8.310
  963POPC   C3B15885  17.898  22.170   7.900
  963POPC   C4B15886  17.730  22.162   7.433
  964POPC   NC315887  13.736  32.427   9.841
  964POPC   PO415888  13.723  31.894   9.450
  964POPC   GL115889  13.763  32.238   9.147
  964POPC   GL215890  13.901  32.526   9.249
  964POPC   C1A15891  13.643  32.352   8.714
  964POPC   D2A15892  13.431  32.378   8.328
  964POPC   C3A15893  13.500  32.251   7.925
  964POPC   C4A15894  13.127  32.175   7.703
  964POPC   C1B15895  13.971  32.671   8.854
  964POPC   C2B15896  13.922  32.651   8.369
  964POPC   C3B15897  13.794  32.673   7.898
  964POPC   C4B15898  14.029  32.621   7.543
  965POPC   NC315899  18.584  44.732   9.467
  965POPC   PO415900  17.993  44.387   9.456
  965POPC   GL115901  18.265  44.524   9.147
  965POPC   GL215902  18.197  44.871   9.106
  965POPC   C1A15903  18.431  44.491   8.733
  965POPC   D2A15904  18.182  44.755   8.462
  965POPC   C3A15905  18.138  44.652   8.058
  965POPC   C4A15906  18.466  44.468   7.831
  965POPC   C1B15907  18.499  44.974   8.843
  965POPC   C2B15908  18.617   0.002   8.437
  965POPC   C3B15909  18.530  44.951   8.042
  965POPC   C4B15910  18.563  44.982   7.634
  966POPC   NC315911  25.367   1.605   9.497
  966POPC   PO415912  25.408   0.867   9.740
  966POPC   GL115913  25.280   1.121   9.334
  966POPC   GL215914  25.593   1.113   9.143
  966POPC   C1A15915  25.034   1.360   8.977
  966POPC   D2A15916  25.151   1.373   8.538
  966POPC   C3A15917  24.975   1.281   8.129
  966POPC   C4A15918  25.124   1.316   7.711
  966POPC   C1B15919  25.628   1.207   8.690
  966POPC   C2B15920  25.535   1.201   8.261
  966POPC   C3B15921  25.602   1.229   7.845
  966POPC   C4B15922  25.613   0.918   7.470
  967POPC   NC315923  17.285  13.590   9.792
  967POPC   PO415924  17.841  13.797   9.413
  967POPC   GL115925  17.864  13.731   8.994
  967POPC   GL215926  17.729  13.472   8.991
  967POPC   C1A15927  18.023  13.564   8.598
  967POPC   D2A15928  17.843  13.419   8.245
  967POPC   C3A15929  17.771  13.729   7.948
  967POPC   C4A15930  17.476  13.676   7.628
  967POPC   C1B15931  17.487  13.406   8.664
  967POPC   C2B15932  17.196  13.663   8.494
  967POPC   C3B15933  17.204  13.668   8.054
  967POPC   C4B15934  17.071  13.945   7.740
  968POPC   NC315935  32.160  32.113   9.405
  968POPC   PO415936  32.667  32.393   9.742
  968POPC   GL115937  32.511  32.483   9.280
  968POPC   GL215938  32.262  32.310   8.980
  968POPC   C1A15939  32.609  32.627   8.879
  968POPC   D2A15940  32.343  32.571   8.532
  968POPC   C3A15941  32.478  32.577   8.124
  968POPC   C4A15942  32.110  32.510   7.896
  968POPC   C1B15943  31.930  32.265   8.702
  968POPC   C2B15944  32.070  32.146   8.312
  968POPC   C3B15945  32.068  31.996   7.930
  968POPC   C4B15946  31.884  32.185   7.601
  969POPC   NC315947   6.523  32.505   9.850
  969POPC   PO415948   6.461  31.936   9.536
  969POPC   GL115949   6.613  32.217   9.230
  969POPC   GL215950   6.497  32.534   9.206
  969POPC   C1A15951   6.418  32.162   8.822
  969POPC   D2A15952   6.587  32.028   8.459
  969POPC   C3A15953   6.459  32.133   8.031
  969POPC   C4A15954   6.338  31.865   7.668
  969POPC   C1B15955   6.672  32.605   8.794
  969POPC   C2B15956   6.487  32.524   8.439
  969POPC   C3B15957   6.677  32.617   8.104
  969POPC   C4B15958   6.717  32.502   7.734
  970POPC   NC315959  40.117  21.296   9.531
  970POPC   PO415960  39.481  21.148   9.281
  970POPC   GL115961  39.868  21.052   9.127
  970POPC   GL215962  39.988  21.404   9.072
  970POPC   C1A15963  40.166  21.005   8.814
  970POPC   D2A15964  40.079  21.239   8.446
  970POPC   C3A15965  40.066  21.098   8.044
  970POPC   C4A15966  39.794  21.037   7.726
  970POPC   C1B15967  39.837  21.610   8.745
  970POPC   C2B15968  40.075  21.745   8.391
  970POPC   C3B15969  40.211  21.624   8.023
  970POPC   C4B15970  39.951  21.519   7.719
  971POPC   NC315971  40.472   4.825   9.727
  971POPC   PO415972  40.985   5.228   9.463
  971POPC   GL115973  40.805   5.169   9.102
  971POPC   GL215974  40.939   4.823   9.144
  971POPC   C1A15975  40.550   5.259   8.715
  971POPC   D2A15976  40.442   4.996   8.323
  971POPC   C3A15977  40.532   5.066   7.890
  971POPC   C4A15978  40.631   5.451   7.667
  971POPC   C1B15979  40.861   4.863   8.710
  971POPC   C2B15980  40.973   5.178   8.404
  971POPC   C3B15981  41.007   5.253   7.976
  971POPC   C4B15982  40.960   4.918   7.672
  972POPC   NC315983  39.282  39.906   9.781
  972POPC   PO415984  39.036  39.720   9.209
  972POPC   GL115985  39.293  40.021   9.046
  972POPC   GL215986  39.160  40.357   8.995
  972POPC   C1A15987  39.380  39.877   8.621
  972POPC   D2A15988  39.138  39.816   8.300
  972POPC   C3A15989  39.252  40.046   7.993
  972POPC   C4A15990  39.366  39.958   7.581
  972POPC   C1B15991  39.531  40.344   8.720
  972POPC   C2B15992  39.648  40.253   8.285
  972POPC   C3B15993  39.596  40.375   7.834
  972POPC   C4B15994  39.448  40.413   7.381
  973POPC   NC315995  40.939  27.256   9.547
  973POPC   PO415996  40.689  26.604   9.376
  973POPC   GL115997  40.938  26.756   9.064
  973POPC   GL215998  40.868  27.055   9.100
  973POPC   C1A15999  40.802  26.876   8.636
  973POPC   D2A16000  40.487  26.746   8.346
  973POPC   C3A16001  40.708  26.619   8.005
  973POPC   C4A16002  40.635  26.742   7.580
  973POPC   C1B16003  41.100  27.270   8.817
  973POPC   C2B16004  41.109  27.285   8.378
  973POPC   C3B16005  40.935  27.077   8.025
  973POPC   C4B16006  41.119  26.827   7.682
  974POPC   NC316007   4.556  24.765   9.619
  974POPC   PO416008   4.313  24.119   9.638
  974POPC   GL116009   4.297  24.373   9.279
  974POPC   GL216010   4.111  24.185   9.064
  974POPC   C1A16011   4.494  24.516   8.901
  974POPC   D2A16012   4.554  24.471   8.467
  974POPC   C3A16013   4.311  24.379   8.108
  974POPC   C4A16014   4.512  24.487   7.709
  974POPC   C1B16015   4.056  24.345   8.657
  974POPC   C2B16016   3.850  24.217   8.298
  974POPC   C3B16017   3.886  24.204   7.872
  974POPC   C4B16018   3.718  24.432   7.557
  975POPC   NC316019  23.090  41.392   9.414
  975POPC   PO416020  22.474  41.737   9.383
  975POPC   GL116021  22.713  41.524   9.083
  975POPC   GL216022  22.997  41.750   9.045
  975POPC   C1A16023  22.897  41.415   8.693
  975POPC   D2A16024  22.992  41.708   8.387
  975POPC   C3A16025  22.932  41.428   8.093
  975POPC   C4A16026  22.916  41.306   7.711
  975POPC   C1B16027  23.356  41.615   8.752
  975POPC   C2B16028  23.503  41.709   8.333
  975POPC   C3B16029  23.287  41.817   7.939
  975POPC   C4B16030  23.213  41.663   7.531
  976POPC   NC316031  38.687  15.484   9.896
  976POPC   PO416032  38.358  14.946   9.576
  976POPC   GL116033  38.284  15.005   9.135
  976POPC   GL216034  38.039  15.254   9.031
  976POPC   C1A16035  38.332  14.805   8.748
  976POPC   D2A16036  38.555  14.981   8.419
  976POPC   C3A16037  38.330  15.111   8.075
  976POPC   C4A16038  38.610  14.965   7.752
  976POPC   C1B16039  38.273  15.327   8.698
  976POPC   C2B16040  38.667  15.459   8.578
  976POPC   C3B16041  38.727  15.427   8.168
  976POPC   C4B16042  38.535  15.469   7.759
  977POPC   NC316043  44.086   0.746   9.451
  977POPC   PO416044  43.644   0.241   9.458
  977POPC   GL116045  43.658   0.578   9.145
  977POPC   GL216046  43.936   0.419   9.031
  977POPC   C1A16047  43.603   0.445   8.681
  977POPC   D2A16048  43.858   0.348   8.363
  977POPC   C3A16049  43.652   0.389   8.009
  977POPC   C4A16050  43.564   0.651   7.655
  977POPC   C1B16051  44.229   0.235   8.732
  977POPC   C2B16052  44.278   0.076   8.345
  977POPC   C3B16053  44.228   0.323   7.984
  977POPC   C4B16054  44.325   0.045   7.700
  978POPC   NC316055  25.059  25.294   9.537
  978POPC   PO416056  25.748  25.284   9.597
  978POPC   GL116057  25.532  25.337   9.110
  978POPC   GL216058  25.198  25.280   9.066
  978POPC   C1A16059  25.464  25.488   8.691
  978POPC   D2A16060  25.328  25.259   8.340
  978POPC   C3A16061  25.452  25.284   7.916
  978POPC   C4A16062  25.410  25.412   7.442
  978POPC   C1B16063  24.952  25.274   8.721
  978POPC   C2B16064  24.806  25.231   8.330
  978POPC   C3B16065  25.014  25.013   8.016
  978POPC   C4B16066  24.997  25.258   7.682
  979POPC   NC316067  26.756  42.110   9.506
  979POPC   PO416068  27.092  42.617   9.726
  979POPC   GL116069  26.885  42.575   9.278
  979POPC   GL216070  26.541  42.499   9.194
  979POPC   C1A16071  26.975  42.602   8.836
  979POPC   D2A16072  27.151  42.293   8.521
  979POPC   C3A16073  27.055  42.433   8.100
  979POPC   C4A16074  27.097  42.283   7.737
  979POPC   C1B16075  26.580  42.264   8.765
  979POPC   C2B16076  26.701  42.136   8.314
  979POPC   C3B16077  26.590  42.328   7.908
  979POPC   C4B16078  26.347  42.620   7.672
  980POPC   NC316079   8.946  33.341   9.395
  980POPC   PO416080   8.974  32.723   9.527
  980POPC   GL116081   9.076  32.862   9.148
  980POPC   GL216082   8.752  32.990   9.046
  980POPC   C1A16083   9.206  33.022   8.749
  980POPC   D2A16084   9.129  33.205   8.338
  980POPC   C3A16085   8.886  32.949   8.075
  980POPC   C4A16086   8.921  32.792   7.657
  980POPC   C1B16087   8.760  33.280   8.691
  980POPC   C2B16088   8.452  33.272   8.361
  980POPC   C3B16089   8.494  33.229   7.932
  980POPC   C4B16090   8.863  33.315   7.683
  981POPC   NC316091  22.622   7.700   9.545
  981POPC   PO416092  23.185   7.334   9.587
  981POPC   GL116093  22.919   7.418   9.241
  981POPC   GL216094  23.132   7.683   9.119
  981POPC   C1A16095  22.731   7.590   8.843
  981POPC   D2A16096  22.995   7.690   8.495
  981POPC   C3A16097  22.865   7.556   8.103
  981POPC   C4A16098  22.953   7.453   7.681
  981POPC   C1B16099  23.189   7.320   8.811
  981POPC   C2B16100  23.290   7.160   8.377
  981POPC   C3B16101  23.365   7.251   7.920
  981POPC   C4B16102  23.420   7.405   7.472
  982POPC   NC316103  31.636  27.132   9.673
  982POPC   PO416104  31.341  26.556   9.488
  982POPC   GL116105  31.377  26.728   9.092
  982POPC   GL216106  31.170  27.009   9.124
  982POPC   C1A16107  31.395  26.689   8.647
  982POPC   D2A16108  31.539  26.406   8.319
  982POPC   C3A16109  31.786  26.667   8.086
  982POPC   C4A16110  31.640  26.915   7.768
  982POPC   C1B16111  30.954  26.990   8.731
  982POPC   C2B16112  30.987  27.044   8.287
  982POPC   C3B16113  31.208  26.754   8.011
  982POPC   C4B16114  31.214  26.604   7.574
  983POPC   NC316115  10.420  20.040   9.621
  983POPC   PO416116   9.739  19.875   9.630
  983POPC   GL116117   9.652  19.847   9.214
  983POPC   GL216118   9.970  19.749   9.141
  983POPC   C1A16119   9.402  19.883   8.873
  983POPC   D2A16120   9.465  19.812   8.445
  983POPC   C3A16121   9.582  20.014   8.087
  983POPC   C4A16122   9.566  19.844   7.694
  983POPC   C1B16123   9.864  19.701   8.726
  983POPC   C2B16124  10.014  19.966   8.377
  983POPC   C3B16125  10.078  19.875   7.936
  983POPC   C4B16126   9.952  19.461   7.830
  984POPC   NC316127  32.044  13.556   9.523
  984POPC   PO416128  32.416  13.920   9.933
  984POPC   GL116129  32.478  13.853   9.351
  984POPC   GL216130  32.374  13.474   9.155
  984POPC   C1A16131  32.447  13.840   8.838
  984POPC   D2A16132  32.208  13.733   8.424
  984POPC   C3A16133  32.380  13.622   7.997
  984POPC   C4A16134  32.447  13.856   7.596
  984POPC   C1B16135  32.174  13.360   8.781
  984POPC   C2B16136  32.020  13.252   8.366
  984POPC   C3B16137  31.921  13.403   7.918
  984POPC   C4B16138  32.153  13.460   7.523
  985POPC   NC316139  38.596  39.735   9.350
  985POPC   PO416140  38.919  40.256   9.662
  985POPC   GL116141  38.707  40.206   9.197
  985POPC   GL216142  38.381  40.035   8.994
  985POPC   C1A16143  38.720  40.271   8.733
  985POPC   D2A16144  38.669  39.997   8.373
  985POPC   C3A16145  38.303  40.053   8.171
  985POPC   C4A16146  38.299  40.168   7.759
  985POPC   C1B16147  38.397  39.668   8.699
  985POPC   C2B16148  38.314  39.514   8.272
  985POPC   C3B16149  38.453  39.651   7.868
  985POPC   C4B16150  38.801  39.889   7.812
  986POPC   NC316151  19.594  17.407   9.396
  986POPC   PO416152  19.024  17.738   9.582
  986POPC   GL116153  19.148  17.543   9.187
  986POPC   GL216154  19.000  17.229   9.074
  986POPC   C1A16155  19.124  17.596   8.742
  986POPC   D2A16156  18.890  17.469   8.388
  986POPC   C3A16157  19.088  17.665   8.034
  986POPC   C4A16158  19.271  17.703   7.635
  986POPC   C1B16159  19.163  17.091   8.640
  986POPC   C2B16160  19.232  17.164   8.179
  986POPC   C3B16161  19.088  17.219   7.765
  986POPC   C4B16162  19.036  16.838   7.462
  987POPC   NC316163   7.734  23.825   9.462
  987POPC   PO416164   8.294  24.157   9.514
  987POPC   GL116165   8.171  23.852   9.216
  987POPC   GL216166   8.393  23.640   9.046
  987POPC   C1A16167   8.040  23.901   8.802
  987POPC   D2A16168   8.296  23.743   8.478
  987POPC   C3A16169   8.138  23.855   8.117
  987POPC   C4A16170   8.108  23.764   7.733
  987POPC   C1B16171   8.113  23.382   8.776
  987POPC   C2B16172   8.262  23.188   8.401
  987POPC   C3B16173   8.332  23.377   7.992
  987POPC   C4B16174   8.455  23.462   7.542
  988POPC   NC316175  26.173   0.065   9.261
  988POPC   PO416176  26.317  44.360   9.458
  988POPC   GL116177  26.003  44.503   9.134
  988POPC   GL216178  25.646  44.446   9.226
  988POPC   C1A16179  26.028  44.698   8.718
  988POPC   D2A16180  26.259  44.938   8.387
  988POPC   C3A16181  26.132  44.756   7.971
  988POPC   C4A16182  26.474  44.765   7.647
  988POPC   C1B16183  25.510  44.474   8.840
  988POPC   C2B16184  25.638  44.465   8.466
  988POPC   C3B16185  25.547  44.529   8.055
  988POPC   C4B16186  25.592  44.686   7.650
  989POPC   NC316187   6.446  11.627   9.610
  989POPC   PO416188   7.182  11.680   9.609
  989POPC   GL116189   6.946  11.447   9.230
  989POPC   GL216190   6.616  11.499   9.151
  989POPC   C1A16191   6.961  11.169   8.799
  989POPC   D2A16192   6.791  11.124   8.409
  989POPC   C3A16193   6.760  11.319   8.029
  989POPC   C4A16194   6.350  11.224   7.875
  989POPC   C1B16195   6.581  11.494   8.721
  989POPC   C2B16196   6.358  11.461   8.338
  989POPC   C3B16197   6.294  11.727   7.983
  989POPC   C4B16198   5.908  11.863   7.766
  990POPC   NC316199  27.786  18.549   9.496
  990POPC   PO416200  27.117  18.404   9.553
  990POPC   GL116201  27.403  18.384   9.201
  990POPC   GL216202  27.607  18.093   9.238
  990POPC   C1A16203  27.550  18.618   8.832
  990POPC   D2A16204  27.407  18.364   8.493
  990POPC   C3A16205  27.475  18.381   8.073
  990POPC   C4A16206  27.592  18.055   7.782
  990POPC   C1B16207  27.759  18.142   8.822
  990POPC   C2B16208  27.835  18.121   8.354
  990POPC   C3B16209  27.976  18.328   7.961
  990POPC   C4B16210  28.070  18.177   7.575
  991POPC   NC316211  35.260   4.225   9.504
  991POPC   PO416212  34.979   4.781   9.384
  991POPC   GL116213  35.356   4.605   9.125
  991POPC   GL216214  35.413   4.221   9.038
  991POPC   C1A16215  35.507   4.575   8.693
  991POPC   D2A16216  35.315   4.414   8.284
  991POPC   C3A16217  35.541   4.569   7.918
  991POPC   C4A16218  35.723   4.762   7.587
  991POPC   C1B16219  35.580   4.092   8.656
  991POPC   C2B16220  35.776   3.897   8.357
  991POPC   C3B16221  35.685   4.055   7.966
  991POPC   C4B16222  35.291   4.160   7.788
  992POPC   NC316223  27.710  22.575   9.193
  992POPC   PO416224  27.421  23.109   9.513
  992POPC   GL116225  27.673  23.272   9.178
  992POPC   GL216226  27.994  23.090   9.124
  992POPC   C1A16227  27.563  23.190   8.757
  992POPC   D2A16228  27.603  22.912   8.424
  992POPC   C3A16229  27.361  22.976   8.091
  992POPC   C4A16230  27.276  22.738   7.772
  992POPC   C1B16231  28.038  23.383   8.759
  992POPC   C2B16232  27.768  23.450   8.362
  992POPC   C3B16233  27.762  23.238   7.979
  992POPC   C4B16234  27.986  23.168   7.594
  993POPC   NC316235  26.608  40.466   9.444
  993POPC   PO416236  26.955  39.931   9.679
  993POPC   GL116237  26.804  39.919   9.259
  993POPC   GL216238  26.443  39.972   9.241
  993POPC   C1A16239  26.941  39.906   8.820
  993POPC   D2A16240  26.752  39.950   8.407
  993POPC   C3A16241  26.968  39.940   7.998
  993POPC   C4A16242  26.804  40.000   7.605
  993POPC   C1B16243  26.516  40.227   8.851
  993POPC   C2B16244  26.455  40.369   8.427
  993POPC   C3B16245  26.518  40.219   8.013
  993POPC   C4B16246  26.305  40.070   7.674
  994POPC   NC316247  30.204   6.204   9.731
  994POPC   PO416248  29.887   5.672   9.460
  994POPC   GL116249  29.911   5.941   9.114
  994POPC   GL216250  30.132   5.785   8.888
  994POPC   C1A16251  29.747   6.101   8.749
  994POPC   D2A16252  29.894   5.854   8.401
  994POPC   C3A16253  29.914   6.029   7.996
  994POPC   C4A16254  29.913   5.877   7.583
  994POPC   C1B16255  30.243   6.159   8.701
  994POPC   C2B16256  30.416   6.160   8.356
  994POPC   C3B16257  30.364   6.304   7.967
  994POPC   C4B16258  30.367   6.087   7.594
  995POPC   NC316259  16.414   2.837   9.529
  995POPC   PO416260  15.756   2.758   9.520
  995POPC   GL116261  16.005   2.697   9.176
  995POPC   GL216262  16.128   3.029   9.151
  995POPC   C1A16263  15.862   2.663   8.756
  995POPC   D2A16264  15.652   2.574   8.401
  995POPC   C3A16265  15.867   2.680   8.071
  995POPC   C4A16266  16.022   2.564   7.708
  995POPC   C1B16267  15.747   3.118   8.910
  995POPC   C2B16268  15.704   3.109   8.471
  995POPC   C3B16269  15.869   3.189   8.064
  995POPC   C4B16270  15.831   3.034   7.671
  996POPC   NC316271  23.025   3.842   9.775
  996POPC   PO416272  23.559   4.269   9.514
  996POPC   GL116273  23.744   4.448   9.171
  996POPC   GL216274  23.449   4.645   9.111
  996POPC   C1A16275  23.889   4.226   8.806
  996POPC   D2A16276  23.606   3.939   8.544
  996POPC   C3A16277  23.702   3.969   8.123
  996POPC   C4A16278  23.947   4.190   7.841
  996POPC   C1B16279  23.386   4.351   8.767
  996POPC   C2B16280  23.181   4.314   8.396
  996POPC   C3B16281  23.407   4.379   8.045
  996POPC   C4B16282  23.606   4.530   7.699
  997POPC   NC316283  18.931  27.166   9.477
  997POPC   PO416284  18.783  27.777   9.573
  997POPC   GL116285  19.108  27.788   9.183
  997POPC   GL216286  19.141  27.440   9.074
  997POPC   C1A16287  19.297  27.807   8.752
  997POPC   D2A16288  19.314  27.602   8.343
  997POPC   C3A16289  19.326  27.855   7.962
  997POPC   C4A16290  19.177  27.716   7.576
  997POPC   C1B16291  18.917  27.458   8.664
  997POPC   C2B16292  18.929  27.239   8.293
  997POPC   C3B16293  18.989  27.405   7.927
  997POPC   C4B16294  18.788  27.396   7.528
  998POPC   NC316295  19.369  37.987   9.409
  998POPC   PO416296  19.919  37.862   9.737
  998POPC   GL116297  20.073  37.776   9.282
  998POPC   GL216298  19.820  38.003   9.172
  998POPC   C1A16299  20.020  37.749   8.791
  998POPC   D2A16300  19.776  37.583   8.472
  998POPC   C3A16301  19.912  37.400   8.078
  998POPC   C4A16302  19.941  37.702   7.735
  998POPC   C1B16303  19.586  38.038   8.770
  998POPC   C2B16304  19.418  37.991   8.345
  998POPC   C3B16305  19.504  37.937   7.892
  998POPC   C4B16306  19.401  37.980   7.427
  999POPC   NC316307  34.189  26.951   9.385
  999POPC   PO416308  34.681  26.623   9.658
  999POPC   GL116309  34.645  26.764   9.203
  999POPC   GL216310  34.650  27.117   9.129
  999POPC   C1A16311  34.832  26.833   8.772
  999POPC   D2A16312  34.580  26.741   8.404
  999POPC   C3A16313  34.787  26.797   8.045
  999POPC   C4A16314  34.924  26.664   7.655
  999POPC   C1B16315  34.375  27.046   8.785
  999POPC   C2B16316  34.315  27.183   8.395
  999POPC   C3B16317  34.279  27.013   7.990
  999POPC   C4B16318  34.549  27.033   7.646
 1000POPC   NC316319   5.730  30.708   9.537
 1000POPC   PO416320   6.206  30.403   9.229
 1000POPC   GL116321   5.784  30.540   9.051
 1000POPC   GL216322   5.743  30.925   9.073
 1000POPC   C1A16323   5.541  30.511   8.660
 1000POPC   D2A16324   5.758  30.563   8.247
 1000POPC   C3A16325   5.560  30.386   7.880
 1000POPC   C4A16326   5.731  30.345   7.464
 1000POPC   C1B16327   5.801  30.935   8.638
 1000POPC   C2B16328   5.709  31.218   8.319
 1000POPC   C3B16329   5.606  31.001   7.978
 1000POPC   C4B16330   5.870  30.778   7.684
 1001POPC   NC316331  31.183  39.051   9.786
 1001POPC   PO416332  30.655  38.843   9.401
 1001POPC   GL116333  30.788  39.083   9.097
 1001POPC   GL216334  30.742  39.446   9.182
 1001POPC   C1A16335  30.756  38.935   8.686
 1001POPC   D2A16336  30.552  39.156   8.379
 1001POPC   C3A16337  30.554  38.984   8.022
 1001POPC   C4A16338  30.803  39.043   7.700
 1001POPC   C1B16339  30.815  39.489   8.776
 1001POPC   C2B16340  30.738  39.660   8.394
 1001POPC   C3B16341  30.742  39.468   8.018
 1001POPC   C4B16342  30.842  39.673   7.669
 1002POPC   NC316343  26.866   0.827   9.201
 1002POPC   PO416344  26.655   1.404   9.414
 1002POPC   GL116345  26.871   1.367   9.072
 1002POPC   GL216346  26.574   1.190   8.950
 1002POPC   C1A16347  26.891   1.459   8.659
 1002POPC   D2A16348  26.974   1.281   8.284
 1002POPC   C3A16349  26.754   1.423   7.908
 1002POPC   C4A16350  26.944   1.346   7.501
 1002POPC   C1B16351  26.668   0.995   8.577
 1002POPC   C2B16352  26.470   1.069   8.210
 1002POPC   C3B16353  26.430   1.026   7.803
 1002POPC   C4B16354  26.620   0.951   7.453
 1003POPC   NC316355   5.226  32.280   9.538
 1003POPC   PO416356   4.564  32.254   9.546
 1003POPC   GL116357   4.830  32.091   9.250
 1003POPC   GL216358   4.977  32.418   9.134
 1003POPC   C1A16359   4.960  32.015   8.826
 1003POPC   D2A16360   5.163  32.164   8.465
 1003POPC   C3A16361   4.979  32.083   8.070
 1003POPC   C4A16362   5.258  31.924   7.763
 1003POPC   C1B16363   5.191  32.583   8.775
 1003POPC   C2B16364   5.425  32.635   8.396
 1003POPC   C3B16365   5.474  32.374   8.041
 1003POPC   C4B16366   5.166  32.452   7.737
 1004POPC   NC316367   9.476  23.986   9.458
 1004POPC   PO416368   9.676  23.288   9.534
 1004POPC   GL116369   9.706  23.593   9.181
 1004POPC   GL216370   9.887  23.312   9.040
 1004POPC   C1A16371   9.663  23.884   8.807
 1004POPC   D2A16372   9.509  23.893   8.392
 1004POPC   C3A16373   9.720  24.013   8.015
 1004POPC   C4A16374   9.558  24.001   7.572
 1004POPC   C1B16375  10.100  23.629   8.797
 1004POPC   C2B16376  10.037  23.849   8.399
 1004POPC   C3B16377  10.128  23.646   8.002
 1004POPC   C4B16378  10.029  23.844   7.634
 1005POPC   NC316379  22.484  35.106   9.602
 1005POPC   PO416380  23.012  34.806   9.591
 1005POPC   GL116381  22.764  34.807   9.211
 1005POPC   GL216382  22.539  34.535   9.205
 1005POPC   C1A16383  22.846  34.780   8.743
 1005POPC   D2A16384  23.093  34.728   8.366
 1005POPC   C3A16385  22.952  34.685   7.966
 1005POPC   C4A16386  23.043  34.459   7.622
 1005POPC   C1B16387  22.482  34.431   8.773
 1005POPC   C2B16388  22.702  34.355   8.378
 1005POPC   C3B16389  22.616  34.302   7.929
 1005POPC   C4B16390  22.662  34.123   7.538
 1006POPC   NC316391  44.621  16.182   9.617
 1006POPC   PO416392  44.170  15.686   9.721
 1006POPC   GL116393  44.454  15.899   9.265
 1006POPC   GL216394  44.846  15.887   9.246
 1006POPC   C1A16395  44.601  15.977   8.801
 1006POPC   D2A16396  44.969  16.053   8.507
 1006POPC   C3A16397  44.877  15.956   8.068
 1006POPC   C4A16398  44.709  15.972   7.660
 1006POPC   C1B16399  44.989  15.656   8.848
 1006POPC   C2B16400  44.886  15.555   8.402
 1006POPC   C3B16401   0.073  15.480   8.019
 1006POPC   C4B16402   0.209  15.678   7.716
 1007POPC   NC316403  18.439  42.233   9.722
 1007POPC   PO416404  19.107  42.277   9.681
 1007POPC   GL116405  19.198  42.266   9.174
 1007POPC   GL216406  19.248  42.616   9.019
 1007POPC   C1A16407  19.038  42.196   8.750
 1007POPC   D2A16408  19.146  42.237   8.317
 1007POPC   C3A16409  18.976  42.083   7.948
 1007POPC   C4A16410  19.038  42.212   7.544
 1007POPC   C1B16411  19.010  42.711   8.654
 1007POPC   C2B16412  19.133  42.773   8.236
 1007POPC   C3B16413  19.064  42.604   7.856
 1007POPC   C4B16414  19.011  42.701   7.405
 1008POPC   NC316415   4.092   4.701   9.327
 1008POPC   PO416416   3.631   5.147   9.544
 1008POPC   GL116417   3.633   5.208   9.108
 1008POPC   GL216418   3.816   4.939   8.964
 1008POPC   C1A16419   3.598   5.292   8.651
 1008POPC   D2A16420   3.818   4.974   8.398
 1008POPC   C3A16421   3.723   4.951   7.962
 1008POPC   C4A16422   3.339   5.121   7.776
 1008POPC   C1B16423   3.431   4.802   8.788
 1008POPC   C2B16424   3.282   4.856   8.356
 1008POPC   C3B16425   3.304   4.617   7.973
 1008POPC   C4B16426   3.479   4.637   7.559
 1009POPC   NC316427  29.808  10.570   9.517
 1009POPC   PO416428  30.237  11.056   9.701
 1009POPC   GL116429  30.161  10.734   9.219
 1009POPC   GL216430  29.979  10.408   9.076
 1009POPC   C1A16431  29.966  10.781   8.751
 1009POPC   D2A16432  30.114  10.698   8.317
 1009POPC   C3A16433  30.118  11.001   7.970
 1009POPC   C4A16434  29.950  10.693   7.667
 1009POPC   C1B16435  29.816  10.141   8.762
 1009POPC   C2B16436  29.822  10.021   8.342
 1009POPC   C3B16437  29.886  10.280   7.992
 1009POPC   C4B16438  30.171  10.223   7.684
 1010POPC   NC316439  36.427  27.759   9.612
 1010POPC   PO416440  35.982  27.311   9.625
 1010POPC   GL116441  36.165  27.479   9.240
 1010POPC   GL216442  35.919  27.242   9.103
 1010POPC   C1A16443  36.195  27.547   8.775
 1010POPC   D2A16444  36.013  27.758   8.395
 1010POPC   C3A16445  36.197  27.601   8.048
 1010POPC   C4A16446  36.280  27.542   7.646
 1010POPC   C1B16447  35.708  27.378   8.724
 1010POPC   C2B16448  35.840  27.284   8.305
 1010POPC   C3B16449  35.727  27.472   7.921
 1010POPC   C4B16450  35.808  27.575   7.457
 1011POPC   NC316451  41.261  11.118   9.364
 1011POPC   PO416452  41.842  11.484   9.460
 1011POPC   GL116453  41.705  11.261   9.151
 1011POPC   GL216454  41.867  10.924   9.196
 1011POPC   C1A16455  41.546  11.423   8.764
 1011POPC   D2A16456  41.816  11.332   8.434
 1011POPC   C3A16457  41.760  11.510   8.047
 1011POPC   C4A16458  41.433  11.352   7.807
 1011POPC   C1B16459  41.716  10.918   8.767
 1011POPC   C2B16460  41.719  10.816   8.333
 1011POPC   C3B16461  41.815  10.992   7.926
 1011POPC   C4B16462  41.697  11.040   7.474
 1012POPC   NC316463  14.438  33.040   9.615
 1012POPC   PO416464  13.849  32.874   9.602
 1012POPC   GL116465  14.124  33.035   9.192
 1012POPC   GL216466  14.498  33.190   9.119
 1012POPC   C1A16467  14.265  33.025   8.703
 1012POPC   D2A16468  14.434  32.769   8.371
 1012POPC   C3A16469  14.270  32.832   7.984
 1012POPC   C4A16470  14.494  32.821   7.620
 1012POPC   C1B16471  14.615  33.377   8.681
 1012POPC   C2B16472  14.438  33.296   8.255
 1012POPC   C3B16473  14.496  33.266   7.821
 1012POPC   C4B16474  14.543  33.233   7.316
 1013POPC   NC316475  42.163  13.917   9.449
 1013POPC   PO416476  42.299  14.674   9.554
 1013POPC   GL116477  42.291  14.383   9.228
 1013POPC   GL216478  42.008  14.248   9.047
 1013POPC   C1A16479  42.495  14.273   8.858
 1013POPC   D2A16480  42.574  14.488   8.449
 1013POPC   C3A16481  42.560  14.431   8.007
 1013POPC   C4A16482  42.529  14.598   7.581
 1013POPC   C1B16483  42.109  14.592   8.757
 1013POPC   C2B16484  42.188  14.844   8.392
 1013POPC   C3B16485  42.141  14.732   7.949
 1013POPC   C4B16486  42.117  14.323   7.760
 1014POPC   NC316487  26.382  19.590   9.472
 1014POPC   PO416488  26.950  19.377   9.702
 1014POPC   GL116489  26.872  19.567   9.274
 1014POPC   GL216490  26.736  19.859   9.185
 1014POPC   C1A16491  26.914  19.559   8.811
 1014POPC   D2A16492  26.920  19.826   8.436
 1014POPC   C3A16493  26.928  19.626   8.019
 1014POPC   C4A16494  26.595  19.607   7.717
 1014POPC   C1B16495  26.583  20.067   8.827
 1014POPC   C2B16496  26.616  20.240   8.419
 1014POPC   C3B16497  26.586  20.035   8.025
 1014POPC   C4B16498  26.499  20.337   7.745
 1015POPC   NC316499  22.628   6.119   9.584
 1015POPC   PO416500  22.126   5.647   9.541
 1015POPC   GL116501  22.410   5.777   9.241
 1015POPC   GL216502  22.120   5.941   9.085
 1015POPC   C1A16503  22.536   5.766   8.812
 1015POPC   D2A16504  22.317   5.874   8.438
 1015POPC   C3A16505  22.452   5.704   8.061
 1015POPC   C4A16506  22.282   5.684   7.674
 1015POPC   C1B16507  21.869   5.604   8.892
 1015POPC   C2B16508  21.785   5.523   8.452
 1015POPC   C3B16509  21.927   5.730   8.078
 1015POPC   C4B16510  21.774   5.815   7.669
 1016POPC   NC316511  41.058  36.307   9.364
 1016POPC   PO416512  41.748  36.603   9.500
 1016POPC   GL116513  41.667  36.357   9.128
 1016POPC   GL216514  41.908  36.066   9.034
 1016POPC   C1A16515  41.403  36.271   8.815
 1016POPC   D2A16516  41.421  36.422   8.411
 1016POPC   C3A16517  41.414  36.163   8.081
 1016POPC   C4A16518  41.167  36.059   7.760
 1016POPC   C1B16519  41.812  36.060   8.632
 1016POPC   C2B16520  41.913  36.246   8.299
 1016POPC   C3B16521  41.897  36.032   7.957
 1016POPC   C4B16522  41.687  36.130   7.571
 1017POPC   NC316523  14.575  38.638   9.499
 1017POPC   PO416524  14.200  38.127   9.459
 1017POPC   GL116525  14.337  38.384   9.157
 1017POPC   GL216526  14.686  38.272   9.133
 1017POPC   C1A16527  14.248  38.681   8.829
 1017POPC   D2A16528  14.033  38.588   8.457
 1017POPC   C3A16529  14.196  38.737   8.079
 1017POPC   C4A16530  14.100  38.679   7.679
 1017POPC   C1B16531  14.479  38.234   8.721
 1017POPC   C2B16532  14.545  38.484   8.390
 1017POPC   C3B16533  14.717  38.645   8.037
 1017POPC   C4B16534  14.574  38.513   7.651
 1018POPC   NC316535  20.834   3.113   9.426
 1018POPC   PO416536  20.342   2.727   9.542
 1018POPC   GL116537  20.590   2.729   9.189
 1018POPC   GL216538  20.947   2.629   9.202
 1018POPC   C1A16539  20.623   2.920   8.819
 1018POPC   D2A16540  20.493   2.754   8.474
 1018POPC   C3A16541  20.685   2.844   8.106
 1018POPC   C4A16542  20.523   3.029   7.759
 1018POPC   C1B16543  21.050   2.648   8.777
 1018POPC   C2B16544  20.939   2.483   8.395
 1018POPC   C3B16545  21.036   2.479   7.966
 1018POPC   C4B16546  20.664   2.554   7.694
 1019POPC   NC316547  38.946   1.471   9.510
 1019POPC   PO416548  39.598   1.042   9.447
 1019POPC   GL116549  39.304   1.198   9.146
 1019POPC   GL216550  39.000   1.040   9.226
 1019POPC   C1A16551  39.353   1.300   8.709
 1019POPC   D2A16552  39.318   1.078   8.349
 1019POPC   C3A16553  39.466   1.348   8.054
 1019POPC   C4A16554  39.269   1.245   7.712
 1019POPC   C1B16555  38.886   1.146   8.823
 1019POPC   C2B16556  38.791   1.135   8.403
 1019POPC   C3B16557  38.899   1.029   7.976
 1019POPC   C4B16558  38.790   1.243   7.552
 1020POPC   NC316559  40.613  11.520   9.301
 1020POPC   PO416560  40.838  10.912   9.460
 1020POPC   GL116561  40.796  11.099   9.052
 1020POPC   GL216562  40.509  10.938   8.946
 1020POPC   C1A16563  40.925  11.434   8.720
 1020POPC   D2A16564  41.048  11.775   8.397
 1020POPC   C3A16565  40.988  11.574   7.987
 1020POPC   C4A16566  40.928  11.143   7.846
 1020POPC   C1B16567  40.429  11.188   8.631
 1020POPC   C2B16568  40.596  11.439   8.318
 1020POPC   C3B16569  40.470  11.451   7.915
 1020POPC   C4B16570  40.445  11.025   7.802
 1021POPC   NC316571  14.975  27.656   9.541
 1021POPC   PO416572  15.466  27.319   9.430
 1021POPC   GL116573  15.176  27.464   9.115
 1021POPC   GL216574  15.123  27.842   9.093
 1021POPC   C1A16575  15.245  27.502   8.714
 1021POPC   D2A16576  15.176  27.727   8.415
 1021POPC   C3A16577  15.258  27.520   8.012
 1021POPC   C4A16578  15.390  27.614   7.621
 1021POPC   C1B16579  14.779  27.883   8.799
 1021POPC   C2B16580  14.667  27.687   8.441
 1021POPC   C3B16581  14.802  27.730   8.032
 1021POPC   C4B16582  14.848  27.589   7.615
 1022POPC   NC316583  12.950  37.502   9.484
 1022POPC   PO416584  12.552  38.052   9.292
 1022POPC   GL116585  12.807  37.796   9.103
 1022POPC   GL216586  12.565  37.512   9.118
 1022POPC   C1A16587  12.940  37.860   8.721
 1022POPC   D2A16588  12.660  37.847   8.398
 1022POPC   C3A16589  12.909  37.795   8.075
 1022POPC   C4A16590  13.000  38.035   7.748
 1022POPC   C1B16591  12.590  37.398   8.650
 1022POPC   C2B16592  12.583  37.387   8.149
 1022POPC   C3B16593  12.691  37.544   7.696
 1022POPC   C4B16594  12.692  37.404   7.248
 1023POPC   NC316595   5.884  38.113   9.355
 1023POPC   PO416596   6.057  38.739   9.560
 1023POPC   GL116597   5.887  38.595   9.128
 1023POPC   GL216598   5.663  38.349   8.989
 1023POPC   C1A16599   5.853  38.711   8.680
 1023POPC   D2A16600   6.138  38.601   8.337
 1023POPC   C3A16601   5.983  38.321   8.021
 1023POPC   C4A16602   6.082  38.079   7.658
 1023POPC   C1B16603   5.827  38.201   8.585
 1023POPC   C2B16604   5.748  37.913   8.255
 1023POPC   C3B16605   5.589  38.008   7.878
 1023POPC   C4B16606   5.635  38.346   7.582
 1024POPC   NC316607  29.032  14.490   9.423
 1024POPC   PO416608  28.339  14.333   9.606
 1024POPC   GL116609  28.542  14.485   9.247
 1024POPC   GL216610  28.670  14.152   9.221
 1024POPC   C1A16611  28.406  14.494   8.807
 1024POPC   D2A16612  28.463  14.327   8.397
 1024POPC   C3A16613  28.275  14.300   7.993
 1024POPC   C4A16614  28.079  14.570   7.741
 1024POPC   C1B16615  28.683  14.072   8.782
 1024POPC   C2B16616  28.941  14.103   8.426
 1024POPC   C3B16617  28.797  14.247   8.018
 1024POPC   C4B16618  28.570  13.982   7.741
 1025POPC   NC316619  12.293  20.039   9.670
 1025POPC   PO416620  11.702  19.620   9.808
 1025POPC   GL116621  11.874  19.814   9.355
 1025POPC   GL216622  12.131  20.045   9.208
 1025POPC   C1A16623  11.949  19.785   8.843
 1025POPC   D2A16624  11.816  19.825   8.417
 1025POPC   C3A16625  12.038  19.570   8.114
 1025POPC   C4A16626  11.994  19.639   7.692
 1025POPC   C1B16627  12.398  20.038   8.834
 1025POPC   C2B16628  12.271  20.131   8.394
 1025POPC   C3B16629  12.280  20.029   7.942
 1025POPC   C4B16630  12.374  19.968   7.468
 1026POPC   NC316631  21.828  20.530   9.539
 1026POPC   PO416632  21.270  20.898   9.522
 1026POPC   GL116633  21.358  20.693   9.153
 1026POPC   GL216634  21.423  20.352   9.205
 1026POPC   C1A16635  21.194  20.783   8.733
 1026POPC   D2A16636  20.956  20.869   8.383
 1026POPC   C3A16637  21.236  20.871   8.061
 1026POPC   C4A16638  21.439  20.862   7.695
 1026POPC   C1B16639  21.232  20.268   8.763
 1026POPC   C2B16640  21.096  20.393   8.302
 1026POPC   C3B16641  21.281  20.411   7.871
 1026POPC   C4B16642  21.564  20.369   7.526
 1027POPC   NC316643  43.686  27.355   9.460
 1027POPC   PO416644  43.831  27.964   9.486
 1027POPC   GL116645  44.039  27.658   9.189
 1027POPC   GL216646  44.157  27.286   9.241
 1027POPC   C1A16647  44.043  27.468   8.767
 1027POPC   D2A16648  43.913  27.264   8.397
 1027POPC   C3A16649  43.792  27.516   8.083
 1027POPC   C4A16650  43.616  27.556   7.675
 1027POPC   C1B16651  44.386  27.111   8.853
 1027POPC   C2B16652  44.444  27.249   8.443
 1027POPC   C3B16653  44.304  27.143   8.055
 1027POPC   C4B16654  44.033  27.256   7.736
 1028POPC   NC316655   8.740  17.251   9.236
 1028POPC   PO416656   9.098  16.888   9.731
 1028POPC   GL116657   9.032  16.739   9.280
 1028POPC   GL216658   8.806  16.420   9.278
 1028POPC   C1A16659   9.141  16.931   8.843
 1028POPC   D2A16660   8.845  17.043   8.506
 1028POPC   C3A16661   8.973  16.911   8.084
 1028POPC   C4A16662   8.686  16.847   7.761
 1028POPC   C1B16663   8.757  16.604   8.857
 1028POPC   C2B16664   8.976  16.550   8.454
 1028POPC   C3B16665   8.872  16.412   8.015
 1028POPC   C4B16666   8.864  16.433   7.543
 1029POPC   NC316667   6.991  15.464   9.447
 1029POPC   PO416668   6.609  14.935   9.437
 1029POPC   GL116669   6.703  15.183   9.077
 1029POPC   GL216670   6.489  15.453   9.106
 1029POPC   C1A16671   6.826  15.066   8.649
 1029POPC   D2A16672   6.635  14.821   8.316
 1029POPC   C3A16673   6.674  15.009   7.915
 1029POPC   C4A16674   6.927  15.359   7.803
 1029POPC   C1B16675   6.344  15.268   8.708
 1029POPC   C2B16676   6.321  15.224   8.244
 1029POPC   C3B16677   6.426  15.492   7.867
 1029POPC   C4B16678   6.293  15.643   7.428
 1030POPC   NC316679  25.499   3.696   9.513
 1030POPC   PO416680  25.092   3.072   9.497
 1030POPC   GL116681  25.134   3.240   9.126
 1030POPC   GL216682  25.483   3.281   9.154
 1030POPC   C1A16683  25.108   3.424   8.723
 1030POPC   D2A16684  24.987   3.689   8.377
 1030POPC   C3A16685  25.055   3.465   8.026
 1030POPC   C4A16686  25.223   3.481   7.605
 1030POPC   C1B16687  25.606   3.491   8.772
 1030POPC   C2B16688  25.484   3.536   8.339
 1030POPC   C3B16689  25.663   3.452   7.946
 1030POPC   C4B16690  25.708   3.354   7.512
 1031POPC   NC316691  13.090  42.469   9.456
 1031POPC   PO416692  13.672  42.109   9.476
 1031POPC   GL116693  13.846  42.235   9.106
 1031POPC   GL216694  13.780  42.601   9.194
 1031POPC   C1A16695  13.993  42.207   8.701
 1031POPC   D2A16696  13.786  42.348   8.363
 1031POPC   C3A16697  13.916  42.263   7.964
 1031POPC   C4A16698  13.497  42.273   7.797
 1031POPC   C1B16699  13.566  42.532   8.802
 1031POPC   C2B16700  13.649  42.810   8.470
 1031POPC   C3B16701  13.790  42.805   8.087
 1031POPC   C4B16702  13.798  42.674   7.659
 1032POPC   NC316703  33.996   1.533   9.320
 1032POPC   PO416704  33.563   1.152   9.730
 1032POPC   GL116705  33.679   1.087   9.280
 1032POPC   GL216706  33.411   1.260   9.203
 1032POPC   C1A16707  33.898   1.071   8.857
 1032POPC   D2A16708  33.717   0.939   8.429
 1032POPC   C3A16709  33.816   1.127   8.024
 1032POPC   C4A16710  34.152   1.028   7.741
 1032POPC   C1B16711  33.383   1.145   8.771
 1032POPC   C2B16712  33.313   1.310   8.352
 1032POPC   C3B16713  33.198   1.567   8.010
 1032POPC   C4B16714  33.409   1.306   7.718
 1033POPC   NC316715  17.476  40.825   9.665
 1033POPC   PO416716  17.526  40.216   9.595
 1033POPC   GL116717  17.528  40.524   9.230
 1033POPC   GL216718  17.395  40.889   9.150
 1033POPC   C1A16719  17.722  40.675   8.825
 1033POPC   D2A16720  17.450  40.667   8.452
 1033POPC   C3A16721  17.691  40.683   8.082
 1033POPC   C4A16722  17.739  40.543   7.674
 1033POPC   C1B16723  17.447  41.120   8.761
 1033POPC   C2B16724  17.592  41.141   8.326
 1033POPC   C3B16725  17.384  41.065   7.945
 1033POPC   C4B16726  17.439  40.984   7.528
 1034POPC   NC316727   9.637  17.575   9.454
 1034POPC   PO416728  10.277  17.612   9.331
 1034POPC   GL116729  10.061  17.425   9.033
 1034POPC   GL216730   9.715  17.326   9.029
 1034POPC   C1A16731  10.056  17.482   8.607
 1034POPC   D2A16732   9.953  17.297   8.225
 1034POPC   C3A16733  10.063  17.655   8.057
 1034POPC   C4A16734   9.969  17.858   7.719
 1034POPC   C1B16735   9.599  17.282   8.610
 1034POPC   C2B16736   9.588  17.638   8.313
 1034POPC   C3B16737   9.574  17.551   7.921
 1034POPC   C4B16738   9.262  17.257   7.808
 1035POPC   NC316739   4.914  27.094   9.475
 1035POPC   PO416740   4.835  26.454   9.247
 1035POPC   GL116741   5.131  26.753   9.097
 1035POPC   GL216742   5.324  27.055   9.147
 1035POPC   C1A16743   5.034  26.830   8.700
 1035POPC   D2A16744   4.972  26.519   8.420
 1035POPC   C3A16745   5.107  26.627   8.043
 1035POPC   C4A16746   4.934  26.856   7.742
 1035POPC   C1B16747   5.295  27.266   8.786
 1035POPC   C2B16748   5.106  27.257   8.401
 1035POPC   C3B16749   5.216  27.175   8.011
 1035POPC   C4B16750   5.164  27.367   7.643
 1036POPC   NC316751  21.482  36.764   9.330
 1036POPC   PO416752  21.239  37.429   9.514
 1036POPC   GL116753  21.225  37.168   9.148
 1036POPC   GL216754  21.550  37.129   8.956
 1036POPC   C1A16755  21.132  36.961   8.761
 1036POPC   D2A16756  21.224  37.137   8.380
 1036POPC   C3A16757  21.416  36.904   8.091
 1036POPC   C4A16758  21.194  36.921   7.744
 1036POPC   C1B16759  21.705  36.910   8.608
 1036POPC   C2B16760  21.648  36.528   8.389
 1036POPC   C3B16761  21.769  36.521   7.983
 1036POPC   C4B16762  21.629  36.703   7.623
 1037POPC   NC316763  21.117  39.458   9.514
 1037POPC   PO416764  21.472  38.933   9.793
 1037POPC   GL116765  21.547  39.040   9.271
 1037POPC   GL216766  21.544  39.399   9.224
 1037POPC   C1A16767  21.331  39.074   8.850
 1037POPC   D2A16768  21.258  38.868   8.457
 1037POPC   C3A16769  21.340  39.065   8.050
 1037POPC   C4A16770  21.453  39.287   7.686
 1037POPC   C1B16771  21.226  39.573   8.903
 1037POPC   C2B16772  21.168  39.583   8.455
 1037POPC   C3B16773  21.402  39.605   8.092
 1037POPC   C4B16774  21.260  39.767   7.696
 1038POPC   NC316775  41.104  25.381   9.347
 1038POPC   PO416776  40.469  25.085   9.467
 1038POPC   GL116777  40.739  25.096   9.102
 1038POPC   GL216778  41.059  24.910   9.124
 1038POPC   C1A16779  40.785  25.316   8.692
 1038POPC   D2A16780  40.502  25.277   8.336
 1038POPC   C3A16781  40.625  25.333   7.926
 1038POPC   C4A16782  40.618  25.392   7.481
 1038POPC   C1B16783  41.304  25.020   8.765
 1038POPC   C2B16784  41.272  25.364   8.502
 1038POPC   C3B16785  41.090  25.404   8.105
 1038POPC   C4B16786  41.064  25.246   7.676
 1039POPC   NC316787  43.798  38.495   9.644
 1039POPC   PO416788  43.062  38.482   9.655
 1039POPC   GL116789  43.019  38.502   9.160
 1039POPC   GL216790  43.151  38.798   8.975
 1039POPC   C1A16791  42.897  38.420   8.730
 1039POPC   D2A16792  43.063  38.325   8.344
 1039POPC   C3A16793  43.139  38.544   7.973
 1039POPC   C4A16794  43.062  38.229   7.657
 1039POPC   C1B16795  43.373  38.569   8.703
 1039POPC   C2B16796  43.500  38.606   8.332
 1039POPC   C3B16797  43.662  38.418   7.997
 1039POPC   C4B16798  43.583  38.691   7.670
 1040POPC   NC316799  20.128   5.523   9.545
 1040POPC   PO416800  19.894   4.845   9.424
 1040POPC   GL116801  19.817   5.212   9.137
 1040POPC   GL216802  19.463   5.348   9.184
 1040POPC   C1A16803  19.992   5.208   8.677
 1040POPC   D2A16804  20.169   4.977   8.302
 1040POPC   C3A16805  20.075   5.103   7.860
 1040POPC   C4A16806  19.796   5.022   7.469
 1040POPC   C1B16807  19.486   5.267   8.740
 1040POPC   C2B16808  19.590   5.435   8.312
 1040POPC   C3B16809  19.628   5.346   7.852
 1040POPC   C4B16810  19.351   5.299   7.471
 1041POPC   NC316811   2.288  43.039   9.523
 1041POPC   PO416812   1.741  43.499   9.553
 1041POPC   GL116813   2.002  43.336   9.168
 1041POPC   GL216814   1.985  42.952   9.119
 1041POPC   C1A16815   1.979  43.219   8.690
 1041POPC   D2A16816   1.969  42.781   8.502
 1041POPC   C3A16817   1.748  42.792   8.104
 1041POPC   C4A16818   1.769  43.107   7.803
 1041POPC   C1B16819   2.399  43.013   8.894
 1041POPC   C2B16820   2.463  43.073   8.482
 1041POPC   C3B16821   2.171  43.112   8.161
 1041POPC   C4B16822   2.271  43.135   7.740
 1042POPC   NC316823  44.919   7.248   9.446
 1042POPC   PO416824  44.619   7.785   9.216
 1042POPC   GL116825  44.531   7.391   9.047
 1042POPC   GL216826  44.824   7.212   8.973
 1042POPC   C1A16827  44.579   7.444   8.606
 1042POPC   D2A16828  44.374   7.752   8.350
 1042POPC   C3A16829  44.568   7.693   7.966
 1042POPC   C4A16830  44.516   7.416   7.635
 1042POPC   C1B16831  44.817   6.952   8.703
 1042POPC   C2B16832  44.943   7.059   8.337
 1042POPC   C3B16833  44.877   7.242   7.970
 1042POPC   C4B16834  44.843   6.996   7.634
 1043POPC   NC316835  30.842  22.879   9.634
 1043POPC   PO416836  30.184  22.917   9.609
 1043POPC   GL116837  30.520  22.952   9.231
 1043POPC   GL216838  30.741  22.689   9.136
 1043POPC   C1A16839  30.602  23.098   8.775
 1043POPC   D2A16840  30.325  23.268   8.450
 1043POPC   C3A16841  30.525  23.260   8.077
 1043POPC   C4A16842  30.883  23.289   7.855
 1043POPC   C1B16843  30.672  22.607   8.682
 1043POPC   C2B16844  30.560  22.802   8.293
 1043POPC   C3B16845  30.632  22.812   7.811
 1043POPC   C4B16846  30.563  22.609   7.361
 1044POPC   NC316847  28.000   9.608   9.518
 1044POPC   PO416848  27.266   9.714   9.612
 1044POPC   GL116849  27.529   9.676   9.191
 1044POPC   GL216850  27.870   9.834   9.098
 1044POPC   C1A16851  27.520   9.844   8.735
 1044POPC   D2A16852  27.542   9.662   8.330
 1044POPC   C3A16853  27.486   9.891   7.918
 1044POPC   C4A16854  27.638   9.854   7.485
 1044POPC   C1B16855  27.842   9.455   8.813
 1044POPC   C2B16856  27.898   9.305   8.379
 1044POPC   C3B16857  27.788   9.466   7.936
 1044POPC   C4B16858  28.051   9.520   7.588
 1045POPC   NC316859   1.989  18.635   9.373
 1045POPC   PO416860   1.812  18.006   9.360
 1045POPC   GL116861   2.178  18.100   9.058
 1045POPC   GL216862   2.232  18.454   8.954
 1045POPC   C1A16863   2.195  18.083   8.614
 1045POPC   D2A16864   1.926  18.266   8.336
 1045POPC   C3A16865   2.105  18.385   7.977
 1045POPC   C4A16866   2.330  18.299   7.632
 1045POPC   C1B16867   1.791  18.416   8.807
 1045POPC   C2B16868   1.480  18.549   8.512
 1045POPC   C3B16869   1.603  18.583   8.090
 1045POPC   C4B16870   1.726  18.553   7.665
 1046POPC   NC316871  22.955  26.603   9.821
 1046POPC   PO416872  22.487  26.363   9.381
 1046POPC   GL116873  22.700  26.597   9.021
 1046POPC   GL216874  22.796  26.956   9.144
 1046POPC   C1A16875  23.089  26.658   8.734
 1046POPC   D2A16876  23.408  26.575   8.398
 1046POPC   C3A16877  23.153  26.584   8.045
 1046POPC   C4A16878  23.165  26.727   7.647
 1046POPC   C1B16879  22.661  26.967   8.701
 1046POPC   C2B16880  22.721  26.672   8.371
 1046POPC   C3B16881  22.605  26.798   7.991
 1046POPC   C4B16882  22.661  26.893   7.581
 1047POPC   NC316883  10.858   0.878   9.485
 1047POPC   PO416884  10.852   1.486   9.546
 1047POPC   GL116885  10.703   1.294   9.181
 1047POPC   GL216886  10.342   1.219   9.218
 1047POPC   C1A16887  10.824   1.161   8.774
 1047POPC   D2A16888  10.637   1.237   8.382
 1047POPC   C3A16889  10.841   0.982   8.123
 1047POPC   C4A16890  10.733   0.798   7.772
 1047POPC   C1B16891  10.223   1.305   8.779
 1047POPC   C2B16892  10.087   1.204   8.334
 1047POPC   C3B16893  10.332   1.235   7.907
 1047POPC   C4B16894  10.255   1.516   7.517
 1048POPC   NC316895  38.094  35.560   9.449
 1048POPC   PO416896  37.391  35.399   9.460
 1048POPC   GL116897  37.637  35.563   9.148
 1048POPC   GL216898  37.819  35.257   9.132
 1048POPC   C1A16899  37.818  35.630   8.754
 1048POPC   D2A16900  37.900  35.483   8.355
 1048POPC   C3A16901  37.687  35.564   7.988
 1048POPC   C4A16902  37.808  35.406   7.594
 1048POPC   C1B16903  37.754  35.120   8.730
 1048POPC   C2B16904  37.972  34.995   8.355
 1048POPC   C3B16905  37.766  35.051   7.944
 1048POPC   C4B16906  37.637  34.920   7.485
 1049POPC   NC316907  36.968  19.654   9.340
 1049POPC   PO416908  37.383  20.273   9.438
 1049POPC   GL116909  37.078  20.109   9.054
 1049POPC   GL216910  37.115  19.765   8.868
 1049POPC   C1A16911  36.761  20.049   8.692
 1049POPC   D2A16912  36.936  19.909   8.342
 1049POPC   C3A16913  36.724  20.016   8.004
 1049POPC   C4A16914  36.963  19.844   7.698
 1049POPC   C1B16915  37.261  19.496   8.507
 1049POPC   C2B16916  37.357  19.137   8.253
 1049POPC   C3B16917  37.138  19.345   7.932
 1049POPC   C4B16918  37.083  19.376   7.521
 1050POPC   NC316919   9.407  32.536   9.481
 1050POPC   PO416920   9.713  32.074   9.834
 1050POPC   GL116921   9.846  32.133   9.347
 1050POPC   GL216922   9.591  32.258   9.122
 1050POPC   C1A16923   9.932  32.043   8.859
 1050POPC   D2A16924   9.824  32.098   8.418
 1050POPC   C3A16925   9.781  32.459   8.114
 1050POPC   C4A16926   9.790  32.260   7.667
 1050POPC   C1B16927   9.422  32.036   8.772
 1050POPC   C2B16928   9.319  32.204   8.394
 1050POPC   C3B16929   9.454  32.096   8.010
 1050POPC   C4B16930   9.450  31.878   7.605
 1051POPC   NC316931  42.123   4.783   9.231
 1051POPC   PO416932  42.454   4.193   9.401
 1051POPC   GL116933  42.357   4.336   9.003
 1051POPC   GL216934  42.018   4.333   8.980
 1051POPC   C1A16935  42.302   4.355   8.554
 1051POPC   D2A16936  42.553   4.182   8.252
 1051POPC   C3A16937  42.488   4.275   7.869
 1051POPC   C4A16938  42.092   4.399   7.737
 1051POPC   C1B16939  42.021   3.938   8.771
 1051POPC   C2B16940  42.231   3.817   8.406
 1051POPC   C3B16941  42.129   3.924   7.992
 1051POPC   C4B16942  41.938   3.801   7.631
 1052POPC   NC316943  36.676  44.611   9.653
 1052POPC   PO416944  36.022  44.549   9.563
 1052POPC   GL116945  36.203  44.607   9.170
 1052POPC   GL216946  36.347  44.309   9.123
 1052POPC   C1A16947  36.062  44.809   8.788
 1052POPC   D2A16948  35.934  44.673   8.373
 1052POPC   C3A16949  36.161  44.592   8.007
 1052POPC   C4A16950  36.010  44.790   7.659
 1052POPC   C1B16951  36.265  44.350   8.707
 1052POPC   C2B16952  36.041  44.149   8.388
 1052POPC   C3B16953  35.884  44.172   7.974
 1052POPC   C4B16954  36.014  44.302   7.582
 1053POPC   NC316955  11.039  16.688   9.496
 1053POPC   PO416956  11.668  16.686   9.470
 1053POPC   GL116957  11.458  16.846   9.089
 1053POPC   GL216958  11.100  16.901   9.028
 1053POPC   C1A16959  11.437  16.837   8.656
 1053POPC   D2A16960  11.124  16.784   8.396
 1053POPC   C3A16961  11.386  16.715   8.021
 1053POPC   C4A16962  11.415  16.488   7.630
 1053POPC   C1B16963  11.018  17.216   8.704
 1053POPC   C2B16964  10.950  17.314   8.287
 1053POPC   C3B16965  10.986  17.019   7.990
 1053POPC   C4B16966  11.020  16.828   7.626
 1054POPC   NC316967  44.439  31.829   9.587
 1054POPC   PO416968  44.909  31.333   9.472
 1054POPC   GL116969  44.639  31.469   9.165
 1054POPC   GL216970  44.772  31.769   9.124
 1054POPC   C1A16971  44.525  31.229   8.769
 1054POPC   D2A16972  44.493  31.053   8.344
 1054POPC   C3A16973  44.468  31.443   8.081
 1054POPC   C4A16974  44.589  31.753   7.779
 1054POPC   C1B16975  44.738  31.687   8.648
 1054POPC   C2B16976  44.909  31.338   8.387
 1054POPC   C3B16977  44.939  31.244   7.942
 1054POPC   C4B16978  44.653  31.251   7.572
 1055POPC   NC316979  23.538  23.140   9.444
 1055POPC   PO416980  24.256  23.201   9.343
 1055POPC   GL116981  23.917  22.967   9.083
 1055POPC   GL216982  23.576  22.765   9.109
 1055POPC   C1A16983  23.667  23.062   8.696
 1055POPC   D2A16984  23.430  23.262   8.387
 1055POPC   C3A16985  23.579  23.031   8.015
 1055POPC   C4A16986  23.971  22.931   7.815
 1055POPC   C1B16987  23.665  22.566   8.730
 1055POPC   C2B16988  23.801  22.671   8.332
 1055POPC   C3B16989  23.721  22.502   7.932
 1055POPC   C4B16990  23.597  22.699   7.537
 1056POPC   NC316991  21.329  25.872   9.335
 1056POPC   PO416992  21.405  25.303   9.665
 1056POPC   GL116993  21.552  25.344   9.218
 1056POPC   GL216994  21.277  25.447   9.047
 1056POPC   C1A16995  21.575  25.086   8.838
 1056POPC   D2A16996  21.353  25.233   8.479
 1056POPC   C3A16997  21.482  25.169   8.066
 1056POPC   C4A16998  21.171  24.970   7.829
 1056POPC   C1B16999  21.153  25.666   8.698
 1056POPC   C2B17000  21.108  25.678   8.267
 1056POPC   C3B17001  21.073  25.597   7.841
 1056POPC   C4B17002  21.353  25.380   7.584
 1057POPC   NC317003   9.157  43.906   9.500
 1057POPC   PO417004   8.469  44.131   9.511
 1057POPC   GL117005   8.760  44.029   9.152
 1057POPC   GL217006   9.122  43.921   9.010
 1057POPC   C1A17007   8.707  43.786   8.779
 1057POPC   D2A17008   8.603  43.917   8.378
 1057POPC   C3A17009   8.760  43.781   8.018
 1057POPC   C4A17010   8.856  44.073   7.723
 1057POPC   C1B17011   9.163  43.899   8.560
 1057POPC   C2B17012   9.210  44.010   8.126
 1057POPC   C3B17013   9.215  43.698   7.763
 1057POPC   C4B17014   9.342  43.513   7.356
 1058POPC   NC317015  41.252  23.814   9.464
 1058POPC   PO417016  40.698  23.422   9.483
 1058POPC   GL117017  40.682  23.624   9.096
 1058POPC   GL217018  41.044  23.507   9.044
 1058POPC   C1A17019  40.431  23.531   8.714
 1058POPC   D2A17020  40.303  23.428   8.279
 1058POPC   C3A17021  40.606  23.438   7.908
 1058POPC   C4A17022  40.575  23.422   7.456
 1058POPC   C1B17023  40.884  23.757   8.655
 1058POPC   C2B17024  40.767  23.865   8.211
 1058POPC   C3B17025  41.109  24.006   7.864
 1058POPC   C4B17026  41.001  24.078   7.373
 1059POPC   NC317027  20.432  17.446   9.270
 1059POPC   PO417028  19.913  17.303   9.724
 1059POPC   GL117029  20.024  17.170   9.223
 1059POPC   GL217030  19.787  17.113   8.978
 1059POPC   C1A17031  20.113  17.377   8.725
 1059POPC   D2A17032  19.979  17.256   8.289
 1059POPC   C3A17033  20.030  17.628   8.021
 1059POPC   C4A17034  19.770  17.820   7.715
 1059POPC   C1B17035  19.594  17.375   8.663
 1059POPC   C2B17036  19.555  17.551   8.241
 1059POPC   C3B17037  19.594  17.347   7.840
 1059POPC   C4B17038  19.496  17.036   7.518
 1060POPC   NC317039  26.683  29.946   9.508
 1060POPC   PO417040  27.431  29.898   9.451
 1060POPC   GL117041  27.068  29.880   9.162
 1060POPC   GL217042  26.703  29.750   9.038
 1060POPC   C1A17043  27.012  30.086   8.765
 1060POPC   D2A17044  27.074  30.235   8.326
 1060POPC   C3A17045  27.195  29.939   8.009
 1060POPC   C4A17046  26.845  29.815   7.757
 1060POPC   C1B17047  26.485  30.118   8.805
 1060POPC   C2B17048  26.348  30.280   8.384
 1060POPC   C3B17049  26.334  30.068   7.979
 1060POPC   C4B17050  26.538  30.190   7.606
 1061POPC   NC317051   3.026  17.833   9.492
 1061POPC   PO417052   2.542  17.324   9.386
 1061POPC   GL117053   2.908  17.425   9.137
 1061POPC   GL217054   2.749  17.724   9.077
 1061POPC   C1A17055   3.027  17.522   8.697
 1061POPC   D2A17056   2.940  17.760   8.287
 1061POPC   C3A17057   2.931  17.485   7.893
 1061POPC   C4A17058   2.911  17.380   7.408
 1061POPC   C1B17059   2.426  17.603   8.806
 1061POPC   C2B17060   2.338  17.634   8.400
 1061POPC   C3B17061   2.476  17.994   8.174
 1061POPC   C4B17062   2.654  17.904   7.783
 1062POPC   NC317063  30.334   6.720   9.351
 1062POPC   PO417064  29.782   6.419   9.653
 1062POPC   GL117065  29.702   6.600   9.238
 1062POPC   GL217066  29.982   6.451   9.078
 1062POPC   C1A17067  29.651   6.615   8.751
 1062POPC   D2A17068  29.929   6.402   8.376
 1062POPC   C3A17069  29.741   6.517   7.991
 1062POPC   C4A17070  29.680   6.874   7.703
 1062POPC   C1B17071  30.140   6.712   8.730
 1062POPC   C2B17072  30.004   6.896   8.301
 1062POPC   C3B17073  30.156   6.790   7.891
 1062POPC   C4B17074  30.112   6.875   7.422
 1063POPC   NC317075  33.179  40.769   9.655
 1063POPC   PO417076  32.581  40.614   9.338
 1063POPC   GL117077  32.949  40.799   9.150
 1063POPC   GL217078  33.228  41.056   9.159
 1063POPC   C1A17079  33.213  40.692   8.802
 1063POPC   D2A17080  33.361  40.791   8.412
 1063POPC   C3A17081  33.033  40.895   8.132
 1063POPC   C4A17082  33.050  41.086   7.737
 1063POPC   C1B17083  32.938  41.132   8.742
 1063POPC   C2B17084  32.643  41.141   8.343
 1063POPC   C3B17085  32.598  41.262   7.906
 1063POPC   C4B17086  32.660  41.248   7.412
 1064POPC   NC317087  38.339  16.318   9.466
 1064POPC   PO417088  38.723  15.853   9.632
 1064POPC   GL117089  38.756  16.040   9.222
 1064POPC   GL217090  38.804  15.714   9.049
 1064POPC   C1A17091  38.745  16.203   8.813
 1064POPC   D2A17092  38.458  16.283   8.454
 1064POPC   C3A17093  38.466  16.055   8.056
 1064POPC   C4A17094  38.661  16.187   7.696
 1064POPC   C1B17095  38.401  15.827   8.817
 1064POPC   C2B17096  38.188  15.754   8.404
 1064POPC   C3B17097  38.100  15.671   7.962
 1064POPC   C4B17098  38.166  15.760   7.523
 1065POPC   NC317099   2.817  16.954   9.343
 1065POPC   PO417100   3.232  16.520   9.256
 1065POPC   GL117101   2.827  16.486   9.030
 1065POPC   GL217102   2.891  16.789   8.875
 1065POPC   C1A17103   2.489  16.540   8.724
 1065POPC   D2A17104   2.539  16.805   8.357
 1065POPC   C3A17105   2.537  16.603   7.966
 1065POPC   C4A17106   2.584  16.374   7.582
 1065POPC   C1B17107   2.683  17.153   8.738
 1065POPC   C2B17108   2.742  17.284   8.343
 1065POPC   C3B17109   2.980  17.011   8.094
 1065POPC   C4B17110   2.741  17.026   7.753
 1066POPC   NC317111  40.773  12.197   9.547
 1066POPC   PO417112  41.131  11.619   9.323
 1066POPC   GL117113  40.942  11.993   9.107
 1066POPC   GL217114  40.597  12.167   9.085
 1066POPC   C1A17115  40.972  12.334   8.789
 1066POPC   D2A17116  41.189  12.437   8.394
 1066POPC   C3A17117  41.025  12.271   8.005
 1066POPC   C4A17118  40.934  11.979   7.687
 1066POPC   C1B17119  40.651  11.928   8.699
 1066POPC   C2B17120  40.678  12.253   8.384
 1066POPC   C3B17121  40.518  12.419   7.992
 1066POPC   C4B17122  40.538  12.288   7.572
 1067POPC   NC317123  28.624   1.787   9.433
 1067POPC   PO417124  28.178   2.334   9.494
 1067POPC   GL117125  28.370   2.165   9.153
 1067POPC   GL217126  28.220   1.853   9.103
 1067POPC   C1A17127  28.555   2.117   8.746
 1067POPC   D2A17128  28.398   2.042   8.324
 1067POPC   C3A17129  28.589   2.216   7.963
 1067POPC   C4A17130  28.563   2.231   7.529
 1067POPC   C1B17131  28.185   1.713   8.699
 1067POPC   C2B17132  27.947   1.805   8.320
 1067POPC   C3B17133  28.137   1.802   7.914
 1067POPC   C4B17134  28.213   1.525   7.561
 1068POPC   NC317135  31.596  18.912  10.056
 1068POPC   PO417136  31.672  18.872   9.564
 1068POPC   GL117137  31.715  18.931   9.069
 1068POPC   GL217138  31.397  18.919   8.887
 1068POPC   C1A17139  31.737  19.197   8.657
 1068POPC   D2A17140  31.471  19.123   8.278
 1068POPC   C3A17141  31.600  19.084   7.836
 1068POPC   C4A17142  31.350  19.067   7.463
 1068POPC   C1B17143  31.629  18.710   8.526
 1068POPC   C2B17144  31.655  18.639   8.067
 1068POPC   C3B17145  31.319  18.580   7.716
 1068POPC   C4B17146  31.284  18.612   7.225
 1069POPC   NC317147  26.811  28.076   9.483
 1069POPC   PO417148  26.501  28.669   9.691
 1069POPC   GL117149  26.466  28.583   9.230
 1069POPC   GL217150  26.635  28.263   9.049
 1069POPC   C1A17151  26.510  28.692   8.802
 1069POPC   D2A17152  26.759  28.480   8.475
 1069POPC   C3A17153  26.565  28.327   8.124
 1069POPC   C4A17154  26.710  28.276   7.714
 1069POPC   C1B17155  27.047  28.162   8.833
 1069POPC   C2B17156  27.278  28.302   8.497
 1069POPC   C3B17157  27.095  28.271   8.106
 1069POPC   C4B17158  27.223  28.223   7.685
 1070POPC   NC317159  35.934  43.168   9.524
 1070POPC   PO417160  36.580  43.363   9.537
 1070POPC   GL117161  36.291  43.274   9.196
 1070POPC   GL217162  36.221  42.964   9.137
 1070POPC   C1A17163  36.244  43.320   8.755
 1070POPC   D2A17164  36.052  43.135   8.411
 1070POPC   C3A17165  36.232  43.237   8.011
 1070POPC   C4A17166  36.066  43.324   7.596
 1070POPC   C1B17167  36.002  42.779   8.839
 1070POPC   C2B17168  36.181  42.619   8.511
 1070POPC   C3B17169  36.132  42.730   8.100
 1070POPC   C4B17170  36.113  42.832   7.683
 1071POPC   NC317171  26.247  41.656   9.582
 1071POPC   PO417172  25.631  41.442   9.526
 1071POPC   GL117173  25.821  41.589   9.135
 1071POPC   GL217174  26.139  41.697   9.090
 1071POPC   C1A17175  25.996  41.401   8.713
 1071POPC   D2A17176  26.195  41.509   8.359
 1071POPC   C3A17177  25.971  41.328   8.031
 1071POPC   C4A17178  26.085  41.308   7.617
 1071POPC   C1B17179  25.982  41.899   8.725
 1071POPC   C2B17180  26.223  42.026   8.406
 1071POPC   C3B17181  26.324  41.881   8.018
 1071POPC   C4B17182  25.972  41.769   7.797
 1072POPC   NC317183  39.352  25.309   9.187
 1072POPC   PO417184  39.871  25.275   9.636
 1072POPC   GL117185  39.976  25.219   9.185
 1072POPC   GL217186  40.287  25.378   9.071
 1072POPC   C1A17187  40.032  25.140   8.720
 1072POPC   D2A17188  40.158  24.904   8.390
 1072POPC   C3A17189  40.035  25.159   8.061
 1072POPC   C4A17190  39.830  25.017   7.673
 1072POPC   C1B17191  40.328  25.626   8.699
 1072POPC   C2B17192  40.207  25.731   8.282
 1072POPC   C3B17193  40.313  25.694   7.870
 1072POPC   C4B17194  40.128  25.416   7.599
 1073POPC   NC317195  32.122   7.915   9.553
 1073POPC   PO417196  32.519   8.466   9.439
 1073POPC   GL117197  32.324   8.184   9.125
 1073POPC   GL217198  31.985   8.109   9.105
 1073POPC   C1A17199  32.183   8.278   8.681
 1073POPC   D2A17200  32.327   8.110   8.305
 1073POPC   C3A17201  32.285   8.359   7.970
 1073POPC   C4A17202  32.475   8.451   7.589
 1073POPC   C1B17203  31.836   7.897   8.748
 1073POPC   C2B17204  31.833   7.958   8.295
 1073POPC   C3B17205  32.051   7.900   7.883
 1073POPC   C4B17206  32.028   8.147   7.519
 1074POPC   NC317207  20.884  37.131   9.547
 1074POPC   PO417208  20.213  36.889   9.618
 1074POPC   GL117209  20.518  36.830   9.297
 1074POPC   GL217210  20.523  37.157   9.205
 1074POPC   C1A17211  20.697  36.739   8.897
 1074POPC   D2A17212  20.657  36.954   8.511
 1074POPC   C3A17213  20.847  36.880   8.116
 1074POPC   C4A17214  20.740  36.657   7.736
 1074POPC   C1B17215  20.305  37.374   8.923
 1074POPC   C2B17216  20.214  37.246   8.509
 1074POPC   C3B17217  20.426  37.219   8.116
 1074POPC   C4B17218  20.352  37.413   7.748
 1075POPC   NC317219   7.084  42.532   9.450
 1075POPC   PO417220   7.650  42.188   9.384
 1075POPC   GL117221   7.377  42.344   9.069
 1075POPC   GL217222   7.043  42.204   9.049
 1075POPC   C1A17223   7.337  42.410   8.624
 1075POPC   D2A17224   7.539  42.436   8.208
 1075POPC   C3A17225   7.269  42.468   7.850
 1075POPC   C4A17226   7.344  42.558   7.413
 1075POPC   C1B17227   6.909  42.078   8.661
 1075POPC   C2B17228   7.047  42.185   8.254
 1075POPC   C3B17229   6.996  42.052   7.855
 1075POPC   C4B17230   6.974  42.202   7.439
 1076POPC   NC317231   4.354  30.193   9.521
 1076POPC   PO417232   4.448  29.642   9.613
 1076POPC   GL117233   4.455  29.839   9.079
 1076POPC   GL217234   4.445  30.213   9.025
 1076POPC   C1A17235   4.631  29.955   8.642
 1076POPC   D2A17236   4.646  29.993   8.218
 1076POPC   C3A17237   4.401  29.738   7.933
 1076POPC   C4A17238   4.553  29.827   7.524
 1076POPC   C1B17239   4.281  30.324   8.588
 1076POPC   C2B17240   4.110  30.137   8.175
 1076POPC   C3B17241   4.208  30.154   7.694
 1076POPC   C4B17242   4.207  30.038   7.202
 1077POPC   NC317243  29.434  31.366   9.777
 1077POPC   PO417244  29.058  31.674   9.455
 1077POPC   GL117245  29.033  31.690   9.040
 1077POPC   GL217246  29.060  31.350   8.981
 1077POPC   C1A17247  29.110  31.674   8.595
 1077POPC   D2A17248  29.132  31.857   8.259
 1077POPC   C3A17249  29.173  31.646   7.896
 1077POPC   C4A17250  29.040  31.710   7.481
 1077POPC   C1B17251  29.419  31.302   8.740
 1077POPC   C2B17252  29.261  31.263   8.323
 1077POPC   C3B17253  29.248  31.080   7.969
 1077POPC   C4B17254  29.192  31.223   7.584
 1078POPC   NC317255  19.483  11.716   9.440
 1078POPC   PO417256  19.950  11.386   9.860
 1078POPC   GL117257  19.842  11.355   9.362
 1078POPC   GL217258  20.012  11.140   9.155
 1078POPC   C1A17259  19.808  11.546   8.896
 1078POPC   D2A17260  19.820  11.324   8.467
 1078POPC   C3A17261  19.696  11.564   8.088
 1078POPC   C4A17262  19.803  11.696   7.662
 1078POPC   C1B17263  19.601  11.082   8.888
 1078POPC   C2B17264  19.404  11.018   8.460
 1078POPC   C3B17265  19.613  11.047   8.049
 1078POPC   C4B17266  19.490  10.896   7.625
 1079POPC   NC317267  40.338  33.868   9.560
 1079POPC   PO417268  39.915  33.437   9.546
 1079POPC   GL117269  40.189  33.564   9.173
 1079POPC   GL217270  40.164  33.958   9.106
 1079POPC   C1A17271  40.100  33.642   8.723
 1079POPC   D2A17272  39.908  33.983   8.448
 1079POPC   C3A17273  39.806  33.777   8.040
 1079POPC   C4A17274  39.820  33.849   7.591
 1079POPC   C1B17275  40.363  34.074   8.736
 1079POPC   C2B17276  40.381  33.886   8.300
 1079POPC   C3B17277  40.233  33.994   7.883
 1079POPC   C4B17278  40.251  34.037   7.413
 1080POPC   NC317279   6.143  15.653   9.455
 1080POPC   PO417280   5.777  16.177   9.489
 1080POPC   GL117281   5.785  16.174   9.070
 1080POPC   GL217282   6.097  15.997   9.097
 1080POPC   C1A17283   5.809  15.910   8.694
 1080POPC   D2A17284   6.117  15.659   8.468
 1080POPC   C3A17285   5.952  15.548   8.065
 1080POPC   C4A17286   5.999  15.898   7.762
 1080POPC   C1B17287   6.301  16.119   8.753
 1080POPC   C2B17288   6.246  16.397   8.436
 1080POPC   C3B17289   6.168  16.346   8.020
 1080POPC   C4B17290   6.220  16.345   7.599
 1081POPC   NC317291  41.788  21.227   9.439
 1081POPC   PO417292  41.175  21.084   9.290
 1081POPC   GL117293  41.312  21.490   9.173
 1081POPC   GL217294  41.629  21.708   9.250
 1081POPC   C1A17295  41.416  21.633   8.791
 1081POPC   D2A17296  41.622  21.283   8.623
 1081POPC   C3A17297  41.492  21.220   8.252
 1081POPC   C4A17298  41.383  21.294   7.858
 1081POPC   C1B17299  41.932  21.603   8.886
 1081POPC   C2B17300  41.963  21.616   8.430
 1081POPC   C3B17301  41.712  21.659   8.051
 1081POPC   C4B17302  41.749  21.550   7.610
 1082POPC   NC317303  18.686   7.346   9.502
 1082POPC   PO417304  19.148   7.848   9.514
 1082POPC   GL117305  19.169   7.655   9.102
 1082POPC   GL217306  18.995   7.334   9.091
 1082POPC   C1A17307  19.064   7.609   8.664
 1082POPC   D2A17308  18.782   7.692   8.331
 1082POPC   C3A17309  19.005   7.615   7.950
 1082POPC   C4A17310  19.214   7.688   7.551
 1082POPC   C1B17311  19.213   7.132   8.788
 1082POPC   C2B17312  19.473   7.095   8.457
 1082POPC   C3B17313  19.330   7.221   8.088
 1082POPC   C4B17314  19.481   7.310   7.734
 1083POPC   NC317315   6.591  35.890   9.535
 1083POPC   PO417316   6.401  35.192   9.532
 1083POPC   GL117317   6.326  35.405   9.204
 1083POPC   GL217318   6.658  35.479   9.143
 1083POPC   C1A17319   6.331  35.324   8.783
 1083POPC   D2A17320   6.578  35.363   8.422
 1083POPC   C3A17321   6.328  35.410   8.074
 1083POPC   C4A17322   6.521  35.299   7.712
 1083POPC   C1B17323   6.950  35.555   8.795
 1083POPC   C2B17324   6.936  35.751   8.411
 1083POPC   C3B17325   6.962  35.524   8.005
 1083POPC   C4B17326   7.143  35.721   7.642
 1084POPC   NC317327  14.109  44.760   9.485
 1084POPC   PO417328  14.675  44.931   9.853
 1084POPC   GL117329  14.585  44.866   9.340
 1084POPC   GL217330  14.831  44.697   9.125
 1084POPC   C1A17331  14.408  44.832   8.864
 1084POPC   D2A17332  14.272  44.935   8.397
 1084POPC   C3A17333  14.262  44.691   7.997
 1084POPC   C4A17334  14.621  44.719   7.686
 1084POPC   C1B17335  14.752  44.448   8.727
 1084POPC   C2B17336  14.621  44.512   8.322
 1084POPC   C3B17337  14.553  44.289   7.949
 1084POPC   C4B17338  14.766  44.097   7.676
 1085POPC   NC317339  39.557  16.655   9.585
 1085POPC   PO417340  39.331  17.215   9.497
 1085POPC   GL117341  39.429  16.985   9.150
 1085POPC   GL217342  39.165  16.780   9.043
 1085POPC   C1A17343  39.559  16.921   8.728
 1085POPC   D2A17344  39.546  16.607   8.389
 1085POPC   C3A17345  39.363  16.689   8.047
 1085POPC   C4A17346  39.399  16.901   7.672
 1085POPC   C1B17347  39.186  16.508   8.727
 1085POPC   C2B17348  38.992  16.404   8.380
 1085POPC   C3B17349  39.058  16.290   8.003
 1085POPC   C4B17350  39.017  16.571   7.697
 1086POPC   NC317351   2.936  15.314   9.466
 1086POPC   PO417352   2.401  14.782   9.396
 1086POPC   GL117353   2.558  15.140   9.166
 1086POPC   GL217354   2.389  15.443   9.272
 1086POPC   C1A17355   2.776  15.314   8.797
 1086POPC   D2A17356   2.685  15.374   8.365
 1086POPC   C3A17357   2.784  15.066   8.086
 1086POPC   C4A17358   2.517  14.815   7.796
 1086POPC   C1B17359   2.367  15.685   8.894
 1086POPC   C2B17360   2.382  15.784   8.454
 1086POPC   C3B17361   2.290  15.564   8.116
 1086POPC   C4B17362   2.548  15.410   7.815
 1087POPC   NC317363  40.838  21.537   9.438
 1087POPC   PO417364  40.713  20.895   9.599
 1087POPC   GL117365  40.519  21.215   9.207
 1087POPC   GL217366  40.828  21.343   8.990
 1087POPC   C1A17367  40.404  21.479   8.783
 1087POPC   D2A17368  40.592  21.193   8.491
 1087POPC   C3A17369  40.566  21.120   8.051
 1087POPC   C4A17370  40.462  21.356   7.669
 1087POPC   C1B17371  41.093  21.243   8.664
 1087POPC   C2B17372  41.024  21.401   8.297
 1087POPC   C3B17373  40.896  21.471   7.917
 1087POPC   C4B17374  40.991  21.257   7.533
 1088POPC   NC317375  22.588  14.877   9.365
 1088POPC   PO417376  23.163  15.311   9.424
 1088POPC   GL117377  22.866  15.223   9.108
 1088POPC   GL217378  23.029  14.915   9.078
 1088POPC   C1A17379  22.652  15.192   8.675
 1088POPC   D2A17380  22.907  15.422   8.363
 1088POPC   C3A17381  23.026  15.312   7.958
 1088POPC   C4A17382  23.391  15.258   7.731
 1088POPC   C1B17383  23.159  15.093   8.674
 1088POPC   C2B17384  22.965  14.921   8.277
 1088POPC   C3B17385  23.125  14.814   7.851
 1088POPC   C4B17386  23.213  14.911   7.400
 1089POPC   NC317387  16.680   8.084   9.608
 1089POPC   PO417388  15.991   8.024   9.590
 1089POPC   GL117389  15.845   8.214   9.198
 1089POPC   GL217390  16.098   7.993   9.093
 1089POPC   C1A17391  15.827   8.261   8.745
 1089POPC   D2A17392  15.987   8.111   8.355
 1089POPC   C3A17393  15.657   8.185   8.064
 1089POPC   C4A17394  15.719   8.506   7.749
 1089POPC   C1B17395  16.330   7.934   8.721
 1089POPC   C2B17396  16.560   8.189   8.451
 1089POPC   C3B17397  16.496   8.085   8.016
 1089POPC   C4B17398  16.087   8.145   7.825
 1090POPC   NC317399  38.176  37.172   9.392
 1090POPC   PO417400  38.684  36.675   9.503
 1090POPC   GL117401  38.403  36.745   9.166
 1090POPC   GL217402  38.580  37.033   9.094
 1090POPC   C1A17403  38.334  36.800   8.713
 1090POPC   D2A17404  38.487  36.665   8.357
 1090POPC   C3A17405  38.253  36.804   8.088
 1090POPC   C4A17406  38.429  36.982   7.763
 1090POPC   C1B17407  38.584  37.242   8.692
 1090POPC   C2B17408  38.608  37.190   8.232
 1090POPC   C3B17409  38.823  37.260   7.835
 1090POPC   C4B17410  38.561  37.334   7.401
 1091POPC   NC317411  34.353  44.696   9.415
 1091POPC   PO417412  34.999  44.771   9.450
 1091POPC   GL117413  34.843  44.498   9.156
 1091POPC   GL217414  34.670  44.795   9.012
 1091POPC   C1A17415  34.674  44.348   8.753
 1091POPC   D2A17416  34.499  44.577   8.378
 1091POPC   C3A17417  34.691  44.451   7.974
 1091POPC   C4A17418  34.611  44.544   7.555
 1091POPC   C1B17419  34.385  44.978   8.712
 1091POPC   C2B17420  34.513   0.132   8.300
 1091POPC   C3B17421  34.647  44.973   7.912
 1091POPC   C4B17422  34.677   0.183   7.509
 1092POPC   NC317423   7.267   3.630   9.593
 1092POPC   PO417424   7.673   4.043   9.323
 1092POPC   GL117425   7.440   3.737   9.072
 1092POPC   GL217426   7.448   3.392   9.138
 1092POPC   C1A17427   7.445   3.542   8.641
 1092POPC   D2A17428   7.325   3.602   8.213
 1092POPC   C3A17429   7.671   3.536   7.948
 1092POPC   C4A17430   8.011   3.714   7.725
 1092POPC   C1B17431   7.177   3.152   8.846
 1092POPC   C2B17432   7.062   3.198   8.424
 1092POPC   C3B17433   7.050   3.131   7.995
 1092POPC   C4B17434   7.213   3.425   7.722
 1093POPC   NC317435   9.643  36.537   9.413
 1093POPC   PO417436  10.076  36.972   9.652
 1093POPC   GL117437   9.839  36.937   9.186
 1093POPC   GL217438   9.504  37.069   9.066
 1093POPC   C1A17439   9.719  36.703   8.793
 1093POPC   D2A17440   9.362  36.696   8.505
 1093POPC   C3A17441   9.510  36.662   8.101
 1093POPC   C4A17442   9.557  36.869   7.717
 1093POPC   C1B17443   9.839  37.201   8.734
 1093POPC   C2B17444   9.836  37.133   8.265
 1093POPC   C3B17445   9.894  37.308   7.837
 1093POPC   C4B17446   9.958  37.478   7.410
 1094POPC   NC317447  39.658  43.019   9.403
 1094POPC   PO417448  38.969  43.127   9.569
 1094POPC   GL117449  39.007  43.256   9.181
 1094POPC   GL217450  39.295  43.167   9.036
 1094POPC   C1A17451  38.832  43.336   8.819
 1094POPC   D2A17452  39.137  43.243   8.536
 1094POPC   C3A17453  39.110  43.282   8.115
 1094POPC   C4A17454  38.929  43.050   7.793
 1094POPC   C1B17455  39.537  42.994   8.726
 1094POPC   C2B17456  39.577  43.053   8.305
 1094POPC   C3B17457  39.402  42.885   7.984
 1094POPC   C4B17458  39.297  42.757   7.635
 1095POPC   NC317459   6.421  36.670   9.318
 1095POPC   PO417460   6.884  36.270   9.437
 1095POPC   GL117461   6.568  36.201   9.106
 1095POPC   GL217462   6.307  35.917   9.127
 1095POPC   C1A17463   6.675  36.245   8.670
 1095POPC   D2A17464   6.696  36.315   8.258
 1095POPC   C3A17465   7.020  36.174   8.025
 1095POPC   C4A17466   6.809  36.126   7.646
 1095POPC   C1B17467   6.490  35.794   8.788
 1095POPC   C2B17468   6.434  35.879   8.409
 1095POPC   C3B17469   6.594  35.863   8.051
 1095POPC   C4B17470   6.438  35.797   7.726
 1096POPC   NC317471  33.355  43.147   9.570
 1096POPC   PO417472  33.876  42.859   9.546
 1096POPC   GL117473  33.766  43.210   9.227
 1096POPC   GL217474  33.417  43.271   9.068
 1096POPC   C1A17475  33.887  43.195   8.780
 1096POPC   D2A17476  34.181  43.228   8.417
 1096POPC   C3A17477  34.033  43.020   8.032
 1096POPC   C4A17478  34.009  43.127   7.595
 1096POPC   C1B17479  33.482  43.533   8.685
 1096POPC   C2B17480  33.567  43.447   8.235
 1096POPC   C3B17481  33.637  43.441   7.783
 1096POPC   C4B17482  33.766  43.509   7.367
 1097POPC   NC317483  35.382  25.759   9.417
 1097POPC   PO417484  35.772  26.339   9.525
 1097POPC   GL117485  35.612  26.157   9.166
 1097POPC   GL217486  35.257  26.192   9.208
 1097POPC   C1A17487  35.526  26.077   8.744
 1097POPC   D2A17488  35.591  25.818   8.403
 1097POPC   C3A17489  35.448  26.004   8.043
 1097POPC   C4A17490  35.547  25.778   7.698
 1097POPC   C1B17491  35.021  26.042   8.837
 1097POPC   C2B17492  35.033  25.930   8.396
 1097POPC   C3B17493  34.969  25.852   7.950
 1097POPC   C4B17494  35.123  26.126   7.627
 1098POPC   NC317495  42.199   0.242   9.319
 1098POPC   PO417496  41.518   0.441   9.507
 1098POPC   GL117497  41.521   0.603   9.117
 1098POPC   GL217498  41.884   0.661   9.079
 1098POPC   C1A17499  41.433   0.561   8.685
 1098POPC   D2A17500  41.240   0.295   8.405
 1098POPC   C3A17501  41.255   0.481   8.017
 1098POPC   C4A17502  41.223   0.377   7.598
 1098POPC   C1B17503  41.860   0.316   8.760
 1098POPC   C2B17504  41.768   0.355   8.300
 1098POPC   C3B17505  41.672   0.245   7.868
 1098POPC   C4B17506  41.720   0.568   7.531
 1099POPC   NC317507  27.443   0.185   9.446
 1099POPC   PO417508  27.973   0.586   9.656
 1099POPC   GL117509  27.781   0.553   9.251
 1099POPC   GL217510  27.914   0.252   9.120
 1099POPC   C1A17511  27.640   0.669   8.829
 1099POPC   D2A17512  27.691   0.500   8.396
 1099POPC   C3A17513  27.457   0.748   8.093
 1099POPC   C4A17514  27.520   0.930   7.686
 1099POPC   C1B17515  27.657   0.166   8.800
 1099POPC   C2B17516  27.297   0.157   8.510
 1099POPC   C3B17517  27.340   0.158   8.067
 1099POPC   C4B17518  27.370  44.967   7.641
 1100POPC   NC317519   7.225  37.239   9.484
 1100POPC   PO417520   7.756  37.727   9.553
 1100POPC   GL117521   7.519  37.585   9.201
 1100POPC   GL217522   7.411  37.901   9.102
 1100POPC   C1A17523   7.364  37.452   8.791
 1100POPC   D2A17524   7.182  37.572   8.411
 1100POPC   C3A17525   7.344  37.526   8.020
 1100POPC   C4A17526   7.268  37.399   7.635
 1100POPC   C1B17527   7.398  38.013   8.652
 1100POPC   C2B17528   7.442  38.184   8.269
 1100POPC   C3B17529   7.303  38.040   7.877
 1100POPC   C4B17530   7.160  37.874   7.497
 1101POPC   NC317531   8.371  21.372   9.729
 1101POPC   PO417532   7.842  21.651   9.450
 1101POPC   GL117533   8.151  21.630   9.145
 1101POPC   GL217534   8.338  21.309   9.210
 1101POPC   C1A17535   8.254  21.533   8.733
 1101POPC   D2A17536   8.032  21.381   8.384
 1101POPC   C3A17537   8.202  21.675   8.079
 1101POPC   C4A17538   8.461  21.586   7.720
 1101POPC   C1B17539   8.471  21.070   8.831
 1101POPC   C2B17540   8.516  21.198   8.405
 1101POPC   C3B17541   8.325  21.176   7.999
 1101POPC   C4B17542   8.629  21.117   7.688
 1102POPC   NC317543   7.485  14.850   9.526
 1102POPC   PO417544   7.461  15.451   9.532
 1102POPC   GL117545   7.303  15.225   9.146
 1102POPC   GL217546   7.094  14.885   9.195
 1102POPC   C1A17547   7.187  15.429   8.733
 1102POPC   D2A17548   7.481  15.520   8.355
 1102POPC   C3A17549   7.415  15.493   7.904
 1102POPC   C4A17550   7.615  15.365   7.546
 1102POPC   C1B17551   7.351  14.844   8.836
 1102POPC   C2B17552   7.323  15.039   8.444
 1102POPC   C3B17553   7.516  15.005   8.056
 1102POPC   C4B17554   7.291  15.013   7.710
 1103POPC   NC317555   4.006  27.005   9.563
 1103POPC   PO417556   4.604  26.766   9.664
 1103POPC   GL117557   4.376  26.748   9.269
 1103POPC   GL217558   4.263  26.426   9.128
 1103POPC   C1A17559   4.296  26.954   8.877
 1103POPC   D2A17560   4.504  26.907   8.474
 1103POPC   C3A17561   4.230  26.808   8.133
 1103POPC   C4A17562   4.418  26.924   7.732
 1103POPC   C1B17563   4.441  26.424   8.706
 1103POPC   C2B17564   4.576  26.236   8.320
 1103POPC   C3B17565   4.612  26.498   7.981
 1103POPC   C4B17566   4.271  26.446   7.706
 1104POPC   NC317567  34.717  32.319   9.696
 1104POPC   PO417568  34.299  31.903   9.410
 1104POPC   GL117569  34.519  32.259   9.221
 1104POPC   GL217570  34.870  32.205   9.198
 1104POPC   C1A17571  34.656  32.445   8.806
 1104POPC   D2A17572  34.858  32.324   8.428
 1104POPC   C3A17573  34.697  32.499   8.034
 1104POPC   C4A17574  34.318  32.461   7.777
 1104POPC   C1B17575  34.731  31.947   8.835
 1104POPC   C2B17576  34.810  31.796   8.439
 1104POPC   C3B17577  34.658  31.983   8.089
 1104POPC   C4B17578  34.436  31.965   7.746
 1105POPC   NC317579  21.290  27.467   9.770
 1105POPC   PO417580  21.764  27.040   9.516
 1105POPC   GL117581  21.506  27.373   9.322
 1105POPC   GL217582  21.306  27.154   9.201
 1105POPC   C1A17583  21.354  27.625   8.949
 1105POPC   D2A17584  21.532  27.647   8.523
 1105POPC   C3A17585  21.247  27.776   8.197
 1105POPC   C4A17586  21.271  27.758   7.750
 1105POPC   C1B17587  21.582  27.185   8.845
 1105POPC   C2B17588  21.477  27.112   8.442
 1105POPC   C3B17589  21.451  27.321   8.065
 1105POPC   C4B17590  21.659  27.050   7.800
 1106POPC   NC317591  35.657  29.464   9.438
 1106POPC   PO417592  35.388  30.114   9.533
 1106POPC   GL117593  35.481  30.009   9.134
 1106POPC   GL217594  35.393  29.658   9.040
 1106POPC   C1A17595  35.424  30.062   8.716
 1106POPC   D2A17596  35.406  29.853   8.357
 1106POPC   C3A17597  35.504  30.017   7.983
 1106POPC   C4A17598  35.335  30.201   7.666
 1106POPC   C1B17599  35.111  29.588   8.698
 1106POPC   C2B17600  35.001  29.565   8.277
 1106POPC   C3B17601  35.298  29.529   7.973
 1106POPC   C4B17602  35.391  29.666   7.578
 1107POPC   NC317603  17.596   8.380   9.835
 1107POPC   PO417604  17.421   8.181   9.242
 1107POPC   GL117605  17.592   8.009   8.971
 1107POPC   GL217606  17.389   7.708   9.020
 1107POPC   C1A17607  17.844   8.237   8.672
 1107POPC   D2A17608  17.849   8.137   8.273
 1107POPC   C3A17609  17.503   8.340   8.119
 1107POPC   C4A17610  17.388   8.376   7.717
 1107POPC   C1B17611  17.262   7.606   8.642
 1107POPC   C2B17612  17.384   7.898   8.334
 1107POPC   C3B17613  17.524   7.873   7.897
 1107POPC   C4B17614  17.259   7.918   7.512
 1108POPC   NC317615  15.168  41.002   9.809
 1108POPC   PO417616  15.469  40.494   9.411
 1108POPC   GL117617  15.116  40.567   9.072
 1108POPC   GL217618  15.147  40.923   8.858
 1108POPC   C1A17619  14.998  40.475   8.695
 1108POPC   D2A17620  15.154  40.740   8.363
 1108POPC   C3A17621  15.070  40.634   7.958
 1108POPC   C4A17622  15.345  40.351   7.771
 1108POPC   C1B17623  14.832  41.070   8.580
 1108POPC   C2B17624  14.853  41.093   8.132
 1108POPC   C3B17625  14.967  41.106   7.705
 1108POPC   C4B17626  15.297  40.858   7.522
 1109POPC   NC317627  36.572  23.631   9.648
 1109POPC   PO417628  36.784  24.221   9.571
 1109POPC   GL117629  36.726  23.875   9.247
 1109POPC   GL217630  37.064  23.878   9.221
 1109POPC   C1A17631  36.578  23.667   8.843
 1109POPC   D2A17632  36.825  23.450   8.509
 1109POPC   C3A17633  36.771  23.557   8.086
 1109POPC   C4A17634  36.834  23.483   7.666
 1109POPC   C1B17635  37.084  23.811   8.770
 1109POPC   C2B17636  37.030  23.933   8.314
 1109POPC   C3B17637  37.008  23.990   7.840
 1109POPC   C4B17638  37.140  24.080   7.386
 1110POPC   NC317639  13.722  38.916   9.512
 1110POPC   PO417640  13.290  39.348   9.488
 1110POPC   GL117641  13.585  39.243   9.162
 1110POPC   GL217642  13.902  39.385   9.252
 1110POPC   C1A17643  13.570  39.245   8.746
 1110POPC   D2A17644  13.311  39.273   8.441
 1110POPC   C3A17645  13.577  39.297   8.127
 1110POPC   C4A17646  13.526  39.286   7.717
 1110POPC   C1B17647  13.849  39.644   8.871
 1110POPC   C2B17648  13.902  39.610   8.431
 1110POPC   C3B17649  13.912  39.668   7.988
 1110POPC   C4B17650  13.936  39.631   7.547
 1111POPC   NC317651  28.890  11.331   9.490
 1111POPC   PO417652  29.493  10.998   9.539
 1111POPC   GL117653  29.248  11.135   9.159
 1111POPC   GL217654  29.070  10.884   9.000
 1111POPC   C1A17655  29.116  11.333   8.736
 1111POPC   D2A17656  29.193  11.099   8.345
 1111POPC   C3A17657  29.360  11.319   7.979
 1111POPC   C4A17658  29.227  11.402   7.545
 1111POPC   C1B17659  28.770  10.949   8.699
 1111POPC   C2B17660  28.698  11.224   8.358
 1111POPC   C3B17661  28.850  11.271   7.946
 1111POPC   C4B17662  28.797  11.133   7.513
 1112POPC   NC317663  18.571  39.229   9.800
 1112POPC   PO417664  17.971  39.189   9.477
 1112POPC   GL117665  18.199  38.987   9.147
 1112POPC   GL217666  18.518  38.975   8.984
 1112POPC   C1A17667  18.067  39.054   8.716
 1112POPC   D2A17668  18.048  38.839   8.318
 1112POPC   C3A17669  18.346  38.958   7.995
 1112POPC   C4A17670  18.227  39.048   7.537
 1112POPC   C1B17671  18.555  39.083   8.569
 1112POPC   C2B17672  18.275  39.346   8.329
 1112POPC   C3B17673  18.396  39.496   7.942
 1112POPC   C4B17674  18.666  39.253   7.707
 1113POPC   NC317675  41.046  23.073   9.466
 1113POPC   PO417676  40.526  22.676   9.350
 1113POPC   GL117677  40.830  22.815   9.064
 1113POPC   GL217678  40.680  23.117   9.071
 1113POPC   C1A17679  41.073  23.048   8.732
 1113POPC   D2A17680  41.330  23.119   8.333
 1113POPC   C3A17681  41.098  23.284   7.945
 1113POPC   C4A17682  41.009  23.109   7.515
 1113POPC   C1B17683  40.535  23.047   8.668
 1113POPC   C2B17684  40.773  23.129   8.300
 1113POPC   C3B17685  40.871  22.824   7.951
 1113POPC   C4B17686  40.552  22.512   7.832
 1114POPC   NC317687  41.072  40.325   9.350
 1114POPC   PO417688  40.615  39.939   9.667
 1114POPC   GL117689  40.714  39.925   9.230
 1114POPC   GL217690  40.938  39.629   9.180
 1114POPC   C1A17691  40.701  40.171   8.816
 1114POPC   D2A17692  40.943  40.207   8.428
 1114POPC   C3A17693  40.753  40.192   8.016
 1114POPC   C4A17694  40.927  40.296   7.602
 1114POPC   C1B17695  40.682  39.673   8.764
 1114POPC   C2B17696  40.575  39.752   8.286
 1114POPC   C3B17697  40.620  39.747   7.795
 1114POPC   C4B17698  40.729  39.585   7.343
 1115POPC   NC317699  36.608  30.403   9.639
 1115POPC   PO417700  37.113  30.513   9.476
 1115POPC   GL117701  36.954  30.634   9.072
 1115POPC   GL217702  36.610  30.638   9.133
 1115POPC   C1A17703  36.781  30.789   8.659
 1115POPC   D2A17704  36.541  30.764   8.278
 1115POPC   C3A17705  36.806  30.695   7.899
 1115POPC   C4A17706  37.268  30.774   7.731
 1115POPC   C1B17707  36.647  30.315   8.798
 1115POPC   C2B17708  36.715  30.292   8.342
 1115POPC   C3B17709  36.451  30.329   7.983
 1115POPC   C4B17710  36.514  30.376   7.562
 1116POPC   NC317711  44.713  24.239   9.485
 1116POPC   PO417712  44.180  24.808   9.505
 1116POPC   GL117713  44.468  24.631   9.203
 1116POPC   GL217714  44.537  24.314   9.018
 1116POPC   C1A17715  44.565  24.765   8.789
 1116POPC   D2A17716  44.712  24.831   8.402
 1116POPC   C3A17717  44.654  24.459   8.185
 1116POPC   C4A17718  44.530  24.372   7.776
 1116POPC   C1B17719  44.914  24.327   8.751
 1116POPC   C2B17720   0.014  24.118   8.339
 1116POPC   C3B17721   0.013  24.246   7.865
 1116POPC   C4B17722  44.846  24.203   7.413
 1117POPC   NC317723  34.043   2.371   9.570
 1117POPC   PO417724  33.585   2.871   9.480
 1117POPC   GL117725  33.799   2.829   9.081
 1117POPC   GL217726  34.040   2.548   9.092
 1117POPC   C1A17727  33.835   2.967   8.652
 1117POPC   D2A17728  33.579   2.933   8.305
 1117POPC   C3A17729  33.769   3.049   7.943
 1117POPC   C4A17730  33.700   3.002   7.510
 1117POPC   C1B17731  33.917   2.433   8.676
 1117POPC   C2B17732  33.888   2.544   8.231
 1117POPC   C3B17733  34.084   2.385   7.870
 1117POPC   C4B17734  34.507   2.423   7.809
 1118POPC   NC317735  37.190  19.127   9.514
 1118POPC   PO417736  36.646  18.775   9.536
 1118POPC   GL117737  36.861  18.951   9.130
 1118POPC   GL217738  36.772  19.299   9.035
 1118POPC   C1A17739  36.963  18.999   8.666
 1118POPC   D2A17740  36.835  19.158   8.292
 1118POPC   C3A17741  36.802  18.926   7.963
 1118POPC   C4A17742  36.969  18.890   7.631
 1118POPC   C1B17743  36.749  19.524   8.622
 1118POPC   C2B17744  36.545  19.572   8.214
 1118POPC   C3B17745  36.639  19.409   7.816
 1118POPC   C4B17746  36.620  19.179   7.419
 1119POPC   NC317747  26.778  25.932   9.418
 1119POPC   PO417748  26.194  25.909   9.350
 1119POPC   GL117749  26.458  25.997   9.034
 1119POPC   GL217750  26.512  26.331   9.138
 1119POPC   C1A17751  26.806  25.807   8.761
 1119POPC   D2A17752  26.745  25.631   8.332
 1119POPC   C3A17753  26.736  25.975   8.019
 1119POPC   C4A17754  27.135  25.990   7.788
 1119POPC   C1B17755  26.705  26.319   8.710
 1119POPC   C2B17756  27.005  26.280   8.360
 1119POPC   C3B17757  26.996  26.445   7.940
 1119POPC   C4B17758  26.647  26.393   7.645
 1120POPC   NC317759  27.843  20.168   9.338
 1120POPC   PO417760  27.167  20.087   9.434
 1120POPC   GL117761  27.274  19.842   9.080
 1120POPC   GL217762  27.613  19.724   9.126
 1120POPC   C1A17763  27.388  19.702   8.674
 1120POPC   D2A17764  27.403  19.934   8.304
 1120POPC   C3A17765  27.436  19.680   7.977
 1120POPC   C4A17766  27.704  19.437   7.746
 1120POPC   C1B17767  27.884  19.556   8.789
 1120POPC   C2B17768  27.884  19.560   8.325
 1120POPC   C3B17769  27.869  19.949   8.076
 1120POPC   C4B17770  27.797  20.095   7.669
 1121POPC   NC317771   2.366   7.519   9.432
 1121POPC   PO417772   1.795   7.641   9.665
 1121POPC   GL117773   1.760   7.781   9.220
 1121POPC   GL217774   2.089   7.794   9.104
 1121POPC   C1A17775   1.723   7.565   8.817
 1121POPC   D2A17776   1.964   7.401   8.480
 1121POPC   C3A17777   1.775   7.401   8.074
 1121POPC   C4A17778   1.883   7.320   7.682
 1121POPC   C1B17779   2.046   7.981   8.691
 1121POPC   C2B17780   1.857   7.856   8.274
 1121POPC   C3B17781   1.997   7.814   7.830
 1121POPC   C4B17782   2.394   7.854   7.583
 1122POPC   NC317783  30.098  22.472   9.591
 1122POPC   PO417784  29.661  22.954   9.304
 1122POPC   GL117785  29.764  22.781   9.011
 1122POPC   GL217786  30.092  22.719   9.132
 1122POPC   C1A17787  29.695  23.015   8.640
 1122POPC   D2A17788  29.828  23.245   8.290
 1122POPC   C3A17789  29.609  23.025   8.033
 1122POPC   C4A17790  29.695  22.908   7.666
 1122POPC   C1B17791  30.178  22.821   8.707
 1122POPC   C2B17792  30.013  22.767   8.317
 1122POPC   C3B17793  30.127  22.966   7.956
 1122POPC   C4B17794  30.164  22.779   7.587
 1123POPC   NC317795   4.227  38.534   9.407
 1123POPC   PO417796   3.698  38.605   9.753
 1123POPC   GL117797   3.600  38.626   9.254
 1123POPC   GL217798   3.897  38.605   9.037
 1123POPC   C1A17799   3.502  38.559   8.750
 1123POPC   D2A17800   3.768  38.692   8.357
 1123POPC   C3A17801   3.590  38.707   7.925
 1123POPC   C4A17802   3.462  38.501   7.517
 1123POPC   C1B17803   3.959  38.320   8.646
 1123POPC   C2B17804   3.922  38.251   8.162
 1123POPC   C3B17805   4.044  38.151   7.720
 1123POPC   C4B17806   4.052  37.778   7.416
 1124POPC   NC317807   6.625  33.140   9.491
 1124POPC   PO417808   6.881  32.530   9.554
 1124POPC   GL117809   6.894  32.848   9.178
 1124POPC   GL217810   6.510  33.009   9.029
 1124POPC   C1A17811   6.943  33.069   8.778
 1124POPC   D2A17812   6.635  33.024   8.436
 1124POPC   C3A17813   6.834  33.126   8.059
 1124POPC   C4A17814   6.913  32.993   7.649
 1124POPC   C1B17815   6.533  33.390   8.770
 1124POPC   C2B17816   6.548  33.544   8.332
 1124POPC   C3B17817   6.430  33.396   7.937
 1124POPC   C4B17818   6.550  33.306   7.487
 1125POPC   NC317819   1.612  39.968   9.747
 1125POPC   PO417820   2.246  40.143   9.449
 1125POPC   GL117821   2.006  40.013   9.047
 1125POPC   GL217822   1.666  40.203   8.933
 1125POPC   C1A17823   2.008  40.008   8.600
 1125POPC   D2A17824   1.795  40.047   8.234
 1125POPC   C3A17825   2.053  39.978   7.880
 1125POPC   C4A17826   1.894  40.109   7.506
 1125POPC   C1B17827   1.575  39.784   8.755
 1125POPC   C2B17828   1.519  39.612   8.332
 1125POPC   C3B17829   1.639  39.686   7.888
 1125POPC   C4B17830   1.815  39.612   7.436
 1126POPC   NC317831  40.419   4.783   9.204
 1126POPC   PO417832  40.934   4.443   9.572
 1126POPC   GL117833  40.779   4.346   9.120
 1126POPC   GL217834  40.443   4.211   9.094
 1126POPC   C1A17835  40.926   4.336   8.681
 1126POPC   D2A17836  40.687   4.559   8.330
 1126POPC   C3A17837  40.650   4.538   7.880
 1126POPC   C4A17838  40.959   4.425   7.543
 1126POPC   C1B17839  40.450   4.191   8.620
 1126POPC   C2B17840  40.718   4.056   8.247
 1126POPC   C3B17841  40.701   4.046   7.791
 1126POPC   C4B17842  40.563   4.192   7.350
 1127POPC   NC317843  28.610  41.039   9.435
 1127POPC   PO417844  28.074  41.610   9.478
 1127POPC   GL117845  28.370  41.443   9.210
 1127POPC   GL217846  28.173  41.209   9.046
 1127POPC   C1A17847  28.664  41.582   8.904
 1127POPC   D2A17848  28.629  41.729   8.495
 1127POPC   C3A17849  28.438  41.496   8.162
 1127POPC   C4A17850  28.415  41.583   7.712
 1127POPC   C1B17851  28.206  41.423   8.661
 1127POPC   C2B17852  27.948  41.486   8.304
 1127POPC   C3B17853  28.027  41.308   7.902
 1127POPC   C4B17854  28.196  41.174   7.492
 1128POPC   NC317855  29.151  10.687   9.462
 1128POPC   PO417856  29.535  10.239   9.345
 1128POPC   GL117857  29.473  10.564   9.085
 1128POPC   GL217858  29.138  10.374   9.045
 1128POPC   C1A17859  29.417  10.711   8.676
 1128POPC   D2A17860  29.319  10.597   8.258
 1128POPC   C3A17861  29.136  10.837   7.881
 1128POPC   C4A17862  29.397  10.620   7.574
 1128POPC   C1B17863  28.957  10.469   8.669
 1128POPC   C2B17864  28.820  10.635   8.281
 1128POPC   C3B17865  28.958  10.367   7.960
 1128POPC   C4B17866  28.777  10.212   7.643
 1129POPC   NC317867   9.754  19.409   9.487
 1129POPC   PO417868   9.681  18.661   9.356
 1129POPC   GL117869   9.865  19.046   9.131
 1129POPC   GL217870   9.647  19.334   9.023
 1129POPC   C1A17871  10.022  19.154   8.715
 1129POPC   D2A17872   9.913  18.879   8.362
 1129POPC   C3A17873   9.751  19.022   7.976
 1129POPC   C4A17874   9.797  18.873   7.585
 1129POPC   C1B17875   9.471  19.365   8.683
 1129POPC   C2B17876   9.697  19.374   8.340
 1129POPC   C3B17877   9.446  19.474   8.019
 1129POPC   C4B17878   9.463  19.324   7.624
 1130POPC   NC317879   4.912   6.063   9.936
 1130POPC   PO417880   5.088   6.580   9.571
 1130POPC   GL117881   5.045   6.722   9.187
 1130POPC   GL217882   5.191   6.432   9.072
 1130POPC   C1A17883   5.143   6.838   8.776
 1130POPC   D2A17884   5.392   6.692   8.389
 1130POPC   C3A17885   5.130   6.700   8.005
 1130POPC   C4A17886   4.890   7.066   7.856
 1130POPC   C1B17887   5.104   6.349   8.644
 1130POPC   C2B17888   4.980   6.226   8.262
 1130POPC   C3B17889   4.939   6.190   7.853
 1130POPC   C4B17890   5.141   6.357   7.516
 1131POPC   NC317891  35.807  34.214   9.301
 1131POPC   PO417892  36.043  33.708   9.671
 1131POPC   GL117893  36.151  33.808   9.253
 1131POPC   GL217894  35.868  33.809   9.028
 1131POPC   C1A17895  36.358  33.870   8.848
 1131POPC   D2A17896  36.114  33.848   8.449
 1131POPC   C3A17897  36.347  33.854   8.074
 1131POPC   C4A17898  36.290  33.907   7.642
 1131POPC   C1B17899  35.637  33.980   8.707
 1131POPC   C2B17900  35.719  34.152   8.296
 1131POPC   C3B17901  35.907  34.159   7.894
 1131POPC   C4B17902  35.843  34.027   7.445
 1132POPC   NC317903  38.620   4.294   9.715
 1132POPC   PO417904  38.044   4.462   9.515
 1132POPC   GL117905  38.317   4.276   9.258
 1132POPC   GL217906  38.400   3.956   9.349
 1132POPC   C1A17907  38.321   4.358   8.835
 1132POPC   D2A17908  38.000   4.389   8.506
 1132POPC   C3A17909  38.188   4.378   8.132
 1132POPC   C4A17910  38.274   4.365   7.710
 1132POPC   C1B17911  38.479   3.865   8.906
 1132POPC   C2B17912  38.474   4.044   8.478
 1132POPC   C3B17913  38.506   3.992   8.050
 1132POPC   C4B17914  38.428   3.822   7.676
 1133POPC   NC317915  24.452  19.793   9.771
 1133POPC   PO417916  25.108  19.928   9.648
 1133POPC   GL117917  24.753  20.019   9.290
 1133POPC   GL217918  24.510  19.740   9.221
 1133POPC   C1A17919  24.538  20.084   8.847
 1133POPC   D2A17920  24.597  19.881   8.421
 1133POPC   C3A17921  24.500  20.102   8.007
 1133POPC   C4A17922  24.282  20.207   7.572
 1133POPC   C1B17923  24.572  19.507   8.798
 1133POPC   C2B17924  24.381  19.375   8.383
 1133POPC   C3B17925  24.153  19.488   7.997
 1133POPC   C4B17926  24.424  19.694   7.726
 1134POPC   NC317927  16.939  29.576   9.442
 1134POPC   PO417928  16.976  30.228   9.432
 1134POPC   GL117929  16.677  29.914   9.155
 1134POPC   GL217930  16.758  29.557   8.982
 1134POPC   C1A17931  16.536  29.925   8.720
 1134POPC   D2A17932  16.551  29.871   8.263
 1134POPC   C3A17933  16.479  29.743   7.824
 1134POPC   C4A17934  16.607  29.969   7.464
 1134POPC   C1B17935  16.906  29.578   8.534
 1134POPC   C2B17936  16.899  29.535   8.044
 1134POPC   C3B17937  17.050  29.763   7.677
 1134POPC   C4B17938  17.379  29.931   7.400
 1135POPC   NC317939  32.439   3.141   9.483
 1135POPC   PO417940  32.809   2.497   9.505
 1135POPC   GL117941  32.454   2.661   9.243
 1135POPC   GL217942  32.085   2.542   9.328
 1135POPC   C1A17943  32.472   2.895   8.853
 1135POPC   D2A17944  32.587   2.839   8.443
 1135POPC   C3A17945  32.356   2.894   8.078
 1135POPC   C4A17946  32.487   2.747   7.680
 1135POPC   C1B17947  31.925   2.419   8.906
 1135POPC   C2B17948  31.972   2.463   8.450
 1135POPC   C3B17949  31.782   2.408   8.042
 1135POPC   C4B17950  31.879   2.294   7.628
 1136POPC   NC317951  17.756  41.843   9.746
 1136POPC   PO417952  17.569  41.239   9.497
 1136POPC   GL117953  17.600  41.523   9.150
 1136POPC   GL217954  17.242  41.659   9.123
 1136POPC   C1A17955  17.808  41.488   8.740
 1136POPC   D2A17956  17.654  41.638   8.369
 1136POPC   C3A17957  17.827  41.517   8.011
 1136POPC   C4A17958  17.690  41.476   7.620
 1136POPC   C1B17959  17.055  41.446   8.759
 1136POPC   C2B17960  17.174  41.464   8.343
 1136POPC   C3B17961  17.295  41.560   7.947
 1136POPC   C4B17962  17.122  41.445   7.558
 1137POPC   NC317963  13.580   9.215   9.614
 1137POPC   PO417964  13.498   8.550   9.504
 1137POPC   GL117965  13.476   8.877   9.202
 1137POPC   GL217966  13.741   9.136   9.113
 1137POPC   C1A17967  13.389   8.915   8.768
 1137POPC   D2A17968  13.644   8.973   8.399
 1137POPC   C3A17969  13.389   8.916   8.035
 1137POPC   C4A17970  13.352   8.636   7.722
 1137POPC   C1B17971  13.862   8.729   8.868
 1137POPC   C2B17972  14.035   8.603   8.450
 1137POPC   C3B17973  14.014   8.833   8.052
 1137POPC   C4B17974  13.793   9.213   7.908
 1138POPC   NC317975  41.340  17.388   9.533
 1138POPC   PO417976  42.021  17.249   9.549
 1138POPC   GL117977  41.674  17.331   9.173
 1138POPC   GL217978  41.392  17.600   9.050
 1138POPC   C1A17979  41.624  17.250   8.727
 1138POPC   D2A17980  41.649  17.449   8.344
 1138POPC   C3A17981  41.906  17.208   8.090
 1138POPC   C4A17982  41.873  16.942   7.712
 1138POPC   C1B17983  41.067  17.823   8.729
 1138POPC   C2B17984  41.002  17.502   8.402
 1138POPC   C3B17985  41.194  17.476   7.996
 1138POPC   C4B17986  41.537  17.331   7.753
 1139POPC   NC317987  10.687  24.894   9.498
 1139POPC   PO417988  11.165  25.404   9.554
 1139POPC   GL117989  11.222  25.306   9.119
 1139POPC   GL217990  11.421  24.999   9.034
 1139POPC   C1A17991  11.015  25.217   8.708
 1139POPC   D2A17992  10.792  25.160   8.300
 1139POPC   C3A17993  11.060  25.223   7.939
 1139POPC   C4A17994  11.142  25.155   7.507
 1139POPC   C1B17995  11.538  25.240   8.711
 1139POPC   C2B17996  11.375  25.369   8.342
 1139POPC   C3B17997  11.551  25.155   8.023
 1139POPC   C4B17998  11.804  25.083   7.700
 1140POPC   NC317999  42.278  21.876   9.536
 1140POPC   PO418000  42.831  22.178   9.644
 1140POPC   GL118001  42.606  22.164   9.228
 1140POPC   GL218002  42.289  22.333   9.170
 1140POPC   C1A18003  42.616  22.307   8.775
 1140POPC   D2A18004  42.748  22.122   8.404
 1140POPC   C3A18005  42.495  22.096   8.012
 1140POPC   C4A18006  42.328  22.408   7.738
 1140POPC   C1B18007  42.212  22.019   8.921
 1140POPC   C2B18008  42.212  22.069   8.539
 1140POPC   C3B18009  42.015  22.083   8.194
 1140POPC   C4B18010  42.020  21.993   7.792
 1141POPC   NC318011   2.481  20.991   9.180
 1141POPC   PO418012   1.930  21.115   9.618
 1141POPC   GL118013   1.863  21.280   9.199
 1141POPC   GL218014   1.817  21.626   9.205
 1141POPC   C1A18015   1.621  21.337   8.821
 1141POPC   D2A18016   1.830  21.291   8.427
 1141POPC   C3A18017   1.779  21.465   8.026
 1141POPC   C4A18018   2.045  21.306   7.748
 1141POPC   C1B18019   1.959  21.730   8.782
 1141POPC   C2B18020   2.092  21.768   8.350
 1141POPC   C3B18021   1.988  21.933   7.961
 1141POPC   C4B18022   2.027  21.795   7.547
 1142POPC   NC318023   2.632   4.071   9.373
 1142POPC   PO418024   2.834   3.436   9.445
 1142POPC   GL118025   2.796   3.680   9.081
 1142POPC   GL218026   3.083   3.874   9.072
 1142POPC   C1A18027   2.811   3.508   8.680
 1142POPC   D2A18028   2.913   3.256   8.336
 1142POPC   C3A18029   2.669   3.232   7.989
 1142POPC   C4A18030   2.686   3.139   7.546
 1142POPC   C1B18031   2.951   4.005   8.669
 1142POPC   C2B18032   2.738   3.862   8.294
 1142POPC   C3B18033   2.932   3.686   7.938
 1142POPC   C4B18034   2.945   3.572   7.513
 1143POPC   NC318035   4.898   4.439   9.654
 1143POPC   PO418036   5.286   3.865   9.603
 1143POPC   GL118037   5.195   4.223   9.298
 1143POPC   GL218038   4.843   4.174   9.204
 1143POPC   C1A18039   5.156   4.318   8.837
 1143POPC   D2A18040   5.241   4.522   8.456
 1143POPC   C3A18041   5.239   4.320   8.057
 1143POPC   C4A18042   5.229   4.251   7.635
 1143POPC   C1B18043   4.727   4.580   8.983
 1143POPC   C2B18044   4.805   4.769   8.569
 1143POPC   C3B18045   4.795   4.546   8.165
 1143POPC   C4B18046   4.653   4.504   7.736
 1144POPC   NC318047  41.581  25.810   9.444
 1144POPC   PO418048  41.468  25.081   9.420
 1144POPC   GL118049  41.587  25.424   9.126
 1144POPC   GL218050  41.961  25.458   9.195
 1144POPC   C1A18051  41.819  25.598   8.747
 1144POPC   D2A18052  41.926  25.386   8.375
 1144POPC   C3A18053  41.592  25.325   8.081
 1144POPC   C4A18054  41.416  25.602   7.759
 1144POPC   C1B18055  41.851  25.105   8.858
 1144POPC   C2B18056  41.868  24.868   8.496
 1144POPC   C3B18057  41.813  24.831   8.067
 1144POPC   C4B18058  41.946  25.121   7.778
 1145POPC   NC318059   7.266  24.865   9.485
 1145POPC   PO418060   7.566  24.281   9.470
 1145POPC   GL118061   7.500  24.486   9.086
 1145POPC   GL218062   7.163  24.612   9.059
 1145POPC   C1A18063   7.309  24.345   8.670
 1145POPC   D2A18064   7.461  24.145   8.330
 1145POPC   C3A18065   7.342  24.374   7.951
 1145POPC   C4A18066   7.656  24.481   7.635
 1145POPC   C1B18067   7.002  24.821   8.683
 1145POPC   C2B18068   7.065  24.718   8.290
 1145POPC   C3B18069   7.198  24.860   7.888
 1145POPC   C4B18070   7.200  24.611   7.490
 1146POPC   NC318071  21.623  19.689   9.504
 1146POPC   PO418072  21.099  19.995   9.460
 1146POPC   GL118073  21.304  19.829   9.106
 1146POPC   GL218074  21.642  19.922   9.056
 1146POPC   C1A18075  21.283  19.774   8.678
 1146POPC   D2A18076  21.035  19.893   8.350
 1146POPC   C3A18077  21.257  19.941   8.008
 1146POPC   C4A18078  21.486  19.682   7.763
 1146POPC   C1B18079  21.783  20.019   8.674
 1146POPC   C2B18080  21.733  19.922   8.239
 1146POPC   C3B18081  21.815  20.058   7.827
 1146POPC   C4B18082  21.745  19.902   7.383
 1147POPC   NC318083  30.411   8.285   9.535
 1147POPC   PO418084  30.929   7.999   9.413
 1147POPC   GL118085  30.746   8.285   9.119
 1147POPC   GL218086  30.485   8.062   9.097
 1147POPC   C1A18087  30.554   8.363   8.696
 1147POPC   D2A18088  30.569   8.513   8.286
 1147POPC   C3A18089  30.644   8.162   8.008
 1147POPC   C4A18090  30.742   8.308   7.633
 1147POPC   C1B18091  30.468   7.847   8.749
 1147POPC   C2B18092  30.342   7.597   8.421
 1147POPC   C3B18093  30.179   7.600   8.003
 1147POPC   C4B18094  30.334   7.867   7.692
 1148POPC   NC318095   9.913  20.747   9.451
 1148POPC   PO418096   9.263  20.819   9.429
 1148POPC   GL118097   9.548  20.513   9.171
 1148POPC   GL218098   9.891  20.374   9.077
 1148POPC   C1A18099   9.488  20.369   8.752
 1148POPC   D2A18100   9.328  20.393   8.343
 1148POPC   C3A18101   9.679  20.543   8.091
 1148POPC   C4A18102   9.644  20.756   7.705
 1148POPC   C1B18103  10.007  20.757   8.814
 1148POPC   C2B18104   9.972  20.866   8.387
 1148POPC   C3B18105  10.187  20.691   8.026
 1148POPC   C4B18106  10.219  20.624   7.586
 1149POPC   NC318107   7.117  40.110   9.829
 1149POPC   PO418108   7.697  40.378   9.518
 1149POPC   GL118109   7.711  40.130   9.105
 1149POPC   GL218110   7.382  40.079   9.143
 1149POPC   C1A18111   7.506  39.937   8.687
 1149POPC   D2A18112   7.413  39.656   8.348
 1149POPC   C3A18113   7.335  39.896   8.021
 1149POPC   C4A18114   7.468  40.094   7.680
 1149POPC   C1B18115   7.173  40.297   8.812
 1149POPC   C2B18116   7.144  40.213   8.396
 1149POPC   C3B18117   7.196  40.400   8.002
 1149POPC   C4B18118   7.054  40.325   7.546
 1150POPC   NC318119  14.528  37.797   9.523
 1150POPC   PO418120  13.855  37.601   9.594
 1150POPC   GL118121  14.156  37.590   9.223
 1150POPC   GL218122  14.374  37.858   9.062
 1150POPC   C1A18123  14.329  37.418   8.817
 1150POPC   D2A18124  14.362  37.635   8.418
 1150POPC   C3A18125  14.397  37.458   8.029
 1150POPC   C4A18126  14.027  37.454   7.787
 1150POPC   C1B18127  14.701  37.784   8.776
 1150POPC   C2B18128  14.748  37.970   8.374
 1150POPC   C3B18129  14.610  38.136   7.995
 1150POPC   C4B18130  14.655  37.991   7.552
 1151POPC   NC318131   1.222  27.542   9.619
 1151POPC   PO418132   0.624  27.938   9.603
 1151POPC   GL118133   0.988  27.860   9.261
 1151POPC   GL218134   1.032  27.487   9.165
 1151POPC   C1A18135   1.266  27.791   8.843
 1151POPC   D2A18136   1.441  27.592   8.437
 1151POPC   C3A18137   1.328  27.843   8.070
 1151POPC   C4A18138   1.144  27.709   7.662
 1151POPC   C1B18139   1.174  27.267   8.795
 1151POPC   C2B18140   1.017  27.142   8.410
 1151POPC   C3B18141   1.118  27.325   8.021
 1151POPC   C4B18142   1.557  27.419   7.890
 1152POPC   NC318143  29.367  12.203   9.486
 1152POPC   PO418144  28.889  11.791   9.624
 1152POPC   GL118145  28.999  11.992   9.183
 1152POPC   GL218146  29.073  12.370   9.103
 1152POPC   C1A18147  29.159  11.904   8.740
 1152POPC   D2A18148  29.290  11.689   8.346
 1152POPC   C3A18149  29.101  11.762   7.918
 1152POPC   C4A18150  28.748  11.636   7.603
 1152POPC   C1B18151  29.440  12.330   8.815
 1152POPC   C2B18152  29.453  12.230   8.368
 1152POPC   C3B18153  29.225  12.284   7.955
 1152POPC   C4B18154  29.425  12.340   7.548
 1153POPC   NC318155  16.960  43.414   9.367
 1153POPC   PO418156  17.147  42.722   9.392
 1153POPC   GL118157  16.924  43.012   9.082
 1153POPC   GL218158  16.609  43.087   9.128
 1153POPC   C1A18159  16.835  43.260   8.702
 1153POPC   D2A18160  16.566  43.292   8.332
 1153POPC   C3A18161  16.655  43.096   7.924
 1153POPC   C4A18162  17.018  42.913   7.702
 1153POPC   C1B18163  16.353  43.083   8.763
 1153POPC   C2B18164  16.304  42.845   8.367
 1153POPC   C3B18165  16.480  42.609   8.070
 1153POPC   C4B18166  16.526  42.648   7.663
 1154POPC   NC318167  12.917  24.063   9.378
 1154POPC   PO418168  12.842  23.468   9.530
 1154POPC   GL118169  12.811  23.624   9.134
 1154POPC   GL218170  12.542  23.819   9.023
 1154POPC   C1A18171  12.991  23.776   8.762
 1154POPC   D2A18172  12.818  23.643   8.392
 1154POPC   C3A18173  12.970  23.754   8.023
 1154POPC   C4A18174  13.222  23.471   7.822
 1154POPC   C1B18175  12.591  24.075   8.625
 1154POPC   C2B18176  12.413  23.885   8.223
 1154POPC   C3B18177  12.539  23.813   7.761
 1154POPC   C4B18178  12.660  23.929   7.305
 1155POPC   NC318179   4.417  27.905   9.417
 1155POPC   PO418180   3.889  27.451   9.597
 1155POPC   GL118181   4.155  27.488   9.214
 1155POPC   GL218182   4.068  27.817   9.042
 1155POPC   C1A18183   4.394  27.467   8.811
 1155POPC   D2A18184   4.203  27.339   8.431
 1155POPC   C3A18185   4.355  27.310   8.047
 1155POPC   C4A18186   4.700  27.354   7.816
 1155POPC   C1B18187   4.095  27.829   8.586
 1155POPC   C2B18188   4.272  27.793   8.170
 1155POPC   C3B18189   4.473  27.861   7.758
 1155POPC   C4B18190   4.250  27.839   7.346
 1156POPC   NC318191  10.168  17.977   9.583
 1156POPC   PO418192  10.558  18.564   9.457
 1156POPC   GL118193  10.621  18.300   9.133
 1156POPC   GL218194  10.359  18.099   9.121
 1156POPC   C1A18195  10.713  18.165   8.712
 1156POPC   D2A18196  10.738  18.348   8.315
 1156POPC   C3A18197  10.894  18.248   7.924
 1156POPC   C4A18198  10.740  18.485   7.556
 1156POPC   C1B18199  10.240  17.951   8.735
 1156POPC   C2B18200  10.389  17.933   8.326
 1156POPC   C3B18201  10.399  18.080   7.907
 1156POPC   C4B18202  10.286  18.165   7.466
 1157POPC   NC318203  26.356  17.259   9.711
 1157POPC   PO418204  25.822  17.586   9.306
 1157POPC   GL118205  25.846  17.465   8.935
 1157POPC   GL218206  25.741  17.141   9.036
 1157POPC   C1A18207  25.763  17.401   8.523
 1157POPC   D2A18208  26.005  17.631   8.229
 1157POPC   C3A18209  26.105  17.432   7.855
 1157POPC   C4A18210  25.903  17.306   7.475
 1157POPC   C1B18211  26.039  17.041   8.754
 1157POPC   C2B18212  26.211  17.170   8.381
 1157POPC   C3B18213  26.352  17.009   7.998
 1157POPC   C4B18214  26.378  17.031   7.507
 1158POPC   NC318215  29.113   0.135   9.589
 1158POPC   PO418216  29.439  44.548   9.594
 1158POPC   GL118217  29.172  44.623   9.200
 1158POPC   GL218218  29.038  44.933   9.139
 1158POPC   C1A18219  29.149  44.630   8.753
 1158POPC   D2A18220  28.974  44.462   8.413
 1158POPC   C3A18221  29.167  44.597   8.023
 1158POPC   C4A18222  29.116  44.307   7.724
 1158POPC   C1B18223  28.857   0.090   8.767
 1158POPC   C2B18224  28.959  44.961   8.334
 1158POPC   C3B18225  28.830  44.963   7.877
 1158POPC   C4B18226  28.827   0.119   7.428
 1159POPC   NC318227  28.717  15.307   9.858
 1159POPC   PO418228  28.937  15.783   9.451
 1159POPC   GL118229  28.964  15.621   9.041
 1159POPC   GL218230  28.735  15.380   9.131
 1159POPC   C1A18231  29.182  15.513   8.642
 1159POPC   D2A18232  29.279  15.430   8.170
 1159POPC   C3A18233  29.336  15.781   7.937
 1159POPC   C4A18234  29.054  16.062   7.756
 1159POPC   C1B18235  28.642  15.435   8.673
 1159POPC   C2B18236  28.803  15.616   8.275
 1159POPC   C3B18237  28.812  15.586   7.826
 1159POPC   C4B18238  28.725  15.440   7.380
 1160POPC   NC318239   8.059  44.367   9.446
 1160POPC   PO418240   7.936  43.712   9.574
 1160POPC   GL118241   8.192  43.806   9.180
 1160POPC   GL218242   8.239  44.126   9.055
 1160POPC   C1A18243   8.210  43.752   8.706
 1160POPC   D2A18244   8.130  43.525   8.328
 1160POPC   C3A18245   8.073  43.796   7.977
 1160POPC   C4A18246   8.373  43.920   7.682
 1160POPC   C1B18247   8.413  44.253   8.714
 1160POPC   C2B18248   8.227  44.251   8.309
 1160POPC   C3B18249   8.439  44.369   7.922
 1160POPC   C4B18250   8.390  44.387   7.459
 1161POPC   NC318251   7.510   4.465   9.358
 1161POPC   PO418252   7.113   4.028   9.800
 1161POPC   GL118253   7.108   4.139   9.311
 1161POPC   GL218254   7.086   4.530   9.120
 1161POPC   C1A18255   7.105   4.064   8.856
 1161POPC   D2A18256   7.086   4.185   8.390
 1161POPC   C3A18257   7.491   4.113   8.174
 1161POPC   C4A18258   7.509   3.975   7.742
 1161POPC   C1B18259   7.353   4.497   8.722
 1161POPC   C2B18260   7.336   4.637   8.278
 1161POPC   C3B18261   7.252   4.457   7.888
 1161POPC   C4B18262   7.620   4.504   7.646
 1162POPC   NC318263  23.243  32.480   9.564
 1162POPC   PO418264  23.272  31.839   9.549
 1162POPC   GL118265  22.951  31.872   9.197
 1162POPC   GL218266  22.954  32.221   9.178
 1162POPC   C1A18267  22.855  31.903   8.741
 1162POPC   D2A18268  22.675  32.096   8.337
 1162POPC   C3A18269  22.944  31.993   7.954
 1162POPC   C4A18270  22.887  31.820   7.530
 1162POPC   C1B18271  22.805  32.416   8.791
 1162POPC   C2B18272  22.937  32.538   8.385
 1162POPC   C3B18273  22.774  32.483   7.986
 1162POPC   C4B18274  22.698  32.763   7.678
 1163POPC   NC318275  44.652   3.133   9.639
 1163POPC   PO418276  44.920   2.501   9.530
 1163POPC   GL118277  44.725   2.648   9.144
 1163POPC   GL218278  44.570   2.967   9.152
 1163POPC   C1A18279  44.879   2.859   8.759
 1163POPC   D2A18280   0.018   2.728   8.374
 1163POPC   C3A18281  44.648   2.589   8.173
 1163POPC   C4A18282  44.628   2.569   7.739
 1163POPC   C1B18283  44.488   3.182   8.739
 1163POPC   C2B18284  44.818   3.229   8.400
 1163POPC   C3B18285  44.792   3.038   7.991
 1163POPC   C4B18286  44.606   3.087   7.612
 1164POPC   NC318287  38.943   2.843   9.585
 1164POPC   PO418288  38.282   2.835   9.468
 1164POPC   GL118289  38.626   2.749   9.196
 1164POPC   GL218290  38.597   2.450   9.048
 1164POPC   C1A18291  38.799   2.901   8.794
 1164POPC   D2A18292  38.668   2.779   8.395
 1164POPC   C3A18293  38.446   3.047   8.109
 1164POPC   C4A18294  38.664   3.067   7.719
 1164POPC   C1B18295  38.307   2.711   8.792
 1164POPC   C2B18296  38.157   2.677   8.411
 1164POPC   C3B18297  38.310   2.531   8.060
 1164POPC   C4B18298  38.269   2.750   7.702
 1165POPC   NC318299  32.093  21.910   9.339
 1165POPC   PO418300  32.492  22.414   9.561
 1165POPC   GL118301  32.512  22.206   9.156
 1165POPC   GL218302  32.183  22.375   9.134
 1165POPC   C1A18303  32.389  21.979   8.729
 1165POPC   D2A18304  32.393  21.790   8.312
 1165POPC   C3A18305  32.236  21.999   7.942
 1165POPC   C4A18306  31.964  22.107   7.594
 1165POPC   C1B18307  32.381  22.483   8.747
 1165POPC   C2B18308  32.282  22.332   8.350
 1165POPC   C3B18309  32.489  22.438   7.966
 1165POPC   C4B18310  32.466  22.240   7.539
 1166POPC   NC318311   9.098  35.776   9.766
 1166POPC   PO418312   8.564  36.212   9.665
 1166POPC   GL118313   8.731  36.139   9.261
 1166POPC   GL218314   8.661  36.444   9.129
 1166POPC   C1A18315   8.906  35.947   8.858
 1166POPC   D2A18316   9.202  36.049   8.468
 1166POPC   C3A18317   9.128  35.965   8.004
 1166POPC   C4A18318   9.359  35.838   7.580
 1166POPC   C1B18319   8.963  36.451   8.768
 1166POPC   C2B18320   8.931  36.466   8.312
 1166POPC   C3B18321   9.059  36.471   7.894
 1166POPC   C4B18322   8.976  36.168   7.556
 1167POPC   NC318323   7.562  11.206   9.558
 1167POPC   PO418324   7.032  10.890   9.415
 1167POPC   GL118325   7.344  11.158   9.116
 1167POPC   GL218326   7.461  11.513   9.156
 1167POPC   C1A18327   7.541  11.203   8.725
 1167POPC   D2A18328   7.526  10.970   8.337
 1167POPC   C3A18329   7.510  11.254   7.979
 1167POPC   C4A18330   7.156  11.212   7.686
 1167POPC   C1B18331   7.210  11.589   8.790
 1167POPC   C2B18332   7.190  11.442   8.363
 1167POPC   C3B18333   7.166  11.643   7.958
 1167POPC   C4B18334   7.453  11.590   7.572
 1168POPC   NC318335   5.360  31.320   9.507
 1168POPC   PO418336   4.716  31.542   9.634
 1168POPC   GL118337   4.929  31.517   9.226
 1168POPC   GL218338   5.199  31.728   9.192
 1168POPC   C1A18339   4.925  31.491   8.770
 1168POPC   D2A18340   4.772  31.743   8.421
 1168POPC   C3A18341   4.792  31.592   8.001
 1168POPC   C4A18342   5.008  31.482   7.650
 1168POPC   C1B18343   5.422  31.744   8.795
 1168POPC   C2B18344   5.284  31.658   8.384
 1168POPC   C3B18345   5.375  31.473   8.008
 1168POPC   C4B18346   5.483  31.330   7.611
 1169POPC   NC318347  39.950  40.864   9.633
 1169POPC   PO418348  39.790  40.379   9.313
 1169POPC   GL118349  39.997  40.719   9.108
 1169POPC   GL218350  40.290  40.903   9.247
 1169POPC   C1A18351  39.986  40.801   8.680
 1169POPC   D2A18352  40.004  40.640   8.277
 1169POPC   C3A18353  39.756  40.926   8.039
 1169POPC   C4A18354  39.857  41.065   7.672
 1169POPC   C1B18355  40.297  41.140   8.879
 1169POPC   C2B18356  40.428  40.995   8.456
 1169POPC   C3B18357  40.239  41.070   8.058
 1169POPC   C4B18358  40.362  41.012   7.660
 1170POPC   NC318359  34.525  19.876   9.625
 1170POPC   PO418360  35.025  19.395   9.599
 1170POPC   GL118361  34.958  19.731   9.258
 1170POPC   GL218362  34.678  19.981   9.140
 1170POPC   C1A18363  34.973  19.659   8.811
 1170POPC   D2A18364  34.727  19.516   8.449
 1170POPC   C3A18365  34.750  19.723   8.044
 1170POPC   C4A18366  34.464  19.932   7.791
 1170POPC   C1B18367  34.768  20.118   8.725
 1170POPC   C2B18368  34.618  20.137   8.328
 1170POPC   C3B18369  34.840  20.252   7.975
 1170POPC   C4B18370  34.690  20.328   7.571
 1171POPC   NC318371  12.957  16.093   9.537
 1171POPC   PO418372  12.780  15.476   9.661
 1171POPC   GL118373  12.672  15.729   9.264
 1171POPC   GL218374  12.861  15.998   9.058
 1171POPC   C1A18375  12.469  15.771   8.843
 1171POPC   D2A18376  12.577  16.019   8.448
 1171POPC   C3A18377  12.539  15.879   8.003
 1171POPC   C4A18378  12.639  16.070   7.587
 1171POPC   C1B18379  12.942  16.299   8.716
 1171POPC   C2B18380  12.833  16.469   8.338
 1171POPC   C3B18381  12.907  16.217   7.994
 1171POPC   C4B18382  13.145  15.998   7.654
 1172POPC   NC318383  38.921  22.232   9.395
 1172POPC   PO418384  39.527  21.921   9.496
 1172POPC   GL118385  39.558  22.133   9.080
 1172POPC   GL218386  39.252  21.979   8.993
 1172POPC   C1A18387  39.372  22.384   8.714
 1172POPC   D2A18388  39.289  22.524   8.293
 1172POPC   C3A18389  39.315  22.300   7.915
 1172POPC   C4A18390  39.231  22.511   7.513
 1172POPC   C1B18391  39.086  21.960   8.557
 1172POPC   C2B18392  39.177  21.756   8.143
 1172POPC   C3B18393  39.003  21.673   7.723
 1172POPC   C4B18394  38.983  21.615   7.264
 1173POPC   NC318395  25.075  43.650   9.237
 1173POPC   PO418396  25.435  44.113   9.579
 1173POPC   GL118397  25.276  44.111   9.166
 1173POPC   GL218398  25.566  43.882   9.114
 1173POPC   C1A18399  25.268  44.018   8.700
 1173POPC   D2A18400  25.441  44.012   8.261
 1173POPC   C3A18401  25.139  43.862   7.949
 1173POPC   C4A18402  24.897  44.041   7.597
 1173POPC   C1B18403  25.729  43.796   8.695
 1173POPC   C2B18404  25.865  43.687   8.272
 1173POPC   C3B18405  25.719  43.811   7.845
 1173POPC   C4B18406  25.457  44.169   7.687
 1174POPC   NC318407  12.245  31.543   9.502
 1174POPC   PO418408  11.703  31.243   9.386
 1174POPC   GL118409  11.932  31.476   9.060
 1174POPC   GL218410  12.056  31.815   9.095
 1174POPC   C1A18411  12.101  31.320   8.670
 1174POPC   D2A18412  12.005  30.946   8.428
 1174POPC   C3A18413  11.972  31.053   8.005
 1174POPC   C4A18414  12.172  31.261   7.655
 1174POPC   C1B18415  12.265  31.801   8.684
 1174POPC   C2B18416  12.178  31.722   8.217
 1174POPC   C3B18417  12.233  31.782   7.737
 1174POPC   C4B18418  12.370  31.758   7.313
 1175POPC   NC318419  43.182  41.095   9.621
 1175POPC   PO418420  43.088  40.432   9.584
 1175POPC   GL118421  43.312  40.689   9.268
 1175POPC   GL218422  43.030  40.882   9.146
 1175POPC   C1A18423  43.447  40.902   8.841
 1175POPC   D2A18424  43.309  41.035   8.409
 1175POPC   C3A18425  43.241  40.805   8.004
 1175POPC   C4A18426  42.887  40.826   7.684
 1175POPC   C1B18427  42.896  40.994   8.732
 1175POPC   C2B18428  42.792  40.930   8.313
 1175POPC   C3B18429  42.759  40.574   8.095
 1175POPC   C4B18430  42.546  40.434   7.768
 1176POPC   NC318431   1.682  42.246   9.579
 1176POPC   PO418432   2.162  42.595   9.478
 1176POPC   GL118433   2.075  42.410   9.076
 1176POPC   GL218434   2.297  42.148   9.043
 1176POPC   C1A18435   2.081  42.278   8.607
 1176POPC   D2A18436   1.764  42.300   8.292
 1176POPC   C3A18437   1.822  42.356   7.841
 1176POPC   C4A18438   1.891  42.642   7.485
 1176POPC   C1B18439   2.507  42.503   8.800
 1176POPC   C2B18440   2.433  42.575   8.344
 1176POPC   C3B18441   2.226  42.662   7.934
 1176POPC   C4B18442   2.377  42.732   7.473
 1177POPC   NC318443  44.638  23.232   9.330
 1177POPC   PO418444  44.906  23.795   9.591
 1177POPC   GL118445  44.707  23.842   9.149
 1177POPC   GL218446  44.455  23.620   9.085
 1177POPC   C1A18447  44.614  23.916   8.664
 1177POPC   D2A18448  44.774  23.667   8.266
 1177POPC   C3A18449  44.634  23.889   7.897
 1177POPC   C4A18450  44.164  24.002   7.786
 1177POPC   C1B18451  44.590  23.416   8.698
 1177POPC   C2B18452  44.294  23.561   8.369
 1177POPC   C3B18453  44.316  23.492   7.914
 1177POPC   C4B18454  44.728  23.390   7.737
 1178POPC   NC318455  31.467  11.778   9.457
 1178POPC   PO418456  31.942  12.275   9.521
 1178POPC   GL118457  31.687  12.127   9.169
 1178POPC   GL218458  31.287  12.189   9.200
 1178POPC   C1A18459  31.519  11.990   8.785
 1178POPC   D2A18460  31.470  12.289   8.454
 1178POPC   C3A18461  31.746  12.203   8.131
 1178POPC   C4A18462  31.622  12.255   7.741
 1178POPC   C1B18463  31.046  12.205   8.803
 1178POPC   C2B18464  31.045  12.011   8.422
 1178POPC   C3B18465  31.205  12.083   8.025
 1178POPC   C4B18466  31.083  12.413   7.806
 1179POPC   NC318467  44.941  15.238   9.546
 1179POPC   PO418468   0.638  15.250   9.565
 1179POPC   GL118469   0.608  15.254   9.164
 1179POPC   GL218470   0.252  15.305   9.128
 1179POPC   C1A18471   0.697  15.322   8.753
 1179POPC   D2A18472   0.791  15.144   8.362
 1179POPC   C3A18473   0.579  15.380   8.060
 1179POPC   C4A18474   0.511  15.271   7.648
 1179POPC   C1B18475   0.317  14.985   8.807
 1179POPC   C2B18476   0.263  15.158   8.399
 1179POPC   C3B18477   0.231  14.989   8.006
 1179POPC   C4B18478   0.051  15.010   7.604
 1180POPC   NC318479  39.917  34.770   9.462
 1180POPC   PO418480  40.416  34.332   9.550
 1180POPC   GL118481  40.257  34.468   9.153
 1180POPC   GL218482  40.296  34.833   9.116
 1180POPC   C1A18483  40.002  34.451   8.772
 1180POPC   D2A18484  39.785  34.601   8.404
 1180POPC   C3A18485  39.862  34.328   8.047
 1180POPC   C4A18486  39.850  34.367   7.605
 1180POPC   C1B18487  40.157  34.957   8.700
 1180POPC   C2B18488  40.193  34.873   8.246
 1180POPC   C3B18489  39.935  34.822   7.894
 1180POPC   C4B18490  40.061  34.820   7.465
 1181POPC   NC318491  31.880  34.877   9.503
 1181POPC   PO418492  31.604  34.209   9.557
 1181POPC   GL118493  31.679  34.386   9.154
 1181POPC   GL218494  31.714  34.726   9.050
 1181POPC   C1A18495  31.440  34.418   8.762
 1181POPC   D2A18496  31.526  34.256   8.360
 1181POPC   C3A18497  31.658  34.446   8.012
 1181POPC   C4A18498  31.476  34.738   7.750
 1181POPC   C1B18499  31.665  35.009   8.709
 1181POPC   C2B18500  31.697  34.920   8.273
 1181POPC   C3B18501  31.939  34.892   7.915
 1181POPC   C4B18502  31.839  35.044   7.503
 1182POPC   NC318503  42.130  10.847   9.634
 1182POPC   PO418504  42.206  10.177   9.736
 1182POPC   GL118505  42.486  10.287   9.226
 1182POPC   GL218506  42.368  10.644   9.047
 1182POPC   C1A18507  42.455  10.212   8.735
 1182POPC   D2A18508  42.670  10.154   8.299
 1182POPC   C3A18509  42.517  10.380   7.941
 1182POPC   C4A18510  42.401  10.386   7.486
 1182POPC   C1B18511  42.601  10.775   8.687
 1182POPC   C2B18512  42.611  10.800   8.229
 1182POPC   C3B18513  42.321  10.841   7.869
 1182POPC   C4B18514  42.293  10.939   7.411
 1183POPC   NC318515  32.914  22.335   9.693
 1183POPC   PO418516  33.381  21.959   9.509
 1183POPC   GL118517  33.132  22.190   9.186
 1183POPC   GL218518  33.334  22.397   8.999
 1183POPC   C1A18519  32.916  22.093   8.778
 1183POPC   D2A18520  32.785  22.271   8.377
 1183POPC   C3A18521  32.882  22.129   7.963
 1183POPC   C4A18522  33.155  21.820   7.788
 1183POPC   C1B18523  33.424  22.201   8.593
 1183POPC   C2B18524  33.372  22.135   8.146
 1183POPC   C3B18525  33.277  22.376   7.766
 1183POPC   C4B18526  33.540  22.587   7.412
 1184POPC   NC318527  43.773   8.807   9.837
 1184POPC   PO418528  43.208   8.978   9.562
 1184POPC   GL118529  43.013   8.964   9.162
 1184POPC   GL218530  43.308   9.092   9.052
 1184POPC   C1A18531  42.806   8.891   8.782
 1184POPC   D2A18532  42.971   8.847   8.392
 1184POPC   C3A18533  42.734   8.915   8.023
 1184POPC   C4A18534  42.946   9.045   7.712
 1184POPC   C1B18535  43.325   8.818   8.760
 1184POPC   C2B18536  43.477   8.918   8.444
 1184POPC   C3B18537  43.332   8.946   8.041
 1184POPC   C4B18538  43.447   8.672   7.723
 1185POPC   NC318539  27.227  22.691   9.608
 1185POPC   PO418540  26.540  22.685   9.708
 1185POPC   GL118541  26.672  22.786   9.268
 1185POPC   GL218542  26.976  23.016   9.252
 1185POPC   C1A18543  26.732  22.831   8.826
 1185POPC   D2A18544  27.053  22.905   8.506
 1185POPC   C3A18545  26.870  22.914   8.107
 1185POPC   C4A18546  26.783  22.771   7.700
 1185POPC   C1B18547  27.058  23.270   8.863
 1185POPC   C2B18548  27.219  23.519   8.491
 1185POPC   C3B18549  27.306  23.489   8.041
 1185POPC   C4B18550  27.015  23.259   7.755
 1186POPC   NC318551  27.961  26.566   9.404
 1186POPC   PO418552  27.437  27.059   9.480
 1186POPC   GL118553  27.549  26.715   9.128
 1186POPC   GL218554  27.857  26.539   8.932
 1186POPC   C1A18555  27.465  26.746   8.691
 1186POPC   D2A18556  27.339  26.668   8.280
 1186POPC   C3A18557  27.364  27.022   8.062
 1186POPC   C4A18558  27.442  26.920   7.665
 1186POPC   C1B18559  28.044  26.799   8.636
 1186POPC   C2B18560  27.810  26.915   8.314
 1186POPC   C3B18561  27.786  26.666   7.955
 1186POPC   C4B18562  27.884  26.743   7.514
 1187POPC   NC318563  28.116  43.647   9.421
 1187POPC   PO418564  28.582  44.107   9.400
 1187POPC   GL118565  28.375  44.239   8.991
 1187POPC   GL218566  28.159  43.987   8.990
 1187POPC   C1A18567  28.362  44.197   8.518
 1187POPC   D2A18568  28.352  43.841   8.206
 1187POPC   C3A18569  28.281  43.911   7.775
 1187POPC   C4A18570  28.483  44.220   7.599
 1187POPC   C1B18571  28.256  43.659   8.690
 1187POPC   C2B18572  28.077  43.432   8.332
 1187POPC   C3B18573  28.160  43.428   7.898
 1187POPC   C4B18574  28.321  43.480   7.504
 1188POPC   NC318575  28.835  31.262   9.413
 1188POPC   PO418576  28.205  31.398   9.503
 1188POPC   GL118577  28.202  31.446   9.109
 1188POPC   GL218578  28.539  31.495   9.087
 1188POPC   C1A18579  28.240  31.254   8.719
 1188POPC   D2A18580  28.291  31.477   8.324
 1188POPC   C3A18581  28.334  31.262   7.954
 1188POPC   C4A18582  28.187  31.501   7.578
 1188POPC   C1B18583  28.652  31.541   8.679
 1188POPC   C2B18584  28.787  31.498   8.242
 1188POPC   C3B18585  28.656  31.660   7.873
 1188POPC   C4B18586  28.714  31.330   7.614
 1189POPC   NC318587  16.526   0.978   9.425
 1189POPC   PO418588  16.809   1.541   9.291
 1189POPC   GL118589  16.984   1.222   9.015
 1189POPC   GL218590  16.843   0.934   9.030
 1189POPC   C1A18591  16.911   1.142   8.561
 1189POPC   D2A18592  16.700   1.452   8.312
 1189POPC   C3A18593  16.813   1.444   7.865
 1189POPC   C4A18594  17.069   1.041   7.823
 1189POPC   C1B18595  16.456   1.055   8.797
 1189POPC   C2B18596  16.436   0.924   8.408
 1189POPC   C3B18597  16.589   1.036   8.044
 1189POPC   C4B18598  16.476   1.093   7.641
 1190POPC   NC318599  11.348  19.909   9.970
 1190POPC   PO418600  11.085  19.866   9.344
 1190POPC   GL118601  11.198  20.037   9.002
 1190POPC   GL218602  11.501  19.893   9.029
 1190POPC   C1A18603  11.287  19.973   8.586
 1190POPC   D2A18604  11.171  19.763   8.238
 1190POPC   C3A18605  11.288  20.038   7.918
 1190POPC   C4A18606  11.232  20.285   7.570
 1190POPC   C1B18607  11.526  19.519   8.738
 1190POPC   C2B18608  11.586  19.372   8.317
 1190POPC   C3B18609  11.529  19.595   7.914
 1190POPC   C4B18610  11.321  19.439   7.540
 1191POPC   NC318611  18.699   4.065   9.478
 1191POPC   PO418612  19.338   4.359   9.473
 1191POPC   GL118613  19.076   4.257   9.137
 1191POPC   GL218614  18.959   3.933   9.051
 1191POPC   C1A18615  19.166   4.318   8.723
 1191POPC   D2A18616  19.479   4.422   8.479
 1191POPC   C3A18617  19.400   4.361   8.062
 1191POPC   C4A18618  19.069   4.378   7.796
 1191POPC   C1B18619  18.802   4.003   8.617
 1191POPC   C2B18620  18.954   4.101   8.207
 1191POPC   C3B18621  18.937   3.862   7.797
 1191POPC   C4B18622  18.993   3.935   7.376
 1192POPC   NC318623  41.763  22.955   9.451
 1192POPC   PO418624  41.232  22.576   9.504
 1192POPC   GL118625  41.360  22.779   9.128
 1192POPC   GL218626  41.477  23.123   9.027
 1192POPC   C1A18627  41.521  22.722   8.723
 1192POPC   D2A18628  41.627  22.499   8.387
 1192POPC   C3A18629  41.361  22.646   8.088
 1192POPC   C4A18630  41.433  22.954   7.787
 1192POPC   C1B18631  41.882  23.056   8.814
 1192POPC   C2B18632  41.944  22.918   8.396
 1192POPC   C3B18633  41.903  23.029   7.979
 1192POPC   C4B18634  41.827  23.205   7.568
 1193POPC   NC318635   3.755  13.125   9.510
 1193POPC   PO418636   3.366  12.564   9.419
 1193POPC   GL118637   3.674  12.729   9.127
 1193POPC   GL218638   3.488  13.019   9.103
 1193POPC   C1A18639   3.736  12.943   8.673
 1193POPC   D2A18640   3.876  13.060   8.228
 1193POPC   C3A18641   3.690  12.780   7.925
 1193POPC   C4A18642   3.307  12.534   7.900
 1193POPC   C1B18643   3.210  13.147   8.799
 1193POPC   C2B18644   3.144  13.136   8.381
 1193POPC   C3B18645   3.217  13.037   7.967
 1193POPC   C4B18646   3.183  13.281   7.633
 1194POPC   NC318647   0.551  26.785   9.575
 1194POPC   PO418648   0.161  27.321   9.448
 1194POPC   GL118649   0.281  26.961   9.143
 1194POPC   GL218650   0.230  26.564   9.204
 1194POPC   C1A18651   0.414  26.977   8.691
 1194POPC   D2A18652   0.519  27.220   8.297
 1194POPC   C3A18653   0.497  26.925   7.960
 1194POPC   C4A18654   0.524  26.447   7.908
 1194POPC   C1B18655   0.078  26.566   8.747
 1194POPC   C2B18656   0.190  26.638   8.285
 1194POPC   C3B18657   0.077  26.677   7.813
 1194POPC   C4B18658   0.115  26.484   7.381
 1195POPC   NC318659  20.457  43.789   9.682
 1195POPC   PO418660  20.908  44.248   9.465
 1195POPC   GL118661  20.809  44.107   9.086
 1195POPC   GL218662  20.517  43.928   9.186
 1195POPC   C1A18663  20.793  44.029   8.691
 1195POPC   D2A18664  20.830  43.822   8.303
 1195POPC   C3A18665  20.724  44.103   7.980
 1195POPC   C4A18666  20.379  43.925   7.744
 1195POPC   C1B18667  20.288  43.948   8.805
 1195POPC   C2B18668  20.164  43.953   8.377
 1195POPC   C3B18669  20.043  43.669   8.028
 1195POPC   C4B18670  20.213  43.432   7.657
 1196POPC   NC318671  42.560  42.728   9.371
 1196POPC   PO418672  42.254  43.389   9.296
 1196POPC   GL118673  42.533  43.205   9.043
 1196POPC   GL218674  42.478  42.846   8.889
 1196POPC   C1A18675  42.750  43.205   8.663
 1196POPC   D2A18676  42.716  42.820   8.437
 1196POPC   C3A18677  42.433  42.931   8.077
 1196POPC   C4A18678  42.462  43.331   7.845
 1196POPC   C1B18679  42.244  43.021   8.537
 1196POPC   C2B18680  42.082  43.397   8.302
 1196POPC   C3B18681  41.933  43.480   7.881
 1196POPC   C4B18682  42.091  43.317   7.502
 1197POPC   NC318683  22.738  29.064   9.617
 1197POPC   PO418684  23.343  29.257   9.535
 1197POPC   GL118685  23.239  29.115   9.149
 1197POPC   GL218686  22.910  28.998   9.140
 1197POPC   C1A18687  23.221  29.148   8.710
 1197POPC   D2A18688  23.006  29.039   8.371
 1197POPC   C3A18689  23.125  29.092   7.949
 1197POPC   C4A18690  22.886  28.830   7.734
 1197POPC   C1B18691  22.719  29.220   8.806
 1197POPC   C2B18692  22.636  29.419   8.417
 1197POPC   C3B18693  22.629  29.179   8.060
 1197POPC   C4B18694  22.522  29.214   7.677
 1198POPC   NC318695   6.226  42.321   9.670
 1198POPC   PO418696   6.861  42.106   9.522
 1198POPC   GL118697   6.572  42.305   9.250
 1198POPC   GL218698   6.384  42.600   9.273
 1198POPC   C1A18699   6.417  42.260   8.840
 1198POPC   D2A18700   6.417  42.004   8.484
 1198POPC   C3A18701   6.440  42.273   8.130
 1198POPC   C4A18702   6.556  42.269   7.711
 1198POPC   C1B18703   6.699  42.688   8.920
 1198POPC   C2B18704   6.702  42.524   8.494
 1198POPC   C3B18705   6.809  42.595   8.052
 1198POPC   C4B18706   6.840  42.692   7.631
 1199POPC   NC318707  14.126  22.854   9.597
 1199POPC   PO418708  13.552  22.901   9.704
 1199POPC   GL118709  13.710  22.800   9.275
 1199POPC   GL218710  13.421  22.720   9.108
 1199POPC   C1A18711  13.823  22.823   8.819
 1199POPC   D2A18712  14.013  22.819   8.397
 1199POPC   C3A18713  13.756  22.924   8.023
 1199POPC   C4A18714  13.568  23.151   7.681
 1199POPC   C1B18715  13.422  22.491   8.730
 1199POPC   C2B18716  13.450  22.836   8.429
 1199POPC   C3B18717  13.243  22.970   8.052
 1199POPC   C4B18718  13.325  22.640   7.758
 1200POPC   NC318719  28.677  19.799   9.510
 1200POPC   PO418720  28.002  19.710   9.440
 1200POPC   GL118721  28.239  19.823   9.105
 1200POPC   GL218722  28.410  20.154   9.110
 1200POPC   C1A18723  28.352  19.751   8.685
 1200POPC   D2A18724  28.424  19.969   8.334
 1200POPC   C3A18725  28.314  19.708   8.028
 1200POPC   C4A18726  28.128  19.686   7.655
 1200POPC   C1B18727  28.148  20.229   8.717
 1200POPC   C2B18728  28.150  20.398   8.272
 1200POPC   C3B18729  28.275  20.196   7.875
 1200POPC   C4B18730  28.260  20.114   7.429
 1201POPC   NC318731  40.431  20.447   9.619
 1201POPC   PO418732  39.888  20.903   9.624
 1201POPC   GL118733  40.043  20.589   9.282
 1201POPC   GL218734  39.743  20.469   9.130
 1201POPC   C1A18735  40.194  20.490   8.845
 1201POPC   D2A18736  40.365  20.711   8.443
 1201POPC   C3A18737  40.421  20.623   7.997
 1201POPC   C4A18738  40.272  20.866   7.627
 1201POPC   C1B18739  39.715  20.589   8.723
 1201POPC   C2B18740  39.898  20.442   8.365
 1201POPC   C3B18741  39.925  20.577   7.966
 1201POPC   C4B18742  39.728  20.459   7.633
 1202POPC   NC318743  18.771  15.494   9.285
 1202POPC   PO418744  19.241  15.033   9.434
 1202POPC   GL118745  19.136  14.851   9.056
 1202POPC   GL218746  18.931  15.110   8.980
 1202POPC   C1A18747  19.284  14.928   8.638
 1202POPC   D2A18748  19.396  15.107   8.251
 1202POPC   C3A18749  19.116  15.029   7.931
 1202POPC   C4A18750  19.178  14.860   7.569
 1202POPC   C1B18751  19.002  15.361   8.626
 1202POPC   C2B18752  19.022  15.466   8.192
 1202POPC   C3B18753  19.116  15.509   7.750
 1202POPC   C4B18754  18.940  15.675   7.365
 1203POPC   NC318755  24.004  21.940   9.451
 1203POPC   PO418756  23.834  22.600   9.505
 1203POPC   GL118757  23.782  22.287   9.160
 1203POPC   GL218758  24.044  22.464   9.067
 1203POPC   C1A18759  23.543  22.075   8.795
 1203POPC   D2A18760  23.477  22.238   8.357
 1203POPC   C3A18761  23.665  21.996   8.026
 1203POPC   C4A18762  23.653  21.942   7.609
 1203POPC   C1B18763  24.050  22.213   8.719
 1203POPC   C2B18764  24.042  22.201   8.302
 1203POPC   C3B18765  24.136  22.171   7.864
 1203POPC   C4B18766  23.939  22.337   7.483
 1204POPC   NC318767  44.764  42.651   9.592
 1204POPC   PO418768  44.464  43.211   9.592
 1204POPC   GL118769  44.816  43.254   9.274
 1204POPC   GL218770  44.884  42.930   9.185
 1204POPC   C1A18771  44.887  43.393   8.813
 1204POPC   D2A18772   0.083  43.364   8.371
 1204POPC   C3A18773  44.813  43.264   7.982
 1204POPC   C4A18774  44.627  43.318   7.550
 1204POPC   C1B18775  44.508  43.038   8.940
 1204POPC   C2B18776  44.575  43.044   8.541
 1204POPC   C3B18777  44.406  42.978   8.161
 1204POPC   C4B18778  44.123  42.909   7.814
 1205POPC   NC318779  34.362  37.038   9.417
 1205POPC   PO418780  33.764  37.138   9.801
 1205POPC   GL118781  33.827  37.013   9.295
 1205POPC   GL218782  33.557  36.790   9.128
 1205POPC   C1A18783  33.941  36.874   8.835
 1205POPC   D2A18784  33.804  36.989   8.408
 1205POPC   C3A18785  33.864  36.809   8.012
 1205POPC   C4A18786  33.833  37.043   7.638
 1205POPC   C1B18787  33.363  36.651   8.814
 1205POPC   C2B18788  33.618  36.507   8.534
 1205POPC   C3B18789  33.503  36.458   8.138
 1205POPC   C4B18790  33.382  36.748   7.827
 1206POPC   NC318791  15.329  43.970   9.307
 1206POPC   PO418792  14.763  44.218   9.314
 1206POPC   GL118793  14.929  43.944   9.003
 1206POPC   GL218794  15.027  43.588   9.117
 1206POPC   C1A18795  15.046  44.014   8.596
 1206POPC   D2A18796  14.959  44.047   8.158
 1206POPC   C3A18797  15.317  44.132   7.893
 1206POPC   C4A18798  15.501  44.240   7.478
 1206POPC   C1B18799  15.245  43.531   8.719
 1206POPC   C2B18800  15.077  43.578   8.328
 1206POPC   C3B18801  15.212  43.627   7.911
 1206POPC   C4B18802  15.135  43.815   7.504
 1207POPC   NC318803  17.186   4.745   9.627
 1207POPC   PO418804  17.506   4.216   9.439
 1207POPC   GL118805  17.543   4.446   9.122
 1207POPC   GL218806  17.218   4.598   9.114
 1207POPC   C1A18807  17.749   4.320   8.758
 1207POPC   D2A18808  17.712   4.472   8.344
 1207POPC   C3A18809  17.704   4.149   8.068
 1207POPC   C4A18810  17.786   4.307   7.701
 1207POPC   C1B18811  17.256   4.433   8.706
 1207POPC   C2B18812  17.275   4.178   8.367
 1207POPC   C3B18813  17.216   4.329   7.958
 1207POPC   C4B18814  17.168   4.129   7.581
 1208POPC   NC318815  30.643  40.631   9.383
 1208POPC   PO418816  30.830  41.138   9.710
 1208POPC   GL118817  30.763  41.084   9.213
 1208POPC   GL218818  30.417  41.036   9.062
 1208POPC   C1A18819  30.832  41.095   8.753
 1208POPC   D2A18820  30.476  41.121   8.449
 1208POPC   C3A18821  30.477  40.951   8.028
 1208POPC   C4A18822  30.792  40.869   7.717
 1208POPC   C1B18823  30.513  40.687   8.747
 1208POPC   C2B18824  30.706  40.564   8.346
 1208POPC   C3B18825  30.507  40.415   7.965
 1208POPC   C4B18826  30.557  40.481   7.524
 1209POPC   NC318827  42.774   8.790   9.571
 1209POPC   PO418828  42.405   9.414   9.643
 1209POPC   GL118829  42.562   9.268   9.246
 1209POPC   GL218830  42.465   8.940   9.149
 1209POPC   C1A18831  42.522   9.305   8.794
 1209POPC   D2A18832  42.470   9.092   8.413
 1209POPC   C3A18833  42.436   9.296   7.998
 1209POPC   C4A18834  42.399   9.051   7.627
 1209POPC   C1B18835  42.214   8.720   8.830
 1209POPC   C2B18836  42.088   8.697   8.405
 1209POPC   C3B18837  42.193   8.826   8.032
 1209POPC   C4B18838  42.038   8.694   7.634
 1210POPC   NC318839  35.836  25.177   9.392
 1210POPC   PO418840  36.496  25.080   9.583
 1210POPC   GL118841  36.385  25.328   9.202
 1210POPC   GL218842  36.198  25.089   9.058
 1210POPC   C1A18843  36.329  25.462   8.740
 1210POPC   D2A18844  36.233  25.259   8.327
 1210POPC   C3A18845  36.053  25.560   7.995
 1210POPC   C4A18846  35.988  25.496   7.534
 1210POPC   C1B18847  35.891  25.066   8.754
 1210POPC   C2B18848  35.762  24.786   8.460
 1210POPC   C3B18849  35.862  24.852   8.059
 1210POPC   C4B18850  36.151  25.088   7.825
 1211POPC   NC318851   7.823  30.250   9.098
 1211POPC   PO418852   7.669  30.786   9.502
 1211POPC   GL118853   7.525  30.644   9.051
 1211POPC   GL218854   7.336  30.335   9.029
 1211POPC   C1A18855   7.325  30.785   8.678
 1211POPC   D2A18856   7.493  30.949   8.331
 1211POPC   C3A18857   7.395  30.868   7.944
 1211POPC   C4A18858   7.599  30.681   7.600
 1211POPC   C1B18859   7.122  30.319   8.681
 1211POPC   C2B18860   7.041  30.540   8.293
 1211POPC   C3B18861   7.133  30.462   7.866
 1211POPC   C4B18862   7.224  30.358   7.421
 1212POPC   NC318863   3.549  25.861   9.337
 1212POPC   PO418864   3.146  26.377   9.621
 1212POPC   GL118865   3.410  26.358   9.246
 1212POPC   GL218866   3.198  26.117   9.047
 1212POPC   C1A18867   3.646  26.279   8.832
 1212POPC   D2A18868   3.536  26.196   8.394
 1212POPC   C3A18869   3.765  26.448   8.101
 1212POPC   C4A18870   3.813  26.219   7.767
 1212POPC   C1B18871   3.340  25.853   8.708
 1212POPC   C2B18872   3.748  25.737   8.545
 1212POPC   C3B18873   3.727  25.796   8.109
 1212POPC   C4B18874   3.806  25.681   7.710
 1213POPC   NC318875  23.081  36.621   9.943
 1213POPC   PO418876  22.767  37.046   9.602
 1213POPC   GL118877  22.715  37.212   9.144
 1213POPC   GL218878  22.637  36.876   9.070
 1213POPC   C1A18879  22.721  37.120   8.652
 1213POPC   D2A18880  22.528  37.034   8.217
 1213POPC   C3A18881  22.800  36.888   7.871
 1213POPC   C4A18882  23.257  36.936   7.696
 1213POPC   C1B18883  22.554  36.629   8.671
 1213POPC   C2B18884  22.520  36.355   8.291
 1213POPC   C3B18885  22.673  36.342   7.859
 1213POPC   C4B18886  22.989  36.513   7.553
 1214POPC   NC318887  36.020  21.901   9.345
 1214POPC   PO418888  36.424  22.387   9.441
 1214POPC   GL118889  36.311  22.249   9.046
 1214POPC   GL218890  36.458  21.935   9.059
 1214POPC   C1A18891  36.073  22.264   8.629
 1214POPC   D2A18892  35.869  22.488   8.251
 1214POPC   C3A18893  35.754  22.220   7.914
 1214POPC   C4A18894  35.954  21.806   7.868
 1214POPC   C1B18895  36.509  21.995   8.641
 1214POPC   C2B18896  36.295  21.960   8.243
 1214POPC   C3B18897  36.262  22.260   7.914
 1214POPC   C4B18898  36.428  22.509   7.556
 1215POPC   NC318899  42.911   4.626   9.825
 1215POPC   PO418900  43.303   4.980   9.440
 1215POPC   GL118901  43.227   5.128   9.057
 1215POPC   GL218902  42.946   5.375   9.112
 1215POPC   C1A18903  43.328   4.970   8.683
 1215POPC   D2A18904  43.131   4.843   8.338
 1215POPC   C3A18905  43.381   5.000   8.043
 1215POPC   C4A18906  43.509   4.973   7.656
 1215POPC   C1B18907  42.883   5.206   8.702
 1215POPC   C2B18908  42.697   5.171   8.313
 1215POPC   C3B18909  42.858   5.065   7.943
 1215POPC   C4B18910  42.893   4.618   7.841
 1216POPC   NC318911  43.754  25.858   9.609
 1216POPC   PO418912  43.683  26.477   9.528
 1216POPC   GL118913  43.707  26.359   9.121
 1216POPC   GL218914  43.788  25.999   9.096
 1216POPC   C1A18915  43.648  26.262   8.669
 1216POPC   D2A18916  43.767  26.430   8.295
 1216POPC   C3A18917  43.869  26.040   8.051
 1216POPC   C4A18918  43.670  25.927   7.676
 1216POPC   C1B18919  44.013  25.753   8.761
 1216POPC   C2B18920  44.268  25.787   8.378
 1216POPC   C3B18921  44.365  25.570   8.023
 1216POPC   C4B18922  44.063  25.616   7.727
 1217POPC   NC318923   7.587  43.396   9.482
 1217POPC   PO418924   7.064  42.996   9.439
 1217POPC   GL118925   7.244  43.203   9.116
 1217POPC   GL218926   7.172  43.539   9.102
 1217POPC   C1A18927   7.295  43.022   8.714
 1217POPC   D2A18928   7.116  42.808   8.379
 1217POPC   C3A18929   7.181  42.952   7.964
 1217POPC   C4A18930   7.559  42.901   7.737
 1217POPC   C1B18931   7.330  43.531   8.669
 1217POPC   C2B18932   7.659  43.330   8.403
 1217POPC   C3B18933   7.749  43.328   7.958
 1217POPC   C4B18934   7.333  43.390   7.755
 1218POPC   NC318935  23.408  22.403   9.478
 1218POPC   PO418936  22.751  22.158   9.433
 1218POPC   GL118937  22.943  22.380   9.088
 1218POPC   GL218938  22.624  22.307   8.920
 1218POPC   C1A18939  23.016  22.397   8.606
 1218POPC   D2A18940  22.806  22.617   8.237
 1218POPC   C3A18941  22.821  22.335   7.885
 1218POPC   C4A18942  23.233  22.167   7.786
 1218POPC   C1B18943  22.925  21.930   8.817
 1218POPC   C2B18944  23.106  21.679   8.482
 1218POPC   C3B18945  22.877  21.624   8.109
 1218POPC   C4B18946  22.859  21.833   7.722
 1219POPC   NC318947  20.513  18.772   9.637
 1219POPC   PO418948  20.316  19.374   9.437
 1219POPC   GL118949  20.517  19.135   9.155
 1219POPC   GL218950  20.432  18.758   9.132
 1219POPC   C1A18951  20.556  19.194   8.706
 1219POPC   D2A18952  20.366  19.372   8.351
 1219POPC   C3A18953  20.638  19.328   8.061
 1219POPC   C4A18954  20.547  19.080   7.734
 1219POPC   C1B18955  20.848  18.807   8.962
 1219POPC   C2B18956  20.894  18.840   8.528
 1219POPC   C3B18957  20.615  18.833   8.179
 1219POPC   C4B18958  20.821  18.670   7.817
 1220POPC   NC318959  21.302  23.916   9.513
 1220POPC   PO418960  21.442  23.201   9.467
 1220POPC   GL118961  21.504  23.544   9.184
 1220POPC   GL218962  21.181  23.688   9.047
 1220POPC   C1A18963  21.625  23.592   8.760
 1220POPC   D2A18964  21.702  23.375   8.364
 1220POPC   C3A18965  21.616  23.624   7.971
 1220POPC   C4A18966  21.234  23.440   7.840
 1220POPC   C1B18967  21.265  23.935   8.626
 1220POPC   C2B18968  21.217  23.947   8.145
 1220POPC   C3B18969  21.229  23.946   7.685
 1220POPC   C4B18970  21.114  23.961   7.238
 1221POPC   NC318971   5.094  41.183   9.390
 1221POPC   PO418972   5.258  41.853   9.387
 1221POPC   GL118973   5.259  41.583   9.074
 1221POPC   GL218974   4.953  41.607   9.040
 1221POPC   C1A18975   5.159  41.409   8.634
 1221POPC   D2A18976   5.331  41.452   8.232
 1221POPC   C3A18977   5.218  41.746   7.939
 1221POPC   C4A18978   4.802  41.709   7.809
 1221POPC   C1B18979   5.005  41.910   8.717
 1221POPC   C2B18980   4.854  41.790   8.326
 1221POPC   C3B18981   4.823  41.357   8.209
 1221POPC   C4B18982   4.978  41.218   7.848
 1222POPC   NC318983  31.058  25.181   9.945
 1222POPC   PO418984  30.536  25.214   9.586
 1222POPC   GL118985  30.647  25.169   9.160
 1222POPC   GL218986  30.390  25.434   9.092
 1222POPC   C1A18987  30.765  25.337   8.752
 1222POPC   D2A18988  30.943  25.232   8.354
 1222POPC   C3A18989  30.641  25.268   8.032
 1222POPC   C4A18990  30.744  25.296   7.609
 1222POPC   C1B18991  30.458  25.724   8.740
 1222POPC   C2B18992  30.674  25.707   8.358
 1222POPC   C3B18993  30.376  25.734   8.046
 1222POPC   C4B18994  30.244  25.451   7.727
 1223POPC   NC318995  17.971   9.903   9.490
 1223POPC   PO418996  17.390   9.665   9.381
 1223POPC   GL118997  17.693   9.702   9.077
 1223POPC   GL218998  17.771  10.048   9.047
 1223POPC   C1A18999  17.598   9.629   8.650
 1223POPC   D2A19000  17.308   9.548   8.321
 1223POPC   C3A19001  17.525   9.682   7.989
 1223POPC   C4A19002  17.784   9.958   7.737
 1223POPC   C1B19003  17.439  10.159   8.765
 1223POPC   C2B19004  17.558  10.384   8.407
 1223POPC   C3B19005  17.414  10.252   8.013
 1223POPC   C4B19006  17.290  10.031   7.672
 1224POPC   NC319007  33.124  41.723   9.949
 1224POPC   PO419008  32.759  41.207   9.692
 1224POPC   GL119009  32.910  41.432   9.277
 1224POPC   GL219010  33.239  41.595   9.252
 1224POPC   C1A19011  32.923  41.627   8.850
 1224POPC   D2A19012  32.837  41.640   8.416
 1224POPC   C3A19013  33.060  41.427   8.121
 1224POPC   C4A19014  32.936  41.595   7.731
 1224POPC   C1B19015  33.428  41.761   8.834
 1224POPC   C2B19016  33.452  41.672   8.364
 1224POPC   C3B19017  33.313  41.860   7.963
 1224POPC   C4B19018  33.353  41.896   7.466
 1225POPC   NC319019  22.022  32.995   9.658
 1225POPC   PO419020  22.520  33.457   9.580
 1225POPC   GL119021  22.332  33.171   9.206
 1225POPC   GL219022  22.116  32.861   9.156
 1225POPC   C1A19023  22.442  33.022   8.752
 1225POPC   D2A19024  22.248  33.116   8.326
 1225POPC   C3A19025  22.408  33.157   7.880
 1225POPC   C4A19026  22.274  32.963   7.493
 1225POPC   C1B19027  21.951  32.906   8.724
 1225POPC   C2B19028  21.923  32.707   8.323
 1225POPC   C3B19029  21.766  32.745   7.894
 1225POPC   C4B19030  21.636  32.455   7.529
 1226POPC   NC319031  29.967  20.816   9.538
 1226POPC   PO419032  29.656  20.191   9.487
 1226POPC   GL119033  29.742  20.519   9.184
 1226POPC   GL219034  30.115  20.577   9.098
 1226POPC   C1A19035  29.718  20.508   8.772
 1226POPC   D2A19036  29.999  20.647   8.476
 1226POPC   C3A19037  29.769  20.710   8.114
 1226POPC   C4A19038  29.537  20.662   7.747
 1226POPC   C1B19039  30.273  20.943   8.846
 1226POPC   C2B19040  30.407  20.959   8.422
 1226POPC   C3B19041  30.292  20.779   8.031
 1226POPC   C4B19042  30.172  20.795   7.601
 1227POPC   NC319043  20.775  27.901   9.536
 1227POPC   PO419044  20.552  28.507   9.614
 1227POPC   GL119045  20.523  28.512   9.173
 1227POPC   GL219046  20.387  28.183   9.122
 1227POPC   C1A19047  20.817  28.370   8.850
 1227POPC   D2A19048  20.934  28.439   8.419
 1227POPC   C3A19049  20.621  28.596   8.131
 1227POPC   C4A19050  20.575  28.339   7.786
 1227POPC   C1B19051  20.013  28.042   8.881
 1227POPC   C2B19052  19.982  28.190   8.470
 1227POPC   C3B19053  20.264  28.157   8.162
 1227POPC   C4B19054  20.220  27.950   7.804
 1228POPC   NC319055   9.387  22.050   9.522
 1228POPC   PO419056  10.029  22.023   9.486
 1228POPC   GL119057   9.762  22.127   9.145
 1228POPC   GL219058   9.564  21.837   9.056
 1228POPC   C1A19059   9.697  22.375   8.765
 1228POPC   D2A19060   9.757  22.617   8.407
 1228POPC   C3A19061   9.588  22.506   8.031
 1228POPC   C4A19062   9.413  22.458   7.618
 1228POPC   C1B19063   9.884  21.900   8.700
 1228POPC   C2B19064   9.966  22.133   8.288
 1228POPC   C3B19065   9.711  22.058   7.888
 1228POPC   C4B19066   9.642  22.032   7.424
 1229POPC   NC319067  18.510   5.197   9.753
 1229POPC   PO419068  17.917   5.134   9.449
 1229POPC   GL119069  18.197   5.159   9.126
 1229POPC   GL219070  18.480   4.978   9.260
 1229POPC   C1A19071  18.110   5.105   8.695
 1229POPC   D2A19072  18.209   5.246   8.300
 1229POPC   C3A19073  17.945   5.441   8.031
 1229POPC   C4A19074  18.006   5.266   7.649
 1229POPC   C1B19075  18.598   4.958   8.819
 1229POPC   C2B19076  18.655   4.957   8.385
 1229POPC   C3B19077  18.484   4.988   7.956
 1229POPC   C4B19078  18.435   5.049   7.526
 1230POPC   NC319079  28.209  44.435   9.430
 1230POPC   PO419080  28.667  44.962   9.514
 1230POPC   GL119081  28.616  44.653   9.195
 1230POPC   GL219082  28.297  44.805   9.098
 1230POPC   C1A19083  28.607  44.638   8.738
 1230POPC   D2A19084  28.437  44.981   8.470
 1230POPC   C3A19085  28.337  44.777   8.086
 1230POPC   C4A19086  28.654  44.449   8.004
 1230POPC   C1B19087  28.043  44.798   8.745
 1230POPC   C2B19088  27.956  44.499   8.419
 1230POPC   C3B19089  28.106  44.301   8.053
 1230POPC   C4B19090  28.019  44.416   7.636
 1231POPC   NC319091  32.063  23.794   9.291
 1231POPC   PO419092  32.538  24.191   9.459
 1231POPC   GL119093  32.476  23.937   9.030
 1231POPC   GL219094  32.534  23.586   9.115
 1231POPC   C1A19095  32.237  23.670   8.673
 1231POPC   D2A19096  31.948  23.366   8.408
 1231POPC   C3A19097  31.990  23.548   7.980
 1231POPC   C4A19098  32.402  23.733   7.851
 1231POPC   C1B19099  32.736  23.517   8.777
 1231POPC   C2B19100  32.688  23.715   8.393
 1231POPC   C3B19101  32.819  23.478   8.064
 1231POPC   C4B19102  32.837  23.506   7.659
 1232POPC   NC319103  40.700  19.792   9.465
 1232POPC   PO419104  41.233  20.153   9.175
 1232POPC   GL119105  40.837  20.012   9.031
 1232POPC   GL219106  40.509  20.099   9.108
 1232POPC   C1A19107  40.661  19.678   8.800
 1232POPC   D2A19108  40.706  19.836   8.397
 1232POPC   C3A19109  40.601  19.661   8.043
 1232POPC   C4A19110  40.608  19.657   7.639
 1232POPC   C1B19111  40.321  20.027   8.685
 1232POPC   C2B19112  40.274  20.106   8.239
 1232POPC   C3B19113  40.552  20.136   7.864
 1232POPC   C4B19114  40.572  20.114   7.431
 1233POPC   NC319115   1.306  39.190   9.657
 1233POPC   PO419116   0.748  39.636   9.600
 1233POPC   GL119117   0.978  39.496   9.234
 1233POPC   GL219118   1.045  39.150   9.219
 1233POPC   C1A19119   1.118  39.500   8.782
 1233POPC   D2A19120   1.021  39.711   8.376
 1233POPC   C3A19121   1.140  39.520   7.988
 1233POPC   C4A19122   0.782  39.317   7.812
 1233POPC   C1B19123   1.107  38.996   8.778
 1233POPC   C2B19124   1.172  39.158   8.346
 1233POPC   C3B19125   1.174  39.009   7.899
 1233POPC   C4B19126   0.951  38.903   7.497
 1234POPC   NC319127   1.080  15.416   9.589
 1234POPC   PO419128   1.406  14.812   9.492
 1234POPC   GL119129   1.093  15.030   9.196
 1234POPC   GL219130   1.126  15.385   9.089
 1234POPC   C1A19131   1.135  15.029   8.737
 1234POPC   D2A19132   1.361  14.846   8.392
 1234POPC   C3A19133   1.120  14.950   8.007
 1234POPC   C4A19134   0.707  14.857   7.887
 1234POPC   C1B19135   1.466  15.446   8.778
 1234POPC   C2B19136   1.410  15.340   8.354
 1234POPC   C3B19137   1.381  15.366   7.910
 1234POPC   C4B19138   0.988  15.397   7.757
 1235POPC   NC319139  44.222  33.704   9.335
 1235POPC   PO419140  44.862  33.645   9.552
 1235POPC   GL119141  44.686  33.512   9.149
 1235POPC   GL219142  44.646  33.859   9.113
 1235POPC   C1A19143  44.574  33.609   8.679
 1235POPC   D2A19144  44.719  33.908   8.352
 1235POPC   C3A19145  44.824  33.707   7.957
 1235POPC   C4A19146  44.973  33.718   7.526
 1235POPC   C1B19147  44.419  34.088   8.813
 1235POPC   C2B19148  44.302  34.182   8.404
 1235POPC   C3B19149  44.210  33.953   8.090
 1235POPC   C4B19150  44.393  33.823   7.710
 1236POPC   NC319151  35.690  28.453   9.529
 1236POPC   PO419152  35.982  27.919   9.538
 1236POPC   GL119153  35.916  28.006   9.118
 1236POPC   GL219154  36.001  28.383   9.113
 1236POPC   C1A19155  36.170  28.088   8.744
 1236POPC   D2A19156  36.267  28.376   8.410
 1236POPC   C3A19157  36.207  28.163   8.027
 1236POPC   C4A19158  35.927  27.950   7.767
 1236POPC   C1B19159  35.987  28.692   8.746
 1236POPC   C2B19160  36.106  28.862   8.323
 1236POPC   C3B19161  36.193  28.704   7.917
 1236POPC   C4B19162  36.100  28.450   7.573
 1237POPC   NC319163   1.986  13.940   9.188
 1237POPC   PO419164   1.917  14.443   9.533
 1237POPC   GL119165   2.042  14.495   9.121
 1237POPC   GL219166   2.306  14.291   8.989
 1237POPC   C1A19167   2.051  14.680   8.719
 1237POPC   D2A19168   1.811  14.604   8.321
 1237POPC   C3A19169   1.986  14.628   7.886
 1237POPC   C4A19170   1.784  14.465   7.504
 1237POPC   C1B19171   2.031  14.184   8.603
 1237POPC   C2B19172   1.960  14.150   8.157
 1237POPC   C3B19173   2.059  14.105   7.732
 1237POPC   C4B19174   1.981  13.999   7.286
 1238POPC   NC319175  41.789  34.130   9.502
 1238POPC   PO419176  41.421  33.527   9.437
 1238POPC   GL119177  41.622  33.596   9.073
 1238POPC   GL219178  41.558  33.965   9.016
 1238POPC   C1A19179  41.642  33.580   8.653
 1238POPC   D2A19180  41.637  33.974   8.461
 1238POPC   C3A19181  41.532  34.020   8.039
 1238POPC   C4A19182  41.602  33.722   7.731
 1238POPC   C1B19183  41.218  33.840   8.733
 1238POPC   C2B19184  41.148  33.893   8.352
 1238POPC   C3B19185  41.120  33.736   7.952
 1238POPC   C4B19186  41.122  33.852   7.536
 1239POPC   NC319187   7.713   7.121   9.602
 1239POPC   PO419188   7.274   7.638   9.525
 1239POPC   GL119189   7.458   7.441   9.160
 1239POPC   GL219190   7.768   7.585   9.124
 1239POPC   C1A19191   7.566   7.332   8.707
 1239POPC   D2A19192   7.466   7.078   8.327
 1239POPC   C3A19193   7.404   7.350   7.947
 1239POPC   C4A19194   7.105   7.404   7.549
 1239POPC   C1B19195   7.972   7.670   8.755
 1239POPC   C2B19196   7.809   7.655   8.368
 1239POPC   C3B19197   7.948   7.777   7.979
 1239POPC   C4B19198   7.753   7.574   7.661
 1240POPC   NC319199   5.692  11.287   9.560
 1240POPC   PO419200   6.340  11.141   9.638
 1240POPC   GL119201   6.111  11.382   9.235
 1240POPC   GL219202   5.726  11.524   9.125
 1240POPC   C1A19203   6.069  11.480   8.773
 1240POPC   D2A19204   5.706  11.503   8.487
 1240POPC   C3A19205   5.874  11.432   8.093
 1240POPC   C4A19206   5.787  11.367   7.686
 1240POPC   C1B19207   5.696  11.120   8.839
 1240POPC   C2B19208   5.862  10.993   8.398
 1240POPC   C3B19209   5.639  10.909   7.962
 1240POPC   C4B19210   5.599  10.928   7.480
 1241POPC   NC319211  37.329  13.069   9.805
 1241POPC   PO419212  37.889  12.916   9.563
 1241POPC   GL119213  37.723  12.921   9.153
 1241POPC   GL219214  37.368  12.989   9.140
 1241POPC   C1A19215  37.788  12.713   8.764
 1241POPC   D2A19216  38.077  12.745   8.448
 1241POPC   C3A19217  38.002  12.821   8.041
 1241POPC   C4A19218  37.915  12.558   7.677
 1241POPC   C1B19219  37.503  13.148   8.735
 1241POPC   C2B19220  37.576  12.966   8.341
 1241POPC   C3B19221  37.519  12.787   7.936
 1241POPC   C4B19222  37.625  12.960   7.536
 1242POPC   NC319223  25.783   5.605   9.315
 1242POPC   PO419224  26.239   6.013   9.572
 1242POPC   GL119225  26.151   5.911   9.159
 1242POPC   GL219226  26.132   5.576   8.971
 1242POPC   C1A19227  25.996   6.060   8.799
 1242POPC   D2A19228  26.082   6.137   8.410
 1242POPC   C3A19229  25.791   6.034   8.122
 1242POPC   C4A19230  26.013   5.915   7.769
 1242POPC   C1B19231  26.309   5.663   8.606
 1242POPC   C2B19232  26.202   5.677   8.197
 1242POPC   C3B19233  26.039   5.418   7.892
 1242POPC   C4B19234  26.209   5.168   7.528
 1243POPC   NC319235  23.443   0.905   9.520
 1243POPC   PO419236  23.732   0.235   9.458
 1243POPC   GL119237  23.969   0.272   9.056
 1243POPC   GL219238  23.903  44.976   8.939
 1243POPC   C1A19239  23.860   0.614   8.766
 1243POPC   D2A19240  23.612   0.578   8.388
 1243POPC   C3A19241  23.835   0.680   7.992
 1243POPC   C4A19242  23.610   0.725   7.606
 1243POPC   C1B19243  23.516   0.206   8.806
 1243POPC   C2B19244  23.377   0.057   8.431
 1243POPC   C3B19245  23.669   0.076   8.103
 1243POPC   C4B19246  23.427   0.382   7.944
 1244POPC   NC319247  10.066  26.311   9.852
 1244POPC   PO419248  10.408  26.880   9.562
 1244POPC   GL119249  10.358  26.809   9.147
 1244POPC   GL219250  10.537  26.491   9.141
 1244POPC   C1A19251  10.508  26.955   8.766
 1244POPC   D2A19252  10.487  26.755   8.375
 1244POPC   C3A19253  10.544  27.064   8.096
 1244POPC   C4A19254  10.410  26.989   7.728
 1244POPC   C1B19255  10.342  26.442   8.746
 1244POPC   C2B19256  10.060  26.448   8.378
 1244POPC   C3B19257  10.152  26.521   7.966
 1244POPC   C4B19258  10.356  26.477   7.597
 1245POPC   NC319259  29.659  13.064   9.431
 1245POPC   PO419260  30.266  12.718   9.554
 1245POPC   GL119261  30.115  12.601   9.164
 1245POPC   GL219262  29.757  12.551   9.218
 1245POPC   C1A19263  30.197  12.800   8.748
 1245POPC   D2A19264  29.961  13.097   8.495
 1245POPC   C3A19265  29.977  13.011   8.074
 1245POPC   C4A19266  30.205  12.843   7.741
 1245POPC   C1B19267  29.692  12.771   8.830
 1245POPC   C2B19268  29.547  12.753   8.415
 1245POPC   C3B19269  29.619  12.591   8.009
 1245POPC   C4B19270  29.708  12.814   7.684
 1246POPC   NC319271  36.576  10.351   9.466
 1246POPC   PO419272  36.173  10.780   9.344
 1246POPC   GL119273  36.041  10.610   8.982
 1246POPC   GL219274  36.293  10.356   9.010
 1246POPC   C1A19275  36.131  10.522   8.547
 1246POPC   D2A19276  36.165  10.352   8.133
 1246POPC   C3A19277  36.051  10.646   7.823
 1246POPC   C4A19278  35.696  10.861   7.633
 1246POPC   C1B19279  36.558  10.675   8.787
 1246POPC   C2B19280  36.674  10.820   8.349
 1246POPC   C3B19281  36.583  10.609   7.940
 1246POPC   C4B19282  36.396  10.287   7.641
 1247POPC   NC319283  21.206  29.596   9.455
 1247POPC   PO419284  21.449  28.931   9.474
 1247POPC   GL119285  21.573  28.812   9.085
 1247POPC   GL219286  21.311  29.016   8.970
 1247POPC   C1A19287  21.747  28.971   8.707
 1247POPC   D2A19288  21.430  29.186   8.446
 1247POPC   C3A19289  21.644  29.326   8.099
 1247POPC   C4A19290  21.807  29.101   7.737
 1247POPC   C1B19291  21.124  29.385   8.802
 1247POPC   C2B19292  20.903  29.395   8.424
 1247POPC   C3B19293  21.135  29.373   8.042
 1247POPC   C4B19294  21.333  28.978   7.842
 1248POPC   NC319295   2.052  19.357   9.324
 1248POPC   PO419296   2.392  18.839   9.403
 1248POPC   GL119297   2.137  18.960   9.031
 1248POPC   GL219298   2.291  19.196   8.862
 1248POPC   C1A19299   1.828  19.116   8.701
 1248POPC   D2A19300   2.055  19.226   8.318
 1248POPC   C3A19301   1.910  18.980   8.001
 1248POPC   C4A19302   1.838  19.050   7.574
 1248POPC   C1B19303   2.233  18.808   8.563
 1248POPC   C2B19304   2.372  18.779   8.139
 1248POPC   C3B19305   2.274  18.822   7.702
 1248POPC   C4B19306   2.330  19.074   7.296
 1249POPC   NC319307  19.284   9.270   9.573
 1249POPC   PO419308  18.706   9.178   9.789
 1249POPC   GL119309  18.858   9.193   9.304
 1249POPC   GL219310  19.021   8.868   9.290
 1249POPC   C1A19311  18.961   9.078   8.815
 1249POPC   D2A19312  18.936   8.716   8.442
 1249POPC   C3A19313  18.868   8.879   7.980
 1249POPC   C4A19314  19.023   9.241   7.752
 1249POPC   C1B19315  19.349   8.724   9.003
 1249POPC   C2B19316  19.407   8.893   8.588
 1249POPC   C3B19317  19.350   8.870   8.148
 1249POPC   C4B19318  19.282   8.699   7.737
 1250POPC   NC319319  19.530   7.024   9.619
 1250POPC   PO419320  19.345   6.332   9.504
 1250POPC   GL119321  19.674   6.513   9.192
 1250POPC   GL219322  19.819   6.845   9.233
 1250POPC   C1A19323  19.925   6.526   8.798
 1250POPC   D2A19324  19.717   6.469   8.393
 1250POPC   C3A19325  20.009   6.363   8.079
 1250POPC   C4A19326  19.924   6.458   7.670
 1250POPC   C1B19327  19.843   7.039   8.823
 1250POPC   C2B19328  19.958   6.919   8.407
 1250POPC   C3B19329  19.743   6.844   8.000
 1250POPC   C4B19330  19.603   6.851   7.565
 1251POPC   NC319331  21.996  21.227   9.373
 1251POPC   PO419332  22.599  21.509   9.437
 1251POPC   GL119333  22.357  21.464   9.100
 1251POPC   GL219334  22.410  21.128   9.100
 1251POPC   C1A19335  22.195  21.379   8.694
 1251POPC   D2A19336  22.389  21.502   8.306
 1251POPC   C3A19337  22.084  21.553   7.967
 1251POPC   C4A19338  22.114  21.577   7.522
 1251POPC   C1B19339  22.514  20.979   8.720
 1251POPC   C2B19340  22.286  20.931   8.391
 1251POPC   C3B19341  22.238  20.784   8.009
 1251POPC   C4B19342  22.199  21.112   7.726
 1252POPC   NC319343  10.539  33.668   9.609
 1252POPC   PO419344  10.898  34.248   9.436
 1252POPC   GL119345  10.516  33.998   9.187
 1252POPC   GL219346  10.462  33.614   9.111
 1252POPC   C1A19347  10.375  34.005   8.754
 1252POPC   D2A19348  10.582  34.101   8.358
 1252POPC   C3A19349  10.513  33.851   8.002
 1252POPC   C4A19350  10.190  33.848   7.728
 1252POPC   C1B19351  10.391  33.493   8.686
 1252POPC   C2B19352  10.707  33.593   8.397
 1252POPC   C3B19353  10.823  33.438   8.008
 1252POPC   C4B19354  10.453  33.404   7.754
 1253POPC   NC319355  23.644  31.565   9.512
 1253POPC   PO419356  24.344  31.562   9.542
 1253POPC   GL119357  24.034  31.365   9.133
 1253POPC   GL219358  23.649  31.276   9.062
 1253POPC   C1A19359  23.887  31.390   8.639
 1253POPC   D2A19360  23.517  31.404   8.359
 1253POPC   C3A19361  23.472  31.676   8.022
 1253POPC   C4A19362  23.748  31.669   7.703
 1253POPC   C1B19363  23.469  31.014   8.683
 1253POPC   C2B19364  23.459  30.926   8.198
 1253POPC   C3B19365  23.592  31.172   7.799
 1253POPC   C4B19366  23.478  31.148   7.316
 1254POPC   NC319367  13.310   1.875   9.325
 1254POPC   PO419368  13.860   2.086   9.595
 1254POPC   GL119369  13.856   2.007   9.144
 1254POPC   GL219370  13.893   1.654   9.091
 1254POPC   C1A19371  13.648   1.999   8.724
 1254POPC   D2A19372  13.436   1.749   8.380
 1254POPC   C3A19373  13.471   1.969   7.976
 1254POPC   C4A19374  13.424   2.107   7.535
 1254POPC   C1B19375  13.930   1.587   8.656
 1254POPC   C2B19376  13.919   1.815   8.244
 1254POPC   C3B19377  13.916   1.693   7.821
 1254POPC   C4B19378  13.570   1.635   7.606
 1255POPC   NC319379  12.342  36.071   9.314
 1255POPC   PO419380  12.913  36.249   9.621
 1255POPC   GL119381  12.980  36.200   9.170
 1255POPC   GL219382  12.661  36.206   8.933
 1255POPC   C1A19383  13.119  36.196   8.741
 1255POPC   D2A19384  12.841  36.296   8.421
 1255POPC   C3A19385  13.035  36.056   8.103
 1255POPC   C4A19386  13.016  36.110   7.669
 1255POPC   C1B19387  12.691  35.849   8.601
 1255POPC   C2B19388  12.528  35.672   8.205
 1255POPC   C3B19389  12.596  35.907   7.856
 1255POPC   C4B19390  12.641  36.372   7.923
 1256POPC   NC319391   4.371  38.703   9.953
 1256POPC   PO419392   4.595  38.276   9.459
 1256POPC   GL119393   4.658  38.564   9.091
 1256POPC   GL219394   4.369  38.452   8.933
 1256POPC   C1A19395   4.691  38.585   8.592
 1256POPC   D2A19396   4.374  38.439   8.311
 1256POPC   C3A19397   4.505  38.374   7.889
 1256POPC   C4A19398   4.460  38.606   7.498
 1256POPC   C1B19399   4.197  38.779   8.665
 1256POPC   C2B19400   4.252  38.931   8.254
 1256POPC   C3B19401   4.112  38.683   7.897
 1256POPC   C4B19402   3.960  38.604   7.477
 1257POPC   NC319403   0.124  32.532   9.529
 1257POPC   PO419404   0.618  32.039   9.457
 1257POPC   GL119405   0.416  32.315   9.170
 1257POPC   GL219406   0.126  32.134   9.157
 1257POPC   C1A19407   0.521  32.460   8.753
 1257POPC   D2A19408   0.830  32.536   8.422
 1257POPC   C3A19409   0.757  32.384   8.010
 1257POPC   C4A19410   0.488  32.488   7.701
 1257POPC   C1B19411   0.392  31.969   8.810
 1257POPC   C2B19412   0.535  32.098   8.387
 1257POPC   C3B19413   0.544  31.907   8.031
 1257POPC   C4B19414   0.518  32.008   7.623
 1258POPC   NC319415   3.019  11.008   9.580
 1258POPC   PO419416   2.605  11.520   9.530
 1258POPC   GL119417   2.513  11.293   9.196
 1258POPC   GL219418   2.697  10.982   9.190
 1258POPC   C1A19419   2.538  11.309   8.780
 1258POPC   D2A19420   2.774  11.290   8.420
 1258POPC   C3A19421   2.683  11.525   8.060
 1258POPC   C4A19422   3.059  11.599   7.811
 1258POPC   C1B19423   2.829  10.901   8.762
 1258POPC   C2B19424   2.747  10.758   8.340
 1258POPC   C3B19425   2.586  11.018   8.044
 1258POPC   C4B19426   2.731  11.223   7.669
 1259POPC   NC319427  22.234  43.399   9.516
 1259POPC   PO419428  21.699  43.004   9.587
 1259POPC   GL119429  21.927  42.941   9.167
 1259POPC   GL219430  22.249  43.158   9.065
 1259POPC   C1A19431  21.986  42.938   8.705
 1259POPC   D2A19432  21.878  43.206   8.396
 1259POPC   C3A19433  21.664  43.006   8.099
 1259POPC   C4A19434  21.844  42.840   7.761
 1259POPC   C1B19435  22.463  43.179   8.657
 1259POPC   C2B19436  22.342  43.066   8.233
 1259POPC   C3B19437  22.196  43.292   7.844
 1259POPC   C4B19438  22.489  43.332   7.467
 1260POPC   NC319439  11.156  21.298   9.425
 1260POPC   PO419440  11.828  21.349   9.516
 1260POPC   GL119441  11.603  21.294   9.114
 1260POPC   GL219442  11.378  21.022   9.053
 1260POPC   C1A19443  11.420  21.381   8.701
 1260POPC   D2A19444  11.088  21.630   8.522
 1260POPC   C3A19445  11.026  21.573   8.083
 1260POPC   C4A19446  11.391  21.573   7.837
 1260POPC   C1B19447  11.026  21.018   8.780
 1260POPC   C2B19448  11.061  21.112   8.368
 1260POPC   C3B19449  11.246  21.119   7.977
 1260POPC   C4B19450  11.073  21.190   7.553
 1261POPC   NC319451  37.444  37.378   9.467
 1261POPC   PO419452  37.772  37.939   9.714
 1261POPC   GL119453  37.774  37.821   9.261
 1261POPC   GL219454  37.837  37.472   9.151
 1261POPC   C1A19455  37.649  37.864   8.823
 1261POPC   D2A19456  37.802  37.887   8.407
 1261POPC   C3A19457  37.576  37.744   8.056
 1261POPC   C4A19458  37.823  37.683   7.660
 1261POPC   C1B19459  37.549  37.345   8.805
 1261POPC   C2B19460  37.623  37.313   8.350
 1261POPC   C3B19461  37.571  37.256   7.883
 1261POPC   C4B19462  37.439  37.425   7.462
 1262POPC   NC319463  32.465  30.531   9.565
 1262POPC   PO419464  32.329  31.215   9.478
 1262POPC   GL119465  32.329  30.918   9.131
 1262POPC   GL219466  32.210  30.574   9.149
 1262POPC   C1A19467  32.069  30.826   8.747
 1262POPC   D2A19468  32.216  30.631   8.356
 1262POPC   C3A19469  32.028  30.763   7.974
 1262POPC   C4A19470  32.363  30.733   7.712
 1262POPC   C1B19471  32.065  30.305   8.815
 1262POPC   C2B19472  31.843  30.305   8.413
 1262POPC   C3B19473  31.928  30.254   7.961
 1262POPC   C4B19474  31.978  30.457   7.538
 1263POPC   NC319475  16.336  29.243   9.787
 1263POPC   PO419476  16.757  28.774   9.592
 1263POPC   GL119477  16.741  29.052   9.200
 1263POPC   GL219478  16.424  29.150   9.047
 1263POPC   C1A19479  16.802  29.030   8.731
 1263POPC   D2A19480  16.764  29.144   8.318
 1263POPC   C3A19481  16.834  28.955   7.977
 1263POPC   C4A19482  16.705  28.882   7.578
 1263POPC   C1B19483  16.445  29.383   8.638
 1263POPC   C2B19484  16.312  29.426   8.214
 1263POPC   C3B19485  16.421  29.242   7.844
 1263POPC   C4B19486  16.317  29.154   7.414
 1264POPC   NC319487   0.361   6.214   9.451
 1264POPC   PO419488   0.079   6.813   9.502
 1264POPC   GL119489   0.258   6.896   9.111
 1264POPC   GL219490   0.497   6.654   9.151
 1264POPC   C1A19491   0.357   6.929   8.681
 1264POPC   D2A19492   0.455   7.135   8.287
 1264POPC   C3A19493   0.300   6.901   7.957
 1264POPC   C4A19494   0.302   6.709   7.567
 1264POPC   C1B19495   0.679   6.463   8.822
 1264POPC   C2B19496   0.470   6.375   8.435
 1264POPC   C3B19497   0.509   6.389   7.968
 1264POPC   C4B19498   0.808   6.340   7.592
 1265POPC   NC319499  20.887   8.267   9.360
 1265POPC   PO419500  20.395   7.857   9.554
 1265POPC   GL119501  20.455   8.121   9.171
 1265POPC   GL219502  20.339   8.417   8.997
 1265POPC   C1A19503  20.583   7.994   8.765
 1265POPC   D2A19504  20.428   7.806   8.400
 1265POPC   C3A19505  20.458   8.102   8.069
 1265POPC   C4A19506  20.704   8.037   7.703
 1265POPC   C1B19507  20.764   8.487   8.758
 1265POPC   C2B19508  20.949   8.414   8.343
 1265POPC   C3B19509  20.769   8.505   7.915
 1265POPC   C4B19510  20.713   8.510   7.459
 1266POPC   NC319511  33.446  39.879   9.618
 1266POPC   PO419512  34.158  40.045   9.786
 1266POPC   GL119513  33.926  40.113   9.361
 1266POPC   GL219514  33.787  39.813   9.239
 1266POPC   C1A19515  33.788  40.236   8.915
 1266POPC   D2A19516  33.884  40.133   8.474
 1266POPC   C3A19517  33.634  40.198   8.099
 1266POPC   C4A19518  33.780  40.390   7.725
 1266POPC   C1B19519  33.656  39.708   8.817
 1266POPC   C2B19520  33.775  39.650   8.370
 1266POPC   C3B19521  33.863  39.712   7.924
 1266POPC   C4B19522  33.964  39.612   7.477
 1267POPC   NC319523   5.912  27.140   9.510
 1267POPC   PO419524   5.818  27.819   9.500
 1267POPC   GL119525   6.005  27.584   9.171
 1267POPC   GL219526   5.847  27.261   9.027
 1267POPC   C1A19527   6.107  27.765   8.782
 1267POPC   D2A19528   5.940  27.635   8.411
 1267POPC   C3A19529   6.056  27.781   8.034
 1267POPC   C4A19530   6.034  27.731   7.599
 1267POPC   C1B19531   5.773  27.206   8.596
 1267POPC   C2B19532   5.695  27.270   8.149
 1267POPC   C3B19533   5.782  27.287   7.700
 1267POPC   C4B19534   5.684  27.493   7.299
 1268POPC   NC319535   7.826   7.917   9.498
 1268POPC   PO419536   8.315   8.447   9.529
 1268POPC   GL119537   8.052   8.285   9.221
 1268POPC   GL219538   8.214   7.969   9.118
 1268POPC   C1A19539   7.817   8.167   8.841
 1268POPC   D2A19540   8.025   8.116   8.450
 1268POPC   C3A19541   7.832   8.284   8.090
 1268POPC   C4A19542   8.045   8.215   7.713
 1268POPC   C1B19543   8.471   8.025   8.727
 1268POPC   C2B19544   8.648   8.078   8.279
 1268POPC   C3B19545   8.487   7.962   7.841
 1268POPC   C4B19546   8.700   7.694   7.468
 1269POPC   NC319547  10.706  19.006   9.564
 1269POPC   PO419548  10.298  19.431   9.359
 1269POPC   GL119549  10.412  19.010   9.140
 1269POPC   GL219550  10.791  19.004   9.055
 1269POPC   C1A19551  10.457  18.687   8.788
 1269POPC   D2A19552  10.256  18.445   8.442
 1269POPC   C3A19553  10.380  18.571   8.001
 1269POPC   C4A19554  10.288  18.708   7.560
 1269POPC   C1B19555  10.577  19.211   8.700
 1269POPC   C2B19556  10.405  19.006   8.341
 1269POPC   C3B19557  10.250  19.054   7.948
 1269POPC   C4B19558  10.541  19.145   7.661
 1270POPC   NC319559   5.229  26.410   9.470
 1270POPC   PO419560   4.841  25.808   9.573
 1270POPC   GL119561   4.934  25.975   9.164
 1270POPC   GL219562   5.278  26.033   9.116
 1270POPC   C1A19563   4.886  26.076   8.720
 1270POPC   D2A19564   5.114  25.929   8.353
 1270POPC   C3A19565   5.006  26.121   7.974
 1270POPC   C4A19566   4.660  26.080   7.716
 1270POPC   C1B19567   5.323  26.322   8.762
 1270POPC   C2B19568   5.447  26.342   8.342
 1270POPC   C3B19569   5.528  26.162   7.964
 1270POPC   C4B19570   5.366  26.395   7.662
 1271POPC   NC319571   3.509  30.689   9.414
 1271POPC   PO419572   3.898  30.166   9.404
 1271POPC   GL119573   3.528  30.306   9.087
 1271POPC   GL219574   3.503  30.680   8.906
 1271POPC   C1A19575   3.291  30.299   8.696
 1271POPC   D2A19576   3.401  30.605   8.383
 1271POPC   C3A19577   3.423  30.497   7.973
 1271POPC   C4A19578   3.533  30.622   7.603
 1271POPC   C1B19579   3.433  31.061   8.603
 1271POPC   C2B19580   3.131  31.093   8.278
 1271POPC   C3B19581   3.326  31.008   7.894
 1271POPC   C4B19582   3.803  31.027   7.813
 1272POPC   NC319583  14.751  20.314   9.595
 1272POPC   PO419584  14.834  20.964   9.677
 1272POPC   GL119585  14.745  20.723   9.299
 1272POPC   GL219586  15.078  20.728   9.244
 1272POPC   C1A19587  14.807  20.409   8.943
 1272POPC   D2A19588  15.008  20.449   8.516
 1272POPC   C3A19589  14.966  20.482   8.048
 1272POPC   C4A19590  15.085  20.810   7.745
 1272POPC   C1B19591  15.201  20.871   8.830
 1272POPC   C2B19592  15.364  20.812   8.414
 1272POPC   C3B19593  15.498  20.696   8.005
 1272POPC   C4B19594  15.582  20.750   7.549
 1273POPC   NC319595  39.248  27.138   9.433
 1273POPC   PO419596  39.088  26.438   9.365
 1273POPC   GL119597  39.003  26.730   9.045
 1273POPC   GL219598  39.361  26.813   9.032
 1273POPC   C1A19599  39.092  26.822   8.590
 1273POPC   D2A19600  39.483  26.698   8.342
 1273POPC   C3A19601  39.352  26.741   7.908
 1273POPC   C4A19602  39.182  26.890   7.458
 1273POPC   C1B19603  39.521  27.099   8.685
 1273POPC   C2B19604  39.486  27.195   8.217
 1273POPC   C3B19605  39.267  27.247   7.805
 1273POPC   C4B19606  39.416  27.323   7.353
 1274POPC   NC319607  30.809  20.326   9.460
 1274POPC   PO419608  30.554  19.796   9.527
 1274POPC   GL119609  30.433  19.916   9.115
 1274POPC   GL219610  30.534  20.252   8.988
 1274POPC   C1A19611  30.596  19.817   8.703
 1274POPC   D2A19612  30.714  19.952   8.283
 1274POPC   C3A19613  30.541  19.779   7.905
 1274POPC   C4A19614  30.183  19.552   7.731
 1274POPC   C1B19615  30.926  20.233   8.663
 1274POPC   C2B19616  31.120  20.274   8.211
 1274POPC   C3B19617  30.983  20.067   7.775
 1274POPC   C4B19618  30.938  19.887   7.318
 1275POPC   NC319619  13.731  25.341   9.578
 1275POPC   PO419620  13.057  25.275   9.486
 1275POPC   GL119621  12.950  25.261   9.051
 1275POPC   GL219622  13.023  25.612   8.967
 1275POPC   C1A19623  12.720  25.161   8.645
 1275POPC   D2A19624  12.719  24.903   8.241
 1275POPC   C3A19625  12.950  25.077   7.887
 1275POPC   C4A19626  12.935  25.201   7.441
 1275POPC   C1B19627  12.544  25.578   8.945
 1275POPC   C2B19628  12.372  25.560   8.531
 1275POPC   C3B19629  12.553  25.394   8.158
 1275POPC   C4B19630  12.639  25.495   7.734
 1276POPC   NC319631  23.014  24.677   9.233
 1276POPC   PO419632  22.685  24.161   9.439
 1276POPC   GL119633  22.889  24.160   9.050
 1276POPC   GL219634  23.244  24.277   8.951
 1276POPC   C1A19635  22.800  24.328   8.671
 1276POPC   D2A19636  22.962  24.294   8.288
 1276POPC   C3A19637  22.854  24.547   7.933
 1276POPC   C4A19638  22.960  24.371   7.529
 1276POPC   C1B19639  23.263  24.667   8.644
 1276POPC   C2B19640  23.306  24.692   8.191
 1276POPC   C3B19641  23.342  24.591   7.773
 1276POPC   C4B19642  23.459  24.566   7.329
 1277POPC   NC319643  42.317  42.227   9.491
 1277POPC   PO419644  42.105  42.764   9.227
 1277POPC   GL119645  42.184  42.380   9.010
 1277POPC   GL219646  42.523  42.339   9.037
 1277POPC   C1A19647  42.052  42.230   8.605
 1277POPC   D2A19648  42.339  42.487   8.379
 1277POPC   C3A19649  42.437  42.430   7.946
 1277POPC   C4A19650  42.504  42.049   7.744
 1277POPC   C1B19651  42.522  42.053   8.703
 1277POPC   C2B19652  42.513  41.980   8.283
 1277POPC   C3B19653  42.811  41.769   8.042
 1277POPC   C4B19654  42.961  41.792   7.626
 1278POPC   NC319655  15.876   3.211   9.560
 1278POPC   PO419656  15.650   3.801   9.355
 1278POPC   GL119657  15.891   3.556   9.123
 1278POPC   GL219658  16.176   3.721   9.025
 1278POPC   C1A19659  15.801   3.581   8.682
 1278POPC   D2A19660  15.698   3.661   8.280
 1278POPC   C3A19661  15.929   3.662   7.942
 1278POPC   C4A19662  15.699   3.522   7.571
 1278POPC   C1B19663  16.212   3.319   8.762
 1278POPC   C2B19664  16.193   3.438   8.368
 1278POPC   C3B19665  16.393   3.431   8.011
 1278POPC   C4B19666  16.224   3.355   7.664
 1279POPC   NC319667  37.840  40.375   9.486
 1279POPC   PO419668  38.187  40.877   9.640
 1279POPC   GL119669  37.883  40.846   9.259
 1279POPC   GL219670  37.515  40.725   9.247
 1279POPC   C1A19671  37.829  40.887   8.808
 1279POPC   D2A19672  38.101  41.009   8.458
 1279POPC   C3A19673  37.942  41.052   8.039
 1279POPC   C4A19674  37.958  41.121   7.588
 1279POPC   C1B19675  37.282  40.938   8.879
 1279POPC   C2B19676  37.198  40.965   8.411
 1279POPC   C3B19677  37.433  41.067   8.069
 1279POPC   C4B19678  37.568  40.799   7.739
 1280POPC   NC319679  17.415   0.638   9.541
 1280POPC   PO419680  17.910   0.277   9.291
 1280POPC   GL119681  17.594   0.545   9.070
 1280POPC   GL219682  17.192   0.545   9.094
 1280POPC   C1A19683  17.470   0.466   8.657
 1280POPC   D2A19684  17.612   0.268   8.286
 1280POPC   C3A19685  17.801   0.552   8.007
 1280POPC   C4A19686  17.728   0.663   7.595
 1280POPC   C1B19687  16.983   0.624   8.664
 1280POPC   C2B19688  17.179   0.679   8.272
 1280POPC   C3B19689  17.245   0.410   7.923
 1280POPC   C4B19690  17.208   0.592   7.534
 1281POPC   NC319691  24.242   1.450   9.531
 1281POPC   PO419692  24.904   1.279   9.653
 1281POPC   GL119693  24.638   1.215   9.274
 1281POPC   GL219694  24.395   0.961   9.281
 1281POPC   C1A19695  24.429   1.392   8.888
 1281POPC   D2A19696  24.653   1.478   8.500
 1281POPC   C3A19697  24.499   1.565   8.081
 1281POPC   C4A19698  24.590   1.258   7.752
 1281POPC   C1B19699  24.311   0.890   8.830
 1281POPC   C2B19700  24.180   0.837   8.375
 1281POPC   C3B19701  24.331   0.848   7.924
 1281POPC   C4B19702  24.561   0.785   7.496
 1282POPC   NC319703  34.098  27.707   9.414
 1282POPC   PO419704  33.845  27.201   9.206
 1282POPC   GL119705  33.844  27.567   8.997
 1282POPC   GL219706  34.179  27.529   8.904
 1282POPC   C1A19707  33.590  27.849   8.777
 1282POPC   D2A19708  33.655  28.007   8.347
 1282POPC   C3A19709  33.792  27.718   8.003
 1282POPC   C4A19710  33.775  27.668   7.542
 1282POPC   C1B19711  33.968  27.558   8.495
 1282POPC   C2B19712  33.820  27.233   8.210
 1282POPC   C3B19713  33.778  27.222   7.818
 1282POPC   C4B19714  34.128  27.315   7.602
 1283POPC   NC319715  10.483  31.176   9.557
 1283POPC   PO419716  10.228  30.586   9.526
 1283POPC   GL119717  10.113  30.781   9.158
 1283POPC   GL219718  10.449  30.906   9.123
 1283POPC   C1A19719  10.161  30.686   8.718
 1283POPC   D2A19720  10.400  30.450   8.393
 1283POPC   C3A19721  10.552  30.610   7.969
 1283POPC   C4A19722  10.656  30.554   7.513
 1283POPC   C1B19723  10.550  31.007   8.715
 1283POPC   C2B19724  10.356  30.980   8.320
 1283POPC   C3B19725  10.507  31.127   7.920
 1283POPC   C4B19726  10.506  31.037   7.503
 1284POPC   NC319727  14.593  34.784   9.512
 1284POPC   PO419728  14.250  34.145   9.433
 1284POPC   GL119729  14.415  34.428   9.171
 1284POPC   GL219730  14.748  34.357   9.245
 1284POPC   C1A19731  14.302  34.732   8.847
 1284POPC   D2A19732  14.082  34.730   8.457
 1284POPC   C3A19733  14.362  34.697   8.084
 1284POPC   C4A19734  14.199  34.663   7.680
 1284POPC   C1B19735  14.792  34.565   8.833
 1284POPC   C2B19736  14.767  34.520   8.387
 1284POPC   C3B19737  14.668  34.279   7.992
 1284POPC   C4B19738  14.661  34.497   7.595
 1285POPC   NC319739  19.792  26.670   9.580
 1285POPC   PO419740  20.142  27.288   9.628
 1285POPC   GL119741  20.060  26.976   9.277
 1285POPC   GL219742  19.711  27.056   9.169
 1285POPC   C1A19743  20.091  26.859   8.825
 1285POPC   D2A19744  19.882  26.814   8.422
 1285POPC   C3A19745  20.096  26.595   8.092
 1285POPC   C4A19746  20.033  26.570   7.649
 1285POPC   C1B19747  19.565  26.759   8.837
 1285POPC   C2B19748  19.481  26.466   8.490
 1285POPC   C3B19749  19.577  26.557   8.075
 1285POPC   C4B19750  19.722  26.931   7.921
 1286POPC   NC319751   5.734   4.804   9.358
 1286POPC   PO419752   6.111   5.340   9.641
 1286POPC   GL119753   6.119   5.221   9.121
 1286POPC   GL219754   6.108   4.892   9.025
 1286POPC   C1A19755   5.909   5.378   8.731
 1286POPC   D2A19756   5.818   5.267   8.314
 1286POPC   C3A19757   6.115   5.025   8.164
 1286POPC   C4A19758   6.111   5.018   7.747
 1286POPC   C1B19759   5.760   4.887   8.713
 1286POPC   C2B19760   5.634   4.806   8.313
 1286POPC   C3B19761   5.606   4.918   7.906
 1286POPC   C4B19762   5.547   4.641   7.569
 1287POPC   NC319763   3.556  31.688   9.423
 1287POPC   PO419764   3.625  31.067   9.205
 1287POPC   GL119765   3.587  31.407   8.972
 1287POPC   GL219766   3.351  31.677   8.968
 1287POPC   C1A19767   3.864  31.379   8.661
 1287POPC   D2A19768   3.943  31.247   8.290
 1287POPC   C3A19769   3.580  31.392   8.127
 1287POPC   C4A19770   3.525  31.440   7.707
 1287POPC   C1B19771   3.372  31.610   8.560
 1287POPC   C2B19772   3.321  31.888   8.295
 1287POPC   C3B19773   3.522  31.883   7.942
 1287POPC   C4B19774   3.297  31.865   7.597
 1288POPC   NC319775   7.902   6.343   9.614
 1288POPC   PO419776   8.365   6.768   9.454
 1288POPC   GL119777   8.195   6.697   9.098
 1288POPC   GL219778   7.969   6.493   9.137
 1288POPC   C1A19779   8.334   6.521   8.723
 1288POPC   D2A19780   8.608   6.736   8.415
 1288POPC   C3A19781   8.389   6.952   8.091
 1288POPC   C4A19782   8.394   6.778   7.695
 1288POPC   C1B19783   7.794   6.676   8.771
 1288POPC   C2B19784   7.940   6.777   8.367
 1288POPC   C3B19785   7.929   6.712   7.928
 1288POPC   C4B19786   8.076   6.369   7.675
 1289POPC   NC319787   4.875  42.950   9.466
 1289POPC   PO419788   4.796  43.612   9.370
 1289POPC   GL119789   4.775  43.270   9.081
 1289POPC   GL219790   5.092  43.297   9.044
 1289POPC   C1A19791   4.883  42.926   8.769
 1289POPC   D2A19792   4.873  43.140   8.362
 1289POPC   C3A19793   5.073  43.052   7.948
 1289POPC   C4A19794   4.866  43.181   7.553
 1289POPC   C1B19795   5.297  43.199   8.666
 1289POPC   C2B19796   5.585  43.071   8.389
 1289POPC   C3B19797   5.695  43.285   8.058
 1289POPC   C4B19798   5.496  43.288   7.685
 1290POPC   NC319799  11.882  33.207   9.317
 1290POPC   PO419800  12.422  32.772   9.553
 1290POPC   GL119801  12.235  32.841   9.151
 1290POPC   GL219802  11.890  32.733   9.105
 1290POPC   C1A19803  12.224  33.022   8.724
 1290POPC   D2A19804  12.110  32.817   8.331
 1290POPC   C3A19805  12.200  33.035   7.945
 1290POPC   C4A19806  12.374  33.451   7.896
 1290POPC   C1B19807  11.741  32.874   8.714
 1290POPC   C2B19808  11.662  33.120   8.331
 1290POPC   C3B19809  11.671  33.042   7.880
 1290POPC   C4B19810  11.725  32.999   7.418
 1291POPC   NC319811   9.972   7.683   9.526
 1291POPC   PO419812   9.697   7.107   9.514
 1291POPC   GL119813   9.731   7.377   9.195
 1291POPC   GL219814  10.065   7.289   9.153
 1291POPC   C1A19815   9.490   7.608   8.882
 1291POPC   D2A19816   9.597   7.689   8.477
 1291POPC   C3A19817   9.802   7.425   8.169
 1291POPC   C4A19818   9.611   7.461   7.764
 1291POPC   C1B19819   9.933   7.336   8.724
 1291POPC   C2B19820  10.184   7.574   8.470
 1291POPC   C3B19821  10.267   7.742   8.096
 1291POPC   C4B19822  10.094   7.617   7.728
 1292POPC   NC319823  14.076  42.330   9.544
 1292POPC   PO419824  14.742  42.087   9.421
 1292POPC   GL119825  14.428  42.185   9.105
 1292POPC   GL219826  14.287  42.516   9.105
 1292POPC   C1A19827  14.494  42.277   8.665
 1292POPC   D2A19828  14.340  42.110   8.260
 1292POPC   C3A19829  14.645  42.278   7.974
 1292POPC   C4A19830  14.783  42.168   7.548
 1292POPC   C1B19831  14.064  42.708   8.765
 1292POPC   C2B19832  14.207  42.599   8.356
 1292POPC   C3B19833  14.254  42.724   7.938
 1292POPC   C4B19834  14.363  42.511   7.619
 1293POPC   NC319835   0.568   7.021   9.503
 1293POPC   PO419836   0.295   7.671   9.413
 1293POPC   GL119837   0.275   7.403   9.102
 1293POPC   GL219838   0.569   7.300   9.060
 1293POPC   C1A19839   0.212   7.439   8.658
 1293POPC   D2A19840   0.449   7.654   8.320
 1293POPC   C3A19841   0.277   7.540   7.944
 1293POPC   C4A19842   0.264   7.248   7.567
 1293POPC   C1B19843   0.742   7.400   8.657
 1293POPC   C2B19844   0.904   7.374   8.239
 1293POPC   C3B19845   0.709   7.325   7.821
 1293POPC   C4B19846   0.718   7.233   7.352
 1294POPC   NC319847  39.540  44.666   9.695
 1294POPC   PO419848  39.938   0.103   9.399
 1294POPC   GL119849  39.915  44.812   9.117
 1294POPC   GL219850  40.250  44.693   9.104
 1294POPC   C1A19851  39.904  44.717   8.698
 1294POPC   D2A19852  39.750  44.603   8.313
 1294POPC   C3A19853  40.080  44.572   8.040
 1294POPC   C4A19854  40.047  44.424   7.660
 1294POPC   C1B19855  40.401  44.814   8.677
 1294POPC   C2B19856  40.344  44.999   8.274
 1294POPC   C3B19857  40.469  44.872   7.880
 1294POPC   C4B19858  40.353  44.828   7.458
 1295POPC   NC319859  12.147  21.622   9.705
 1295POPC   PO419860  12.394  22.001   9.159
 1295POPC   GL119861  12.266  21.608   8.949
 1295POPC   GL219862  12.111  21.294   9.092
 1295POPC   C1A19863  11.985  21.514   8.600
 1295POPC   D2A19864  11.748  21.215   8.349
 1295POPC   C3A19865  11.856  21.357   7.952
 1295POPC   C4A19866  12.201  21.551   7.798
 1295POPC   C1B19867  12.094  21.024   8.697
 1295POPC   C2B19868  12.229  21.051   8.238
 1295POPC   C3B19869  12.238  21.022   7.787
 1295POPC   C4B19870  12.325  20.850   7.372
 1296POPC   NC319871  38.557  25.341   9.420
 1296POPC   PO419872  38.039  24.981   9.419
 1296POPC   GL119873  38.208  25.219   9.076
 1296POPC   GL219874  38.138  25.578   9.101
 1296POPC   C1A19875  38.446  25.101   8.713
 1296POPC   D2A19876  38.492  24.886   8.319
 1296POPC   C3A19877  38.723  25.059   7.929
 1296POPC   C4A19878  38.848  25.085   7.473
 1296POPC   C1B19879  38.421  25.638   8.753
 1296POPC   C2B19880  38.378  25.722   8.314
 1296POPC   C3B19881  38.368  25.405   8.012
 1296POPC   C4B19882  38.575  25.460   7.653
 1297POPC   NC319883  11.027  17.795   9.460
 1297POPC   PO419884  11.144  17.136   9.474
 1297POPC   GL119885  11.261  17.384   9.135
 1297POPC   GL219886  11.402  17.703   9.109
 1297POPC   C1A19887  11.519  17.313   8.797
 1297POPC   D2A19888  11.432  17.432   8.403
 1297POPC   C3A19889  11.403  17.315   7.982
 1297POPC   C4A19890  11.039  17.383   7.676
 1297POPC   C1B19891  11.207  17.777   8.704
 1297POPC   C2B19892  11.380  17.903   8.258
 1297POPC   C3B19893  11.208  17.836   7.803
 1297POPC   C4B19894  11.148  17.748   7.296
 1298POPC   NC319895  37.562  34.968   9.507
 1298POPC   PO419896  37.496  34.340   9.352
 1298POPC   GL119897  37.698  34.568   9.059
 1298POPC   GL219898  37.978  34.743   9.204
 1298POPC   C1A19899  37.711  34.639   8.626
 1298POPC   D2A19900  37.472  34.862   8.313
 1298POPC   C3A19901  37.419  34.675   7.915
 1298POPC   C4A19902  37.662  34.429   7.651
 1298POPC   C1B19903  38.190  34.794   8.814
 1298POPC   C2B19904  38.186  34.542   8.436
 1298POPC   C3B19905  37.934  34.563   8.061
 1298POPC   C4B19906  38.086  34.780   7.679
 1299POPC   NC319907  10.187  38.758   9.479
 1299POPC   PO419908  10.594  38.260   9.713
 1299POPC   GL119909  10.521  38.378   9.240
 1299POPC   GL219910  10.400  38.712   9.019
 1299POPC   C1A19911  10.477  38.268   8.816
 1299POPC   D2A19912  10.691  38.052   8.528
 1299POPC   C3A19913  10.551  38.283   8.173
 1299POPC   C4A19914  10.574  38.222   7.749
 1299POPC   C1B19915  10.717  38.820   8.678
 1299POPC   C2B19916  10.738  38.786   8.228
 1299POPC   C3B19917  10.481  38.738   7.883
 1299POPC   C4B19918  10.533  38.969   7.515
 1300POPC   NC319919  28.347  40.336   9.785
 1300POPC   PO419920  28.187  40.818   9.364
 1300POPC   GL119921  28.465  40.752   9.038
 1300POPC   GL219922  28.647  41.072   8.934
 1300POPC   C1A19923  28.392  40.765   8.606
 1300POPC   D2A19924  28.221  41.032   8.286
 1300POPC   C3A19925  28.285  40.846   7.875
 1300POPC   C4A19926  28.575  40.528   7.822
 1300POPC   C1B19927  28.683  41.199   8.516
 1300POPC   C2B19928  28.711  41.030   8.094
 1300POPC   C3B19929  28.692  41.134   7.668
 1300POPC   C4B19930  28.904  41.082   7.265
 1301POPC   NC319931  20.689   3.960   9.447
 1301POPC   PO419932  20.876   4.659   9.464
 1301POPC   GL119933  20.635   4.395   9.165
 1301POPC   GL219934  20.946   4.230   9.095
 1301POPC   C1A19935  20.349   4.501   8.785
 1301POPC   D2A19936  20.570   4.635   8.374
 1301POPC   C3A19937  20.414   4.603   7.950
 1301POPC   C4A19938  20.360   4.348   7.546
 1301POPC   C1B19939  20.790   4.274   8.701
 1301POPC   C2B19940  20.876   4.100   8.333
 1301POPC   C3B19941  20.686   4.183   7.991
 1301POPC   C4B19942  20.862   4.299   7.645
 1302POPC   NC319943  26.247  24.762   9.344
 1302POPC   PO419944  25.973  24.069   9.373
 1302POPC   GL119945  25.947  24.412   9.083
 1302POPC   GL219946  25.591  24.498   9.137
 1302POPC   C1A19947  26.139  24.560   8.669
 1302POPC   D2A19948  26.323  24.769   8.301
 1302POPC   C3A19949  26.323  24.501   7.957
 1302POPC   C4A19950  26.171  24.111   7.871
 1302POPC   C1B19951  25.621  24.424   8.694
 1302POPC   C2B19952  25.812  24.314   8.288
 1302POPC   C3B19953  25.709  24.285   7.848
 1302POPC   C4B19954  25.680  24.547   7.468
 1303POPC   NC319955  28.697  31.968   9.469
 1303POPC   PO419956  29.296  32.314   9.612
 1303POPC   GL119957  29.289  32.151   9.204
 1303POPC   GL219958  28.996  32.291   9.112
 1303POPC   C1A19959  29.471  32.325   8.835
 1303POPC   D2A19960  29.539  32.147   8.463
 1303POPC   C3A19961  29.499  32.122   8.024
 1303POPC   C4A19962  29.385  32.347   7.640
 1303POPC   C1B19963  29.023  32.161   8.678
 1303POPC   C2B19964  29.103  32.350   8.279
 1303POPC   C3B19965  28.996  32.184   7.906
 1303POPC   C4B19966  28.754  32.096   7.626
 1304POPC   NC319967  19.132  10.900   9.365
 1304POPC   PO419968  19.387  10.260   9.315
 1304POPC   GL119969  19.157  10.425   9.055
 1304POPC   GL219970  18.869  10.562   9.081
 1304POPC   C1A19971  19.078  10.239   8.691
 1304POPC   D2A19972  19.311  10.084   8.322
 1304POPC   C3A19973  19.179  10.167   7.901
 1304POPC   C4A19974  19.090  10.564   7.659
 1304POPC   C1B19975  19.006  10.779   8.719
 1304POPC   C2B19976  19.042  10.606   8.321
 1304POPC   C3B19977  18.842  10.807   8.011
 1304POPC   C4B19978  18.895  11.154   7.796
 1305POPC   NC319979  13.421  17.445   9.648
 1305POPC   PO419980  13.976  17.409   9.552
 1305POPC   GL119981  13.648  17.433   9.182
 1305POPC   GL219982  13.405  17.720   9.194
 1305POPC   C1A19983  13.545  17.445   8.709
 1305POPC   D2A19984  13.430  17.315   8.267
 1305POPC   C3A19985  13.638  17.497   7.880
 1305POPC   C4A19986  13.814  17.525   7.445
 1305POPC   C1B19987  13.187  17.812   8.779
 1305POPC   C2B19988  13.403  17.857   8.361
 1305POPC   C3B19989  13.288  17.884   7.922
 1305POPC   C4B19990  13.322  17.672   7.500
 1306POPC   NC319991  44.251  21.968   9.655
 1306POPC   PO419992  43.617  22.231   9.759
 1306POPC   GL119993  43.604  22.074   9.289
 1306POPC   GL219994  43.945  22.127   9.220
 1306POPC   C1A19995  43.601  22.221   8.813
 1306POPC   D2A19996  43.625  22.433   8.398
 1306POPC   C3A19997  43.696  22.259   7.958
 1306POPC   C4A19998  43.759  22.441   7.544
 1306POPC   C1B19999  44.107  22.119   8.782
 1306POPC   C2B20000  44.074  22.217   8.330
 1306POPC   C3B20001  44.208  22.129   7.927
 1306POPC   C4B20002  44.077  22.050   7.503
 1307POPC   NC320003  24.943  40.314   9.296
 1307POPC   PO420004  25.386  39.878   9.695
 1307POPC   GL120005  25.304  39.920   9.178
 1307POPC   GL220006  25.296  40.206   8.947
 1307POPC   C1A20007  25.215  39.766   8.726
 1307POPC   D2A20008  25.192  39.980   8.363
 1307POPC   C3A20009  25.273  39.752   8.013
 1307POPC   C4A20010  25.529  39.789   7.652
 1307POPC   C1B20011  24.858  40.156   8.706
 1307POPC   C2B20012  24.818  40.417   8.381
 1307POPC   C3B20013  25.048  40.328   8.029
 1307POPC   C4B20014  25.178  40.137   7.662
 1308POPC   NC320015   7.855  19.422   9.446
 1308POPC   PO420016   7.417  18.850   9.553
 1308POPC   GL120017   7.572  19.038   9.189
 1308POPC   GL220018   7.255  18.980   9.077
 1308POPC   C1A20019   7.555  19.291   8.795
 1308POPC   D2A20020   7.411  19.366   8.336
 1308POPC   C3A20021   7.614  19.245   7.975
 1308POPC   C4A20022   7.726  18.907   7.732
 1308POPC   C1B20023   7.174  19.000   8.667
 1308POPC   C2B20024   7.009  18.826   8.314
 1308POPC   C3B20025   7.098  19.105   8.013
 1308POPC   C4B20026   7.268  19.114   7.626
 1309POPC   NC320027  35.865  12.352   9.412
 1309POPC   PO420028  36.464  11.998   9.508
 1309POPC   GL120029  36.208  11.878   9.196
 1309POPC   GL220030  35.860  11.858   9.228
 1309POPC   C1A20031  36.340  12.000   8.813
 1309POPC   D2A20032  36.295  12.248   8.490
 1309POPC   C3A20033  36.318  12.029   8.103
 1309POPC   C4A20034  36.265  12.124   7.684
 1309POPC   C1B20035  35.839  12.039   8.800
 1309POPC   C2B20036  35.831  12.087   8.344
 1309POPC   C3B20037  35.805  12.164   7.899
 1309POPC   C4B20038  35.862  11.863   7.528
 1310POPC   NC320039   7.529  33.468   9.769
 1310POPC   PO420040   7.454  34.099   9.495
 1310POPC   GL120041   7.378  33.798   9.136
 1310POPC   GL220042   7.436  33.463   9.198
 1310POPC   C1A20043   7.157  33.621   8.753
 1310POPC   D2A20044   7.052  33.592   8.301
 1310POPC   C3A20045   7.237  33.935   8.036
 1310POPC   C4A20046   7.402  33.842   7.617
 1310POPC   C1B20047   7.671  33.520   8.788
 1310POPC   C2B20048   7.532  33.476   8.383
 1310POPC   C3B20049   7.615  33.591   8.020
 1310POPC   C4B20050   7.802  33.401   7.731
 1311POPC   NC320051  23.581  24.914   9.471
 1311POPC   PO420052  23.645  25.545   9.652
 1311POPC   GL120053  23.620  25.398   9.218
 1311POPC   GL220054  23.909  25.210   9.174
 1311POPC   C1A20055  23.536  25.420   8.761
 1311POPC   D2A20056  23.416  25.146   8.391
 1311POPC   C3A20057  23.468  25.344   7.993
 1311POPC   C4A20058  23.648  25.529   7.635
 1311POPC   C1B20059  24.039  25.317   8.766
 1311POPC   C2B20060  23.885  25.324   8.354
 1311POPC   C3B20061  24.016  25.329   7.943
 1311POPC   C4B20062  24.127  24.994   7.664
 1312POPC   NC320063   0.903  40.103   9.591
 1312POPC   PO420064   1.390  39.634   9.543
 1312POPC   GL120065   1.259  39.967   9.220
 1312POPC   GL220066   1.086  40.325   9.183
 1312POPC   C1A20067   1.125  40.007   8.791
 1312POPC   D2A20068   1.343  40.142   8.445
 1312POPC   C3A20069   1.273  40.033   8.033
 1312POPC   C4A20070   1.477  40.287   7.738
 1312POPC   C1B20071   0.799  40.380   8.820
 1312POPC   C2B20072   0.819  40.186   8.383
 1312POPC   C3B20073   0.848  40.332   7.929
 1312POPC   C4B20074   0.698  40.265   7.475
 1313POPC   NC320075  35.513  17.447  10.099
 1313POPC   PO420076  35.898  17.447   9.531
 1313POPC   GL120077  35.775  17.312   9.098
 1313POPC   GL220078  35.440  17.468   9.047
 1313POPC   C1A20079  35.676  17.279   8.635
 1313POPC   D2A20080  35.639  17.567   8.289
 1313POPC   C3A20081  35.503  17.494   7.869
 1313POPC   C4A20082  35.511  17.746   7.500
 1313POPC   C1B20083  35.217  17.518   8.632
 1313POPC   C2B20084  35.112  17.408   8.191
 1313POPC   C3B20085  35.024  17.344   7.737
 1313POPC   C4B20086  35.034  17.621   7.363
 1314POPC   NC320087  32.555   5.596   9.451
 1314POPC   PO420088  32.950   6.076   9.643
 1314POPC   GL120089  32.887   5.843   9.159
 1314POPC   GL220090  33.187   5.702   8.953
 1314POPC   C1A20091  32.677   5.899   8.767
 1314POPC   D2A20092  32.758   5.916   8.310
 1314POPC   C3A20093  33.042   5.634   8.078
 1314POPC   C4A20094  32.993   5.646   7.636
 1314POPC   C1B20095  33.142   6.050   8.629
 1314POPC   C2B20096  33.251   6.081   8.235
 1314POPC   C3B20097  33.069   6.202   7.874
 1314POPC   C4B20098  33.238   6.366   7.500
 1315POPC   NC320099  34.194  33.675   9.554
 1315POPC   PO420100  33.511  33.864   9.649
 1315POPC   GL120101  33.803  33.827   9.211
 1315POPC   GL220102  34.089  34.067   9.148
 1315POPC   C1A20103  33.751  33.619   8.801
 1315POPC   D2A20104  33.579  33.452   8.425
 1315POPC   C3A20105  33.499  33.652   8.046
 1315POPC   C4A20106  33.749  33.795   7.731
 1315POPC   C1B20107  33.872  34.106   8.757
 1315POPC   C2B20108  33.580  33.985   8.432
 1315POPC   C3B20109  33.548  34.174   8.020
 1315POPC   C4B20110  33.897  34.287   7.764
 1316POPC   NC320111   8.042   9.532   9.427
 1316POPC   PO420112   8.498   9.975   9.653
 1316POPC   GL120113   8.528   9.820   9.171
 1316POPC   GL220114   8.396   9.490   9.053
 1316POPC   C1A20115   8.495   9.846   8.707
 1316POPC   D2A20116   8.174   9.813   8.399
 1316POPC   C3A20117   8.167   9.978   8.029
 1316POPC   C4A20118   8.176   9.762   7.633
 1316POPC   C1B20119   8.014   9.539   8.776
 1316POPC   C2B20120   7.773   9.470   8.378
 1316POPC   C3B20121   7.850   9.576   7.956
 1316POPC   C4B20122   7.767   9.469   7.505
 1317POPC   NC320123  30.018  37.506   9.645
 1317POPC   PO420124  30.492  38.028   9.592
 1317POPC   GL120125  30.263  37.774   9.288
 1317POPC   GL220126  29.930  37.843   9.265
 1317POPC   C1A20127  30.232  37.722   8.832
 1317POPC   D2A20128  30.242  37.478   8.430
 1317POPC   C3A20129  30.218  37.648   8.017
 1317POPC   C4A20130  29.981  37.431   7.701
 1317POPC   C1B20131  29.744  37.848   8.878
 1317POPC   C2B20132  29.738  37.995   8.446
 1317POPC   C3B20133  29.733  37.833   8.041
 1317POPC   C4B20134  29.921  37.933   7.665
 1318POPC   NC320135  31.791  23.334   9.578
 1318POPC   PO420136  31.300  22.918   9.627
 1318POPC   GL120137  31.281  22.923   9.213
 1318POPC   GL220138  31.587  22.768   9.188
 1318POPC   C1A20139  31.097  22.906   8.821
 1318POPC   D2A20140  31.118  22.652   8.457
 1318POPC   C3A20141  31.066  22.901   8.109
 1318POPC   C4A20142  31.318  23.060   7.745
 1318POPC   C1B20143  31.555  22.683   8.752
 1318POPC   C2B20144  31.579  22.862   8.350
 1318POPC   C3B20145  31.479  22.634   7.997
 1318POPC   C4B20146  31.668  22.608   7.636
 1319POPC   NC320147  41.163  28.035   9.437
 1319POPC   PO420148  40.601  27.629   9.442
 1319POPC   GL120149  40.769  27.552   9.053
 1319POPC   GL220150  41.072  27.717   9.046
 1319POPC   C1A20151  40.645  27.363   8.618
 1319POPC   D2A20152  40.479  27.232   8.214
 1319POPC   C3A20153  40.606  27.464   7.839
 1319POPC   C4A20154  40.617  27.925   7.758
 1319POPC   C1B20155  40.968  27.752   8.615
 1319POPC   C2B20156  40.884  27.700   8.195
 1319POPC   C3B20157  41.059  27.697   7.800
 1319POPC   C4B20158  41.126  27.342   7.647
 1320POPC   NC320159  14.031  44.067   9.360
 1320POPC   PO420160  14.425  44.494   9.700
 1320POPC   GL120161  14.335  44.423   9.162
 1320POPC   GL220162  14.411  44.039   9.005
 1320POPC   C1A20163  14.253  44.358   8.661
 1320POPC   D2A20164  14.456  43.993   8.358
 1320POPC   C3A20165  14.247  43.882   7.907
 1320POPC   C4A20166  14.165  43.929   7.424
 1320POPC   C1B20167  14.596  43.645   8.772
 1320POPC   C2B20168  14.588  43.423   8.374
 1320POPC   C3B20169  14.686  43.630   7.984
 1320POPC   C4B20170  14.565  43.642   7.578
 1321POPC   NC320171  12.563   1.011   9.504
 1321POPC   PO420172  13.059   1.503   9.462
 1321POPC   GL120173  12.963   1.355   9.102
 1321POPC   GL220174  12.958   1.038   9.159
 1321POPC   C1A20175  12.787   1.464   8.735
 1321POPC   D2A20176  12.733   1.286   8.356
 1321POPC   C3A20177  12.605   1.517   8.004
 1321POPC   C4A20178  12.737   1.324   7.666
 1321POPC   C1B20179  12.804   0.881   8.784
 1321POPC   C2B20180  12.930   0.790   8.399
 1321POPC   C3B20181  12.990   0.950   8.019
 1321POPC   C4B20182  12.806   0.781   7.665
 1322POPC   NC320183   4.087  41.641   9.605
 1322POPC   PO420184   4.687  41.439   9.423
 1322POPC   GL120185   4.411  41.629   9.140
 1322POPC   GL220186   4.544  41.929   8.947
 1322POPC   C1A20187   4.130  41.675   8.787
 1322POPC   D2A20188   3.871  41.657   8.402
 1322POPC   C3A20189   3.945  41.489   7.992
 1322POPC   C4A20190   4.101  41.884   7.777
 1322POPC   C1B20191   4.616  41.508   8.699
 1322POPC   C2B20192   4.340  41.367   8.417
 1322POPC   C3B20193   4.404  41.622   8.095
 1322POPC   C4B20194   4.432  41.346   7.742
 1323POPC   NC320195  32.702  12.977   9.470
 1323POPC   PO420196  33.327  13.112   9.382
 1323POPC   GL120197  33.130  12.834   9.082
 1323POPC   GL220198  32.798  12.784   9.014
 1323POPC   C1A20199  33.185  12.584   8.732
 1323POPC   D2A20200  33.363  12.775   8.368
 1323POPC   C3A20201  33.246  12.728   7.925
 1323POPC   C4A20202  33.397  12.644   7.507
 1323POPC   C1B20203  32.929  13.029   8.652
 1323POPC   C2B20204  32.854  12.928   8.220
 1323POPC   C3B20205  32.787  13.001   7.780
 1323POPC   C4B20206  32.610  13.050   7.349
 1324POPC   NC320207  44.194   3.369   9.463
 1324POPC   PO420208  44.748   3.586   9.688
 1324POPC   GL120209  44.659   3.483   9.236
 1324POPC   GL220210  44.895   3.336   8.981
 1324POPC   C1A20211  44.523   3.682   8.845
 1324POPC   D2A20212  44.668   3.724   8.415
 1324POPC   C3A20213  44.527   3.497   8.039
 1324POPC   C4A20214  44.374   3.793   7.757
 1324POPC   C1B20215   0.084   3.655   8.770
 1324POPC   C2B20216   0.168   3.684   8.350
 1324POPC   C3B20217  44.972   3.790   7.974
 1324POPC   C4B20218  44.878   3.548   7.625
 1325POPC   NC320219  24.101  15.963   9.682
 1325POPC   PO420220  23.486  15.917   9.543
 1325POPC   GL120221  23.803  15.937   9.237
 1325POPC   GL220222  23.575  16.138   9.025
 1325POPC   C1A20223  24.014  15.848   8.859
 1325POPC   D2A20224  23.901  16.102   8.512
 1325POPC   C3A20225  23.742  15.927   8.155
 1325POPC   C4A20226  23.966  15.866   7.766
 1325POPC   C1B20227  23.507  15.834   8.685
 1325POPC   C2B20228  23.405  15.542   8.355
 1325POPC   C3B20229  23.334  15.716   7.945
 1325POPC   C4B20230  23.502  16.105   7.746
 1326POPC   NC320231  23.206  28.442   9.462
 1326POPC   PO420232  23.799  28.558   9.618
 1326POPC   GL120233  23.774  28.410   9.209
 1326POPC   GL220234  23.463  28.236   9.060
 1326POPC   C1A20235  23.846  28.402   8.782
 1326POPC   D2A20236  23.491  28.400   8.483
 1326POPC   C3A20237  23.683  28.420   8.099
 1326POPC   C4A20238  23.739  28.320   7.685
 1326POPC   C1B20239  23.600  27.956   8.698
 1326POPC   C2B20240  23.629  27.890   8.245
 1326POPC   C3B20241  23.715  27.837   7.811
 1326POPC   C4B20242  23.922  27.871   7.415
 1327POPC   NC320243  13.252   1.093   9.571
 1327POPC   PO420244  13.904   0.971   9.498
 1327POPC   GL120245  13.755   1.124   9.114
 1327POPC   GL220246  13.490   1.338   9.199
 1327POPC   C1A20247  13.767   1.091   8.666
 1327POPC   D2A20248  13.972   1.222   8.313
 1327POPC   C3A20249  13.644   1.368   8.085
 1327POPC   C4A20250  13.732   1.184   7.714
 1327POPC   C1B20251  13.388   1.431   8.795
 1327POPC   C2B20252  13.240   1.249   8.429
 1327POPC   C3B20253  13.136   1.443   8.041
 1327POPC   C4B20254  13.233   1.257   7.675
 1328POPC   NC320255  21.021   5.076   9.594
 1328POPC   PO420256  21.303   5.563   9.492
 1328POPC   GL120257  21.233   5.235   9.150
 1328POPC   GL220258  21.446   4.910   9.176
 1328POPC   C1A20259  21.162   5.018   8.743
 1328POPC   D2A20260  21.397   5.009   8.349
 1328POPC   C3A20261  21.197   5.008   7.941
 1328POPC   C4A20262  20.958   5.365   7.767
 1328POPC   C1B20263  21.670   5.131   8.806
 1328POPC   C2B20264  21.907   5.003   8.411
 1328POPC   C3B20265  21.743   4.967   7.979
 1328POPC   C4B20266  21.572   5.374   7.867
 1329POPC   NC320267  31.897  26.367   9.335
 1329POPC   PO420268  32.093  27.026   9.437
 1329POPC   GL120269  32.173  26.751   9.122
 1329POPC   GL220270  31.873  26.844   8.962
 1329POPC   C1A20271  32.378  26.800   8.729
 1329POPC   D2A20272  32.521  26.976   8.379
 1329POPC   C3A20273  32.202  26.977   8.081
 1329POPC   C4A20274  32.448  26.991   7.732
 1329POPC   C1B20275  31.931  26.492   8.667
 1329POPC   C2B20276  32.031  26.236   8.303
 1329POPC   C3B20277  32.061  26.278   7.872
 1329POPC   C4B20278  32.102  26.638   7.649
 1330POPC   NC320279   1.051  10.546   9.590
 1330POPC   PO420280   0.927  10.310   9.044
 1330POPC   GL120281   1.175  10.636   9.066
 1330POPC   GL220282   1.497  10.482   9.193
 1330POPC   C1A20283   1.188  10.862   8.664
 1330POPC   D2A20284   1.323  10.976   8.268
 1330POPC   C3A20285   1.081  10.723   7.966
 1330POPC   C4A20286   0.886  10.290   7.853
 1330POPC   C1B20287   1.493  10.421   8.724
 1330POPC   C2B20288   1.577  10.469   8.269
 1330POPC   C3B20289   1.433  10.369   7.843
 1330POPC   C4B20290   1.333  10.678   7.506
 1331POPC   NC320291  40.321  18.971   9.442
 1331POPC   PO420292  39.708  19.285   9.429
 1331POPC   GL120293  39.941  19.086   9.080
 1331POPC   GL220294  40.272  19.260   9.046
 1331POPC   C1A20295  39.956  19.122   8.622
 1331POPC   D2A20296  39.767  19.370   8.285
 1331POPC   C3A20297  39.750  19.127   7.890
 1331POPC   C4A20298  39.840  18.777   7.609
 1331POPC   C1B20299  40.474  19.215   8.689
 1331POPC   C2B20300  40.372  19.094   8.282
 1331POPC   C3B20301  40.231  18.928   7.911
 1331POPC   C4B20302  40.156  19.165   7.529
 1332POPC   NC320303  44.652  21.280   9.611
 1332POPC   PO420304  44.712  21.951   9.568
 1332POPC   GL120305  44.779  21.619   9.233
 1332POPC   GL220306  44.471  21.441   9.124
 1332POPC   C1A20307  44.871  21.475   8.791
 1332POPC   D2A20308  44.567  21.311   8.479
 1332POPC   C3A20309  44.619  21.389   8.049
 1332POPC   C4A20310  44.721  21.498   7.638
 1332POPC   C1B20311  44.219  21.593   8.751
 1332POPC   C2B20312  44.285  21.733   8.288
 1332POPC   C3B20313  44.226  21.636   7.809
 1332POPC   C4B20314  44.329  21.643   7.341
 1333POPC   NC320315  40.190  42.077   9.436
 1333POPC   PO420316  39.748  42.556   9.311
 1333POPC   GL120317  40.114  42.436   9.068
 1333POPC   GL220318  40.176  42.078   8.938
 1333POPC   C1A20319  40.326  42.464   8.663
 1333POPC   D2A20320  40.337  42.233   8.290
 1333POPC   C3A20321  40.136  42.402   7.923
 1333POPC   C4A20322  40.192  42.584   7.504
 1333POPC   C1B20323  39.825  42.239   8.698
 1333POPC   C2B20324  39.780  42.131   8.298
 1333POPC   C3B20325  40.009  41.914   8.048
 1333POPC   C4B20326  39.887  41.954   7.679
 1334POPC   NC320327  43.563   8.183   9.481
 1334POPC   PO420328  42.941   8.349   9.550
 1334POPC   GL120329  43.163   8.232   9.152
 1334POPC   GL220330  43.418   8.499   9.118
 1334POPC   C1A20331  43.052   7.948   8.795
 1334POPC   D2A20332  42.786   7.872   8.469
 1334POPC   C3A20333  43.009   8.055   8.135
 1334POPC   C4A20334  43.302   8.176   7.782
 1334POPC   C1B20335  43.400   8.311   8.684
 1334POPC   C2B20336  43.288   8.462   8.280
 1334POPC   C3B20337  43.021   8.535   7.954
 1334POPC   C4B20338  42.995   8.521   7.496
 1335POPC   NC320339   2.462  40.562   9.510
 1335POPC   PO420340   2.955  40.924   9.472
 1335POPC   GL120341   2.783  40.730   9.119
 1335POPC   GL220342   2.491  40.903   9.023
 1335POPC   C1A20343   2.639  40.537   8.748
 1335POPC   D2A20344   2.527  40.731   8.384
 1335POPC   C3A20345   2.789  40.780   8.043
 1335POPC   C4A20346   2.801  40.614   7.674
 1335POPC   C1B20347   2.246  41.009   8.696
 1335POPC   C2B20348   2.047  40.897   8.307
 1335POPC   C3B20349   2.280  40.792   7.939
 1335POPC   C4B20350   2.504  41.122   7.774
 1336POPC   NC320351  44.202  28.216   9.560
 1336POPC   PO420352  43.613  28.564   9.526
 1336POPC   GL120353  43.740  28.354   9.131
 1336POPC   GL220354  43.588  28.017   9.042
 1336POPC   C1A20355  43.764  28.438   8.668
 1336POPC   D2A20356  43.659  28.283   8.227
 1336POPC   C3A20357  43.839  28.474   7.832
 1336POPC   C4A20358  43.664  28.518   7.406
 1336POPC   C1B20359  43.986  27.981   8.789
 1336POPC   C2B20360  44.084  27.874   8.346
 1336POPC   C3B20361  43.936  27.965   7.908
 1336POPC   C4B20362  43.559  28.059   7.677
 1337POPC   NC320363  29.570  31.920   9.577
 1337POPC   PO420364  30.186  32.262   9.440
 1337POPC   GL120365  30.091  32.269   9.053
 1337POPC   GL220366  29.809  32.077   9.125
 1337POPC   C1A20367  29.983  32.469   8.649
 1337POPC   D2A20368  30.306  32.564   8.315
 1337POPC   C3A20369  30.197  32.482   7.926
 1337POPC   C4A20370  29.888  32.221   7.727
 1337POPC   C1B20371  29.955  31.964   8.693
 1337POPC   C2B20372  30.027  32.117   8.284
 1337POPC   C3B20373  30.243  31.939   7.992
 1337POPC   C4B20374  29.949  31.724   7.753
 1338POPC   NC320375   6.743  13.109   9.796
 1338POPC   PO420376   6.536  13.746   9.505
 1338POPC   GL120377   6.310  13.772   9.130
 1338POPC   GL220378   6.473  13.477   9.036
 1338POPC   C1A20379   6.489  13.857   8.722
 1338POPC   D2A20380   6.531  13.642   8.322
 1338POPC   C3A20381   6.472  13.843   7.929
 1338POPC   C4A20382   6.750  14.014   7.618
 1338POPC   C1B20383   6.857  13.487   8.722
 1338POPC   C2B20384   6.977  13.412   8.283
 1338POPC   C3B20385   6.854  13.459   7.864
 1338POPC   C4B20386   6.464  13.382   7.678
 1339POPC   NC320387  17.825  39.890   9.722
 1339POPC   PO420388  17.274  39.681   9.349
 1339POPC   GL120389  17.458  39.988   9.135
 1339POPC   GL220390  17.820  40.040   9.199
 1339POPC   C1A20391  17.481  40.235   8.791
 1339POPC   D2A20392  17.764  40.268   8.438
 1339POPC   C3A20393  17.564  40.195   8.036
 1339POPC   C4A20394  17.423  40.142   7.612
 1339POPC   C1B20395  17.813  39.850   8.774
 1339POPC   C2B20396  17.527  39.811   8.445
 1339POPC   C3B20397  17.664  39.699   8.046
 1339POPC   C4B20398  17.553  39.653   7.638
 1340POPC   NC320399  10.561   4.875   9.670
 1340POPC   PO420400  10.732   4.191   9.498
 1340POPC   GL120401  10.384   4.059   9.242
 1340POPC   GL220402  10.363   4.423   9.143
 1340POPC   C1A20403  10.335   4.011   8.809
 1340POPC   D2A20404  10.630   4.236   8.538
 1340POPC   C3A20405  10.655   4.229   8.102
 1340POPC   C4A20406  10.542   4.032   7.739
 1340POPC   C1B20407  10.149   4.520   8.766
 1340POPC   C2B20408  10.214   4.665   8.351
 1340POPC   C3B20409  10.203   4.451   7.958
 1340POPC   C4B20410  10.496   4.538   7.636
 1341POPC   NC320411  33.499  44.175   9.404
 1341POPC   PO420412  33.342  43.590   9.471
 1341POPC   GL120413  33.615  43.758   9.123
 1341POPC   GL220414  33.950  43.916   9.196
 1341POPC   C1A20415  33.696  44.027   8.748
 1341POPC   D2A20416  33.526  43.950   8.355
 1341POPC   C3A20417  33.736  44.102   8.028
 1341POPC   C4A20418  33.851  43.909   7.677
 1341POPC   C1B20419  34.179  44.160   8.854
 1341POPC   C2B20420  34.056  44.260   8.426
 1341POPC   C3B20421  34.204  44.320   8.009
 1341POPC   C4B20422  34.208  44.245   7.581
 1342POPC   NC320423  37.960  41.278   9.557
 1342POPC   PO420424  37.369  41.532   9.502
 1342POPC   GL120425  37.601  41.573   9.156
 1342POPC   GL220426  37.939  41.654   9.195
 1342POPC   C1A20427  37.484  41.692   8.759
 1342POPC   D2A20428  37.534  41.425   8.430
 1342POPC   C3A20429  37.454  41.634   8.069
 1342POPC   C4A20430  37.463  41.434   7.675
 1342POPC   C1B20431  37.966  41.426   8.780
 1342POPC   C2B20432  38.041  41.513   8.321
 1342POPC   C3B20433  37.914  41.548   7.874
 1342POPC   C4B20434  37.846  41.569   7.384
 1343POPC   NC320435  43.448  33.163   9.850
 1343POPC   PO420436  42.979  33.009   9.369
 1343POPC   GL120437  43.018  33.276   9.045
 1343POPC   GL220438  42.945  32.982   8.841
 1343POPC   C1A20439  43.279  33.322   8.676
 1343POPC   D2A20440  43.278  33.052   8.323
 1343POPC   C3A20441  43.155  33.277   7.990
 1343POPC   C4A20442  42.883  33.152   7.721
 1343POPC   C1B20443  43.364  32.795   8.755
 1343POPC   C2B20444  43.462  32.536   8.370
 1343POPC   C3B20445  43.316  32.705   7.941
 1343POPC   C4B20446  43.488  32.819   7.534
 1344POPC   NC320447  25.643  19.023   9.382
 1344POPC   PO420448  25.093  18.864   9.714
 1344POPC   GL120449  25.154  18.921   9.262
 1344POPC   GL220450  25.152  19.258   9.186
 1344POPC   C1A20451  25.317  18.798   8.850
 1344POPC   D2A20452  25.342  18.965   8.424
 1344POPC   C3A20453  25.182  18.717   8.081
 1344POPC   C4A20454  25.213  18.700   7.616
 1344POPC   C1B20455  24.981  19.192   8.766
 1344POPC   C2B20456  24.874  19.206   8.322
 1344POPC   C3B20457  25.040  19.216   7.908
 1344POPC   C4B20458  24.852  19.471   7.538
 1345POPC   NC320459   9.865   1.231   9.479
 1345POPC   PO420460  10.136   0.740   9.204
 1345POPC   GL120461   9.833   1.054   9.012
 1345POPC   GL220462   9.464   1.075   9.156
 1345POPC   C1A20463   9.715   1.370   8.714
 1345POPC   D2A20464   9.462   1.403   8.343
 1345POPC   C3A20465   9.714   1.318   7.956
 1345POPC   C4A20466   9.717   1.506   7.541
 1345POPC   C1B20467   9.366   0.997   8.738
 1345POPC   C2B20468   9.627   0.915   8.395
 1345POPC   C3B20469   9.475   0.874   8.001
 1345POPC   C4B20470   9.398   1.008   7.557
 1346POPC   NC320471  30.784  25.574   9.432
 1346POPC   PO420472  30.861  26.153   9.473
 1346POPC   GL120473  30.749  25.979   9.105
 1346POPC   GL220474  30.406  25.943   9.202
 1346POPC   C1A20475  30.900  26.084   8.694
 1346POPC   D2A20476  31.032  26.408   8.399
 1346POPC   C3A20477  30.946  26.305   7.947
 1346POPC   C4A20478  30.783  25.897   7.788
 1346POPC   C1B20479  30.402  26.220   8.808
 1346POPC   C2B20480  30.503  26.190   8.371
 1346POPC   C3B20481  30.412  26.262   7.950
 1346POPC   C4B20482  30.579  26.326   7.569
 1347POPC   NC320483   8.900  44.862   9.358
 1347POPC   PO420484   9.119  44.365   9.600
 1347POPC   GL120485   9.150  44.417   9.153
 1347POPC   GL220486   9.349  44.711   9.110
 1347POPC   C1A20487   8.939  44.326   8.742
 1347POPC   D2A20488   8.733  44.434   8.352
 1347POPC   C3A20489   8.973  44.479   7.997
 1347POPC   C4A20490   9.321  44.706   7.905
 1347POPC   C1B20491   9.154  44.796   8.723
 1347POPC   C2B20492   9.076  44.881   8.314
 1347POPC   C3B20493   8.747  44.955   8.066
 1347POPC   C4B20494   8.648  44.774   7.681
 1348POPC   NC320495  30.135  42.195   9.362
 1348POPC   PO420496  29.508  42.484   9.492
 1348POPC   GL120497  29.744  42.429   9.114
 1348POPC   GL220498  30.048  42.567   9.027
 1348POPC   C1A20499  29.796  42.214   8.715
 1348POPC   D2A20500  29.974  42.108   8.345
 1348POPC   C3A20501  29.817  42.271   7.987
 1348POPC   C4A20502  29.802  42.104   7.552
 1348POPC   C1B20503  30.260  42.674   8.665
 1348POPC   C2B20504  30.004  42.638   8.342
 1348POPC   C3B20505  30.133  42.661   7.923
 1348POPC   C4B20506  29.842  42.641   7.598
 1349POPC   NC320507   2.532   5.893   9.465
 1349POPC   PO420508   3.243   5.704   9.396
 1349POPC   GL120509   2.970   5.822   9.073
 1349POPC   GL220510   2.661   6.050   9.018
 1349POPC   C1A20511   2.739   5.635   8.736
 1349POPC   D2A20512   2.505   5.783   8.392
 1349POPC   C3A20513   2.758   5.884   8.046
 1349POPC   C4A20514   2.971   5.763   7.674
 1349POPC   C1B20515   2.908   6.194   8.724
 1349POPC   C2B20516   2.908   6.348   8.348
 1349POPC   C3B20517   2.646   6.385   8.015
 1349POPC   C4B20518   2.584   6.158   7.648
 1350POPC   NC320519  20.960  20.438   9.491
 1350POPC   PO420520  20.303  20.655   9.448
 1350POPC   GL120521  20.612  20.586   9.148
 1350POPC   GL220522  20.860  20.831   9.129
 1350POPC   C1A20523  20.754  20.452   8.745
 1350POPC   D2A20524  20.600  20.277   8.369
 1350POPC   C3A20525  20.648  20.612   8.068
 1350POPC   C4A20526  20.886  20.696   7.719
 1350POPC   C1B20527  20.528  20.920   8.786
 1350POPC   C2B20528  20.471  21.022   8.360
 1350POPC   C3B20529  20.218  20.882   8.006
 1350POPC   C4B20530  20.418  20.862   7.615
 1351POPC   NC320531  11.914   4.169   9.421
 1351POPC   PO420532  12.218   4.799   9.557
 1351POPC   GL120533  12.225   4.513   9.158
 1351POPC   GL220534  12.171   4.178   8.991
 1351POPC   C1A20535  11.960   4.553   8.747
 1351POPC   D2A20536  11.815   4.818   8.412
 1351POPC   C3A20537  11.893   4.740   7.993
 1351POPC   C4A20538  12.095   4.410   7.786
 1351POPC   C1B20539  12.088   4.018   8.607
 1351POPC   C2B20540  12.198   4.002   8.175
 1351POPC   C3B20541  12.015   3.900   7.790
 1351POPC   C4B20542  11.797   3.679   7.476
 1352POPC   NC320543  44.609  11.499   9.488
 1352POPC   PO420544  44.232  10.873   9.668
 1352POPC   GL120545  44.390  11.066   9.234
 1352POPC   GL220546  44.723  11.252   9.063
 1352POPC   C1A20547  44.345  11.180   8.780
 1352POPC   D2A20548  44.696  11.159   8.510
 1352POPC   C3A20549  44.719  11.248   8.071
 1352POPC   C4A20550  44.611  11.331   7.628
 1352POPC   C1B20551  44.681  11.615   8.789
 1352POPC   C2B20552  44.833  11.760   8.368
 1352POPC   C3B20553  44.868  11.703   7.915
 1352POPC   C4B20554  44.882  11.746   7.450
 1353POPC   NC320555  31.512  10.229   9.595
 1353POPC   PO420556  30.868  10.308   9.493
 1353POPC   GL120557  31.218  10.274   9.183
 1353POPC   GL220558  31.306  10.629   9.130
 1353POPC   C1A20559  31.579  10.276   8.892
 1353POPC   D2A20560  31.612  10.375   8.464
 1353POPC   C3A20561  31.448  10.127   8.155
 1353POPC   C4A20562  31.321  10.275   7.772
 1353POPC   C1B20563  31.600  10.786   8.785
 1353POPC   C2B20564  31.528  10.875   8.339
 1353POPC   C3B20565  31.524  10.765   7.883
 1353POPC   C4B20566  31.305  10.856   7.495
 1354POPC   NC320567  14.282  14.916   9.618
 1354POPC   PO420568  14.866  14.682   9.545
 1354POPC   GL120569  14.548  14.744   9.190
 1354POPC   GL220570  14.444  15.099   9.148
 1354POPC   C1A20571  14.416  14.827   8.728
 1354POPC   D2A20572  14.270  15.037   8.345
 1354POPC   C3A20573  14.457  14.958   7.946
 1354POPC   C4A20574  14.375  14.830   7.530
 1354POPC   C1B20575  14.357  15.354   8.756
 1354POPC   C2B20576  14.326  15.560   8.349
 1354POPC   C3B20577  14.215  15.440   7.913
 1354POPC   C4B20578  14.139  15.694   7.512
 1355POPC   NC320579  11.614  32.304   9.654
 1355POPC   PO420580  11.150  32.074   9.321
 1355POPC   GL120581  11.336  32.018   8.969
 1355POPC   GL220582  11.562  31.818   8.942
 1355POPC   C1A20583  11.292  32.113   8.567
 1355POPC   D2A20584  11.152  32.337   8.248
 1355POPC   C3A20585  11.410  32.345   7.913
 1355POPC   C4A20586  11.146  32.253   7.565
 1355POPC   C1B20587  11.763  31.789   8.625
 1355POPC   C2B20588  11.689  31.972   8.264
 1355POPC   C3B20589  11.864  32.084   7.921
 1355POPC   C4B20590  11.585  31.955   7.629
 1356POPC   NC320591  22.414  18.808   9.425
 1356POPC   PO420592  21.850  19.269   9.526
 1356POPC   GL120593  21.976  19.032   9.188
 1356POPC   GL220594  22.299  19.152   9.067
 1356POPC   C1A20595  21.993  18.909   8.766
 1356POPC   D2A20596  22.199  18.759   8.399
 1356POPC   C3A20597  21.897  18.743   8.112
 1356POPC   C4A20598  21.818  18.866   7.735
 1356POPC   C1B20599  22.522  19.005   8.701
 1356POPC   C2B20600  22.653  19.123   8.282
 1356POPC   C3B20601  22.693  18.842   7.930
 1356POPC   C4B20602  22.322  18.802   7.732
 1357POPC   NC320603   3.253   1.587   9.409
 1357POPC   PO420604   3.671   2.046   9.415
 1357POPC   GL120605   3.629   1.746   9.101
 1357POPC   GL220606   3.945   1.662   8.990
 1357POPC   C1A20607   3.330   1.877   8.783
 1357POPC   D2A20608   3.439   2.222   8.498
 1357POPC   C3A20609   3.457   2.028   8.097
 1357POPC   C4A20610   3.311   1.839   7.705
 1357POPC   C1B20611   3.794   1.827   8.595
 1357POPC   C2B20612   3.937   2.142   8.321
 1357POPC   C3B20613   3.922   2.164   7.884
 1357POPC   C4B20614   3.556   2.283   7.662
 1358POPC   NC320615   1.686  41.336   9.330
 1358POPC   PO420616   2.087  41.844   9.540
 1358POPC   GL120617   2.347  41.653   9.219
 1358POPC   GL220618   2.177  41.335   9.088
 1358POPC   C1A20619   2.245  41.725   8.770
 1358POPC   D2A20620   1.973  41.800   8.418
 1358POPC   C3A20621   2.143  41.638   8.043
 1358POPC   C4A20622   1.983  41.890   7.736
 1358POPC   C1B20623   1.871  41.346   8.699
 1358POPC   C2B20624   1.749  41.357   8.260
 1358POPC   C3B20625   1.653  41.511   7.865
 1358POPC   C4B20626   1.457  41.267   7.552
 1359POPC   NC320627   9.481  38.051   9.421
 1359POPC   PO420628   9.650  38.765   9.498
 1359POPC   GL120629   9.713  38.617   9.099
 1359POPC   GL220630   9.489  38.848   8.969
 1359POPC   C1A20631   9.685  38.252   8.808
 1359POPC   D2A20632   9.586  38.117   8.387
 1359POPC   C3A20633   9.843  38.331   8.105
 1359POPC   C4A20634  10.103  38.400   7.782
 1359POPC   C1B20635   9.483  39.104   8.582
 1359POPC   C2B20636   9.251  38.863   8.262
 1359POPC   C3B20637   9.359  38.490   8.072
 1359POPC   C4B20638   9.613  38.500   7.682
 1360POPC   NC320639  34.823  35.468   9.674
 1360POPC   PO420640  34.855  34.892   9.325
 1360POPC   GL120641  34.520  35.089   9.104
 1360POPC   GL220642  34.438  34.749   8.942
 1360POPC   C1A20643  34.498  35.473   8.815
 1360POPC   D2A20644  34.837  35.729   8.594
 1360POPC   C3A20645  34.880  35.669   8.153
 1360POPC   C4A20646  34.619  35.514   7.802
 1360POPC   C1B20647  34.657  35.026   8.637
 1360POPC   C2B20648  34.571  35.287   8.314
 1360POPC   C3B20649  34.480  35.037   7.999
 1360POPC   C4B20650  34.268  35.160   7.655
 1361POPC   NC320651  22.375  28.139   9.725
 1361POPC   PO420652  21.902  28.466   9.456
 1361POPC   GL120653  22.023  28.553   9.068
 1361POPC   GL220654  22.309  28.356   9.140
 1361POPC   C1A20655  21.868  28.449   8.671
 1361POPC   D2A20656  21.872  28.087   8.401
 1361POPC   C3A20657  22.102  28.236   8.047
 1361POPC   C4A20658  22.184  28.418   7.639
 1361POPC   C1B20659  22.253  28.078   8.770
 1361POPC   C2B20660  22.556  27.975   8.444
 1361POPC   C3B20661  22.399  27.802   8.084
 1361POPC   C4B20662  22.351  27.954   7.686
 1362POPC   NC320663  10.333  22.372   9.486
 1362POPC   PO420664  10.705  21.935   9.629
 1362POPC   GL120665  10.578  21.997   9.213
 1362POPC   GL220666  10.260  21.850   9.063
 1362POPC   C1A20667  10.663  22.075   8.794
 1362POPC   D2A20668  10.403  21.909   8.474
 1362POPC   C3A20669  10.461  22.181   8.136
 1362POPC   C4A20670  10.696  22.334   7.789
 1362POPC   C1B20671  10.203  22.272   8.844
 1362POPC   C2B20672  10.264  22.546   8.487
 1362POPC   C3B20673  10.136  22.592   8.057
 1362POPC   C4B20674  10.133  22.280   7.752
 1363POPC   NC320675   7.764  15.813   9.476
 1363POPC   PO420676   7.127  15.862   9.264
 1363POPC   GL120677   7.493  16.060   9.127
 1363POPC   GL220678   7.685  16.373   9.098
 1363POPC   C1A20679   7.496  15.862   8.739
 1363POPC   D2A20680   7.139  15.894   8.494
 1363POPC   C3A20681   7.274  15.932   8.114
 1363POPC   C4A20682   7.100  16.069   7.755
 1363POPC   C1B20683   7.928  16.101   8.824
 1363POPC   C2B20684   7.936  15.767   8.490
 1363POPC   C3B20685   7.804  15.807   8.064
 1363POPC   C4B20686   7.637  16.008   7.724
 1364POPC   NC320687   6.365  31.481   9.556
 1364POPC   PO420688   5.775  31.163   9.649
 1364POPC   GL120689   5.795  31.449   9.254
 1364POPC   GL220690   6.025  31.758   9.266
 1364POPC   C1A20691   5.902  31.393   8.808
 1364POPC   D2A20692   6.210  31.201   8.463
 1364POPC   C3A20693   6.102  31.123   8.008
 1364POPC   C4A20694   5.971  31.277   7.596
 1364POPC   C1B20695   5.946  31.901   8.843
 1364POPC   C2B20696   5.811  31.720   8.427
 1364POPC   C3B20697   5.883  31.613   7.990
 1364POPC   C4B20698   5.762  31.754   7.584
 1365POPC   NC320699  42.826  25.679   9.435
 1365POPC   PO420700  43.201  25.087   9.484
 1365POPC   GL120701  42.952  25.201   9.154
 1365POPC   GL220702  43.135  25.454   9.036
 1365POPC   C1A20703  42.749  25.026   8.789
 1365POPC   D2A20704  42.815  24.870   8.374
 1365POPC   C3A20705  42.779  25.155   8.012
 1365POPC   C4A20706  42.918  25.441   7.663
 1365POPC   C1B20707  43.073  25.363   8.586
 1365POPC   C2B20708  43.123  25.483   8.159
 1365POPC   C3B20709  43.218  25.790   7.864
 1365POPC   C4B20710  43.269  25.769   7.419
 1366POPC   NC320711  25.904  30.570   9.568
 1366POPC   PO420712  25.773  31.154   9.437
 1366POPC   GL120713  25.737  30.736   9.123
 1366POPC   GL220714  25.744  30.335   9.138
 1366POPC   C1A20715  26.099  30.544   8.851
 1366POPC   D2A20716  26.365  30.757   8.571
 1366POPC   C3A20717  26.340  30.768   8.128
 1366POPC   C4A20718  26.170  30.521   7.819
 1366POPC   C1B20719  25.620  30.440   8.706
 1366POPC   C2B20720  25.901  30.598   8.349
 1366POPC   C3B20721  25.881  30.914   7.979
 1366POPC   C4B20722  25.849  30.819   7.529
 1367POPC   NC320723   5.511  11.945   9.452
 1367POPC   PO420724   4.919  12.339   9.322
 1367POPC   GL120725   5.072  11.920   9.138
 1367POPC   GL220726   4.897  11.580   9.143
 1367POPC   C1A20727   5.169  11.931   8.690
 1367POPC   D2A20728   4.956  12.209   8.357
 1367POPC   C3A20729   5.189  12.228   7.967
 1367POPC   C4A20730   5.552  12.278   7.709
 1367POPC   C1B20731   4.711  11.699   8.742
 1367POPC   C2B20732   4.894  11.699   8.311
 1367POPC   C3B20733   4.833  11.877   7.916
 1367POPC   C4B20734   4.978  11.746   7.496
 1368POPC   NC320735  29.374  19.755   9.406
 1368POPC   PO420736  28.922  20.213   9.423
 1368POPC   GL120737  29.001  19.909   9.112
 1368POPC   GL220738  28.743  19.764   9.007
 1368POPC   C1A20739  29.201  19.782   8.730
 1368POPC   D2A20740  29.422  19.796   8.332
 1368POPC   C3A20741  29.154  19.650   8.019
 1368POPC   C4A20742  29.122  19.797   7.614
 1368POPC   C1B20743  28.777  20.100   8.698
 1368POPC   C2B20744  28.976  20.028   8.307
 1368POPC   C3B20745  28.750  19.974   7.928
 1368POPC   C4B20746  28.630  19.780   7.538
 1369POPC   NC320747  39.373  43.971   9.523
 1369POPC   PO420748  39.767  43.468   9.323
 1369POPC   GL120749  39.380  43.655   9.144
 1369POPC   GL220750  39.475  44.010   9.036
 1369POPC   C1A20751  39.145  43.724   8.771
 1369POPC   D2A20752  38.880  43.674   8.409
 1369POPC   C3A20753  39.123  43.784   8.047
 1369POPC   C4A20754  39.031  43.557   7.680
 1369POPC   C1B20755  39.663  43.720   8.748
 1369POPC   C2B20756  39.489  43.553   8.398
 1369POPC   C3B20757  39.597  43.494   8.008
 1369POPC   C4B20758  39.502  43.741   7.681
 1370POPC   NC320759  24.955   5.190   9.581
 1370POPC   PO420760  25.662   5.163   9.607
 1370POPC   GL120761  25.383   5.231   9.268
 1370POPC   GL220762  25.188   4.934   9.163
 1370POPC   C1A20763  25.417   5.261   8.833
 1370POPC   D2A20764  25.223   5.393   8.469
 1370POPC   C3A20765  25.369   5.194   8.094
 1370POPC   C4A20766  25.231   5.305   7.689
 1370POPC   C1B20767  24.956   5.033   8.760
 1370POPC   C2B20768  24.767   5.149   8.380
 1370POPC   C3B20769  24.896   5.030   7.980
 1370POPC   C4B20770  24.826   4.636   7.808
 1371POPC   NC320771  40.629  41.201   9.537
 1371POPC   PO420772  40.934  41.844   9.447
 1371POPC   GL120773  40.820  41.520   9.159
 1371POPC   GL220774  41.029  41.202   9.214
 1371POPC   C1A20775  40.547  41.581   8.804
 1371POPC   D2A20776  40.655  41.834   8.462
 1371POPC   C3A20777  40.912  41.650   8.112
 1371POPC   C4A20778  40.724  41.753   7.714
 1371POPC   C1B20779  40.805  41.107   8.833
 1371POPC   C2B20780  40.903  41.241   8.432
 1371POPC   C3B20781  40.755  41.135   8.025
 1371POPC   C4B20782  40.969  41.313   7.691
 1372POPC   NC320783  42.686  33.362   9.468
 1372POPC   PO420784  42.287  33.965   9.546
 1372POPC   GL120785  42.439  33.857   9.153
 1372POPC   GL220786  42.187  33.588   9.152
 1372POPC   C1A20787  42.494  33.944   8.695
 1372POPC   D2A20788  42.499  34.221   8.327
 1372POPC   C3A20789  42.506  33.981   7.957
 1372POPC   C4A20790  42.580  33.547   7.836
 1372POPC   C1B20791  42.016  33.891   8.843
 1372POPC   C2B20792  42.044  34.252   8.546
 1372POPC   C3B20793  42.031  34.043   8.147
 1372POPC   C4B20794  42.048  34.023   7.702
 1373POPC   NC320795   2.511   8.508   9.477
 1373POPC   PO420796   3.138   8.242   9.417
 1373POPC   GL120797   2.793   8.187   9.145
 1373POPC   GL220798   2.727   8.487   9.031
 1373POPC   C1A20799   2.556   8.059   8.786
 1373POPC   D2A20800   2.519   8.217   8.391
 1373POPC   C3A20801   2.677   8.067   8.007
 1373POPC   C4A20802   2.610   8.321   7.646
 1373POPC   C1B20803   2.903   8.416   8.672
 1373POPC   C2B20804   2.953   8.629   8.316
 1373POPC   C3B20805   3.041   8.509   7.914
 1373POPC   C4B20806   3.138   8.138   7.743
 1374POPC   NC320807  14.613  35.702   9.874
 1374POPC   PO420808  14.267  35.118   9.612
 1374POPC   GL120809  14.339  35.324   9.230
 1374POPC   GL220810  14.500  35.655   9.282
 1374POPC   C1A20811  14.222  35.261   8.799
 1374POPC   D2A20812  14.365  35.123   8.406
 1374POPC   C3A20813  14.193  35.166   7.996
 1374POPC   C4A20814  14.501  35.094   7.682
 1374POPC   C1B20815  14.614  35.590   8.843
 1374POPC   C2B20816  14.389  35.630   8.429
 1374POPC   C3B20817  14.591  35.474   8.051
 1374POPC   C4B20818  14.669  35.601   7.621
 1375POPC   NC320819  39.950  24.830   9.536
 1375POPC   PO420820  40.205  24.250   9.514
 1375POPC   GL120821  40.089  24.528   9.145
 1375POPC   GL220822  40.275  24.830   9.049
 1375POPC   C1A20823  39.832  24.678   8.792
 1375POPC   D2A20824  39.872  24.471   8.393
 1375POPC   C3A20825  40.009  24.603   7.983
 1375POPC   C4A20826  39.876  24.186   7.904
 1375POPC   C1B20827  40.324  24.526   8.700
 1375POPC   C2B20828  40.417  24.384   8.268
 1375POPC   C3B20829  40.501  24.453   7.815
 1375POPC   C4B20830  40.584  24.417   7.358
 1376POPC   NC320831   1.106  13.382   9.489
 1376POPC   PO420832   1.595  13.835   9.396
 1376POPC   GL120833   1.244  13.726   9.147
 1376POPC   GL220834   1.444  13.396   9.116
 1376POPC   C1A20835   1.023  13.491   8.802
 1376POPC   D2A20836   0.882  13.588   8.393
 1376POPC   C3A20837   0.977  13.364   8.005
 1376POPC   C4A20838   1.129  13.680   7.752
 1376POPC   C1B20839   1.521  13.627   8.741
 1376POPC   C2B20840   1.384  13.690   8.348
 1376POPC   C3B20841   1.578  13.869   8.002
 1376POPC   C4B20842   1.663  13.793   7.619
 1377POPC   NC320843  19.919  10.400   9.455
 1377POPC   PO420844  19.311  10.631   9.710
 1377POPC   GL120845  19.577  10.712   9.232
 1377POPC   GL220846  19.910  10.663   9.042
 1377POPC   C1A20847  19.518  10.590   8.752
 1377POPC   D2A20848  19.740  10.629   8.374
 1377POPC   C3A20849  19.489  10.552   8.035
 1377POPC   C4A20850  19.558  10.394   7.643
 1377POPC   C1B20851  20.075  10.904   8.717
 1377POPC   C2B20852  20.213  10.806   8.349
 1377POPC   C3B20853  20.175  10.502   8.060
 1377POPC   C4B20854  19.960  10.763   7.779
 1378POPC   NC320855  32.865   9.751   9.646
 1378POPC   PO420856  33.560   9.620   9.542
 1378POPC   GL120857  33.251   9.545   9.154
 1378POPC   GL220858  32.896   9.644   9.154
 1378POPC   C1A20859  33.120   9.672   8.697
 1378POPC   D2A20860  32.892   9.973   8.429
 1378POPC   C3A20861  33.064  10.018   8.020
 1378POPC   C4A20862  33.279   9.734   7.753
 1378POPC   C1B20863  32.655   9.488   8.787
 1378POPC   C2B20864  32.516   9.472   8.379
 1378POPC   C3B20865  32.610   9.680   7.982
 1378POPC   C4B20866  32.822   9.611   7.591
 1379POPC   NC320867  17.045   4.190   9.366
 1379POPC   PO420868  16.409   4.264   9.606
 1379POPC   GL120869  16.542   4.252   9.155
 1379POPC   GL220870  16.657   3.916   9.167
 1379POPC   C1A20871  16.759   4.511   8.791
 1379POPC   D2A20872  16.918   4.681   8.396
 1379POPC   C3A20873  16.743   4.574   8.022
 1379POPC   C4A20874  16.940   4.701   7.666
 1379POPC   C1B20875  16.894   4.037   8.779
 1379POPC   C2B20876  16.770   4.164   8.360
 1379POPC   C3B20877  16.768   4.049   7.920
 1379POPC   C4B20878  16.431   3.848   7.690
 1380POPC   NC320879  32.380  25.993   9.737
 1380POPC   PO420880  32.001  25.945   9.150
 1380POPC   GL120881  32.405  25.911   9.212
 1380POPC   GL220882  32.387  26.281   9.319
 1380POPC   C1A20883  32.512  25.649   8.857
 1380POPC   D2A20884  32.330  25.877   8.518
 1380POPC   C3A20885  32.462  25.963   8.096
 1380POPC   C4A20886  32.235  25.809   7.744
 1380POPC   C1B20887  32.400  26.329   8.868
 1380POPC   C2B20888  32.517  26.363   8.442
 1380POPC   C3B20889  32.467  26.527   8.051
 1380POPC   C4B20890  32.526  26.338   7.658
 1381POPC   NC320891  33.278  11.962   9.520
 1381POPC   PO420892  32.904  12.539   9.453
 1381POPC   GL120893  32.899  12.282   9.067
 1381POPC   GL220894  33.036  11.983   9.058
 1381POPC   C1A20895  32.892  12.181   8.594
 1381POPC   D2A20896  33.224  12.277   8.286
 1381POPC   C3A20897  33.149  12.234   7.835
 1381POPC   C4A20898  33.198  12.189   7.396
 1381POPC   C1B20899  33.328  11.927   8.711
 1381POPC   C2B20900  33.570  11.890   8.347
 1381POPC   C3B20901  33.464  11.837   7.920
 1381POPC   C4B20902  33.387  11.737   7.498
 1382POPC   NC320903   5.960  23.776   9.774
 1382POPC   PO420904   6.647  23.902   9.580
 1382POPC   GL120905   6.660  23.838   9.119
 1382POPC   GL220906   6.456  23.543   8.993
 1382POPC   C1A20907   6.602  23.892   8.671
 1382POPC   D2A20908   6.477  23.748   8.262
 1382POPC   C3A20909   6.705  24.013   7.928
 1382POPC   C4A20910   6.919  23.806   7.570
 1382POPC   C1B20911   6.682  23.248   8.756
 1382POPC   C2B20912   6.814  23.229   8.326
 1382POPC   C3B20913   6.848  23.529   8.012
 1382POPC   C4B20914   6.485  23.576   7.771
 1383POPC   NC320915  34.192  29.195   9.624
 1383POPC   PO420916  33.640  28.757   9.558
 1383POPC   GL120917  33.624  28.973   9.145
 1383POPC   GL220918  33.736  29.351   9.142
 1383POPC   C1A20919  33.712  29.075   8.707
 1383POPC   D2A20920  33.625  29.428   8.451
 1383POPC   C3A20921  33.706  29.281   8.073
 1383POPC   C4A20922  33.821  29.328   7.682
 1383POPC   C1B20923  34.014  29.508   8.772
 1383POPC   C2B20924  34.129  29.271   8.390
 1383POPC   C3B20925  34.186  29.133   7.963
 1383POPC   C4B20926  34.313  29.384   7.631
 1384POPC   NC320927  26.810   9.733   9.680
 1384POPC   PO420928  26.263   9.996   9.532
 1384POPC   GL120929  26.545   9.704   9.213
 1384POPC   GL220930  26.922   9.570   9.226
 1384POPC   C1A20931  26.663   9.521   8.795
 1384POPC   D2A20932  26.512   9.438   8.379
 1384POPC   C3A20933  26.711   9.684   8.067
 1384POPC   C4A20934  26.733   9.689   7.612
 1384POPC   C1B20935  27.164   9.502   8.872
 1384POPC   C2B20936  27.061   9.548   8.438
 1384POPC   C3B20937  27.165   9.493   7.985
 1384POPC   C4B20938  27.372   9.188   7.758
 1385POPC   NC320939  26.913   4.415   9.720
 1385POPC   PO420940  26.654   3.854   9.545
 1385POPC   GL120941  26.907   4.132   9.263
 1385POPC   GL220942  26.692   4.408   9.114
 1385POPC   C1A20943  27.063   4.226   8.839
 1385POPC   D2A20944  26.777   4.219   8.492
 1385POPC   C3A20945  26.947   4.031   8.139
 1385POPC   C4A20946  27.044   4.196   7.744
 1385POPC   C1B20947  26.518   4.634   8.719
 1385POPC   C2B20948  26.543   4.609   8.239
 1385POPC   C3B20949  26.660   4.515   7.789
 1385POPC   C4B20950  26.507   4.637   7.358
 1386POPC   NC320951  26.235  17.388   9.249
 1386POPC   PO420952  26.948  17.484   9.397
 1386POPC   GL120953  26.672  17.614   9.067
 1386POPC   GL220954  26.453  17.408   8.811
 1386POPC   C1A20955  26.735  17.765   8.646
 1386POPC   D2A20956  26.542  17.567   8.287
 1386POPC   C3A20957  26.717  17.842   7.978
 1386POPC   C4A20958  27.140  17.838   7.876
 1386POPC   C1B20959  26.918  17.285   8.767
 1386POPC   C2B20960  27.153  17.419   8.427
 1386POPC   C3B20961  26.967  17.378   8.055
 1386POPC   C4B20962  26.627  17.374   7.804
 1387POPC   NC320963  23.187  38.331   9.401
 1387POPC   PO420964  23.853  38.494   9.515
 1387POPC   GL120965  23.549  38.633   9.137
 1387POPC   GL220966  23.376  38.354   8.932
 1387POPC   C1A20967  23.641  38.703   8.667
 1387POPC   D2A20968  23.911  38.512   8.370
 1387POPC   C3A20969  23.957  38.682   7.967
 1387POPC   C4A20970  23.554  38.715   7.785
 1387POPC   C1B20971  23.799  38.180   8.802
 1387POPC   C2B20972  24.063  38.030   8.456
 1387POPC   C3B20973  23.877  38.070   8.057
 1387POPC   C4B20974  23.744  38.242   7.667
 1388POPC   NC320975  31.555  10.952   9.420
 1388POPC   PO420976  31.891  11.551   9.422
 1388POPC   GL120977  31.642  11.434   9.077
 1388POPC   GL220978  31.318  11.341   9.161
 1388POPC   C1A20979  31.559  11.493   8.639
 1388POPC   D2A20980  31.509  11.784   8.317
 1388POPC   C3A20981  31.695  11.622   7.985
 1388POPC   C4A20982  31.530  11.266   7.754
 1388POPC   C1B20983  31.220  11.128   8.742
 1388POPC   C2B20984  31.032  11.017   8.339
 1388POPC   C3B20985  31.098  11.059   7.933
 1388POPC   C4B20986  31.023  11.281   7.556
 1389POPC   NC320987  34.057  40.493   9.675
 1389POPC   PO420988  33.575  41.006   9.713
 1389POPC   GL120989  33.725  40.921   9.312
 1389POPC   GL220990  34.054  41.069   9.234
 1389POPC   C1A20991  33.708  40.827   8.876
 1389POPC   D2A20992  33.944  40.642   8.540
 1389POPC   C3A20993  33.790  40.718   8.140
 1389POPC   C4A20994  33.416  40.706   7.867
 1389POPC   C1B20995  34.046  41.201   8.785
 1389POPC   C2B20996  34.164  41.081   8.390
 1389POPC   C3B20997  34.046  41.187   8.001
 1389POPC   C4B20998  33.891  40.896   7.680
 1390POPC   NC320999  25.325  31.137   9.496
 1390POPC   PO421000  25.458  30.422   9.550
 1390POPC   GL121001  25.204  30.626   9.217
 1390POPC   GL221002  24.880  30.840   9.189
 1390POPC   C1A21003  25.157  30.611   8.777
 1390POPC   D2A21004  25.218  30.822   8.378
 1390POPC   C3A21005  25.485  30.614   8.051
 1390POPC   C4A21006  25.409  30.600   7.597
 1390POPC   C1B21007  24.726  30.841   8.727
 1390POPC   C2B21008  24.731  30.608   8.301
 1390POPC   C3B21009  25.002  30.674   7.940
 1390POPC   C4B21010  25.198  31.042   7.798
 1391POPC   NC321011  30.389   0.418   9.694
 1391POPC   PO421012  30.843   0.833   9.460
 1391POPC   GL121013  30.802   0.634   9.100
 1391POPC   GL221014  30.480   0.433   9.171
 1391POPC   C1A21015  30.658   0.728   8.680
 1391POPC   D2A21016  30.388   0.780   8.343
 1391POPC   C3A21017  30.585   0.670   7.974
 1391POPC   C4A21018  30.350   0.668   7.613
 1391POPC   C1B21019  30.716   0.228   8.813
 1391POPC   C2B21020  30.609   0.312   8.390
 1391POPC   C3B21021  30.803   0.204   8.042
 1391POPC   C4B21022  31.158   0.328   7.820
 1392POPC   NC321023  41.306   9.239   9.579
 1392POPC   PO421024  40.774   8.831   9.561
 1392POPC   GL121025  40.897   8.930   9.129
 1392POPC   GL221026  41.231   8.993   9.120
 1392POPC   C1A21027  41.009   9.067   8.671
 1392POPC   D2A21028  41.089   9.184   8.228
 1392POPC   C3A21029  40.729   9.128   7.944
 1392POPC   C4A21030  40.508   8.756   7.741
 1392POPC   C1B21031  41.205   8.616   8.868
 1392POPC   C2B21032  41.184   8.641   8.426
 1392POPC   C3B21033  40.926   8.664   8.054
 1392POPC   C4B21034  40.996   8.699   7.609
 1393POPC   NC321035   1.836  28.090   9.483
 1393POPC   PO421036   2.454  28.232   9.737
 1393POPC   GL121037   2.393  28.209   9.253
 1393POPC   GL221038   2.067  28.355   9.133
 1393POPC   C1A21039   2.412  28.371   8.789
 1393POPC   D2A21040   2.262  28.143   8.409
 1393POPC   C3A21041   2.203  28.366   8.032
 1393POPC   C4A21042   1.816  28.279   7.855
 1393POPC   C1B21043   1.856  28.471   8.752
 1393POPC   C2B21044   1.529  28.699   8.517
 1393POPC   C3B21045   1.721  28.702   8.153
 1393POPC   C4B21046   1.621  28.758   7.742
 1394POPC   NC321047   1.446  14.322   9.519
 1394POPC   PO421048   0.781  14.305   9.526
 1394POPC   GL121049   1.065  14.270   9.166
 1394POPC   GL221050   1.287  14.560   9.064
 1394POPC   C1A21051   1.291  14.105   8.799
 1394POPC   D2A21052   1.446  14.215   8.395
 1394POPC   C3A21053   1.146  14.078   8.082
 1394POPC   C4A21054   1.247  14.160   7.650
 1394POPC   C1B21055   0.981  14.537   8.726
 1394POPC   C2B21056   1.001  14.515   8.282
 1394POPC   C3B21057   1.382  14.531   7.964
 1394POPC   C4B21058   1.284  14.640   7.507
 1395POPC   NC321059  21.698  35.326   9.668
 1395POPC   PO421060  22.338  35.581   9.474
 1395POPC   GL121061  22.241  35.374   9.112
 1395POPC   GL221062  21.946  35.308   9.220
 1395POPC   C1A21063  22.238  35.364   8.654
 1395POPC   D2A21064  22.357  35.247   8.248
 1395POPC   C3A21065  22.291  35.281   7.806
 1395POPC   C4A21066  22.578  35.325   7.453
 1395POPC   C1B21067  21.851  35.080   8.865
 1395POPC   C2B21068  21.832  35.154   8.416
 1395POPC   C3B21069  21.987  34.937   8.049
 1395POPC   C4B21070  21.871  35.022   7.632
 1396POPC   NC321071  14.167   1.344   9.400
 1396POPC   PO421072  14.634   0.902   9.600
 1396POPC   GL121073  14.634   1.150   9.195
 1396POPC   GL221074  14.297   1.178   8.949
 1396POPC   C1A21075  14.765   1.134   8.761
 1396POPC   D2A21076  14.561   1.356   8.489
 1396POPC   C3A21077  14.599   1.349   8.068
 1396POPC   C4A21078  14.332   1.388   7.715
 1396POPC   C1B21079  14.338   0.911   8.572
 1396POPC   C2B21080  14.317   0.889   8.129
 1396POPC   C3B21081  14.149   0.906   7.732
 1396POPC   C4B21082  14.297   1.055   7.310
 1397POPC   NC321083  41.563  38.742   9.452
 1397POPC   PO421084  41.415  38.124   9.404
 1397POPC   GL121085  41.322  38.392   9.091
 1397POPC   GL221086  41.121  38.645   9.214
 1397POPC   C1A21087  41.534  38.436   8.705
 1397POPC   D2A21088  41.723  38.226   8.394
 1397POPC   C3A21089  41.642  38.451   8.035
 1397POPC   C4A21090  41.493  38.407   7.620
 1397POPC   C1B21091  41.228  38.832   8.810
 1397POPC   C2B21092  41.369  38.805   8.366
 1397POPC   C3B21093  41.207  38.694   7.950
 1397POPC   C4B21094  41.031  38.582   7.531
 1398POPC   NC321095   6.393  17.235   9.315
 1398POPC   PO421096   6.708  16.649   9.520
 1398POPC   GL121097   6.715  16.839   9.151
 1398POPC   GL221098   6.972  17.046   9.048
 1398POPC   C1A21099   6.509  16.817   8.795
 1398POPC   D2A21100   6.626  16.730   8.414
 1398POPC   C3A21101   6.508  16.981   8.095
 1398POPC   C4A21102   6.482  16.800   7.728
 1398POPC   C1B21103   7.048  16.780   8.704
 1398POPC   C2B21104   7.079  16.530   8.317
 1398POPC   C3B21105   7.070  16.679   7.866
 1398POPC   C4B21106   6.952  16.781   7.392
 1399POPC   NC321107  26.699   6.038   9.522
 1399POPC   PO421108  27.110   5.534   9.458
 1399POPC   GL121109  26.930   5.520   9.073
 1399POPC   GL221110  26.609   5.676   9.124
 1399POPC   C1A21111  26.906   5.682   8.664
 1399POPC   D2A21112  27.134   5.950   8.356
 1399POPC   C3A21113  26.994   5.847   7.937
 1399POPC   C4A21114  27.019   5.647   7.537
 1399POPC   C1B21115  26.549   6.040   8.855
 1399POPC   C2B21116  26.611   6.049   8.408
 1399POPC   C3B21117  26.492   6.041   7.969
 1399POPC   C4B21118  26.513   5.614   7.772
 1400POPC   NC321119  21.822  15.254   9.564
 1400POPC   PO421120  22.392  15.304   9.323
 1400POPC   GL121121  22.212  15.049   9.000
 1400POPC   GL221122  21.837  15.065   9.019
 1400POPC   C1A21123  22.115  15.015   8.550
 1400POPC   D2A21124  21.885  14.891   8.163
 1400POPC   C3A21125  22.205  14.920   7.877
 1400POPC   C4A21126  22.513  15.233   8.089
 1400POPC   C1B21127  21.959  15.463   8.791
 1400POPC   C2B21128  22.103  15.493   8.358
 1400POPC   C3B21129  22.029  15.363   7.950
 1400POPC   C4B21130  21.828  15.548   7.576
 1401POPC   NC321131  10.411  28.190   9.594
 1401POPC   PO421132  10.964  28.555   9.906
 1401POPC   GL121133  10.850  28.381   9.401
 1401POPC   GL221134  10.511  28.446   9.172
 1401POPC   C1A21135  10.881  28.229   8.913
 1401POPC   D2A21136  10.773  27.954   8.533
 1401POPC   C3A21137  10.738  28.125   8.087
 1401POPC   C4A21138  10.817  28.379   7.702
 1401POPC   C1B21139  10.264  28.402   8.737
 1401POPC   C2B21140  10.317  28.369   8.255
 1401POPC   C3B21141  10.282  28.347   7.797
 1401POPC   C4B21142   9.946  28.346   7.428
 1402POPC   NC321143  19.924  35.709   9.554
 1402POPC   PO421144  19.561  35.300   9.652
 1402POPC   GL121145  19.694  35.387   9.212
 1402POPC   GL221146  19.994  35.215   9.132
 1402POPC   C1A21147  19.771  35.559   8.783
 1402POPC   D2A21148  19.637  35.393   8.364
 1402POPC   C3A21149  19.777  35.576   7.958
 1402POPC   C4A21150  20.164  35.594   7.721
 1402POPC   C1B21151  19.743  35.044   8.775
 1402POPC   C2B21152  19.861  34.931   8.331
 1402POPC   C3B21153  19.931  35.095   7.883
 1402POPC   C4B21154  20.084  35.164   7.439
 1403POPC   NC321155  33.643  44.937   9.604
 1403POPC   PO421156  34.118  44.301   9.493
 1403POPC   GL121157  33.824  44.543   9.231
 1403POPC   GL221158  33.575  44.824   9.125
 1403POPC   C1A21159  33.835  44.554   8.801
 1403POPC   D2A21160  33.981  44.766   8.470
 1403POPC   C3A21161  33.810  44.618   8.092
 1403POPC   C4A21162  33.949  44.655   7.713
 1403POPC   C1B21163  33.446  44.997   8.752
 1403POPC   C2B21164  33.533  44.973   8.333
 1403POPC   C3B21165  33.604   0.044   7.915
 1403POPC   C4B21166  33.459  44.747   7.656
 1404POPC   NC321167  39.207  42.253   9.395
 1404POPC   PO421168  39.548  42.696   9.765
 1404POPC   GL121169  39.267  42.733   9.290
 1404POPC   GL221170  38.970  42.629   9.134
 1404POPC   C1A21171  39.330  42.520   8.810
 1404POPC   D2A21172  39.499  42.558   8.409
 1404POPC   C3A21173  39.351  42.371   8.044
 1404POPC   C4A21174  39.637  42.396   7.727
 1404POPC   C1B21175  38.934  42.839   8.756
 1404POPC   C2B21176  39.018  42.797   8.310
 1404POPC   C3B21177  38.878  42.566   7.941
 1404POPC   C4B21178  39.059  42.309   7.603
 1405POPC   NC321179  11.282  14.777  10.030
 1405POPC   PO421180  11.659  14.514   9.620
 1405POPC   GL121181  11.372  14.553   9.231
 1405POPC   GL221182  11.012  14.605   9.166
 1405POPC   C1A21183  11.368  14.406   8.809
 1405POPC   D2A21184  11.274  14.502   8.389
 1405POPC   C3A21185  11.453  14.274   8.042
 1405POPC   C4A21186  11.832  14.384   7.810
 1405POPC   C1B21187  10.887  14.606   8.713
 1405POPC   C2B21188  10.787  14.423   8.285
 1405POPC   C3B21189  10.984  14.479   7.871
 1405POPC   C4B21190  10.879  14.479   7.393
 1406POPC   NC321191  38.349  22.789   9.621
 1406POPC   PO421192  38.296  23.436   9.523
 1406POPC   GL121193  38.164  23.118   9.227
 1406POPC   GL221194  38.491  22.912   9.157
 1406POPC   C1A21195  38.174  22.994   8.789
 1406POPC   D2A21196  38.477  22.832   8.488
 1406POPC   C3A21197  38.225  22.768   8.153
 1406POPC   C4A21198  38.056  23.020   7.874
 1406POPC   C1B21199  38.685  23.168   8.830
 1406POPC   C2B21200  38.625  23.337   8.399
 1406POPC   C3B21201  38.554  23.150   7.970
 1406POPC   C4B21202  38.589  23.082   7.513
 1407POPC   NC321203   3.692  19.547   9.428
 1407POPC   PO421204   3.163  19.975   9.438
 1407POPC   GL121205   3.499  19.874   9.090
 1407POPC   GL221206   3.704  20.147   8.945
 1407POPC   C1A21207   3.857  19.692   8.804
 1407POPC   D2A21208   3.881  19.690   8.374
 1407POPC   C3A21209   3.698  19.929   8.065
 1407POPC   C4A21210   3.910  19.836   7.656
 1407POPC   C1B21211   3.463  19.934   8.587
 1407POPC   C2B21212   3.216  20.076   8.254
 1407POPC   C3B21213   3.296  20.137   7.842
 1407POPC   C4B21214   3.438  19.968   7.456
 1408POPC   NC321215   7.202   8.684   9.347
 1408POPC   PO421216   7.609   9.181   9.518
 1408POPC   GL121217   7.618   8.936   9.155
 1408POPC   GL221218   7.313   9.071   9.064
 1408POPC   C1A21219   7.628   8.693   8.781
 1408POPC   D2A21220   7.669   8.960   8.431
 1408POPC   C3A21221   7.639   8.781   8.039
 1408POPC   C4A21222   7.613   9.020   7.684
 1408POPC   C1B21223   7.153   8.935   8.677
 1408POPC   C2B21224   7.214   9.067   8.258
 1408POPC   C3B21225   7.125   8.904   7.861
 1408POPC   C4B21226   7.160   8.844   7.397
 1409POPC   NC321227  17.411  12.662   9.440
 1409POPC   PO421228  17.488  13.291   9.483
 1409POPC   GL121229  17.646  13.016   9.146
 1409POPC   GL221230  17.386  12.999   8.993
 1409POPC   C1A21231  17.887  13.072   8.730
 1409POPC   D2A21232  17.775  12.894   8.315
 1409POPC   C3A21233  17.409  13.123   8.153
 1409POPC   C4A21234  17.315  13.164   7.717
 1409POPC   C1B21235  17.564  12.684   8.752
 1409POPC   C2B21236  17.338  12.590   8.390
 1409POPC   C3B21237  17.267  12.645   7.975
 1409POPC   C4B21238  17.643  12.520   7.773
 1410POPC   NC321239  17.226  36.481   9.456
 1410POPC   PO421240  17.474  35.894   9.751
 1410POPC   GL121241  17.491  36.093   9.289
 1410POPC   GL221242  17.760  36.314   9.146
 1410POPC   C1A21243  17.353  36.271   8.845
 1410POPC   D2A21244  17.244  35.974   8.530
 1410POPC   C3A21245  17.362  36.011   8.106
 1410POPC   C4A21246  17.389  36.375   7.835
 1410POPC   C1B21247  17.856  36.276   8.691
 1410POPC   C2B21248  17.737  36.312   8.258
 1410POPC   C3B21249  17.902  36.420   7.843
 1410POPC   C4B21250  17.779  36.344   7.416
 1411POPC   NC321251  26.729  20.223   9.518
 1411POPC   PO421252  26.891  20.885   9.492
 1411POPC   GL121253  26.776  20.814   9.112
 1411POPC   GL221254  26.840  20.460   9.074
 1411POPC   C1A21255  26.777  20.970   8.710
 1411POPC   D2A21256  26.787  20.715   8.353
 1411POPC   C3A21257  26.778  20.864   7.957
 1411POPC   C4A21258  26.518  20.805   7.593
 1411POPC   C1B21259  27.070  20.221   8.786
 1411POPC   C2B21260  27.137  20.364   8.410
 1411POPC   C3B21261  26.987  20.336   8.030
 1411POPC   C4B21262  27.342  20.211   7.840
 1412POPC   NC321263   0.809  12.453   9.580
 1412POPC   PO421264   0.390  11.955   9.843
 1412POPC   GL121265   0.474  11.986   9.354
 1412POPC   GL221266   0.760  12.135   9.203
 1412POPC   C1A21267   0.362  12.117   8.889
 1412POPC   D2A21268   0.298  11.990   8.447
 1412POPC   C3A21269   0.427  12.061   8.024
 1412POPC   C4A21270   0.340  11.783   7.707
 1412POPC   C1B21271   0.859  12.266   8.785
 1412POPC   C2B21272   0.830  12.057   8.391
 1412POPC   C3B21273   0.904  12.288   8.022
 1412POPC   C4B21274   0.630  12.385   7.669
 1413POPC   NC321275   9.910  28.920   9.541
 1413POPC   PO421276   9.712  29.572   9.398
 1413POPC   GL121277   9.604  29.241   9.152
 1413POPC   GL221278   9.938  29.177   9.108
 1413POPC   C1A21279   9.662  29.273   8.705
 1413POPC   D2A21280   9.433  29.357   8.349
 1413POPC   C3A21281   9.738  29.299   8.062
 1413POPC   C4A21282   9.536  29.049   7.837
 1413POPC   C1B21283  10.025  28.879   8.826
 1413POPC   C2B21284  10.201  28.838   8.446
 1413POPC   C3B21285  10.053  28.821   8.062
 1413POPC   C4B21286   9.932  28.810   7.667
 1414POPC   NC321287   6.128  32.274   9.425
 1414POPC   PO421288   5.557  31.976   9.436
 1414POPC   GL121289   5.449  32.194   9.054
 1414POPC   GL221290   5.515  32.536   9.157
 1414POPC   C1A21291   5.649  32.245   8.631
 1414POPC   D2A21292   6.047  32.165   8.370
 1414POPC   C3A21293   5.963  32.149   7.888
 1414POPC   C4A21294   6.244  32.421   7.599
 1414POPC   C1B21295   5.876  32.625   8.910
 1414POPC   C2B21296   6.002  32.718   8.493
 1414POPC   C3B21297   6.119  32.589   8.086
 1414POPC   C4B21298   5.820  32.641   7.751
 1415POPC   NC321299   2.341  11.910   9.356
 1415POPC   PO421300   1.680  11.894   9.498
 1415POPC   GL121301   1.784  12.186   9.201
 1415POPC   GL221302   2.064  12.081   8.976
 1415POPC   C1A21303   1.636  12.297   8.811
 1415POPC   D2A21304   1.931  12.192   8.480
 1415POPC   C3A21305   1.882  12.243   8.062
 1415POPC   C4A21306   1.818  11.855   7.810
 1415POPC   C1B21307   2.323  11.776   8.750
 1415POPC   C2B21308   2.523  11.848   8.426
 1415POPC   C3B21309   2.247  11.871   8.134
 1415POPC   C4B21310   2.372  11.828   7.771
 1416POPC   NC321311  29.181  13.541   9.699
 1416POPC   PO421312  29.329  14.204   9.652
 1416POPC   GL121313  29.103  13.877   9.308
 1416POPC   GL221314  29.219  13.495   9.203
 1416POPC   C1A21315  29.092  13.796   8.839
 1416POPC   D2A21316  29.170  13.637   8.413
 1416POPC   C3A21317  28.955  13.767   8.039
 1416POPC   C4A21318  29.054  13.840   7.626
 1416POPC   C1B21319  29.126  13.288   8.832
 1416POPC   C2B21320  28.992  13.150   8.444
 1416POPC   C3B21321  28.875  13.279   8.054
 1416POPC   C4B21322  29.170  13.323   7.736
 1417POPC   NC321323   7.576  40.871   9.513
 1417POPC   PO421324   6.994  40.498   9.583
 1417POPC   GL121325   7.159  40.668   9.205
 1417POPC   GL221326   7.470  40.588   9.116
 1417POPC   C1A21327   7.231  40.924   8.838
 1417POPC   D2A21328   7.248  40.711   8.459
 1417POPC   C3A21329   7.447  40.855   8.088
 1417POPC   C4A21330   7.288  41.112   7.739
 1417POPC   C1B21331   7.646  40.502   8.744
 1417POPC   C2B21332   7.623  40.401   8.336
 1417POPC   C3B21333   7.747  40.420   7.934
 1417POPC   C4B21334   7.496  40.627   7.641
 1418POPC   NC321335  17.710  28.046   9.516
 1418POPC   PO421336  17.073  28.134   9.787
 1418POPC   GL121337  17.253  28.260   9.350
 1418POPC   GL221338  17.303  27.971   9.199
 1418POPC   C1A21339  17.363  28.514   8.963
 1418POPC   D2A21340  17.186  28.624   8.546
 1418POPC   C3A21341  17.387  28.487   8.177
 1418POPC   C4A21342  17.613  28.606   7.808
 1418POPC   C1B21343  17.104  28.115   8.822
 1418POPC   C2B21344  17.166  28.080   8.419
 1418POPC   C3B21345  17.183  28.045   8.002
 1418POPC   C4B21346  17.566  28.108   7.829
 1419POPC   NC321347  12.374  28.982   9.726
 1419POPC   PO421348  11.913  29.347   9.411
 1419POPC   GL121349  12.077  29.260   9.076
 1419POPC   GL221350  11.954  28.954   8.986
 1419POPC   C1A21351  12.005  29.360   8.686
 1419POPC   D2A21352  11.892  29.174   8.324
 1419POPC   C3A21353  12.057  29.331   7.936
 1419POPC   C4A21354  11.809  29.396   7.586
 1419POPC   C1B21355  12.227  28.888   8.596
 1419POPC   C2B21356  12.323  28.917   8.153
 1419POPC   C3B21357  12.473  28.950   7.742
 1419POPC   C4B21358  12.290  29.253   7.448
 1420POPC   NC321359  24.753  14.278   9.822
 1420POPC   PO421360  24.581  14.710   9.524
 1420POPC   GL121361  24.512  14.701   9.091
 1420POPC   GL221362  24.205  14.837   9.036
 1420POPC   C1A21363  24.594  14.720   8.657
 1420POPC   D2A21364  24.465  14.894   8.292
 1420POPC   C3A21365  24.610  14.640   7.985
 1420POPC   C4A21366  24.901  14.374   7.723
 1420POPC   C1B21367  24.099  14.625   8.616
 1420POPC   C2B21368  24.139  14.497   8.170
 1420POPC   C3B21369  23.908  14.425   7.775
 1420POPC   C4B21370  23.822  14.269   7.357
 1421POPC   NC321371   5.874  16.612   9.548
 1421POPC   PO421372   5.953  17.283   9.474
 1421POPC   GL121373   6.009  16.935   9.190
 1421POPC   GL221374   6.108  17.143   8.917
 1421POPC   C1A21375   6.009  16.654   8.826
 1421POPC   D2A21376   6.120  16.912   8.442
 1421POPC   C3A21377   6.001  16.850   8.001
 1421POPC   C4A21378   5.768  16.554   7.770
 1421POPC   C1B21379   5.644  17.053   8.862
 1421POPC   C2B21380   5.487  17.053   8.444
 1421POPC   C3B21381   5.444  16.892   8.037
 1421POPC   C4B21382   5.593  16.999   7.631
 1422POPC   NC321383  41.630  19.976   9.331
 1422POPC   PO421384  41.667  19.516   9.813
 1422POPC   GL121385  41.494  19.494   9.278
 1422POPC   GL221386  41.170  19.622   9.128
 1422POPC   C1A21387  41.605  19.586   8.777
 1422POPC   D2A21388  41.661  19.845   8.347
 1422POPC   C3A21389  41.577  19.718   7.898
 1422POPC   C4A21390  41.894  19.780   7.529
 1422POPC   C1B21391  41.151  19.780   8.672
 1422POPC   C2B21392  41.182  19.708   8.251
 1422POPC   C3B21393  41.044  19.907   7.870
 1422POPC   C4B21394  41.025  19.851   7.432
 1423POPC   NC321395  36.082  44.062   9.514
 1423POPC   PO421396  35.622  43.498   9.381
 1423POPC   GL121397  36.007  43.694   9.145
 1423POPC   GL221398  35.946  44.005   9.006
 1423POPC   C1A21399  36.378  43.839   8.794
 1423POPC   D2A21400  36.565  44.077   8.387
 1423POPC   C3A21401  36.385  44.005   7.951
 1423POPC   C4A21402  36.448  43.646   7.657
 1423POPC   C1B21403  35.923  43.694   8.651
 1423POPC   C2B21404  36.156  43.651   8.305
 1423POPC   C3B21405  35.950  43.681   7.924
 1423POPC   C4B21406  35.964  43.823   7.498
 1424POPC   NC321407   2.230  10.945   9.482
 1424POPC   PO421408   2.002  10.405   9.412
 1424POPC   GL121409   2.020  10.607   9.026
 1424POPC   GL221410   2.248  10.890   8.965
 1424POPC   C1A21411   1.979  10.487   8.590
 1424POPC   D2A21412   2.010  10.176   8.244
 1424POPC   C3A21413   1.943  10.358   7.838
 1424POPC   C4A21414   2.158  10.361   7.442
 1424POPC   C1B21415   2.300  10.910   8.539
 1424POPC   C2B21416   2.223  10.669   8.173
 1424POPC   C3B21417   2.289  10.734   7.756
 1424POPC   C4B21418   2.376  10.967   7.419
 1425POPC   NC321419  43.246  34.853   9.536
 1425POPC   PO421420  42.782  34.493   9.583
 1425POPC   GL121421  42.940  34.332   9.194
 1425POPC   GL221422  43.165  34.584   9.108
 1425POPC   C1A21423  42.807  34.335   8.766
 1425POPC   D2A21424  42.922  34.510   8.358
 1425POPC   C3A21425  42.792  34.429   7.924
 1425POPC   C4A21426  42.914  34.540   7.497
 1425POPC   C1B21427  43.451  34.732   8.770
 1425POPC   C2B21428  43.485  34.893   8.356
 1425POPC   C3B21429  43.271  34.742   7.995
 1425POPC   C4B21430  43.388  34.650   7.586
 1426POPC   NC321431  23.207  19.030   9.647
 1426POPC   PO421432  22.653  19.214   9.411
 1426POPC   GL121433  22.869  19.130   9.043
 1426POPC   GL221434  23.041  18.863   9.168
 1426POPC   C1A21435  23.041  19.245   8.624
 1426POPC   D2A21436  23.260  19.294   8.210
 1426POPC   C3A21437  22.954  19.284   7.863
 1426POPC   C4A21438  22.974  19.388   7.402
 1426POPC   C1B21439  23.220  18.794   8.749
 1426POPC   C2B21440  23.069  18.816   8.325
 1426POPC   C3B21441  23.237  18.848   7.907
 1426POPC   C4B21442  23.154  18.922   7.471
 1427POPC   NC321443   8.624   4.914   9.330
 1427POPC   PO421444   9.133   5.122   9.658
 1427POPC   GL121445   9.114   5.119   9.198
 1427POPC   GL221446   9.195   4.819   9.041
 1427POPC   C1A21447   8.974   5.291   8.798
 1427POPC   D2A21448   8.812   5.556   8.457
 1427POPC   C3A21449   8.922   5.439   8.055
 1427POPC   C4A21450   8.795   5.130   7.790
 1427POPC   C1B21451   8.821   4.804   8.728
 1427POPC   C2B21452   8.826   5.015   8.327
 1427POPC   C3B21453   9.210   4.976   8.058
 1427POPC   C4B21454   9.305   4.792   7.655
 1428POPC   NC321455  10.257  27.249   9.842
 1428POPC   PO421456   9.732  27.546   9.450
 1428POPC   GL121457   9.675  27.391   9.067
 1428POPC   GL221458  10.030  27.535   8.961
 1428POPC   C1A21459   9.741  27.246   8.669
 1428POPC   D2A21460   9.953  27.476   8.369
 1428POPC   C3A21461   9.761  27.420   7.993
 1428POPC   C4A21462   9.610  27.623   7.631
 1428POPC   C1B21463   9.724  27.823   8.743
 1428POPC   C2B21464   9.494  27.862   8.353
 1428POPC   C3B21465   9.818  27.911   8.077
 1428POPC   C4B21466  10.016  27.921   7.698
 1429POPC   NC321467  17.872  44.858   9.480
 1429POPC   PO421468  17.316   0.184   9.583
 1429POPC   GL121469  17.459   0.052   9.156
 1429POPC   GL221470  17.548  44.673   9.122
 1429POPC   C1A21471  17.517  44.960   8.711
 1429POPC   D2A21472  17.689  44.650   8.471
 1429POPC   C3A21473  17.673  44.810   8.066
 1429POPC   C4A21474  17.654  44.656   7.652
 1429POPC   C1B21475  17.516  44.289   8.861
 1429POPC   C2B21476  17.499  44.160   8.442
 1429POPC   C3B21477  17.604  44.298   8.070
 1429POPC   C4B21478  17.272  44.361   7.830
 1430POPC   NC321479   0.837  28.369   9.603
 1430POPC   PO421480   1.388  27.979   9.560
 1430POPC   GL121481   1.334  28.260   9.206
 1430POPC   GL221482   1.008  28.386   9.133
 1430POPC   C1A21483   1.378  28.281   8.759
 1430POPC   D2A21484   1.584  28.219   8.350
 1430POPC   C3A21485   1.355  28.394   8.026
 1430POPC   C4A21486   1.259  28.204   7.699
 1430POPC   C1B21487   0.878  28.144   8.786
 1430POPC   C2B21488   1.043  28.187   8.368
 1430POPC   C3B21489   0.853  28.322   7.963
 1430POPC   C4B21490   0.792  28.085   7.541
 1431POPC   NC321491  35.649   1.677   9.869
 1431POPC   PO421492  35.924   2.192   9.503
 1431POPC   GL121493  35.758   2.161   9.097
 1431POPC   GL221494  36.103   1.978   9.067
 1431POPC   C1A21495  35.793   2.006   8.683
 1431POPC   D2A21496  36.145   1.901   8.467
 1431POPC   C3A21497  36.084   1.946   8.053
 1431POPC   C4A21498  36.036   2.086   7.653
 1431POPC   C1B21499  36.426   1.743   8.880
 1431POPC   C2B21500  36.534   1.572   8.472
 1431POPC   C3B21501  36.454   1.563   8.027
 1431POPC   C4B21502  36.253   1.625   7.656
 1432POPC   NC321503  34.423  14.116   9.463
 1432POPC   PO421504  34.864  14.611   9.441
 1432POPC   GL121505  34.526  14.508   9.106
 1432POPC   GL221506  34.338  14.170   8.974
 1432POPC   C1A21507  34.527  14.526   8.661
 1432POPC   D2A21508  34.732  14.330   8.330
 1432POPC   C3A21509  34.574  14.433   7.925
 1432POPC   C4A21510  34.681  14.596   7.554
 1432POPC   C1B21511  34.740  14.036   8.810
 1432POPC   C2B21512  34.903  13.866   8.428
 1432POPC   C3B21513  34.818  13.932   7.979
 1432POPC   C4B21514  34.685  14.066   7.579
 1433POPC   NC321515   8.021  10.295   9.583
 1433POPC   PO421516   7.986  11.002   9.582
 1433POPC   GL121517   8.075  10.693   9.241
 1433POPC   GL221518   8.307  10.394   9.115
 1433POPC   C1A21519   7.930  10.630   8.827
 1433POPC   D2A21520   8.016  10.309   8.506
 1433POPC   C3A21521   7.912  10.426   8.081
 1433POPC   C4A21522   7.950  10.268   7.683
 1433POPC   C1B21523   8.415  10.564   8.664
 1433POPC   C2B21524   8.367  10.638   8.210
 1433POPC   C3B21525   8.370  10.569   7.753
 1433POPC   C4B21526   8.474  10.730   7.324
 1434POPC   NC321527   8.692  28.190   9.538
 1434POPC   PO421528   9.283  28.432   9.338
 1434POPC   GL121529   9.122  28.426   8.959
 1434POPC   GL221530   8.878  28.182   9.075
 1434POPC   C1A21531   8.747  28.524   8.710
 1434POPC   D2A21532   8.602  28.713   8.329
 1434POPC   C3A21533   8.838  28.585   8.016
 1434POPC   C4A21534   8.672  28.273   7.813
 1434POPC   C1B21535   9.043  28.015   8.695
 1434POPC   C2B21536   8.894  28.188   8.338
 1434POPC   C3B21537   9.132  28.114   7.999
 1434POPC   C4B21538   8.929  27.831   7.748
 1435POPC   NC321539  19.364  14.576   9.434
 1435POPC   PO421540  18.734  14.241   9.491
 1435POPC   GL121541  18.960  14.353   9.136
 1435POPC   GL221542  19.196  14.068   9.106
 1435POPC   C1A21543  18.990  14.499   8.700
 1435POPC   D2A21544  18.978  14.692   8.275
 1435POPC   C3A21545  19.001  14.446   7.888
 1435POPC   C4A21546  19.306  14.166   7.709
 1435POPC   C1B21547  18.902  13.992   8.757
 1435POPC   C2B21548  18.784  14.116   8.327
 1435POPC   C3B21549  18.768  13.969   7.878
 1435POPC   C4B21550  18.878  14.182   7.446
 1436POPC   NC321551  24.245  30.188   9.435
 1436POPC   PO421552  23.613  30.314   9.709
 1436POPC   GL121553  23.822  30.493   9.282
 1436POPC   GL221554  23.882  30.872   9.348
 1436POPC   C1A21555  23.826  30.401   8.793
 1436POPC   D2A21556  23.610  30.457   8.398
 1436POPC   C3A21557  23.774  30.573   7.992
 1436POPC   C4A21558  23.598  30.358   7.664
 1436POPC   C1B21559  23.907  30.881   8.919
 1436POPC   C2B21560  23.908  30.872   8.493
 1436POPC   C3B21561  23.938  31.087   8.155
 1436POPC   C4B21562  24.098  30.925   7.803
 1437POPC   NC321563  35.571  15.605   9.361
 1437POPC   PO421564  35.214  15.071   9.625
 1437POPC   GL121565  35.201  15.264   9.233
 1437POPC   GL221566  35.364  14.994   9.105
 1437POPC   C1A21567  35.163  15.324   8.765
 1437POPC   D2A21568  35.170  15.163   8.327
 1437POPC   C3A21569  35.126  15.442   7.952
 1437POPC   C4A21570  34.743  15.553   7.738
 1437POPC   C1B21571  35.667  15.219   8.825
 1437POPC   C2B21572  35.695  15.278   8.401
 1437POPC   C3B21573  35.577  14.923   8.170
 1437POPC   C4B21574  35.424  15.046   7.837
 1438POPC   NC321575   3.504  39.926   9.647
 1438POPC   PO421576   4.218  39.880   9.760
 1438POPC   GL121577   3.958  39.908   9.218
 1438POPC   GL221578   3.607  39.882   9.143
 1438POPC   C1A21579   3.999  39.928   8.764
 1438POPC   D2A21580   3.762  39.966   8.392
 1438POPC   C3A21581   3.794  40.044   7.938
 1438POPC   C4A21582   3.536  39.728   7.743
 1438POPC   C1B21583   3.533  40.196   8.838
 1438POPC   C2B21584   3.418  40.317   8.444
 1438POPC   C3B21585   3.299  40.088   8.086
 1438POPC   C4B21586   3.284  40.247   7.670
 1439POPC   NC321587  11.897   1.568  10.000
 1439POPC   PO421588  12.085   1.082   9.525
 1439POPC   GL121589  12.160   1.258   9.196
 1439POPC   GL221590  12.455   1.169   9.013
 1439POPC   C1A21591  11.951   1.229   8.845
 1439POPC   D2A21592  11.917   1.397   8.472
 1439POPC   C3A21593  12.117   1.289   8.095
 1439POPC   C4A21594  11.902   1.231   7.706
 1439POPC   C1B21595  12.338   1.016   8.569
 1439POPC   C2B21596  12.482   0.914   8.129
 1439POPC   C3B21597  12.345   1.007   7.706
 1439POPC   C4B21598  12.287   1.410   7.439
 1440POPC   NC321599  25.290  27.067   9.519
 1440POPC   PO421600  25.101  26.428   9.627
 1440POPC   GL121601  25.130  26.619   9.212
 1440POPC   GL221602  25.429  26.848   9.092
 1440POPC   C1A21603  25.225  26.508   8.797
 1440POPC   D2A21604  25.306  26.769   8.465
 1440POPC   C3A21605  25.124  26.619   8.089
 1440POPC   C4A21606  25.332  26.602   7.707
 1440POPC   C1B21607  25.109  27.097   8.865
 1440POPC   C2B21608  24.920  27.107   8.440
 1440POPC   C3B21609  25.127  27.133   8.051
 1440POPC   C4B21610  25.354  27.093   7.688
 1441POPC   NC321611  17.046   8.464   9.306
 1441POPC   PO421612  17.310   8.007   9.757
 1441POPC   GL121613  16.998   7.930   9.260
 1441POPC   GL221614  16.649   8.130   9.110
 1441POPC   C1A21615  17.012   8.044   8.775
 1441POPC   D2A21616  17.064   8.349   8.439
 1441POPC   C3A21617  17.024   8.184   8.037
 1441POPC   C4A21618  16.858   8.242   7.676
 1441POPC   C1B21619  16.315   8.401   8.890
 1441POPC   C2B21620  16.185   8.603   8.524
 1441POPC   C3B21621  16.438   8.598   8.157
 1441POPC   C4B21622  16.375   8.539   7.748
 1442POPC   NC321623   2.678  18.693   9.733
 1442POPC   PO421624   2.609  18.064   9.501
 1442POPC   GL121625   2.861  18.205   9.155
 1442POPC   GL221626   2.710  18.514   9.097
 1442POPC   C1A21627   2.703  18.101   8.723
 1442POPC   D2A21628   2.590  18.429   8.434
 1442POPC   C3A21629   2.716  18.409   7.973
 1442POPC   C4A21630   2.858  18.300   7.541
 1442POPC   C1B21631   3.025  18.501   8.756
 1442POPC   C2B21632   3.128  18.395   8.325
 1442POPC   C3B21633   3.150  18.702   7.985
 1442POPC   C4B21634   3.206  18.688   7.547
 1443POPC   NC321635  36.234  34.148   9.688
 1443POPC   PO421636  36.531  34.723   9.415
 1443POPC   GL121637  36.271  34.630   9.079
 1443POPC   GL221638  36.290  34.290   9.151
 1443POPC   C1A21639  36.032  34.772   8.703
 1443POPC   D2A21640  35.807  34.695   8.300
 1443POPC   C3A21641  36.046  34.732   7.934
 1443POPC   C4A21642  36.411  34.858   7.683
 1443POPC   C1B21643  36.075  34.274   8.734
 1443POPC   C2B21644  36.192  34.363   8.332
 1443POPC   C3B21645  36.373  34.352   7.947
 1443POPC   C4B21646  36.201  34.408   7.545
 1444POPC   NC321647   8.765  10.220   9.370
 1444POPC   PO421648   8.614  10.792   9.222
 1444POPC   GL121649   8.852  10.515   8.962
 1444POPC   GL221650   9.156  10.309   9.049
 1444POPC   C1A21651   8.804  10.244   8.644
 1444POPC   D2A21652   8.588  10.169   8.282
 1444POPC   C3A21653   8.813  10.417   7.959
 1444POPC   C4A21654   8.794  10.390   7.498
 1444POPC   C1B21655   9.312  10.248   8.620
 1444POPC   C2B21656   9.292  10.286   8.146
 1444POPC   C3B21657   9.266  10.372   7.677
 1444POPC   C4B21658   9.188  10.308   7.185
 1445POPC   NC321659  20.637  10.205   9.552
 1445POPC   PO421660  20.261  10.734   9.415
 1445POPC   GL121661  20.559  10.518   9.165
 1445POPC   GL221662  20.317  10.299   9.093
 1445POPC   C1A21663  20.807  10.189   8.878
 1445POPC   D2A21664  20.939  10.292   8.427
 1445POPC   C3A21665  20.689  10.318   8.034
 1445POPC   C4A21666  20.876  10.657   7.785
 1445POPC   C1B21667  20.491  10.513   8.664
 1445POPC   C2B21668  20.717  10.742   8.303
 1445POPC   C3B21669  20.465  10.903   7.911
 1445POPC   C4B21670  20.415  10.580   7.600
 1446POPC   NC321671  36.034   0.025   9.422
 1446POPC   PO421672  36.469   0.433   9.719
 1446POPC   GL121673  36.479   0.443   9.225
 1446POPC   GL221674  36.427   0.759   9.065
 1446POPC   C1A21675  36.187   0.334   8.856
 1446POPC   D2A21676  35.896   0.201   8.504
 1446POPC   C3A21677  36.055   0.148   8.070
 1446POPC   C4A21678  35.904   0.292   7.668
 1446POPC   C1B21679  36.479   0.699   8.663
 1446POPC   C2B21680  36.423   0.328   8.394
 1446POPC   C3B21681  36.497   0.442   7.987
 1446POPC   C4B21682  36.337   0.554   7.613
 1447POPC   NC321683  28.194   7.889   9.554
 1447POPC   PO421684  28.679   8.407   9.463
 1447POPC   GL121685  28.488   8.132   9.184
 1447POPC   GL221686  28.206   8.328   9.191
 1447POPC   C1A21687  28.375   8.106   8.753
 1447POPC   D2A21688  28.670   8.209   8.445
 1447POPC   C3A21689  28.518   8.190   8.054
 1447POPC   C4A21690  28.670   8.320   7.660
 1447POPC   C1B21691  28.068   8.513   8.789
 1447POPC   C2B21692  27.975   8.353   8.363
 1447POPC   C3B21693  28.075   8.409   7.931
 1447POPC   C4B21694  28.190   8.107   7.642
 1448POPC   NC321695  24.933  22.087   9.085
 1448POPC   PO421696  24.417  22.159   9.473
 1448POPC   GL121697  24.374  22.030   9.076
 1448POPC   GL221698  24.503  22.321   8.969
 1448POPC   C1A21699  24.438  21.877   8.647
 1448POPC   D2A21700  24.512  22.007   8.209
 1448POPC   C3A21701  24.536  21.821   7.819
 1448POPC   C4A21702  24.809  21.966   7.519
 1448POPC   C1B21703  24.549  22.377   8.562
 1448POPC   C2B21704  24.832  22.425   8.247
 1448POPC   C3B21705  24.666  22.359   7.838
 1448POPC   C4B21706  24.340  22.609   7.669
 1449POPC   NC321707  44.168   7.916   9.238
 1449POPC   PO421708  43.920   8.500   9.530
 1449POPC   GL121709  43.932   8.357   9.125
 1449POPC   GL221710  43.721   8.072   9.014
 1449POPC   C1A21711  43.850   8.540   8.748
 1449POPC   D2A21712  43.788   8.537   8.326
 1449POPC   C3A21713  43.991   8.257   8.071
 1449POPC   C4A21714  43.780   8.275   7.699
 1449POPC   C1B21715  43.836   8.047   8.589
 1449POPC   C2B21716  43.566   8.031   8.233
 1449POPC   C3B21717  43.659   7.802   7.870
 1449POPC   C4B21718  43.561   7.859   7.435
 1450POPC   NC321719  19.847   1.549   9.440
 1450POPC   PO421720  19.632   2.178   9.535
 1450POPC   GL121721  19.913   2.062   9.192
 1450POPC   GL221722  20.263   2.152   9.121
 1450POPC   C1A21723  19.913   2.192   8.742
 1450POPC   D2A21724  19.816   1.987   8.336
 1450POPC   C3A21725  19.680   2.246   7.973
 1450POPC   C4A21726  19.496   2.223   7.555
 1450POPC   C1B21727  20.142   1.741   8.842
 1450POPC   C2B21728  20.049   1.534   8.422
 1450POPC   C3B21729  19.868   1.611   7.981
 1450POPC   C4B21730  19.949   1.944   7.644
 1451POPC   NC321731  41.349   4.938   9.460
 1451POPC   PO421732  41.809   5.404   9.545
 1451POPC   GL121733  41.476   5.376   9.244
 1451POPC   GL221734  41.708   5.110   9.112
 1451POPC   C1A21735  41.287   5.174   8.845
 1451POPC   D2A21736  41.577   4.979   8.526
 1451POPC   C3A21737  41.454   5.029   8.118
 1451POPC   C4A21738  41.475   5.204   7.726
 1451POPC   C1B21739  41.930   5.264   8.735
 1451POPC   C2B21740  42.137   5.003   8.427
 1451POPC   C3B21741  41.978   4.682   8.198
 1451POPC   C4B21742  41.872   4.859   7.823
 1452POPC   NC321743  37.012  43.650   9.361
 1452POPC   PO421744  36.606  44.152   9.526
 1452POPC   GL121745  36.765  44.002   9.086
 1452POPC   GL221746  37.101  44.076   8.975
 1452POPC   C1A21747  36.872  43.775   8.670
 1452POPC   D2A21748  36.668  43.544   8.348
 1452POPC   C3A21749  36.843  43.728   7.969
 1452POPC   C4A21750  37.167  43.601   7.671
 1452POPC   C1B21751  37.333  44.209   8.682
 1452POPC   C2B21752  37.155  44.071   8.329
 1452POPC   C3B21753  37.264  44.021   7.935
 1452POPC   C4B21754  36.989  44.250   7.688
 1453POPC   NC321755   9.101   3.824   9.328
 1453POPC   PO421756   9.183   3.166   9.584
 1453POPC   GL121757   9.002   3.122   9.214
 1453POPC   GL221758   8.836   3.433   9.052
 1453POPC   C1A21759   9.098   3.084   8.800
 1453POPC   D2A21760   8.889   3.267   8.469
 1453POPC   C3A21761   8.986   3.200   8.056
 1453POPC   C4A21762   8.954   3.374   7.656
 1453POPC   C1B21763   8.781   3.734   8.680
 1453POPC   C2B21764   8.988   3.744   8.282
 1453POPC   C3B21765   8.869   3.821   7.858
 1453POPC   C4B21766   9.112   3.859   7.489
 1454POPC   NC321767   4.022   6.192   9.857
 1454POPC   PO421768   4.219   5.580   9.596
 1454POPC   GL121769   4.198   5.755   9.183
 1454POPC   GL221770   4.088   6.097   9.275
 1454POPC   C1A21771   4.391   5.706   8.752
 1454POPC   D2A21772   4.217   5.825   8.326
 1454POPC   C3A21773   4.134   5.798   7.854
 1454POPC   C4A21774   4.339   5.666   7.488
 1454POPC   C1B21775   4.313   6.191   8.882
 1454POPC   C2B21776   4.502   6.237   8.471
 1454POPC   C3B21777   4.362   6.226   8.040
 1454POPC   C4B21778   4.496   6.124   7.632
 1455POPC   NC321779  44.941  26.251   9.538
 1455POPC   PO421780  44.771  25.606   9.385
 1455POPC   GL121781  44.685  25.985   9.163
 1455POPC   GL221782  44.338  26.007   9.059
 1455POPC   C1A21783  44.722  26.177   8.752
 1455POPC   D2A21784  44.764  26.336   8.366
 1455POPC   C3A21785  44.570  26.143   8.045
 1455POPC   C4A21786  44.732  26.322   7.701
 1455POPC   C1B21787  44.579  25.693   8.762
 1455POPC   C2B21788  44.801  25.798   8.359
 1455POPC   C3B21789  44.844  25.741   7.895
 1455POPC   C4B21790  44.501  25.873   7.597
 1456POPC   NC321791  22.524  22.632   9.461
 1456POPC   PO421792  23.203  22.822   9.492
 1456POPC   GL121793  22.981  23.111   9.211
 1456POPC   GL221794  22.764  22.877   9.020
 1456POPC   C1A21795  23.004  23.321   8.801
 1456POPC   D2A21796  22.860  23.104   8.446
 1456POPC   C3A21797  23.054  23.113   8.084
 1456POPC   C4A21798  22.830  22.972   7.783
 1456POPC   C1B21799  23.180  22.841   8.794
 1456POPC   C2B21800  23.304  22.753   8.362
 1456POPC   C3B21801  23.227  22.660   7.909
 1456POPC   C4B21802  23.048  22.646   7.459
 1457POPC   NC321803   2.705  30.993   9.768
 1457POPC   PO421804   3.092  30.501   9.512
 1457POPC   GL121805   2.942  30.788   9.192
 1457POPC   GL221806   2.670  31.024   9.257
 1457POPC   C1A21807   2.980  30.797   8.751
 1457POPC   D2A21808   2.900  30.506   8.437
 1457POPC   C3A21809   2.956  30.653   8.041
 1457POPC   C4A21810   2.961  30.450   7.672
 1457POPC   C1B21811   2.456  30.990   8.895
 1457POPC   C2B21812   2.515  30.859   8.492
 1457POPC   C3B21813   2.582  30.979   8.096
 1457POPC   C4B21814   2.538  30.759   7.718
 1458POPC   NC321815  42.280  44.522   9.545
 1458POPC   PO421816  42.912  44.758   9.724
 1458POPC   GL121817  42.670  44.615   9.244
 1458POPC   GL221818  42.574  44.277   9.187
 1458POPC   C1A21819  42.387  44.718   8.840
 1458POPC   D2A21820  42.128  44.961   8.486
 1458POPC   C3A21821  42.195  44.870   8.025
 1458POPC   C4A21822  42.530  44.931   7.694
 1458POPC   C1B21823  42.149  44.278   8.907
 1458POPC   C2B21824  42.152  44.452   8.469
 1458POPC   C3B21825  42.080  44.336   8.045
 1458POPC   C4B21826  42.278  44.425   7.670
 1459POPC   NC321827   4.686  21.246   9.478
 1459POPC   PO421828   5.290  21.239   9.560
 1459POPC   GL121829   5.249  21.217   9.136
 1459POPC   GL221830   5.361  21.568   9.123
 1459POPC   C1A21831   5.137  21.005   8.745
 1459POPC   D2A21832   5.261  20.928   8.317
 1459POPC   C3A21833   5.060  21.292   8.111
 1459POPC   C4A21834   4.802  21.586   7.879
 1459POPC   C1B21835   5.079  21.535   8.745
 1459POPC   C2B21836   5.056  21.752   8.355
 1459POPC   C3B21837   5.286  21.719   7.975
 1459POPC   C4B21838   5.625  21.650   7.687
 1460POPC   NC321839   6.418  37.645   9.540
 1460POPC   PO421840   6.809  37.213   9.696
 1460POPC   GL121841   6.796  37.449   9.257
 1460POPC   GL221842   6.888  37.801   9.272
 1460POPC   C1A21843   6.518  37.643   8.910
 1460POPC   D2A21844   6.527  37.489   8.519
 1460POPC   C3A21845   6.396  37.660   8.121
 1460POPC   C4A21846   6.406  37.390   7.804
 1460POPC   C1B21847   6.973  37.812   8.824
 1460POPC   C2B21848   6.803  37.885   8.399
 1460POPC   C3B21849   6.875  37.764   7.969
 1460POPC   C4B21850   6.612  37.923   7.661
 1461POPC   NC321851   9.242  29.650   9.402
 1461POPC   PO421852   9.653  30.053   9.796
 1461POPC   GL121853   9.597  30.056   9.314
 1461POPC   GL221854   9.961  30.001   9.246
 1461POPC   C1A21855   9.683  29.971   8.834
 1461POPC   D2A21856   9.767  29.720   8.468
 1461POPC   C3A21857   9.707  29.892   8.069
 1461POPC   C4A21858   9.666  30.333   7.932
 1461POPC   C1B21859  10.111  29.657   8.898
 1461POPC   C2B21860  10.149  29.376   8.528
 1461POPC   C3B21861  10.158  29.571   8.126
 1461POPC   C4B21862  10.058  29.738   7.724
 1462POPC   NC321863  16.767   6.228   9.857
 1462POPC   PO421864  17.093   5.778   9.408
 1462POPC   GL121865  16.862   5.718   9.024
 1462POPC   GL221866  16.554   5.865   9.116
 1462POPC   C1A21867  16.744   5.828   8.568
 1462POPC   D2A21868  16.940   6.110   8.228
 1462POPC   C3A21869  16.896   6.012   7.767
 1462POPC   C4A21870  16.796   5.626   7.633
 1462POPC   C1B21871  16.416   6.170   8.793
 1462POPC   C2B21872  16.291   6.027   8.380
 1462POPC   C3B21873  16.487   5.850   8.014
 1462POPC   C4B21874  16.381   5.868   7.555
 1463POPC   NC321875  21.449  28.473   9.498
 1463POPC   PO421876  21.248  27.895   9.567
 1463POPC   GL121877  21.180  28.082   9.129
 1463POPC   GL221878  21.455  28.326   9.005
 1463POPC   C1A21879  21.232  28.070   8.640
 1463POPC   D2A21880  21.407  28.276   8.242
 1463POPC   C3A21881  21.123  28.352   7.868
 1463POPC   C4A21882  21.117  28.149   7.440
 1463POPC   C1B21883  21.371  28.622   8.633
 1463POPC   C2B21884  21.615  28.753   8.238
 1463POPC   C3B21885  21.723  28.590   7.812
 1463POPC   C4B21886  21.838  28.683   7.358
 1464POPC   NC321887  16.246  38.020   9.788
 1464POPC   PO421888  15.815  38.498   9.574
 1464POPC   GL121889  15.960  38.619   9.198
 1464POPC   GL221890  15.618  38.648   9.077
 1464POPC   C1A21891  16.093  38.573   8.784
 1464POPC   D2A21892  16.352  38.399   8.454
 1464POPC   C3A21893  16.169  38.514   8.063
 1464POPC   C4A21894  15.877  38.536   7.770
 1464POPC   C1B21895  15.651  38.258   8.825
 1464POPC   C2B21896  15.626  37.992   8.448
 1464POPC   C3B21897  15.676  38.128   8.021
 1464POPC   C4B21898  15.657  37.936   7.638
 1465POPC   NC321899  41.162  15.021   9.465
 1465POPC   PO421900  41.691  15.463   9.633
 1465POPC   GL121901  41.414  15.414   9.191
 1465POPC   GL221902  41.363  15.033   9.004
 1465POPC   C1A21903  41.529  15.413   8.729
 1465POPC   D2A21904  41.311  15.283   8.354
 1465POPC   C3A21905  41.541  15.368   8.005
 1465POPC   C4A21906  41.803  15.080   7.746
 1465POPC   C1B21907  41.161  14.820   8.654
 1465POPC   C2B21908  41.026  14.859   8.253
 1465POPC   C3B21909  41.323  14.912   7.931
 1465POPC   C4B21910  41.377  14.934   7.472
 1466POPC   NC321911   6.638  21.863   9.497
 1466POPC   PO421912   7.016  21.240   9.590
 1466POPC   GL121913   6.766  21.489   9.217
 1466POPC   GL221914   6.944  21.709   9.052
 1466POPC   C1A21915   6.479  21.525   8.822
 1466POPC   D2A21916   6.231  21.281   8.502
 1466POPC   C3A21917   6.432  21.229   8.085
 1466POPC   C4A21918   6.422  21.537   7.766
 1466POPC   C1B21919   6.984  21.528   8.629
 1466POPC   C2B21920   7.030  21.563   8.184
 1466POPC   C3B21921   6.896  21.727   7.805
 1466POPC   C4B21922   6.854  21.356   7.536
 1467POPC   NC321923  18.563  39.337   9.300
 1467POPC   PO421924  18.242  39.843   9.542
 1467POPC   GL121925  18.270  39.802   9.103
 1467POPC   GL221926  18.155  39.483   8.996
 1467POPC   C1A21927  18.257  40.093   8.731
 1467POPC   D2A21928  18.244  40.449   8.428
 1467POPC   C3A21929  18.083  40.327   8.025
 1467POPC   C4A21930  17.945  40.032   7.698
 1467POPC   C1B21931  18.498  39.635   8.682
 1467POPC   C2B21932  18.607  39.955   8.348
 1467POPC   C3B21933  18.494  40.007   7.891
 1467POPC   C4B21934  18.647  39.758   7.519
 1468POPC   NC321935  21.267  44.375   9.728
 1468POPC   PO421936  21.309   0.001   9.484
 1468POPC   GL121937  21.290  44.813   9.079
 1468POPC   GL221938  21.206  44.452   9.083
 1468POPC   C1A21939  21.477  44.708   8.714
 1468POPC   D2A21940  21.539  44.530   8.336
 1468POPC   C3A21941  21.429  44.814   8.025
 1468POPC   C4A21942  21.345  44.745   7.612
 1468POPC   C1B21943  20.948  44.541   8.697
 1468POPC   C2B21944  20.976  44.565   8.222
 1468POPC   C3B21945  21.189  44.338   7.880
 1468POPC   C4B21946  21.080  44.357   7.414
 1469POPC   NC321947  35.654  30.460   9.347
 1469POPC   PO421948  36.162  30.358   9.744
 1469POPC   GL121949  36.156  30.434   9.233
 1469POPC   GL221950  35.927  30.250   8.979
 1469POPC   C1A21951  36.218  30.601   8.754
 1469POPC   D2A21952  36.063  30.504   8.303
 1469POPC   C3A21953  36.163  30.778   7.942
 1469POPC   C4A21954  36.371  30.849   7.552
 1469POPC   C1B21955  35.678  30.506   8.676
 1469POPC   C2B21956  35.440  30.426   8.311
 1469POPC   C3B21957  35.665  30.500   7.934
 1469POPC   C4B21958  36.003  30.353   7.711
 1470POPC   NC321959  36.089  19.665   9.489
 1470POPC   PO421960  36.602  20.099   9.308
 1470POPC   GL121961  36.246  19.892   9.083
 1470POPC   GL221962  36.485  19.723   8.978
 1470POPC   C1A21963  36.008  20.001   8.727
 1470POPC   D2A21964  36.330  19.975   8.407
 1470POPC   C3A21965  36.207  19.947   7.979
 1470POPC   C4A21966  36.024  20.045   7.582
 1470POPC   C1B21967  36.218  19.552   8.686
 1470POPC   C2B21968  35.997  19.563   8.309
 1470POPC   C3B21969  36.092  19.458   7.882
 1470POPC   C4B21970  36.284  19.590   7.498
 1471POPC   NC321971  31.864  31.285   9.529
 1471POPC   PO421972  31.176  31.623   9.388
 1471POPC   GL121973  31.493  31.343   9.125
 1471POPC   GL221974  31.239  31.271   8.874
 1471POPC   C1A21975  31.752  31.279   8.720
 1471POPC   D2A21976  31.790  31.542   8.333
 1471POPC   C3A21977  31.629  31.447   7.909
 1471POPC   C4A21978  31.785  31.692   7.560
 1471POPC   C1B21979  31.358  31.288   8.430
 1471POPC   C2B21980  31.251  31.635   8.210
 1471POPC   C3B21981  31.142  31.700   7.776
 1471POPC   C4B21982  31.295  31.559   7.375
 1472POPC   NC321983  33.250  11.239   9.472
 1472POPC   PO421984  32.642  11.056   9.620
 1472POPC   GL121985  32.844  11.324   9.171
 1472POPC   GL221986  33.180  11.506   9.055
 1472POPC   C1A21987  33.017  11.166   8.712
 1472POPC   D2A21988  32.825  11.010   8.316
 1472POPC   C3A21989  33.039  11.200   7.960
 1472POPC   C4A21990  33.369  10.980   7.780
 1472POPC   C1B21991  32.905  11.656   8.689
 1472POPC   C2B21992  33.063  11.780   8.263
 1472POPC   C3B21993  32.963  11.732   7.820
 1472POPC   C4B21994  32.722  11.444   7.598
 1473POPC   NC321995  31.707  39.742   9.388
 1473POPC   PO421996  31.248  40.248   9.527
 1473POPC   GL121997  31.387  40.192   9.115
 1473POPC   GL221998  31.310  39.826   9.035
 1473POPC   C1A21999  31.383  40.166   8.668
 1473POPC   D2A22000  31.526  39.988   8.302
 1473POPC   C3A22001  31.424  40.257   8.032
 1473POPC   C4A22002  31.643  40.294   7.660
 1473POPC   C1B22003  31.228  39.686   8.582
 1473POPC   C2B22004  31.187  39.674   8.112
 1473POPC   C3B22005  31.359  39.852   7.731
 1473POPC   C4B22006  31.683  39.772   7.402
 1474POPC   NC322007  38.320  12.945   9.724
 1474POPC   PO422008  38.836  12.641   9.734
 1474POPC   GL122009  38.590  12.892   9.299
 1474POPC   GL222010  38.252  13.053   9.234
 1474POPC   C1A22011  38.359  12.717   8.876
 1474POPC   D2A22012  38.592  12.499   8.549
 1474POPC   C3A22013  38.490  12.634   8.160
 1474POPC   C4A22014  38.401  12.730   7.736
 1474POPC   C1B22015  38.102  13.142   8.833
 1474POPC   C2B22016  38.402  13.127   8.512
 1474POPC   C3B22017  38.424  13.131   8.110
 1474POPC   C4B22018  38.235  13.203   7.770
 1475POPC   NC322019   7.334  32.543   9.443
 1475POPC   PO422020   7.682  33.125   9.498
 1475POPC   GL122021   7.714  33.062   9.067
 1475POPC   GL222022   7.410  32.895   9.108
 1475POPC   C1A22023   7.461  33.073   8.664
 1475POPC   D2A22024   7.568  32.955   8.291
 1475POPC   C3A22025   7.384  33.122   7.974
 1475POPC   C4A22026   7.596  32.952   7.647
 1475POPC   C1B22027   7.224  32.637   8.775
 1475POPC   C2B22028   7.097  32.798   8.346
 1475POPC   C3B22029   7.175  32.645   7.897
 1475POPC   C4B22030   7.052  32.583   7.377
 1476POPC   NC322031  12.862   3.851   9.421
 1476POPC   PO422032  12.689   3.190   9.497
 1476POPC   GL122033  12.726   3.419   9.153
 1476POPC   GL222034  13.102   3.467   9.113
 1476POPC   C1A22035  12.738   3.584   8.756
 1476POPC   D2A22036  13.032   3.455   8.472
 1476POPC   C3A22037  12.870   3.600   8.111
 1476POPC   C4A22038  12.929   3.483   7.702
 1476POPC   C1B22039  13.185   3.849   8.841
 1476POPC   C2B22040  13.222   3.948   8.425
 1476POPC   C3B22041  13.355   3.715   8.108
 1476POPC   C4B22042  13.326   3.819   7.708
 1477POPC   NC322043   2.595   1.288   9.524
 1477POPC   PO422044   3.129   1.204   9.196
 1477POPC   GL122045   2.698   1.283   9.029
 1477POPC   GL222046   2.399   1.555   9.116
 1477POPC   C1A22047   2.714   1.080   8.645
 1477POPC   D2A22048   2.829   1.348   8.309
 1477POPC   C3A22049   2.961   1.169   7.942
 1477POPC   C4A22050   3.053   1.401   7.602
 1477POPC   C1B22051   2.425   1.532   8.660
 1477POPC   C2B22052   2.335   1.214   8.346
 1477POPC   C3B22053   2.437   1.281   7.957
 1477POPC   C4B22054   2.577   1.218   7.584
 1478POPC   NC322055  23.965  19.651   9.448
 1478POPC   PO422056  23.395  19.867   9.259
 1478POPC   GL122057  23.680  19.799   9.035
 1478POPC   GL222058  23.743  19.487   9.034
 1478POPC   C1A22059  23.633  19.751   8.623
 1478POPC   D2A22060  23.613  20.015   8.320
 1478POPC   C3A22061  23.547  19.744   7.993
 1478POPC   C4A22062  23.510  20.094   7.703
 1478POPC   C1B22063  24.115  19.720   8.809
 1478POPC   C2B22064  24.097  19.812   8.393
 1478POPC   C3B22065  24.007  19.983   7.998
 1478POPC   C4B22066  23.924  19.816   7.667
 1479POPC   NC322067   0.806  44.900   9.677
 1479POPC   PO422068   0.322  44.551   9.682
 1479POPC   GL122069   0.620  44.543   9.347
 1479POPC   GL222070   0.499  44.882   9.274
 1479POPC   C1A22071   0.683  44.504   8.921
 1479POPC   D2A22072   0.561  44.710   8.524
 1479POPC   C3A22073   0.592  44.494   8.131
 1479POPC   C4A22074   0.759  44.639   7.761
 1479POPC   C1B22075   0.263  44.823   8.937
 1479POPC   C2B22076   0.056  44.739   8.562
 1479POPC   C3B22077   0.120  44.800   8.142
 1479POPC   C4B22078   0.242  44.642   7.766
 1480POPC   NC322079  18.582  11.284   9.464
 1480POPC   PO422080  17.899  11.083   9.356
 1480POPC   GL122081  18.224  11.200   9.084
 1480POPC   GL222082  18.327  11.512   9.077
 1480POPC   C1A22083  18.492  11.144   8.726
 1480POPC   D2A22084  18.296  11.056   8.338
 1480POPC   C3A22085  18.414  11.224   7.963
 1480POPC   C4A22086  18.072  11.246   7.676
 1480POPC   C1B22087  18.129  11.603   8.732
 1480POPC   C2B22088  18.282  11.562   8.356
 1480POPC   C3B22089  18.102  11.641   8.004
 1480POPC   C4B22090  18.311  11.706   7.659
 1481POPC   NC322091   0.748  42.518   9.711
 1481POPC   PO422092   0.619  42.078   9.273
 1481POPC   GL122093   0.520  42.450   9.104
 1481POPC   GL222094   0.164  42.528   9.070
 1481POPC   C1A22095   0.559  42.633   8.695
 1481POPC   D2A22096   0.847  42.628   8.334
 1481POPC   C3A22097   0.587  42.429   8.045
 1481POPC   C4A22098   0.513  42.129   7.722
 1481POPC   C1B22099   0.161  42.312   8.741
 1481POPC   C2B22100   0.176  42.428   8.347
 1481POPC   C3B22101   0.083  42.248   7.967
 1481POPC   C4B22102   0.113  42.424   7.557
 1482POPC   NC322103  12.212  41.254   9.456
 1482POPC   PO422104  11.912  41.849   9.574
 1482POPC   GL122105  11.906  41.586   9.135
 1482POPC   GL222106  11.809  41.290   9.108
 1482POPC   C1A22107  12.165  41.592   8.698
 1482POPC   D2A22108  12.222  41.910   8.372
 1482POPC   C3A22109  12.086  41.814   7.929
 1482POPC   C4A22110  12.307  41.622   7.604
 1482POPC   C1B22111  11.745  41.327   8.643
 1482POPC   C2B22112  11.960  41.393   8.225
 1482POPC   C3B22113  12.196  41.198   7.842
 1482POPC   C4B22114  12.085  41.237   7.327
 1483POPC   NC322115   0.618  23.048   9.411
 1483POPC   PO422116   0.374  22.428   9.681
 1483POPC   GL122117   0.415  22.598   9.248
 1483POPC   GL222118   0.102  22.781   9.134
 1483POPC   C1A22119   0.488  22.727   8.811
 1483POPC   D2A22120   0.270  22.757   8.416
 1483POPC   C3A22121   0.502  22.848   8.042
 1483POPC   C4A22122   0.739  22.512   7.854
 1483POPC   C1B22123   0.110  23.122   8.808
 1483POPC   C2B22124   0.002  23.199   8.359
 1483POPC   C3B22125   0.190  23.274   7.938
 1483POPC   C4B22126   0.175  23.270   7.470
 1484POPC   NC322127   3.956   9.482   9.315
 1484POPC   PO422128   4.474   9.008   9.459
 1484POPC   GL122129   4.329   9.179   9.114
 1484POPC   GL222130   4.658   9.265   9.037
 1484POPC   C1A22131   4.122   9.091   8.733
 1484POPC   D2A22132   4.242   8.740   8.493
 1484POPC   C3A22133   4.207   8.775   8.066
 1484POPC   C4A22134   4.541   8.753   7.816
 1484POPC   C1B22135   4.627   9.033   8.693
 1484POPC   C2B22136   4.483   9.148   8.298
 1484POPC   C3B22137   4.571   9.254   7.890
 1484POPC   C4B22138   4.853   9.303   7.546
 1485POPC   NC322139  11.702  44.329   9.640
 1485POPC   PO422140  11.345  44.827   9.529
 1485POPC   GL122141  11.274  44.898   9.098
 1485POPC   GL222142  11.122  44.602   9.055
 1485POPC   C1A22143  11.312  44.810   8.637
 1485POPC   D2A22144  11.325  44.716   8.205
 1485POPC   C3A22145  11.017  44.843   7.899
 1485POPC   C4A22146  11.419  44.907   7.687
 1485POPC   C1B22147  11.306  44.296   8.770
 1485POPC   C2B22148  11.450  44.216   8.375
 1485POPC   C3B22149  11.541  44.332   7.965
 1485POPC   C4B22150  11.177  44.383   7.750
 1486POPC   NC322151   1.481   6.434   9.375
 1486POPC   PO422152   0.806   6.394   9.500
 1486POPC   GL122153   1.028   6.635   9.190
 1486POPC   GL222154   1.055   6.989   9.246
 1486POPC   C1A22155   1.227   6.624   8.772
 1486POPC   D2A22156   1.426   6.469   8.412
 1486POPC   C3A22157   1.497   6.634   8.018
 1486POPC   C4A22158   1.276   6.734   7.641
 1486POPC   C1B22159   0.851   6.950   8.839
 1486POPC   C2B22160   0.801   6.773   8.432
 1486POPC   C3B22161   0.898   6.897   8.041
 1486POPC   C4B22162   0.782   6.842   7.659
 1487POPC   NC322163  33.839  10.976   9.790
 1487POPC   PO422164  33.564  11.578   9.547
 1487POPC   GL122165  33.685  11.371   9.157
 1487POPC   GL222166  33.962  11.166   8.986
 1487POPC   C1A22167  33.641  11.518   8.742
 1487POPC   D2A22168  33.442  11.392   8.357
 1487POPC   C3A22169  33.723  11.422   8.006
 1487POPC   C4A22170  33.662  11.332   7.566
 1487POPC   C1B22171  33.976  11.178   8.552
 1487POPC   C2B22172  33.787  10.954   8.230
 1487POPC   C3B22173  33.883  10.972   7.820
 1487POPC   C4B22174  34.038  10.933   7.383
 1488POPC   NC322175  28.788   2.632   9.263
 1488POPC   PO422176  29.436   2.427   9.519
 1488POPC   GL122177  29.280   2.534   9.129
 1488POPC   GL222178  29.263   2.888   9.143
 1488POPC   C1A22179  29.064   2.472   8.720
 1488POPC   D2A22180  28.904   2.262   8.370
 1488POPC   C3A22181  29.035   2.476   8.031
 1488POPC   C4A22182  29.116   2.358   7.639
 1488POPC   C1B22183  29.163   2.984   8.712
 1488POPC   C2B22184  28.934   2.870   8.369
 1488POPC   C3B22185  29.193   2.956   8.035
 1488POPC   C4B22186  29.522   2.809   7.756
 1489POPC   NC322187   8.079   4.875   9.721
 1489POPC   PO422188   8.423   5.331   9.340
 1489POPC   GL122189   8.193   5.026   9.094
 1489POPC   GL222190   7.911   4.805   9.189
 1489POPC   C1A22191   8.355   5.043   8.687
 1489POPC   D2A22192   8.355   5.301   8.355
 1489POPC   C3A22193   8.325   5.038   8.020
 1489POPC   C4A22194   8.311   5.075   7.596
 1489POPC   C1B22195   7.850   4.943   8.727
 1489POPC   C2B22196   7.784   4.982   8.254
 1489POPC   C3B22197   7.864   4.943   7.781
 1489POPC   C4B22198   8.004   4.716   7.376
 1490POPC   NC322199   1.859  25.696   9.646
 1490POPC   PO422200   1.854  25.044   9.559
 1490POPC   GL122201   2.109  25.098   9.215
 1490POPC   GL222202   2.246  25.432   9.287
 1490POPC   C1A22203   2.108  24.945   8.800
 1490POPC   D2A22204   2.135  25.190   8.434
 1490POPC   C3A22205   1.854  25.108   8.109
 1490POPC   C4A22206   1.992  24.890   7.737
 1490POPC   C1B22207   1.955  25.467   8.897
 1490POPC   C2B22208   1.774  25.538   8.481
 1490POPC   C3B22209   1.937  25.627   8.097
 1490POPC   C4B22210   2.081  25.403   7.753
 1491POPC   NC322211   6.002  13.074   9.402
 1491POPC   PO422212   5.678  12.434   9.463
 1491POPC   GL122213   5.874  12.561   9.130
 1491POPC   GL222214   6.243  12.628   9.192
 1491POPC   C1A22215   5.649  12.799   8.794
 1491POPC   D2A22216   5.765  12.955   8.398
 1491POPC   C3A22217   5.641  12.669   8.070
 1491POPC   C4A22218   5.674  12.857   7.686
 1491POPC   C1B22219   6.156  12.822   8.805
 1491POPC   C2B22220   6.286  12.901   8.422
 1491POPC   C3B22221   6.133  12.811   8.056
 1491POPC   C4B22222   6.173  12.951   7.688
 1492POPC   NC322223  44.244  22.654   9.571
 1492POPC   PO422224  43.693  22.583   9.340
 1492POPC   GL122225  43.920  22.802   9.120
 1492POPC   GL222226  44.136  22.577   9.070
 1492POPC   C1A22227  43.753  23.013   8.790
 1492POPC   D2A22228  43.713  22.939   8.388
 1492POPC   C3A22229  43.990  23.162   8.159
 1492POPC   C4A22230  43.995  23.114   7.777
 1492POPC   C1B22231  44.056  22.618   8.661
 1492POPC   C2B22232  44.263  22.686   8.306
 1492POPC   C3B22233  44.081  22.624   7.947
 1492POPC   C4B22234  44.258  22.545   7.571
 1493POPC   NC322235  42.336  34.441   9.489
 1493POPC   PO422236  41.772  34.418   9.151
 1493POPC   GL122237  42.226  34.489   8.985
 1493POPC   GL222238  42.573  34.677   9.092
 1493POPC   C1A22239  42.418  34.648   8.606
 1493POPC   D2A22240  42.496  34.738   8.182
 1493POPC   C3A22241  42.237  34.448   7.954
 1493POPC   C4A22242  41.789  34.426   7.887
 1493POPC   C1B22243  42.878  34.843   8.755
 1493POPC   C2B22244  42.928  35.008   8.291
 1493POPC   C3B22245  42.809  34.967   7.787
 1493POPC   C4B22246  42.649  34.932   7.283
 1494POPC   NC322247  18.720  12.036   9.579
 1494POPC   PO422248  19.398  12.155   9.615
 1494POPC   GL122249  19.168  12.092   9.204
 1494POPC   GL222250  18.825  12.226   9.130
 1494POPC   C1A22251  19.163  11.816   8.826
 1494POPC   D2A22252  19.313  11.799   8.392
 1494POPC   C3A22253  19.078  12.072   8.102
 1494POPC   C4A22254  19.233  12.404   7.860
 1494POPC   C1B22255  18.932  12.268   8.745
 1494POPC   C2B22256  18.693  12.309   8.419
 1494POPC   C3B22257  18.734  12.487   8.019
 1494POPC   C4B22258  18.789  12.376   7.629
 1495POPC   NC322259   1.252   4.845   9.545
 1495POPC   PO422260   1.120   5.475   9.559
 1495POPC   GL122261   1.330   5.250   9.220
 1495POPC   GL222262   1.031   5.136   9.156
 1495POPC   C1A22263   1.557   5.177   8.846
 1495POPC   D2A22264   1.342   5.210   8.465
 1495POPC   C3A22265   1.561   5.112   8.067
 1495POPC   C4A22266   1.392   5.274   7.693
 1495POPC   C1B22267   0.869   5.216   8.755
 1495POPC   C2B22268   0.599   5.446   8.543
 1495POPC   C3B22269   0.653   5.459   8.106
 1495POPC   C4B22270   0.889   5.385   7.782
 1496POPC   NC322271  32.684  31.341   9.764
 1496POPC   PO422272  33.045  31.612   9.232
 1496POPC   GL122273  33.314  31.393   9.010
 1496POPC   GL222274  33.521  31.697   8.983
 1496POPC   C1A22275  33.153  31.189   8.641
 1496POPC   D2A22276  32.747  31.393   8.493
 1496POPC   C3A22277  32.709  31.523   8.072
 1496POPC   C4A22278  32.900  31.524   7.684
 1496POPC   C1B22279  33.289  31.689   8.596
 1496POPC   C2B22280  33.234  31.502   8.202
 1496POPC   C3B22281  33.237  31.829   7.893
 1496POPC   C4B22282  33.258  31.804   7.441
 1497POPC   NC322283  30.499  43.756   9.493
 1497POPC   PO422284  30.887  44.216   9.232
 1497POPC   GL122285  30.825  43.911   9.026
 1497POPC   GL222286  30.488  43.977   9.017
 1497POPC   C1A22287  30.918  43.989   8.591
 1497POPC   D2A22288  31.141  43.742   8.315
 1497POPC   C3A22289  30.898  43.776   7.944
 1497POPC   C4A22290  30.689  44.162   7.799
 1497POPC   C1B22291  30.451  43.788   8.670
 1497POPC   C2B22292  30.481  43.926   8.265
 1497POPC   C3B22293  30.386  43.705   7.902
 1497POPC   C4B22294  30.607  43.636   7.522
 1498POPC   NC322295   5.208   8.937   9.536
 1498POPC   PO422296   5.116   9.470   9.149
 1498POPC   GL122297   5.222   9.065   9.011
 1498POPC   GL222298   5.472   8.822   9.110
 1498POPC   C1A22299   5.075   8.791   8.700
 1498POPC   D2A22300   4.823   8.720   8.324
 1498POPC   C3A22301   4.978   8.936   7.973
 1498POPC   C4A22302   5.033   8.828   7.541
 1498POPC   C1B22303   5.580   8.749   8.701
 1498POPC   C2B22304   5.397   8.884   8.291
 1498POPC   C3B22305   5.423   8.713   7.840
 1498POPC   C4B22306   5.497   8.718   7.346
 1499POPC   NC322307   3.319   8.720   9.433
 1499POPC   PO422308   3.553   9.394   9.522
 1499POPC   GL122309   3.506   9.141   9.159
 1499POPC   GL222310   3.159   9.112   9.135
 1499POPC   C1A22311   3.648   8.905   8.776
 1499POPC   D2A22312   3.716   8.724   8.323
 1499POPC   C3A22313   3.740   8.907   7.916
 1499POPC   C4A22314   4.026   9.238   7.812
 1499POPC   C1B22315   3.111   8.873   8.799
 1499POPC   C2B22316   3.279   9.025   8.444
 1499POPC   C3B22317   3.256   8.974   8.053
 1499POPC   C4B22318   3.265   8.889   7.643
 1500POPC   NC322319  22.569  30.422   9.498
 1500POPC   PO422320  21.917  30.806   9.469
 1500POPC   GL122321  22.076  30.649   9.081
 1500POPC   GL222322  22.417  30.641   9.047
 1500POPC   C1A22323  21.966  30.538   8.673
 1500POPC   D2A22324  22.116  30.308   8.321
 1500POPC   C3A22325  21.889  30.459   7.984
 1500POPC   C4A22326  21.966  30.832   7.700
 1500POPC   C1B22327  22.259  30.957   8.713
 1500POPC   C2B22328  22.126  30.829   8.281
 1500POPC   C3B22329  22.360  30.686   7.953
 1500POPC   C4B22330  22.475  30.831   7.553
 1501POPC   NC322331  43.120  44.350   9.780
 1501POPC   PO422332  43.171  43.713   9.528
 1501POPC   GL122333  43.014  43.901   9.155
 1501POPC   GL222334  43.311  43.867   9.009
 1501POPC   C1A22335  42.922  43.765   8.712
 1501POPC   D2A22336  43.180  43.788   8.351
 1501POPC   C3A22337  42.973  43.637   7.970
 1501POPC   C4A22338  42.781  43.629   7.558
 1501POPC   C1B22339  43.525  44.053   8.676
 1501POPC   C2B22340  43.622  44.047   8.238
 1501POPC   C3B22341  43.261  44.088   7.924
 1501POPC   C4B22342  43.109  44.010   7.494
 1502POPC   NC322343  18.626  17.531   9.614
 1502POPC   PO422344  18.159  17.240   9.534
 1502POPC   GL122345  18.300  17.495   9.166
 1502POPC   GL222346  18.643  17.611   9.099
 1502POPC   C1A22347  18.315  17.473   8.705
 1502POPC   D2A22348  18.402  17.265   8.320
 1502POPC   C3A22349  18.149  17.437   7.987
 1502POPC   C4A22350  18.230  17.458   7.553
 1502POPC   C1B22351  18.663  17.838   8.691
 1502POPC   C2B22352  18.505  17.765   8.255
 1502POPC   C3B22353  18.641  17.478   7.908
 1502POPC   C4B22354  18.778  17.630   7.530
 1503POPC   NC322355   6.074  29.790   9.596
 1503POPC   PO422356   5.414  29.896   9.570
 1503POPC   GL122357   5.762  30.018   9.235
 1503POPC   GL222358   6.080  29.841   9.104
 1503POPC   C1A22359   5.759  30.077   8.778
 1503POPC   D2A22360   5.584  30.075   8.369
 1503POPC   C3A22361   5.817  29.929   8.045
 1503POPC   C4A22362   5.692  29.890   7.659
 1503POPC   C1B22363   6.246  29.988   8.728
 1503POPC   C2B22364   6.158  30.168   8.367
 1503POPC   C3B22365   6.334  29.927   8.052
 1503POPC   C4B22366   6.191  29.889   7.655
 1504POPC   NC322367  16.163  38.906   9.614
 1504POPC   PO422368  15.763  39.487   9.438
 1504POPC   GL122369  15.833  39.119   9.240
 1504POPC   GL222370  16.161  39.193   9.190
 1504POPC   C1A22371  15.834  39.038   8.805
 1504POPC   D2A22372  15.882  39.271   8.431
 1504POPC   C3A22373  15.806  39.008   8.058
 1504POPC   C4A22374  15.841  39.252   7.699
 1504POPC   C1B22375  16.357  39.109   8.819
 1504POPC   C2B22376  16.263  38.941   8.454
 1504POPC   C3B22377  16.293  39.154   8.084
 1504POPC   C4B22378  16.262  38.938   7.748
 1505POPC   NC322379   5.582  18.192   9.787
 1505POPC   PO422380   5.848  18.778   9.506
 1505POPC   GL122381   5.684  18.526   9.182
 1505POPC   GL222382   5.733  18.155   9.166
 1505POPC   C1A22383   5.859  18.490   8.769
 1505POPC   D2A22384   5.897  18.811   8.457
 1505POPC   C3A22385   5.732  18.590   8.097
 1505POPC   C4A22386   5.936  18.240   7.898
 1505POPC   C1B22387   5.619  17.950   8.747
 1505POPC   C2B22388   5.649  18.084   8.310
 1505POPC   C3B22389   5.632  17.837   7.907
 1505POPC   C4B22390   5.417  17.837   7.466
 1506POPC   NC322391   3.437  27.401   9.684
 1506POPC   PO422392   3.200  27.866   9.337
 1506POPC   GL122393   3.304  27.482   9.140
 1506POPC   GL222394   3.634  27.546   9.165
 1506POPC   C1A22395   3.332  27.447   8.684
 1506POPC   D2A22396   3.338  27.198   8.304
 1506POPC   C3A22397   3.397  27.404   7.905
 1506POPC   C4A22398   3.357  27.804   7.685
 1506POPC   C1B22399   3.836  27.383   8.800
 1506POPC   C2B22400   3.724  27.538   8.381
 1506POPC   C3B22401   3.749  27.753   8.035
 1506POPC   C4B22402   4.028  27.592   7.766
 1507POPC   NC322403  25.406   8.890   9.544
 1507POPC   PO422404  24.775   9.031   9.438
 1507POPC   GL122405  25.144   8.882   9.128
 1507POPC   GL222406  25.341   9.195   9.101
 1507POPC   C1A22407  25.413   8.852   8.750
 1507POPC   D2A22408  25.285   9.023   8.374
 1507POPC   C3A22409  25.239   8.834   7.979
 1507POPC   C4A22410  25.507   8.760   7.698
 1507POPC   C1B22411  24.969   9.191   8.757
 1507POPC   C2B22412  24.837   9.236   8.295
 1507POPC   C3B22413  25.067   9.347   7.972
 1507POPC   C4B22414  25.459   9.272   7.785
 1508POPC   NC322415  26.511   3.439   9.711
 1508POPC   PO422416  25.856   3.417   9.561
 1508POPC   GL122417  25.918   3.576   9.178
 1508POPC   GL222418  26.166   3.817   9.167
 1508POPC   C1A22419  26.140   3.455   8.804
 1508POPC   D2A22420  25.999   3.553   8.406
 1508POPC   C3A22421  26.152   3.313   8.109
 1508POPC   C4A22422  26.180   3.466   7.687
 1508POPC   C1B22423  25.898   3.907   8.790
 1508POPC   C2B22424  25.767   3.982   8.356
 1508POPC   C3B22425  25.961   3.871   7.953
 1508POPC   C4B22426  25.915   3.857   7.477
 1509POPC   NC322427  36.928  20.372   9.468
 1509POPC   PO422428  37.199  21.024   9.454
 1509POPC   GL122429  37.014  20.773   9.145
 1509POPC   GL222430  37.303  20.599   9.063
 1509POPC   C1A22431  36.845  20.530   8.787
 1509POPC   D2A22432  36.740  20.419   8.327
 1509POPC   C3A22433  36.843  20.598   7.894
 1509POPC   C4A22434  36.617  20.559   7.488
 1509POPC   C1B22435  37.261  20.816   8.689
 1509POPC   C2B22436  37.090  20.819   8.308
 1509POPC   C3B22437  37.273  20.882   7.922
 1509POPC   C4B22438  37.550  20.595   7.767
 1510POPC   NC322439  11.513  40.647   9.571
 1510POPC   PO422440  11.209  41.201   9.516
 1510POPC   GL122441  11.434  40.967   9.192
 1510POPC   GL222442  11.283  40.666   9.085
 1510POPC   C1A22443  11.654  40.842   8.795
 1510POPC   D2A22444  11.420  40.903   8.413
 1510POPC   C3A22445  11.441  40.737   8.004
 1510POPC   C4A22446  11.316  40.949   7.638
 1510POPC   C1B22447  11.176  40.351   8.800
 1510POPC   C2B22448  11.227  40.417   8.402
 1510POPC   C3B22449  11.000  40.508   8.059
 1510POPC   C4B22450  11.219  40.359   7.738
 1511POPC   NC322451  43.319   0.004   9.720
 1511POPC   PO422452  43.128  44.395   9.326
 1511POPC   GL122453  43.280  44.400   9.006
 1511POPC   GL222454  43.072  44.252   8.778
 1511POPC   C1A22455  43.395  44.650   8.717
 1511POPC   D2A22456  43.362  44.448   8.354
 1511POPC   C3A22457  43.104  44.579   8.067
 1511POPC   C4A22458  43.207  44.856   7.759
 1511POPC   C1B22459  42.877  44.626   8.707
 1511POPC   C2B22460  42.612  44.732   8.383
 1511POPC   C3B22461  42.594  44.537   8.027
 1511POPC   C4B22462  42.819  44.507   7.635
 1512POPC   NC322463  11.982  32.705   9.618
 1512POPC   PO422464  11.908  31.955   9.585
 1512POPC   GL122465  12.052  32.283   9.327
 1512POPC   GL222466  11.748  32.251   9.167
 1512POPC   C1A22467  12.202  32.328   8.893
 1512POPC   D2A22468  12.109  32.226   8.436
 1512POPC   C3A22469  12.344  32.404   8.098
 1512POPC   C4A22470  12.255  32.319   7.672
 1512POPC   C1B22471  11.707  32.339   8.741
 1512POPC   C2B22472  11.680  32.514   8.321
 1512POPC   C3B22473  11.883  32.592   7.929
 1512POPC   C4B22474  11.767  32.464   7.536
 1513POPC   NC322475  43.705  39.487   9.559
 1513POPC   PO422476  43.983  38.917   9.547
 1513POPC   GL122477  43.786  39.109   9.179
 1513POPC   GL222478  44.017  39.387   9.147
 1513POPC   C1A22479  43.558  39.059   8.774
 1513POPC   D2A22480  43.361  39.098   8.348
 1513POPC   C3A22481  43.714  38.999   8.087
 1513POPC   C4A22482  43.821  39.150   7.688
 1513POPC   C1B22483  44.099  39.192   8.725
 1513POPC   C2B22484  44.230  39.240   8.276
 1513POPC   C3B22485  44.240  39.389   7.840
 1513POPC   C4B22486  44.278  39.211   7.406
 1514POPC   NC322487  21.735  41.726   9.354
 1514POPC   PO422488  21.165  41.606   9.723
 1514POPC   GL122489  21.260  41.562   9.279
 1514POPC   GL222490  21.494  41.299   9.132
 1514POPC   C1A22491  21.127  41.748   8.880
 1514POPC   D2A22492  21.026  41.488   8.519
 1514POPC   C3A22493  21.126  41.701   8.157
 1514POPC   C4A22494  21.064  41.729   7.745
 1514POPC   C1B22495  21.534  41.490   8.696
 1514POPC   C2B22496  21.554  41.407   8.231
 1514POPC   C3B22497  21.435  41.346   7.786
 1514POPC   C4B22498  21.559  41.188   7.317
 1515POPC   NC322499  27.775  24.484   9.634
 1515POPC   PO422500  27.164  24.748   9.368
 1515POPC   GL122501  27.459  24.476   9.167
 1515POPC   GL222502  27.814  24.534   9.139
 1515POPC   C1A22503  27.564  24.360   8.736
 1515POPC   D2A22504  27.321  24.429   8.359
 1515POPC   C3A22505  27.577  24.356   7.985
 1515POPC   C4A22506  27.484  24.244   7.578
 1515POPC   C1B22507  27.865  24.796   8.764
 1515POPC   C2B22508  27.813  24.643   8.338
 1515POPC   C3B22509  27.800  24.835   7.900
 1515POPC   C4B22510  27.854  24.942   7.406
 1516POPC   NC322511  14.721  42.565   9.394
 1516POPC   PO422512  14.130  42.789   9.531
 1516POPC   GL122513  14.154  43.025   9.163
 1516POPC   GL222514  14.521  42.974   9.130
 1516POPC   C1A22515  14.273  43.215   8.756
 1516POPC   D2A22516  14.102  43.089   8.378
 1516POPC   C3A22517  14.177  43.305   8.011
 1516POPC   C4A22518  14.481  43.173   7.767
 1516POPC   C1B22519  14.558  42.798   8.699
 1516POPC   C2B22520  14.585  42.918   8.263
 1516POPC   C3B22521  14.765  42.756   7.869
 1516POPC   C4B22522  14.708  42.836   7.438
 1517POPC   NC322523  38.901  26.045   9.511
 1517POPC   PO422524  38.375  25.755   9.527
 1517POPC   GL122525  38.300  26.058   9.229
 1517POPC   GL222526  38.584  25.975   9.108
 1517POPC   C1A22527  38.133  26.055   8.821
 1517POPC   D2A22528  38.231  26.204   8.430
 1517POPC   C3A22529  38.093  26.081   8.056
 1517POPC   C4A22530  38.295  25.857   7.794
 1517POPC   C1B22531  38.621  26.236   8.802
 1517POPC   C2B22532  38.724  26.080   8.439
 1517POPC   C3B22533  38.644  26.183   8.045
 1517POPC   C4B22534  38.815  25.867   7.837
 1518POPC   NC322535  44.516   2.264   9.473
 1518POPC   PO422536  44.822   1.587   9.523
 1518POPC   GL122537  44.647   1.841   9.205
 1518POPC   GL222538  44.902   2.104   9.166
 1518POPC   C1A22539  44.471   2.048   8.843
 1518POPC   D2A22540  44.280   2.041   8.459
 1518POPC   C3A22541  44.494   2.118   8.073
 1518POPC   C4A22542  44.608   1.847   7.768
 1518POPC   C1B22543  44.878   2.340   8.765
 1518POPC   C2B22544  44.937   2.205   8.361
 1518POPC   C3B22545  44.967   2.253   7.940
 1518POPC   C4B22546  44.978   2.305   7.481
 1519POPC   NC322547  42.782  28.858   9.420
 1519POPC   PO422548  42.928  28.252   9.497
 1519POPC   GL122549  43.222  28.394   9.181
 1519POPC   GL222550  43.012  28.582   9.055
 1519POPC   C1A22551  43.275  28.287   8.742
 1519POPC   D2A22552  43.010  28.216   8.400
 1519POPC   C3A22553  43.167  28.277   8.018
 1519POPC   C4A22554  43.222  28.431   7.641
 1519POPC   C1B22555  42.803  28.657   8.685
 1519POPC   C2B22556  42.818  28.670   8.250
 1519POPC   C3B22557  42.937  28.868   7.883
 1519POPC   C4B22558  42.756  28.902   7.480
 1520POPC   NC322559  40.330  26.803   9.606
 1520POPC   PO422560  39.738  27.159   9.456
 1520POPC   GL122561  39.857  26.748   9.227
 1520POPC   GL222562  40.215  26.655   9.133
 1520POPC   C1A22563  39.781  26.658   8.780
 1520POPC   D2A22564  39.954  26.930   8.455
 1520POPC   C3A22565  39.889  26.909   8.020
 1520POPC   C4A22566  40.218  27.136   7.766
 1520POPC   C1B22567  40.244  26.494   8.705
 1520POPC   C2B22568  40.042  26.466   8.288
 1520POPC   C3B22569  40.223  26.558   7.877
 1520POPC   C4B22570  40.354  26.332   7.504
 1521POPC   NC322571  35.687  27.572   9.388
 1521POPC   PO422572  35.115  27.458   9.727
 1521POPC   GL122573  35.115  27.561   9.267
 1521POPC   GL222574  35.270  27.890   9.307
 1521POPC   C1A22575  35.174  27.457   8.798
 1521POPC   D2A22576  35.335  27.368   8.361
 1521POPC   C3A22577  35.146  27.570   8.041
 1521POPC   C4A22578  35.327  27.600   7.656
 1521POPC   C1B22579  35.454  27.865   8.867
 1521POPC   C2B22580  35.506  27.838   8.426
 1521POPC   C3B22581  35.467  27.977   8.001
 1521POPC   C4B22582  35.094  28.018   7.762
 1522POPC   NC322583  29.773   7.532   9.512
 1522POPC   PO422584  30.358   7.181   9.355
 1522POPC   GL122585  29.984   7.025   9.110
 1522POPC   GL222586  29.648   7.169   9.157
 1522POPC   C1A22587  29.809   7.128   8.700
 1522POPC   D2A22588  29.848   7.452   8.413
 1522POPC   C3A22589  29.771   7.299   8.009
 1522POPC   C4A22590  29.952   7.339   7.586
 1522POPC   C1B22591  29.634   7.598   8.887
 1522POPC   C2B22592  29.502   7.846   8.506
 1522POPC   C3B22593  29.764   7.874   8.122
 1522POPC   C4B22594  29.686   7.774   7.692
 1523POPC   NC322595  37.359  35.878   9.473
 1523POPC   PO422596  37.994  36.002   9.545
 1523POPC   GL122597  37.733  36.084   9.183
 1523POPC   GL222598  37.464  36.320   9.166
 1523POPC   C1A22599  37.782  36.126   8.755
 1523POPC   D2A22600  37.642  35.953   8.364
 1523POPC   C3A22601  37.831  36.113   8.016
 1523POPC   C4A22602  37.825  35.928   7.639
 1523POPC   C1B22603  37.306  36.305   8.726
 1523POPC   C2B22604  37.249  36.306   8.259
 1523POPC   C3B22605  37.371  36.238   7.809
 1523POPC   C4B22606  37.278  36.506   7.438
 1524POPC   NC322607  30.052  27.902   9.459
 1524POPC   PO422608  29.603  27.401   9.482
 1524POPC   GL122609  29.802  27.572   9.173
 1524POPC   GL222610  29.612  27.955   9.220
 1524POPC   C1A22611  30.010  27.432   8.802
 1524POPC   D2A22612  30.112  27.491   8.391
 1524POPC   C3A22613  30.054  27.289   8.021
 1524POPC   C4A22614  30.006  27.505   7.639
 1524POPC   C1B22615  29.841  27.939   8.852
 1524POPC   C2B22616  29.619  27.670   8.583
 1524POPC   C3B22617  29.643  27.572   8.167
 1524POPC   C4B22618  29.597  27.757   7.777
 1525POPC   NC322619  32.189  42.027   9.285
 1525POPC   PO422620  32.636  42.362   9.556
 1525POPC   GL122621  32.483  42.491   9.110
 1525POPC   GL222622  32.105  42.474   9.018
 1525POPC   C1A22623  32.410  42.535   8.617
 1525POPC   D2A22624  32.023  42.493   8.323
 1525POPC   C3A22625  32.120  42.514   7.877
 1525POPC   C4A22626  32.207  42.528   7.431
 1525POPC   C1B22627  32.093  42.111   8.668
 1525POPC   C2B22628  31.877  41.947   8.290
 1525POPC   C3B22629  31.901  42.042   7.856
 1525POPC   C4B22630  32.031  42.005   7.430
 1526POPC   NC322631  23.761  18.688   9.520
 1526POPC   PO422632  23.519  19.303   9.463
 1526POPC   GL122633  23.508  19.046   9.110
 1526POPC   GL222634  23.840  18.939   9.093
 1526POPC   C1A22635  23.539  19.216   8.670
 1526POPC   D2A22636  23.799  19.364   8.331
 1526POPC   C3A22637  23.708  19.226   7.926
 1526POPC   C4A22638  23.410  19.351   7.660
 1526POPC   C1B22639  23.727  18.753   8.710
 1526POPC   C2B22640  23.606  18.864   8.295
 1526POPC   C3B22641  23.733  18.689   7.906
 1526POPC   C4B22642  23.489  18.519   7.586
 1527POPC   NC322643  31.205  44.026   9.494
 1527POPC   PO422644  31.770  43.681   9.427
 1527POPC   GL122645  31.540  43.935   9.137
 1527POPC   GL222646  31.291  43.685   9.060
 1527POPC   C1A22647  31.412  44.079   8.709
 1527POPC   D2A22648  31.316  44.253   8.283
 1527POPC   C3A22649  31.375  43.981   7.914
 1527POPC   C4A22650  31.300  43.616   7.668
 1527POPC   C1B22651  31.679  43.637   8.769
 1527POPC   C2B22652  31.668  43.795   8.350
 1527POPC   C3B22653  31.771  43.648   7.945
 1527POPC   C4B22654  31.729  43.801   7.510
 1528POPC   NC322655  17.191  27.712   9.922
 1528POPC   PO422656  17.826  27.522   9.715
 1528POPC   GL122657  17.744  27.650   9.213
 1528POPC   GL222658  17.894  27.466   8.955
 1528POPC   C1A22659  17.480  27.743   8.776
 1528POPC   D2A22660  17.598  27.818   8.293
 1528POPC   C3A22661  17.432  27.591   7.896
 1528POPC   C4A22662  17.466  27.365   7.462
 1528POPC   C1B22663  17.962  27.826   8.718
 1528POPC   C2B22664  18.111  27.887   8.320
 1528POPC   C3B22665  18.060  27.955   7.879
 1528POPC   C4B22666  17.803  27.755   7.556
 1529POPC   NC322667  28.293   2.788   9.607
 1529POPC   PO422668  28.761   3.085   9.186
 1529POPC   GL122669  28.356   2.876   9.123
 1529POPC   GL222670  28.128   3.112   9.215
 1529POPC   C1A22671  28.247   2.649   8.794
 1529POPC   D2A22672  28.494   2.543   8.453
 1529POPC   C3A22673  28.365   2.688   8.075
 1529POPC   C4A22674  28.664   2.709   7.748
 1529POPC   C1B22675  27.970   3.088   8.793
 1529POPC   C2B22676  27.892   2.926   8.390
 1529POPC   C3B22677  28.078   3.169   8.066
 1529POPC   C4B22678  28.231   3.010   7.693
 1530POPC   NC322679  43.001  41.850   9.556
 1530POPC   PO422680  42.745  41.138   9.481
 1530POPC   GL122681  43.058  41.424   9.237
 1530POPC   GL222682  43.167  41.797   9.097
 1530POPC   C1A22683  43.196  41.387   8.815
 1530POPC   D2A22684  43.120  41.571   8.416
 1530POPC   C3A22685  43.076  41.317   8.045
 1530POPC   C4A22686  43.077  41.284   7.614
 1530POPC   C1B22687  43.366  42.059   8.793
 1530POPC   C2B22688  43.492  41.948   8.401
 1530POPC   C3B22689  43.318  41.830   8.003
 1530POPC   C4B22690  43.457  41.616   7.636
 1531POPC   NC322691  20.748  30.733   9.524
 1531POPC   PO422692  20.229  31.023   9.300
 1531POPC   GL122693  20.388  30.642   9.110
 1531POPC   GL222694  20.752  30.660   9.017
 1531POPC   C1A22695  20.415  30.482   8.690
 1531POPC   D2A22696  20.812  30.444   8.494
 1531POPC   C3A22697  20.753  30.255   8.107
 1531POPC   C4A22698  20.935  30.290   7.749
 1531POPC   C1B22699  20.914  31.068   8.891
 1531POPC   C2B22700  21.147  31.210   8.515
 1531POPC   C3B22701  21.123  30.910   8.195
 1531POPC   C4B22702  20.899  30.773   7.848
 1532POPC   NC322703  40.130  15.664   9.564
 1532POPC   PO422704  39.981  14.981   9.655
 1532POPC   GL122705  40.156  15.227   9.269
 1532POPC   GL222706  39.880  15.165   9.103
 1532POPC   C1A22707  40.224  15.347   8.784
 1532POPC   D2A22708  39.974  15.404   8.398
 1532POPC   C3A22709  40.177  15.428   7.983
 1532POPC   C4A22710  40.027  15.506   7.561
 1532POPC   C1B22711  39.924  14.915   8.734
 1532POPC   C2B22712  39.632  14.989   8.401
 1532POPC   C3B22713  39.765  15.120   7.998
 1532POPC   C4B22714  40.082  15.004   7.698
 1533POPC   NC322715   2.657  20.219   9.483
 1533POPC   PO422716   2.830  20.917   9.484
 1533POPC   GL122717   2.963  20.843   9.081
 1533POPC   GL222718   2.737  20.531   9.055
 1533POPC   C1A22719   2.988  20.701   8.662
 1533POPC   D2A22720   2.937  20.519   8.296
 1533POPC   C3A22721   2.740  20.836   8.091
 1533POPC   C4A22722   2.702  20.650   7.707
 1533POPC   C1B22723   2.503  20.507   8.645
 1533POPC   C2B22724   2.368  20.524   8.202
 1533POPC   C3B22725   2.403  20.263   7.874
 1533POPC   C4B22726   2.803  20.139   7.882
 1534POPC   NC322727  12.514  34.228   9.452
 1534POPC   PO422728  12.313  34.838   9.652
 1534POPC   GL122729  12.234  34.825   9.212
 1534POPC   GL222730  12.286  34.481   9.069
 1534POPC   C1A22731  12.355  34.916   8.790
 1534POPC   D2A22732  12.266  34.601   8.509
 1534POPC   C3A22733  12.122  34.769   8.118
 1534POPC   C4A22734  11.977  34.763   7.712
 1534POPC   C1B22735  11.983  34.247   8.805
 1534POPC   C2B22736  11.837  34.285   8.418
 1534POPC   C3B22737  11.742  34.416   8.029
 1534POPC   C4B22738  11.787  34.268   7.623
 1535POPC   NC322739   3.924  25.582   9.753
 1535POPC   PO422740   4.400  25.193   9.626
 1535POPC   GL122741   4.557  25.152   9.195
 1535POPC   GL222742   4.313  24.907   9.136
 1535POPC   C1A22743   4.475  25.250   8.734
 1535POPC   D2A22744   4.305  25.366   8.343
 1535POPC   C3A22745   4.522  25.182   8.010
 1535POPC   C4A22746   4.314  25.122   7.603
 1535POPC   C1B22747   4.171  24.846   8.689
 1535POPC   C2B22748   4.209  24.857   8.248
 1535POPC   C3B22749   4.079  24.723   7.812
 1535POPC   C4B22750   4.046  24.784   7.347
 1536POPC   NC322751  26.628  27.450   9.686
 1536POPC   PO422752  27.178  27.800   9.588
 1536POPC   GL122753  26.994  27.711   9.177
 1536POPC   GL222754  26.640  27.566   9.178
 1536POPC   C1A22755  26.909  27.656   8.755
 1536POPC   D2A22756  26.745  27.971   8.481
 1536POPC   C3A22757  26.785  27.864   8.089
 1536POPC   C4A22758  26.858  27.775   7.695
 1536POPC   C1B22759  26.420  27.714   8.815
 1536POPC   C2B22760  26.492  27.538   8.410
 1536POPC   C3B22761  26.522  27.432   7.999
 1536POPC   C4B22762  26.430  27.447   7.610
 1537POPC   NC322763  28.473  28.892   9.542
 1537POPC   PO422764  28.036  28.307   9.503
 1537POPC   GL122765  28.381  28.460   9.232
 1537POPC   GL222766  28.130  28.736   9.217
 1537POPC   C1A22767  28.581  28.342   8.783
 1537POPC   D2A22768  28.694  28.387   8.303
 1537POPC   C3A22769  28.400  28.330   7.929
 1537POPC   C4A22770  28.069  28.002   7.817
 1537POPC   C1B22771  28.083  28.508   8.832
 1537POPC   C2B22772  28.208  28.574   8.422
 1537POPC   C3B22773  28.032  28.694   8.049
 1537POPC   C4B22774  28.215  28.790   7.705
 1538POPC   NC322775  16.285  44.479   9.378
 1538POPC   PO422776  16.762  44.600   9.731
 1538POPC   GL122777  16.751  44.633   9.253
 1538POPC   GL222778  17.035  44.767   9.168
 1538POPC   C1A22779  16.617  44.792   8.818
 1538POPC   D2A22780  16.689  44.676   8.395
 1538POPC   C3A22781  16.406  44.511   8.043
 1538POPC   C4A22782  16.384  44.712   7.633
 1538POPC   C1B22783  17.110  44.619   8.730
 1538POPC   C2B22784  17.222  44.663   8.285
 1538POPC   C3B22785  17.214  44.869   7.884
 1538POPC   C4B22786  16.852  44.660   7.815
 1539POPC   NC322787  10.615  36.320   9.495
 1539POPC   PO422788  10.705  35.684   9.287
 1539POPC   GL122789  10.381  35.732   9.036
 1539POPC   GL222790  10.333  36.062   9.139
 1539POPC   C1A22791  10.443  35.914   8.629
 1539POPC   D2A22792  10.752  36.129   8.380
 1539POPC   C3A22793  10.668  35.977   7.975
 1539POPC   C4A22794  10.257  36.018   7.785
 1539POPC   C1B22795  10.564  36.368   8.858
 1539POPC   C2B22796  10.482  36.563   8.472
 1539POPC   C3B22797  10.415  36.416   8.090
 1539POPC   C4B22798  10.571  36.395   7.700
 1540POPC   NC322799   8.963   4.411   9.668
 1540POPC   PO422800   8.647   3.820   9.325
 1540POPC   GL122801   8.770   4.125   9.054
 1540POPC   GL222802   8.850   4.451   9.167
 1540POPC   C1A22803   8.619   4.269   8.655
 1540POPC   D2A22804   8.734   4.195   8.212
 1540POPC   C3A22805   9.165   4.187   8.034
 1540POPC   C4A22806   9.322   4.298   7.635
 1540POPC   C1B22807   9.107   4.387   8.785
 1540POPC   C2B22808   9.116   4.571   8.362
 1540POPC   C3B22809   8.878   4.612   7.937
 1540POPC   C4B22810   8.785   4.284   7.632
 1541POPC   NC322811  29.366  36.807   9.630
 1541POPC   PO422812  28.842  37.056   9.498
 1541POPC   GL122813  29.083  36.848   9.149
 1541POPC   GL222814  29.359  36.586   9.190
 1541POPC   C1A22815  29.163  37.037   8.712
 1541POPC   D2A22816  29.380  37.187   8.319
 1541POPC   C3A22817  29.236  37.001   7.924
 1541POPC   C4A22818  28.844  36.882   7.724
 1541POPC   C1B22819  29.564  36.742   8.854
 1541POPC   C2B22820  29.431  36.630   8.458
 1541POPC   C3B22821  29.533  36.540   8.054
 1541POPC   C4B22822  29.304  36.547   7.711
 1542POPC   NC322823  26.268   6.466   9.466
 1542POPC   PO422824  25.670   6.830   9.477
 1542POPC   GL122825  25.940   6.774   9.133
 1542POPC   GL222826  26.164   7.034   9.226
 1542POPC   C1A22827  25.973   6.568   8.706
 1542POPC   D2A22828  25.774   6.544   8.287
 1542POPC   C3A22829  26.032   6.434   7.922
 1542POPC   C4A22830  26.191   6.327   7.510
 1542POPC   C1B22831  26.236   7.001   8.772
 1542POPC   C2B22832  26.138   6.900   8.334
 1542POPC   C3B22833  25.890   6.949   7.967
 1542POPC   C4B22834  25.988   7.211   7.607
 1543POPC   NC322835  35.421  19.579   9.451
 1543POPC   PO422836  35.815  20.045   9.443
 1543POPC   GL122837  35.633  19.889   9.095
 1543POPC   GL222838  35.802  19.594   9.054
 1543POPC   C1A22839  35.400  19.956   8.727
 1543POPC   D2A22840  35.537  19.885   8.327
 1543POPC   C3A22841  35.243  19.841   7.991
 1543POPC   C4A22842  35.592  19.939   7.782
 1543POPC   C1B22843  35.455  19.465   8.784
 1543POPC   C2B22844  35.237  19.487   8.368
 1543POPC   C3B22845  35.415  19.355   7.940
 1543POPC   C4B22846  35.427  19.267   7.464
 1544POPC   NC322847  42.004   4.081   9.430
 1544POPC   PO422848  42.240   3.419   9.538
 1544POPC   GL122849  42.426   3.446   9.149
 1544POPC   GL222850  42.396   3.796   9.075
 1544POPC   C1A22851  42.472   3.174   8.791
 1544POPC   D2A22852  42.469   3.374   8.389
 1544POPC   C3A22853  42.485   3.235   7.978
 1544POPC   C4A22854  42.243   3.387   7.661
 1544POPC   C1B22855  42.616   3.927   8.732
 1544POPC   C2B22856  42.818   3.786   8.355
 1544POPC   C3B22857  42.617   3.736   7.976
 1544POPC   C4B22858  42.496   3.840   7.578
 1545POPC   NC322859  23.275  42.911   9.364
 1545POPC   PO422860  22.612  43.152   9.423
 1545POPC   GL122861  22.827  43.141   9.053
 1545POPC   GL222862  22.871  42.780   9.064
 1545POPC   C1A22863  22.950  43.422   8.682
 1545POPC   D2A22864  22.800  43.593   8.279
 1545POPC   C3A22865  22.737  43.272   7.933
 1545POPC   C4A22866  22.974  43.188   7.543
 1545POPC   C1B22867  23.120  42.912   8.713
 1545POPC   C2B22868  23.359  43.103   8.402
 1545POPC   C3B22869  23.184  42.978   8.026
 1545POPC   C4B22870  22.915  42.744   7.762
 1546POPC   NC322871  21.958   6.775   9.368
 1546POPC   PO422872  22.529   6.582   9.531
 1546POPC   GL122873  22.469   6.679   9.148
 1546POPC   GL222874  22.240   6.425   9.116
 1546POPC   C1A22875  22.232   6.820   8.792
 1546POPC   D2A22876  22.297   6.904   8.411
 1546POPC   C3A22877  22.151   6.811   8.030
 1546POPC   C4A22878  22.467   6.939   7.764
 1546POPC   C1B22879  22.363   6.319   8.714
 1546POPC   C2B22880  22.194   6.372   8.301
 1546POPC   C3B22881  22.009   6.235   7.894
 1546POPC   C4B22882  22.051   6.177   7.452
 1547POPC   NC322883  32.612  35.173   9.579
 1547POPC   PO422884  31.943  35.386   9.606
 1547POPC   GL122885  32.240  35.309   9.276
 1547POPC   GL222886  32.257  35.616   9.091
 1547POPC   C1A22887  32.237  35.177   8.861
 1547POPC   D2A22888  32.093  35.195   8.464
 1547POPC   C3A22889  32.351  35.155   8.139
 1547POPC   C4A22890  32.273  35.210   7.718
 1547POPC   C1B22891  32.330  35.640   8.643
 1547POPC   C2B22892  32.582  35.630   8.267
 1547POPC   C3B22893  32.587  35.566   7.852
 1547POPC   C4B22894  32.378  35.732   7.510
 1548POPC   NC322895  29.288   2.864   9.665
 1548POPC   PO422896  29.932   2.948   9.564
 1548POPC   GL122897  30.051   2.917   9.133
 1548POPC   GL222898  29.758   2.740   9.086
 1548POPC   C1A22899  30.049   2.885   8.655
 1548POPC   D2A22900  30.019   2.499   8.381
 1548POPC   C3A22901  30.267   2.470   7.985
 1548POPC   C4A22902  30.260   2.761   7.646
 1548POPC   C1B22903  29.572   2.684   8.729
 1548POPC   C2B22904  29.604   2.843   8.334
 1548POPC   C3B22905  29.932   2.905   8.046
 1548POPC   C4B22906  29.918   3.155   7.693
 1549POPC   NC322907  44.235   5.764   9.503
 1549POPC   PO422908  44.871   6.058   9.454
 1549POPC   GL122909  44.762   6.114   9.034
 1549POPC   GL222910  44.424   6.201   9.132
 1549POPC   C1A22911  44.741   6.083   8.567
 1549POPC   D2A22912  44.795   5.677   8.344
 1549POPC   C3A22913  44.851   5.608   7.894
 1549POPC   C4A22914  44.769   5.600   7.437
 1549POPC   C1B22915  44.379   5.811   8.843
 1549POPC   C2B22916  44.301   5.802   8.380
 1549POPC   C3B22917  44.545   6.041   8.052
 1549POPC   C4B22918  44.898   6.094   7.758
 1550POPC   NC322919   9.679   9.291   9.597
 1550POPC   PO422920   9.997   8.718   9.441
 1550POPC   GL122921   9.681   8.933   9.173
 1550POPC   GL222922   9.946   9.052   8.976
 1550POPC   C1A22923   9.514   8.939   8.741
 1550POPC   D2A22924   9.653   8.807   8.335
 1550POPC   C3A22925   9.652   9.003   7.961
 1550POPC   C4A22926   9.983   9.252   7.809
 1550POPC   C1B22927   9.897   8.621   8.771
 1550POPC   C2B22928  10.067   8.519   8.363
 1550POPC   C3B22929  10.090   8.702   7.961
 1550POPC   C4B22930   9.944   8.812   7.567
 1551POPC   NC322931  11.670   1.462   9.501
 1551POPC   PO422932  11.341   0.825   9.460
 1551POPC   GL122933  11.209   1.102   9.139
 1551POPC   GL222934  11.262   1.482   9.171
 1551POPC   C1A22935  11.422   1.179   8.745
 1551POPC   D2A22936  11.236   1.301   8.347
 1551POPC   C3A22937  11.295   1.122   7.929
 1551POPC   C4A22938  11.019   1.207   7.612
 1551POPC   C1B22939  11.614   1.626   8.858
 1551POPC   C2B22940  11.561   1.738   8.396
 1551POPC   C3B22941  11.624   1.491   8.042
 1551POPC   C4B22942  11.447   1.525   7.616
 1552POPC   NC322943  36.398  13.198   9.463
 1552POPC   PO422944  35.730  13.447   9.478
 1552POPC   GL122945  36.097  13.544   9.172
 1552POPC   GL222946  35.897  13.788   9.021
 1552POPC   C1A22947  36.348  13.656   8.800
 1552POPC   D2A22948  36.360  13.827   8.383
 1552POPC   C3A22949  36.447  13.591   7.990
 1552POPC   C4A22950  36.395  13.555   7.516
 1552POPC   C1B22951  35.861  13.527   8.677
 1552POPC   C2B22952  35.797  13.506   8.247
 1552POPC   C3B22953  35.959  13.534   7.827
 1552POPC   C4B22954  35.893  13.363   7.413
 1553POPC   NC322955  43.475  19.383   9.399
 1553POPC   PO422956  43.878  18.870   9.564
 1553POPC   GL122957  43.758  18.968   9.131
 1553POPC   GL222958  43.856  19.325   9.073
 1553POPC   C1A22959  44.007  18.801   8.753
 1553POPC   D2A22960  43.940  18.630   8.323
 1553POPC   C3A22961  43.665  18.920   8.116
 1553POPC   C4A22962  43.580  19.072   7.713
 1553POPC   C1B22963  44.076  19.362   8.697
 1553POPC   C2B22964  44.087  19.156   8.312
 1553POPC   C3B22965  44.063  19.113   7.861
 1553POPC   C4B22966  44.023  19.265   7.423
 1554POPC   NC322967  39.411  44.935   9.259
 1554POPC   PO422968  39.084  44.339   9.510
 1554POPC   GL122969  39.152  44.410   9.086
 1554POPC   GL222970  39.478  44.530   8.942
 1554POPC   C1A22971  38.944  44.624   8.756
 1554POPC   D2A22972  38.987  44.801   8.352
 1554POPC   C3A22973  39.293  44.657   8.034
 1554POPC   C4A22974  39.328  44.237   7.819
 1554POPC   C1B22975  39.415  44.885   8.618
 1554POPC   C2B22976  39.560   0.123   8.257
 1554POPC   C3B22977  39.770  44.965   7.901
 1554POPC   C4B22978  39.615  44.683   7.610
 1555POPC   NC322979  11.986   6.910   9.572
 1555POPC   PO422980  11.724   6.310   9.656
 1555POPC   GL122981  11.919   6.508   9.266
 1555POPC   GL222982  12.244   6.506   9.091
 1555POPC   C1A22983  11.801   6.552   8.819
 1555POPC   D2A22984  11.542   6.537   8.450
 1555POPC   C3A22985  11.725   6.859   8.187
 1555POPC   C4A22986  12.013   6.852   7.801
 1555POPC   C1B22987  12.280   6.698   8.665
 1555POPC   C2B22988  12.293   6.738   8.223
 1555POPC   C3B22989  12.538   6.795   7.852
 1555POPC   C4B22990  12.500   6.962   7.442
 1556POPC   NC322991   2.669   2.387   9.492
 1556POPC   PO422992   2.728   1.732   9.525
 1556POPC   GL122993   2.658   1.996   9.145
 1556POPC   GL222994   2.397   2.248   9.071
 1556POPC   C1A22995   2.803   1.919   8.738
 1556POPC   D2A22996   2.963   2.111   8.373
 1556POPC   C3A22997   2.986   1.791   8.084
 1556POPC   C4A22998   2.689   1.686   7.808
 1556POPC   C1B22999   2.316   2.045   8.687
 1556POPC   C2B23000   2.476   1.925   8.272
 1556POPC   C3B23001   2.668   2.183   7.936
 1556POPC   C4B23002   2.570   2.163   7.474
 1557POPC   NC323003  19.585   7.775   9.405
 1557POPC   PO423004  19.939   7.243   9.603
 1557POPC   GL123005  19.877   7.372   9.222
 1557POPC   GL223006  19.523   7.279   9.179
 1557POPC   C1A23007  20.133   7.482   8.881
 1557POPC   D2A23008  20.003   7.528   8.485
 1557POPC   C3A23009  19.829   7.324   8.148
 1557POPC   C4A23010  19.977   7.287   7.765
 1557POPC   C1B23011  19.591   7.496   8.796
 1557POPC   C2B23012  19.488   7.614   8.383
 1557POPC   C3B23013  19.532   7.762   7.972
 1557POPC   C4B23014  19.760   7.703   7.582
 1558POPC   NC323015  40.568  38.826   9.396
 1558POPC   PO423016  40.590  38.207   9.330
 1558POPC   GL123017  40.802  38.287   8.998
 1558POPC   GL223018  40.727  38.620   8.900
 1558POPC   C1A23019  41.077  38.221   8.675
 1558POPC   D2A23020  41.186  38.304   8.275
 1558POPC   C3A23021  40.796  38.406   8.020
 1558POPC   C4A23022  40.661  38.203   7.608
 1558POPC   C1B23023  40.616  38.375   8.517
 1558POPC   C2B23024  40.330  38.222   8.195
 1558POPC   C3B23025  40.313  38.496   7.835
 1558POPC   C4B23026  40.621  38.805   7.758
 1559POPC   NC323027  13.365   7.369   9.427
 1559POPC   PO423028  14.014   7.240   9.513
 1559POPC   GL123029  14.043   7.457   9.139
 1559POPC   GL223030  13.941   7.819   9.187
 1559POPC   C1A23031  13.963   7.318   8.719
 1559POPC   D2A23032  13.635   7.333   8.402
 1559POPC   C3A23033  13.852   7.294   8.003
 1559POPC   C4A23034  13.758   7.428   7.598
 1559POPC   C1B23035  13.668   7.702   8.828
 1559POPC   C2B23036  13.509   7.837   8.439
 1559POPC   C3B23037  13.536   7.701   8.038
 1559POPC   C4B23038  13.281   7.578   7.696
 1560POPC   NC323039  11.547  25.702   9.548
 1560POPC   PO423040  11.304  26.353   9.511
 1560POPC   GL123041  11.177  25.946   9.261
 1560POPC   GL223042  11.496  25.902   9.089
 1560POPC   C1A23043  11.038  25.720   8.860
 1560POPC   D2A23044  10.973  25.909   8.427
 1560POPC   C3A23045  11.169  26.025   8.019
 1560POPC   C4A23046  11.351  26.413   7.863
 1560POPC   C1B23047  11.432  25.976   8.681
 1560POPC   C2B23048  11.573  25.831   8.311
 1560POPC   C3B23049  11.695  25.991   7.953
 1560POPC   C4B23050  11.572  25.985   7.533
 1561POPC   NC323051  19.018  30.926   9.568
 1561POPC   PO423052  18.979  30.295   9.536
 1561POPC   GL123053  18.941  30.578   9.134
 1561POPC   GL223054  19.177  30.879   9.056
 1561POPC   C1A23055  18.929  30.623   8.652
 1561POPC   D2A23056  19.175  30.694   8.229
 1561POPC   C3A23057  18.970  30.495   7.835
 1561POPC   C4A23058  18.662  30.680   7.536
 1561POPC   C1B23059  19.112  31.084   8.629
 1561POPC   C2B23060  18.895  31.135   8.233
 1561POPC   C3B23061  18.998  31.010   7.810
 1561POPC   C4B23062  19.082  30.948   7.358
 1562POPC   NC323063  33.667   6.135   9.510
 1562POPC   PO423064  33.723   6.706   9.705
 1562POPC   GL123065  33.515   6.668   9.262
 1562POPC   GL223066  33.697   6.413   9.098
 1562POPC   C1A23067  33.526   6.720   8.763
 1562POPC   D2A23068  33.366   6.643   8.339
 1562POPC   C3A23069  33.680   6.733   7.991
 1562POPC   C4A23070  33.668   6.634   7.534
 1562POPC   C1B23071  33.970   6.352   8.765
 1562POPC   C2B23072  34.147   6.535   8.399
 1562POPC   C3B23073  34.251   6.415   8.004
 1562POPC   C4B23074  34.040   6.342   7.676
 1563POPC   NC323075  41.554  11.846   9.393
 1563POPC   PO423076  41.199  12.400   9.559
 1563POPC   GL123077  41.314  12.337   9.154
 1563POPC   GL223078  41.626  12.299   9.143
 1563POPC   C1A23079  41.386  12.045   8.764
 1563POPC   D2A23080  41.623  11.854   8.411
 1563POPC   C3A23081  41.413  11.891   7.990
 1563POPC   C4A23082  41.431  12.205   7.672
 1563POPC   C1B23083  41.912  12.127   8.806
 1563POPC   C2B23084  42.040  12.223   8.382
 1563POPC   C3B23085  41.906  12.129   7.973
 1563POPC   C4B23086  41.847  11.827   7.653
 1564POPC   NC323087  21.490   7.892   9.454
 1564POPC   PO423088  21.240   8.539   9.524
 1564POPC   GL123089  21.475   8.354   9.222
 1564POPC   GL223090  21.281   8.137   9.049
 1564POPC   C1A23091  21.570   8.484   8.790
 1564POPC   D2A23092  21.479   8.266   8.397
 1564POPC   C3A23093  21.636   8.450   8.000
 1564POPC   C4A23094  21.516   8.567   7.611
 1564POPC   C1B23095  21.102   7.947   8.700
 1564POPC   C2B23096  21.075   7.900   8.274
 1564POPC   C3B23097  21.356   8.038   7.946
 1564POPC   C4B23098  21.141   8.267   7.663
 1565POPC   NC323099  31.702  44.892   9.542
 1565POPC   PO423100  31.211  44.467   9.690
 1565POPC   GL123101  31.402  44.446   9.229
 1565POPC   GL223102  31.179  44.479   8.927
 1565POPC   C1A23103  31.651  44.650   8.859
 1565POPC   D2A23104  31.601  44.856   8.435
 1565POPC   C3A23105  31.676  44.664   7.998
 1565POPC   C4A23106  31.649  44.408   7.607
 1565POPC   C1B23107  31.166  44.930   8.842
 1565POPC   C2B23108  31.149   0.125   8.446
 1565POPC   C3B23109  31.212  44.875   8.057
 1565POPC   C4B23110  31.185  44.456   7.822
 1566POPC   NC323111  12.211  39.044   9.358
 1566POPC   PO423112  11.805  39.526   9.542
 1566POPC   GL123113  12.055  39.480   9.168
 1566POPC   GL223114  11.866  39.259   9.033
 1566POPC   C1A23115  12.271  39.526   8.763
 1566POPC   D2A23116  12.422  39.215   8.469
 1566POPC   C3A23117  12.131  39.199   8.148
 1566POPC   C4A23118  12.146  39.064   7.742
 1566POPC   C1B23119  11.757  39.023   8.692
 1566POPC   C2B23120  11.660  39.041   8.251
 1566POPC   C3B23121  11.805  38.746   7.952
 1566POPC   C4B23122  11.847  38.690   7.519
 1567POPC   NC323123  19.718  43.416   9.371
 1567POPC   PO423124  19.354  42.892   9.430
 1567POPC   GL123125  19.699  42.874   9.153
 1567POPC   GL223126  19.573  43.142   8.978
 1567POPC   C1A23127  20.066  43.023   8.887
 1567POPC   D2A23128  20.264  43.023   8.471
 1567POPC   C3A23129  20.082  43.166   8.096
 1567POPC   C4A23130  20.082  42.936   7.711
 1567POPC   C1B23131  19.500  42.915   8.604
 1567POPC   C2B23132  19.601  42.993   8.167
 1567POPC   C3B23133  19.577  42.809   7.758
 1567POPC   C4B23134  19.424  43.010   7.339
 1568POPC   NC323135  43.927  35.710   9.597
 1568POPC   PO423136  43.642  35.099   9.455
 1568POPC   GL123137  43.804  35.099   9.077
 1568POPC   GL223138  43.828  35.468   9.136
 1568POPC   C1A23139  43.939  34.975   8.651
 1568POPC   D2A23140  44.022  34.990   8.223
 1568POPC   C3A23141  43.740  35.208   8.023
 1568POPC   C4A23142  43.737  35.505   7.743
 1568POPC   C1B23143  44.104  35.442   8.825
 1568POPC   C2B23144  44.043  35.486   8.420
 1568POPC   C3B23145  44.175  35.521   8.025
 1568POPC   C4B23146  44.160  35.753   7.651
 1569POPC   NC323147  32.762  32.828   9.582
 1569POPC   PO423148  32.180  32.987   9.262
 1569POPC   GL123149  32.377  33.088   8.911
 1569POPC   GL223150  32.674  33.087   9.115
 1569POPC   C1A23151  32.202  33.080   8.510
 1569POPC   D2A23152  31.919  32.813   8.270
 1569POPC   C3A23153  31.990  32.998   7.872
 1569POPC   C4A23154  32.369  32.876   7.650
 1569POPC   C1B23155  32.796  33.351   8.777
 1569POPC   C2B23156  32.598  33.449   8.422
 1569POPC   C3B23157  32.473  33.208   8.065
 1569POPC   C4B23158  32.750  33.203   7.706
 1570POPC   NC323159  20.238  23.460   9.656
 1570POPC   PO423160  20.741  23.885   9.650
 1570POPC   GL123161  20.656  23.717   9.205
 1570POPC   GL223162  20.425  23.411   9.158
 1570POPC   C1A23163  20.768  23.804   8.752
 1570POPC   D2A23164  20.832  24.153   8.439
 1570POPC   C3A23165  20.702  23.991   8.055
 1570POPC   C4A23166  20.789  23.738   7.745
 1570POPC   C1B23167  20.266  23.711   8.827
 1570POPC   C2B23168  20.316  23.869   8.388
 1570POPC   C3B23169  20.297  23.673   7.955
 1570POPC   C4B23170  20.532  23.314   7.769
 1571POPC   NC323171  21.880  12.595   9.661
 1571POPC   PO423172  22.492  12.714   9.456
 1571POPC   GL123173  22.099  12.840   9.237
 1571POPC   GL223174  22.058  12.545   9.052
 1571POPC   C1A23175  22.016  13.008   8.799
 1571POPC   D2A23176  22.094  12.878   8.360
 1571POPC   C3A23177  21.971  12.906   7.929
 1571POPC   C4A23178  21.696  13.040   7.600
 1571POPC   C1B23179  22.376  12.606   8.685
 1571POPC   C2B23180  22.505  12.616   8.198
 1571POPC   C3B23181  22.456  12.742   7.737
 1571POPC   C4B23182  22.232  13.078   7.492
 1572POPC   NC323183  18.607  30.053   9.437
 1572POPC   PO423184  18.334  29.531   9.470
 1572POPC   GL123185  18.329  29.759   9.089
 1572POPC   GL223186  18.006  29.752   8.938
 1572POPC   C1A23187  18.457  29.703   8.659
 1572POPC   D2A23188  18.446  29.641   8.219
 1572POPC   C3A23189  18.316  29.868   7.866
 1572POPC   C4A23190  18.521  30.004   7.471
 1572POPC   C1B23191  18.137  30.105   8.645
 1572POPC   C2B23192  18.413  30.188   8.292
 1572POPC   C3B23193  18.441  30.352   7.860
 1572POPC   C4B23194  18.103  30.273   7.538
 1573POPC   NC323195  12.980  39.674   9.386
 1573POPC   PO423196  12.561  40.177   9.606
 1573POPC   GL123197  12.619  40.025   9.206
 1573POPC   GL223198  12.969  40.120   9.169
 1573POPC   C1A23199  12.685  39.873   8.782
 1573POPC   D2A23200  12.600  40.023   8.369
 1573POPC   C3A23201  12.845  39.909   7.985
 1573POPC   C4A23202  12.577  39.859   7.655
 1573POPC   C1B23203  13.095  40.168   8.761
 1573POPC   C2B23204  13.083  40.182   8.359
 1573POPC   C3B23205  13.281  40.239   8.001
 1573POPC   C4B23206  13.412  40.237   7.582
 1574POPC   NC323207   2.901  13.646   9.465
 1574POPC   PO423208   2.542  13.079   9.479
 1574POPC   GL123209   2.808  13.283   9.125
 1574POPC   GL223210   2.812  13.659   8.981
 1574POPC   C1A23211   2.722  13.260   8.701
 1574POPC   D2A23212   2.675  13.506   8.367
 1574POPC   C3A23213   3.021  13.564   8.128
 1574POPC   C4A23214   2.856  13.618   7.771
 1574POPC   C1B23215   2.561  13.938   8.729
 1574POPC   C2B23216   2.373  13.913   8.333
 1574POPC   C3B23217   2.473  13.886   7.919
 1574POPC   C4B23218   2.508  13.926   7.439
 1575POPC   NC323219  38.027  24.494   9.431
 1575POPC   PO423220  38.696  24.229   9.427
 1575POPC   GL123221  38.454  24.474   9.144
 1575POPC   GL223222  38.229  24.199   9.070
 1575POPC   C1A23223  38.412  24.552   8.705
 1575POPC   D2A23224  38.659  24.336   8.377
 1575POPC   C3A23225  38.539  24.455   7.974
 1575POPC   C4A23226  38.294  24.801   7.871
 1575POPC   C1B23227  38.276  24.056   8.638
 1575POPC   C2B23228  38.142  24.343   8.284
 1575POPC   C3B23229  37.954  24.307   7.879
 1575POPC   C4B23230  38.001  24.253   7.424
 1576POPC   NC323231  19.058  37.038   9.472
 1576POPC   PO423232  19.333  36.495   9.351
 1576POPC   GL123233  19.337  36.812   9.036
 1576POPC   GL223234  19.022  37.004   8.983
 1576POPC   C1A23235  19.289  36.857   8.588
 1576POPC   D2A23236  18.887  36.800   8.384
 1576POPC   C3A23237  19.008  36.834   7.959
 1576POPC   C4A23238  19.308  36.792   7.636
 1576POPC   C1B23239  18.922  37.271   8.661
 1576POPC   C2B23240  18.865  37.275   8.238
 1576POPC   C3B23241  18.789  37.271   7.840
 1576POPC   C4B23242  19.046  37.191   7.500
 1577POPC   NC323243  38.072  17.537   9.475
 1577POPC   PO423244  38.692  17.336   9.539
 1577POPC   GL123245  38.528  17.532   9.166
 1577POPC   GL223246  38.689  17.843   9.192
 1577POPC   C1A23247  38.515  17.376   8.710
 1577POPC   D2A23248  38.782  17.367   8.363
 1577POPC   C3A23249  38.507  17.268   8.070
 1577POPC   C4A23250  38.383  17.364   7.676
 1577POPC   C1B23251  38.412  17.850   8.781
 1577POPC   C2B23252  38.362  17.728   8.327
 1577POPC   C3B23253  38.302  17.818   7.898
 1577POPC   C4B23254  38.331  17.830   7.416
 1578POPC   NC323255  32.874  41.962   9.489
 1578POPC   PO423256  33.276  42.465   9.655
 1578POPC   GL123257  33.066  42.397   9.216
 1578POPC   GL223258  33.090  42.055   9.063
 1578POPC   C1A23259  33.090  42.401   8.731
 1578POPC   D2A23260  33.122  42.063   8.480
 1578POPC   C3A23261  32.986  42.243   8.116
 1578POPC   C4A23262  33.009  42.195   7.706
 1578POPC   C1B23263  32.691  42.094   8.833
 1578POPC   C2B23264  32.588  42.105   8.409
 1578POPC   C3B23265  32.613  41.912   7.997
 1578POPC   C4B23266  32.497  42.143   7.626
 1579POPC   NC323267  38.160  38.075   9.496
 1579POPC   PO423268  38.759  38.470   9.605
 1579POPC   GL123269  38.501  38.393   9.226
 1579POPC   GL223270  38.540  38.030   9.165
 1579POPC   C1A23271  38.324  38.495   8.772
 1579POPC   D2A23272  38.151  38.654   8.382
 1579POPC   C3A23273  38.354  38.540   8.007
 1579POPC   C4A23274  38.340  38.524   7.554
 1579POPC   C1B23275  38.749  38.226   8.822
 1579POPC   C2B23276  38.841  38.137   8.425
 1579POPC   C3B23277  38.647  38.116   8.040
 1579POPC   C4B23278  38.820  38.189   7.663
 1580POPC   NC323279   1.934   3.533   9.470
 1580POPC   PO423280   2.196   4.148   9.605
 1580POPC   GL123281   2.180   3.935   9.152
 1580POPC   GL223282   1.858   3.768   9.013
 1580POPC   C1A23283   2.292   3.598   8.819
 1580POPC   D2A23284   2.082   3.469   8.410
 1580POPC   C3A23285   2.174   3.694   8.048
 1580POPC   C4A23286   2.387   3.555   7.728
 1580POPC   C1B23287   1.628   3.608   8.641
 1580POPC   C2B23288   1.590   3.292   8.320
 1580POPC   C3B23289   1.797   3.341   7.929
 1580POPC   C4B23290   1.715   3.740   7.748
 1581POPC   NC323291  21.012  37.823   9.533
 1581POPC   PO423292  21.733  38.072   9.479
 1581POPC   GL123293  21.420  37.921   9.197
 1581POPC   GL223294  21.510  37.613   9.076
 1581POPC   C1A23295  21.414  37.997   8.748
 1581POPC   D2A23296  21.675  37.955   8.371
 1581POPC   C3A23297  21.438  38.004   7.992
 1581POPC   C4A23298  21.082  37.827   7.822
 1581POPC   C1B23299  21.267  37.505   8.737
 1581POPC   C2B23300  21.242  37.659   8.329
 1581POPC   C3B23301  21.439  37.472   7.985
 1581POPC   C4B23302  21.266  37.397   7.590
 1582POPC   NC323303   2.766  25.281   9.576
 1582POPC   PO423304   3.178  25.574   9.251
 1582POPC   GL123305   2.917  25.295   9.059
 1582POPC   GL223306   2.612  25.110   9.095
 1582POPC   C1A23307   2.914  25.227   8.663
 1582POPC   D2A23308   2.639  25.177   8.352
 1582POPC   C3A23309   2.933  25.144   8.052
 1582POPC   C4A23310   2.889  25.435   7.778
 1582POPC   C1B23311   2.450  25.417   8.799
 1582POPC   C2B23312   2.336  25.682   8.432
 1582POPC   C3B23313   2.470  25.692   7.973
 1582POPC   C4B23314   2.474  25.580   7.515
 1583POPC   NC323315  38.074   1.438   9.245
 1583POPC   PO423316  38.611   1.129   9.584
 1583POPC   GL123317  38.480   1.127   9.155
 1583POPC   GL223318  38.494   1.428   8.970
 1583POPC   C1A23319  38.402   0.963   8.721
 1583POPC   D2A23320  38.211   1.160   8.400
 1583POPC   C3A23321  38.445   1.350   8.089
 1583POPC   C4A23322  38.250   1.343   7.730
 1583POPC   C1B23323  38.224   1.624   8.652
 1583POPC   C2B23324  38.022   1.643   8.260
 1583POPC   C3B23325  37.947   1.727   7.846
 1583POPC   C4B23326  38.155   1.909   7.482
 1584POPC   NC323327   0.687  16.138   9.711
 1584POPC   PO423328   0.082  16.077   9.684
 1584POPC   GL123329   0.372  16.027   9.299
 1584POPC   GL223330   0.681  16.246   9.201
 1584POPC   C1A23331   0.392  15.992   8.840
 1584POPC   D2A23332   0.382  15.673   8.507
 1584POPC   C3A23333   0.402  15.890   8.134
 1584POPC   C4A23334   0.708  15.832   7.822
 1584POPC   C1B23335   0.888  16.182   8.773
 1584POPC   C2B23336   0.877  16.091   8.304
 1584POPC   C3B23337   0.801  16.338   7.899
 1584POPC   C4B23338   0.735  16.193   7.455
 1585POPC   NC323339   6.263  22.785   9.592
 1585POPC   PO423340   5.766  23.152   9.591
 1585POPC   GL123341   5.773  23.318   9.133
 1585POPC   GL223342   5.763  22.972   9.071
 1585POPC   C1A23343   5.736  23.304   8.667
 1585POPC   D2A23344   5.908  22.952   8.399
 1585POPC   C3A23345   5.795  23.041   7.996
 1585POPC   C4A23346   5.653  22.970   7.570
 1585POPC   C1B23347   5.549  22.785   8.732
 1585POPC   C2B23348   5.463  22.688   8.288
 1585POPC   C3B23349   5.662  22.555   7.882
 1585POPC   C4B23350   5.625  22.501   7.400
 1586POPC   NC323351  40.519  26.217   9.217
 1586POPC   PO423352  41.103  25.853   9.376
 1586POPC   GL123353  40.958  26.008   9.002
 1586POPC   GL223354  41.100  26.303   8.917
 1586POPC   C1A23355  40.980  25.864   8.568
 1586POPC   D2A23356  40.727  25.740   8.221
 1586POPC   C3A23357  40.867  25.760   7.771
 1586POPC   C4A23358  40.573  25.889   7.438
 1586POPC   C1B23359  40.757  26.360   8.626
 1586POPC   C2B23360  40.459  26.177   8.347
 1586POPC   C3B23361  40.542  26.136   7.928
 1586POPC   C4B23362  40.877  26.287   7.654
 1587POPC   NC323363  21.025  38.797   9.857
 1587POPC   PO423364  20.762  38.308   9.506
 1587POPC   GL123365  20.528  38.326   9.114
 1587POPC   GL223366  20.402  38.660   8.971
 1587POPC   C1A23367  20.625  38.291   8.708
 1587POPC   D2A23368  20.473  38.165   8.360
 1587POPC   C3A23369  20.771  38.170   8.059
 1587POPC   C4A23370  20.569  38.361   7.743
 1587POPC   C1B23371  20.710  38.799   8.682
 1587POPC   C2B23372  20.831  38.604   8.327
 1587POPC   C3B23373  20.868  38.744   7.944
 1587POPC   C4B23374  20.982  39.044   7.668
 1588POPC   NC323375  11.709  14.897   9.377
 1588POPC   PO423376  11.178  15.160   9.757
 1588POPC   GL123377  11.203  15.081   9.309
 1588POPC   GL223378  11.097  15.390   9.142
 1588POPC   C1A23379  11.267  14.933   8.864
 1588POPC   D2A23380  11.312  15.018   8.404
 1588POPC   C3A23381  11.414  14.790   7.995
 1588POPC   C4A23382  11.646  14.821   7.582
 1588POPC   C1B23383  11.004  15.588   8.755
 1588POPC   C2B23384  11.071  15.450   8.327
 1588POPC   C3B23385  11.119  15.226   7.953
 1588POPC   C4B23386  10.938  15.338   7.590
 1589POPC   NC323387  16.537   1.845   9.513
 1589POPC   PO423388  17.184   1.836   9.557
 1589POPC   GL123389  16.832   2.063   9.174
 1589POPC   GL223390  16.458   2.212   9.195
 1589POPC   C1A23391  16.583   1.962   8.772
 1589POPC   D2A23392  16.652   2.108   8.342
 1589POPC   C3A23393  16.483   1.814   8.043
 1589POPC   C4A23394  16.300   1.558   7.721
 1589POPC   C1B23395  16.212   2.315   8.863
 1589POPC   C2B23396  16.182   2.427   8.439
 1589POPC   C3B23397  16.340   2.387   8.051
 1589POPC   C4B23398  16.609   2.192   7.752
 1590POPC   NC323399  32.491  37.771   9.558
 1590POPC   PO423400  31.924  37.509   9.295
 1590POPC   GL123401  32.168  37.635   9.009
 1590POPC   GL223402  32.469  37.767   9.054
 1590POPC   C1A23403  32.221  37.606   8.587
 1590POPC   D2A23404  32.396  37.475   8.253
 1590POPC   C3A23405  32.097  37.374   8.030
 1590POPC   C4A23406  31.946  37.489   7.669
 1590POPC   C1B23407  32.287  38.076   8.752
 1590POPC   C2B23408  31.990  38.050   8.418
 1590POPC   C3B23409  32.065  37.873   8.031
 1590POPC   C4B23410  32.389  37.804   7.741
 1591POPC   NC323411  23.457   9.204   9.493
 1591POPC   PO423412  23.962   8.816   9.600
 1591POPC   GL123413  23.622   8.886   9.156
 1591POPC   GL223414  23.279   8.978   9.076
 1591POPC   C1A23415  23.597   8.774   8.682
 1591POPC   D2A23416  23.910   8.877   8.351
 1591POPC   C3A23417  23.733   9.008   7.959
 1591POPC   C4A23418  23.638   8.756   7.627
 1591POPC   C1B23419  23.214   9.102   8.699
 1591POPC   C2B23420  23.420   9.188   8.342
 1591POPC   C3B23421  23.244   9.309   7.993
 1591POPC   C4B23422  23.208   8.992   7.802
 1592POPC   NC323423  22.079  26.490   9.574
 1592POPC   PO423424  22.580  26.960   9.640
 1592POPC   GL123425  22.296  26.819   9.196
 1592POPC   GL223426  22.102  26.564   9.089
 1592POPC   C1A23427  22.078  27.003   8.808
 1592POPC   D2A23428  22.253  26.955   8.392
 1592POPC   C3A23429  22.053  26.781   8.045
 1592POPC   C4A23430  22.167  27.013   7.689
 1592POPC   C1B23431  22.310  26.565   8.725
 1592POPC   C2B23432  22.265  26.419   8.366
 1592POPC   C3B23433  22.427  26.318   8.023
 1592POPC   C4B23434  22.316  26.513   7.691
 1593POPC   NC323435  11.778  44.978   9.391
 1593POPC   PO423436  12.173  44.428   9.590
 1593POPC   GL123437  11.967  44.553   9.179
 1593POPC   GL223438  11.615  44.458   9.148
 1593POPC   C1A23439  11.824  44.784   8.773
 1593POPC   D2A23440  11.761  44.959   8.356
 1593POPC   C3A23441  12.127   0.066   8.118
 1593POPC   C4A23442  12.348  44.852   7.751
 1593POPC   C1B23443  11.807  44.282   8.753
 1593POPC   C2B23444  12.064  44.465   8.434
 1593POPC   C3B23445  12.001  44.571   8.015
 1593POPC   C4B23446  11.928  44.369   7.634
 1594POPC   NC323447  15.641  13.450   9.423
 1594POPC   PO423448  16.236  13.856   9.518
 1594POPC   GL123449  16.034  13.747   9.147
 1594POPC   GL223450  15.741  13.937   9.260
 1594POPC   C1A23451  16.065  13.441   8.769
 1594POPC   D2A23452  15.967  13.252   8.330
 1594POPC   C3A23453  16.025  13.513   7.958
 1594POPC   C4A23454  16.238  13.876   7.944
 1594POPC   C1B23455  15.714  13.969   8.795
 1594POPC   C2B23456  15.949  13.873   8.394
 1594POPC   C3B23457  15.741  14.006   8.002
 1594POPC   C4B23458  15.422  13.808   7.753
 1595POPC   NC323459  10.180   5.264   9.339
 1595POPC   PO423460  10.767   5.052   9.290
 1595POPC   GL123461  10.570   5.228   8.999
 1595POPC   GL223462  10.352   4.933   8.993
 1595POPC   C1A23463  10.308   5.345   8.689
 1595POPC   D2A23464  10.273   5.181   8.297
 1595POPC   C3A23465  10.448   5.401   7.932
 1595POPC   C4A23466  10.828   5.408   7.720
 1595POPC   C1B23467  10.648   4.697   8.747
 1595POPC   C2B23468  10.856   4.689   8.340
 1595POPC   C3B23469  10.655   4.926   8.013
 1595POPC   C4B23470  10.237   4.947   7.839
 1596POPC   NC323471  21.773   2.909   9.423
 1596POPC   PO423472  21.975   2.331   9.753
 1596POPC   GL123473  22.191   2.636   9.356
 1596POPC   GL223474  22.531   2.564   9.218
 1596POPC   C1A23475  22.069   2.779   8.868
 1596POPC   D2A23476  21.884   2.960   8.453
 1596POPC   C3A23477  21.993   2.823   8.040
 1596POPC   C4A23478  21.925   2.432   7.811
 1596POPC   C1B23479  22.571   2.750   8.799
 1596POPC   C2B23480  22.356   2.677   8.399
 1596POPC   C3B23481  22.486   2.665   7.951
 1596POPC   C4B23482  22.650   2.787   7.530
 1597POPC   NC323483  41.018  18.807   9.469
 1597POPC   PO423484  40.675  19.299   9.411
 1597POPC   GL123485  40.771  19.006   9.079
 1597POPC   GL223486  41.164  19.085   9.082
 1597POPC   C1A23487  40.819  18.812   8.669
 1597POPC   D2A23488  40.644  18.641   8.294
 1597POPC   C3A23489  40.785  18.905   8.012
 1597POPC   C4A23490  40.620  19.169   7.704
 1597POPC   C1B23491  41.011  19.297   8.736
 1597POPC   C2B23492  40.826  19.329   8.344
 1597POPC   C3B23493  41.002  19.367   7.940
 1597POPC   C4B23494  41.321  19.290   7.744
 1598POPC   NC323495   0.369  14.057   9.516
 1598POPC   PO423496   0.661  13.478   9.410
 1598POPC   GL123497   0.405  13.511   9.092
 1598POPC   GL223498   0.069  13.580   9.191
 1598POPC   C1A23499   0.488  13.620   8.711
 1598POPC   D2A23500   0.303  13.503   8.382
 1598POPC   C3A23501   0.524  13.626   8.051
 1598POPC   C4A23502   0.619  13.578   7.689
 1598POPC   C1B23503   0.145  13.926   8.917
 1598POPC   C2B23504   0.257  14.060   8.513
 1598POPC   C3B23505   0.161  13.947   8.103
 1598POPC   C4B23506   0.358  14.053   7.722
 1599POPC   NC323507   0.811   0.658   9.821
 1599POPC   PO423508   0.273   0.530   9.483
 1599POPC   GL123509   0.343   0.340   9.051
 1599POPC   GL223510   0.684   0.259   8.970
 1599POPC   C1A23511   0.287   0.204   8.592
 1599POPC   D2A23512   0.233   0.316   8.142
 1599POPC   C3A23513   0.508   0.100   7.841
 1599POPC   C4A23514   0.505  44.944   7.419
 1599POPC   C1B23515   0.610   0.602   8.645
 1599POPC   C2B23516   0.474   0.806   8.249
 1599POPC   C3B23517   0.683   0.959   7.882
 1599POPC   C4B23518   0.686   0.934   7.426
 1600POPC   NC323519  41.906  19.294   9.488
 1600POPC   PO423520  41.468  18.654   9.411
 1600POPC   GL123521  41.586  18.748   9.036
 1600POPC   GL223522  41.702  19.063   9.080
 1600POPC   C1A23523  41.343  18.839   8.683
 1600POPC   D2A23524  41.268  19.088   8.335
 1600POPC   C3A23525  41.299  18.843   7.996
 1600POPC   C4A23526  41.651  18.809   7.781
 1600POPC   C1B23527  41.767  19.116   8.657
 1600POPC   C2B23528  41.775  18.897   8.306
 1600POPC   C3B23529  41.690  19.229   8.067
 1600POPC   C4B23530  41.821  19.291   7.648
 1601POPC   NC323531  44.385  31.050   9.390
 1601POPC   PO423532  44.838  30.528   9.466
 1601POPC   GL123533  44.710  30.742   9.127
 1601POPC   GL223534  44.876  31.032   9.068
 1601POPC   C1A23535  44.689  30.717   8.699
 1601POPC   D2A23536  44.673  30.476   8.349
 1601POPC   C3A23537  44.391  30.612   8.047
 1601POPC   C4A23538  44.285  31.012   7.874
 1601POPC   C1B23539   0.119  30.997   8.737
 1601POPC   C2B23540   0.056  30.837   8.320
 1601POPC   C3B23541  44.891  30.745   7.941
 1601POPC   C4B23542  44.842  30.354   7.879
 1602POPC   NC323543   2.217  24.765   9.580
 1602POPC   PO423544   1.728  24.343   9.458
 1602POPC   GL123545   1.883  24.617   9.171
 1602POPC   GL223546   2.222  24.557   9.127
 1602POPC   C1A23547   1.842  24.433   8.756
 1602POPC   D2A23548   1.725  24.242   8.374
 1602POPC   C3A23549   1.803  24.481   8.005
 1602POPC   C4A23550   1.911  24.385   7.585
 1602POPC   C1B23551   2.335  24.354   8.763
 1602POPC   C2B23552   2.198  24.452   8.349
 1602POPC   C3B23553   2.320  24.389   7.913
 1602POPC   C4B23554   2.355  24.595   7.490
 1603POPC   NC323555  20.425  36.465   9.636
 1603POPC   PO423556  21.071  36.596   9.503
 1603POPC   GL123557  20.857  36.348   9.182
 1603POPC   GL223558  20.503  36.300   9.171
 1603POPC   C1A23559  20.781  36.265   8.716
 1603POPC   D2A23560  20.637  36.462   8.328
 1603POPC   C3A23561  20.709  36.203   7.966
 1603POPC   C4A23562  20.674  35.791   7.760
 1603POPC   C1B23563  20.288  36.373   8.802
 1603POPC   C2B23564  20.204  36.187   8.406
 1603POPC   C3B23565  20.197  36.068   7.982
 1603POPC   C4B23566  20.283  36.372   7.686
 1604POPC   NC323567  17.084  38.519   9.564
 1604POPC   PO423568  16.487  38.337   9.544
 1604POPC   GL123569  16.779  38.164   9.238
 1604POPC   GL223570  16.850  38.481   9.132
 1604POPC   C1A23571  16.713  38.135   8.771
 1604POPC   D2A23572  16.861  38.249   8.375
 1604POPC   C3A23573  16.616  38.248   8.028
 1604POPC   C4A23574  16.703  38.184   7.637
 1604POPC   C1B23575  16.600  38.645   8.854
 1604POPC   C2B23576  16.740  38.735   8.482
 1604POPC   C3B23577  16.599  38.755   8.120
 1604POPC   C4B23578  16.720  38.678   7.762
 1605POPC   NC323579  11.605  17.150   9.464
 1605POPC   PO423580  12.041  17.606   9.542
 1605POPC   GL123581  11.957  17.655   9.113
 1605POPC   GL223582  11.828  18.007   9.072
 1605POPC   C1A23583  12.024  17.376   8.715
 1605POPC   D2A23584  11.856  17.181   8.327
 1605POPC   C3A23585  12.128  17.374   8.038
 1605POPC   C4A23586  12.239  17.788   7.881
 1605POPC   C1B23587  11.710  17.786   8.695
 1605POPC   C2B23588  11.863  17.718   8.293
 1605POPC   C3B23589  11.718  17.761   7.878
 1605POPC   C4B23590  11.575  17.964   7.468
 1606POPC   NC323591   7.486  20.095   9.531
 1606POPC   PO423592   7.390  19.473   9.395
 1606POPC   GL123593   7.352  19.817   9.115
 1606POPC   GL223594   7.688  19.856   9.076
 1606POPC   C1A23595   7.359  20.053   8.731
 1606POPC   D2A23596   7.365  19.895   8.332
 1606POPC   C3A23597   7.332  19.990   7.926
 1606POPC   C4A23598   7.257  19.581   7.819
 1606POPC   C1B23599   7.757  19.723   8.648
 1606POPC   C2B23600   7.815  19.651   8.216
 1606POPC   C3B23601   7.752  19.725   7.833
 1606POPC   C4B23602   7.981  19.752   7.535
 1607POPC   NC323603  29.300  29.536   9.517
 1607POPC   PO423604  29.414  30.206   9.376
 1607POPC   GL123605  29.096  29.925   9.172
 1607POPC   GL223606  29.091  29.562   9.070
 1607POPC   C1A23607  28.948  29.966   8.741
 1607POPC   D2A23608  29.205  30.205   8.404
 1607POPC   C3A23609  29.144  30.107   7.949
 1607POPC   C4A23610  28.788  30.027   7.668
 1607POPC   C1B23611  29.178  29.502   8.666
 1607POPC   C2B23612  29.159  29.706   8.323
 1607POPC   C3B23613  28.821  29.757   8.100
 1607POPC   C4B23614  28.913  29.545   7.742
 1608POPC   NC323615  20.632  19.656   9.635
 1608POPC   PO423616  20.604  20.303   9.761
 1608POPC   GL123617  20.462  20.139   9.333
 1608POPC   GL223618  20.700  19.868   9.173
 1608POPC   C1A23619  20.406  20.066   8.834
 1608POPC   D2A23620  20.608  19.754   8.566
 1608POPC   C3A23621  20.582  19.842   8.104
 1608POPC   C4A23622  20.765  20.172   7.826
 1608POPC   C1B23623  20.902  19.513   8.931
 1608POPC   C2B23624  21.033  19.346   8.503
 1608POPC   C3B23625  21.124  19.451   8.063
 1608POPC   C4B23626  20.893  19.673   7.730
 1609POPC   NC323627   6.832  43.380   9.568
 1609POPC   PO423628   6.571  44.053   9.407
 1609POPC   GL123629   6.663  43.678   9.186
 1609POPC   GL223630   6.340  43.520   9.316
 1609POPC   C1A23631   6.845  43.733   8.768
 1609POPC   D2A23632   6.689  44.040   8.491
 1609POPC   C3A23633   6.731  44.155   8.067
 1609POPC   C4A23634   6.458  44.171   7.705
 1609POPC   C1B23635   6.330  43.483   8.848
 1609POPC   C2B23636   6.485  43.552   8.449
 1609POPC   C3B23637   6.524  43.687   8.057
 1609POPC   C4B23638   6.933  43.730   7.856
 1610POPC   NC323639  28.900  37.662   9.407
 1610POPC   PO423640  29.572  37.626   9.555
 1610POPC   GL123641  29.368  37.648   9.157
 1610POPC   GL223642  29.263  37.965   9.131
 1610POPC   C1A23643  29.184  37.596   8.723
 1610POPC   D2A23644  28.855  37.459   8.400
 1610POPC   C3A23645  29.029  37.475   7.978
 1610POPC   C4A23646  29.486  37.437   7.844
 1610POPC   C1B23647  29.352  38.118   8.749
 1610POPC   C2B23648  29.209  37.975   8.341
 1610POPC   C3B23649  29.251  37.944   7.911
 1610POPC   C4B23650  28.955  37.845   7.593
 1611POPC   NC323651   8.614  13.295   9.521
 1611POPC   PO423652   8.837  12.640   9.526
 1611POPC   GL123653   8.838  12.701   9.111
 1611POPC   GL223654   8.632  12.441   9.059
 1611POPC   C1A23655   8.982  12.879   8.717
 1611POPC   D2A23656   8.784  13.074   8.328
 1611POPC   C3A23657   8.976  13.169   7.946
 1611POPC   C4A23658   9.109  12.902   7.610
 1611POPC   C1B23659   8.735  12.410   8.683
 1611POPC   C2B23660   8.877  12.583   8.327
 1611POPC   C3B23661   8.889  12.563   7.923
 1611POPC   C4B23662   8.559  12.407   7.729
 1612POPC   NC323663  15.209  41.971   9.564
 1612POPC   PO423664  15.121  42.670   9.584
 1612POPC   GL123665  15.193  42.551   9.186
 1612POPC   GL223666  15.183  42.204   9.114
 1612POPC   C1A23667  15.042  42.684   8.799
 1612POPC   D2A23668  14.935  42.555   8.386
 1612POPC   C3A23669  15.239  42.686   8.077
 1612POPC   C4A23670  15.153  42.461   7.708
 1612POPC   C1B23671  14.938  41.982   8.793
 1612POPC   C2B23672  14.875  42.036   8.361
 1612POPC   C3B23673  15.099  42.020   7.974
 1612POPC   C4B23674  15.214  41.908   7.555
 1613POPC   NC323675  34.938  36.387   9.394
 1613POPC   PO423676  35.429  36.059   9.589
 1613POPC   GL123677  35.345  36.122   9.142
 1613POPC   GL223678  35.044  35.951   9.029
 1613POPC   C1A23679  35.456  35.977   8.718
 1613POPC   D2A23680  35.385  35.654   8.403
 1613POPC   C3A23681  35.443  35.894   8.035
 1613POPC   C4A23682  35.426  36.267   7.823
 1613POPC   C1B23683  35.008  36.252   8.723
 1613POPC   C2B23684  35.221  36.334   8.359
 1613POPC   C3B23685  34.989  36.160   8.043
 1613POPC   C4B23686  35.027  35.863   7.712
 1614POPC   NC323687  33.721  13.344   9.440
 1614POPC   PO423688  33.474  13.867   9.517
 1614POPC   GL123689  33.826  13.823   9.186
 1614POPC   GL223690  34.096  13.548   9.163
 1614POPC   C1A23691  33.883  13.912   8.731
 1614POPC   D2A23692  33.833  14.039   8.289
 1614POPC   C3A23693  33.846  13.757   7.914
 1614POPC   C4A23694  33.896  13.946   7.488
 1614POPC   C1B23695  33.904  13.400   8.779
 1614POPC   C2B23696  34.005  13.465   8.337
 1614POPC   C3B23697  33.677  13.289   8.072
 1614POPC   C4B23698  33.578  13.094   7.676
 1615POPC   NC323699  15.233   7.153   9.436
 1615POPC   PO423700  15.029   7.898   9.487
 1615POPC   GL123701  15.034   7.565   9.159
 1615POPC   GL223702  15.271   7.322   8.972
 1615POPC   C1A23703  14.894   7.516   8.729
 1615POPC   D2A23704  15.141   7.598   8.366
 1615POPC   C3A23705  15.044   7.498   7.951
 1615POPC   C4A23706  15.390   7.761   7.830
 1615POPC   C1B23707  15.580   7.152   8.753
 1615POPC   C2B23708  15.705   7.149   8.342
 1615POPC   C3B23709  15.532   7.293   7.978
 1615POPC   C4B23710  15.335   7.216   7.601
 1616POPC   NC323711  34.385  41.963   9.302
 1616POPC   PO423712  34.828  41.618   9.715
 1616POPC   GL123713  34.851  41.653   9.226
 1616POPC   GL223714  34.849  41.956   9.083
 1616POPC   C1A23715  34.728  41.475   8.811
 1616POPC   D2A23716  34.409  41.511   8.482
 1616POPC   C3A23717  34.517  41.436   8.041
 1616POPC   C4A23718  34.287  41.686   7.744
 1616POPC   C1B23719  34.624  41.954   8.664
 1616POPC   C2B23720  34.541  41.950   8.212
 1616POPC   C3B23721  34.782  41.863   7.851
 1616POPC   C4B23722  35.031  41.818   7.484
 1617POPC   NC323723  12.875  20.962   9.517
 1617POPC   PO423724  12.611  20.333   9.488
 1617POPC   GL123725  12.654  20.653   9.170
 1617POPC   GL223726  13.020  20.682   9.097
 1617POPC   C1A23727  12.569  20.825   8.769
 1617POPC   D2A23728  12.512  20.615   8.377
 1617POPC   C3A23729  12.648  20.822   8.008
 1617POPC   C4A23730  12.778  20.849   7.590
 1617POPC   C1B23731  13.025  20.654   8.625
 1617POPC   C2B23732  13.099  20.680   8.178
 1617POPC   C3B23733  13.013  20.441   7.790
 1617POPC   C4B23734  13.215  20.323   7.363
 1618POPC   NC323735  36.887   4.557   9.447
 1618POPC   PO423736  36.654   3.940   9.405
 1618POPC   GL123737  36.601   4.113   9.020
 1618POPC   GL223738  36.361   4.359   9.054
 1618POPC   C1A23739  36.920   4.310   8.753
 1618POPC   D2A23740  37.102   4.475   8.358
 1618POPC   C3A23741  37.115   4.215   7.998
 1618POPC   C4A23742  37.022   4.049   7.613
 1618POPC   C1B23743  36.471   4.561   8.690
 1618POPC   C2B23744  36.433   4.332   8.306
 1618POPC   C3B23745  36.583   4.367   7.881
 1618POPC   C4B23746  36.890   4.549   7.585
 1619POPC   NC323747   7.061  16.959   9.538
 1619POPC   PO423748   7.408  16.450   9.547
 1619POPC   GL123749   7.205  16.566   9.161
 1619POPC   GL223750   7.440  16.835   9.128
 1619POPC   C1A23751   7.275  16.332   8.759
 1619POPC   D2A23752   7.593  16.257   8.426
 1619POPC   C3A23753   7.460  16.381   8.021
 1619POPC   C4A23754   7.412  16.438   7.568
 1619POPC   C1B23755   7.581  16.745   8.712
 1619POPC   C2B23756   7.465  16.847   8.292
 1619POPC   C3B23757   7.564  16.840   7.864
 1619POPC   C4B23758   7.387  17.007   7.505
 1620POPC   NC323759   4.580  12.013   9.386
 1620POPC   PO423760   3.972  11.901   9.651
 1620POPC   GL123761   4.040  11.811   9.195
 1620POPC   GL223762   4.113  12.162   9.178
 1620POPC   C1A23763   4.172  11.709   8.722
 1620POPC   D2A23764   4.422  11.914   8.340
 1620POPC   C3A23765   4.197  11.961   7.949
 1620POPC   C4A23766   3.776  11.775   7.896
 1620POPC   C1B23767   4.379  12.173   8.796
 1620POPC   C2B23768   4.448  12.409   8.432
 1620POPC   C3B23769   4.589  12.323   8.013
 1620POPC   C4B23770   4.646  12.305   7.591
 1621POPC   NC323771  33.370  28.416   9.374
 1621POPC   PO423772  32.874  28.168   9.814
 1621POPC   GL123773  32.932  28.165   9.344
 1621POPC   GL223774  32.982  28.418   9.054
 1621POPC   C1A23775  33.115  27.957   8.962
 1621POPC   D2A23776  33.151  27.974   8.521
 1621POPC   C3A23777  32.812  28.143   8.248
 1621POPC   C4A23778  32.927  28.335   7.874
 1621POPC   C1B23779  32.992  28.647   8.682
 1621POPC   C2B23780  32.967  28.685   8.260
 1621POPC   C3B23781  33.255  28.752   7.930
 1621POPC   C4B23782  33.305  28.671   7.492
 1622POPC   NC323783  33.146   2.811   9.616
 1622POPC   PO423784  32.810   3.378   9.702
 1622POPC   GL123785  32.918   3.038   9.243
 1622POPC   GL223786  33.157   2.746   9.120
 1622POPC   C1A23787  32.978   3.070   8.753
 1622POPC   D2A23788  33.097   2.805   8.394
 1622POPC   C3A23789  33.198   2.891   7.946
 1622POPC   C4A23790  32.924   3.023   7.633
 1622POPC   C1B23791  32.954   2.428   8.849
 1622POPC   C2B23792  32.851   2.363   8.434
 1622POPC   C3B23793  32.787   2.570   8.047
 1622POPC   C4B23794  32.974   2.472   7.664
 1623POPC   NC323795  40.858  22.355   9.326
 1623POPC   PO423796  41.198  21.839   9.528
 1623POPC   GL123797  41.033  21.906   9.095
 1623POPC   GL223798  40.673  21.910   9.076
 1623POPC   C1A23799  40.924  21.761   8.663
 1623POPC   D2A23800  40.612  21.710   8.323
 1623POPC   C3A23801  40.703  21.967   7.945
 1623POPC   C4A23802  41.030  22.290   7.886
 1623POPC   C1B23803  40.454  22.052   8.693
 1623POPC   C2B23804  40.277  22.207   8.278
 1623POPC   C3B23805  40.218  22.111   7.834
 1623POPC   C4B23806  40.284  21.829   7.480
 1624POPC   NC323807  27.104  18.930   9.578
 1624POPC   PO423808  26.551  19.186   9.295
 1624POPC   GL123809  26.851  19.034   9.050
 1624POPC   GL223810  27.142  18.810   9.098
 1624POPC   C1A23811  26.727  19.007   8.633
 1624POPC   D2A23812  26.789  19.160   8.237
 1624POPC   C3A23813  26.578  18.921   7.936
 1624POPC   C4A23814  26.683  19.119   7.568
 1624POPC   C1B23815  27.026  18.606   8.718
 1624POPC   C2B23816  27.086  18.746   8.290
 1624POPC   C3B23817  27.051  18.759   7.839
 1624POPC   C4B23818  27.056  18.823   7.384
 1625POPC   NC323819  18.326  43.197   9.483
 1625POPC   PO423820  18.116  42.566   9.580
 1625POPC   GL123821  18.409  42.709   9.254
 1625POPC   GL223822  18.083  42.872   9.127
 1625POPC   C1A23823  18.456  42.829   8.792
 1625POPC   D2A23824  18.145  42.901   8.452
 1625POPC   C3A23825  18.320  42.958   8.051
 1625POPC   C4A23826  18.644  42.962   7.739
 1625POPC   C1B23827  18.123  43.245   8.854
 1625POPC   C2B23828  17.961  43.414   8.494
 1625POPC   C3B23829  18.059  43.427   8.048
 1625POPC   C4B23830  17.839  43.372   7.649
 1626POPC   NC323831  36.021  21.065   9.645
 1626POPC   PO423832  36.358  21.563   9.416
 1626POPC   GL123833  36.224  21.463   9.046
 1626POPC   GL223834  36.063  21.155   9.140
 1626POPC   C1A23835  36.114  21.675   8.674
 1626POPC   D2A23836  35.961  21.472   8.325
 1626POPC   C3A23837  36.301  21.444   8.012
 1626POPC   C4A23838  36.360  21.665   7.617
 1626POPC   C1B23839  35.943  21.116   8.716
 1626POPC   C2B23840  35.923  20.843   8.366
 1626POPC   C3B23841  35.714  20.865   8.002
 1626POPC   C4B23842  35.797  21.301   7.884
 1627POPC   NC323843  29.982   0.085   9.377
 1627POPC   PO423844  30.108   0.757   9.516
 1627POPC   GL123845  29.903   0.751   9.125
 1627POPC   GL223846  29.833   0.392   9.004
 1627POPC   C1A23847  29.995   0.744   8.682
 1627POPC   D2A23848  29.967   0.417   8.378
 1627POPC   C3A23849  30.033   0.591   8.009
 1627POPC   C4A23850  29.694   0.758   7.820
 1627POPC   C1B23851  30.208   0.217   8.781
 1627POPC   C2B23852  30.230  44.959   8.412
 1627POPC   C3B23853  30.075   0.064   7.997
 1627POPC   C4B23854  30.393   0.165   7.706
 1628POPC   NC323855  13.243  28.513   9.567
 1628POPC   PO423856  12.549  28.527   9.446
 1628POPC   GL123857  12.932  28.322   9.209
 1628POPC   GL223858  12.990  28.611   9.138
 1628POPC   C1A23859  13.228  28.329   8.811
 1628POPC   D2A23860  13.126  28.197   8.394
 1628POPC   C3A23861  13.095  28.409   8.024
 1628POPC   C4A23862  13.136  28.215   7.625
 1628POPC   C1B23863  12.771  28.595   8.749
 1628POPC   C2B23864  12.672  28.585   8.314
 1628POPC   C3B23865  12.595  28.441   7.894
 1628POPC   C4B23866  12.737  28.580   7.481
 1629POPC   NC323867  39.025  24.542   9.380
 1629POPC   PO423868  39.692  24.455   9.451
 1629POPC   GL123869  39.479  24.443   9.110
 1629POPC   GL223870  39.304  24.765   8.980
 1629POPC   C1A23871  39.533  24.256   8.742
 1629POPC   D2A23872  39.351  24.501   8.443
 1629POPC   C3A23873  39.264  24.342   8.045
 1629POPC   C4A23874  39.521  24.562   7.788
 1629POPC   C1B23875  38.931  24.706   8.678
 1629POPC   C2B23876  38.961  24.719   8.197
 1629POPC   C3B23877  38.942  24.640   7.709
 1629POPC   C4B23878  38.866  24.650   7.213
 1630POPC   NC323879  23.035   2.533   9.540
 1630POPC   PO423880  22.902   3.137   9.633
 1630POPC   GL123881  22.938   2.919   9.196
 1630POPC   GL223882  23.029   2.586   9.050
 1630POPC   C1A23883  23.001   2.993   8.738
 1630POPC   D2A23884  22.754   2.982   8.341
 1630POPC   C3A23885  22.963   2.874   7.962
 1630POPC   C4A23886  23.046   3.099   7.588
 1630POPC   C1B23887  22.833   2.321   8.779
 1630POPC   C2B23888  22.892   2.502   8.404
 1630POPC   C3B23889  23.200   2.441   8.094
 1630POPC   C4B23890  22.937   2.392   7.725
 1631POPC   NC323891  26.670   0.332   9.639
 1631POPC   PO423892  27.231   0.590   9.338
 1631POPC   GL123893  27.178   0.378   8.964
 1631POPC   GL223894  27.229   0.014   9.014
 1631POPC   C1A23895  26.879   0.495   8.605
 1631POPC   D2A23896  26.492   0.548   8.328
 1631POPC   C3A23897  26.692   0.591   7.929
 1631POPC   C4A23898  27.117   0.512   7.775
 1631POPC   C1B23899  26.852   0.007   8.767
 1631POPC   C2B23900  26.764   0.087   8.295
 1631POPC   C3B23901  26.878   0.063   7.840
 1631POPC   C4B23902  26.877  44.991   7.381
 1632POPC   NC323903  33.674  38.958   9.557
 1632POPC   PO423904  33.872  38.267   9.527
 1632POPC   GL123905  33.938  38.478   9.117
 1632POPC   GL223906  33.949  38.845   9.123
 1632POPC   C1A23907  34.121  38.512   8.720
 1632POPC   D2A23908  33.851  38.508   8.378
 1632POPC   C3A23909  33.911  38.663   7.974
 1632POPC   C4A23910  33.625  38.368   7.773
 1632POPC   C1B23911  33.569  38.753   8.867
 1632POPC   C2B23912  33.258  38.741   8.528
 1632POPC   C3B23913  33.346  38.684   8.087
 1632POPC   C4B23914  33.541  38.916   7.741
 1633POPC   NC323915  38.572  26.585   9.357
 1633POPC   PO423916  38.757  27.260   9.418
 1633POPC   GL123917  38.484  27.035   9.113
 1633POPC   GL223918  38.115  26.919   9.129
 1633POPC   C1A23919  38.568  26.783   8.749
 1633POPC   D2A23920  38.600  26.569   8.406
 1633POPC   C3A23921  38.762  26.801   8.101
 1633POPC   C4A23922  38.880  26.622   7.758
 1633POPC   C1B23923  38.108  26.569   8.785
 1633POPC   C2B23924  38.101  26.672   8.342
 1633POPC   C3B23925  38.278  26.567   7.985
 1633POPC   C4B23926  38.426  26.877   7.703
 1634POPC   NC323927  27.982   6.452   9.371
 1634POPC   PO423928  28.507   6.786   9.640
 1634POPC   GL123929  28.408   6.768   9.189
 1634POPC   GL223930  28.717   6.588   9.149
 1634POPC   C1A23931  28.301   6.551   8.762
 1634POPC   D2A23932  28.019   6.324   8.415
 1634POPC   C3A23933  28.073   6.445   7.969
 1634POPC   C4A23934  28.380   6.496   7.629
 1634POPC   C1B23935  28.760   6.854   8.782
 1634POPC   C2B23936  28.584   6.813   8.370
 1634POPC   C3B23937  28.743   6.680   7.966
 1634POPC   C4B23938  28.875   6.407   7.637
 1635POPC   NC323939  18.430   8.802   9.711
 1635POPC   PO423940  18.099   9.414   9.461
 1635POPC   GL123941  18.144   8.967   9.303
 1635POPC   GL223942  18.482   8.876   9.194
 1635POPC   C1A23943  18.052   8.751   8.906
 1635POPC   D2A23944  18.095   9.067   8.590
 1635POPC   C3A23945  18.119   8.968   8.170
 1635POPC   C4A23946  18.044   9.166   7.794
 1635POPC   C1B23947  18.528   8.833   8.747
 1635POPC   C2B23948  18.574   9.060   8.370
 1635POPC   C3B23949  18.523   9.268   7.997
 1635POPC   C4B23950  18.544   9.225   7.578
 1636POPC   NC323951  28.150   7.085   9.667
 1636POPC   PO423952  28.593   7.602   9.522
 1636POPC   GL123953  28.362   7.323   9.213
 1636POPC   GL223954  28.325   7.647   9.097
 1636POPC   C1A23955  28.265   7.102   8.782
 1636POPC   D2A23956  28.224   7.282   8.328
 1636POPC   C3A23957  28.419   7.084   7.954
 1636POPC   C4A23958  28.720   7.038   7.590
 1636POPC   C1B23959  28.230   7.616   8.723
 1636POPC   C2B23960  28.456   7.742   8.368
 1636POPC   C3B23961  28.328   7.717   7.942
 1636POPC   C4B23962  28.402   7.439   7.585
 1637POPC   NC323963  15.589  11.715   9.593
 1637POPC   PO423964  16.205  12.035   9.496
 1637POPC   GL123965  16.081  12.149   9.084
 1637POPC   GL223966  16.397  12.286   9.020
 1637POPC   C1A23967  16.002  12.299   8.629
 1637POPC   D2A23968  15.891  11.929   8.342
 1637POPC   C3A23969  16.037  11.865   7.919
 1637POPC   C4A23970  15.820  12.042   7.592
 1637POPC   C1B23971  16.364  11.971   8.673
 1637POPC   C2B23972  16.349  12.144   8.253
 1637POPC   C3B23973  16.272  12.307   7.851
 1637POPC   C4B23974  16.267  12.160   7.422
 1638POPC   NC323975  12.837  41.322   9.482
 1638POPC   PO423976  12.392  41.647   9.299
 1638POPC   GL123977  12.568  41.378   9.020
 1638POPC   GL223978  12.938  41.394   8.994
 1638POPC   C1A23979  12.645  41.450   8.580
 1638POPC   D2A23980  12.466  41.489   8.179
 1638POPC   C3A23981  12.721  41.474   7.811
 1638POPC   C4A23982  12.619  41.279   7.362
 1638POPC   C1B23983  13.075  41.728   8.707
 1638POPC   C2B23984  13.197  41.764   8.283
 1638POPC   C3B23985  13.075  41.838   7.872
 1638POPC   C4B23986  13.193  41.592   7.505
 1639POPC   NC323987   5.735   3.891   9.652
 1639POPC   PO423988   6.124   4.421   9.397
 1639POPC   GL123989   6.048   4.210   9.039
 1639POPC   GL223990   5.705   4.090   9.139
 1639POPC   C1A23991   6.135   4.194   8.592
 1639POPC   D2A23992   6.174   4.499   8.253
 1639POPC   C3A23993   6.223   4.316   7.841
 1639POPC   C4A23994   6.035   4.400   7.426
 1639POPC   C1B23995   5.664   4.351   8.737
 1639POPC   C2B23996   5.704   4.311   8.280
 1639POPC   C3B23997   5.719   4.232   7.836
 1639POPC   C4B23998   5.607   3.899   7.566
 1640POPC   NC323999   6.103  44.050   9.436
 1640POPC   PO424000   5.766  43.487   9.580
 1640POPC   GL124001   5.663  43.833   9.271
 1640POPC   GL224002   5.960  43.761   9.044
 1640POPC   C1A24003   5.567  43.968   8.837
 1640POPC   D2A24004   5.796  44.065   8.468
 1640POPC   C3A24005   5.851  43.772   8.135
 1640POPC   C4A24006   5.549  43.802   7.810
 1640POPC   C1B24007   6.230  43.961   8.705
 1640POPC   C2B24008   6.248  44.104   8.247
 1640POPC   C3B24009   5.969  44.227   7.912
 1640POPC   C4B24010   5.972  44.000   7.555
 1641POPC   NC324011   8.659  27.377   9.287
 1641POPC   PO424012   8.027  27.310   9.563
 1641POPC   GL124013   8.167  27.584   9.200
 1641POPC   GL224014   8.439  27.850   9.191
 1641POPC   C1A24015   8.258  27.499   8.766
 1641POPC   D2A24016   8.096  27.297   8.399
 1641POPC   C3A24017   8.242  27.388   8.019
 1641POPC   C4A24018   8.096  27.607   7.640
 1641POPC   C1B24019   8.536  27.945   8.760
 1641POPC   C2B24020   8.455  27.744   8.354
 1641POPC   C3B24021   8.424  27.862   7.928
 1641POPC   C4B24022   8.270  28.115   7.546
 1642POPC   NC324023  26.192  22.628   9.381
 1642POPC   PO424024  25.665  22.668   9.801
 1642POPC   GL124025  25.795  22.896   9.285
 1642POPC   GL224026  26.039  22.879   8.984
 1642POPC   C1A24027  25.669  23.197   8.896
 1642POPC   D2A24028  25.994  23.313   8.560
 1642POPC   C3A24029  26.019  23.155   8.131
 1642POPC   C4A24030  26.030  22.889   7.768
 1642POPC   C1B24031  26.267  22.576   8.758
 1642POPC   C2B24032  26.276  22.772   8.405
 1642POPC   C3B24033  26.417  22.718   8.038
 1642POPC   C4B24034  26.359  22.497   7.675
 1643POPC   NC324035  12.901  31.170   9.617
 1643POPC   PO424036  13.222  30.562   9.491
 1643POPC   GL124037  12.851  30.695   9.213
 1643POPC   GL224038  12.708  31.019   9.167
 1643POPC   C1A24039  12.750  30.529   8.830
 1643POPC   D2A24040  12.819  30.262   8.451
 1643POPC   C3A24041  12.863  30.493   8.040
 1643POPC   C4A24042  13.239  30.706   7.816
 1643POPC   C1B24043  12.924  31.034   8.807
 1643POPC   C2B24044  12.877  30.849   8.437
 1643POPC   C3B24045  12.891  31.016   8.062
 1643POPC   C4B24046  13.075  31.249   7.753
 1644POPC   NC324047  32.939   1.292   9.581
 1644POPC   PO424048  33.145   0.786   9.288
 1644POPC   GL124049  32.932   1.088   9.062
 1644POPC   GL224050  32.958   1.470   9.107
 1644POPC   C1A24051  32.920   0.954   8.637
 1644POPC   D2A24052  33.192   0.799   8.337
 1644POPC   C3A24053  33.057   1.028   7.996
 1644POPC   C4A24054  32.848   1.294   7.764
 1644POPC   C1B24055  32.979   1.476   8.693
 1644POPC   C2B24056  32.777   1.368   8.300
 1644POPC   C3B24057  32.593   1.659   7.986
 1644POPC   C4B24058  32.587   1.726   7.517
 1645POPC   NC324059  12.950  24.742   9.401
 1645POPC   PO424060  12.472  24.151   9.391
 1645POPC   GL124061  12.637  24.428   9.096
 1645POPC   GL224062  12.967  24.376   8.968
 1645POPC   C1A24063  12.628  24.650   8.714
 1645POPC   D2A24064  12.903  24.460   8.423
 1645POPC   C3A24065  12.767  24.229   8.108
 1645POPC   C4A24066  12.786  24.270   7.685
 1645POPC   C1B24067  13.130  24.774   8.762
 1645POPC   C2B24068  13.281  24.794   8.320
 1645POPC   C3B24069  13.159  24.600   7.930
 1645POPC   C4B24070  13.028  24.712   7.509
 1646POPC   NC324071  27.778  37.417   9.369
 1646POPC   PO424072  27.161  37.254   9.514
 1646POPC   GL124073  27.387  37.002   9.211
 1646POPC   GL224074  27.775  36.988   9.094
 1646POPC   C1A24075  27.397  36.809   8.823
 1646POPC   D2A24076  27.681  36.987   8.534
 1646POPC   C3A24077  27.599  36.936   8.108
 1646POPC   C4A24078  27.893  37.013   7.781
 1646POPC   C1B24079  27.834  36.579   8.818
 1646POPC   C2B24080  27.672  36.490   8.386
 1646POPC   C3B24081  27.814  36.506   7.930
 1646POPC   C4B24082  27.704  36.544   7.474
 1647POPC   NC324083  13.754  38.070   9.551
 1647POPC   PO424084  13.339  38.635   9.494
 1647POPC   GL124085  13.522  38.385   9.191
 1647POPC   GL224086  13.853  38.499   9.235
 1647POPC   C1A24087  13.734  38.296   8.788
 1647POPC   D2A24088  13.613  38.293   8.369
 1647POPC   C3A24089  13.853  38.334   8.006
 1647POPC   C4A24090  13.709  38.379   7.585
 1647POPC   C1B24091  13.746  38.790   8.861
 1647POPC   C2B24092  13.561  38.809   8.413
 1647POPC   C3B24093  13.659  38.814   7.944
 1647POPC   C4B24094  13.518  38.828   7.494
 1648POPC   NC324095  30.353  38.484   9.475
 1648POPC   PO424096  29.688  38.619   9.526
 1648POPC   GL124097  29.831  38.349   9.207
 1648POPC   GL224098  29.986  38.644   9.108
 1648POPC   C1A24099  30.032  38.273   8.787
 1648POPC   D2A24100  29.868  38.514   8.449
 1648POPC   C3A24101  29.871  38.324   8.049
 1648POPC   C4A24102  30.026  38.420   7.665
 1648POPC   C1B24103  30.299  38.766   8.840
 1648POPC   C2B24104  30.326  38.719   8.435
 1648POPC   C3B24105  30.083  38.800   8.057
 1648POPC   C4B24106  30.142  39.003   7.662
 1649POPC   NC324107  37.875  39.632   9.530
 1649POPC   PO424108  37.482  40.155   9.647
 1649POPC   GL124109  37.522  40.120   9.200
 1649POPC   GL224110  37.680  39.832   9.103
 1649POPC   C1A24111  37.675  40.361   8.829
 1649POPC   D2A24112  37.982  40.361   8.466
 1649POPC   C3A24113  37.841  40.299   8.031
 1649POPC   C4A24114  37.773  40.214   7.589
 1649POPC   C1B24115  37.893  39.891   8.718
 1649POPC   C2B24116  37.871  39.789   8.285
 1649POPC   C3B24117  37.953  39.824   7.852
 1649POPC   C4B24118  38.082  39.858   7.383
 1650POPC   NC324119   6.752   8.960   9.782
 1650POPC   PO424120   6.289   8.648   9.386
 1650POPC   GL124121   6.607   8.858   9.094
 1650POPC   GL224122   6.839   9.064   9.257
 1650POPC   C1A24123   6.588   8.954   8.666
 1650POPC   D2A24124   6.782   8.815   8.319
 1650POPC   C3A24125   6.554   8.906   7.959
 1650POPC   C4A24126   6.661   8.692   7.604
 1650POPC   C1B24127   6.871   9.302   8.864
 1650POPC   C2B24128   6.827   9.360   8.439
 1650POPC   C3B24129   6.873   9.366   7.991
 1650POPC   C4B24130   6.792   9.174   7.569
 1651POPC   NC324131  10.106  18.488   9.321
 1651POPC   PO424132   9.682  18.024   9.589
 1651POPC   GL124133   9.687  18.152   9.186
 1651POPC   GL224134   9.891  17.895   9.131
 1651POPC   C1A24135   9.607  18.340   8.767
 1651POPC   D2A24136   9.402  18.437   8.377
 1651POPC   C3A24137   9.400  18.123   8.089
 1651POPC   C4A24138   9.514  18.038   7.702
 1651POPC   C1B24139   9.714  17.830   8.761
 1651POPC   C2B24140   9.859  18.063   8.384
 1651POPC   C3B24141   9.849  18.420   8.116
 1651POPC   C4B24142   9.921  18.390   7.715
 1652POPC   NC324143   0.627  30.129   9.413
 1652POPC   PO424144   0.243  29.614   9.506
 1652POPC   GL124145   0.380  29.811   9.101
 1652POPC   GL224146   0.198  30.107   9.073
 1652POPC   C1A24147   0.608  30.088   8.743
 1652POPC   D2A24148   0.721  30.046   8.289
 1652POPC   C3A24149   0.653  29.704   7.998
 1652POPC   C4A24150   0.759  29.289   7.814
 1652POPC   C1B24151   0.156  29.885   8.660
 1652POPC   C2B24152   0.180  29.757   8.244
 1652POPC   C3B24153  44.920  29.850   7.920
 1652POPC   C4B24154   0.129  30.016   7.635
 1653POPC   NC324155  34.912  23.819   9.529
 1653POPC   PO424156  35.553  23.813   9.388
 1653POPC   GL124157  35.231  23.835   9.147
 1653POPC   GL224158  35.068  23.485   9.153
 1653POPC   C1A24159  35.328  24.073   8.813
 1653POPC   D2A24160  35.201  24.068   8.433
 1653POPC   C3A24161  35.376  23.866   8.109
 1653POPC   C4A24162  35.534  24.015   7.726
 1653POPC   C1B24163  35.342  23.540   8.766
 1653POPC   C2B24164  35.289  23.382   8.385
 1653POPC   C3B24165  35.130  23.427   8.013
 1653POPC   C4B24166  35.444  23.496   7.742
 1654POPC   NC324167  18.533   8.077   9.482
 1654POPC   PO424168  18.039   8.500   9.772
 1654POPC   GL124169  18.003   8.209   9.363
 1654POPC   GL224170  18.250   8.423   9.247
 1654POPC   C1A24171  18.119   7.933   8.945
 1654POPC   D2A24172  18.298   7.853   8.497
 1654POPC   C3A24173  18.312   8.106   8.083
 1654POPC   C4A24174  18.258   8.098   7.622
 1654POPC   C1B24175  18.385   8.345   8.835
 1654POPC   C2B24176  18.240   8.503   8.455
 1654POPC   C3B24177  18.482   8.596   8.129
 1654POPC   C4B24178  18.458   8.575   7.705
 1655POPC   NC324179  40.294  35.782   9.739
 1655POPC   PO424180  39.887  35.260   9.496
 1655POPC   GL124181  39.918  35.234   9.088
 1655POPC   GL224182  40.241  35.346   9.114
 1655POPC   C1A24183  39.680  35.179   8.709
 1655POPC   D2A24184  39.740  35.160   8.260
 1655POPC   C3A24185  39.923  35.517   7.977
 1655POPC   C4A24186  39.731  35.247   7.704
 1655POPC   C1B24187  40.227  35.536   8.738
 1655POPC   C2B24188  40.197  35.361   8.373
 1655POPC   C3B24189  40.376  35.292   7.974
 1655POPC   C4B24190  40.197  35.301   7.559
 1656POPC   NC324191   1.845  40.360   9.376
 1656POPC   PO424192   2.208  40.972   9.451
 1656POPC   GL124193   1.998  40.780   9.107
 1656POPC   GL224194   2.216  40.483   9.055
 1656POPC   C1A24195   1.740  40.820   8.734
 1656POPC   D2A24196   1.632  40.583   8.326
 1656POPC   C3A24197   1.676  40.908   7.955
 1656POPC   C4A24198   1.991  41.167   7.772
 1656POPC   C1B24199   2.131  40.498   8.645
 1656POPC   C2B24200   2.201  40.365   8.236
 1656POPC   C3B24201   1.916  40.452   7.924
 1656POPC   C4B24202   1.873  40.635   7.552
 1657POPC   NC324203  25.030   7.973   9.411
 1657POPC   PO424204  25.464   8.425   9.566
 1657POPC   GL124205  25.416   8.207   9.160
 1657POPC   GL224206  25.298   7.887   8.982
 1657POPC   C1A24207  25.306   8.354   8.772
 1657POPC   D2A24208  25.320   8.499   8.371
 1657POPC   C3A24209  25.284   8.145   8.136
 1657POPC   C4A24210  25.370   8.235   7.740
 1657POPC   C1B24211  25.084   7.916   8.579
 1657POPC   C2B24212  24.855   8.253   8.374
 1657POPC   C3B24213  24.900   8.407   7.923
 1657POPC   C4B24214  25.056   8.554   7.514
 1658POPC   NC324215  35.805  26.891   9.498
 1658POPC   PO424216  36.447  26.597   9.431
 1658POPC   GL124217  36.239  26.746   9.124
 1658POPC   GL224218  36.395  27.070   9.034
 1658POPC   C1A24219  36.195  26.473   8.764
 1658POPC   D2A24220  36.393  26.419   8.370
 1658POPC   C3A24221  36.178  26.560   8.004
 1658POPC   C4A24222  36.211  26.654   7.575
 1658POPC   C1B24223  36.024  26.955   8.723
 1658POPC   C2B24224  35.842  26.767   8.364
 1658POPC   C3B24225  35.769  26.891   7.945
 1658POPC   C4B24226  36.001  27.122   7.638
 1659POPC   NC324227   3.497   7.972   9.328
 1659POPC   PO424228   3.790   8.560   9.366
 1659POPC   GL124229   3.477   8.425   9.036
 1659POPC   GL224230   3.257   8.117   8.916
 1659POPC   C1A24231   3.395   8.486   8.616
 1659POPC   D2A24232   3.288   8.233   8.292
 1659POPC   C3A24233   3.554   8.342   7.980
 1659POPC   C4A24234   3.694   8.016   7.694
 1659POPC   C1B24235   3.655   8.019   8.657
 1659POPC   C2B24236   3.728   7.922   8.221
 1659POPC   C3B24237   3.370   7.760   7.985
 1659POPC   C4B24238   3.340   7.693   7.521
 1660POPC   NC324239  21.684  37.591   9.535
 1660POPC   PO424240  22.362  37.567   9.501
 1660POPC   GL124241  22.047  37.667   9.200
 1660POPC   GL224242  21.992  37.374   9.062
 1660POPC   C1A24243  21.940  37.820   8.809
 1660POPC   D2A24244  22.174  37.832   8.423
 1660POPC   C3A24245  21.946  37.632   8.086
 1660POPC   C4A24246  21.890  37.868   7.738
 1660POPC   C1B24247  22.385  37.502   8.825
 1660POPC   C2B24248  22.575  37.525   8.410
 1660POPC   C3B24249  22.457  37.605   8.019
 1660POPC   C4B24250  22.222  37.334   7.769
 1661POPC   NC324251  20.071  22.700   9.740
 1661POPC   PO424252  20.529  23.117   9.587
 1661POPC   GL124253  20.609  22.726   9.329
 1661POPC   GL224254  20.471  22.903   9.111
 1661POPC   C1A24255  20.718  22.545   8.883
 1661POPC   D2A24256  20.641  22.493   8.420
 1661POPC   C3A24257  20.828  22.820   8.108
 1661POPC   C4A24258  20.876  22.949   7.644
 1661POPC   C1B24259  20.567  23.031   8.707
 1661POPC   C2B24260  20.491  23.157   8.283
 1661POPC   C3B24261  20.314  22.890   7.953
 1661POPC   C4B24262  20.131  23.069   7.572
 1662POPC   NC324263   3.410  33.647   9.457
 1662POPC   PO424264   2.768  33.476   9.679
 1662POPC   GL124265   2.881  33.727   9.228
 1662POPC   GL224266   3.193  33.855   9.047
 1662POPC   C1A24267   2.770  33.842   8.749
 1662POPC   D2A24268   2.848  33.730   8.286
 1662POPC   C3A24269   2.596  33.957   7.950
 1662POPC   C4A24270   2.361  33.930   7.554
 1662POPC   C1B24271   3.169  33.513   8.752
 1662POPC   C2B24272   3.319  33.429   8.332
 1662POPC   C3B24273   3.207  33.539   7.888
 1662POPC   C4B24274   3.343  33.582   7.430
 1663POPC   NC324275  12.371  26.224   9.329
 1663POPC   PO424276  12.006  25.641   9.490
 1663POPC   GL124277  12.023  25.908   9.126
 1663POPC   GL224278  11.893  26.263   9.152
 1663POPC   C1A24279  12.224  26.022   8.727
 1663POPC   D2A24280  12.073  25.941   8.327
 1663POPC   C3A24281  12.302  25.818   8.001
 1663POPC   C4A24282  12.091  25.937   7.640
 1663POPC   C1B24283  12.076  26.523   8.802
 1663POPC   C2B24284  12.244  26.436   8.399
 1663POPC   C3B24285  12.301  26.344   7.942
 1663POPC   C4B24286  12.313  26.381   7.474
 1664POPC   NC324287  39.146  15.816   9.463
 1664POPC   PO424288  39.144  16.500   9.455
 1664POPC   GL124289  39.265  16.214   9.127
 1664POPC   GL224290  39.565  16.441   9.088
 1664POPC   C1A24291  39.156  15.929   8.734
 1664POPC   D2A24292  38.839  15.904   8.375
 1664POPC   C3A24293  38.947  15.805   7.917
 1664POPC   C4A24294  39.331  15.933   7.755
 1664POPC   C1B24295  39.590  16.174   8.716
 1664POPC   C2B24296  39.475  16.100   8.292
 1664POPC   C3B24297  39.670  16.304   7.975
 1664POPC   C4B24298  39.488  16.399   7.612
 1665POPC   NC324299   2.409  33.217   9.554
 1665POPC   PO424300   2.117  32.719   9.621
 1665POPC   GL124301   2.069  32.923   9.205
 1665POPC   GL224302   2.251  32.669   9.048
 1665POPC   C1A24303   2.086  33.019   8.713
 1665POPC   D2A24304   1.810  32.994   8.332
 1665POPC   C3A24305   1.974  33.118   7.896
 1665POPC   C4A24306   2.003  33.506   7.623
 1665POPC   C1B24307   1.834  32.587   8.824
 1665POPC   C2B24308   1.826  32.454   8.391
 1665POPC   C3B24309   1.782  32.620   7.962
 1665POPC   C4B24310   1.825  32.817   7.545
 1666POPC   NC324311   0.093  16.809   9.511
 1666POPC   PO424312   0.783  16.683   9.611
 1666POPC   GL124313   0.501  16.727   9.201
 1666POPC   GL224314   0.195  16.485   9.133
 1666POPC   C1A24315   0.586  16.587   8.765
 1666POPC   D2A24316   0.882  16.597   8.395
 1666POPC   C3A24317   0.694  16.919   8.153
 1666POPC   C4A24318   0.442  17.065   7.816
 1666POPC   C1B24319   0.114  16.798   8.805
 1666POPC   C2B24320   0.211  16.727   8.352
 1666POPC   C3B24321   0.225  16.602   7.913
 1666POPC   C4B24322  44.936  16.668   7.556
 1667POPC   NC324323  38.617  44.265   9.522
 1667POPC   PO424324  38.306  43.712   9.446
 1667POPC   GL124325  38.484  43.943   9.113
 1667POPC   GL224326  38.884  43.947   9.181
 1667POPC   C1A24327  38.333  43.866   8.673
 1667POPC   D2A24328  38.339  43.694   8.251
 1667POPC   C3A24329  38.177  43.774   7.797
 1667POPC   C4A24330  38.140  43.724   7.304
 1667POPC   C1B24331  38.805  44.115   8.757
 1667POPC   C2B24332  38.657  44.123   8.327
 1667POPC   C3B24333  38.658  43.946   7.908
 1667POPC   C4B24334  38.842  44.224   7.618
 1668POPC   NC324335   2.359  31.438   9.406
 1668POPC   PO424336   3.021  31.696   9.606
 1668POPC   GL124337   3.033  31.403   9.246
 1668POPC   GL224338   2.741  31.528   9.115
 1668POPC   C1A24339   3.011  31.316   8.761
 1668POPC   D2A24340   2.875  31.544   8.356
 1668POPC   C3A24341   3.098  31.550   7.986
 1668POPC   C4A24342   3.028  31.414   7.589
 1668POPC   C1B24343   2.507  31.447   8.715
 1668POPC   C2B24344   2.368  31.425   8.289
 1668POPC   C3B24345   2.581  31.462   7.922
 1668POPC   C4B24346   2.529  31.714   7.588
 1669POPC   NC324347  27.848   4.126   9.512
 1669POPC   PO424348  27.334   4.579   9.652
 1669POPC   GL124349  27.471   4.394   9.228
 1669POPC   GL224350  27.449   4.012   9.141
 1669POPC   C1A24351  27.487   4.504   8.785
 1669POPC   D2A24352  27.342   4.321   8.400
 1669POPC   C3A24353  27.516   4.451   8.006
 1669POPC   C4A24354  27.458   4.416   7.572
 1669POPC   C1B24355  27.618   4.010   8.698
 1669POPC   C2B24356  27.827   4.095   8.275
 1669POPC   C3B24357  27.940   4.211   7.829
 1669POPC   C4B24358  27.765   4.044   7.450
 1670POPC   NC324359  32.691  31.322   9.219
 1670POPC   PO424360  32.137  31.715   9.638
 1670POPC   GL124361  32.190  31.655   9.182
 1670POPC   GL224362  32.060  31.373   9.083
 1670POPC   C1A24363  32.056  31.763   8.738
 1670POPC   D2A24364  32.290  31.666   8.351
 1670POPC   C3A24365  32.159  31.502   7.959
 1670POPC   C4A24366  32.428  31.722   7.690
 1670POPC   C1B24367  32.268  31.295   8.717
 1670POPC   C2B24368  32.129  31.146   8.345
 1670POPC   C3B24369  32.451  31.064   8.085
 1670POPC   C4B24370  32.484  31.222   7.684
 1671POPC   NC324371  20.032  18.269   9.651
 1671POPC   PO424372  20.011  17.681   9.330
 1671POPC   GL124373  20.077  18.170   9.140
 1671POPC   GL224374  19.890  18.495   9.219
 1671POPC   C1A24375  20.160  18.491   8.773
 1671POPC   D2A24376  20.289  18.423   8.321
 1671POPC   C3A24377  20.015  18.209   7.995
 1671POPC   C4A24378  19.943  18.263   7.546
 1671POPC   C1B24379  19.668  18.417   8.802
 1671POPC   C2B24380  19.777  18.534   8.343
 1671POPC   C3B24381  19.725  18.625   7.868
 1671POPC   C4B24382  19.458  18.418   7.533
 1672POPC   NC324383  29.650  36.181   9.553
 1672POPC   PO424384  30.185  35.794   9.371
 1672POPC   GL124385  29.922  36.055   9.151
 1672POPC   GL224386  30.098  36.359   9.195
 1672POPC   C1A24387  29.750  36.267   8.802
 1672POPC   D2A24388  29.874  36.361   8.386
 1672POPC   C3A24389  29.801  36.036   8.043
 1672POPC   C4A24390  30.129  35.893   7.730
 1672POPC   C1B24391  30.269  36.213   8.784
 1672POPC   C2B24392  30.376  36.417   8.387
 1672POPC   C3B24393  30.204  36.351   7.976
 1672POPC   C4B24394  29.874  36.392   7.682
 1673POPC   NC324395   1.635   5.508   9.513
 1673POPC   PO424396   2.352   5.462   9.425
 1673POPC   GL124397   2.120   5.780   9.187
 1673POPC   GL224398   1.783   5.760   9.052
 1673POPC   C1A24399   2.194   5.944   8.783
 1673POPC   D2A24400   1.995   5.841   8.388
 1673POPC   C3A24401   2.210   5.995   8.005
 1673POPC   C4A24402   2.322   5.730   7.679
 1673POPC   C1B24403   1.563   5.669   8.673
 1673POPC   C2B24404   1.581   5.590   8.236
 1673POPC   C3B24405   1.721   5.842   7.922
 1673POPC   C4B24406   1.663   5.894   7.489
 1674POPC   NC324407  36.796  34.358   9.302
 1674POPC   PO424408  37.220  34.687   9.679
 1674POPC   GL124409  37.168  34.733   9.196
 1674POPC   GL224410  36.818  34.801   9.017
 1674POPC   C1A24411  37.216  34.737   8.728
 1674POPC   D2A24412  37.046  34.549   8.309
 1674POPC   C3A24413  36.930  34.813   7.910
 1674POPC   C4A24414  37.126  34.839   7.464
 1674POPC   C1B24415  36.599  34.478   8.698
 1674POPC   C2B24416  36.671  34.174   8.354
 1674POPC   C3B24417  36.855  34.215   7.940
 1674POPC   C4B24418  36.705  34.474   7.590
 1675POPC   NC324419  35.043  29.841   9.366
 1675POPC   PO424420  34.413  29.641   9.608
 1675POPC   GL124421  34.527  29.826   9.234
 1675POPC   GL224422  34.667  30.174   9.187
 1675POPC   C1A24423  34.394  29.888   8.835
 1675POPC   D2A24424  34.570  29.759   8.480
 1675POPC   C3A24425  34.500  29.945   8.111
 1675POPC   C4A24426  34.461  29.857   7.739
 1675POPC   C1B24427  34.879  30.039   8.779
 1675POPC   C2B24428  34.964  30.136   8.343
 1675POPC   C3B24429  34.980  29.958   7.929
 1675POPC   C4B24430  34.903  29.931   7.471
 1676POPC   NC324431  43.335  38.198   9.422
 1676POPC   PO424432  42.968  37.524   9.386
 1676POPC   GL124433  42.940  37.939   9.174
 1676POPC   GL224434  43.227  38.067   8.941
 1676POPC   C1A24435  42.758  37.928   8.773
 1676POPC   D2A24436  42.968  37.836   8.395
 1676POPC   C3A24437  42.902  37.497   8.108
 1676POPC   C4A24438  43.007  37.600   7.705
 1676POPC   C1B24439  43.228  37.631   8.795
 1676POPC   C2B24440  43.325  37.465   8.393
 1676POPC   C3B24441  43.380  37.728   8.035
 1676POPC   C4B24442  43.555  37.988   7.699
 1677POPC   NC324443  12.382  28.890   9.225
 1677POPC   PO424444  12.871  29.206   9.634
 1677POPC   GL124445  12.877  29.109   9.199
 1677POPC   GL224446  13.230  29.043   9.187
 1677POPC   C1A24447  12.899  29.329   8.789
 1677POPC   D2A24448  13.102  29.252   8.400
 1677POPC   C3A24449  12.806  29.182   8.065
 1677POPC   C4A24450  12.610  29.489   7.771
 1677POPC   C1B24451  13.209  28.916   8.800
 1677POPC   C2B24452  13.158  28.739   8.437
 1677POPC   C3B24453  13.269  28.921   8.063
 1677POPC   C4B24454  13.073  28.871   7.705
 1678POPC   NC324455  43.362  28.049   9.518
 1678POPC   PO424456  43.156  27.324   9.538
 1678POPC   GL124457  43.285  27.580   9.192
 1678POPC   GL224458  43.079  27.887   9.137
 1678POPC   C1A24459  43.542  27.546   8.823
 1678POPC   D2A24460  43.405  27.461   8.405
 1678POPC   C3A24461  43.330  27.760   8.065
 1678POPC   C4A24462  43.112  27.505   7.766
 1678POPC   C1B24463  43.115  27.803   8.720
 1678POPC   C2B24464  42.921  27.690   8.364
 1678POPC   C3B24465  42.819  27.875   7.978
 1678POPC   C4B24466  43.019  27.980   7.581
 1679POPC   NC324467  31.465  28.043   9.814
 1679POPC   PO424468  30.827  28.245   9.606
 1679POPC   GL124469  30.835  28.361   9.217
 1679POPC   GL224470  31.033  28.076   9.107
 1679POPC   C1A24471  30.783  28.524   8.822
 1679POPC   D2A24472  30.605  28.430   8.420
 1679POPC   C3A24473  30.637  28.724   8.121
 1679POPC   C4A24474  30.560  28.663   7.690
 1679POPC   C1B24475  30.885  28.033   8.684
 1679POPC   C2B24476  30.983  28.117   8.254
 1679POPC   C3B24477  30.708  28.215   7.924
 1679POPC   C4B24478  30.665  28.160   7.476
 1680POPC   NC324479  26.740  37.422   9.426
 1680POPC   PO424480  26.797  38.113   9.501
 1680POPC   GL124481  26.931  37.904   9.130
 1680POPC   GL224482  26.635  37.778   9.042
 1680POPC   C1A24483  27.057  37.703   8.724
 1680POPC   D2A24484  26.977  37.620   8.278
 1680POPC   C3A24485  26.964  37.793   7.855
 1680POPC   C4A24486  26.624  38.079   7.782
 1680POPC   C1B24487  26.615  37.430   8.745
 1680POPC   C2B24488  26.718  37.195   8.376
 1680POPC   C3B24489  26.765  37.315   7.922
 1680POPC   C4B24490  26.483  37.582   7.680
 1681POPC   NC324491  35.291  44.362   9.504
 1681POPC   PO424492  35.581   0.013   9.304
 1681POPC   GL124493  35.434  44.647   9.113
 1681POPC   GL224494  35.696  44.403   9.202
 1681POPC   C1A24495  35.207  44.481   8.758
 1681POPC   D2A24496  35.023  44.356   8.357
 1681POPC   C3A24497  35.163  44.658   8.020
 1681POPC   C4A24498  35.036  44.795   7.627
 1681POPC   C1B24499  35.744  44.405   8.770
 1681POPC   C2B24500  35.545  44.312   8.381
 1681POPC   C3B24501  35.389  44.201   8.002
 1681POPC   C4B24502  35.526  44.421   7.642
 1682POPC   NC324503  34.308  31.460   9.493
 1682POPC   PO424504  34.988  31.394   9.500
 1682POPC   GL124505  34.738  31.496   9.153
 1682POPC   GL224506  34.561  31.186   9.157
 1682POPC   C1A24507  34.521  31.487   8.750
 1682POPC   D2A24508  34.576  31.337   8.321
 1682POPC   C3A24509  34.749  31.494   7.972
 1682POPC   C4A24510  34.553  31.501   7.576
 1682POPC   C1B24511  34.212  31.083   8.859
 1682POPC   C2B24512  34.112  31.241   8.443
 1682POPC   C3B24513  34.167  31.089   8.010
 1682POPC   C4B24514  33.975  31.086   7.587
 1683POPC   NC324515  22.812   9.686   9.665
 1683POPC   PO424516  23.433   9.648   9.355
 1683POPC   GL124517  23.077   9.514   9.138
 1683POPC   GL224518  22.809   9.771   9.152
 1683POPC   C1A24519  22.987   9.551   8.697
 1683POPC   D2A24520  23.110   9.699   8.307
 1683POPC   C3A24521  22.796   9.623   8.064
 1683POPC   C4A24522  22.647   9.696   7.670
 1683POPC   C1B24523  23.060  10.034   8.836
 1683POPC   C2B24524  23.040  10.208   8.395
 1683POPC   C3B24525  22.990  10.066   7.939
 1683POPC   C4B24526  22.930  10.098   7.461
 1684POPC   NC324527  37.831  19.982   9.484
 1684POPC   PO424528  37.312  19.557   9.651
 1684POPC   GL124529  37.455  19.788   9.243
 1684POPC   GL224530  37.742  19.577   9.178
 1684POPC   C1A24531  37.603  19.829   8.777
 1684POPC   D2A24532  37.497  19.946   8.354
 1684POPC   C3A24533  37.656  20.025   7.952
 1684POPC   C4A24534  37.461  19.698   7.705
 1684POPC   C1B24535  38.016  19.542   8.821
 1684POPC   C2B24536  37.957  19.673   8.411
 1684POPC   C3B24537  37.856  19.546   8.013
 1684POPC   C4B24538  37.970  19.703   7.622
 1685POPC   NC324539   9.598  42.268   9.554
 1685POPC   PO424540  10.159  42.276   9.475
 1685POPC   GL124541   9.872  42.523   9.181
 1685POPC   GL224542   9.463  42.501   9.134
 1685POPC   C1A24543   9.778  42.530   8.747
 1685POPC   D2A24544   9.707  42.317   8.399
 1685POPC   C3A24545   9.939  42.449   8.075
 1685POPC   C4A24546   9.714  42.322   7.745
 1685POPC   C1B24547   9.370  42.833   8.851
 1685POPC   C2B24548   9.369  42.884   8.442
 1685POPC   C3B24549   9.441  42.642   8.102
 1685POPC   C4B24550   9.632  42.822   7.773
 1686POPC   NC324551  40.460  24.629   9.489
 1686POPC   PO424552  40.971  24.214   9.443
 1686POPC   GL124553  40.671  24.230   9.099
 1686POPC   GL224554  40.702  24.555   9.055
 1686POPC   C1A24555  40.781  24.256   8.655
 1686POPC   D2A24556  41.122  24.175   8.379
 1686POPC   C3A24557  40.954  24.432   8.081
 1686POPC   C4A24558  41.020  24.507   7.637
 1686POPC   C1B24559  40.772  24.795   8.687
 1686POPC   C2B24560  40.979  24.931   8.313
 1686POPC   C3B24561  40.787  24.874   7.911
 1686POPC   C4B24562  40.361  24.951   7.739
 1687POPC   NC324563  36.204  18.902   9.501
 1687POPC   PO424564  36.528  19.531   9.449
 1687POPC   GL124565  36.230  19.307   9.148
 1687POPC   GL224566  36.351  19.000   9.043
 1687POPC   C1A24567  35.916  19.161   8.808
 1687POPC   D2A24568  35.656  19.192   8.422
 1687POPC   C3A24569  35.846  19.055   8.108
 1687POPC   C4A24570  35.796  19.061   7.720
 1687POPC   C1B24571  36.457  19.121   8.652
 1687POPC   C2B24572  36.323  19.123   8.252
 1687POPC   C3B24573  36.307  18.986   7.835
 1687POPC   C4B24574  36.446  18.720   7.511
 1688POPC   NC324575  12.948   2.797   9.467
 1688POPC   PO424576  12.401   2.383   9.462
 1688POPC   GL124577  12.609   2.554   9.118
 1688POPC   GL224578  12.572   2.897   9.118
 1688POPC   C1A24579  12.790   2.484   8.717
 1688POPC   D2A24580  12.960   2.338   8.313
 1688POPC   C3A24581  12.726   2.422   7.920
 1688POPC   C4A24582  12.754   2.627   7.532
 1688POPC   C1B24583  12.795   3.046   8.782
 1688POPC   C2B24584  12.923   2.907   8.391
 1688POPC   C3B24585  12.904   3.039   7.962
 1688POPC   C4B24586  13.081   3.024   7.546
 1689POPC   NC324587  33.951  30.844   9.436
 1689POPC   PO424588  33.350  30.885   9.234
 1689POPC   GL124589  33.684  30.720   8.999
 1689POPC   GL224590  33.861  30.418   9.155
 1689POPC   C1A24591  33.790  30.863   8.585
 1689POPC   D2A24592  33.685  31.077   8.193
 1689POPC   C3A24593  33.766  30.736   7.887
 1689POPC   C4A24594  33.644  30.297   7.811
 1689POPC   C1B24595  34.129  30.542   8.782
 1689POPC   C2B24596  34.028  30.472   8.315
 1689POPC   C3B24597  34.154  30.328   7.896
 1689POPC   C4B24598  34.329  30.705   7.708
 1690POPC   NC324599  29.266  15.424   9.436
 1690POPC   PO424600  28.895  14.879   9.734
 1690POPC   GL124601  28.981  14.967   9.277
 1690POPC   GL224602  29.304  15.010   9.144
 1690POPC   C1A24603  28.930  15.034   8.822
 1690POPC   D2A24604  28.966  15.119   8.414
 1690POPC   C3A24605  28.839  14.991   8.078
 1690POPC   C4A24606  28.959  15.112   7.702
 1690POPC   C1B24607  29.412  15.044   8.656
 1690POPC   C2B24608  29.435  14.955   8.210
 1690POPC   C3B24609  29.454  15.077   7.796
 1690POPC   C4B24610  29.575  14.982   7.385
 1691POPC   NC324611  41.580  42.900   9.477
 1691POPC   PO424612  41.470  42.270   9.567
 1691POPC   GL124613  41.394  42.435   9.139
 1691POPC   GL224614  41.700  42.530   9.033
 1691POPC   C1A24615  41.330  42.500   8.696
 1691POPC   D2A24616  41.559  42.313   8.361
 1691POPC   C3A24617  41.471  42.447   7.954
 1691POPC   C4A24618  41.500  42.430   7.520
 1691POPC   C1B24619  41.820  42.695   8.607
 1691POPC   C2B24620  41.922  42.674   8.156
 1691POPC   C3B24621  41.967  42.487   7.746
 1691POPC   C4B24622  41.902  42.656   7.332
 1692POPC   NC324623  25.526  39.542   9.406
 1692POPC   PO424624  24.864  39.742   9.377
 1692POPC   GL124625  25.084  39.446   9.084
 1692POPC   GL224626  25.412  39.366   8.970
 1692POPC   C1A24627  25.004  39.285   8.696
 1692POPC   D2A24628  25.301  39.357   8.381
 1692POPC   C3A24629  25.091  39.214   8.053
 1692POPC   C4A24630  24.998  39.464   7.702
 1692POPC   C1B24631  25.451  39.024   8.745
 1692POPC   C2B24632  25.668  38.975   8.366
 1692POPC   C3B24633  25.508  38.874   7.984
 1692POPC   C4B24634  25.266  39.038   7.617
 1693POPC   NC324635  30.563  14.113   9.413
 1693POPC   PO424636  30.975  14.228   8.988
 1693POPC   GL124637  30.502  14.235   8.917
 1693POPC   GL224638  30.388  14.546   9.109
 1693POPC   C1A24639  30.450  14.096   8.504
 1693POPC   D2A24640  30.894  14.035   8.386
 1693POPC   C3A24641  30.934  14.086   7.946
 1693POPC   C4A24642  30.552  14.291   7.816
 1693POPC   C1B24643  30.416  14.680   8.666
 1693POPC   C2B24644  30.379  14.556   8.229
 1693POPC   C3B24645  30.475  14.797   7.823
 1693POPC   C4B24646  30.730  14.976   7.472
 1694POPC   NC324647  26.983  15.817   9.915
 1694POPC   PO424648  26.544  16.132   9.469
 1694POPC   GL124649  26.801  15.960   9.156
 1694POPC   GL224650  26.738  16.252   8.933
 1694POPC   C1A24651  26.706  15.747   8.767
 1694POPC   D2A24652  26.564  15.860   8.355
 1694POPC   C3A24653  26.885  15.892   7.997
 1694POPC   C4A24654  26.845  15.716   7.591
 1694POPC   C1B24655  26.921  16.170   8.552
 1694POPC   C2B24656  27.102  16.332   8.215
 1694POPC   C3B24657  27.343  16.144   7.897
 1694POPC   C4B24658  27.182  16.085   7.488
 1695POPC   NC324659   7.331  18.397   9.620
 1695POPC   PO424660   7.554  17.896   9.286
 1695POPC   GL124661   7.276  18.200   9.128
 1695POPC   GL224662   7.482  18.511   9.140
 1695POPC   C1A24663   7.242  18.359   8.707
 1695POPC   D2A24664   7.564  18.382   8.408
 1695POPC   C3A24665   7.581  18.255   8.000
 1695POPC   C4A24666   7.249  18.142   7.735
 1695POPC   C1B24667   7.621  18.762   8.759
 1695POPC   C2B24668   7.533  18.868   8.303
 1695POPC   C3B24669   7.331  18.672   7.941
 1695POPC   C4B24670   7.127  18.636   7.563
 1696POPC   NC324671   2.302   0.332   9.532
 1696POPC   PO424672   2.989   0.566   9.510
 1696POPC   GL124673   2.843   0.336   9.161
 1696POPC   GL224674   2.550   0.191   9.115
 1696POPC   C1A24675   2.814   0.521   8.736
 1696POPC   D2A24676   2.943   0.723   8.335
 1696POPC   C3A24677   2.630   0.794   8.007
 1696POPC   C4A24678   2.608   0.582   7.628
 1696POPC   C1B24679   2.759   0.015   8.766
 1696POPC   C2B24680   2.747   0.149   8.376
 1696POPC   C3B24681   2.830   0.307   8.026
 1696POPC   C4B24682   2.861   0.137   7.671
 1697POPC   NC324683  43.618  10.078   9.488
 1697POPC   PO424684  43.934   9.502   9.495
 1697POPC   GL124685  43.839   9.725   9.154
 1697POPC   GL224686  43.493   9.688   9.135
 1697POPC   C1A24687  43.993   9.778   8.741
 1697POPC   D2A24688  43.952   9.528   8.365
 1697POPC   C3A24689  43.865   9.904   8.078
 1697POPC   C4A24690  43.943  10.076   7.662
 1697POPC   C1B24691  43.581   9.432   8.749
 1697POPC   C2B24692  43.477   9.395   8.299
 1697POPC   C3B24693  43.429   9.594   7.907
 1697POPC   C4B24694  43.624   9.692   7.514
 1698POPC   NC324695  39.371  23.120   9.456
 1698POPC   PO424696  38.806  22.664   9.506
 1698POPC   GL124697  39.019  22.822   9.125
 1698POPC   GL224698  39.375  22.734   9.094
 1698POPC   C1A24699  39.063  22.816   8.672
 1698POPC   D2A24700  38.939  22.945   8.264
 1698POPC   C3A24701  38.974  22.807   7.843
 1698POPC   C4A24702  39.162  23.000   7.464
 1698POPC   C1B24703  39.565  22.948   8.746
 1698POPC   C2B24704  39.489  22.989   8.342
 1698POPC   C3B24705  39.500  22.819   7.923
 1698POPC   C4B24706  39.661  23.050   7.600
 1699POPC   NC324707  14.610  39.374   9.562
 1699POPC   PO424708  14.174  38.856   9.534
 1699POPC   GL124709  14.362  39.083   9.172
 1699POPC   GL224710  14.407  39.460   9.116
 1699POPC   C1A24711  14.115  39.195   8.802
 1699POPC   D2A24712  13.982  39.098   8.416
 1699POPC   C3A24713  14.203  39.263   8.081
 1699POPC   C4A24714  14.028  39.166   7.698
 1699POPC   C1B24715  14.577  39.444   8.732
 1699POPC   C2B24716  14.436  39.655   8.376
 1699POPC   C3B24717  14.604  39.696   7.997
 1699POPC   C4B24718  14.460  39.463   7.666
 1700POPC   NC324719  29.574  14.033   9.289
 1700POPC   PO424720  30.156  14.314   9.555
 1700POPC   GL124721  30.035  14.197   9.158
 1700POPC   GL224722  30.177  13.876   9.142
 1700POPC   C1A24723  29.976  14.440   8.755
 1700POPC   D2A24724  29.620  14.570   8.479
 1700POPC   C3A24725  29.653  14.524   8.001
 1700POPC   C4A24726  30.073  14.490   7.822
 1700POPC   C1B24727  29.976  13.941   8.729
 1700POPC   C2B24728  29.973  14.165   8.338
 1700POPC   C3B24729  30.138  14.038   7.998
 1700POPC   C4B24730  29.767  14.063   7.756
 1701POPC   NC324731   3.321  32.654   9.529
 1701POPC   PO424732   3.440  33.320   9.787
 1701POPC   GL124733   3.656  33.202   9.351
 1701POPC   GL224734   3.781  32.858   9.197
 1701POPC   C1A24735   3.595  33.220   8.877
 1701POPC   D2A24736   3.831  32.981   8.547
 1701POPC   C3A24737   3.768  33.173   8.127
 1701POPC   C4A24738   3.558  33.194   7.700
 1701POPC   C1B24739   3.476  32.722   8.839
 1701POPC   C2B24740   3.350  32.896   8.412
 1701POPC   C3B24741   3.460  32.772   7.980
 1701POPC   C4B24742   3.282  32.750   7.547
 1702POPC   NC324743  20.783  22.021   9.507
 1702POPC   PO424744  20.165  22.265   9.578
 1702POPC   GL124745  20.449  22.224   9.169
 1702POPC   GL224746  20.458  21.865   9.111
 1702POPC   C1A24747  20.809  22.054   8.812
 1702POPC   D2A24748  20.815  21.887   8.398
 1702POPC   C3A24749  20.847  22.111   8.016
 1702POPC   C4A24750  20.570  22.435   7.897
 1702POPC   C1B24751  20.331  22.097   8.686
 1702POPC   C2B24752  20.360  22.072   8.215
 1702POPC   C3B24753  20.418  21.852   7.827
 1702POPC   C4B24754  20.352  21.768   7.372
 1703POPC   NC324755  33.577  31.698   9.490
 1703POPC   PO424756  33.476  32.442   9.586
 1703POPC   GL124757  33.666  32.357   9.159
 1703POPC   GL224758  33.872  32.044   9.132
 1703POPC   C1A24759  33.751  32.335   8.687
 1703POPC   D2A24760  33.729  32.488   8.241
 1703POPC   C3A24761  33.490  32.308   7.885
 1703POPC   C4A24762  33.535  32.306   7.424
 1703POPC   C1B24763  34.217  32.186   8.829
 1703POPC   C2B24764  34.352  32.252   8.423
 1703POPC   C3B24765  34.093  32.125   8.098
 1703POPC   C4B24766  33.922  32.098   7.704
 1704POPC   NC324767   7.669  14.147   9.559
 1704POPC   PO424768   7.175  14.519   9.548
 1704POPC   GL124769   7.457  14.433   9.167
 1704POPC   GL224770   7.608  14.094   9.074
 1704POPC   C1A24771   7.478  14.370   8.702
 1704POPC   D2A24772   7.622  14.645   8.428
 1704POPC   C3A24773   7.528  14.461   8.073
 1704POPC   C4A24774   7.615  14.380   7.685
 1704POPC   C1B24775   7.245  13.900   8.846
 1704POPC   C2B24776   6.957  13.940   8.515
 1704POPC   C3B24777   6.958  13.903   8.100
 1704POPC   C4B24778   7.245  14.047   7.826
 1705POPC   NC324779  10.086  29.683   9.644
 1705POPC   PO424780  10.695  29.701   9.535
 1705POPC   GL124781  10.466  29.879   9.198
 1705POPC   GL224782  10.419  30.260   9.175
 1705POPC   C1A24783  10.594  29.872   8.773
 1705POPC   D2A24784  10.602  29.621   8.419
 1705POPC   C3A24785  10.583  29.832   8.054
 1705POPC   C4A24786  10.563  29.670   7.653
 1705POPC   C1B24787  10.162  30.180   8.817
 1705POPC   C2B24788  10.203  29.969   8.442
 1705POPC   C3B24789  10.158  30.140   8.041
 1705POPC   C4B24790  10.369  30.161   7.685
 1706POPC   NC324791  23.734  29.025   9.695
 1706POPC   PO424792  23.694  29.638   9.740
 1706POPC   GL124793  23.721  29.323   9.236
 1706POPC   GL224794  23.765  28.960   9.212
 1706POPC   C1A24795  23.694  29.260   8.776
 1706POPC   D2A24796  23.741  29.452   8.338
 1706POPC   C3A24797  23.500  29.463   7.926
 1706POPC   C4A24798  23.551  29.496   7.456
 1706POPC   C1B24799  23.540  28.777   8.905
 1706POPC   C2B24800  23.733  28.836   8.515
 1706POPC   C3B24801  23.558  28.978   8.177
 1706POPC   C4B24802  23.609  28.846   7.763
 1707POPC   NC324803  15.652  10.718   9.647
 1707POPC   PO424804  16.114  10.273   9.425
 1707POPC   GL124805  16.068  10.482   9.065
 1707POPC   GL224806  15.958  10.793   9.211
 1707POPC   C1A24807  15.915  10.348   8.678
 1707POPC   D2A24808  16.081  10.260   8.287
 1707POPC   C3A24809  15.883  10.392   7.899
 1707POPC   C4A24810  15.885  10.239   7.476
 1707POPC   C1B24811  16.241  10.915   8.868
 1707POPC   C2B24812  16.242  10.706   8.507
 1707POPC   C3B24813  16.165  10.783   8.108
 1707POPC   C4B24814  15.824  10.933   7.897
 1708POPC   NC324815  11.324  28.380   9.646
 1708POPC   PO424816  11.057  28.847   9.285
 1708POPC   GL124817  11.294  28.478   9.140
 1708POPC   GL224818  11.584  28.623   9.053
 1708POPC   C1A24819  11.361  28.309   8.725
 1708POPC   D2A24820  11.138  28.301   8.355
 1708POPC   C3A24821  11.260  28.065   7.997
 1708POPC   C4A24822  11.286  28.170   7.589
 1708POPC   C1B24823  11.791  28.606   8.640
 1708POPC   C2B24824  11.613  28.533   8.242
 1708POPC   C3B24825  11.308  28.575   7.932
 1708POPC   C4B24826  11.629  28.546   7.645
 1709POPC   NC324827  32.415  11.460   9.461
 1709POPC   PO424828  32.700  10.837   9.142
 1709POPC   GL124829  32.374  11.113   9.087
 1709POPC   GL224830  32.028  11.076   9.203
 1709POPC   C1A24831  32.441  11.451   8.818
 1709POPC   D2A24832  32.326  11.387   8.428
 1709POPC   C3A24833  32.534  11.352   8.056
 1709POPC   C4A24834  32.605  10.983   7.779
 1709POPC   C1B24835  31.962  11.189   8.749
 1709POPC   C2B24836  31.877  11.238   8.279
 1709POPC   C3B24837  32.049  11.266   7.842
 1709POPC   C4B24838  31.873  11.509   7.466
 1710POPC   NC324839  44.703  27.215   9.425
 1710POPC   PO424840  44.609  26.573   9.579
 1710POPC   GL124841  44.686  26.505   9.143
 1710POPC   GL224842  44.779  26.823   9.116
 1710POPC   C1A24843  44.554  26.657   8.709
 1710POPC   D2A24844  44.722  26.842   8.365
 1710POPC   C3A24845  44.579  26.698   8.008
 1710POPC   C4A24846  44.291  26.808   7.666
 1710POPC   C1B24847  44.907  27.078   8.788
 1710POPC   C2B24848   0.020  27.253   8.413
 1710POPC   C3B24849  44.806  27.245   8.038
 1710POPC   C4B24850  44.745  27.038   7.674
 1711POPC   NC324851  10.594  42.118   9.522
 1711POPC   PO424852  10.652  42.695   9.737
 1711POPC   GL124853  10.563  42.569   9.248
 1711POPC   GL224854  10.730  42.308   9.064
 1711POPC   C1A24855  10.302  42.527   8.865
 1711POPC   D2A24856  10.336  42.624   8.424
 1711POPC   C3A24857  10.462  42.291   8.128
 1711POPC   C4A24858  10.238  42.169   7.761
 1711POPC   C1B24859  10.851  42.262   8.624
 1711POPC   C2B24860  10.857  42.588   8.304
 1711POPC   C3B24861  10.858  42.554   7.860
 1711POPC   C4B24862  10.742  42.138   7.699
 1712POPC   NC324863  36.772  14.092   9.541
 1712POPC   PO424864  36.933  14.624   9.502
 1712POPC   GL124865  36.933  14.629   9.090
 1712POPC   GL224866  36.781  14.309   9.088
 1712POPC   C1A24867  36.969  14.498   8.665
 1712POPC   D2A24868  36.797  14.747   8.366
 1712POPC   C3A24869  36.825  14.721   7.923
 1712POPC   C4A24870  36.682  14.504   7.528
 1712POPC   C1B24871  36.642  14.087   8.738
 1712POPC   C2B24872  36.690  14.232   8.336
 1712POPC   C3B24873  36.858  14.181   7.937
 1712POPC   C4B24874  37.044  14.169   7.540
 1713POPC   NC324875  42.755  13.120   9.334
 1713POPC   PO424876  42.634  13.782   9.411
 1713POPC   GL124877  42.393  13.660   9.073
 1713POPC   GL224878  42.131  13.432   9.126
 1713POPC   C1A24879  42.182  13.853   8.745
 1713POPC   D2A24880  42.474  13.963   8.445
 1713POPC   C3A24881  42.384  13.957   8.038
 1713POPC   C4A24882  42.688  13.893   7.770
 1713POPC   C1B24883  42.263  13.354   8.686
 1713POPC   C2B24884  42.244  13.512   8.262
 1713POPC   C3B24885  42.326  13.502   7.809
 1713POPC   C4B24886  42.057  13.409   7.465
 1714POPC   NC324887  13.506  30.226   9.596
 1714POPC   PO424888  13.763  29.613   9.510
 1714POPC   GL124889  13.513  29.837   9.171
 1714POPC   GL224890  13.737  30.067   9.137
 1714POPC   C1A24891  13.530  30.043   8.693
 1714POPC   D2A24892  13.795  29.972   8.318
 1714POPC   C3A24893  13.526  29.927   7.974
 1714POPC   C4A24894  13.379  29.797   7.593
 1714POPC   C1B24895  13.861  29.670   8.794
 1714POPC   C2B24896  14.004  29.475   8.365
 1714POPC   C3B24897  13.935  29.591   7.910
 1714POPC   C4B24898  13.863  29.899   7.550
 1715POPC   NC324899  41.936  36.171   9.513
 1715POPC   PO424900  42.530  36.525   9.536
 1715POPC   GL124901  42.350  36.289   9.204
 1715POPC   GL224902  42.381  35.906   9.201
 1715POPC   C1A24903  42.235  36.348   8.776
 1715POPC   D2A24904  42.358  36.048   8.500
 1715POPC   C3A24905  42.398  36.173   8.088
 1715POPC   C4A24906  42.235  36.280   7.682
 1715POPC   C1B24907  42.608  35.679   8.854
 1715POPC   C2B24908  42.534  35.569   8.416
 1715POPC   C3B24909  42.405  35.688   7.977
 1715POPC   C4B24910  42.477  35.820   7.552
 1716POPC   NC324911  15.049   2.650   9.512
 1716POPC   PO424912  14.942   3.294   9.306
 1716POPC   GL124913  14.903   2.945   9.052
 1716POPC   GL224914  14.958   2.588   9.035
 1716POPC   C1A24915  15.267   2.905   8.771
 1716POPC   D2A24916  15.198   2.805   8.369
 1716POPC   C3A24917  15.422   2.951   8.070
 1716POPC   C4A24918  15.325   3.028   7.679
 1716POPC   C1B24919  14.770   2.623   8.662
 1716POPC   C2B24920  14.702   2.742   8.258
 1716POPC   C3B24921  14.989   2.698   7.917
 1716POPC   C4B24922  14.901   2.495   7.558
 1717POPC   NC324923  19.577  13.260   9.412
 1717POPC   PO424924  19.519  13.901   9.500
 1717POPC   GL124925  19.702  13.711   9.139
 1717POPC   GL224926  19.967  13.459   9.148
 1717POPC   C1A24927  19.795  13.719   8.714
 1717POPC   D2A24928  19.717  13.442   8.363
 1717POPC   C3A24929  19.796  13.567   7.909
 1717POPC   C4A24930  19.559  13.671   7.510
 1717POPC   C1B24931  20.101  13.320   8.714
 1717POPC   C2B24932  20.200  13.288   8.254
 1717POPC   C3B24933  20.164  13.226   7.772
 1717POPC   C4B24934  19.802  13.220   7.463
 1718POPC   NC324935   8.154  22.726   9.495
 1718POPC   PO424936   7.999  23.389   9.476
 1718POPC   GL124937   8.118  23.106   9.179
 1718POPC   GL224938   8.439  23.096   9.063
 1718POPC   C1A24939   8.051  22.860   8.798
 1718POPC   D2A24940   7.894  22.778   8.359
 1718POPC   C3A24941   8.105  22.913   7.967
 1718POPC   C4A24942   8.026  23.214   7.623
 1718POPC   C1B24943   8.578  22.865   8.709
 1718POPC   C2B24944   8.514  22.750   8.275
 1718POPC   C3B24945   8.647  22.966   7.900
 1718POPC   C4B24946   8.433  22.834   7.540
 1719POPC   NC324947  39.208   3.687   9.817
 1719POPC   PO424948  39.114   4.350   9.585
 1719POPC   GL124949  39.101   4.445   9.174
 1719POPC   GL224950  38.803   4.254   9.110
 1719POPC   C1A24951  39.380   4.319   8.841
 1719POPC   D2A24952  39.347   4.161   8.423
 1719POPC   C3A24953  39.317   4.471   8.122
 1719POPC   C4A24954  38.947   4.615   7.927
 1719POPC   C1B24955  38.957   4.018   8.751
 1719POPC   C2B24956  38.930   3.835   8.358
 1719POPC   C3B24957  39.012   4.072   7.999
 1719POPC   C4B24958  38.756   4.239   7.640
 1720POPC   NC324959   5.882  20.348   9.527
 1720POPC   PO424960   6.111  20.886   9.355
 1720POPC   GL124961   5.747  20.661   9.138
 1720POPC   GL224962   5.733  20.278   9.029
 1720POPC   C1A24963   5.592  20.775   8.743
 1720POPC   D2A24964   5.793  21.008   8.409
 1720POPC   C3A24965   5.801  20.804   8.055
 1720POPC   C4A24966   5.851  20.571   7.699
 1720POPC   C1B24967   5.970  20.205   8.640
 1720POPC   C2B24968   6.063  20.343   8.195
 1720POPC   C3B24969   6.048  20.129   7.785
 1720POPC   C4B24970   6.010  20.272   7.315
 1721POPC   NC324971  42.711  11.292   9.591
 1721POPC   PO424972  43.395  11.370   9.530
 1721POPC   GL124973  43.088  11.400   9.205
 1721POPC   GL224974  43.004  11.051   9.229
 1721POPC   C1A24975  43.013  11.587   8.770
 1721POPC   D2A24976  42.988  11.773   8.349
 1721POPC   C3A24977  43.148  11.558   7.947
 1721POPC   C4A24978  42.979  11.573   7.504
 1721POPC   C1B24979  43.172  11.096   8.796
 1721POPC   C2B24980  43.051  11.229   8.387
 1721POPC   C3B24981  43.010  11.030   7.999
 1721POPC   C4B24982  43.144  11.111   7.606
 1722POPC   NC324983   4.524  13.871   9.293
 1722POPC   PO424984   3.966  13.602   9.668
 1722POPC   GL124985   3.983  13.776   9.265
 1722POPC   GL224986   4.014  13.422   9.173
 1722POPC   C1A24987   4.042  13.789   8.810
 1722POPC   D2A24988   4.067  13.909   8.380
 1722POPC   C3A24989   4.408  13.868   8.144
 1722POPC   C4A24990   4.303  13.907   7.737
 1722POPC   C1B24991   4.099  13.275   8.770
 1722POPC   C2B24992   4.244  13.421   8.401
 1722POPC   C3B24993   4.105  13.478   7.981
 1722POPC   C4B24994   4.483  13.436   7.718
 1723POPC   NC324995  44.675  17.269   9.858
 1723POPC   PO424996  44.670  16.657   9.610
 1723POPC   GL124997  44.695  16.726   9.164
 1723POPC   GL224998  44.647  16.382   9.120
 1723POPC   C1A24999  44.609  16.890   8.724
 1723POPC   D2A25000  44.580  16.816   8.268
 1723POPC   C3A25001  44.902  17.013   7.965
 1723POPC   C4A25002  44.779  17.220   7.522
 1723POPC   C1B25003  44.390  16.440   8.743
 1723POPC   C2B25004  44.537  16.301   8.354
 1723POPC   C3B25005  44.699  16.429   7.951
 1723POPC   C4B25006  44.450  16.416   7.591
 1724POPC   NC325007  38.198  36.419   9.534
 1724POPC   PO425008  38.555  35.872   9.538
 1724POPC   GL125009  38.479  36.038   9.138
 1724POPC   GL225010  38.177  35.869   9.072
 1724POPC   C1A25011  38.255  36.319   8.849
 1724POPC   D2A25012  38.074  36.383   8.426
 1724POPC   C3A25013  38.324  36.272   8.056
 1724POPC   C4A25014  38.304  36.480   7.687
 1724POPC   C1B25015  38.327  35.813   8.703
 1724POPC   C2B25016  38.184  35.893   8.359
 1724POPC   C3B25017  38.169  35.723   7.978
 1724POPC   C4B25018  38.327  35.908   7.647
 1725POPC   NC325019  39.084   2.121   9.486
 1725POPC   PO425020  39.423   1.564   9.496
 1725POPC   GL125021  39.417   1.814   9.132
 1725POPC   GL225022  39.375   2.174   9.064
 1725POPC   C1A25023  39.291   1.819   8.714
 1725POPC   D2A25024  39.301   2.079   8.322
 1725POPC   C3A25025  39.313   1.858   7.907
 1725POPC   C4A25026  39.566   1.624   7.608
 1725POPC   C1B25027  38.969   2.189   8.798
 1725POPC   C2B25028  38.814   2.279   8.372
 1725POPC   C3B25029  38.861   2.076   7.978
 1725POPC   C4B25030  38.961   2.185   7.554
 1726POPC   NC325031  31.507   3.406   9.494
 1726POPC   PO425032  31.069   3.986   9.512
 1726POPC   GL125033  31.160   3.684   9.189
 1726POPC   GL225034  31.173   3.324   9.087
 1726POPC   C1A25035  31.362   3.731   8.812
 1726POPC   D2A25036  31.534   3.863   8.449
 1726POPC   C3A25037  31.392   3.590   8.140
 1726POPC   C4A25038  31.495   3.688   7.737
 1726POPC   C1B25039  31.559   3.243   8.841
 1726POPC   C2B25040  31.772   3.389   8.467
 1726POPC   C3B25041  31.852   3.390   8.028
 1726POPC   C4B25042  31.542   3.167   7.796
 1727POPC   NC325043  15.645  36.731   9.325
 1727POPC   PO425044  16.206  36.864   9.777
 1727POPC   GL125045  16.168  36.954   9.283
 1727POPC   GL225046  16.040  36.764   9.018
 1727POPC   C1A25047  16.211  37.218   8.871
 1727POPC   D2A25048  16.287  37.028   8.437
 1727POPC   C3A25049  15.989  37.116   8.072
 1727POPC   C4A25050  16.033  36.971   7.639
 1727POPC   C1B25051  15.809  36.575   8.696
 1727POPC   C2B25052  15.952  36.667   8.295
 1727POPC   C3B25053  15.735  36.663   7.898
 1727POPC   C4B25054  15.703  36.621   7.384
 1728POPC   NC325055   0.186  27.706   9.709
 1728POPC   PO425056  44.483  27.600   9.493
 1728POPC   GL125057  44.528  27.545   9.044
 1728POPC   GL225058  44.831  27.524   9.015
 1728POPC   C1A25059  44.480  27.705   8.658
 1728POPC   D2A25060  44.740  27.666   8.315
 1728POPC   C3A25061  44.449  27.651   8.042
 1728POPC   C4A25062  44.482  27.466   7.693
 1728POPC   C1B25063  44.941  27.891   8.720
 1728POPC   C2B25064   0.049  28.084   8.321
 1728POPC   C3B25065  44.892  28.055   7.938
 1728POPC   C4B25066  44.898  27.727   7.674
 1729POPC   NC325067  32.372   8.905   9.442
 1729POPC   PO425068  31.884   9.256   9.397
 1729POPC   GL125069  31.836   8.927   9.067
 1729POPC   GL225070  32.077   8.642   9.090
 1729POPC   C1A25071  31.909   8.821   8.620
 1729POPC   D2A25072  32.261   8.967   8.375
 1729POPC   C3A25073  32.328   8.924   7.954
 1729POPC   C4A25074  32.471   9.258   7.713
 1729POPC   C1B25075  32.444   8.715   8.813
 1729POPC   C2B25076  32.622   8.516   8.458
 1729POPC   C3B25077  32.744   8.589   8.047
 1729POPC   C4B25078  32.766   8.841   7.676
 1730POPC   NC325079  25.222  44.547   9.540
 1730POPC   PO425080  25.752  44.915   9.351
 1730POPC   GL125081  25.331  44.861   9.124
 1730POPC   GL225082  24.963  44.768   9.166
 1730POPC   C1A25083  25.105  44.894   8.707
 1730POPC   D2A25084  25.272  44.897   8.316
 1730POPC   C3A25085  25.122  44.860   7.921
 1730POPC   C4A25086  25.226   0.084   7.569
 1730POPC   C1B25087  24.998  44.425   8.854
 1730POPC   C2B25088  25.139  44.416   8.410
 1730POPC   C3B25089  25.060  44.361   7.970
 1730POPC   C4B25090  25.117  44.531   7.515
 1731POPC   NC325091  14.923  36.041   9.367
 1731POPC   PO425092  15.501  36.350   9.567
 1731POPC   GL125093  15.374  36.268   9.151
 1731POPC   GL225094  15.373  35.899   9.123
 1731POPC   C1A25095  15.383  36.265   8.700
 1731POPC   D2A25096  15.300  35.993   8.341
 1731POPC   C3A25097  15.163  36.224   8.005
 1731POPC   C4A25098  15.338  36.426   7.705
 1731POPC   C1B25099  15.052  35.867   8.771
 1731POPC   C2B25100  14.878  35.731   8.381
 1731POPC   C3B25101  15.038  35.734   7.957
 1731POPC   C4B25102  15.464  35.832   7.808
 1732POPC   NC325103  34.910  23.061   9.563
 1732POPC   PO425104  35.591  22.935   9.517
 1732POPC   GL125105  35.293  22.969   9.194
 1732POPC   GL225106  35.168  22.635   9.043
 1732POPC   C1A25107  35.314  23.026   8.762
 1732POPC   D2A25108  35.553  22.861   8.430
 1732POPC   C3A25109  35.479  23.056   8.047
 1732POPC   C4A25110  35.502  22.883   7.686
 1732POPC   C1B25111  34.929  22.682   8.700
 1732POPC   C2B25112  35.046  22.892   8.328
 1732POPC   C3B25113  35.006  22.945   7.904
 1732POPC   C4B25114  35.094  23.171   7.543
 1733POPC   NC325115   4.285   8.587   9.382
 1733POPC   PO425116   4.635   8.025   9.368
 1733POPC   GL125117   4.273   7.927   9.107
 1733POPC   GL225118   3.951   8.147   9.103
 1733POPC   C1A25119   4.266   8.064   8.693
 1733POPC   D2A25120   4.563   8.279   8.428
 1733POPC   C3A25121   4.542   8.142   8.015
 1733POPC   C4A25122   4.492   8.309   7.593
 1733POPC   C1B25123   3.914   8.442   8.736
 1733POPC   C2B25124   4.025   8.326   8.306
 1733POPC   C3B25125   4.065   8.309   7.876
 1733POPC   C4B25126   4.194   7.913   7.699
 1734POPC   NC325127  10.962  27.457   9.638
 1734POPC   PO425128  11.432  27.946   9.503
 1734POPC   GL125129  11.229  27.921   9.150
 1734POPC   GL225130  11.092  27.569   9.140
 1734POPC   C1A25131  11.379  27.803   8.760
 1734POPC   D2A25132  11.265  27.730   8.370
 1734POPC   C3A25133  11.625  27.625   8.091
 1734POPC   C4A25134  11.534  27.723   7.666
 1734POPC   C1B25135  11.121  27.344   8.745
 1734POPC   C2B25136  11.350  27.235   8.338
 1734POPC   C3B25137  11.257  27.324   7.901
 1734POPC   C4B25138  11.277  27.349   7.445
 1735POPC   NC325139  39.161  12.426   9.477
 1735POPC   PO425140  39.493  11.832   9.582
 1735POPC   GL125141  39.407  12.067   9.193
 1735POPC   GL225142  39.073  12.020   9.163
 1735POPC   C1A25143  39.274  12.314   8.780
 1735POPC   D2A25144  39.265  12.159   8.342
 1735POPC   C3A25145  39.162  12.437   7.983
 1735POPC   C4A25146  39.345  12.348   7.558
 1735POPC   C1B25147  38.910  11.955   8.737
 1735POPC   C2B25148  39.007  11.700   8.425
 1735POPC   C3B25149  38.926  11.686   8.036
 1735POPC   C4B25150  39.109  11.960   7.783
 1736POPC   NC325151  15.798  40.590   9.722
 1736POPC   PO425152  16.213  41.088   9.547
 1736POPC   GL125153  16.050  40.805   9.201
 1736POPC   GL225154  15.748  40.754   9.095
 1736POPC   C1A25155  16.185  40.850   8.789
 1736POPC   D2A25156  16.187  41.114   8.436
 1736POPC   C3A25157  16.281  40.867   8.070
 1736POPC   C4A25158  16.215  41.005   7.681
 1736POPC   C1B25159  15.643  40.960   8.708
 1736POPC   C2B25160  15.383  41.223   8.409
 1736POPC   C3B25161  15.406  41.075   7.986
 1736POPC   C4B25162  15.741  40.809   7.793
 1737POPC   NC325163  20.353  25.849   9.650
 1737POPC   PO425164  20.038  26.328   9.366
 1737POPC   GL125165  20.031  26.101   9.012
 1737POPC   GL225166  20.214  25.757   9.084
 1737POPC   C1A25167  19.957  26.312   8.597
 1737POPC   D2A25168  19.826  26.135   8.216
 1737POPC   C3A25169  20.071  26.119   7.858
 1737POPC   C4A25170  19.943  26.105   7.427
 1737POPC   C1B25171  20.192  25.825   8.619
 1737POPC   C2B25172  20.147  25.717   8.170
 1737POPC   C3B25173  19.869  25.669   7.765
 1737POPC   C4B25174  19.713  25.665   7.307
 1738POPC   NC325175  32.204  44.031   9.474
 1738POPC   PO425176  32.466  43.342   9.453
 1738POPC   GL125177  32.468  43.723   9.153
 1738POPC   GL225178  32.087  43.804   9.045
 1738POPC   C1A25179  32.431  44.057   8.807
 1738POPC   D2A25180  32.144  44.003   8.467
 1738POPC   C3A25181  32.309  43.947   8.076
 1738POPC   C4A25182  32.503  43.804   7.700
 1738POPC   C1B25183  31.893  44.181   8.875
 1738POPC   C2B25184  31.790  44.361   8.444
 1738POPC   C3B25185  31.827  44.163   8.034
 1738POPC   C4B25186  32.076  44.140   7.661
 1739POPC   NC325187   0.655   5.311   9.493
 1739POPC   PO425188   0.755   4.648   9.577
 1739POPC   GL125189   0.575   4.900   9.156
 1739POPC   GL225190   0.449   5.283   9.037
 1739POPC   C1A25191   0.474   4.887   8.721
 1739POPC   D2A25192   0.614   4.957   8.313
 1739POPC   C3A25193   0.351   4.811   7.982
 1739POPC   C4A25194   0.484   4.830   7.587
 1739POPC   C1B25195   0.138   5.287   8.700
 1739POPC   C2B25196   0.181   5.359   8.248
 1739POPC   C3B25197   0.261   5.290   7.792
 1739POPC   C4B25198   0.115   5.239   7.371
 1740POPC   NC325199   8.837  34.635   9.786
 1740POPC   PO425200   9.029  35.330   9.592
 1740POPC   GL125201   8.970  35.299   9.146
 1740POPC   GL225202   9.021  34.993   9.010
 1740POPC   C1A25203   8.808  35.410   8.739
 1740POPC   D2A25204   8.776  35.715   8.403
 1740POPC   C3A25205   8.870  35.483   8.062
 1740POPC   C4A25206   8.930  35.590   7.680
 1740POPC   C1B25207   8.761  34.873   8.636
 1740POPC   C2B25208   8.770  34.965   8.151
 1740POPC   C3B25209   8.934  34.939   7.700
 1740POPC   C4B25210   8.739  34.797   7.290
 1741POPC   NC325211   4.618   5.867   9.470
 1741POPC   PO425212   5.189   5.685   9.816
 1741POPC   GL125213   5.362   5.721   9.371
 1741POPC   GL225214   5.093   5.939   9.216
 1741POPC   C1A25215   5.346   5.619   8.908
 1741POPC   D2A25216   5.229   5.868   8.572
 1741POPC   C3A25217   5.198   5.759   8.126
 1741POPC   C4A25218   5.298   5.854   7.701
 1741POPC   C1B25219   4.809   5.990   8.841
 1741POPC   C2B25220   4.754   5.793   8.429
 1741POPC   C3B25221   4.655   5.819   8.036
 1741POPC   C4B25222   4.805   5.618   7.711
 1742POPC   NC325223   2.298  19.436   9.849
 1742POPC   PO425224   1.853  19.753   9.458
 1742POPC   GL125225   2.049  19.840   9.101
 1742POPC   GL225226   2.291  20.113   9.142
 1742POPC   C1A25227   2.033  19.602   8.698
 1742POPC   D2A25228   1.802  19.668   8.318
 1742POPC   C3A25229   1.774  19.470   7.898
 1742POPC   C4A25230   1.442  19.491   7.593
 1742POPC   C1B25231   2.289  20.037   8.702
 1742POPC   C2B25232   2.134  20.087   8.304
 1742POPC   C3B25233   2.003  19.927   7.911
 1742POPC   C4B25234   1.770  19.892   7.499
 1743POPC   NC325235   7.831  17.594   9.476
 1743POPC   PO425236   8.510  17.629   9.408
 1743POPC   GL125237   8.328  17.482   9.020
 1743POPC   GL225238   8.035  17.305   9.119
 1743POPC   C1A25239   8.184  17.692   8.644
 1743POPC   D2A25240   7.983  17.615   8.256
 1743POPC   C3A25241   8.258  17.532   7.904
 1743POPC   C4A25242   8.609  17.778   7.761
 1743POPC   C1B25243   7.874  17.186   8.733
 1743POPC   C2B25244   7.948  16.977   8.365
 1743POPC   C3B25245   7.877  17.199   7.985
 1743POPC   C4B25246   7.903  17.230   7.507
 1744POPC   NC325247   0.749  39.185   9.697
 1744POPC   PO425248   0.113  39.367   9.642
 1744POPC   GL125249   0.311  39.162   9.267
 1744POPC   GL225250   0.041  39.352   9.101
 1744POPC   C1A25251   0.651  39.222   8.915
 1744POPC   D2A25252   0.672  39.301   8.432
 1744POPC   C3A25253   0.507  38.989   8.096
 1744POPC   C4A25254   0.453  38.948   7.616
 1744POPC   C1B25255   0.203  39.264   8.709
 1744POPC   C2B25256   0.111  39.377   8.340
 1744POPC   C3B25257   0.325  39.466   8.030
 1744POPC   C4B25258   0.307  39.431   7.654
 1745POPC   NC325259  35.632  42.555   9.551
 1745POPC   PO425260  35.132  42.089   9.524
 1745POPC   GL125261  35.157  42.352   9.152
 1745POPC   GL225262  35.435  42.507   9.095
 1745POPC   C1A25263  35.230  42.275   8.686
 1745POPC   D2A25264  35.492  42.057   8.380
 1745POPC   C3A25265  35.446  42.262   7.989
 1745POPC   C4A25266  35.183  42.489   7.730
 1745POPC   C1B25267  35.500  42.722   8.730
 1745POPC   C2B25268  35.678  42.596   8.341
 1745POPC   C3B25269  35.643  42.725   7.900
 1745POPC   C4B25270  35.558  42.642   7.433
 1746POPC   NC325271  19.302  44.319   9.478
 1746POPC   PO425272  18.985  44.974   9.447
 1746POPC   GL125273  19.093  44.738   9.086
 1746POPC   GL225274  19.090  44.358   9.029
 1746POPC   C1A25275  18.957  44.641   8.638
 1746POPC   D2A25276  18.721  44.516   8.274
 1746POPC   C3A25277  18.938  44.615   7.867
 1746POPC   C4A25278  19.211  44.541   7.504
 1746POPC   C1B25279  19.450  44.535   8.800
 1746POPC   C2B25280  19.524  44.773   8.443
 1746POPC   C3B25281  19.416  44.662   8.028
 1746POPC   C4B25282  19.658  44.429   7.700
 1747POPC   NC325283  33.852   7.114   9.595
 1747POPC   PO425284  33.591   7.677   9.504
 1747POPC   GL125285  33.755   7.522   9.133
 1747POPC   GL225286  33.604   7.173   9.056
 1747POPC   C1A25287  33.864   7.636   8.697
 1747POPC   D2A25288  33.715   7.484   8.304
 1747POPC   C3A25289  33.862   7.498   7.874
 1747POPC   C4A25290  33.651   7.582   7.487
 1747POPC   C1B25291  33.296   7.170   8.674
 1747POPC   C2B25292  33.350   7.150   8.201
 1747POPC   C3B25293  33.460   7.186   7.783
 1747POPC   C4B25294  33.674   7.108   7.389
 1748POPC   NC325295  26.614   2.583   9.403
 1748POPC   PO425296  27.137   3.031   9.299
 1748POPC   GL125297  26.920   2.784   9.022
 1748POPC   GL225298  26.947   2.393   9.064
 1748POPC   C1A25299  26.885   2.889   8.581
 1748POPC   D2A25300  26.630   3.124   8.271
 1748POPC   C3A25301  26.866   3.082   7.913
 1748POPC   C4A25302  27.245   2.829   7.871
 1748POPC   C1B25303  26.601   2.481   8.759
 1748POPC   C2B25304  26.501   2.602   8.359
 1748POPC   C3B25305  26.494   2.720   7.958
 1748POPC   C4B25306  26.838   2.594   7.691
 1749POPC   NC325307  18.669  13.025   9.440
 1749POPC   PO425308  18.033  12.859   9.410
 1749POPC   GL125309  18.108  12.723   9.028
 1749POPC   GL225310  18.369  12.503   9.061
 1749POPC   C1A25311  18.174  12.667   8.588
 1749POPC   D2A25312  18.267  12.496   8.208
 1749POPC   C3A25313  18.122  12.652   7.848
 1749POPC   C4A25314  18.009  12.880   7.470
 1749POPC   C1B25315  18.619  12.744   8.827
 1749POPC   C2B25316  18.683  12.829   8.414
 1749POPC   C3B25317  18.638  13.001   8.018
 1749POPC   C4B25318  18.512  12.901   7.636
 1750POPC   NC325319  25.414   6.396   9.499
 1750POPC   PO425320  25.013   6.857   9.577
 1750POPC   GL125321  25.115   6.621   9.158
 1750POPC   GL225322  25.074   6.260   9.092
 1750POPC   C1A25323  25.489   6.515   8.868
 1750POPC   D2A25324  25.514   6.184   8.543
 1750POPC   C3A25325  25.304   6.335   8.161
 1750POPC   C4A25326  25.491   6.606   7.838
 1750POPC   C1B25327  25.041   6.408   8.653
 1750POPC   C2B25328  24.976   6.761   8.347
 1750POPC   C3B25329  24.991   6.744   7.917
 1750POPC   C4B25330  25.023   6.375   7.697
 1751POPC   NC325331   7.770  41.765   9.492
 1751POPC   PO425332   7.232  41.262   9.475
 1751POPC   GL125333   7.465  41.479   9.178
 1751POPC   GL225334   7.339  41.815   9.210
 1751POPC   C1A25335   7.512  41.401   8.755
 1751POPC   D2A25336   7.278  41.228   8.424
 1751POPC   C3A25337   7.536  41.362   8.120
 1751POPC   C4A25338   7.567  41.529   7.714
 1751POPC   C1B25339   7.454  41.934   8.785
 1751POPC   C2B25340   7.685  41.963   8.404
 1751POPC   C3B25341   7.508  41.945   8.006
 1751POPC   C4B25342   7.441  42.050   7.594
 1752POPC   NC325343  36.797  27.014   9.457
 1752POPC   PO425344  37.363  26.534   9.551
 1752POPC   GL125345  37.137  26.702   9.138
 1752POPC   GL225346  36.781  26.721   9.053
 1752POPC   C1A25347  37.081  26.996   8.728
 1752POPC   D2A25348  36.876  27.127   8.323
 1752POPC   C3A25349  36.695  26.763   8.130
 1752POPC   C4A25350  36.727  26.515   7.752
 1752POPC   C1B25351  36.600  26.813   8.655
 1752POPC   C2B25352  36.380  27.145   8.442
 1752POPC   C3B25353  36.261  27.085   8.066
 1752POPC   C4B25354  36.522  27.032   7.731
 1753POPC   NC325355  28.795   9.773   9.619
 1753POPC   PO425356  28.182  10.097   9.495
 1753POPC   GL125357  28.431   9.843   9.229
 1753POPC   GL225358  28.740  10.042   9.179
 1753POPC   C1A25359  28.296   9.705   8.833
 1753POPC   D2A25360  28.050   9.775   8.467
 1753POPC   C3A25361  28.179   9.810   8.043
 1753POPC   C4A25362  28.268  10.001   7.643
 1753POPC   C1B25363  28.613  10.076   8.751
 1753POPC   C2B25364  28.723  10.119   8.353
 1753POPC   C3B25365  28.700   9.882   8.016
 1753POPC   C4B25366  28.548   9.601   7.738
 1754POPC   NC325367   8.524  25.819   9.739
 1754POPC   PO425368   8.939  26.229   9.444
 1754POPC   GL125369   8.862  26.227   9.059
 1754POPC   GL225370   8.687  25.915   9.080
 1754POPC   C1A25371   8.992  26.517   8.749
 1754POPC   D2A25372   9.211  26.461   8.386
 1754POPC   C3A25373   9.003  26.509   8.019
 1754POPC   C4A25374   9.230  26.291   7.705
 1754POPC   C1B25375   8.769  25.969   8.631
 1754POPC   C2B25376   9.110  25.931   8.322
 1754POPC   C3B25377   8.929  25.800   7.946
 1754POPC   C4B25378   8.722  26.131   7.782
 1755POPC   NC325379  21.458   4.474   9.493
 1755POPC   PO425380  21.166   3.854   9.383
 1755POPC   GL125381  21.417   4.047   9.043
 1755POPC   GL225382  21.558   4.388   9.023
 1755POPC   C1A25383  21.285   4.226   8.632
 1755POPC   D2A25384  21.115   4.571   8.385
 1755POPC   C3A25385  21.259   4.479   7.972
 1755POPC   C4A25386  21.369   4.152   7.670
 1755POPC   C1B25387  21.558   4.653   8.688
 1755POPC   C2B25388  21.719   4.528   8.307
 1755POPC   C3B25389  21.770   4.283   7.965
 1755POPC   C4B25390  21.676   4.552   7.649
 1756POPC   NC325391  20.867  16.821   9.552
 1756POPC   PO425392  21.538  16.830   9.583
 1756POPC   GL125393  21.351  16.803   9.202
 1756POPC   GL225394  21.030  16.899   9.080
 1756POPC   C1A25395  21.551  16.927   8.843
 1756POPC   D2A25396  21.641  16.729   8.491
 1756POPC   C3A25397  21.582  16.870   8.110
 1756POPC   C4A25398  21.509  16.669   7.770
 1756POPC   C1B25399  21.146  16.599   8.768
 1756POPC   C2B25400  21.185  16.556   8.323
 1756POPC   C3B25401  21.177  16.321   7.962
 1756POPC   C4B25402  21.096  16.524   7.573
 1757POPC   NC325403   7.896   8.734   9.531
 1757POPC   PO425404   8.413   9.219   9.494
 1757POPC   GL125405   8.123   9.073   9.212
 1757POPC   GL225406   8.257   8.778   9.154
 1757POPC   C1A25407   8.010   9.039   8.797
 1757POPC   D2A25408   8.204   9.209   8.431
 1757POPC   C3A25409   8.038   9.106   8.057
 1757POPC   C4A25410   8.194   9.233   7.670
 1757POPC   C1B25411   8.178   8.530   8.799
 1757POPC   C2B25412   8.076   8.653   8.418
 1757POPC   C3B25413   8.242   8.626   8.043
 1757POPC   C4B25414   8.047   8.742   7.682
 1758POPC   NC325415  30.651  43.013   9.464
 1758POPC   PO425416  30.953  43.628   9.518
 1758POPC   GL125417  30.910  43.334   9.176
 1758POPC   GL225418  30.595  43.445   9.066
 1758POPC   C1A25419  30.840  43.012   8.808
 1758POPC   D2A25420  31.043  43.042   8.367
 1758POPC   C3A25421  30.879  42.840   7.942
 1758POPC   C4A25422  30.497  42.937   7.693
 1758POPC   C1B25423  30.881  43.502   8.712
 1758POPC   C2B25424  30.688  43.465   8.345
 1758POPC   C3B25425  30.673  43.304   7.995
 1758POPC   C4B25426  30.925  43.286   7.690
 1759POPC   NC325427  39.599   4.315   9.534
 1759POPC   PO425428  40.076   4.713   9.509
 1759POPC   GL125429  39.965   4.437   9.157
 1759POPC   GL225430  39.934   4.062   9.197
 1759POPC   C1A25431  39.970   4.316   8.723
 1759POPC   D2A25432  40.139   4.459   8.308
 1759POPC   C3A25433  39.836   4.387   8.000
 1759POPC   C4A25434  39.583   4.568   7.702
 1759POPC   C1B25435  40.173   3.832   8.865
 1759POPC   C2B25436  40.249   3.736   8.432
 1759POPC   C3B25437  40.240   3.997   8.086
 1759POPC   C4B25438  40.216   4.197   7.724
 1760POPC   NC325439  37.585  25.010   9.488
 1760POPC   PO425440  37.469  25.720   9.490
 1760POPC   GL125441  37.631  25.422   9.186
 1760POPC   GL225442  37.313  25.238   9.106
 1760POPC   C1A25443  37.814  25.307   8.789
 1760POPC   D2A25444  38.071  25.345   8.448
 1760POPC   C3A25445  37.871  25.451   8.065
 1760POPC   C4A25446  37.908  25.243   7.683
 1760POPC   C1B25447  37.341  25.459   8.708
 1760POPC   C2B25448  37.508  25.245   8.344
 1760POPC   C3B25449  37.474  25.100   7.901
 1760POPC   C4B25450  37.470  24.931   7.458
 1761POPC   NC325451   3.389  38.941   9.772
 1761POPC   PO425452   3.664  39.509   9.532
 1761POPC   GL125453   3.752  39.396   9.117
 1761POPC   GL225454   3.850  39.084   9.220
 1761POPC   C1A25455   3.693  39.534   8.678
 1761POPC   D2A25456   3.474  39.576   8.244
 1761POPC   C3A25457   3.406  39.266   7.892
 1761POPC   C4A25458   3.274  39.368   7.437
 1761POPC   C1B25459   3.720  39.016   8.768
 1761POPC   C2B25460   3.825  39.186   8.339
 1761POPC   C3B25461   3.896  39.133   7.881
 1761POPC   C4B25462   3.636  38.995   7.500
 1762POPC   NC325463  19.513  42.449   9.523
 1762POPC   PO425464  20.151  42.609   9.411
 1762POPC   GL125465  19.996  42.444   9.061
 1762POPC   GL225466  19.688  42.359   9.051
 1762POPC   C1A25467  20.028  42.140   8.740
 1762POPC   D2A25468  19.774  42.058   8.381
 1762POPC   C3A25469  19.936  42.137   7.992
 1762POPC   C4A25470  19.915  42.423   7.685
 1762POPC   C1B25471  19.508  42.398   8.652
 1762POPC   C2B25472  19.573  42.492   8.216
 1762POPC   C3B25473  19.458  42.295   7.859
 1762POPC   C4B25474  19.464  42.448   7.423
 1763POPC   NC325475  10.475   8.714   9.416
 1763POPC   PO425476  10.789   9.305   9.336
 1763POPC   GL125477  10.687   8.958   9.017
 1763POPC   GL225478  10.842   8.624   9.050
 1763POPC   C1A25479  10.371   8.804   8.709
 1763POPC   D2A25480  10.145   9.032   8.353
 1763POPC   C3A25481  10.437   9.063   7.976
 1763POPC   C4A25482  10.591   8.688   7.768
 1763POPC   C1B25483  10.853   8.616   8.641
 1763POPC   C2B25484  10.668   8.700   8.269
 1763POPC   C3B25485  10.970   8.933   7.992
 1763POPC   C4B25486  11.361   8.772   7.781
 1764POPC   NC325487  22.559  42.214   9.411
 1764POPC   PO425488  23.152  42.470   9.425
 1764POPC   GL125489  23.076  42.297   9.043
 1764POPC   GL225490  23.354  42.100   9.049
 1764POPC   C1A25491  22.906  42.452   8.642
 1764POPC   D2A25492  22.749  42.666   8.262
 1764POPC   C3A25493  22.642  42.352   7.936
 1764POPC   C4A25494  22.632  42.396   7.480
 1764POPC   C1B25495  23.288  42.102   8.594
 1764POPC   C2B25496  23.089  42.226   8.192
 1764POPC   C3B25497  23.126  42.291   7.735
 1764POPC   C4B25498  23.184  42.117   7.336
 1765POPC   NC325499  11.570  27.532   9.354
 1765POPC   PO425500  12.231  27.653   9.406
 1765POPC   GL125501  11.986  27.733   9.061
 1765POPC   GL225502  12.249  27.973   8.998
 1765POPC   C1A25503  11.838  27.581   8.634
 1765POPC   D2A25504  12.135  27.330   8.373
 1765POPC   C3A25505  12.153  27.419   7.922
 1765POPC   C4A25506  12.198  27.293   7.491
 1765POPC   C1B25507  12.271  27.846   8.611
 1765POPC   C2B25508  12.110  27.828   8.228
 1765POPC   C3B25509  12.277  27.998   7.876
 1765POPC   C4B25510  12.196  27.820   7.484
 1766POPC   NC325511  44.253  16.814   9.444
 1766POPC   PO425512  43.542  16.832   9.434
 1766POPC   GL125513  43.682  16.807   9.022
 1766POPC   GL225514  43.995  16.637   9.040
 1766POPC   C1A25515  43.507  16.943   8.617
 1766POPC   D2A25516  43.388  16.991   8.155
 1766POPC   C3A25517  43.639  16.853   7.808
 1766POPC   C4A25518  43.584  16.927   7.381
 1766POPC   C1B25519  44.059  16.854   8.661
 1766POPC   C2B25520  43.885  16.835   8.262
 1766POPC   C3B25521  44.162  16.689   7.952
 1766POPC   C4B25522  44.473  16.895   7.741
 1767POPC   NC325523  37.419  38.202   9.557
 1767POPC   PO425524  38.001  38.478   9.318
 1767POPC   GL125525  37.657  38.336   9.114
 1767POPC   GL225526  37.427  38.618   9.074
 1767POPC   C1A25527  37.729  38.371   8.681
 1767POPC   D2A25528  37.629  38.619   8.351
 1767POPC   C3A25529  37.815  38.481   7.985
 1767POPC   C4A25530  37.660  38.149   7.768
 1767POPC   C1B25531  37.216  38.712   8.686
 1767POPC   C2B25532  37.104  38.752   8.263
 1767POPC   C3B25533  37.284  38.475   7.983
 1767POPC   C4B25534  37.454  38.572   7.591
 1768POPC   NC325535  43.031  19.109   9.878
 1768POPC   PO425536  43.202  19.017   9.291
 1768POPC   GL125537  43.189  19.035   8.905
 1768POPC   GL225538  43.356  19.344   8.916
 1768POPC   C1A25539  42.913  19.247   8.636
 1768POPC   D2A25540  42.913  19.354   8.211
 1768POPC   C3A25541  43.136  19.015   7.993
 1768POPC   C4A25542  42.974  18.812   7.664
 1768POPC   C1B25543  43.619  19.132   8.637
 1768POPC   C2B25544  43.398  19.291   8.343
 1768POPC   C3B25545  43.377  19.462   7.948
 1768POPC   C4B25546  43.163  19.270   7.530
 1769POPC   NC325547  40.787  17.303   9.379
 1769POPC   PO425548  40.794  17.976   9.435
 1769POPC   GL125549  40.688  17.702   9.066
 1769POPC   GL225550  40.912  17.411   8.919
 1769POPC   C1A25551  40.532  17.758   8.661
 1769POPC   D2A25552  40.684  17.876   8.288
 1769POPC   C3A25553  40.559  17.724   7.908
 1769POPC   C4A25554  40.848  17.572   7.612
 1769POPC   C1B25555  40.596  17.263   8.725
 1769POPC   C2B25556  40.507  17.351   8.325
 1769POPC   C3B25557  40.722  17.237   7.986
 1769POPC   C4B25558  40.587  17.106   7.578
 1770POPC   NC325559  16.655  12.137   9.456
 1770POPC   PO425560  17.072  11.611   9.548
 1770POPC   GL125561  16.920  11.819   9.173
 1770POPC   GL225562  16.534  11.737   9.149
 1770POPC   C1A25563  16.853  12.125   8.804
 1770POPC   D2A25564  16.892  12.331   8.392
 1770POPC   C3A25565  16.935  12.212   7.953
 1770POPC   C4A25566  16.702  12.340   7.596
 1770POPC   C1B25567  16.728  11.646   8.744
 1770POPC   C2B25568  16.747  11.843   8.329
 1770POPC   C3B25569  16.565  11.866   7.872
 1770POPC   C4B25570  16.732  11.854   7.425
 1771POPC   NC325571  21.061  18.172   9.548
 1771POPC   PO425572  20.470  18.132   9.661
 1771POPC   GL125573  20.606  18.256   9.209
 1771POPC   GL225574  20.534  17.943   9.029
 1771POPC   C1A25575  20.650  18.407   8.736
 1771POPC   D2A25576  20.794  18.372   8.275
 1771POPC   C3A25577  20.516  18.216   7.896
 1771POPC   C4A25578  20.371  18.017   7.464
 1771POPC   C1B25579  20.798  17.942   8.645
 1771POPC   C2B25580  20.765  17.866   8.193
 1771POPC   C3B25581  20.951  17.967   7.768
 1771POPC   C4B25582  21.175  18.050   7.332
 1772POPC   NC325583  30.304  34.354   9.379
 1772POPC   PO425584  30.939  34.052   9.505
 1772POPC   GL125585  30.701  33.760   9.232
 1772POPC   GL225586  30.359  33.859   9.192
 1772POPC   C1A25587  30.578  33.517   8.856
 1772POPC   D2A25588  30.740  33.600   8.465
 1772POPC   C3A25589  30.600  33.470   8.078
 1772POPC   C4A25590  30.506  33.788   7.741
 1772POPC   C1B25591  30.426  34.009   8.767
 1772POPC   C2B25592  30.355  33.960   8.341
 1772POPC   C3B25593  30.397  34.219   8.002
 1772POPC   C4B25594  30.492  34.267   7.571
 1773POPC   NC325595   2.138  43.745   9.529
 1773POPC   PO425596   1.624  44.063   9.405
 1773POPC   GL125597   1.817  43.823   9.135
 1773POPC   GL225598   2.114  44.024   9.078
 1773POPC   C1A25599   1.757  43.786   8.737
 1773POPC   D2A25600   1.969  43.998   8.453
 1773POPC   C3A25601   1.776  43.904   8.084
 1773POPC   C4A25602   1.910  44.012   7.709
 1773POPC   C1B25603   2.249  43.642   8.842
 1773POPC   C2B25604   2.248  43.567   8.393
 1773POPC   C3B25605   2.150  43.588   7.934
 1773POPC   C4B25606   2.159  43.583   7.470
 1774POPC   NC325607   9.413  13.905   9.512
 1774POPC   PO425608   8.810  13.714   9.492
 1774POPC   GL125609   8.820  13.628   9.077
 1774POPC   GL225610   8.828  13.235   9.068
 1774POPC   C1A25611   8.776  13.885   8.672
 1774POPC   D2A25612   8.617  13.933   8.241
 1774POPC   C3A25613   8.844  13.868   7.866
 1774POPC   C4A25614   8.884  13.970   7.412
 1774POPC   C1B25615   8.955  13.393   8.671
 1774POPC   C2B25616   9.003  13.594   8.291
 1774POPC   C3B25617   9.278  13.583   7.956
 1774POPC   C4B25618   9.098  13.520   7.573
 1775POPC   NC325619   9.311   7.414   9.496
 1775POPC   PO425620   8.686   7.623   9.348
 1775POPC   GL125621   8.960   7.336   9.081
 1775POPC   GL225622   9.301   7.130   9.063
 1775POPC   C1A25623   9.006   7.450   8.649
 1775POPC   D2A25624   8.754   7.327   8.274
 1775POPC   C3A25625   8.854   7.637   7.967
 1775POPC   C4A25626   9.200   7.764   7.699
 1775POPC   C1B25627   9.445   7.170   8.608
 1775POPC   C2B25628   9.285   7.382   8.218
 1775POPC   C3B25629   9.153   7.234   7.847
 1775POPC   C4B25630   9.400   7.058   7.534
 1776POPC   NC325631  44.693  14.269   9.530
 1776POPC   PO425632  44.610  14.956   9.730
 1776POPC   GL125633  44.581  14.710   9.277
 1776POPC   GL225634  44.495  14.339   9.081
 1776POPC   C1A25635  44.713  14.725   8.830
 1776POPC   D2A25636  44.993  14.722   8.433
 1776POPC   C3A25637  44.839  14.670   7.974
 1776POPC   C4A25638  44.462  14.576   7.721
 1776POPC   C1B25639  44.824  14.262   8.720
 1776POPC   C2B25640  44.804  14.253   8.273
 1776POPC   C3B25641  44.826  14.190   7.817
 1776POPC   C4B25642  44.941  14.041   7.415
 1777POPC   NC325643  16.202   9.766   9.458
 1777POPC   PO425644  15.523   9.633   9.321
 1777POPC   GL125645  15.869   9.793   9.074
 1777POPC   GL225646  16.152   9.513   9.012
 1777POPC   C1A25647  16.016   9.855   8.665
 1777POPC   D2A25648  15.868   9.745   8.266
 1777POPC   C3A25649  16.091   9.913   7.903
 1777POPC   C4A25650  16.122   9.785   7.490
 1777POPC   C1B25651  15.870   9.293   8.728
 1777POPC   C2B25652  15.638   9.190   8.334
 1777POPC   C3B25653  15.550   9.455   7.960
 1777POPC   C4B25654  15.802   9.396   7.583
 1778POPC   NC325655   0.799  22.278   9.463
 1778POPC   PO425656   1.465  21.900   9.517
 1778POPC   GL125657   1.252  22.136   9.204
 1778POPC   GL225658   1.356  22.472   9.135
 1778POPC   C1A25659   0.984  22.086   8.840
 1778POPC   D2A25660   1.066  21.888   8.459
 1778POPC   C3A25661   0.936  21.897   8.051
 1778POPC   C4A25662   1.026  21.843   7.632
 1778POPC   C1B25663   1.221  22.519   8.706
 1778POPC   C2B25664   1.243  22.322   8.283
 1778POPC   C3B25665   1.213  22.304   7.839
 1778POPC   C4B25666   1.300  22.603   7.526
 1779POPC   NC325667   3.675  10.632   9.417
 1779POPC   PO425668   2.985  10.586   9.406
 1779POPC   GL125669   3.199  10.834   9.113
 1779POPC   GL225670   3.361  10.553   9.045
 1779POPC   C1A25671   3.550  10.950   8.812
 1779POPC   D2A25672   3.730  10.781   8.431
 1779POPC   C3A25673   3.560  10.722   8.010
 1779POPC   C4A25674   3.790  10.549   7.637
 1779POPC   C1B25675   3.589  10.369   8.734
 1779POPC   C2B25676   3.587  10.281   8.314
 1779POPC   C3B25677   3.670  10.145   7.924
 1779POPC   C4B25678   3.502  10.182   7.485
 1780POPC   NC325679  29.769  43.545   9.461
 1780POPC   PO425680  30.169  44.110   9.656
 1780POPC   GL125681  30.064  43.878   9.247
 1780POPC   GL225682  29.944  44.116   9.070
 1780POPC   C1A25683  30.027  43.573   8.846
 1780POPC   D2A25684  30.124  43.551   8.360
 1780POPC   C3A25685  29.792  43.567   8.047
 1780POPC   C4A25686  29.775  43.862   7.721
 1780POPC   C1B25687  29.986  44.048   8.635
 1780POPC   C2B25688  29.928  44.053   8.225
 1780POPC   C3B25689  30.174  44.147   7.922
 1780POPC   C4B25690  30.279  44.024   7.502
 1781POPC   NC325691   8.216   2.340   9.445
 1781POPC   PO425692   8.546   1.757   9.385
 1781POPC   GL125693   8.309   1.974   9.098
 1781POPC   GL225694   8.460   2.291   9.005
 1781POPC   C1A25695   8.248   1.901   8.695
 1781POPC   D2A25696   8.468   1.755   8.373
 1781POPC   C3A25697   8.249   1.836   8.000
 1781POPC   C4A25698   8.305   2.246   7.809
 1781POPC   C1B25699   8.034   2.344   8.796
 1781POPC   C2B25700   8.032   2.227   8.347
 1781POPC   C3B25701   7.813   2.215   7.973
 1781POPC   C4B25702   7.594   2.449   7.665
 1782POPC   NC325703  13.897  28.676   9.533
 1782POPC   PO425704  13.438  28.091   9.587
 1782POPC   GL125705  13.658  28.291   9.236
 1782POPC   GL225706  13.533  28.617   9.147
 1782POPC   C1A25707  13.744  28.161   8.803
 1782POPC   D2A25708  13.579  27.975   8.413
 1782POPC   C3A25709  13.604  28.134   8.004
 1782POPC   C4A25710  13.931  28.015   7.815
 1782POPC   C1B25711  13.634  28.659   8.711
 1782POPC   C2B25712  13.584  28.556   8.257
 1782POPC   C3B25713  13.493  28.580   7.764
 1782POPC   C4B25714  13.695  28.735   7.333
 1783POPC   NC325715  42.700   0.577   9.675
 1783POPC   PO425716  42.675   0.127   9.239
 1783POPC   GL125717  42.681   0.533   9.062
 1783POPC   GL225718  42.358   0.520   8.934
 1783POPC   C1A25719  42.743   0.632   8.607
 1783POPC   D2A25720  42.762   0.291   8.319
 1783POPC   C3A25721  42.571   0.382   7.952
 1783POPC   C4A25722  42.544   0.745   7.698
 1783POPC   C1B25723  42.278   0.481   8.509
 1783POPC   C2B25724  42.314   0.768   8.195
 1783POPC   C3B25725  42.075   0.588   7.914
 1783POPC   C4B25726  42.135   0.268   7.675
 1784POPC   NC325727  18.060  10.573   9.466
 1784POPC   PO425728  18.703  10.819   9.488
 1784POPC   GL125729  18.397  10.724   9.120
 1784POPC   GL225730  18.355  10.351   9.026
 1784POPC   C1A25731  18.163  10.714   8.725
 1784POPC   D2A25732  18.090  10.318   8.488
 1784POPC   C3A25733  17.951  10.349   8.049
 1784POPC   C4A25734  17.975  10.421   7.602
 1784POPC   C1B25735  18.602  10.459   8.675
 1784POPC   C2B25736  18.482  10.600   8.310
 1784POPC   C3B25737  18.340  10.695   7.888
 1784POPC   C4B25738  18.617  10.791   7.545
 1785POPC   NC325739  23.891   8.491   9.282
 1785POPC   PO425740  23.197   8.619   9.410
 1785POPC   GL125741  23.449   8.424   9.034
 1785POPC   GL225742  23.426   8.079   9.003
 1785POPC   C1A25743  23.765   8.269   8.689
 1785POPC   D2A25744  24.046   8.238   8.354
 1785POPC   C3A25745  23.884   8.463   8.017
 1785POPC   C4A25746  23.652   8.255   7.730
 1785POPC   C1B25747  23.283   8.100   8.631
 1785POPC   C2B25748  23.477   8.158   8.239
 1785POPC   C3B25749  23.233   7.989   7.892
 1785POPC   C4B25750  23.352   7.908   7.471
 1786POPC   NC325751   3.440  40.916   9.521
 1786POPC   PO425752   3.724  40.285   9.449
 1786POPC   GL125753   3.588  40.625   9.139
 1786POPC   GL225754   3.702  41.013   9.114
 1786POPC   C1A25755   3.278  40.679   8.827
 1786POPC   D2A25756   3.049  40.647   8.457
 1786POPC   C3A25757   3.261  40.613   8.046
 1786POPC   C4A25758   3.248  40.908   7.717
 1786POPC   C1B25759   3.809  40.878   8.748
 1786POPC   C2B25760   3.602  40.798   8.392
 1786POPC   C3B25761   3.736  40.824   7.982
 1786POPC   C4B25762   3.652  40.642   7.600
 1787POPC   NC325763  25.936   1.002   9.525
 1787POPC   PO425764  25.938   1.634   9.649
 1787POPC   GL125765  26.136   1.368   9.207
 1787POPC   GL225766  26.109   1.003   9.064
 1787POPC   C1A25767  26.119   1.362   8.714
 1787POPC   D2A25768  25.959   1.494   8.310
 1787POPC   C3A25769  26.125   1.399   7.936
 1787POPC   C4A25770  25.991   1.245   7.553
 1787POPC   C1B25771  26.183   0.853   8.655
 1787POPC   C2B25772  25.969   0.929   8.275
 1787POPC   C3B25773  25.949   0.813   7.846
 1787POPC   C4B25774  26.267   0.578   7.642
 1788POPC   NC325775   6.044  13.967   9.532
 1788POPC   PO425776   5.628  13.365   9.379
 1788POPC   GL125777   5.767  13.725   9.128
 1788POPC   GL225778   5.492  13.917   9.041
 1788POPC   C1A25779   5.973  13.707   8.719
 1788POPC   D2A25780   6.078  13.398   8.363
 1788POPC   C3A25781   5.833  13.282   7.977
 1788POPC   C4A25782   5.525  13.473   7.680
 1788POPC   C1B25783   5.625  14.089   8.705
 1788POPC   C2B25784   5.700  13.912   8.306
 1788POPC   C3B25785   5.928  13.803   7.948
 1788POPC   C4B25786   5.804  13.935   7.554
 1789POPC   NC325787  23.300  20.306   9.353
 1789POPC   PO425788  23.735  20.740   9.610
 1789POPC   GL125789  23.826  20.628   9.188
 1789POPC   GL225790  23.807  20.269   9.206
 1789POPC   C1A25791  23.619  20.636   8.784
 1789POPC   D2A25792  23.774  20.713   8.369
 1789POPC   C3A25793  23.572  20.491   8.036
 1789POPC   C4A25794  23.312  20.551   7.677
 1789POPC   C1B25795  23.909  20.189   8.765
 1789POPC   C2B25796  24.091  20.314   8.367
 1789POPC   C3B25797  24.079  20.489   7.961
 1789POPC   C4B25798  23.866  20.588   7.552
 1790POPC   NC325799  20.984  15.404   9.375
 1790POPC   PO425800  21.465  14.972   9.526
 1790POPC   GL125801  21.352  15.130   9.174
 1790POPC   GL225802  21.085  14.976   9.088
 1790POPC   C1A25803  21.446  15.343   8.824
 1790POPC   D2A25804  21.648  15.211   8.469
 1790POPC   C3A25805  21.555  15.369   8.076
 1790POPC   C4A25806  21.643  15.105   7.722
 1790POPC   C1B25807  20.939  15.253   8.748
 1790POPC   C2B25808  21.165  15.464   8.423
 1790POPC   C3B25809  21.048  15.349   8.036
 1790POPC   C4B25810  21.137  15.154   7.684
 1791POPC   NC325811  30.238  31.194   9.738
 1791POPC   PO425812  30.087  30.569   9.487
 1791POPC   GL125813  30.056  30.652   9.082
 1791POPC   GL225814  30.174  30.995   8.987
 1791POPC   C1A25815  30.087  30.565   8.666
 1791POPC   D2A25816  30.297  30.886   8.420
 1791POPC   C3A25817  30.215  30.753   7.995
 1791POPC   C4A25818  30.060  30.343   7.804
 1791POPC   C1B25819  29.830  30.987   8.695
 1791POPC   C2B25820  29.768  31.160   8.354
 1791POPC   C3B25821  29.739  30.918   8.016
 1791POPC   C4B25822  29.623  30.921   7.631
 1792POPC   NC325823  11.197   6.417   9.505
 1792POPC   PO425824  11.518   7.008   9.478
 1792POPC   GL125825  11.517   6.821   9.118
 1792POPC   GL225826  11.159   6.745   9.116
 1792POPC   C1A25827  11.406   6.960   8.694
 1792POPC   D2A25828  11.073   6.802   8.432
 1792POPC   C3A25829  11.222   6.679   8.053
 1792POPC   C4A25830  11.513   6.686   7.771
 1792POPC   C1B25831  11.165   6.432   8.812
 1792POPC   C2B25832  11.073   6.297   8.397
 1792POPC   C3B25833  10.886   6.310   8.003
 1792POPC   C4B25834  11.185   6.318   7.676
 1793POPC   NC325835   4.706   6.859   9.559
 1793POPC   PO425836   4.992   7.475   9.475
 1793POPC   GL125837   5.152   7.509   9.091
 1793POPC   GL225838   4.874   7.720   9.008
 1793POPC   C1A25839   5.355   7.292   8.730
 1793POPC   D2A25840   5.120   7.127   8.361
 1793POPC   C3A25841   5.148   7.466   8.144
 1793POPC   C4A25842   5.234   7.529   7.751
 1793POPC   C1B25843   4.859   7.436   8.679
 1793POPC   C2B25844   4.655   7.568   8.334
 1793POPC   C3B25845   4.705   7.552   7.899
 1793POPC   C4B25846   4.774   7.889   7.629
 1794POPC   NC325847  10.565  24.113   9.561
 1794POPC   PO425848  10.247  24.747   9.547
 1794POPC   GL125849  10.441  24.587   9.193
 1794POPC   GL225850  10.320  24.318   9.173
 1794POPC   C1A25851  10.563  24.555   8.771
 1794POPC   D2A25852  10.749  24.641   8.387
 1794POPC   C3A25853  10.529  24.619   7.976
 1794POPC   C4A25854  10.745  24.574   7.559
 1794POPC   C1B25855  10.213  24.148   8.783
 1794POPC   C2B25856  10.303  24.325   8.388
 1794POPC   C3B25857  10.262  24.148   8.003
 1794POPC   C4B25858  10.334  24.261   7.598
 1795POPC   NC325859   2.643  21.946   9.429
 1795POPC   PO425860   3.056  22.426   9.590
 1795POPC   GL125861   2.777  22.389   9.134
 1795POPC   GL225862   2.813  22.094   8.984
 1795POPC   C1A25863   2.646  22.443   8.665
 1795POPC   D2A25864   2.877  22.292   8.291
 1795POPC   C3A25865   2.703  22.406   7.853
 1795POPC   C4A25866   2.643  22.520   7.393
 1795POPC   C1B25867   2.562  21.853   8.737
 1795POPC   C2B25868   2.623  21.747   8.342
 1795POPC   C3B25869   2.817  21.889   7.989
 1795POPC   C4B25870   2.867  21.630   7.672
 1796POPC   NC325871  14.255   5.073   9.476
 1796POPC   PO425872  14.878   5.227   9.609
 1796POPC   GL125873  14.615   5.375   9.155
 1796POPC   GL225874  14.240   5.307   9.039
 1796POPC   C1A25875  14.522   5.466   8.668
 1796POPC   D2A25876  14.389   5.310   8.257
 1796POPC   C3A25877  14.646   5.182   7.943
 1796POPC   C4A25878  14.604   5.254   7.494
 1796POPC   C1B25879  14.304   5.012   8.667
 1796POPC   C2B25880  14.408   4.786   8.260
 1796POPC   C3B25881  14.365   4.771   7.811
 1796POPC   C4B25882  14.142   4.929   7.443
 1797POPC   NC325883  41.505   1.603   9.533
 1797POPC   PO425884  41.715   2.281   9.554
 1797POPC   GL125885  41.617   2.092   9.169
 1797POPC   GL225886  41.435   1.824   9.069
 1797POPC   C1A25887  41.869   1.890   8.823
 1797POPC   D2A25888  41.939   1.940   8.385
 1797POPC   C3A25889  41.562   2.061   8.152
 1797POPC   C4A25890  41.281   2.206   7.793
 1797POPC   C1B25891  41.260   2.056   8.744
 1797POPC   C2B25892  41.108   1.916   8.364
 1797POPC   C3B25893  41.237   1.717   7.968
 1797POPC   C4B25894  41.142   1.704   7.550
 1798POPC   NC325895   5.761  14.707   9.404
 1798POPC   PO425896   5.592  14.075   9.508
 1798POPC   GL125897   5.869  14.255   9.152
 1798POPC   GL225898   5.759  14.529   8.950
 1798POPC   C1A25899   6.127  14.233   8.771
 1798POPC   D2A25900   6.179  14.028   8.374
 1798POPC   C3A25901   6.214  14.251   8.062
 1798POPC   C4A25902   6.180  14.252   7.672
 1798POPC   C1B25903   5.704  14.553   8.532
 1798POPC   C2B25904   5.478  14.369   8.260
 1798POPC   C3B25905   5.723  14.294   7.921
 1798POPC   C4B25906   5.851  14.652   7.672
 1799POPC   NC325907  27.483  30.176   9.828
 1799POPC   PO425908  27.563  30.804   9.492
 1799POPC   GL125909  27.770  30.690   9.145
 1799POPC   GL225910  27.497  30.702   8.980
 1799POPC   C1A25911  27.901  30.880   8.766
 1799POPC   D2A25912  27.949  30.720   8.355
 1799POPC   C3A25913  27.698  30.857   8.021
 1799POPC   C4A25914  27.519  30.893   7.625
 1799POPC   C1B25915  27.337  30.489   8.675
 1799POPC   C2B25916  27.542  30.429   8.298
 1799POPC   C3B25917  27.417  30.392   7.889
 1799POPC   C4B25918  27.028  30.329   7.678
 1800POPC   NC325919  23.372  29.943   9.856
 1800POPC   PO425920  23.766  29.971   9.272
 1800POPC   GL125921  24.108  29.928   9.027
 1800POPC   GL225922  23.994  29.625   8.902
 1800POPC   C1A25923  24.155  30.019   8.630
 1800POPC   D2A25924  23.847  29.976   8.340
 1800POPC   C3A25925  23.933  30.073   7.916
 1800POPC   C4A25926  23.821  29.944   7.480
 1800POPC   C1B25927  23.554  29.746   8.717
 1800POPC   C2B25928  23.326  30.015   8.453
 1800POPC   C3B25929  23.438  30.009   8.035
 1800POPC   C4B25930  23.323  29.905   7.641
 1801POPC   NC325931  11.489  39.871   9.542
 1801POPC   PO425932  11.056  40.454   9.535
 1801POPC   GL125933  11.141  40.121   9.255
 1801POPC   GL225934  11.478  40.222   9.189
 1801POPC   C1A25935  11.131  39.832   8.907
 1801POPC   D2A25936  10.987  39.937   8.502
 1801POPC   C3A25937  11.179  39.998   8.118
 1801POPC   C4A25938  11.100  39.856   7.737
 1801POPC   C1B25939  11.696  40.270   8.809
 1801POPC   C2B25940  11.620  40.046   8.422
 1801POPC   C3B25941  11.647  40.163   7.997
 1801POPC   C4B25942  11.573  39.976   7.583
 1802POPC   NC325943  31.912   6.586   9.320
 1802POPC   PO425944  31.329   6.430   9.609
 1802POPC   GL125945  31.427   6.664   9.224
 1802POPC   GL225946  31.187   6.840   9.034
 1802POPC   C1A25947  31.463   6.343   8.869
 1802POPC   D2A25948  31.492   6.080   8.489
 1802POPC   C3A25949  31.505   6.278   8.085
 1802POPC   C4A25950  31.746   6.310   7.698
 1802POPC   C1B25951  31.596   6.825   8.750
 1802POPC   C2B25952  31.641   6.992   8.307
 1802POPC   C3B25953  31.613   6.767   7.892
 1802POPC   C4B25954  31.476   6.764   7.434
 1803POPC   NC325955   4.612  18.418   9.409
 1803POPC   PO425956   5.166  18.056   9.618
 1803POPC   GL125957   5.218  18.239   9.229
 1803POPC   GL225958   4.911  18.180   9.072
 1803POPC   C1A25959   5.356  18.358   8.815
 1803POPC   D2A25960   5.233  18.567   8.438
 1803POPC   C3A25961   5.246  18.329   8.090
 1803POPC   C4A25962   5.447  18.277   7.717
 1803POPC   C1B25963   4.922  18.588   8.864
 1803POPC   C2B25964   4.710  18.594   8.495
 1803POPC   C3B25965   4.841  18.666   8.089
 1803POPC   C4B25966   5.048  18.591   7.702
 1804POPC   NC325967  21.497  24.895   9.464
 1804POPC   PO425968  21.139  24.347   9.541
 1804POPC   GL125969  21.446  24.354   9.195
 1804POPC   GL225970  21.548  24.040   9.060
 1804POPC   C1A25971  21.353  24.442   8.745
 1804POPC   D2A25972  21.389  24.721   8.376
 1804POPC   C3A25973  21.241  24.491   7.998
 1804POPC   C4A25974  21.323  24.456   7.543
 1804POPC   C1B25975  21.767  24.102   8.686
 1804POPC   C2B25976  21.610  24.249   8.309
 1804POPC   C3B25977  21.613  24.168   7.880
 1804POPC   C4B25978  21.645  24.104   7.392
 1805POPC   NC325979  12.965  38.246   9.381
 1805POPC   PO425980  12.512  38.720   9.512
 1805POPC   GL125981  12.672  38.571   9.122
 1805POPC   GL225982  13.039  38.647   9.069
 1805POPC   C1A25983  12.696  38.347   8.725
 1805POPC   D2A25984  12.415  38.284   8.405
 1805POPC   C3A25985  12.621  38.248   8.041
 1805POPC   C4A25986  12.828  38.602   7.903
 1805POPC   C1B25987  13.211  38.323   8.764
 1805POPC   C2B25988  13.109  38.202   8.330
 1805POPC   C3B25989  13.313  38.397   7.959
 1805POPC   C4B25990  13.191  38.449   7.548
 1806POPC   NC325991  15.972  43.542   9.453
 1806POPC   PO425992  16.125  44.191   9.687
 1806POPC   GL125993  16.099  44.016   9.286
 1806POPC   GL225994  15.806  44.008   9.174
 1806POPC   C1A25995  16.191  43.996   8.835
 1806POPC   D2A25996  16.139  43.722   8.472
 1806POPC   C3A25997  16.251  43.906   8.077
 1806POPC   C4A25998  16.138  43.733   7.689
 1806POPC   C1B25999  15.700  43.825   8.766
 1806POPC   C2B26000  15.510  43.850   8.383
 1806POPC   C3B26001  15.731  43.716   8.065
 1806POPC   C4B26002  15.635  43.788   7.659
 1807POPC   NC326003  32.723  20.319   9.485
 1807POPC   PO426004  32.274  20.758   9.657
 1807POPC   GL126005  32.247  20.703   9.186
 1807POPC   GL226006  32.375  21.005   9.004
 1807POPC   C1A26007  32.387  20.566   8.737
 1807POPC   D2A26008  32.430  20.846   8.372
 1807POPC   C3A26009  32.448  20.742   7.903
 1807POPC   C4A26010  32.228  20.445   7.582
 1807POPC   C1B26011  32.006  20.928   8.759
 1807POPC   C2B26012  31.816  20.895   8.341
 1807POPC   C3B26013  31.904  20.693   7.905
 1807POPC   C4B26014  31.702  20.656   7.479
 1808POPC   NC326015   4.536  10.313   9.491
 1808POPC   PO426016   4.053  10.901   9.474
 1808POPC   GL126017   4.159  10.506   9.214
 1808POPC   GL226018   4.520  10.463   9.015
 1808POPC   C1A26019   4.079  10.330   8.830
 1808POPC   D2A26020   4.282  10.493   8.482
 1808POPC   C3A26021   4.056  10.538   8.098
 1808POPC   C4A26022   4.292  10.555   7.731
 1808POPC   C1B26023   4.638  10.776   8.717
 1808POPC   C2B26024   4.677  10.771   8.286
 1808POPC   C3B26025   4.764  10.726   7.823
 1808POPC   C4B26026   4.661  10.697   7.367
 1809POPC   NC326027  44.846  38.078   9.491
 1809POPC   PO426028  44.502  38.631   9.398
 1809POPC   GL126029  44.568  38.529   9.012
 1809POPC   GL226030  44.522  38.192   9.106
 1809POPC   C1A26031  44.545  38.698   8.583
 1809POPC   D2A26032  44.497  38.773   8.169
 1809POPC   C3A26033  44.797  38.587   7.922
 1809POPC   C4A26034   0.241  38.564   7.894
 1809POPC   C1B26035  44.823  38.186   8.764
 1809POPC   C2B26036  44.897  38.342   8.354
 1809POPC   C3B26037  44.970  38.121   7.960
 1809POPC   C4B26038  44.746  38.133   7.575
 1810POPC   NC326039  37.774   4.095   9.446
 1810POPC   PO426040  37.368   4.634   9.507
 1810POPC   GL126041  37.537   4.441   9.124
 1810POPC   GL226042  37.862   4.352   9.026
 1810POPC   C1A26043  37.478   4.225   8.717
 1810POPC   D2A26044  37.585   4.113   8.287
 1810POPC   C3A26045  37.694   4.422   7.992
 1810POPC   C4A26046  37.366   4.606   7.772
 1810POPC   C1B26047  37.986   3.970   8.803
 1810POPC   C2B26048  38.004   3.859   8.396
 1810POPC   C3B26049  37.959   3.959   7.962
 1810POPC   C4B26050  37.982   4.005   7.528
 1811POPC   NC326051   7.081  12.003   9.924
 1811POPC   PO426052   6.554  12.118   9.608
 1811POPC   GL126053   6.719  12.014   9.206
 1811POPC   GL226054   6.649  12.321   9.095
 1811POPC   C1A26055   6.634  12.007   8.710
 1811POPC   D2A26056   6.787  11.776   8.336
 1811POPC   C3A26057   6.776  11.986   7.942
 1811POPC   C4A26058   6.826  11.874   7.490
 1811POPC   C1B26059   6.587  12.555   8.733
 1811POPC   C2B26060   6.502  12.445   8.328
 1811POPC   C3B26061   6.461  12.450   7.909
 1811POPC   C4B26062   6.374  12.096   7.640
 1812POPC   NC326063  33.901  32.642   9.557
 1812POPC   PO426064  33.866  33.352   9.449
 1812POPC   GL126065  33.903  33.175   9.078
 1812POPC   GL226066  33.960  32.812   9.065
 1812POPC   C1A26067  33.945  33.167   8.668
 1812POPC   D2A26068  33.821  33.014   8.294
 1812POPC   C3A26069  33.899  33.308   7.985
 1812POPC   C4A26070  33.672  33.283   7.630
 1812POPC   C1B26071  34.211  32.713   8.680
 1812POPC   C2B26072  34.196  32.687   8.216
 1812POPC   C3B26073  33.902  32.761   7.804
 1812POPC   C4B26074  34.129  32.972   7.404
 1813POPC   NC326075  17.897  27.087   9.850
 1813POPC   PO426076  18.527  27.016   9.644
 1813POPC   GL126077  18.461  27.183   9.223
 1813POPC   GL226078  18.713  27.161   9.006
 1813POPC   C1A26079  18.238  27.097   8.839
 1813POPC   D2A26080  18.460  27.109   8.444
 1813POPC   C3A26081  18.279  26.974   8.068
 1813POPC   C4A26082  18.243  27.067   7.640
 1813POPC   C1B26083  18.636  26.771   8.783
 1813POPC   C2B26084  18.479  26.589   8.395
 1813POPC   C3B26085  18.641  26.618   7.976
 1813POPC   C4B26086  18.734  26.974   7.772
 1814POPC   NC326087   7.288   1.852   9.493
 1814POPC   PO426088   7.742   2.296   9.482
 1814POPC   GL126089   7.525   2.120   9.092
 1814POPC   GL226090   7.125   2.112   9.084
 1814POPC   C1A26091   7.697   1.894   8.716
 1814POPC   D2A26092   7.912   1.710   8.361
 1814POPC   C3A26093   7.733   1.691   7.964
 1814POPC   C4A26094   7.451   1.944   7.721
 1814POPC   C1B26095   7.204   2.048   8.633
 1814POPC   C2B26096   7.024   1.967   8.218
 1814POPC   C3B26097   6.982   2.200   7.839
 1814POPC   C4B26098   7.149   2.262   7.458
 1815POPC   NC326099  26.803   8.452   9.648
 1815POPC   PO426100  27.076   7.847   9.576
 1815POPC   GL126101  26.914   8.139   9.238
 1815POPC   GL226102  26.860   7.850   9.054
 1815POPC   C1A26103  26.865   8.461   8.868
 1815POPC   D2A26104  26.688   8.686   8.473
 1815POPC   C3A26105  26.649   8.487   8.068
 1815POPC   C4A26106  26.656   8.249   7.682
 1815POPC   C1B26107  26.674   8.032   8.679
 1815POPC   C2B26108  26.580   8.002   8.260
 1815POPC   C3B26109  26.713   7.802   7.880
 1815POPC   C4B26110  26.658   7.836   7.383
 1816POPC   NC326111  24.020   2.406   9.431
 1816POPC   PO426112  23.422   2.735   9.380
 1816POPC   GL126113  23.548   2.562   9.033
 1816POPC   GL226114  23.864   2.704   9.038
 1816POPC   C1A26115  23.491   2.828   8.684
 1816POPC   D2A26116  23.306   3.030   8.335
 1816POPC   C3A26117  23.538   2.880   8.018
 1816POPC   C4A26118  23.384   2.695   7.676
 1816POPC   C1B26119  24.105   2.634   8.684
 1816POPC   C2B26120  24.117   2.684   8.235
 1816POPC   C3B26121  24.195   2.522   7.841
 1816POPC   C4B26122  23.859   2.482   7.590
 1817POPC   NC326123  43.408  11.841   9.544
 1817POPC   PO426124  42.692  11.794   9.545
 1817POPC   GL126125  42.903  11.872   9.202
 1817POPC   GL226126  43.122  12.137   9.256
 1817POPC   C1A26127  42.799  12.047   8.828
 1817POPC   D2A26128  42.990  12.312   8.539
 1817POPC   C3A26129  43.083  12.248   8.115
 1817POPC   C4A26130  42.955  12.428   7.732
 1817POPC   C1B26131  43.295  12.008   8.869
 1817POPC   C2B26132  43.422  12.022   8.443
 1817POPC   C3B26133  43.507  11.933   8.030
 1817POPC   C4B26134  43.255  12.005   7.680
 1818POPC   NC326135   3.130  30.048   9.411
 1818POPC   PO426136   2.566  29.653   9.436
 1818POPC   GL126137   2.640  30.029   9.192
 1818POPC   GL226138   2.496  30.332   9.350
 1818POPC   C1A26139   2.848  30.077   8.794
 1818POPC   D2A26140   3.114  29.875   8.499
 1818POPC   C3A26141   3.083  30.116   8.135
 1818POPC   C4A26142   2.914  29.972   7.793
 1818POPC   C1B26143   2.570  30.487   8.930
 1818POPC   C2B26144   2.444  30.327   8.529
 1818POPC   C3B26145   2.529  30.360   8.077
 1818POPC   C4B26146   2.480  30.242   7.630
 1819POPC   NC326147   3.369   0.813   9.333
 1819POPC   PO426148   3.669   1.393   9.517
 1819POPC   GL126149   3.749   1.225   9.159
 1819POPC   GL226150   3.975   0.961   9.239
 1819POPC   C1A26151   3.614   1.348   8.747
 1819POPC   D2A26152   3.347   1.206   8.384
 1819POPC   C3A26153   3.406   1.407   7.968
 1819POPC   C4A26154   3.438   1.075   7.606
 1819POPC   C1B26155   3.843   0.860   8.821
 1819POPC   C2B26156   3.889   1.062   8.435
 1819POPC   C3B26157   3.761   1.075   8.048
 1819POPC   C4B26158   3.931   0.926   7.686
 1820POPC   NC326159   5.309  24.284   9.431
 1820POPC   PO426160   5.014  24.831   9.651
 1820POPC   GL126161   4.880  24.711   9.214
 1820POPC   GL226162   4.825  24.341   9.251
 1820POPC   C1A26163   4.987  24.580   8.771
 1820POPC   D2A26164   5.346  24.401   8.549
 1820POPC   C3A26165   5.251  24.308   8.107
 1820POPC   C4A26166   4.927  24.578   7.976
 1820POPC   C1B26167   5.022  24.096   8.893
 1820POPC   C2B26168   4.916  24.108   8.471
 1820POPC   C3B26169   4.727  24.103   8.106
 1820POPC   C4B26170   4.893  24.104   7.732
 1821POPC   NC326171  18.341  13.969   9.490
 1821POPC   PO426172  18.049  14.640   9.501
 1821POPC   GL126173  18.280  14.380   9.194
 1821POPC   GL226174  18.093  14.164   9.107
 1821POPC   C1A26175  18.489  14.299   8.797
 1821POPC   D2A26176  18.527  14.597   8.480
 1821POPC   C3A26177  18.491  14.469   8.073
 1821POPC   C4A26178  18.455  14.318   7.673
 1821POPC   C1B26179  17.997  14.144   8.706
 1821POPC   C2B26180  18.069  13.995   8.310
 1821POPC   C3B26181  18.024  14.217   7.947
 1821POPC   C4B26182  17.896  14.530   7.702
 1822POPC   NC326183   5.679  36.297   9.575
 1822POPC   PO426184   6.393  36.310   9.593
 1822POPC   GL126185   6.066  36.352   9.215
 1822POPC   GL226186   5.851  36.150   9.083
 1822POPC   C1A26187   6.172  36.305   8.745
 1822POPC   D2A26188   6.249  36.522   8.357
 1822POPC   C3A26189   6.242  36.240   7.977
 1822POPC   C4A26190   6.081  36.115   7.557
 1822POPC   C1B26191   5.714  36.538   8.878
 1822POPC   C2B26192   5.748  36.552   8.431
 1822POPC   C3B26193   5.609  36.524   7.996
 1822POPC   C4B26194   5.576  36.259   7.624
 1823POPC   NC326195  23.709  43.393   9.479
 1823POPC   PO426196  23.704  42.710   9.440
 1823POPC   GL126197  23.834  43.008   9.155
 1823POPC   GL226198  23.557  43.018   8.936
 1823POPC   C1A26199  23.960  43.298   8.834
 1823POPC   D2A26200  23.835  43.291   8.408
 1823POPC   C3A26201  24.088  43.447   8.125
 1823POPC   C4A26202  24.026  43.385   7.704
 1823POPC   C1B26203  23.856  42.822   8.651
 1823POPC   C2B26204  23.869  42.767   8.242
 1823POPC   C3B26205  23.743  43.023   7.932
 1823POPC   C4B26206  23.450  43.272   7.709
 1824POPC   NC326207  44.828  23.175   9.849
 1824POPC   PO426208  44.676  22.754   9.406
 1824POPC   GL126209  44.562  22.841   9.029
 1824POPC   GL226210  44.317  23.075   8.987
 1824POPC   C1A26211  44.689  22.887   8.649
 1824POPC   D2A26212  44.786  22.674   8.315
 1824POPC   C3A26213  44.955  22.832   7.946
 1824POPC   C4A26214  44.829  22.924   7.500
 1824POPC   C1B26215  44.218  23.103   8.597
 1824POPC   C2B26216  44.510  23.127   8.236
 1824POPC   C3B26217  44.469  22.944   7.866
 1824POPC   C4B26218  44.378  23.127   7.477
 1825POPC   NC326219  33.008  13.850   9.543
 1825POPC   PO426220  32.534  13.450   9.624
 1825POPC   GL126221  32.871  13.427   9.247
 1825POPC   GL226222  33.215  13.556   9.199
 1825POPC   C1A26223  32.916  13.557   8.789
 1825POPC   D2A26224  32.731  13.773   8.413
 1825POPC   C3A26225  32.844  13.835   7.978
 1825POPC   C4A26226  32.857  13.498   7.703
 1825POPC   C1B26227  33.459  13.657   8.873
 1825POPC   C2B26228  33.518  13.623   8.443
 1825POPC   C3B26229  33.250  13.554   8.089
 1825POPC   C4B26230  33.331  13.776   7.720
 1826POPC   NC326231  16.874   5.344   9.417
 1826POPC   PO426232  16.804   4.599   9.432
 1826POPC   GL126233  16.787   4.904   9.127
 1826POPC   GL226234  16.493   5.102   9.145
 1826POPC   C1A26235  16.654   5.002   8.706
 1826POPC   D2A26236  16.782   5.284   8.480
 1826POPC   C3A26237  16.729   5.118   8.082
 1826POPC   C4A26238  17.052   5.184   7.818
 1826POPC   C1B26239  16.438   5.471   8.811
 1826POPC   C2B26240  16.343   5.471   8.319
 1826POPC   C3B26241  16.370   5.390   7.806
 1826POPC   C4B26242  16.257   5.308   7.334
 1827POPC   NC326243  10.952   2.500   9.311
 1827POPC   PO426244  11.589   2.614   9.654
 1827POPC   GL126245  11.377   2.856   9.217
 1827POPC   GL226246  11.036   2.958   9.110
 1827POPC   C1A26247  11.382   3.065   8.737
 1827POPC   D2A26248  11.496   2.937   8.276
 1827POPC   C3A26249  11.312   2.906   7.865
 1827POPC   C4A26250  10.881   2.855   7.765
 1827POPC   C1B26251  10.930   2.788   8.684
 1827POPC   C2B26252  11.063   2.667   8.270
 1827POPC   C3B26253  11.034   2.378   7.943
 1827POPC   C4B26254  10.857   2.350   7.528
 1828POPC   NC326255  25.520   0.260   9.525
 1828POPC   PO426256  26.241   0.494   9.447
 1828POPC   GL126257  25.822   0.591   9.217
 1828POPC   GL226258  25.665   0.293   9.038
 1828POPC   C1A26259  25.700   0.703   8.773
 1828POPC   D2A26260  25.949   0.386   8.550
 1828POPC   C3A26261  26.033   0.377   8.123
 1828POPC   C4A26262  26.389   0.185   7.928
 1828POPC   C1B26263  25.610  44.996   8.715
 1828POPC   C2B26264  25.766  44.937   8.330
 1828POPC   C3B26265  25.643   0.055   7.979
 1828POPC   C4B26266  25.918   0.130   7.681
 1829POPC   NC326267  21.836  40.151   9.545
 1829POPC   PO426268  22.472  40.131   9.483
 1829POPC   GL126269  22.318  39.840   9.194
 1829POPC   GL226270  22.091  40.116   9.108
 1829POPC   C1A26271  22.191  39.768   8.763
 1829POPC   D2A26272  22.431  39.823   8.388
 1829POPC   C3A26273  22.207  39.683   8.023
 1829POPC   C4A26274  22.288  39.842   7.627
 1829POPC   C1B26275  21.869  40.186   8.743
 1829POPC   C2B26276  21.952  39.997   8.331
 1829POPC   C3B26277  22.075  40.186   7.940
 1829POPC   C4B26278  21.948  40.196   7.485
 1830POPC   NC326279  41.276   2.426   9.514
 1830POPC   PO426280  41.653   3.013   9.438
 1830POPC   GL126281  41.599   2.626   9.157
 1830POPC   GL226282  41.283   2.551   8.996
 1830POPC   C1A26283  41.676   2.371   8.760
 1830POPC   D2A26284  41.409   2.453   8.425
 1830POPC   C3A26285  41.603   2.692   8.104
 1830POPC   C4A26286  41.444   2.764   7.707
 1830POPC   C1B26287  41.496   2.880   8.698
 1830POPC   C2B26288  41.328   3.083   8.309
 1830POPC   C3B26289  41.309   3.227   7.867
 1830POPC   C4B26290  41.376   3.167   7.383
 1831POPC   NC326291  32.013   1.273   9.443
 1831POPC   PO426292  32.591   0.974   9.579
 1831POPC   GL126293  32.493   1.315   9.237
 1831POPC   GL226294  32.202   1.515   9.045
 1831POPC   C1A26295  32.537   1.268   8.780
 1831POPC   D2A26296  32.422   0.954   8.482
 1831POPC   C3A26297  32.525   0.974   8.075
 1831POPC   C4A26298  32.358   1.194   7.775
 1831POPC   C1B26299  32.054   1.086   8.810
 1831POPC   C2B26300  31.908   0.927   8.389
 1831POPC   C3B26301  31.895   1.029   7.938
 1831POPC   C4B26302  31.989   1.020   7.473
 1832POPC   NC326303   6.865  26.543   9.560
 1832POPC   PO426304   6.347  26.971   9.492
 1832POPC   GL126305   6.703  26.871   9.187
 1832POPC   GL226306   6.922  27.138   9.033
 1832POPC   C1A26307   6.713  26.762   8.738
 1832POPC   D2A26308   6.907  26.790   8.319
 1832POPC   C3A26309   6.838  26.464   8.010
 1832POPC   C4A26310   6.527  26.433   7.667
 1832POPC   C1B26311   6.800  27.239   8.588
 1832POPC   C2B26312   6.444  27.024   8.335
 1832POPC   C3B26313   6.554  26.896   7.917
 1832POPC   C4B26314   6.940  26.979   7.800
 1833POPC   NC326315  17.699  39.511   9.292
 1833POPC   PO426316  17.370  38.901   9.534
 1833POPC   GL126317  17.410  39.114   9.115
 1833POPC   GL226318  17.703  38.974   9.092
 1833POPC   C1A26319  17.308  39.410   8.740
 1833POPC   D2A26320  17.152  39.497   8.298
 1833POPC   C3A26321  17.376  39.297   7.940
 1833POPC   C4A26322  17.636  39.087   7.596
 1833POPC   C1B26323  17.593  38.861   8.678
 1833POPC   C2B26324  17.657  39.200   8.365
 1833POPC   C3B26325  17.913  39.245   7.978
 1833POPC   C4B26326  18.019  39.497   7.596
 1834POPC   NC326327  18.576   9.549   9.551
 1834POPC   PO426328  18.343  10.180   9.491
 1834POPC   GL126329  18.321   9.795   9.140
 1834POPC   GL226330  18.427   9.405   9.091
 1834POPC   C1A26331  18.114   9.655   8.735
 1834POPC   D2A26332  17.987   9.476   8.295
 1834POPC   C3A26333  18.170   9.656   7.910
 1834POPC   C4A26334  18.300  10.076   7.777
 1834POPC   C1B26335  18.569   9.420   8.714
 1834POPC   C2B26336  18.496   9.643   8.340
 1834POPC   C3B26337  18.681   9.761   7.938
 1834POPC   C4B26338  18.566   9.736   7.496
 1835POPC   NC326339   3.045  18.788   9.351
 1835POPC   PO426340   2.659  19.164   9.735
 1835POPC   GL126341   2.733  19.153   9.216
 1835POPC   GL226342   2.976  19.392   9.059
 1835POPC   C1A26343   2.689  18.921   8.778
 1835POPC   D2A26344   2.574  19.189   8.415
 1835POPC   C3A26345   2.557  19.212   7.962
 1835POPC   C4A26346   2.755  18.872   7.728
 1835POPC   C1B26347   3.152  19.091   8.806
 1835POPC   C2B26348   3.182  18.906   8.455
 1835POPC   C3B26349   3.034  19.172   8.136
 1835POPC   C4B26350   3.140  19.194   7.719
 1836POPC   NC326351  24.053   0.569   9.439
 1836POPC   PO426352  24.694   0.354   9.459
 1836POPC   GL126353  24.494   0.473   9.089
 1836POPC   GL226354  24.788   0.715   9.070
 1836POPC   C1A26355  24.310   0.393   8.657
 1836POPC   D2A26356  24.474   0.377   8.220
 1836POPC   C3A26357  24.226   0.361   7.823
 1836POPC   C4A26358  23.833   0.248   7.631
 1836POPC   C1B26359  24.761   0.663   8.650
 1836POPC   C2B26360  24.704   0.865   8.270
 1836POPC   C3B26361  24.804   0.624   7.906
 1836POPC   C4B26362  24.730   0.185   7.775
 1837POPC   NC326363   7.795  31.850   9.779
 1837POPC   PO426364   8.322  32.116   9.385
 1837POPC   GL126365   8.168  32.408   9.095
 1837POPC   GL226366   7.837  32.567   9.174
 1837POPC   C1A26367   8.150  32.300   8.667
 1837POPC   D2A26368   7.875  32.146   8.353
 1837POPC   C3A26369   8.016  32.023   7.978
 1837POPC   C4A26370   8.381  32.026   7.745
 1837POPC   C1B26371   7.786  32.673   8.744
 1837POPC   C2B26372   7.968  32.659   8.342
 1837POPC   C3B26373   7.878  32.548   7.933
 1837POPC   C4B26374   7.997  32.299   7.558
 1838POPC   NC326375  19.621   0.806   9.455
 1838POPC   PO426376  20.143   1.142   9.484
 1838POPC   GL126377  19.958   1.166   9.085
 1838POPC   GL226378  19.630   1.032   8.993
 1838POPC   C1A26379  20.025   1.075   8.651
 1838POPC   D2A26380  20.093   1.056   8.217
 1838POPC   C3A26381  19.817   1.109   7.889
 1838POPC   C4A26382  19.457   0.881   7.868
 1838POPC   C1B26383  19.634   1.405   8.743
 1838POPC   C2B26384  19.600   1.314   8.313
 1838POPC   C3B26385  19.349   1.416   7.957
 1838POPC   C4B26386  19.499   1.721   7.636
 1839POPC   NC326387  10.742   7.764   9.581
 1839POPC   PO426388  10.837   8.353   9.465
 1839POPC   GL126389  10.504   8.237   9.182
 1839POPC   GL226390  10.538   7.887   9.096
 1839POPC   C1A26391  10.263   8.252   8.773
 1839POPC   D2A26392  10.428   8.164   8.343
 1839POPC   C3A26393  10.215   8.214   7.934
 1839POPC   C4A26394  10.582   8.195   7.689
 1839POPC   C1B26395  10.753   8.128   8.742
 1839POPC   C2B26396  10.923   8.222   8.331
 1839POPC   C3B26397  11.012   8.431   7.961
 1839POPC   C4B26398  10.996   8.462   7.524
 1840POPC   NC326399  43.564  16.318   9.460
 1840POPC   PO426400  44.204  16.345   9.390
 1840POPC   GL126401  43.935  16.021   9.222
 1840POPC   GL226402  44.115  16.064   8.936
 1840POPC   C1A26403  43.681  15.851   8.852
 1840POPC   D2A26404  43.577  15.975   8.390
 1840POPC   C3A26405  43.754  15.904   7.964
 1840POPC   C4A26406  43.654  15.960   7.502
 1840POPC   C1B26407  43.868  16.320   8.673
 1840POPC   C2B26408  43.967  16.316   8.244
 1840POPC   C3B26409  44.265  16.113   7.973
 1840POPC   C4B26410  44.175  15.882   7.646
 1841POPC   NC326411   4.355  29.228   9.781
 1841POPC   PO426412   4.137  29.267   9.134
 1841POPC   GL126413   4.547  29.091   9.050
 1841POPC   GL226414   4.672  29.381   9.240
 1841POPC   C1A26415   4.570  28.899   8.625
 1841POPC   D2A26416   4.222  28.776   8.345
 1841POPC   C3A26417   3.990  29.109   8.145
 1841POPC   C4A26418   4.123  29.167   7.730
 1841POPC   C1B26419   4.670  29.489   8.793
 1841POPC   C2B26420   4.761  29.470   8.369
 1841POPC   C3B26421   4.583  29.240   8.021
 1841POPC   C4B26422   4.582  29.335   7.594
 1842POPC   NC326423   1.383  17.873   9.529
 1842POPC   PO426424   0.953  18.418   9.544
 1842POPC   GL126425   1.011  18.194   9.184
 1842POPC   GL226426   1.372  18.169   9.108
 1842POPC   C1A26427   1.040  18.379   8.784
 1842POPC   D2A26428   0.838  18.344   8.425
 1842POPC   C3A26429   1.093  18.490   8.119
 1842POPC   C4A26430   1.272  18.342   7.790
 1842POPC   C1B26431   1.476  18.012   8.686
 1842POPC   C2B26432   1.439  18.107   8.256
 1842POPC   C3B26433   1.696  18.076   7.892
 1842POPC   C4B26434   1.543  18.058   7.477
 1843POPC   NC326435  37.164  13.447   9.290
 1843POPC   PO426436  36.504  13.714   9.470
 1843POPC   GL126437  36.746  13.719   9.122
 1843POPC   GL226438  36.704  13.335   9.076
 1843POPC   C1A26439  36.866  13.631   8.698
 1843POPC   D2A26440  36.859  13.761   8.303
 1843POPC   C3A26441  37.131  13.713   7.994
 1843POPC   C4A26442  36.847  13.724   7.664
 1843POPC   C1B26443  36.966  13.128   8.747
 1843POPC   C2B26444  36.966  13.258   8.324
 1843POPC   C3B26445  37.230  13.198   8.003
 1843POPC   C4B26446  37.256  13.340   7.641
 1844POPC   NC326447  36.893  34.998   9.561
 1844POPC   PO426448  36.394  35.459   9.512
 1844POPC   GL126449  36.688  35.555   9.163
 1844POPC   GL226450  36.974  35.317   9.153
 1844POPC   C1A26451  36.830  35.585   8.720
 1844POPC   D2A26452  36.908  35.307   8.369
 1844POPC   C3A26453  36.808  35.446   7.953
 1844POPC   C4A26454  36.784  35.205   7.572
 1844POPC   C1B26455  37.272  35.281   8.812
 1844POPC   C2B26456  37.412  35.376   8.395
 1844POPC   C3B26457  37.278  35.217   7.984
 1844POPC   C4B26458  37.298  35.306   7.558
 1845POPC   NC326459   4.547  26.169   9.470
 1845POPC   PO426460   3.878  26.046   9.620
 1845POPC   GL126461   4.114  25.884   9.274
 1845POPC   GL226462   4.376  25.648   9.383
 1845POPC   C1A26463   4.159  25.986   8.829
 1845POPC   D2A26464   4.057  26.186   8.433
 1845POPC   C3A26465   4.202  26.010   8.029
 1845POPC   C4A26466   4.193  25.961   7.579
 1845POPC   C1B26467   4.568  25.682   8.977
 1845POPC   C2B26468   4.539  25.766   8.540
 1845POPC   C3B26469   4.634  25.754   8.111
 1845POPC   C4B26470   4.518  25.584   7.712
 1846POPC   NC326471  22.799   1.295   9.725
 1846POPC   PO426472  23.417   1.448   9.544
 1846POPC   GL126473  23.116   1.418   9.192
 1846POPC   GL226474  22.784   1.222   9.199
 1846POPC   C1A26475  23.063   1.270   8.759
 1846POPC   D2A26476  22.771   1.332   8.435
 1846POPC   C3A26477  22.985   1.484   8.088
 1846POPC   C4A26478  23.092   1.182   7.783
 1846POPC   C1B26479  22.672   0.921   8.837
 1846POPC   C2B26480  22.622   0.825   8.382
 1846POPC   C3B26481  22.649   1.031   7.970
 1846POPC   C4B26482  22.726   0.936   7.485
 1847POPC   NC326483   5.704   1.466   9.454
 1847POPC   PO426484   6.233   1.101   9.550
 1847POPC   GL126485   6.006   1.107   9.170
 1847POPC   GL226486   5.645   1.044   9.133
 1847POPC   C1A26487   6.072   1.256   8.769
 1847POPC   D2A26488   5.897   1.160   8.363
 1847POPC   C3A26489   6.005   1.389   7.998
 1847POPC   C4A26490   5.982   1.186   7.615
 1847POPC   C1B26491   5.539   1.307   8.793
 1847POPC   C2B26492   5.431   1.378   8.375
 1847POPC   C3B26493   5.537   1.212   7.987
 1847POPC   C4B26494   5.508   1.395   7.613
 1848POPC   NC326495  25.208  22.457   9.445
 1848POPC   PO426496  25.331  21.760   9.547
 1848POPC   GL126497  25.455  21.931   9.090
 1848POPC   GL226498  25.385  22.263   8.961
 1848POPC   C1A26499  25.388  21.847   8.618
 1848POPC   D2A26500  24.985  21.943   8.407
 1848POPC   C3A26501  25.058  22.052   7.972
 1848POPC   C4A26502  25.444  22.112   7.746
 1848POPC   C1B26503  25.294  22.344   8.544
 1848POPC   C2B26504  25.462  22.398   8.177
 1848POPC   C3B26505  25.175  22.551   7.890
 1848POPC   C4B26506  25.119  22.396   7.483
 1849POPC   NC326507  39.771  36.499   9.554
 1849POPC   PO426508  40.277  36.940   9.519
 1849POPC   GL126509  39.988  36.929   9.209
 1849POPC   GL226510  40.095  36.650   9.087
 1849POPC   C1A26511  39.815  36.969   8.775
 1849POPC   D2A26512  39.787  36.796   8.349
 1849POPC   C3A26513  40.059  36.926   7.995
 1849POPC   C4A26514  39.743  36.994   7.719
 1849POPC   C1B26515  40.241  36.649   8.659
 1849POPC   C2B26516  40.110  36.405   8.325
 1849POPC   C3B26517  39.934  36.447   7.938
 1849POPC   C4B26518  40.279  36.401   7.656
 1850POPC   NC326519   2.097  13.263   9.543
 1850POPC   PO426520   2.408  13.851   9.360
 1850POPC   GL126521   2.328  13.484   9.118
 1850POPC   GL226522   1.963  13.442   9.097
 1850POPC   C1A26523   2.266  13.529   8.687
 1850POPC   D2A26524   1.922  13.681   8.425
 1850POPC   C3A26525   2.021  13.630   8.012
 1850POPC   C4A26526   2.165  13.622   7.599
 1850POPC   C1B26527   1.853  13.249   8.749
 1850POPC   C2B26528   1.655  13.236   8.371
 1850POPC   C3B26529   1.533  13.361   7.976
 1850POPC   C4B26530   1.832  13.270   7.690
 1851POPC   NC326531  27.964   1.038   9.490
 1851POPC   PO426532  27.593   1.566   9.596
 1851POPC   GL126533  27.799   1.485   9.216
 1851POPC   GL226534  27.453   1.426   9.103
 1851POPC   C1A26535  27.859   1.334   8.788
 1851POPC   D2A26536  27.811   1.003   8.478
 1851POPC   C3A26537  27.848   1.100   8.051
 1851POPC   C4A26538  27.775   1.457   7.814
 1851POPC   C1B26539  27.369   1.276   8.684
 1851POPC   C2B26540  27.510   1.427   8.278
 1851POPC   C3B26541  27.291   1.344   7.888
 1851POPC   C4B26542  26.999   0.990   7.858
 1852POPC   NC326543  33.594  35.006   9.664
 1852POPC   PO426544  33.595  35.609   9.380
 1852POPC   GL126545  33.662  35.375   9.032
 1852POPC   GL226546  33.813  35.119   9.220
 1852POPC   C1A26547  33.517  35.383   8.614
 1852POPC   D2A26548  33.432  35.252   8.206
 1852POPC   C3A26549  33.625  35.541   7.917
 1852POPC   C4A26550  34.106  35.631   7.855
 1852POPC   C1B26551  34.065  35.094   8.865
 1852POPC   C2B26552  34.154  35.029   8.453
 1852POPC   C3B26553  33.979  35.211   8.112
 1852POPC   C4B26554  33.773  35.102   7.737
 1853POPC   NC326555  28.449   4.466   9.297
 1853POPC   PO426556  28.272   3.905   9.482
 1853POPC   GL126557  28.231   4.057   9.076
 1853POPC   GL226558  27.937   4.177   9.034
 1853POPC   C1A26559  28.447   4.246   8.688
 1853POPC   D2A26560  28.275   4.341   8.289
 1853POPC   C3A26561  28.476   4.323   7.893
 1853POPC   C4A26562  28.664   3.984   7.660
 1853POPC   C1B26563  27.972   4.416   8.711
 1853POPC   C2B26564  27.824   4.611   8.382
 1853POPC   C3B26565  28.030   4.693   8.028
 1853POPC   C4B26566  28.221   4.692   7.637
 1854POPC   NC326567   4.851  25.307   9.593
 1854POPC   PO426568   5.437  25.092   9.425
 1854POPC   GL126569   5.129  25.181   9.173
 1854POPC   GL226570   5.146  25.518   9.213
 1854POPC   C1A26571   4.935  25.082   8.808
 1854POPC   D2A26572   4.786  24.930   8.403
 1854POPC   C3A26573   5.124  25.041   8.104
 1854POPC   C4A26574   5.293  24.933   7.710
 1854POPC   C1B26575   5.044  25.587   8.781
 1854POPC   C2B26576   4.912  25.430   8.378
 1854POPC   C3B26577   5.067  25.542   7.941
 1854POPC   C4B26578   5.276  25.822   7.619
 1855POPC   NC326579   3.959   0.007   9.373
 1855POPC   PO426580   3.963   0.582   9.735
 1855POPC   GL126581   4.104   0.465   9.251
 1855POPC   GL226582   4.394   0.582   9.089
 1855POPC   C1A26583   4.045   0.409   8.772
 1855POPC   D2A26584   4.241   0.675   8.456
 1855POPC   C3A26585   4.187   0.538   8.029
 1855POPC   C4A26586   4.295   0.585   7.626
 1855POPC   C1B26587   4.562   0.358   8.744
 1855POPC   C2B26588   4.612   0.309   8.302
 1855POPC   C3B26589   4.781   0.472   7.918
 1855POPC   C4B26590   4.653   0.226   7.584
 1856POPC   NC326591  25.767   2.052   9.416
 1856POPC   PO426592  25.068   1.945   9.627
 1856POPC   GL126593  25.122   1.980   9.199
 1856POPC   GL226594  24.919   2.264   9.164
 1856POPC   C1A26595  25.224   1.834   8.779
 1856POPC   D2A26596  25.539   1.712   8.487
 1856POPC   C3A26597  25.346   1.649   8.093
 1856POPC   C4A26598  25.457   1.729   7.690
 1856POPC   C1B26599  25.192   2.349   8.826
 1856POPC   C2B26600  25.373   2.206   8.428
 1856POPC   C3B26601  25.479   2.147   7.998
 1856POPC   C4B26602  25.200   2.165   7.638
 1857POPC   NC326603  43.846  13.739   9.487
 1857POPC   PO426604  44.068  13.106   9.396
 1857POPC   GL126605  43.961  13.417   9.092
 1857POPC   GL226606  44.141  13.715   9.036
 1857POPC   C1A26607  43.785  13.477   8.676
 1857POPC   D2A26608  43.958  13.652   8.282
 1857POPC   C3A26609  43.714  13.715   7.907
 1857POPC   C4A26610  43.598  14.124   7.752
 1857POPC   C1B26611  44.306  13.459   8.667
 1857POPC   C2B26612  44.325  13.286   8.235
 1857POPC   C3B26613  44.160  13.459   7.814
 1857POPC   C4B26614  44.326  13.487   7.330
 1858POPC   NC326615  27.239   6.705   9.508
 1858POPC   PO426616  27.917   6.905   9.315
 1858POPC   GL126617  27.589   6.778   9.152
 1858POPC   GL226618  27.437   7.092   9.208
 1858POPC   C1A26619  27.520   6.588   8.792
 1858POPC   D2A26620  27.410   6.404   8.434
 1858POPC   C3A26621  27.531   6.665   8.089
 1858POPC   C4A26622  27.462   6.593   7.673
 1858POPC   C1B26623  27.269   7.072   8.820
 1858POPC   C2B26624  27.187   6.933   8.406
 1858POPC   C3B26625  27.060   6.865   7.998
 1858POPC   C4B26626  27.235   7.037   7.626
 1859POPC   NC326627  37.302   1.994   9.575
 1859POPC   PO426628  37.970   1.884   9.720
 1859POPC   GL126629  37.841   1.908   9.271
 1859POPC   GL226630  38.117   1.952   9.065
 1859POPC   C1A26631  37.697   1.790   8.816
 1859POPC   D2A26632  37.632   1.966   8.393
 1859POPC   C3A26633  37.438   1.874   7.987
 1859POPC   C4A26634  37.174   2.159   7.716
 1859POPC   C1B26635  37.980   2.236   8.742
 1859POPC   C2B26636  38.083   2.174   8.357
 1859POPC   C3B26637  37.863   2.201   7.971
 1859POPC   C4B26638  37.954   2.381   7.595
 1860POPC   NC326639   6.878  36.749   9.630
 1860POPC   PO426640   6.384  37.133   9.356
 1860POPC   GL126641   6.576  37.045   9.003
 1860POPC   GL226642   6.953  36.979   9.083
 1860POPC   C1A26643   6.614  36.757   8.674
 1860POPC   D2A26644   6.970  36.689   8.443
 1860POPC   C3A26645   6.910  36.700   7.972
 1860POPC   C4A26646   6.505  36.865   7.771
 1860POPC   C1B26647   6.918  37.190   8.671
 1860POPC   C2B26648   6.703  37.099   8.263
 1860POPC   C3B26649   6.877  37.215   7.892
 1860POPC   C4B26650   6.919  37.002   7.495
 1861POPC   NC326651  44.291  40.992   9.522
 1861POPC   PO426652  44.965  41.127   9.543
 1861POPC   GL126653  44.780  40.928   9.169
 1861POPC   GL226654  44.427  40.868   9.060
 1861POPC   C1A26655  44.941  40.953   8.730
 1861POPC   D2A26656  45.000  40.672   8.375
 1861POPC   C3A26657  44.977  40.824   7.964
 1861POPC   C4A26658  44.855  40.584   7.598
 1861POPC   C1B26659  44.472  41.111   8.689
 1861POPC   C2B26660  44.633  41.064   8.285
 1861POPC   C3B26661  44.494  40.715   8.005
 1861POPC   C4B26662  44.430  40.855   7.597
 1862POPC   NC326663  40.151  27.551   9.538
 1862POPC   PO426664  40.482  27.148   9.853
 1862POPC   GL126665  40.419  27.173   9.294
 1862POPC   GL226666  40.276  27.471   9.063
 1862POPC   C1A26667  40.319  27.036   8.829
 1862POPC   D2A26668  40.128  27.390   8.579
 1862POPC   C3A26669  39.983  27.385   8.168
 1862POPC   C4A26670  39.755  27.366   7.782
 1862POPC   C1B26671  40.415  27.794   8.729
 1862POPC   C2B26672  40.374  27.737   8.252
 1862POPC   C3B26673  40.149  27.732   7.826
 1862POPC   C4B26674  40.215  28.001   7.433
 1863POPC   NC326675  18.201   6.102   9.462
 1863POPC   PO426676  18.420   6.755   9.414
 1863POPC   GL126677  18.333   6.641   9.028
 1863POPC   GL226678  18.494   6.320   9.076
 1863POPC   C1A26679  18.277   6.860   8.612
 1863POPC   D2A26680  17.981   6.999   8.268
 1863POPC   C3A26681  18.199   6.941   7.890
 1863POPC   C4A26682  18.426   6.979   7.519
 1863POPC   C1B26683  18.175   6.246   8.768
 1863POPC   C2B26684  18.380   6.254   8.396
 1863POPC   C3B26685  18.554   6.226   8.016
 1863POPC   C4B26686  18.305   6.379   7.689
 1864POPC   NC326687   1.402  19.811   9.444
 1864POPC   PO426688   0.858  19.502   9.423
 1864POPC   GL126689   1.149  19.653   9.038
 1864POPC   GL226690   1.568  19.645   8.993
 1864POPC   C1A26691   1.242  19.924   8.688
 1864POPC   D2A26692   1.114  20.103   8.304
 1864POPC   C3A26693   1.005  19.829   7.986
 1864POPC   C4A26694   1.081  19.395   7.928
 1864POPC   C1B26695   1.734  20.023   8.737
 1864POPC   C2B26696   1.622  20.133   8.306
 1864POPC   C3B26697   1.494  19.911   7.928
 1864POPC   C4B26698   1.271  20.063   7.533
 1865POPC   NC326699  44.419  30.296   9.396
 1865POPC   PO426700  44.431  29.619   9.379
 1865POPC   GL126701  44.724  29.918   9.209
 1865POPC   GL226702  44.874  29.672   9.037
 1865POPC   C1A26703  44.753  30.181   8.806
 1865POPC   D2A26704  44.738  29.982   8.379
 1865POPC   C3A26705  44.469  30.082   8.033
 1865POPC   C4A26706  44.412  30.203   7.597
 1865POPC   C1B26707  44.462  29.768   8.776
 1865POPC   C2B26708  44.268  29.780   8.386
 1865POPC   C3B26709  44.338  29.587   8.018
 1865POPC   C4B26710  44.297  29.718   7.597
 1866POPC   NC326711  24.286  42.914   9.436
 1866POPC   PO426712  24.804  43.347   9.456
 1866POPC   GL126713  24.621  43.186   9.113
 1866POPC   GL226714  24.692  42.867   9.072
 1866POPC   C1A26715  24.448  43.362   8.751
 1866POPC   D2A26716  24.555  43.502   8.361
 1866POPC   C3A26717  24.788  43.232   8.146
 1866POPC   C4A26718  24.745  43.089   7.731
 1866POPC   C1B26719  24.342  42.859   8.793
 1866POPC   C2B26720  24.297  43.027   8.385
 1866POPC   C3B26721  24.286  43.007   7.950
 1866POPC   C4B26722  24.286  42.868   7.539
 1867POPC   NC326723  40.135  38.146   9.417
 1867POPC   PO426724  40.070  38.847   9.503
 1867POPC   GL126725  39.909  38.592   9.202
 1867POPC   GL226726  40.253  38.513   9.088
 1867POPC   C1A26727  39.695  38.566   8.810
 1867POPC   D2A26728  39.731  38.265   8.467
 1867POPC   C3A26729  39.858  38.424   8.078
 1867POPC   C4A26730  39.789  38.554   7.652
 1867POPC   C1B26731  40.184  38.589   8.676
 1867POPC   C2B26732  40.191  38.762   8.284
 1867POPC   C3B26733  40.142  38.973   7.900
 1867POPC   C4B26734  40.169  38.832   7.461
 1868POPC   NC326735   5.676  24.829   9.705
 1868POPC   PO426736   5.744  24.152   9.571
 1868POPC   GL126737   5.845  24.362   9.167
 1868POPC   GL226738   5.632  24.665   9.200
 1868POPC   C1A26739   5.814  24.556   8.730
 1868POPC   D2A26740   6.025  24.773   8.425
 1868POPC   C3A26741   6.081  24.557   8.085
 1868POPC   C4A26742   5.823  24.385   7.786
 1868POPC   C1B26743   5.415  24.861   8.842
 1868POPC   C2B26744   5.535  24.975   8.458
 1868POPC   C3B26745   5.592  24.739   8.100
 1868POPC   C4B26746   5.843  24.901   7.758
 1869POPC   NC326747  40.494  14.837   9.400
 1869POPC   PO426748  40.826  15.344   9.403
 1869POPC   GL126749  40.629  15.187   9.052
 1869POPC   GL226750  40.867  14.944   9.041
 1869POPC   C1A26751  40.616  15.059   8.592
 1869POPC   D2A26752  40.278  15.013   8.283
 1869POPC   C3A26753  40.510  15.002   7.945
 1869POPC   C4A26754  40.609  15.241   7.614
 1869POPC   C1B26755  41.023  15.305   8.780
 1869POPC   C2B26756  40.864  15.540   8.459
 1869POPC   C3B26757  40.863  15.329   8.082
 1869POPC   C4B26758  41.103  15.304   7.714
 1870POPC   NC326759  20.663  26.493   9.534
 1870POPC   PO426760  20.784  25.833   9.811
 1870POPC   GL126761  20.708  25.829   9.303
 1870POPC   GL226762  20.519  26.145   9.205
 1870POPC   C1A26763  20.681  25.855   8.823
 1870POPC   D2A26764  20.622  25.612   8.444
 1870POPC   C3A26765  20.642  25.822   8.042
 1870POPC   C4A26766  20.629  25.746   7.598
 1870POPC   C1B26767  20.424  26.310   8.779
 1870POPC   C2B26768  20.382  26.196   8.317
 1870POPC   C3B26769  20.524  26.332   7.909
 1870POPC   C4B26770  20.433  26.248   7.471
 1871POPC   NC326771  36.480  35.906   9.497
 1871POPC   PO426772  37.026  36.306   9.436
 1871POPC   GL126773  36.844  36.083   9.127
 1871POPC   GL226774  37.099  35.854   9.061
 1871POPC   C1A26775  36.826  36.115   8.685
 1871POPC   D2A26776  36.693  36.312   8.311
 1871POPC   C3A26777  36.733  36.011   8.012
 1871POPC   C4A26778  36.862  35.907   7.629
 1871POPC   C1B26779  37.319  35.789   8.726
 1871POPC   C2B26780  37.113  35.810   8.343
 1871POPC   C3B26781  37.222  35.747   7.948
 1871POPC   C4B26782  37.347  35.802   7.536
 1872POPC   NC326783   1.735  10.035   9.435
 1872POPC   PO426784   2.281   9.770   9.673
 1872POPC   GL126785   2.118   9.769   9.205
 1872POPC   GL226786   2.131  10.091   9.030
 1872POPC   C1A26787   2.163   9.635   8.752
 1872POPC   D2A26788   1.980   9.611   8.322
 1872POPC   C3A26789   2.227   9.628   7.960
 1872POPC   C4A26790   2.321  10.015   7.797
 1872POPC   C1B26791   1.795  10.007   8.707
 1872POPC   C2B26792   1.583   9.910   8.303
 1872POPC   C3B26793   1.739   9.889   7.877
 1872POPC   C4B26794   1.929   9.914   7.448
 1873POPC   NC326795  16.153  27.782   9.110
 1873POPC   PO426796  15.929  27.553   9.675
 1873POPC   GL126797  15.877  27.387   9.188
 1873POPC   GL226798  15.638  27.700   9.117
 1873POPC   C1A26799  15.755  27.413   8.717
 1873POPC   D2A26800  15.661  27.610   8.318
 1873POPC   C3A26801  15.768  27.429   7.927
 1873POPC   C4A26802  15.899  27.637   7.512
 1873POPC   C1B26803  15.631  27.955   8.709
 1873POPC   C2B26804  15.940  28.021   8.335
 1873POPC   C3B26805  16.178  27.789   7.962
 1873POPC   C4B26806  16.325  27.896   7.514
 1874POPC   NC326807   2.669  22.670   9.527
 1874POPC   PO426808   2.562  23.302   9.472
 1874POPC   GL126809   2.835  23.021   9.182
 1874POPC   GL226810   3.095  22.770   9.240
 1874POPC   C1A26811   2.651  22.960   8.771
 1874POPC   D2A26812   2.668  23.232   8.425
 1874POPC   C3A26813   2.892  23.084   8.061
 1874POPC   C4A26814   2.885  22.885   7.674
 1874POPC   C1B26815   3.077  22.700   8.823
 1874POPC   C2B26816   3.067  22.760   8.393
 1874POPC   C3B26817   3.165  22.574   7.966
 1874POPC   C4B26818   3.159  22.476   7.507
 1875POPC   NC326819  20.442  11.916   9.502
 1875POPC   PO426820  21.050  12.155   9.664
 1875POPC   GL126821  20.792  12.222   9.292
 1875POPC   GL226822  20.831  11.933   9.145
 1875POPC   C1A26823  20.567  12.285   8.862
 1875POPC   D2A26824  20.503  12.095   8.443
 1875POPC   C3A26825  20.434  12.329   8.063
 1875POPC   C4A26826  20.571  12.196   7.699
 1875POPC   C1B26827  20.664  11.737   8.804
 1875POPC   C2B26828  20.746  11.642   8.389
 1875POPC   C3B26829  20.572  11.769   7.991
 1875POPC   C4B26830  20.747  11.688   7.572
 1876POPC   NC326831  11.938   2.392   9.434
 1876POPC   PO426832  11.831   3.076   9.234
 1876POPC   GL126833  12.085   2.736   9.080
 1876POPC   GL226834  11.839   2.483   8.951
 1876POPC   C1A26835  12.344   2.768   8.700
 1876POPC   D2A26836  12.503   2.641   8.323
 1876POPC   C3A26837  12.421   2.860   7.953
 1876POPC   C4A26838  12.231   2.694   7.627
 1876POPC   C1B26839  11.833   2.821   8.648
 1876POPC   C2B26840  12.043   2.923   8.295
 1876POPC   C3B26841  11.863   2.924   7.905
 1876POPC   C4B26842  11.722   2.691   7.582
 1877POPC   NC326843  30.122  35.330   9.495
 1877POPC   PO426844  29.487  35.685   9.621
 1877POPC   GL126845  29.764  35.541   9.219
 1877POPC   GL226846  29.624  35.358   8.971
 1877POPC   C1A26847  30.092  35.299   8.871
 1877POPC   D2A26848  29.851  35.197   8.517
 1877POPC   C3A26849  29.771  35.118   8.088
 1877POPC   C4A26850  30.071  35.136   7.769
 1877POPC   C1B26851  29.934  35.753   8.751
 1877POPC   C2B26852  30.162  35.870   8.376
 1877POPC   C3B26853  30.039  35.552   8.076
 1877POPC   C4B26854  29.756  35.545   7.665
 1878POPC   NC326855  24.712  43.804   9.598
 1878POPC   PO426856  24.107  43.618   9.454
 1878POPC   GL126857  24.455  43.672   9.165
 1878POPC   GL226858  24.472  44.018   9.194
 1878POPC   C1A26859  24.661  43.827   8.765
 1878POPC   D2A26860  24.759  44.077   8.431
 1878POPC   C3A26861  24.647  43.899   8.041
 1878POPC   C4A26862  24.492  43.543   7.827
 1878POPC   C1B26863  24.159  43.983   8.865
 1878POPC   C2B26864  24.194  43.842   8.454
 1878POPC   C3B26865  24.144  43.963   8.041
 1878POPC   C4B26866  24.105  43.872   7.640
 1879POPC   NC326867  26.982  41.139   9.431
 1879POPC   PO426868  26.677  41.704   9.712
 1879POPC   GL126869  26.629  41.674   9.235
 1879POPC   GL226870  26.526  41.336   9.179
 1879POPC   C1A26871  26.604  41.726   8.749
 1879POPC   D2A26872  27.016  41.736   8.475
 1879POPC   C3A26873  27.023  41.638   8.033
 1879POPC   C4A26874  26.787  41.881   7.782
 1879POPC   C1B26875  26.474  41.213   8.736
 1879POPC   C2B26876  26.679  41.350   8.335
 1879POPC   C3B26877  26.536  41.408   7.911
 1879POPC   C4B26878  26.544  41.137   7.535
 1880POPC   NC326879  36.257   4.148   9.515
 1880POPC   PO426880  35.686   4.487   9.533
 1880POPC   GL126881  35.861   4.462   9.123
 1880POPC   GL226882  35.905   4.120   9.129
 1880POPC   C1A26883  36.003   4.369   8.679
 1880POPC   D2A26884  35.822   4.401   8.310
 1880POPC   C3A26885  36.055   4.428   7.953
 1880POPC   C4A26886  36.189   4.535   7.546
 1880POPC   C1B26887  36.071   3.902   8.775
 1880POPC   C2B26888  36.284   3.735   8.434
 1880POPC   C3B26889  36.193   3.937   8.065
 1880POPC   C4B26890  36.159   4.038   7.650
 1881POPC   NC326891  43.846  41.374   9.799
 1881POPC   PO426892  43.260  41.517   9.777
 1881POPC   GL126893  43.556  41.572   9.381
 1881POPC   GL226894  43.847  41.335   9.285
 1881POPC   C1A26895  43.673  41.669   8.927
 1881POPC   D2A26896  43.648  41.361   8.595
 1881POPC   C3A26897  43.594  41.453   8.185
 1881POPC   C4A26898  43.884  41.531   7.884
 1881POPC   C1B26899  44.063  41.317   8.886
 1881POPC   C2B26900  44.109  41.298   8.395
 1881POPC   C3B26901  44.219  41.147   7.976
 1881POPC   C4B26902  44.166  41.274   7.546
 1882POPC   NC326903   8.391  43.424   9.478
 1882POPC   PO426904   7.875  42.986   9.457
 1882POPC   GL126905   8.225  42.873   9.206
 1882POPC   GL226906   8.544  43.030   9.175
 1882POPC   C1A26907   8.279  42.791   8.779
 1882POPC   D2A26908   8.371  42.979   8.400
 1882POPC   C3A26909   8.085  42.934   8.069
 1882POPC   C4A26910   8.038  43.046   7.647
 1882POPC   C1B26911   8.574  43.278   8.792
 1882POPC   C2B26912   8.644  43.409   8.360
 1882POPC   C3B26913   8.428  43.381   7.939
 1882POPC   C4B26914   8.494  43.201   7.541
 1883POPC   NC326915  37.458  24.094   9.616
 1883POPC   PO426916  37.360  23.502   9.449
 1883POPC   GL126917  37.548  23.769   9.116
 1883POPC   GL226918  37.510  24.163   9.116
 1883POPC   C1A26919  37.656  23.584   8.736
 1883POPC   D2A26920  37.383  23.575   8.398
 1883POPC   C3A26921  37.283  23.590   7.967
 1883POPC   C4A26922  37.310  23.627   7.521
 1883POPC   C1B26923  37.508  24.072   8.686
 1883POPC   C2B26924  37.826  23.939   8.408
 1883POPC   C3B26925  37.763  23.736   8.049
 1883POPC   C4B26926  37.917  23.811   7.665
 1884POPC   NC326927  25.822  40.779   9.404
 1884POPC   PO426928  26.512  40.930   9.509
 1884POPC   GL126929  26.294  40.822   9.166
 1884POPC   GL226930  26.069  41.120   9.119
 1884POPC   C1A26931  26.243  40.727   8.738
 1884POPC   D2A26932  26.117  40.995   8.392
 1884POPC   C3A26933  26.295  40.939   7.976
 1884POPC   C4A26934  26.245  40.575   7.752
 1884POPC   C1B26935  25.774  40.960   8.800
 1884POPC   C2B26936  25.723  40.643   8.504
 1884POPC   C3B26937  25.847  40.622   8.086
 1884POPC   C4B26938  25.827  40.896   7.736
 1885POPC   NC326939   1.595   0.287   9.791
 1885POPC   PO426940   0.932   0.325   9.515
 1885POPC   GL126941   1.151   0.461   9.166
 1885POPC   GL226942   1.473   0.589   9.273
 1885POPC   C1A26943   1.099   0.426   8.724
 1885POPC   D2A26944   1.081   0.223   8.325
 1885POPC   C3A26945   0.816   0.453   8.056
 1885POPC   C4A26946   0.992   0.584   7.696
 1885POPC   C1B26947   1.578   0.536   8.824
 1885POPC   C2B26948   1.461   0.599   8.355
 1885POPC   C3B26949   1.432   0.416   7.925
 1885POPC   C4B26950   1.445   0.490   7.457
 1886POPC   NC326951  43.780  24.547   9.473
 1886POPC   PO426952  44.232  24.039   9.371
 1886POPC   GL126953  44.032  24.319   9.072
 1886POPC   GL226954  43.993  24.696   9.037
 1886POPC   C1A26955  44.170  24.413   8.647
 1886POPC   D2A26956  44.172  24.256   8.230
 1886POPC   C3A26957  44.080  24.558   7.899
 1886POPC   C4A26958  43.869  24.439   7.511
 1886POPC   C1B26959  43.678  24.572   8.743
 1886POPC   C2B26960  43.787  24.611   8.322
 1886POPC   C3B26961  43.591  24.685   7.945
 1886POPC   C4B26962  43.655  24.904   7.575
 1887POPC   NC326963  14.780  10.459  10.175
 1887POPC   PO426964  15.283  10.440   9.691
 1887POPC   GL126965  15.340  10.477   9.262
 1887POPC   GL226966  15.614  10.282   9.168
 1887POPC   C1A26967  15.157  10.353   8.860
 1887POPC   D2A26968  15.198  10.476   8.431
 1887POPC   C3A26969  15.118  10.193   8.061
 1887POPC   C4A26970  14.882  10.265   7.683
 1887POPC   C1B26971  15.581  10.661   8.853
 1887POPC   C2B26972  15.697  10.705   8.387
 1887POPC   C3B26973  15.454  10.613   8.019
 1887POPC   C4B26974  15.391  10.411   7.647
 1888POPC   NC326975  29.432  39.027   9.488
 1888POPC   PO426976  29.029  39.628   9.391
 1888POPC   GL126977  29.275  39.340   9.116
 1888POPC   GL226978  29.090  39.047   9.062
 1888POPC   C1A26979  29.407  39.233   8.686
 1888POPC   D2A26980  29.337  39.494   8.310
 1888POPC   C3A26981  29.238  39.327   7.924
 1888POPC   C4A26982  29.281  38.985   7.641
 1888POPC   C1B26983  29.042  38.848   8.659
 1888POPC   C2B26984  29.135  38.916   8.220
 1888POPC   C3B26985  28.890  38.765   7.869
 1888POPC   C4B26986  28.780  38.696   7.446
 1889POPC   NC326987   6.827   5.785   9.734
 1889POPC   PO426988   7.539   5.780   9.469
 1889POPC   GL126989   7.372   5.800   9.089
 1889POPC   GL226990   7.118   5.947   9.211
 1889POPC   C1A26991   7.477   5.871   8.679
 1889POPC   D2A26992   7.283   5.820   8.311
 1889POPC   C3A26993   7.546   5.763   7.999
 1889POPC   C4A26994   7.431   5.827   7.591
 1889POPC   C1B26995   6.984   6.041   8.769
 1889POPC   C2B26996   7.049   6.252   8.350
 1889POPC   C3B26997   7.152   6.147   7.888
 1889POPC   C4B26998   7.202   6.215   7.367
 1890POPC   NC326999  35.662  32.599   9.582
 1890POPC   PO427000  35.245  33.107   9.624
 1890POPC   GL127001  35.216  33.012   9.192
 1890POPC   GL227002  35.569  32.974   9.235
 1890POPC   C1A27003  35.173  33.184   8.746
 1890POPC   D2A27004  35.163  33.369   8.300
 1890POPC   C3A27005  35.203  33.015   8.017
 1890POPC   C4A27006  35.148  32.637   7.753
 1890POPC   C1B27007  35.620  32.920   8.817
 1890POPC   C2B27008  35.579  33.099   8.412
 1890POPC   C3B27009  35.658  33.220   7.990
 1890POPC   C4B27010  35.542  33.045   7.578
 1891POPC   NC327011   9.446  16.623   9.562
 1891POPC   PO427012   9.954  17.177   9.515
 1891POPC   GL127013   9.759  16.842   9.202
 1891POPC   GL227014   9.965  16.556   9.115
 1891POPC   C1A27015   9.590  16.699   8.776
 1891POPC   D2A27016   9.388  16.875   8.384
 1891POPC   C3A27017   9.609  16.891   7.982
 1891POPC   C4A27018   9.557  16.568   7.672
 1891POPC   C1B27019  10.233  16.542   8.744
 1891POPC   C2B27020  10.271  16.468   8.299
 1891POPC   C3B27021   9.940  16.423   7.986
 1891POPC   C4B27022  10.121  16.345   7.608
 1892POPC   NC327023   6.345   4.932   9.531
 1892POPC   PO427024   6.773   5.414   9.473
 1892POPC   GL127025   6.864   5.046   9.215
 1892POPC   GL227026   6.594   5.143   9.064
 1892POPC   C1A27027   6.870   4.925   8.732
 1892POPC   D2A27028   6.634   5.076   8.353
 1892POPC   C3A27029   6.931   5.012   7.996
 1892POPC   C4A27030   6.871   4.981   7.534
 1892POPC   C1B27031   6.428   5.384   8.712
 1892POPC   C2B27032   6.200   5.618   8.372
 1892POPC   C3B27033   6.169   5.515   7.944
 1892POPC   C4B27034   6.563   5.320   7.787
 1893POPC   NC327035  32.254  13.467  10.000
 1893POPC   PO427036  32.242  12.867   9.546
 1893POPC   GL127037  32.299  12.775   9.135
 1893POPC   GL227038  32.035  12.541   9.104
 1893POPC   C1A27039  32.421  12.923   8.719
 1893POPC   D2A27040  32.340  12.798   8.313
 1893POPC   C3A27041  32.341  13.086   8.002
 1893POPC   C4A27042  32.187  12.976   7.632
 1893POPC   C1B27043  32.234  12.438   8.705
 1893POPC   C2B27044  32.241  12.285   8.263
 1893POPC   C3B27045  32.097  12.528   7.892
 1893POPC   C4B27046  31.926  12.560   7.448
 1894POPC   NC327047   6.220  40.756   9.510
 1894POPC   PO427048   5.602  41.042   9.507
 1894POPC   GL127049   5.832  40.862   9.170
 1894POPC   GL227050   6.079  41.104   9.109
 1894POPC   C1A27051   5.701  40.600   8.812
 1894POPC   D2A27052   5.729  40.206   8.591
 1894POPC   C3A27053   5.819  40.323   8.170
 1894POPC   C4A27054   5.719  40.611   7.827
 1894POPC   C1B27055   6.040  40.949   8.691
 1894POPC   C2B27056   5.935  40.824   8.264
 1894POPC   C3B27057   5.959  41.060   7.847
 1894POPC   C4B27058   5.863  41.175   7.377
 1895POPC   NC327059  20.272  11.151   9.611
 1895POPC   PO427060  20.846  11.512   9.436
 1895POPC   GL127061  20.565  11.307   9.162
 1895POPC   GL227062  20.299  11.560   9.168
 1895POPC   C1A27063  20.647  11.063   8.761
 1895POPC   D2A27064  20.530  11.195   8.340
 1895POPC   C3A27065  20.778  11.300   7.972
 1895POPC   C4A27066  20.761  11.159   7.541
 1895POPC   C1B27067  20.269  11.407   8.754
 1895POPC   C2B27068  20.242  11.588   8.374
 1895POPC   C3B27069  20.156  11.349   8.009
 1895POPC   C4B27070  20.288  11.473   7.630
 1896POPC   NC327071  40.444  14.099   9.403
 1896POPC   PO427072  40.905  13.628   9.463
 1896POPC   GL127073  40.815  13.631   9.044
 1896POPC   GL227074  40.747  13.976   9.020
 1896POPC   C1A27075  40.931  13.422   8.639
 1896POPC   D2A27076  40.825  13.259   8.256
 1896POPC   C3A27077  40.532  13.483   7.954
 1896POPC   C4A27078  40.686  13.356   7.564
 1896POPC   C1B27079  40.895  13.922   8.646
 1896POPC   C2B27080  40.747  13.799   8.296
 1896POPC   C3B27081  40.684  14.025   7.947
 1896POPC   C4B27082  40.656  13.849   7.552
 1897POPC   NC327083  41.347   4.344   9.780
 1897POPC   PO427084  41.791   4.759   9.545
 1897POPC   GL127085  41.621   4.436   9.272
 1897POPC   GL227086  41.294   4.428   9.231
 1897POPC   C1A27087  41.545   4.195   8.847
 1897POPC   D2A27088  41.365   4.189   8.409
 1897POPC   C3A27089  41.627   4.326   8.029
 1897POPC   C4A27090  41.429   4.212   7.611
 1897POPC   C1B27091  41.322   4.653   8.841
 1897POPC   C2B27092  41.194   4.675   8.397
 1897POPC   C3B27093  41.151   4.527   8.012
 1897POPC   C4B27094  41.416   4.699   7.718
 1898POPC   NC327095  38.542  40.572   9.701
 1898POPC   PO427096  38.147  40.036   9.433
 1898POPC   GL127097  38.281  40.501   9.226
 1898POPC   GL227098  38.409  40.897   9.184
 1898POPC   C1A27099  38.319  40.633   8.778
 1898POPC   D2A27100  38.558  40.767   8.419
 1898POPC   C3A27101  38.336  40.582   8.075
 1898POPC   C4A27102  38.068  40.639   7.724
 1898POPC   C1B27103  38.492  41.182   8.781
 1898POPC   C2B27104  38.516  41.293   8.302
 1898POPC   C3B27105  38.428  41.057   7.881
 1898POPC   C4B27106  38.623  41.065   7.450
 1899POPC   NC327107   1.885  20.234   9.447
 1899POPC   PO427108   2.383  20.600   9.409
 1899POPC   GL127109   2.002  20.771   9.229
 1899POPC   GL227110   1.714  20.581   9.113
 1899POPC   C1A27111   1.931  20.938   8.807
 1899POPC   D2A27112   2.230  20.930   8.486
 1899POPC   C3A27113   2.039  20.928   8.091
 1899POPC   C4A27114   2.218  20.770   7.714
 1899POPC   C1B27115   2.013  20.441   8.827
 1899POPC   C2B27116   1.915  20.532   8.436
 1899POPC   C3B27117   1.893  20.446   7.999
 1899POPC   C4B27118   1.974  20.335   7.603
 1900POPC   NC327119   3.225   0.134   9.455
 1900POPC   PO427120   2.604  44.931   9.522
 1900POPC   GL127121   2.712  44.692   9.160
 1900POPC   GL227122   3.046  44.686   9.231
 1900POPC   C1A27123   2.541  44.560   8.757
 1900POPC   D2A27124   2.755  44.633   8.361
 1900POPC   C3A27125   2.594  44.826   7.994
 1900POPC   C4A27126   2.394  44.563   7.699
 1900POPC   C1B27127   3.069  44.612   8.792
 1900POPC   C2B27128   3.181  44.880   8.453
 1900POPC   C3B27129   3.114  44.827   8.026
 1900POPC   C4B27130   2.933  44.570   7.704
 1901POPC   NC327131  14.267   2.282   9.458
 1901POPC   PO427132  14.425   1.669   9.183
 1901POPC   GL127133  14.367   2.051   9.028
 1901POPC   GL227134  14.698   2.177   9.170
 1901POPC   C1A27135  14.194   2.032   8.637
 1901POPC   D2A27136  14.411   1.792   8.310
 1901POPC   C3A27137  14.378   1.883   7.892
 1901POPC   C4A27138  14.267   1.839   7.459
 1901POPC   C1B27139  14.754   2.117   8.716
 1901POPC   C2B27140  14.539   2.275   8.357
 1901POPC   C3B27141  14.660   2.294   7.956
 1901POPC   C4B27142  14.407   2.311   7.609
 1902POPC   NC327143  24.919  41.206   9.357
 1902POPC   PO427144  24.365  41.562   9.351
 1902POPC   GL127145  24.554  41.409   9.037
 1902POPC   GL227146  24.755  41.680   9.048
 1902POPC   C1A27147  24.555  41.440   8.614
 1902POPC   D2A27148  24.703  41.641   8.273
 1902POPC   C3A27149  24.528  41.366   8.013
 1902POPC   C4A27150  24.231  41.355   7.699
 1902POPC   C1B27151  24.669  41.946   8.700
 1902POPC   C2B27152  24.757  42.219   8.352
 1902POPC   C3B27153  24.637  42.107   7.946
 1902POPC   C4B27154  24.735  41.720   7.721
 1903POPC   NC327155  41.021   7.601   9.342
 1903POPC   PO427156  40.822   6.969   9.610
 1903POPC   GL127157  40.837   7.170   9.164
 1903POPC   GL227158  40.571   7.450   9.073
 1903POPC   C1A27159  40.817   7.226   8.706
 1903POPC   D2A27160  40.581   7.308   8.330
 1903POPC   C3A27161  40.853   7.213   7.990
 1903POPC   C4A27162  41.035   7.464   7.650
 1903POPC   C1B27163  40.672   7.719   8.683
 1903POPC   C2B27164  40.808   7.742   8.232
 1903POPC   C3B27165  40.589   7.628   7.853
 1903POPC   C4B27166  40.663   7.766   7.426
 1904POPC   NC327167  12.471  17.648   9.410
 1904POPC   PO427168  12.987  17.280   9.573
 1904POPC   GL127169  12.923  17.518   9.171
 1904POPC   GL227170  13.156  17.313   9.018
 1904POPC   C1A27171  12.666  17.637   8.776
 1904POPC   D2A27172  12.487  17.400   8.404
 1904POPC   C3A27173  12.622  17.448   7.949
 1904POPC   C4A27174  12.794  17.815   7.677
 1904POPC   C1B27175  13.040  17.350   8.605
 1904POPC   C2B27176  12.974  17.616   8.266
 1904POPC   C3B27177  13.117  17.413   7.882
 1904POPC   C4B27178  13.034  17.023   7.758
 1905POPC   NC327179   2.822  10.140   9.350
 1905POPC   PO427180   2.549  10.671   9.660
 1905POPC   GL127181   2.509  10.500   9.174
 1905POPC   GL227182   2.835  10.458   8.968
 1905POPC   C1A27183   2.465  10.447   8.674
 1905POPC   D2A27184   2.510  10.239   8.276
 1905POPC   C3A27185   2.645  10.403   7.891
 1905POPC   C4A27186   2.829  10.724   7.718
 1905POPC   C1B27187   3.092  10.475   8.629
 1905POPC   C2B27188   3.032  10.336   8.258
 1905POPC   C3B27189   3.178  10.320   7.890
 1905POPC   C4B27190   3.006  10.293   7.490
 1906POPC   NC327191   5.923  35.327   9.551
 1906POPC   PO427192   5.951  35.915   9.503
 1906POPC   GL127193   5.857  35.636   9.162
 1906POPC   GL227194   5.575  35.733   8.988
 1906POPC   C1A27195   5.806  35.307   8.826
 1906POPC   D2A27196   5.990  35.195   8.427
 1906POPC   C3A27197   5.774  35.206   8.027
 1906POPC   C4A27198   5.839  35.287   7.577
 1906POPC   C1B27199   5.963  35.803   8.699
 1906POPC   C2B27200   5.970  35.864   8.248
 1906POPC   C3B27201   5.937  35.712   7.840
 1906POPC   C4B27202   5.722  35.778   7.439
 1907POPC   NC327203  29.369  40.979   9.463
 1907POPC   PO427204  28.752  40.570   9.578
 1907POPC   GL127205  28.973  40.775   9.201
 1907POPC   GL227206  29.162  41.032   8.993
 1907POPC   C1A27207  28.904  40.658   8.781
 1907POPC   D2A27208  29.067  40.851   8.444
 1907POPC   C3A27209  29.044  40.613   8.056
 1907POPC   C4A27210  29.020  40.711   7.617
 1907POPC   C1B27211  29.488  41.190   8.736
 1907POPC   C2B27212  29.607  41.356   8.348
 1907POPC   C3B27213  29.569  41.139   7.962
 1907POPC   C4B27214  29.226  41.162   7.691
 1908POPC   NC327215   3.863  18.052   9.752
 1908POPC   PO427216   3.295  18.422   9.501
 1908POPC   GL127217   3.392  18.302   9.096
 1908POPC   GL227218   3.699  18.103   9.148
 1908POPC   C1A27219   3.517  18.373   8.670
 1908POPC   D2A27220   3.751  18.335   8.323
 1908POPC   C3A27221   3.600  18.485   7.985
 1908POPC   C4A27222   3.266  18.238   7.830
 1908POPC   C1B27223   3.851  17.974   8.727
 1908POPC   C2B27224   4.133  18.024   8.377
 1908POPC   C3B27225   3.857  17.913   8.055
 1908POPC   C4B27226   3.723  18.059   7.653
 1909POPC   NC327227  32.496   2.141   9.562
 1909POPC   PO427228  31.855   2.145   9.651
 1909POPC   GL127229  32.045   2.013   9.225
 1909POPC   GL227230  32.348   2.172   9.095
 1909POPC   C1A27231  32.107   1.925   8.744
 1909POPC   D2A27232  32.319   1.614   8.456
 1909POPC   C3A27233  32.095   1.535   8.058
 1909POPC   C4A27234  32.174   1.905   7.817
 1909POPC   C1B27235  32.418   2.385   8.734
 1909POPC   C2B27236  32.386   2.167   8.351
 1909POPC   C3B27237  32.290   2.376   7.999
 1909POPC   C4B27238  32.521   2.238   7.682
 1910POPC   NC327239  15.374  34.164   9.444
 1910POPC   PO427240  15.067  34.720   9.484
 1910POPC   GL127241  15.217  34.601   9.104
 1910POPC   GL227242  15.157  34.218   8.984
 1910POPC   C1A27243  15.163  34.914   8.775
 1910POPC   D2A27244  15.202  34.892   8.342
 1910POPC   C3A27245  15.059  34.630   7.964
 1910POPC   C4A27246  15.043  34.808   7.526
 1910POPC   C1B27247  15.266  34.447   8.608
 1910POPC   C2B27248  15.520  34.516   8.231
 1910POPC   C3B27249  15.476  34.358   7.824
 1910POPC   C4B27250  15.137  34.314   7.539
 1911POPC   NC327251  28.331   5.179   9.512
 1911POPC   PO427252  27.988   4.594   9.353
 1911POPC   GL127253  28.123   4.885   9.072
 1911POPC   GL227254  28.442   5.021   9.048
 1911POPC   C1A27255  28.192   4.872   8.630
 1911POPC   D2A27256  28.078   5.133   8.311
 1911POPC   C3A27257  28.336   5.100   7.948
 1911POPC   C4A27258  28.044   5.241   7.714
 1911POPC   C1B27259  28.395   5.334   8.717
 1911POPC   C2B27260  28.549   5.382   8.326
 1911POPC   C3B27261  28.465   5.597   7.963
 1911POPC   C4B27262  28.465   5.543   7.536
 1912POPC   NC327263   6.301  33.803   9.596
 1912POPC   PO427264   5.700  33.569   9.704
 1912POPC   GL127265   5.887  33.510   9.270
 1912POPC   GL227266   6.262  33.439   9.220
 1912POPC   C1A27267   5.707  33.514   8.824
 1912POPC   D2A27268   5.585  33.645   8.395
 1912POPC   C3A27269   5.779  34.019   8.156
 1912POPC   C4A27270   5.911  34.042   7.755
 1912POPC   C1B27271   6.184  33.735   8.887
 1912POPC   C2B27272   6.088  33.740   8.452
 1912POPC   C3B27273   5.950  33.571   8.021
 1912POPC   C4B27274   6.115  33.567   7.591
 1913POPC   NC327275  37.078   2.665   9.484
 1913POPC   PO427276  36.484   2.968   9.566
 1913POPC   GL127277  36.564   2.779   9.145
 1913POPC   GL227278  36.886   2.807   9.047
 1913POPC   C1A27279  36.581   2.692   8.666
 1913POPC   D2A27280  36.849   2.493   8.309
 1913POPC   C3A27281  36.717   2.519   7.885
 1913POPC   C4A27282  36.547   2.890   7.687
 1913POPC   C1B27283  37.092   2.818   8.643
 1913POPC   C2B27284  36.894   3.017   8.318
 1913POPC   C3B27285  37.000   2.932   7.942
 1913POPC   C4B27286  37.341   2.636   7.881
 1914POPC   NC327287  30.288  29.430   9.409
 1914POPC   PO427288  30.740  29.031   9.720
 1914POPC   GL127289  30.700  28.986   9.224
 1914POPC   GL227290  30.703  29.338   9.121
 1914POPC   C1A27291  30.805  29.026   8.730
 1914POPC   D2A27292  30.971  29.112   8.295
 1914POPC   C3A27293  30.806  29.153   7.884
 1914POPC   C4A27294  31.019  28.992   7.507
 1914POPC   C1B27295  30.412  29.358   8.766
 1914POPC   C2B27296  30.488  29.259   8.356
 1914POPC   C3B27297  30.410  29.516   8.020
 1914POPC   C4B27298  30.555  29.533   7.647
 1915POPC   NC327299  26.433  21.177   9.489
 1915POPC   PO427300  26.911  21.594   9.534
 1915POPC   GL127301  26.901  21.327   9.181
 1915POPC   GL227302  26.587  21.344   9.031
 1915POPC   C1A27303  27.123  21.331   8.792
 1915POPC   D2A27304  27.037  21.520   8.411
 1915POPC   C3A27305  27.173  21.371   7.998
 1915POPC   C4A27306  26.902  21.272   7.674
 1915POPC   C1B27307  26.547  21.402   8.589
 1915POPC   C2B27308  26.632  21.313   8.167
 1915POPC   C3B27309  26.422  21.448   7.793
 1915POPC   C4B27310  26.466  21.245   7.386
 1916POPC   NC327311  37.797   4.837   9.589
 1916POPC   PO427312  38.404   4.951   9.776
 1916POPC   GL127313  38.454   4.770   9.314
 1916POPC   GL227314  38.153   4.769   9.115
 1916POPC   C1A27315  38.671   4.707   8.891
 1916POPC   D2A27316  38.494   4.662   8.442
 1916POPC   C3A27317  38.463   4.784   7.987
 1916POPC   C4A27318  38.143   4.845   7.652
 1916POPC   C1B27319  38.295   5.034   8.760
 1916POPC   C2B27320  38.358   5.173   8.318
 1916POPC   C3B27321  38.337   5.268   7.857
 1916POPC   C4B27322  38.007   5.355   7.524
 1917POPC   NC327323  35.820  23.423   9.395
 1917POPC   PO427324  36.201  23.945   9.644
 1917POPC   GL127325  36.170  23.821   9.165
 1917POPC   GL227326  36.044  23.518   8.953
 1917POPC   C1A27327  36.120  23.961   8.715
 1917POPC   D2A27328  35.811  23.838   8.379
 1917POPC   C3A27329  35.897  23.672   7.932
 1917POPC   C4A27330  35.814  23.688   7.445
 1917POPC   C1B27331  36.302  23.209   8.731
 1917POPC   C2B27332  36.431  23.184   8.314
 1917POPC   C3B27333  36.348  23.336   7.903
 1917POPC   C4B27334  36.320  23.525   7.525
 1918POPC   NC327335   6.138  12.336   9.604
 1918POPC   PO427336   5.917  11.715   9.574
 1918POPC   GL127337   5.975  11.991   9.233
 1918POPC   GL227338   6.254  11.870   9.073
 1918POPC   C1A27339   5.812  11.931   8.809
 1918POPC   D2A27340   5.999  11.914   8.395
 1918POPC   C3A27341   5.610  11.955   8.161
 1918POPC   C4A27342   5.381  11.773   7.819
 1918POPC   C1B27343   6.186  12.267   8.831
 1918POPC   C2B27344   5.988  12.457   8.460
 1918POPC   C3B27345   5.994  12.298   8.039
 1918POPC   C4B27346   6.009  12.458   7.634
 1919POPC   NC327347   7.787  26.156   9.594
 1919POPC   PO427348   7.166  26.181   9.463
 1919POPC   GL127349   7.416  26.010   9.160
 1919POPC   GL227350   7.704  25.773   9.186
 1919POPC   C1A27351   7.301  25.770   8.809
 1919POPC   D2A27352   7.184  25.680   8.403
 1919POPC   C3A27353   7.176  26.081   8.181
 1919POPC   C4A27354   7.444  26.076   7.823
 1919POPC   C1B27355   7.751  26.016   8.772
 1919POPC   C2B27356   7.650  25.965   8.345
 1919POPC   C3B27357   7.906  25.986   8.009
 1919POPC   C4B27358   7.881  26.103   7.558
 1920POPC   NC327359  20.321  17.515   9.759
 1920POPC   PO427360  20.877  17.266   9.390
 1920POPC   GL127361  20.864  17.515   9.019
 1920POPC   GL227362  21.008  17.797   9.175
 1920POPC   C1A27363  20.719  17.447   8.575
 1920POPC   D2A27364  20.468  17.164   8.330
 1920POPC   C3A27365  20.576  17.231   7.933
 1920POPC   C4A27366  20.506  17.634   7.771
 1920POPC   C1B27367  21.240  17.739   8.773
 1920POPC   C2B27368  21.183  17.593   8.370
 1920POPC   C3B27369  21.027  17.498   7.975
 1920POPC   C4B27370  21.259  17.595   7.612
 1921POPC   NC327371  16.914  42.235   9.374
 1921POPC   PO427372  16.463  42.705   9.594
 1921POPC   GL127373  16.550  42.565   9.140
 1921POPC   GL227374  16.890  42.531   8.979
 1921POPC   C1A27375  16.531  42.249   8.788
 1921POPC   D2A27376  16.776  42.273   8.405
 1921POPC   C3A27377  16.541  42.101   8.086
 1921POPC   C4A27378  16.558  42.145   7.668
 1921POPC   C1B27379  16.737  42.747   8.645
 1921POPC   C2B27380  16.911  42.778   8.243
 1921POPC   C3B27381  16.928  42.454   7.893
 1921POPC   C4B27382  16.929  42.454   7.425
 1922POPC   NC327383  11.116  43.712   9.517
 1922POPC   PO427384  11.776  43.877   9.578
 1922POPC   GL127385  11.498  43.930   9.202
 1922POPC   GL227386  11.185  44.133   9.245
 1922POPC   C1A27387  11.573  43.818   8.759
 1922POPC   D2A27388  11.481  43.617   8.359
 1922POPC   C3A27389  11.453  43.842   8.008
 1922POPC   C4A27390  11.541  43.972   7.586
 1922POPC   C1B27391  11.065  43.850   8.887
 1922POPC   C2B27392  11.037  43.896   8.463
 1922POPC   C3B27393  10.976  43.990   8.037
 1922POPC   C4B27394  11.027  43.784   7.668
 1923POPC   NC327395  43.156  20.797   9.737
 1923POPC   PO427396  42.628  20.470   9.526
 1923POPC   GL127397  42.888  20.551   9.174
 1923POPC   GL227398  43.263  20.608   9.242
 1923POPC   C1A27399  43.055  20.520   8.760
 1923POPC   D2A27400  43.341  20.520   8.418
 1923POPC   C3A27401  43.211  20.469   7.967
 1923POPC   C4A27402  42.978  20.458   7.551
 1923POPC   C1B27403  43.432  20.833   8.867
 1923POPC   C2B27404  43.307  21.025   8.462
 1923POPC   C3B27405  43.457  20.910   8.061
 1923POPC   C4B27406  43.299  20.874   7.630
 1924POPC   NC327407   9.905  15.081   9.567
 1924POPC   PO427408   9.994  15.687   9.544
 1924POPC   GL127409   9.898  15.387   9.163
 1924POPC   GL227410   9.568  15.260   9.076
 1924POPC   C1A27411  10.009  15.165   8.750
 1924POPC   D2A27412  10.290  15.081   8.357
 1924POPC   C3A27413  10.113  14.956   7.926
 1924POPC   C4A27414  10.016  15.123   7.501
 1924POPC   C1B27415   9.538  15.367   8.654
 1924POPC   C2B27416   9.746  15.180   8.296
 1924POPC   C3B27417   9.601  15.056   7.902
 1924POPC   C4B27418   9.254  15.273   7.723
 1925POPC   NC327419  37.411  15.967   9.592
 1925POPC   PO427420  37.896  16.415   9.596
 1925POPC   GL127421  37.798  16.053   9.233
 1925POPC   GL227422  37.467  15.876   9.101
 1925POPC   C1A27423  37.868  15.739   8.841
 1925POPC   D2A27424  37.651  15.716   8.424
 1925POPC   C3A27425  37.708  16.007   8.102
 1925POPC   C4A27426  37.671  15.875   7.690
 1925POPC   C1B27427  37.317  15.994   8.697
 1925POPC   C2B27428  37.230  16.240   8.317
 1925POPC   C3B27429  37.293  16.246   7.858
 1925POPC   C4B27430  37.383  16.179   7.400
 1926POPC   NC327431  40.979  44.249   9.337
 1926POPC   PO427432  40.629  43.710   9.354
 1926POPC   GL127433  40.620  43.955   9.010
 1926POPC   GL227434  40.458  44.217   9.188
 1926POPC   C1A27435  40.641  43.985   8.551
 1926POPC   D2A27436  40.890  44.145   8.222
 1926POPC   C3A27437  40.869  44.018   7.809
 1926POPC   C4A27438  40.799  44.045   7.339
 1926POPC   C1B27439  40.304  44.315   8.784
 1926POPC   C2B27440  40.224  44.209   8.371
 1926POPC   C3B27441  40.379  44.136   7.974
 1926POPC   C4B27442  40.548  44.391   7.666
 1927POPC   NC327443  11.164   5.439   9.298
 1927POPC   PO427444  11.028   4.945   9.727
 1927POPC   GL127445  11.291   4.933   9.246
 1927POPC   GL227446  11.058   4.955   8.914
 1927POPC   C1A27447  11.496   4.782   8.811
 1927POPC   D2A27448  11.317   4.994   8.448
 1927POPC   C3A27449  11.283   4.855   8.015
 1927POPC   C4A27450  10.981   4.774   7.666
 1927POPC   C1B27451  10.988   5.359   8.691
 1927POPC   C2B27452  11.341   5.512   8.495
 1927POPC   C3B27453  11.209   5.382   8.099
 1927POPC   C4B27454  11.351   5.463   7.713
 1928POPC   NC327455  11.979  16.363   9.602
 1928POPC   PO427456  12.623  16.408   9.570
 1928POPC   GL127457  12.287  16.602   9.247
 1928POPC   GL227458  11.974  16.416   9.101
 1928POPC   C1A27459  12.149  16.821   8.825
 1928POPC   D2A27460  12.279  16.921   8.383
 1928POPC   C3A27461  12.155  16.859   7.940
 1928POPC   C4A27462  12.414  16.954   7.551
 1928POPC   C1B27463  11.798  16.474   8.708
 1928POPC   C2B27464  11.827  16.651   8.305
 1928POPC   C3B27465  11.840  16.465   7.889
 1928POPC   C4B27466  11.843  16.262   7.460
 1929POPC   NC327467  41.180  33.918   9.344
 1929POPC   PO427468  40.695  33.551   9.496
 1929POPC   GL127469  40.668  33.764   9.118
 1929POPC   GL227470  40.682  34.089   9.204
 1929POPC   C1A27471  40.720  33.718   8.685
 1929POPC   D2A27472  40.774  33.556   8.304
 1929POPC   C3A27473  40.626  33.636   7.914
 1929POPC   C4A27474  40.886  33.377   7.664
 1929POPC   C1B27475  40.863  34.207   8.837
 1929POPC   C2B27476  40.760  34.191   8.437
 1929POPC   C3B27477  40.884  34.186   8.036
 1929POPC   C4B27478  40.684  34.105   7.693
 1930POPC   NC327479   9.188  38.772   9.517
 1930POPC   PO427480   8.932  38.158   9.367
 1930POPC   GL127481   9.236  38.376   9.092
 1930POPC   GL227482   9.005  38.634   9.051
 1930POPC   C1A27483   9.260  38.498   8.633
 1930POPC   D2A27484   8.896  38.439   8.353
 1930POPC   C3A27485   8.896  38.272   7.956
 1930POPC   C4A27486   9.203  38.226   7.636
 1930POPC   C1B27487   8.658  38.666   8.743
 1930POPC   C2B27488   8.680  38.902   8.326
 1930POPC   C3B27489   8.682  38.759   7.890
 1930POPC   C4B27490   8.645  38.961   7.455
 1931POPC   NC327491  24.669  44.909   9.555
 1931POPC   PO427492  24.836  44.263   9.490
 1931POPC   GL127493  24.513  44.518   9.225
 1931POPC   GL227494  24.324  44.853   9.202
 1931POPC   C1A27495  24.499  44.388   8.808
 1931POPC   D2A27496  24.660  44.593   8.451
 1931POPC   C3A27497  24.544  44.403   8.082
 1931POPC   C4A27498  24.650  44.523   7.687
 1931POPC   C1B27499  24.402  44.898   8.780
 1931POPC   C2B27500  24.225  44.880   8.359
 1931POPC   C3B27501  24.332  44.863   7.917
 1931POPC   C4B27502  24.197  44.880   7.494
 1932POPC   NC327503  27.492  44.324   9.426
 1932POPC   PO427504  27.906  44.844   9.427
 1932POPC   GL127505  27.651  44.694   9.087
 1932POPC   GL227506  27.862  44.407   9.031
 1932POPC   C1A27507  27.545  44.707   8.633
 1932POPC   D2A27508  27.749  44.967   8.330
 1932POPC   C3A27509  27.784  44.777   7.951
 1932POPC   C4A27510  27.928  44.906   7.559
 1932POPC   C1B27511  27.538  44.215   8.790
 1932POPC   C2B27512  27.349  44.204   8.416
 1932POPC   C3B27513  27.588  44.314   8.080
 1932POPC   C4B27514  27.498  44.452   7.662
 1933POPC   NC327515  28.989  40.061   9.562
 1933POPC   PO427516  29.612  40.245   9.557
 1933POPC   GL127517  29.251  40.345   9.214
 1933POPC   GL227518  28.846  40.293   9.145
 1933POPC   C1A27519  29.203  40.237   8.780
 1933POPC   D2A27520  29.360  39.978   8.477
 1933POPC   C3A27521  29.404  40.120   8.065
 1933POPC   C4A27522  29.306  39.814   7.797
 1933POPC   C1B27523  28.783  39.939   8.873
 1933POPC   C2B27524  28.747  39.644   8.526
 1933POPC   C3B27525  28.908  39.727   8.125
 1933POPC   C4B27526  28.812  39.655   7.711
 1934POPC   NC327527  42.619  19.995   9.476
 1934POPC   PO427528  43.180  19.579   9.723
 1934POPC   GL127529  43.105  19.703   9.228
 1934POPC   GL227530  43.106  20.078   9.153
 1934POPC   C1A27531  43.121  19.771   8.734
 1934POPC   D2A27532  43.011  20.131   8.418
 1934POPC   C3A27533  42.904  20.058   7.977
 1934POPC   C4A27534  42.966  19.672   7.775
 1934POPC   C1B27535  43.435  20.177   8.836
 1934POPC   C2B27536  43.649  20.108   8.446
 1934POPC   C3B27537  43.449  19.977   8.058
 1934POPC   C4B27538  43.293  20.065   7.632
 1935POPC   NC327539  38.517  34.862   9.578
 1935POPC   PO427540  38.474  34.244   9.537
 1935POPC   GL127541  38.473  34.514   9.154
 1935POPC   GL227542  38.672  34.809   9.111
 1935POPC   C1A27543  38.630  34.517   8.705
 1935POPC   D2A27544  38.811  34.522   8.277
 1935POPC   C3A27545  38.455  34.516   7.972
 1935POPC   C4A27546  38.251  34.307   7.623
 1935POPC   C1B27547  38.670  35.092   8.794
 1935POPC   C2B27548  38.533  34.938   8.406
 1935POPC   C3B27549  38.713  34.951   8.005
 1935POPC   C4B27550  38.569  34.902   7.633
 1936POPC   NC327551   6.171  44.953   9.364
 1936POPC   PO427552   5.800  44.405   9.436
 1936POPC   GL127553   5.800  44.633   9.113
 1936POPC   GL227554   5.918  44.315   8.934
 1936POPC   C1A27555   5.983  44.779   8.731
 1936POPC   D2A27556   5.963  44.534   8.356
 1936POPC   C3A27557   5.782  44.702   7.988
 1936POPC   C4A27558   5.958  44.841   7.645
 1936POPC   C1B27559   5.554  44.477   8.686
 1936POPC   C2B27560   5.392  44.551   8.273
 1936POPC   C3B27561   5.417  44.294   7.889
 1936POPC   C4B27562   5.580  44.309   7.456
 1937POPC   NC327563  29.375   1.874   9.551
 1937POPC   PO427564  28.793   2.219   9.456
 1937POPC   GL127565  29.083   2.047   9.151
 1937POPC   GL227566  29.335   1.755   9.078
 1937POPC   C1A27567  29.041   1.952   8.738
 1937POPC   D2A27568  29.279   1.873   8.391
 1937POPC   C3A27569  29.082   1.965   7.989
 1937POPC   C4A27570  28.931   1.889   7.555
 1937POPC   C1B27571  29.653   1.677   8.800
 1937POPC   C2B27572  29.660   1.528   8.404
 1937POPC   C3B27573  29.570   1.726   8.013
 1937POPC   C4B27574  29.443   1.874   7.640
 1938POPC   NC327575  19.119  43.602   9.564
 1938POPC   PO427576  18.783  44.219   9.443
 1938POPC   GL127577  18.955  43.868   9.151
 1938POPC   GL227578  19.290  43.694   9.075
 1938POPC   C1A27579  18.907  43.731   8.714
 1938POPC   D2A27580  19.096  43.781   8.285
 1938POPC   C3A27581  18.872  44.086   7.992
 1938POPC   C4A27582  18.668  44.071   7.578
 1938POPC   C1B27583  19.343  44.004   8.748
 1938POPC   C2B27584  19.270  44.271   8.390
 1938POPC   C3B27585  19.386  44.136   7.993
 1938POPC   C4B27586  19.246  43.996   7.599
 1939POPC   NC327587   0.754   4.198   9.720
 1939POPC   PO427588   1.365   4.403   9.488
 1939POPC   GL127589   1.215   4.397   9.111
 1939POPC   GL227590   1.006   4.624   9.141
 1939POPC   C1A27591   1.287   4.351   8.696
 1939POPC   D2A27592   1.464   4.304   8.346
 1939POPC   C3A27593   1.263   4.340   7.977
 1939POPC   C4A27594   1.117   4.313   7.556
 1939POPC   C1B27595   1.166   4.822   8.784
 1939POPC   C2B27596   1.123   4.766   8.363
 1939POPC   C3B27597   1.056   4.935   7.983
 1939POPC   C4B27598   1.337   4.766   7.714
 1940POPC   NC327599  36.259   3.186   9.245
 1940POPC   PO427600  36.213   3.658   9.655
 1940POPC   GL127601  36.089   3.641   9.189
 1940POPC   GL227602  36.405   3.597   8.961
 1940POPC   C1A27603  35.965   3.405   8.731
 1940POPC   D2A27604  36.030   3.296   8.287
 1940POPC   C3A27605  35.847   3.560   7.984
 1940POPC   C4A27606  35.751   3.750   7.565
 1940POPC   C1B27607  36.462   3.207   8.639
 1940POPC   C2B27608  36.404   2.956   8.234
 1940POPC   C3B27609  36.487   3.309   7.977
 1940POPC   C4B27610  36.254   3.540   7.692
 1941POPC   NC327611  16.152  32.857   9.895
 1941POPC   PO427612  15.585  32.874   9.613
 1941POPC   GL127613  15.688  32.909   9.180
 1941POPC   GL227614  16.008  32.761   9.289
 1941POPC   C1A27615  15.575  32.930   8.697
 1941POPC   D2A27616  15.787  32.931   8.238
 1941POPC   C3A27617  15.726  33.159   7.805
 1941POPC   C4A27618  15.745  33.340   7.353
 1941POPC   C1B27619  15.992  32.648   8.828
 1941POPC   C2B27620  16.177  32.637   8.397
 1941POPC   C3B27621  16.305  32.950   8.095
 1941POPC   C4B27622  16.231  33.030   7.681
 1942POPC   NC327623  38.760   0.662   9.475
 1942POPC   PO427624  38.225   0.234   9.468
 1942POPC   GL127625  38.424   0.291   9.086
 1942POPC   GL227626  38.416   0.628   9.112
 1942POPC   C1A27627  38.330   0.416   8.659
 1942POPC   D2A27628  38.056   0.626   8.395
 1942POPC   C3A27629  38.157   0.422   8.015
 1942POPC   C4A27630  38.547   0.369   7.846
 1942POPC   C1B27631  38.778   0.635   8.811
 1942POPC   C2B27632  38.747   0.619   8.377
 1942POPC   C3B27633  38.462   0.810   8.134
 1942POPC   C4B27634  38.473   0.895   7.730
 1943POPC   NC327635  34.154  12.444   9.490
 1943POPC   PO427636  34.560  11.849   9.486
 1943POPC   GL127637  34.527  12.185   9.161
 1943POPC   GL227638  34.878  12.319   9.037
 1943POPC   C1A27639  34.456  12.288   8.744
 1943POPC   D2A27640  34.362  12.093   8.365
 1943POPC   C3A27641  34.544  12.172   7.975
 1943POPC   C4A27642  34.207  12.186   7.668
 1943POPC   C1B27643  34.815  11.928   8.802
 1943POPC   C2B27644  34.835  11.914   8.376
 1943POPC   C3B27645  34.607  11.666   8.109
 1943POPC   C4B27646  34.432  11.747   7.718
 1944POPC   NC327647  10.245  41.575   9.236
 1944POPC   PO427648   9.622  41.434   9.426
 1944POPC   GL127649   9.629  41.790   9.190
 1944POPC   GL227650   9.828  41.577   8.945
 1944POPC   C1A27651   9.581  42.015   8.803
 1944POPC   D2A27652   9.866  41.829   8.475
 1944POPC   C3A27653   9.774  41.902   8.039
 1944POPC   C4A27654   9.684  41.811   7.604
 1944POPC   C1B27655  10.047  41.332   8.618
 1944POPC   C2B27656   9.961  41.198   8.214
 1944POPC   C3B27657   9.895  41.418   7.861
 1944POPC   C4B27658  10.162  41.693   7.618
 1945POPC   NC327659   9.592  34.835   9.537
 1945POPC   PO427660   9.960  34.266   9.634
 1945POPC   GL127661   9.958  34.611   9.257
 1945POPC   GL227662   9.620  34.549   9.107
 1945POPC   C1A27663   9.952  34.836   8.836
 1945POPC   D2A27664  10.148  34.899   8.448
 1945POPC   C3A27665   9.953  34.701   8.078
 1945POPC   C4A27666  10.063  34.317   7.833
 1945POPC   C1B27667   9.707  34.420   8.658
 1945POPC   C2B27668   9.715  34.242   8.231
 1945POPC   C3B27669   9.537  34.359   7.835
 1945POPC   C4B27670   9.431  34.784   7.730
 1946POPC   NC327671  32.112  34.079   9.530
 1946POPC   PO427672  32.344  34.807   9.510
 1946POPC   GL127673  32.208  34.758   9.116
 1946POPC   GL227674  32.208  34.436   9.147
 1946POPC   C1A27675  32.095  34.708   8.666
 1946POPC   D2A27676  32.134  34.529   8.243
 1946POPC   C3A27677  32.103  34.439   7.765
 1946POPC   C4A27678  32.277  34.766   7.457
 1946POPC   C1B27679  32.475  34.345   8.793
 1946POPC   C2B27680  32.438  34.110   8.410
 1946POPC   C3B27681  32.516  34.202   8.005
 1946POPC   C4B27682  32.378  34.052   7.594
 1947POPC   NC327683  32.485   7.271   9.253
 1947POPC   PO427684  32.006   7.464   9.695
 1947POPC   GL127685  32.048   7.567   9.218
 1947POPC   GL227686  32.002   7.371   8.950
 1947POPC   C1A27687  32.302   7.748   8.853
 1947POPC   D2A27688  32.201   7.640   8.455
 1947POPC   C3A27689  32.432   7.649   8.089
 1947POPC   C4A27690  32.484   7.439   7.732
 1947POPC   C1B27691  32.044   7.080   8.662
 1947POPC   C2B27692  32.131   7.168   8.292
 1947POPC   C3B27693  32.001   7.094   7.931
 1947POPC   C4B27694  32.032   7.268   7.592
 1948POPC   NC327695   7.021  34.146   9.239
 1948POPC   PO427696   6.696  33.588   9.523
 1948POPC   GL127697   6.674  33.756   9.123
 1948POPC   GL227698   6.504  34.063   9.165
 1948POPC   C1A27699   6.662  33.896   8.689
 1948POPC   D2A27700   6.775  34.030   8.271
 1948POPC   C3A27701   6.773  33.765   7.891
 1948POPC   C4A27702   7.078  33.473   7.770
 1948POPC   C1B27703   6.228  34.252   8.857
 1948POPC   C2B27704   6.187  34.267   8.394
 1948POPC   C3B27705   6.317  33.981   8.053
 1948POPC   C4B27706   6.411  34.017   7.613
 1949POPC   NC327707  12.234   3.222   9.389
 1949POPC   PO427708  11.748   3.662   9.548
 1949POPC   GL127709  11.915   3.731   9.136
 1949POPC   GL227710  12.264   3.639   9.060
 1949POPC   C1A27711  11.875   3.557   8.739
 1949POPC   D2A27712  11.748   3.343   8.399
 1949POPC   C3A27713  11.945   3.431   8.002
 1949POPC   C4A27714  12.072   3.276   7.587
 1949POPC   C1B27715  12.318   3.281   8.742
 1949POPC   C2B27716  12.511   3.217   8.327
 1949POPC   C3B27717  12.459   3.392   7.891
 1949POPC   C4B27718  12.463   3.590   7.437
 1950POPC   NC327719  10.040  16.749   9.622
 1950POPC   PO427720  10.594  16.694   9.567
 1950POPC   GL127721  10.598  16.857   9.167
 1950POPC   GL227722  10.268  16.963   9.130
 1950POPC   C1A27723  10.706  16.765   8.743
 1950POPC   D2A27724  10.600  16.899   8.346
 1950POPC   C3A27725  10.701  16.614   8.033
 1950POPC   C4A27726  10.544  16.653   7.627
 1950POPC   C1B27727  10.010  16.996   8.772
 1950POPC   C2B27728   9.921  16.817   8.393
 1950POPC   C3B27729  10.157  16.878   8.011
 1950POPC   C4B27730  10.015  16.824   7.618
 1951POPC   NC327731   8.354  44.328   9.904
 1951POPC   PO427732   8.211  44.852   9.464
 1951POPC   GL127733   8.282  44.660   9.080
 1951POPC   GL227734   8.621  44.533   9.088
 1951POPC   C1A27735   8.021  44.586   8.711
 1951POPC   D2A27736   7.811  44.775   8.349
 1951POPC   C3A27737   7.954  44.545   7.985
 1951POPC   C4A27738   7.911  44.603   7.515
 1951POPC   C1B27739   8.599  44.801   8.695
 1951POPC   C2B27740   8.334  44.764   8.310
 1951POPC   C3B27741   8.225  44.951   7.913
 1951POPC   C4B27742   8.323   0.268   7.677
 1952POPC   NC327743  35.257  41.628   9.524
 1952POPC   PO427744  35.658  41.060   9.702
 1952POPC   GL127745  35.641  41.457   9.264
 1952POPC   GL227746  35.450  41.806   9.098
 1952POPC   C1A27747  35.529  41.398   8.785
 1952POPC   D2A27748  35.656  41.155   8.426
 1952POPC   C3A27749  35.454  41.317   8.094
 1952POPC   C4A27750  35.458  41.264   7.676
 1952POPC   C1B27751  35.154  41.753   8.723
 1952POPC   C2B27752  35.062  41.687   8.266
 1952POPC   C3B27753  35.334  41.777   7.895
 1952POPC   C4B27754  35.761  41.864   7.801
 1953POPC   NC327755  22.766  18.130   9.625
 1953POPC   PO427756  23.302  18.595   9.531
 1953POPC   GL127757  22.999  18.358   9.213
 1953POPC   GL227758  22.638  18.216   9.160
 1953POPC   C1A27759  22.776  18.561   8.828
 1953POPC   D2A27760  22.652  18.454   8.403
 1953POPC   C3A27761  22.931  18.392   8.046
 1953POPC   C4A27762  22.997  18.455   7.617
 1953POPC   C1B27763  22.681  18.060   8.788
 1953POPC   C2B27764  22.529  17.925   8.433
 1953POPC   C3B27765  22.604  17.995   8.073
 1953POPC   C4B27766  22.823  17.921   7.730
 1954POPC   NC327767   0.590  27.518   9.410
 1954POPC   PO427768   0.065  28.064   9.455
 1954POPC   GL127769   0.226  27.792   9.167
 1954POPC   GL227770   0.543  27.826   9.043
 1954POPC   C1A27771   0.273  27.500   8.786
 1954POPC   D2A27772   0.403  27.712   8.415
 1954POPC   C3A27773   0.199  27.595   8.060
 1954POPC   C4A27774   0.210  27.291   7.734
 1954POPC   C1B27775   0.772  27.608   8.763
 1954POPC   C2B27776   0.948  27.672   8.419
 1954POPC   C3B27777   0.829  27.790   8.059
 1954POPC   C4B27778   0.619  27.619   7.727
 1955POPC   NC327779  23.665  43.944   9.531
 1955POPC   PO427780  23.320  43.359   9.232
 1955POPC   GL127781  23.675  43.673   9.069
 1955POPC   GL227782  23.676  44.063   9.050
 1955POPC   C1A27783  23.731  43.736   8.657
 1955POPC   D2A27784  23.425  43.641   8.362
 1955POPC   C3A27785  23.646  43.665   7.983
 1955POPC   C4A27786  23.630  43.710   7.557
 1955POPC   C1B27787  23.585  44.224   8.645
 1955POPC   C2B27788  23.703  44.107   8.249
 1955POPC   C3B27789  23.687  44.164   7.784
 1955POPC   C4B27790  23.646  44.143   7.315
 1956POPC   NC327791  42.351  35.439   9.541
 1956POPC   PO427792  42.045  34.837   9.523
 1956POPC   GL127793  42.225  35.048   9.151
 1956POPC   GL227794  42.174  35.405   9.082
 1956POPC   C1A27795  42.430  35.145   8.742
 1956POPC   D2A27796  42.167  35.201   8.388
 1956POPC   C3A27797  42.380  35.189   7.997
 1956POPC   C4A27798  42.404  35.310   7.563
 1956POPC   C1B27799  42.114  35.674   8.765
 1956POPC   C2B27800  42.027  35.692   8.344
 1956POPC   C3B27801  41.932  35.459   7.996
 1956POPC   C4B27802  42.001  35.667   7.628
 1957POPC   NC327803  33.940   5.037   9.416
 1957POPC   PO427804  33.403   4.675   9.487
 1957POPC   GL127805  33.477   4.934   9.122
 1957POPC   GL227806  33.457   5.302   9.188
 1957POPC   C1A27807  33.789   4.894   8.770
 1957POPC   D2A27808  34.127   4.922   8.458
 1957POPC   C3A27809  33.964   5.035   8.042
 1957POPC   C4A27810  33.997   4.812   7.637
 1957POPC   C1B27811  33.746   5.412   8.819
 1957POPC   C2B27812  33.610   5.494   8.390
 1957POPC   C3B27813  33.602   5.403   7.948
 1957POPC   C4B27814  33.906   5.329   7.608
 1958POPC   NC327815   6.910  13.493   9.370
 1958POPC   PO427816   7.532  13.730   9.417
 1958POPC   GL127817   7.611  13.580   9.024
 1958POPC   GL227818   7.289  13.397   9.028
 1958POPC   C1A27819   7.724  13.826   8.662
 1958POPC   D2A27820   7.450  13.973   8.337
 1958POPC   C3A27821   7.703  13.891   7.984
 1958POPC   C4A27822   7.647  13.847   7.575
 1958POPC   C1B27823   7.374  13.437   8.591
 1958POPC   C2B27824   7.436  13.214   8.190
 1958POPC   C3B27825   7.510  13.393   7.771
 1958POPC   C4B27826   7.566  13.431   7.314
 1959POPC   NC327827  25.427  23.017   9.586
 1959POPC   PO427828  24.799  22.863   9.530
 1959POPC   GL127829  25.054  23.035   9.163
 1959POPC   GL227830  25.340  22.838   9.118
 1959POPC   C1A27831  25.173  23.080   8.717
 1959POPC   D2A27832  25.217  22.830   8.352
 1959POPC   C3A27833  25.114  23.064   7.982
 1959POPC   C4A27834  25.264  23.023   7.551
 1959POPC   C1B27835  25.579  22.708   8.778
 1959POPC   C2B27836  25.750  22.808   8.407
 1959POPC   C3B27837  25.588  22.861   7.987
 1959POPC   C4B27838  25.571  22.634   7.603
 1960POPC   NC327839  17.575  20.682   9.453
 1960POPC   PO427840  17.025  20.909   9.490
 1960POPC   GL127841  17.256  20.670   9.055
 1960POPC   GL227842  17.459  20.350   9.086
 1960POPC   C1A27843  17.565  20.615   8.653
 1960POPC   D2A27844  17.808  20.762   8.294
 1960POPC   C3A27845  17.731  20.654   7.918
 1960POPC   C4A27846  17.765  20.896   7.553
 1960POPC   C1B27847  17.478  20.125   8.673
 1960POPC   C2B27848  17.647  20.249   8.252
 1960POPC   C3B27849  17.413  20.239   7.841
 1960POPC   C4B27850  17.241  20.287   7.382
 1961POPC   NC327851  43.375  35.493   9.352
 1961POPC   PO427852  42.802  35.490   9.520
 1961POPC   GL127853  42.925  35.220   9.159
 1961POPC   GL227854  43.275  35.095   9.062
 1961POPC   C1A27855  42.974  35.337   8.727
 1961POPC   D2A27856  43.060  35.585   8.402
 1961POPC   C3A27857  42.851  35.432   8.047
 1961POPC   C4A27858  42.865  35.508   7.661
 1961POPC   C1B27859  43.527  35.313   8.702
 1961POPC   C2B27860  43.568  35.600   8.331
 1961POPC   C3B27861  43.315  35.655   7.961
 1961POPC   C4B27862  43.269  35.221   7.812
 1962POPC   NC327863  29.506  22.508   9.432
 1962POPC   PO427864  29.315  21.827   9.610
 1962POPC   GL127865  29.446  21.997   9.225
 1962POPC   GL227866  29.178  22.232   9.174
 1962POPC   C1A27867  29.433  22.046   8.770
 1962POPC   D2A27868  29.174  22.208   8.426
 1962POPC   C3A27869  29.362  22.129   8.019
 1962POPC   C4A27870  29.259  21.962   7.623
 1962POPC   C1B27871  28.933  21.985   8.921
 1962POPC   C2B27872  28.787  21.860   8.530
 1962POPC   C3B27873  28.867  21.916   8.091
 1962POPC   C4B27874  28.682  21.722   7.743
 1963POPC   NC327875  11.352  15.585   9.548
 1963POPC   PO427876  11.908  15.916   9.701
 1963POPC   GL127877  11.596  16.113   9.318
 1963POPC   GL227878  11.326  15.887   9.141
 1963POPC   C1A27879  11.352  16.356   8.934
 1963POPC   D2A27880  11.381  16.350   8.441
 1963POPC   C3A27881  11.194  16.240   8.030
 1963POPC   C4A27882  11.538  16.027   7.795
 1963POPC   C1B27883  11.511  15.917   8.716
 1963POPC   C2B27884  11.419  15.838   8.273
 1963POPC   C3B27885  11.135  15.738   7.908
 1963POPC   C4B27886  11.215  15.774   7.492
 1964POPC   NC327887  26.691   5.342   9.490
 1964POPC   PO427888  26.505   4.629   9.555
 1964POPC   GL127889  26.697   4.896   9.251
 1964POPC   GL227890  27.051   5.014   9.318
 1964POPC   C1A27891  26.713   5.108   8.852
 1964POPC   D2A27892  26.616   5.275   8.442
 1964POPC   C3A27893  26.813   5.067   8.094
 1964POPC   C4A27894  26.669   5.010   7.687
 1964POPC   C1B27895  27.081   4.740   8.969
 1964POPC   C2B27896  26.977   4.698   8.545
 1964POPC   C3B27897  27.042   4.606   8.117
 1964POPC   C4B27898  27.179   4.806   7.756
 1965POPC   NC327899  19.969  20.319   9.547
 1965POPC   PO427900  20.213  19.744   9.851
 1965POPC   GL127901  19.978  19.817   9.410
 1965POPC   GL227902  20.189  19.757   9.161
 1965POPC   C1A27903  19.743  19.807   8.959
 1965POPC   D2A27904  19.690  20.108   8.608
 1965POPC   C3A27905  19.706  20.018   8.164
 1965POPC   C4A27906  19.819  20.095   7.765
 1965POPC   C1B27907  20.164  19.583   8.771
 1965POPC   C2B27908  20.126  19.844   8.401
 1965POPC   C3B27909  20.105  19.715   7.973
 1965POPC   C4B27910  20.380  19.546   7.690
 1966POPC   NC327911  32.229  35.753   9.573
 1966POPC   PO427912  32.259  36.384   9.528
 1966POPC   GL127913  32.262  36.117   9.176
 1966POPC   GL227914  32.573  36.041   8.982
 1966POPC   C1A27915  32.104  36.083   8.773
 1966POPC   D2A27916  32.333  36.094   8.369
 1966POPC   C3A27917  32.182  35.853   8.006
 1966POPC   C4A27918  31.940  36.064   7.722
 1966POPC   C1B27919  32.516  36.435   8.724
 1966POPC   C2B27920  32.596  36.547   8.272
 1966POPC   C3B27921  32.528  36.250   7.899
 1966POPC   C4B27922  32.846  35.971   7.733
 1967POPC   NC327923  11.060  22.274   9.560
 1967POPC   PO427924  11.423  21.809   9.298
 1967POPC   GL127925  11.286  22.205   9.088
 1967POPC   GL227926  10.957  22.417   9.087
 1967POPC   C1A27927  11.153  22.112   8.692
 1967POPC   D2A27928  10.936  22.094   8.329
 1967POPC   C3A27929  11.254  22.031   8.044
 1967POPC   C4A27930  11.106  21.962   7.657
 1967POPC   C1B27931  11.156  22.606   8.724
 1967POPC   C2B27932  11.316  22.470   8.341
 1967POPC   C3B27933  11.155  22.515   7.929
 1967POPC   C4B27934  11.223  22.501   7.497
 1968POPC   NC327935  34.093  10.721   9.330
 1968POPC   PO427936  33.441  10.827   9.596
 1968POPC   GL127937  33.608  10.812   9.180
 1968POPC   GL227938  33.632  10.442   9.169
 1968POPC   C1A27939  33.775  10.715   8.734
 1968POPC   D2A27940  33.848  10.432   8.348
 1968POPC   C3A27941  33.569  10.530   7.993
 1968POPC   C4A27942  33.639  10.640   7.535
 1968POPC   C1B27943  33.612  10.222   8.754
 1968POPC   C2B27944  33.449  10.071   8.368
 1968POPC   C3B27945  33.635  10.019   7.961
 1968POPC   C4B27946  33.662  10.146   7.571
 1969POPC   NC327947  23.394  29.702   9.370
 1969POPC   PO427948  22.823  30.017   9.603
 1969POPC   GL127949  22.892  29.887   9.201
 1969POPC   GL227950  22.890  29.516   9.219
 1969POPC   C1A27951  22.930  30.115   8.798
 1969POPC   D2A27952  22.796  29.930   8.400
 1969POPC   C3A27953  22.942  30.083   8.014
 1969POPC   C4A27954  22.806  29.997   7.597
 1969POPC   C1B27955  23.040  29.620   8.780
 1969POPC   C2B27956  23.179  29.533   8.362
 1969POPC   C3B27957  22.983  29.583   7.985
 1969POPC   C4B27958  23.051  29.468   7.578
 1970POPC   NC327959  20.295  15.939   9.474
 1970POPC   PO427960  20.886  16.304   9.562
 1970POPC   GL127961  20.793  16.246   9.103
 1970POPC   GL227962  20.600  15.948   9.074
 1970POPC   C1A27963  20.685  16.202   8.650
 1970POPC   D2A27964  20.375  16.012   8.397
 1970POPC   C3A27965  20.411  16.335   8.111
 1970POPC   C4A27966  20.705  16.315   7.790
 1970POPC   C1B27967  20.921  15.776   8.786
 1970POPC   C2B27968  20.835  15.817   8.334
 1970POPC   C3B27969  20.904  15.844   7.911
 1970POPC   C4B27970  20.801  15.555   7.574
 1971POPC   NC327971  39.701  19.755   9.464
 1971POPC   PO427972  40.309  19.996   9.598
 1971POPC   GL127973  40.172  19.736   9.240
 1971POPC   GL227974  40.009  20.032   9.143
 1971POPC   C1A27975  40.016  19.617   8.799
 1971POPC   D2A27976  40.240  19.593   8.394
 1971POPC   C3A27977  40.153  19.453   7.944
 1971POPC   C4A27978  39.803  19.552   7.630
 1971POPC   C1B27979  39.835  20.102   8.761
 1971POPC   C2B27980  39.762  19.901   8.423
 1971POPC   C3B27981  39.870  19.849   8.046
 1971POPC   C4B27982  40.060  20.080   7.750
 1972POPC   NC327983   0.485  44.118   9.606
 1972POPC   PO427984   0.819  43.581   9.748
 1972POPC   GL127985   0.503  43.689   9.311
 1972POPC   GL227986   0.483  44.029   9.109
 1972POPC   C1A27987   0.442  43.611   8.815
 1972POPC   D2A27988   0.586  43.533   8.360
 1972POPC   C3A27989   0.382  43.744   8.035
 1972POPC   C4A27990   0.327  44.121   7.795
 1972POPC   C1B27991   0.692  44.030   8.678
 1972POPC   C2B27992   0.802  44.023   8.217
 1972POPC   C3B27993   0.832  44.110   7.757
 1972POPC   C4B27994   0.966  44.164   7.323
 1973POPC   NC327995   2.989  23.530   9.413
 1973POPC   PO427996   2.578  24.070   9.357
 1973POPC   GL127997   2.826  23.838   9.046
 1973POPC   GL227998   2.740  23.463   8.964
 1973POPC   C1A27999   2.910  23.779   8.617
 1973POPC   D2A28000   2.786  23.666   8.213
 1973POPC   C3A28001   2.548  23.896   7.931
 1973POPC   C4A28002   2.933  23.888   7.682
 1973POPC   C1B28003   3.087  23.278   8.726
 1973POPC   C2B28004   3.287  23.333   8.322
 1973POPC   C3B28005   3.171  23.480   7.903
 1973POPC   C4B28006   3.042  23.322   7.466
 1974POPC   NC328007  11.926  18.067   9.568
 1974POPC   PO428008  12.076  18.753   9.679
 1974POPC   GL128009  11.962  18.510   9.285
 1974POPC   GL228010  12.238  18.369   9.106
 1974POPC   C1A28011  11.856  18.495   8.824
 1974POPC   D2A28012  11.921  18.193   8.503
 1974POPC   C3A28013  12.076  18.250   8.110
 1974POPC   C4A28014  11.982  18.198   7.689
 1974POPC   C1B28015  12.266  17.994   8.830
 1974POPC   C2B28016  12.341  17.881   8.419
 1974POPC   C3B28017  12.634  18.003   8.131
 1974POPC   C4B28018  12.494  18.247   7.793
 1975POPC   NC328019   4.724  17.934   9.717
 1975POPC   PO428020   4.162  18.427   9.605
 1975POPC   GL128021   4.178  18.320   9.150
 1975POPC   GL228022   4.438  18.546   8.966
 1975POPC   C1A28023   4.014  18.462   8.737
 1975POPC   D2A28024   4.191  18.616   8.349
 1975POPC   C3A28025   4.112  18.394   7.954
 1975POPC   C4A28026   4.278  18.004   7.813
 1975POPC   C1B28027   4.516  18.172   8.715
 1975POPC   C2B28028   4.640  17.959   8.290
 1975POPC   C3B28029   4.750  18.180   7.888
 1975POPC   C4B28030   4.541  18.524   7.683
 1976POPC   NC328031  10.973  32.519   9.407
 1976POPC   PO428032  10.667  33.232   9.470
 1976POPC   GL128033  10.693  32.904   9.212
 1976POPC   GL228034  10.443  32.658   9.276
 1976POPC   C1A28035  10.899  32.893   8.837
 1976POPC   D2A28036  10.876  33.125   8.464
 1976POPC   C3A28037  10.492  33.102   8.207
 1976POPC   C4A28038  10.583  32.907   7.796
 1976POPC   C1B28039  10.415  32.731   8.814
 1976POPC   C2B28040  10.109  32.801   8.497
 1976POPC   C3B28041  10.245  32.671   8.080
 1976POPC   C4B28042  10.206  32.521   7.699
 1977POPC   NC328043  36.619  12.449   9.472
 1977POPC   PO428044  36.994  13.062   9.488
 1977POPC   GL128045  36.843  12.811   9.148
 1977POPC   GL228046  37.081  12.556   9.061
 1977POPC   C1A28047  36.699  12.686   8.717
 1977POPC   D2A28048  36.675  12.517   8.281
 1977POPC   C3A28049  36.553  12.877   8.023
 1977POPC   C4A28050  36.752  13.213   7.783
 1977POPC   C1B28051  37.267  12.686   8.701
 1977POPC   C2B28052  37.111  12.775   8.308
 1977POPC   C3B28053  37.020  12.756   7.886
 1977POPC   C4B28054  37.238  12.561   7.576
 1978POPC   NC328055  25.869   5.561   9.809
 1978POPC   PO428056  25.347   5.918   9.502
 1978POPC   GL128057  25.287   5.756   9.122
 1978POPC   GL228058  25.540   6.000   9.023
 1978POPC   C1A28059  25.119   5.873   8.733
 1978POPC   D2A28060  24.875   5.780   8.386
 1978POPC   C3A28061  24.991   5.950   7.999
 1978POPC   C4A28062  24.994   5.773   7.614
 1978POPC   C1B28063  25.639   5.700   8.683
 1978POPC   C2B28064  25.695   5.547   8.269
 1978POPC   C3B28065  25.562   5.660   7.849
 1978POPC   C4B28066  25.445   6.081   7.705
 1979POPC   NC328067  42.029   1.972   9.464
 1979POPC   PO428068  42.610   1.828   9.558
 1979POPC   GL128069  42.559   1.781   9.098
 1979POPC   GL228070  42.336   2.039   9.070
 1979POPC   C1A28071  42.425   1.838   8.627
 1979POPC   D2A28072  42.418   2.109   8.251
 1979POPC   C3A28073  42.190   1.849   7.950
 1979POPC   C4A28074  41.789   1.841   7.750
 1979POPC   C1B28075  42.185   2.280   8.715
 1979POPC   C2B28076  42.000   2.468   8.362
 1979POPC   C3B28077  41.961   2.304   7.972
 1979POPC   C4B28078  42.221   2.236   7.631
 1980POPC   NC328079   3.893  16.502   9.454
 1980POPC   PO428080   4.312  17.033   9.501
 1980POPC   GL128081   4.393  16.729   9.182
 1980POPC   GL228082   4.164  16.526   9.003
 1980POPC   C1A28083   4.625  16.749   8.810
 1980POPC   D2A28084   4.417  16.565   8.516
 1980POPC   C3A28085   4.442  16.653   8.091
 1980POPC   C4A28086   4.587  16.788   7.705
 1980POPC   C1B28087   4.174  16.963   8.765
 1980POPC   C2B28088   4.225  17.062   8.319
 1980POPC   C3B28089   4.191  17.097   7.868
 1980POPC   C4B28090   3.833  17.070   7.574
 1981POPC   NC328091  21.647  38.590   9.511
 1981POPC   PO428092  21.082  38.991   9.441
 1981POPC   GL128093  21.176  38.631   9.174
 1981POPC   GL228094  21.508  38.590   9.026
 1981POPC   C1A28095  21.122  38.451   8.745
 1981POPC   D2A28096  21.442  38.398   8.416
 1981POPC   C3A28097  21.354  38.549   8.025
 1981POPC   C4A28098  21.126  38.353   7.738
 1981POPC   C1B28099  21.741  38.810   8.710
 1981POPC   C2B28100  21.747  38.789   8.272
 1981POPC   C3B28101  21.789  38.842   7.848
 1981POPC   C4B28102  21.941  38.705   7.454
 1982POPC   NC328103  40.839   6.484   9.583
 1982POPC   PO428104  40.430   6.901   9.170
 1982POPC   GL128105  40.788   6.607   9.083
 1982POPC   GL228106  41.026   6.774   8.890
 1982POPC   C1A28107  40.828   6.280   8.736
 1982POPC   D2A28108  40.699   6.231   8.275
 1982POPC   C3A28109  40.868   6.405   7.864
 1982POPC   C4A28110  40.945   6.809   7.650
 1982POPC   C1B28111  40.702   6.746   8.572
 1982POPC   C2B28112  40.371   6.862   8.320
 1982POPC   C3B28113  40.507   6.779   7.933
 1982POPC   C4B28114  40.373   6.340   7.822
 1983POPC   NC328115  35.184  21.560   9.489
 1983POPC   PO428116  35.574  20.954   9.579
 1983POPC   GL128117  35.548  21.286   9.228
 1983POPC   GL228118  35.213  21.436   9.004
 1983POPC   C1A28119  35.689  21.525   8.891
 1983POPC   D2A28120  35.458  21.590   8.536
 1983POPC   C3A28121  35.444  21.259   8.251
 1983POPC   C4A28122  35.300  21.205   7.819
 1983POPC   C1B28123  34.966  21.712   8.672
 1983POPC   C2B28124  34.956  21.822   8.199
 1983POPC   C3B28125  35.097  21.662   7.768
 1983POPC   C4B28126  35.173  21.645   7.329
 1984POPC   NC328127  20.125  37.369   9.623
 1984POPC   PO428128  19.494  37.112   9.615
 1984POPC   GL128129  19.686  37.117   9.236
 1984POPC   GL228130  20.007  37.084   9.204
 1984POPC   C1A28131  19.683  37.144   8.804
 1984POPC   D2A28132  19.775  37.003   8.436
 1984POPC   C3A28133  19.539  36.884   8.109
 1984POPC   C4A28134  19.737  37.034   7.743
 1984POPC   C1B28135  20.220  36.887   8.859
 1984POPC   C2B28136  20.206  36.725   8.454
 1984POPC   C3B28137  20.096  36.851   8.073
 1984POPC   C4B28138  20.275  36.909   7.680
 1985POPC   NC328139  34.670  40.244   9.555
 1985POPC   PO428140  34.297  39.772   9.302
 1985POPC   GL128141  34.559  39.855   9.011
 1985POPC   GL228142  34.822  40.025   9.138
 1985POPC   C1A28143  34.560  39.903   8.582
 1985POPC   D2A28144  34.255  39.837   8.280
 1985POPC   C3A28145  34.142  40.131   7.982
 1985POPC   C4A28146  34.342  39.833   7.738
 1985POPC   C1B28147  34.583  40.343   8.841
 1985POPC   C2B28148  34.382  40.352   8.396
 1985POPC   C3B28149  34.599  40.327   7.957
 1985POPC   C4B28150  34.677  40.157   7.551
 1986POPC   NC328151  33.258   2.197   9.439
 1986POPC   PO428152  32.753   1.726   9.521
 1986POPC   GL128153  32.818   1.992   9.169
 1986POPC   GL228154  33.123   1.943   8.998
 1986POPC   C1A28155  32.677   1.936   8.736
 1986POPC   D2A28156  32.918   1.856   8.370
 1986POPC   C3A28157  32.901   2.071   8.007
 1986POPC   C4A28158  33.026   1.954   7.625
 1986POPC   C1B28159  33.462   2.180   8.818
 1986POPC   C2B28160  33.433   2.439   8.494
 1986POPC   C3B28161  33.299   2.415   8.092
 1986POPC   C4B28162  33.586   2.579   7.803
 1987POPC   NC328163   8.767  22.453   9.497
 1987POPC   PO428164   9.074  21.793   9.302
 1987POPC   GL128165   9.088  22.158   9.108
 1987POPC   GL228166   8.744  22.165   9.065
 1987POPC   C1A28167   9.269  22.103   8.725
 1987POPC   D2A28168   9.472  22.089   8.340
 1987POPC   C3A28169   9.193  22.155   7.966
 1987POPC   C4A28170   9.070  22.075   7.525
 1987POPC   C1B28171   8.797  22.363   8.671
 1987POPC   C2B28172   8.786  22.321   8.247
 1987POPC   C3B28173   8.683  21.994   7.986
 1987POPC   C4B28174   8.555  22.049   7.603
 1988POPC   NC328175  12.273  38.300   9.549
 1988POPC   PO428176  11.825  38.781   9.360
 1988POPC   GL128177  12.113  38.565   9.148
 1988POPC   GL228178  11.924  38.273   9.084
 1988POPC   C1A28179  12.286  38.674   8.778
 1988POPC   D2A28180  12.090  38.752   8.408
 1988POPC   C3A28181  12.358  38.727   8.100
 1988POPC   C4A28182  12.298  38.531   7.742
 1988POPC   C1B28183  11.972  38.288   8.644
 1988POPC   C2B28184  11.977  38.294   8.160
 1988POPC   C3B28185  11.904  38.202   7.714
 1988POPC   C4B28186  12.149  38.233   7.345
 1989POPC   NC328187  24.323  27.256   9.351
 1989POPC   PO428188  24.238  26.615   9.448
 1989POPC   GL128189  24.357  26.812   9.081
 1989POPC   GL228190  24.706  26.937   9.183
 1989POPC   C1A28191  24.246  26.777   8.638
 1989POPC   D2A28192  24.204  26.712   8.189
 1989POPC   C3A28193  24.167  27.000   7.859
 1989POPC   C4A28194  24.407  27.152   7.491
 1989POPC   C1B28195  24.760  26.741   8.777
 1989POPC   C2B28196  24.673  26.600   8.362
 1989POPC   C3B28197  24.629  26.649   7.902
 1989POPC   C4B28198  24.865  26.910   7.622
 1990POPC   NC328199  37.731  26.820   9.551
 1990POPC   PO428200  37.228  27.208   9.301
 1990POPC   GL128201  37.568  26.983   9.069
 1990POPC   GL228202  37.664  26.655   9.080
 1990POPC   C1A28203  37.792  26.930   8.654
 1990POPC   D2A28204  37.642  26.847   8.226
 1990POPC   C3A28205  37.926  26.952   7.875
 1990POPC   C4A28206  37.863  27.150   7.450
 1990POPC   C1B28207  37.414  26.615   8.713
 1990POPC   C2B28208  37.169  26.667   8.338
 1990POPC   C3B28209  37.220  26.791   7.897
 1990POPC   C4B28210  37.557  26.743   7.585
 1991POPC   NC328211  42.368  16.939   9.498
 1991POPC   PO428212  41.903  16.363   9.491
 1991POPC   GL128213  42.211  16.548   9.210
 1991POPC   GL228214  42.527  16.424   9.217
 1991POPC   C1A28215  42.274  16.832   8.839
 1991POPC   D2A28216  42.095  16.833   8.444
 1991POPC   C3A28217  42.347  16.960   8.097
 1991POPC   C4A28218  42.369  16.912   7.684
 1991POPC   C1B28219  42.400  16.357   8.770
 1991POPC   C2B28220  42.507  16.517   8.364
 1991POPC   C3B28221  42.435  16.479   7.924
 1991POPC   C4B28222  42.419  16.420   7.495
 1992POPC   NC328223  14.638   4.239   9.874
 1992POPC   PO428224  14.128   4.405   9.480
 1992POPC   GL128225  14.401   4.608   9.179
 1992POPC   GL228226  14.131   4.780   9.070
 1992POPC   C1A28227  14.521   4.559   8.734
 1992POPC   D2A28228  14.655   4.248   8.429
 1992POPC   C3A28229  14.590   4.337   8.007
 1992POPC   C4A28230  14.415   4.058   7.702
 1992POPC   C1B28231  14.044   4.386   8.819
 1992POPC   C2B28232  14.142   4.374   8.392
 1992POPC   C3B28233  14.075   4.301   7.968
 1992POPC   C4B28234  14.107   4.426   7.514
 1993POPC   NC328235   2.092  23.341   9.484
 1993POPC   PO428236   1.701  22.862   9.536
 1993POPC   GL128237   1.983  22.878   9.182
 1993POPC   GL228238   2.327  22.937   9.222
 1993POPC   C1A28239   2.183  22.683   8.811
 1993POPC   D2A28240   2.074  22.588   8.392
 1993POPC   C3A28241   1.944  22.858   8.052
 1993POPC   C4A28242   1.864  22.707   7.644
 1993POPC   C1B28243   2.220  23.229   8.859
 1993POPC   C2B28244   2.179  23.088   8.455
 1993POPC   C3B28245   2.457  22.827   8.169
 1993POPC   C4B28246   2.376  22.845   7.731
 1994POPC   NC328247  37.455  27.549   9.517
 1994POPC   PO428248  36.816  27.502   9.644
 1994POPC   GL128249  36.752  27.461   9.206
 1994POPC   GL228250  37.058  27.647   9.111
 1994POPC   C1A28251  36.727  27.383   8.760
 1994POPC   D2A28252  36.576  27.611   8.388
 1994POPC   C3A28253  36.692  27.469   7.946
 1994POPC   C4A28254  36.753  27.684   7.525
 1994POPC   C1B28255  37.186  27.663   8.674
 1994POPC   C2B28256  37.075  27.625   8.238
 1994POPC   C3B28257  37.202  27.644   7.798
 1994POPC   C4B28258  37.227  28.016   7.535
 1995POPC   NC328259   0.590  11.562   9.668
 1995POPC   PO428260   0.071  11.229   9.415
 1995POPC   GL128261   0.219  11.551   9.187
 1995POPC   GL228262   0.540  11.422   9.173
 1995POPC   C1A28263   0.210  11.590   8.753
 1995POPC   D2A28264   0.192  11.271   8.437
 1995POPC   C3A28265   0.289  11.402   8.053
 1995POPC   C4A28266   0.107  11.309   7.681
 1995POPC   C1B28267   0.560  11.197   8.783
 1995POPC   C2B28268   0.771  11.070   8.387
 1995POPC   C3B28269   0.663  11.055   7.954
 1995POPC   C4B28270   0.623  11.356   7.626
 1996POPC   NC328271  23.969   3.960   9.539
 1996POPC   PO428272  23.406   3.639   9.604
 1996POPC   GL128273  23.655   3.607   9.252
 1996POPC   GL228274  23.592   3.934   9.101
 1996POPC   C1A28275  23.721   3.264   8.935
 1996POPC   D2A28276  23.767   3.223   8.480
 1996POPC   C3A28277  23.511   3.502   8.221
 1996POPC   C4A28278  23.502   3.526   7.758
 1996POPC   C1B28279  23.959   3.723   8.860
 1996POPC   C2B28280  24.055   3.645   8.425
 1996POPC   C3B28281  24.001   3.571   7.988
 1996POPC   C4B28282  23.953   3.761   7.581
 1997POPC   NC328283  37.745  22.413   9.540
 1997POPC   PO428284  37.878  21.748   9.336
 1997POPC   GL128285  37.697  22.100   9.130
 1997POPC   GL228286  37.949  22.383   9.076
 1997POPC   C1A28287  37.495  22.056   8.754
 1997POPC   D2A28288  37.598  22.208   8.377
 1997POPC   C3A28289  37.313  22.293   8.089
 1997POPC   C4A28290  37.547  22.348   7.712
 1997POPC   C1B28291  37.998  22.102   8.697
 1997POPC   C2B28292  37.885  21.796   8.360
 1997POPC   C3B28293  37.876  21.991   7.955
 1997POPC   C4B28294  38.253  22.176   7.804
 1998POPC   NC328295  35.349  22.546   9.493
 1998POPC   PO428296  35.554  21.893   9.440
 1998POPC   GL128297  35.442  22.151   9.144
 1998POPC   GL228298  35.107  22.164   9.267
 1998POPC   C1A28299  35.588  22.063   8.734
 1998POPC   D2A28300  35.783  21.947   8.351
 1998POPC   C3A28301  35.485  21.799   8.065
 1998POPC   C4A28302  35.251  22.116   7.853
 1998POPC   C1B28303  35.061  22.192   8.806
 1998POPC   C2B28304  35.255  22.251   8.376
 1998POPC   C3B28305  35.339  22.559   8.046
 1998POPC   C4B28306  35.103  22.546   7.625
 1999POPC   NC328307  34.477  22.062   9.558
 1999POPC   PO428308  34.842  22.637   9.431
 1999POPC   GL128309  34.625  22.353   9.153
 1999POPC   GL228310  34.688  21.954   9.108
 1999POPC   C1A28311  34.468  22.372   8.750
 1999POPC   D2A28312  34.717  22.231   8.426
 1999POPC   C3A28313  34.824  22.416   8.050
 1999POPC   C4A28314  34.766  22.128   7.721
 1999POPC   C1B28315  34.445  21.697   8.861
 1999POPC   C2B28316  34.283  21.895   8.522
 1999POPC   C3B28317  34.413  21.939   8.130
 1999POPC   C4B28318  34.156  21.859   7.786
 2000POPC   NC328319  10.153  43.720   9.418
 2000POPC   PO428320   9.625  44.018   9.439
 2000POPC   GL128321   9.602  44.117   9.011
 2000POPC   GL228322   9.812  43.791   8.962
 2000POPC   C1A28323   9.657  44.051   8.540
 2000POPC   D2A28324   9.660  43.745   8.199
 2000POPC   C3A28325   9.623  43.959   7.821
 2000POPC   C4A28326   9.348  44.255   7.664
 2000POPC   C1B28327  10.085  44.147   8.833
 2000POPC   C2B28328  10.092  44.307   8.423
 2000POPC   C3B28329  10.061  44.040   8.069
 2000POPC   C4B28330  10.080  43.842   7.663
 2001POPC   NC328331  11.077  34.761   9.449
 2001POPC   PO428332  11.665  34.442   9.673
 2001POPC   GL128333  11.504  34.559   9.236
 2001POPC   GL228334  11.802  34.531   9.182
 2001POPC   C1A28335  11.450  34.450   8.771
 2001POPC   D2A28336  11.332  34.265   8.350
 2001POPC   C3A28337  11.174  34.363   7.919
 2001POPC   C4A28338  10.957  34.671   7.612
 2001POPC   C1B28339  11.877  34.742   8.828
 2001POPC   C2B28340  11.726  34.797   8.433
 2001POPC   C3B28341  11.560  34.888   8.037
 2001POPC   C4B28342  11.471  34.685   7.669
 2002POPC   NC328343   1.810   8.125   9.592
 2002POPC   PO428344   2.454   7.971   9.454
 2002POPC   GL128345   2.233   8.268   9.140
 2002POPC   GL228346   1.864   8.299   9.126
 2002POPC   C1A28347   2.261   8.481   8.754
 2002POPC   D2A28348   2.261   8.649   8.322
 2002POPC   C3A28349   2.200   8.286   8.004
 2002POPC   C4A28350   2.079   8.251   7.560
 2002POPC   C1B28351   1.752   8.504   8.768
 2002POPC   C2B28352   1.837   8.342   8.378
 2002POPC   C3B28353   1.704   8.231   7.935
 2002POPC   C4B28354   1.606   8.498   7.588
 2003POPC   NC328355   4.117   3.298   9.616
 2003POPC   PO428356   4.744   3.170   9.478
 2003POPC   GL128357   4.577   3.503   9.159
 2003POPC   GL228358   4.244   3.647   9.241
 2003POPC   C1A28359   4.446   3.734   8.763
 2003POPC   D2A28360   4.352   3.763   8.326
 2003POPC   C3A28361   4.567   3.513   8.049
 2003POPC   C4A28362   4.591   3.680   7.701
 2003POPC   C1B28363   4.011   3.503   8.867
 2003POPC   C2B28364   3.823   3.503   8.463
 2003POPC   C3B28365   4.019   3.443   8.097
 2003POPC   C4B28366   4.108   3.566   7.705
 2004POPC   NC328367  19.502  38.921   9.605
 2004POPC   PO428368  18.965  39.280   9.544
 2004POPC   GL128369  18.999  39.193   9.087
 2004POPC   GL228370  19.334  39.084   9.142
 2004POPC   C1A28371  19.072  38.967   8.716
 2004POPC   D2A28372  19.297  38.946   8.343
 2004POPC   C3A28373  18.945  38.954   8.073
 2004POPC   C4A28374  19.067  38.919   7.672
 2004POPC   C1B28375  19.452  39.281   8.738
 2004POPC   C2B28376  19.397  39.487   8.328
 2004POPC   C3B28377  19.306  39.305   7.938
 2004POPC   C4B28378  19.503  39.185   7.548
 2005POPC   NC328379   3.861  11.508   9.862
 2005POPC   PO428380   3.484  11.046   9.499
 2005POPC   GL128381   3.392  11.315   9.170
 2005POPC   GL228382   3.044  11.398   9.181
 2005POPC   C1A28383   3.657  11.474   8.784
 2005POPC   D2A28384   3.578  11.594   8.352
 2005POPC   C3A28385   3.612  11.268   8.033
 2005POPC   C4A28386   3.697  11.377   7.611
 2005POPC   C1B28387   3.173  11.300   8.732
 2005POPC   C2B28388   3.223  10.987   8.412
 2005POPC   C3B28389   3.107  11.046   8.005
 2005POPC   C4B28390   3.253  11.170   7.615
 2006POPC   NC328391  11.838  43.390   9.536
 2006POPC   PO428392  12.010  42.696   9.543
 2006POPC   GL128393  12.041  42.978   9.185
 2006POPC   GL228394  11.878  43.248   9.047
 2006POPC   C1A28395  12.144  42.894   8.768
 2006POPC   D2A28396  11.942  42.865   8.381
 2006POPC   C3A28397  12.161  42.889   8.009
 2006POPC   C4A28398  12.070  43.156   7.657
 2006POPC   C1B28399  11.878  43.371   8.603
 2006POPC   C2B28400  11.935  43.447   8.147
 2006POPC   C3B28401  11.739  43.521   7.751
 2006POPC   C4B28402  11.833  43.485   7.325
 2007POPC   NC328403  15.362  33.263   9.451
 2007POPC   PO428404  14.853  32.818   9.558
 2007POPC   GL128405  15.007  32.987   9.181
 2007POPC   GL228406  15.219  32.719   9.119
 2007POPC   C1A28407  15.093  33.160   8.764
 2007POPC   D2A28408  14.872  33.040   8.374
 2007POPC   C3A28409  14.933  32.826   7.975
 2007POPC   C4A28410  14.938  33.056   7.598
 2007POPC   C1B28411  15.111  32.657   8.677
 2007POPC   C2B28412  15.364  32.626   8.314
 2007POPC   C3B28413  15.458  32.740   7.884
 2007POPC   C4B28414  15.369  32.874   7.455
 2008POPC   NC328415  24.099   5.611   9.608
 2008POPC   PO428416  23.818   6.178   9.444
 2008POPC   GL128417  23.719   5.733   9.256
 2008POPC   GL228418  23.983   5.484   9.129
 2008POPC   C1A28419  23.609   5.714   8.816
 2008POPC   D2A28420  23.612   6.068   8.495
 2008POPC   C3A28421  23.603   5.943   8.056
 2008POPC   C4A28422  23.661   5.763   7.659
 2008POPC   C1B28423  23.980   5.345   8.726
 2008POPC   C2B28424  23.861   5.602   8.372
 2008POPC   C3B28425  24.034   5.622   7.972
 2008POPC   C4B28426  24.061   5.438   7.548
 2009POPC   NC328427   5.830   5.778   9.659
 2009POPC   PO428428   5.695   5.264   9.329
 2009POPC   GL128429   5.845   5.685   9.149
 2009POPC   GL228430   6.109   5.976   9.101
 2009POPC   C1A28431   5.772   5.872   8.749
 2009POPC   D2A28432   5.666   5.723   8.397
 2009POPC   C3A28433   5.714   5.823   8.016
 2009POPC   C4A28434   5.672   5.436   7.831
 2009POPC   C1B28435   6.099   6.253   8.731
 2009POPC   C2B28436   6.067   6.109   8.293
 2009POPC   C3B28437   6.096   6.084   7.818
 2009POPC   C4B28438   6.129   6.138   7.344
 2010POPC   NC328439   7.988  42.505   9.476
 2010POPC   PO428440   8.618  42.652   9.520
 2010POPC   GL128441   8.561  42.507   9.094
 2010POPC   GL228442   8.269  42.303   9.102
 2010POPC   C1A28443   8.539  42.368   8.665
 2010POPC   D2A28444   8.503  42.104   8.323
 2010POPC   C3A28445   8.523  42.342   7.930
 2010POPC   C4A28446   8.245  42.593   7.712
 2010POPC   C1B28447   7.994  42.296   8.763
 2010POPC   C2B28448   8.089  42.417   8.344
 2010POPC   C3B28449   7.993  42.197   7.979
 2010POPC   C4B28450   7.750  42.425   7.714
 2011POPC   NC328451   8.990   5.545   9.471
 2011POPC   PO428452   9.225   6.257   9.449
 2011POPC   GL128453   9.082   5.961   9.149
 2011POPC   GL228454   8.721   5.933   9.240
 2011POPC   C1A28455   9.168   5.771   8.742
 2011POPC   D2A28456   9.222   5.873   8.275
 2011POPC   C3A28457   8.869   5.939   7.994
 2011POPC   C4A28458   8.809   5.670   7.622
 2011POPC   C1B28459   8.683   5.967   8.793
 2011POPC   C2B28460   8.658   6.227   8.437
 2011POPC   C3B28461   8.490   6.328   8.031
 2011POPC   C4B28462   8.469   6.036   7.679
 2012POPC   NC328463  39.719  39.007   9.791
 2012POPC   PO428464  40.139  39.447   9.415
 2012POPC   GL128465  40.052  39.352   9.042
 2012POPC   GL228466  40.146  39.012   9.018
 2012POPC   C1A28467  40.223  39.460   8.684
 2012POPC   D2A28468  40.247  39.280   8.328
 2012POPC   C3A28469  40.184  39.553   7.996
 2012POPC   C4A28470  39.876  39.405   7.770
 2012POPC   C1B28471  39.900  39.030   8.652
 2012POPC   C2B28472  39.672  38.810   8.352
 2012POPC   C3B28473  39.639  38.998   7.948
 2012POPC   C4B28474  39.603  39.059   7.488
 2013POPC   NC328475  26.463  40.704   9.911
 2013POPC   PO428476  27.032  40.657   9.569
 2013POPC   GL128477  26.927  40.700   9.136
 2013POPC   GL228478  27.029  40.362   9.102
 2013POPC   C1A28479  26.882  40.893   8.734
 2013POPC   D2A28480  26.632  40.838   8.354
 2013POPC   C3A28481  26.827  40.974   7.958
 2013POPC   C4A28482  27.202  41.167   7.805
 2013POPC   C1B28483  26.963  40.396   8.646
 2013POPC   C2B28484  26.943  40.422   8.206
 2013POPC   C3B28485  26.876  40.505   7.750
 2013POPC   C4B28486  26.595  40.636   7.397
 2014POPC   NC328487  15.344  38.373   9.539
 2014POPC   PO428488  14.930  38.954   9.486
 2014POPC   GL128489  15.082  38.683   9.122
 2014POPC   GL228490  15.190  38.315   9.065
 2014POPC   C1A28491  15.266  38.776   8.702
 2014POPC   D2A28492  15.161  38.868   8.239
 2014POPC   C3A28493  15.401  38.630   7.911
 2014POPC   C4A28494  15.436  38.389   7.494
 2014POPC   C1B28495  14.970  38.364   8.665
 2014POPC   C2B28496  15.093  38.314   8.218
 2014POPC   C3B28497  15.022  38.331   7.768
 2014POPC   C4B28498  14.931  38.391   7.308
 2015POPC   NC328499  16.341  35.100   9.592
 2015POPC   PO428500  15.787  35.411   9.526
 2015POPC   GL128501  15.754  35.394   9.086
 2015POPC   GL228502  15.535  35.158   9.009
 2015POPC   C1A28503  15.981  35.422   8.684
 2015POPC   D2A28504  16.201  35.630   8.336
 2015POPC   C3A28505  16.256  35.350   7.968
 2015POPC   C4A28506  16.211  35.397   7.539
 2015POPC   C1B28507  15.635  35.041   8.585
 2015POPC   C2B28508  15.808  35.225   8.218
 2015POPC   C3B28509  15.743  35.348   7.795
 2015POPC   C4B28510  15.845  34.970   7.616
 2016POPC   NC328511  26.435  15.686   9.413
 2016POPC   PO428512  25.809  16.105   9.483
 2016POPC   GL128513  26.030  16.167   9.132
 2016POPC   GL228514  26.298  16.003   9.009
 2016POPC   C1A28515  25.899  16.229   8.715
 2016POPC   D2A28516  26.153  16.158   8.366
 2016POPC   C3A28517  25.989  16.077   7.957
 2016POPC   C4A28518  25.977  15.822   7.584
 2016POPC   C1B28519  26.096  15.754   8.678
 2016POPC   C2B28520  26.117  15.622   8.233
 2016POPC   C3B28521  26.392  15.707   7.890
 2016POPC   C4B28522  26.424  16.071   7.663
 2017POPC   NC328523  36.607  42.738   9.421
 2017POPC   PO428524  36.821  42.062   9.380
 2017POPC   GL128525  37.020  42.434   9.195
 2017POPC   GL228526  36.716  42.470   8.991
 2017POPC   C1A28527  37.114  42.699   8.804
 2017POPC   D2A28528  36.800  42.579   8.488
 2017POPC   C3A28529  36.949  42.427   8.095
 2017POPC   C4A28530  37.016  42.606   7.687
 2017POPC   C1B28531  37.028  42.178   8.752
 2017POPC   C2B28532  36.994  41.877   8.416
 2017POPC   C3B28533  36.725  41.915   8.070
 2017POPC   C4B28534  36.796  42.124   7.689
 2018POPC   NC328535  39.910  11.689   9.413
 2018POPC   PO428536  40.239  11.223   9.267
 2018POPC   GL128537  39.919  11.134   8.986
 2018POPC   GL228538  39.628  11.315   9.096
 2018POPC   C1A28539  39.855  11.131   8.541
 2018POPC   D2A28540  40.154  11.056   8.209
 2018POPC   C3A28541  39.944  11.082   7.798
 2018POPC   C4A28542  39.880  11.095   7.373
 2018POPC   C1B28543  39.851  11.587   8.789
 2018POPC   C2B28544  40.114  11.567   8.490
 2018POPC   C3B28545  39.975  11.514   8.100
 2018POPC   C4B28546  39.921  11.583   7.688
 2019POPC   NC328547   6.821  40.936   9.479
 2019POPC   PO428548   6.405  40.335   9.457
 2019POPC   GL128549   6.665  40.497   9.152
 2019POPC   GL228550   6.500  40.807   9.092
 2019POPC   C1A28551   6.795  40.615   8.725
 2019POPC   D2A28552   6.767  40.658   8.291
 2019POPC   C3A28553   6.946  40.976   8.118
 2019POPC   C4A28554   6.946  40.762   7.754
 2019POPC   C1B28555   6.537  41.061   8.733
 2019POPC   C2B28556   6.400  41.025   8.315
 2019POPC   C3B28557   6.479  40.924   7.897
 2019POPC   C4B28558   6.752  41.239   7.721
 2020POPC   NC328559  22.872   6.957   9.598
 2020POPC   PO428560  22.974   6.333   9.799
 2020POPC   GL128561  22.997   6.546   9.304
 2020POPC   GL228562  23.112   6.907   9.162
 2020POPC   C1A28563  22.870   6.605   8.841
 2020POPC   D2A28564  22.709   6.592   8.402
 2020POPC   C3A28565  22.965   6.526   8.017
 2020POPC   C4A28566  22.877   6.402   7.593
 2020POPC   C1B28567  22.726   7.076   8.918
 2020POPC   C2B28568  22.760   7.187   8.491
 2020POPC   C3B28569  22.867   7.041   8.078
 2020POPC   C4B28570  23.012   6.923   7.662
 2021POPC   NC328571  15.378  30.612   9.469
 2021POPC   PO428572  15.702  30.127   9.320
 2021POPC   GL128573  15.743  30.436   8.977
 2021POPC   GL228574  15.476  30.692   8.945
 2021POPC   C1A28575  15.853  30.680   8.570
 2021POPC   D2A28576  15.875  30.819   8.129
 2021POPC   C3A28577  16.259  30.713   7.876
 2021POPC   C4A28578  16.483  30.466   7.556
 2021POPC   C1B28579  15.434  30.400   8.572
 2021POPC   C2B28580  15.686  30.330   8.157
 2021POPC   C3B28581  15.839  30.467   7.762
 2021POPC   C4B28582  15.639  30.827   7.615
 2022POPC   NC328583  40.390   0.095   9.388
 2022POPC   PO428584  40.880  44.675   9.434
 2022POPC   GL128585  40.765  44.608   9.037
 2022POPC   GL228586  40.727  44.944   9.034
 2022POPC   C1A28587  40.779  44.470   8.628
 2022POPC   D2A28588  40.584  44.535   8.242
 2022POPC   C3A28589  40.929  44.572   7.936
 2022POPC   C4A28590  40.950  44.642   7.495
 2022POPC   C1B28591  41.026  44.924   8.723
 2022POPC   C2B28592  40.874  44.937   8.325
 2022POPC   C3B28593  40.953   0.082   7.937
 2022POPC   C4B28594  40.749   0.147   7.572
 2023POPC   NC328595  24.496  41.945   9.568
 2023POPC   PO428596  24.627  42.610   9.504
 2023POPC   GL128597  24.421  42.394   9.182
 2023POPC   GL228598  24.358  42.024   9.095
 2023POPC   C1A28599  24.641  42.442   8.811
 2023POPC   D2A28600  24.810  42.784   8.553
 2023POPC   C3A28601  24.670  42.716   8.158
 2023POPC   C4A28602  24.670  42.585   7.750
 2023POPC   C1B28603  24.187  42.242   8.757
 2023POPC   C2B28604  24.280  42.498   8.430
 2023POPC   C3B28605  24.230  42.491   8.014
 2023POPC   C4B28606  24.164  42.217   7.738
 2024POPC   NC328607   2.142  29.416   9.409
 2024POPC   PO428608   2.252  28.704   9.453
 2024POPC   GL128609   1.978  29.012   9.136
 2024POPC   GL228610   1.925  29.401   8.958
 2024POPC   C1A28611   1.901  28.988   8.694
 2024POPC   D2A28612   2.136  28.977   8.327
 2024POPC   C3A28613   1.943  29.098   7.956
 2024POPC   C4A28614   2.005  29.085   7.531
 2024POPC   C1B28615   2.297  29.334   8.787
 2024POPC   C2B28616   2.423  29.426   8.425
 2024POPC   C3B28617   2.347  29.379   8.044
 2024POPC   C4B28618   2.085  29.534   7.743
 2025POPC   NC328619  39.433  35.165   9.559
 2025POPC   PO428620  38.798  35.163   9.759
 2025POPC   GL128621  38.935  35.202   9.318
 2025POPC   GL228622  39.041  35.569   9.263
 2025POPC   C1A28623  39.166  35.218   8.917
 2025POPC   D2A28624  39.163  35.429   8.527
 2025POPC   C3A28625  39.013  35.305   8.167
 2025POPC   C4A28626  39.257  35.110   7.846
 2025POPC   C1B28627  39.354  35.704   8.907
 2025POPC   C2B28628  39.626  35.648   8.515
 2025POPC   C3B28629  39.449  35.549   8.101
 2025POPC   C4B28630  39.518  35.692   7.679
 2026POPC   NC328631  26.693  43.535   9.487
 2026POPC   PO428632  27.152  44.032   9.552
 2026POPC   GL128633  26.893  43.945   9.212
 2026POPC   GL228634  26.957  43.590   9.078
 2026POPC   C1A28635  27.017  44.042   8.803
 2026POPC   D2A28636  26.823  44.231   8.486
 2026POPC   C3A28637  26.931  44.215   8.077
 2026POPC   C4A28638  26.759  43.900   7.850
 2026POPC   C1B28639  26.749  43.629   8.682
 2026POPC   C2B28640  26.932  43.706   8.291
 2026POPC   C3B28641  27.022  43.481   7.890
 2026POPC   C4B28642  26.935  43.544   7.434
 2027POPC   NC328643   9.002   1.723   9.417
 2027POPC   PO428644   9.393   2.250   9.363
 2027POPC   GL128645   8.974   2.148   9.154
 2027POPC   GL228646   9.214   1.907   8.974
 2027POPC   C1A28647   8.756   1.942   8.779
 2027POPC   D2A28648   8.966   1.914   8.384
 2027POPC   C3A28649   8.737   2.005   8.019
 2027POPC   C4A28650   8.959   1.722   7.779
 2027POPC   C1B28651   9.142   2.266   8.695
 2027POPC   C2B28652   9.074   2.394   8.282
 2027POPC   C3B28653   9.177   2.209   7.919
 2027POPC   C4B28654   9.128   2.307   7.523
 2028POPC   NC328655  44.922   5.542   9.422
 2028POPC   PO428656   0.537   5.771   9.463
 2028POPC   GL128657   0.253   5.812   9.093
 2028POPC   GL228658   0.295   6.153   8.965
 2028POPC   C1A28659   0.203   5.802   8.617
 2028POPC   D2A28660   0.145   6.029   8.209
 2028POPC   C3A28661   0.328   5.807   7.847
 2028POPC   C4A28662   0.270   5.719   7.384
 2028POPC   C1B28663   0.675   5.951   8.768
 2028POPC   C2B28664   0.635   5.910   8.322
 2028POPC   C3B28665   0.810   5.951   7.936
 2028POPC   C4B28666   0.748   5.823   7.522
 2029POPC   NC328667   9.367  21.420   9.322
 2029POPC   PO428668   8.804  21.523   9.689
 2029POPC   GL128669   8.864  21.283   9.246
 2029POPC   GL228670   8.749  21.482   8.938
 2029POPC   C1A28671   9.078  21.128   8.840
 2029POPC   D2A28672   8.993  21.378   8.478
 2029POPC   C3A28673   8.958  21.223   8.062
 2029POPC   C4A28674   9.296  21.220   7.748
 2029POPC   C1B28675   8.709  21.831   8.658
 2029POPC   C2B28676   9.013  21.876   8.365
 2029POPC   C3B28677   9.255  21.652   8.090
 2029POPC   C4B28678   8.979  21.620   7.736
 2030POPC   NC328679  43.252  21.962   9.686
 2030POPC   PO428680  43.211  21.253   9.669
 2030POPC   GL128681  43.301  21.150   9.249
 2030POPC   GL228682  43.007  21.040   9.060
 2030POPC   C1A28683  43.437  21.335   8.853
 2030POPC   D2A28684  43.425  21.531   8.448
 2030POPC   C3A28685  43.310  21.407   8.020
 2030POPC   C4A28686  42.986  21.087   7.971
 2030POPC   C1B28687  42.929  21.323   8.707
 2030POPC   C2B28688  42.945  21.607   8.348
 2030POPC   C3B28689  42.793  21.567   7.943
 2030POPC   C4B28690  42.609  21.759   7.622
 2031POPC   NC328691  40.023  37.297   9.642
 2031POPC   PO428692  39.725  37.905   9.406
 2031POPC   GL128693  40.071  37.757   9.108
 2031POPC   GL228694  40.059  37.422   9.124
 2031POPC   C1A28695  40.244  37.914   8.697
 2031POPC   D2A28696  40.182  37.714   8.282
 2031POPC   C3A28697  39.823  37.853   8.054
 2031POPC   C4A28698  40.033  38.084   7.757
 2031POPC   C1B28699  39.927  37.475   8.674
 2031POPC   C2B28700  39.826  37.343   8.218
 2031POPC   C3B28701  40.028  37.418   7.818
 2031POPC   C4B28702  40.055  37.343   7.347
 2032POPC   NC328703   7.564  23.205   9.527
 2032POPC   PO428704   7.687  22.610   9.465
 2032POPC   GL128705   7.642  22.913   9.112
 2032POPC   GL228706   7.290  23.070   9.087
 2032POPC   C1A28707   7.602  23.082   8.681
 2032POPC   D2A28708   7.215  22.937   8.457
 2032POPC   C3A28709   7.253  22.932   8.027
 2032POPC   C4A28710   7.598  22.978   7.734
 2032POPC   C1B28711   7.181  23.366   8.720
 2032POPC   C2B28712   7.303  23.427   8.255
 2032POPC   C3B28713   7.261  23.378   7.753
 2032POPC   C4B28714   7.211  23.065   7.403
 2033POPC   NC328715  13.163  29.493   9.385
 2033POPC   PO428716  13.497  28.909   9.594
 2033POPC   GL128717  13.776  29.077   9.245
 2033POPC   GL228718  13.628  29.339   9.129
 2033POPC   C1A28719  13.913  29.120   8.788
 2033POPC   D2A28720  13.628  29.085   8.433
 2033POPC   C3A28721  13.797  28.975   8.065
 2033POPC   C4A28722  13.623  29.054   7.707
 2033POPC   C1B28723  13.419  29.405   8.783
 2033POPC   C2B28724  13.498  29.583   8.409
 2033POPC   C3B28725  13.446  29.421   8.016
 2033POPC   C4B28726  13.131  29.374   7.723
 2034POPC   NC328727   0.519  17.712   9.555
 2034POPC   PO428728  44.984  17.276   9.515
 2034POPC   GL128729   0.259  17.447   9.184
 2034POPC   GL228730   0.571  17.273   9.266
 2034POPC   C1A28731   0.257  17.299   8.745
 2034POPC   D2A28732   0.272  17.228   8.300
 2034POPC   C3A28733   0.463  17.545   8.054
 2034POPC   C4A28734   0.435  17.518   7.591
 2034POPC   C1B28735   0.732  17.429   8.871
 2034POPC   C2B28736   0.765  17.359   8.425
 2034POPC   C3B28737   0.942  17.448   7.990
 2034POPC   C4B28738   0.947  17.450   7.536
 2035POPC   NC328739   8.850  37.700   9.436
 2035POPC   PO428740   9.381  37.605   9.512
 2035POPC   GL128741   9.212  37.777   9.102
 2035POPC   GL228742   8.996  37.505   8.984
 2035POPC   C1A28743   9.208  37.979   8.710
 2035POPC   D2A28744   9.024  37.805   8.336
 2035POPC   C3A28745   9.140  37.795   7.918
 2035POPC   C4A28746   8.935  37.480   7.676
 2035POPC   C1B28747   8.712  37.806   8.752
 2035POPC   C2B28748   8.545  38.010   8.371
 2035POPC   C3B28749   8.606  37.836   7.942
 2035POPC   C4B28750   8.745  37.977   7.558
 2036POPC   NC328751  21.408  36.281   9.604
 2036POPC   PO428752  21.329  35.639   9.633
 2036POPC   GL128753  21.210  35.968   9.250
 2036POPC   GL228754  21.509  36.064   9.157
 2036POPC   C1A28755  21.261  36.356   8.850
 2036POPC   D2A28756  21.137  36.579   8.434
 2036POPC   C3A28757  21.234  36.412   8.014
 2036POPC   C4A28758  21.152  36.006   7.765
 2036POPC   C1B28759  21.352  35.860   8.768
 2036POPC   C2B28760  21.350  36.071   8.385
 2036POPC   C3B28761  21.592  36.015   8.029
 2036POPC   C4B28762  21.611  36.205   7.611
 2037POPC   NC328763  41.663   7.683   9.547
 2037POPC   PO428764  41.314   7.224   9.314
 2037POPC   GL128765  41.468   7.644   9.073
 2037POPC   GL228766  41.824   7.819   9.092
 2037POPC   C1A28767  41.603   7.756   8.645
 2037POPC   D2A28768  41.421   7.879   8.237
 2037POPC   C3A28769  41.415   7.516   7.990
 2037POPC   C4A28770  41.361   7.082   7.854
 2037POPC   C1B28771  41.926   7.425   8.925
 2037POPC   C2B28772  41.985   7.311   8.506
 2037POPC   C3B28773  41.922   7.429   8.095
 2037POPC   C4B28774  41.917   7.263   7.736
 2038POPC   NC328775  28.299  17.067   9.417
 2038POPC   PO428776  28.243  16.412   9.562
 2038POPC   GL128777  28.171  16.531   9.170
 2038POPC   GL228778  28.437  16.733   9.050
 2038POPC   C1A28779  28.119  16.445   8.726
 2038POPC   D2A28780  28.349  16.653   8.414
 2038POPC   C3A28781  28.238  16.627   7.986
 2038POPC   C4A28782  28.469  16.746   7.606
 2038POPC   C1B28783  28.402  17.072   8.733
 2038POPC   C2B28784  28.178  17.136   8.341
 2038POPC   C3B28785  28.204  17.299   7.938
 2038POPC   C4B28786  28.057  17.194   7.523
 2039POPC   NC328787  34.007  37.618   9.661
 2039POPC   PO428788  33.394  37.574   9.461
 2039POPC   GL128789  33.769  37.611   9.202
 2039POPC   GL228790  34.111  37.431   9.152
 2039POPC   C1A28791  33.871  37.774   8.806
 2039POPC   D2A28792  33.694  37.568   8.458
 2039POPC   C3A28793  33.870  37.662   8.079
 2039POPC   C4A28794  33.685  37.788   7.715
 2039POPC   C1B28795  34.108  37.333   8.676
 2039POPC   C2B28796  34.195  37.284   8.214
 2039POPC   C3B28797  34.167  37.395   7.748
 2039POPC   C4B28798  33.928  37.539   7.355
 2040POPC   NC328799  30.928  34.999   9.229
 2040POPC   PO428800  30.575  35.453   9.607
 2040POPC   GL128801  30.548  35.504   9.157
 2040POPC   GL228802  30.865  35.457   8.997
 2040POPC   C1A28803  30.493  35.724   8.751
 2040POPC   D2A28804  30.582  35.534   8.340
 2040POPC   C3A28805  30.556  35.642   7.917
 2040POPC   C4A28806  30.848  35.436   7.632
 2040POPC   C1B28807  30.559  35.194   8.726
 2040POPC   C2B28808  30.332  35.085   8.325
 2040POPC   C3B28809  30.567  35.100   7.916
 2040POPC   C4B28810  31.012  34.985   7.761
 2041POPC   NC328811  38.374  12.131   9.457
 2041POPC   PO428812  38.805  12.453   9.206
 2041POPC   GL128813  38.524  12.209   8.977
 2041POPC   GL228814  38.600  11.849   9.118
 2041POPC   C1A28815  38.151  12.259   8.658
 2041POPC   D2A28816  38.087  12.295   8.175
 2041POPC   C3A28817  38.433  12.232   7.860
 2041POPC   C4A28818  38.442  12.344   7.419
 2041POPC   C1B28819  38.394  11.795   8.744
 2041POPC   C2B28820  38.488  11.967   8.348
 2041POPC   C3B28821  38.402  11.737   7.977
 2041POPC   C4B28822  38.611  11.813   7.602
 2042POPC   NC328823  24.442   9.350   9.401
 2042POPC   PO428824  24.113   8.851   9.084
 2042POPC   GL128825  24.466   9.031   8.977
 2042POPC   GL228826  24.674   8.788   8.996
 2042POPC   C1A28827  24.490   8.995   8.545
 2042POPC   D2A28828  24.325   9.117   8.113
 2042POPC   C3A28829  24.208   8.797   7.800
 2042POPC   C4A28830  24.063   8.493   7.489
 2042POPC   C1B28831  24.924   8.688   8.675
 2042POPC   C2B28832  24.857   8.744   8.282
 2042POPC   C3B28833  24.723   8.894   7.875
 2042POPC   C4B28834  24.630   9.316   7.693
 2043POPC   NC328835  41.748   0.851   9.542
 2043POPC   PO428836  41.961   1.515   9.459
 2043POPC   GL128837  41.703   1.394   9.131
 2043POPC   GL228838  41.578   1.104   9.140
 2043POPC   C1A28839  41.638   1.437   8.749
 2043POPC   D2A28840  41.518   1.665   8.477
 2043POPC   C3A28841  41.661   1.506   8.143
 2043POPC   C4A28842  41.599   1.320   7.741
 2043POPC   C1B28843  41.328   1.045   8.790
 2043POPC   C2B28844  41.566   1.044   8.409
 2043POPC   C3B28845  41.634   0.858   8.007
 2043POPC   C4B28846  41.341   0.878   7.686
 2044POPC   NC328847  36.301   2.537   9.590
 2044POPC   PO428848  35.836   2.966   9.344
 2044POPC   GL128849  36.058   2.781   9.028
 2044POPC   GL228850  36.120   2.504   9.121
 2044POPC   C1A28851  36.064   2.860   8.625
 2044POPC   D2A28852  35.687   2.928   8.432
 2044POPC   C3A28853  35.819   2.869   8.030
 2044POPC   C4A28854  36.078   3.074   7.773
 2044POPC   C1B28855  36.192   2.353   8.720
 2044POPC   C2B28856  36.329   2.437   8.300
 2044POPC   C3B28857  36.208   2.552   7.903
 2044POPC   C4B28858  36.335   2.454   7.496
 2045POPC   NC328859  27.122  24.330   9.562
 2045POPC   PO428860  26.618  24.792   9.618
 2045POPC   GL128861  26.730  24.522   9.210
 2045POPC   GL228862  26.828  24.156   9.166
 2045POPC   C1A28863  26.940  24.503   8.769
 2045POPC   D2A28864  26.865  24.829   8.439
 2045POPC   C3A28865  26.801  24.666   8.024
 2045POPC   C4A28866  27.024  24.422   7.731
 2045POPC   C1B28867  26.534  24.179   8.811
 2045POPC   C2B28868  26.602  24.329   8.392
 2045POPC   C3B28869  26.667  24.104   8.012
 2045POPC   C4B28870  26.597  24.170   7.585
 2046POPC   NC328871   5.618  38.901   9.451
 2046POPC   PO428872   5.842  39.529   9.639
 2046POPC   GL128873   6.008  39.449   9.205
 2046POPC   GL228874   6.030  39.085   9.147
 2046POPC   C1A28875   5.923  39.346   8.720
 2046POPC   D2A28876   5.756  39.548   8.311
 2046POPC   C3A28877   5.957  39.408   7.897
 2046POPC   C4A28878   6.105  39.525   7.468
 2046POPC   C1B28879   6.301  38.924   8.761
 2046POPC   C2B28880   6.360  39.097   8.318
 2046POPC   C3B28881   6.175  38.932   7.926
 2046POPC   C4B28882   5.737  38.751   7.885
 2047POPC   NC328883  37.943  34.240   9.447
 2047POPC   PO428884  37.586  33.744   9.734
 2047POPC   GL128885  37.487  33.778   9.284
 2047POPC   GL228886  37.694  33.977   9.065
 2047POPC   C1A28887  37.350  33.696   8.834
 2047POPC   D2A28888  37.596  33.821   8.484
 2047POPC   C3A28889  37.533  33.695   8.056
 2047POPC   C4A28890  37.728  33.553   7.682
 2047POPC   C1B28891  37.885  34.180   8.718
 2047POPC   C2B28892  37.983  34.093   8.282
 2047POPC   C3B28893  37.873  34.024   7.870
 2047POPC   C4B28894  37.875  34.013   7.430
 2048POPC   NC328895  27.831  14.539   9.426
 2048POPC   PO428896  27.833  13.936   9.362
 2048POPC   GL128897  27.643  14.246   9.045
 2048POPC   GL228898  27.509  14.620   9.037
 2048POPC   C1A28899  27.906  14.443   8.742
 2048POPC   D2A28900  27.983  14.564   8.336
 2048POPC   C3A28901  27.708  14.389   8.038
 2048POPC   C4A28902  27.598  14.720   7.781
 2048POPC   C1B28903  27.434  14.537   8.598
 2048POPC   C2B28904  27.298  14.684   8.198
 2048POPC   C3B28905  27.180  14.444   7.799
 2048POPC   C4B28906  27.154  14.261   7.369
 2049POPC   NC328907  23.795   1.683   9.738
 2049POPC   PO428908  23.949   1.019   9.513
 2049POPC   GL128909  23.942   1.203   9.146
 2049POPC   GL228910  23.580   1.211   9.108
 2049POPC   C1A28911  23.919   1.219   8.718
 2049POPC   D2A28912  24.137   1.375   8.396
 2049POPC   C3A28913  23.921   1.203   8.039
 2049POPC   C4A28914  23.992   1.073   7.633
 2049POPC   C1B28915  23.500   1.555   8.804
 2049POPC   C2B28916  23.445   1.476   8.361
 2049POPC   C3B28917  23.479   1.538   7.908
 2049POPC   C4B28918  23.538   1.250   7.583
 2050POPC   NC328919  38.599  18.476   9.479
 2050POPC   PO428920  38.042  18.009   9.504
 2050POPC   GL128921  38.299  18.164   9.175
 2050POPC   GL228922  38.194  18.471   9.143
 2050POPC   C1A28923  38.640  18.280   8.851
 2050POPC   D2A28924  38.722  18.472   8.449
 2050POPC   C3A28925  38.634  18.221   8.095
 2050POPC   C4A28926  38.581  18.200   7.667
 2050POPC   C1B28927  38.280  18.611   8.742
 2050POPC   C2B28928  38.277  18.713   8.334
 2050POPC   C3B28929  38.217  18.504   7.949
 2050POPC   C4B28930  37.918  18.639   7.683
 2051POPC   NC328931  43.706  32.542   9.921
 2051POPC   PO428932  44.083  32.159   9.507
 2051POPC   GL128933  44.065  32.360   9.159
 2051POPC   GL228934  43.716  32.400   9.152
 2051POPC   C1A28935  44.201  32.417   8.774
 2051POPC   D2A28936  44.029  32.480   8.391
 2051POPC   C3A28937  44.264  32.507   8.034
 2051POPC   C4A28938  44.082  32.400   7.627
 2051POPC   C1B28939  43.729  32.230   8.733
 2051POPC   C2B28940  43.732  32.061   8.326
 2051POPC   C3B28941  43.685  32.221   7.926
 2051POPC   C4B28942  43.427  32.035   7.649
 2052POPC   NC328943   0.690   0.670   9.298
 2052POPC   PO428944   0.487   1.274   9.559
 2052POPC   GL128945   0.500   1.218   9.150
 2052POPC   GL228946   0.726   1.460   9.072
 2052POPC   C1A28947   0.364   1.388   8.723
 2052POPC   D2A28948   0.036   1.313   8.414
 2052POPC   C3A28949   0.067   1.081   8.018
 2052POPC   C4A28950   0.272   1.138   7.640
 2052POPC   C1B28951   0.790   1.111   8.757
 2052POPC   C2B28952   0.753   1.241   8.332
 2052POPC   C3B28953   0.498   1.433   8.025
 2052POPC   C4B28954   0.590   1.780   7.750
 2053POPC   NC328955  26.158  18.966   9.374
 2053POPC   PO428956  25.617  19.456   9.203
 2053POPC   GL128957  25.696  19.169   8.884
 2053POPC   GL228958  25.856  18.837   8.967
 2053POPC   C1A28959  26.088  19.160   8.664
 2053POPC   D2A28960  26.294  18.975   8.362
 2053POPC   C3A28961  26.055  19.099   8.069
 2053POPC   C4A28962  26.228  19.254   7.757
 2053POPC   C1B28963  26.112  18.623   8.688
 2053POPC   C2B28964  25.821  18.746   8.387
 2053POPC   C3B28965  25.701  18.721   7.968
 2053POPC   C4B28966  26.120  18.710   7.743
 2054POPC   NC328967  25.780  21.935   9.479
 2054POPC   PO428968  25.946  21.191   9.474
 2054POPC   GL128969  26.078  21.287   9.108
 2054POPC   GL228970  26.116  21.610   9.184
 2054POPC   C1A28971  26.065  21.268   8.693
 2054POPC   D2A28972  26.140  21.362   8.277
 2054POPC   C3A28973  26.036  21.123   7.915
 2054POPC   C4A28974  25.959  21.343   7.532
 2054POPC   C1B28975  25.815  21.682   8.847
 2054POPC   C2B28976  25.852  21.780   8.397
 2054POPC   C3B28977  25.959  21.727   7.946
 2054POPC   C4B28978  25.830  21.833   7.517
 2055POPC   NC328979  22.315  19.510   9.556
 2055POPC   PO428980  21.934  20.074   9.489
 2055POPC   GL128981  22.146  19.874   9.183
 2055POPC   GL228982  22.003  19.570   9.147
 2055POPC   C1A28983  22.291  19.980   8.773
 2055POPC   D2A28984  22.357  19.773   8.370
 2055POPC   C3A28985  22.130  19.699   8.003
 2055POPC   C4A28986  22.236  19.860   7.585
 2055POPC   C1B28987  22.115  19.491   8.739
 2055POPC   C2B28988  22.016  19.254   8.384
 2055POPC   C3B28989  22.139  19.192   7.986
 2055POPC   C4B28990  21.984  19.410   7.608
 2056POPC   NC328991  38.591  43.352   9.454
 2056POPC   PO428992  37.977  43.091   9.452
 2056POPC   GL128993  38.278  43.117   9.133
 2056POPC   GL228994  38.571  42.914   9.205
 2056POPC   C1A28995  38.344  43.280   8.704
 2056POPC   D2A28996  38.650  43.194   8.356
 2056POPC   C3A28997  38.603  43.404   7.939
 2056POPC   C4A28998  38.305  43.319   7.609
 2056POPC   C1B28999  38.430  42.761   8.796
 2056POPC   C2B29000  38.514  42.665   8.372
 2056POPC   C3B29001  38.460  42.888   7.992
 2056POPC   C4B29002  38.533  42.790   7.594
 2057POPC   NC329003   0.718  14.763   9.456
 2057POPC   PO429004   0.118  14.425   9.379
 2057POPC   GL129005   0.488  14.316   9.095
 2057POPC   GL229006   0.655  13.966   9.096
 2057POPC   C1A29007   0.472  14.482   8.711
 2057POPC   D2A29008   0.516  14.693   8.358
 2057POPC   C3A29009   0.298  14.455   8.085
 2057POPC   C4A29010   0.321  14.574   7.694
 2057POPC   C1B29011   0.779  14.048   8.657
 2057POPC   C2B29012   0.661  14.101   8.214
 2057POPC   C3B29013   0.772  14.344   7.849
 2057POPC   C4B29014   0.765  14.529   7.450
 2058POPC   NC329015   3.472  28.232   9.436
 2058POPC   PO429016   3.099  28.816   9.315
 2058POPC   GL129017   3.408  28.683   9.027
 2058POPC   GL229018   3.738  28.560   9.147
 2058POPC   C1A29019   3.382  28.463   8.657
 2058POPC   D2A29020   3.233  28.316   8.304
 2058POPC   C3A29021   3.508  28.238   7.949
 2058POPC   C4A29022   3.624  28.394   7.526
 2058POPC   C1B29023   3.732  28.168   8.848
 2058POPC   C2B29024   3.694  28.104   8.421
 2058POPC   C3B29025   3.991  28.206   8.108
 2058POPC   C4B29026   3.970  28.085   7.707
 2059POPC   NC329027   6.948  44.328   9.437
 2059POPC   PO429028   6.630  44.958   9.510
 2059POPC   GL129029   6.716   0.002   9.082
 2059POPC   GL229030   6.761  44.651   9.079
 2059POPC   C1A29031   6.583  44.895   8.654
 2059POPC   D2A29032   6.521  44.516   8.418
 2059POPC   C3A29033   6.350  44.573   8.011
 2059POPC   C4A29034   6.516  44.740   7.650
 2059POPC   C1B29035   6.937  44.384   8.778
 2059POPC   C2B29036   7.061  44.443   8.376
 2059POPC   C3B29037   6.892  44.631   8.021
 2059POPC   C4B29038   6.932  44.412   7.655
 2060POPC   NC329039   9.224  18.091   9.480
 2060POPC   PO429040   8.692  18.527   9.411
 2060POPC   GL129041   8.908  18.318   9.146
 2060POPC   GL229042   9.253  18.450   9.133
 2060POPC   C1A29043   8.809  18.165   8.768
 2060POPC   D2A29044   9.026  17.999   8.428
 2060POPC   C3A29045   8.859  18.137   8.008
 2060POPC   C4A29046   8.613  18.312   7.621
 2060POPC   C1B29047   9.101  18.582   8.752
 2060POPC   C2B29048   8.872  18.515   8.362
 2060POPC   C3B29049   8.878  18.640   7.913
 2060POPC   C4B29050   9.119  18.356   7.625
 2061POPC   NC329051   4.829  37.982   9.754
 2061POPC   PO429052   5.006  37.390   9.671
 2061POPC   GL129053   5.260  37.546   9.240
 2061POPC   GL229054   5.449  37.891   9.184
 2061POPC   C1A29055   5.186  37.524   8.768
 2061POPC   D2A29056   5.079  37.266   8.385
 2061POPC   C3A29057   4.951  37.382   7.954
 2061POPC   C4A29058   5.057  37.538   7.543
 2061POPC   C1B29059   5.376  38.006   8.725
 2061POPC   C2B29060   5.235  37.849   8.318
 2061POPC   C3B29061   5.071  37.888   7.903
 2061POPC   C4B29062   5.261  37.990   7.503
 2062POPC   NC329063   4.457  22.802   9.614
 2062POPC   PO429064   4.096  23.234   9.228
 2062POPC   GL129065   4.352  23.024   9.021
 2062POPC   GL229066   4.689  22.981   9.136
 2062POPC   C1A29067   4.248  23.018   8.601
 2062POPC   D2A29068   4.081  22.763   8.322
 2062POPC   C3A29069   4.370  22.796   8.008
 2062POPC   C4A29070   4.400  23.024   7.657
 2062POPC   C1B29071   4.733  23.162   8.703
 2062POPC   C2B29072   4.726  23.082   8.260
 2062POPC   C3B29073   4.842  23.181   7.832
 2062POPC   C4B29074   4.778  23.177   7.344
 2063POPC   NC329075  30.610  35.904   9.512
 2063POPC   PO429076  30.764  36.599   9.495
 2063POPC   GL129077  30.648  36.315   9.146
 2063POPC   GL229078  30.820  35.970   9.081
 2063POPC   C1A29079  30.773  36.285   8.705
 2063POPC   D2A29080  30.718  36.026   8.372
 2063POPC   C3A29081  30.850  36.243   8.040
 2063POPC   C4A29082  30.595  36.141   7.743
 2063POPC   C1B29083  31.065  35.879   8.737
 2063POPC   C2B29084  31.233  35.980   8.341
 2063POPC   C3B29085  31.061  35.770   7.985
 2063POPC   C4B29086  31.007  35.897   7.559
 2064POPC   NC329087   9.040  31.599   9.472
 2064POPC   PO429088   8.596  31.156   9.437
 2064POPC   GL129089   8.735  31.405   9.096
 2064POPC   GL229090   8.502  31.707   9.097
 2064POPC   C1A29091   9.147  31.434   8.844
 2064POPC   D2A29092   9.375  31.184   8.552
 2064POPC   C3A29093   9.250  31.299   8.165
 2064POPC   C4A29094   9.021  31.280   7.785
 2064POPC   C1B29095   8.687  31.662   8.659
 2064POPC   C2B29096   9.014  31.791   8.405
 2064POPC   C3B29097   9.112  31.743   7.979
 2064POPC   C4B29098   8.840  31.762   7.660
 2065POPC   NC329099  37.052  24.400   9.225
 2065POPC   PO429100  37.582  24.535   9.536
 2065POPC   GL129101  37.647  24.678   9.109
 2065POPC   GL229102  38.016  24.739   8.982
 2065POPC   C1A29103  37.607  24.854   8.702
 2065POPC   D2A29104  37.982  24.847   8.461
 2065POPC   C3A29105  37.839  24.798   8.064
 2065POPC   C4A29106  37.496  24.584   7.853
 2065POPC   C1B29107  37.891  24.409   8.734
 2065POPC   C2B29108  37.632  24.447   8.370
 2065POPC   C3B29109  37.445  24.151   8.132
 2065POPC   C4B29110  37.502  24.073   7.734
 2066POPC   NC329111  40.570   1.988   9.433
 2066POPC   PO429112  41.213   1.955   9.501
 2066POPC   GL129113  41.003   2.157   9.176
 2066POPC   GL229114  40.910   1.852   9.093
 2066POPC   C1A29115  40.733   2.215   8.815
 2066POPC   D2A29116  40.619   1.986   8.444
 2066POPC   C3A29117  40.787   2.087   8.019
 2066POPC   C4A29118  40.573   2.343   7.781
 2066POPC   C1B29119  40.610   1.647   8.871
 2066POPC   C2B29120  40.577   1.477   8.481
 2066POPC   C3B29121  40.781   1.579   8.118
 2066POPC   C4B29122  40.646   1.677   7.712
 2067POPC   NC329123  24.762   4.261   9.266
 2067POPC   PO429124  24.231   4.338   9.738
 2067POPC   GL129125  24.236   4.307   9.262
 2067POPC   GL229126  24.368   4.026   9.017
 2067POPC   C1A29127  24.276   4.574   8.894
 2067POPC   D2A29128  24.584   4.587   8.546
 2067POPC   C3A29129  24.358   4.362   8.207
 2067POPC   C4A29130  24.370   4.436   7.778
 2067POPC   C1B29131  24.754   4.008   8.713
 2067POPC   C2B29132  24.939   4.220   8.398
 2067POPC   C3B29133  24.830   4.162   7.992
 2067POPC   C4B29134  24.758   4.184   7.560
 2068POPC   NC329135  11.774   0.671   9.349
 2068POPC   PO429136  12.198   0.178   9.446
 2068POPC   GL129137  12.127   0.353   9.048
 2068POPC   GL229138  12.165   0.729   8.999
 2068POPC   C1A29139  12.101   0.315   8.606
 2068POPC   D2A29140  12.069   0.635   8.270
 2068POPC   C3A29141  12.270   0.512   7.904
 2068POPC   C4A29142  12.041   0.256   7.661
 2068POPC   C1B29143  11.804   0.774   8.689
 2068POPC   C2B29144  11.661   0.982   8.313
 2068POPC   C3B29145  11.702   0.817   7.914
 2068POPC   C4B29146  11.902   0.727   7.565
 2069POPC   NC329147  20.221  39.785   9.473
 2069POPC   PO429148  20.682  40.275   9.459
 2069POPC   GL129149  20.735  39.909   9.195
 2069POPC   GL229150  20.402  39.929   9.014
 2069POPC   C1A29151  20.814  39.841   8.752
 2069POPC   D2A29152  20.493  40.075   8.453
 2069POPC   C3A29153  20.594  40.184   8.017
 2069POPC   C4A29154  20.753  39.911   7.711
 2069POPC   C1B29155  20.387  39.615   8.651
 2069POPC   C2B29156  20.549  39.591   8.250
 2069POPC   C3B29157  20.328  39.669   7.859
 2069POPC   C4B29158  20.069  39.668   7.484
 2070POPC   NC329159  21.725  42.563   9.719
 2070POPC   PO429160  22.254  42.189   9.760
 2070POPC   GL129161  22.103  42.463   9.346
 2070POPC   GL229162  22.384  42.695   9.254
 2070POPC   C1A29163  21.943  42.458   8.872
 2070POPC   D2A29164  21.786  42.561   8.398
 2070POPC   C3A29165  21.841  42.255   8.027
 2070POPC   C4A29166  22.225  42.073   7.833
 2070POPC   C1B29167  22.434  42.671   8.800
 2070POPC   C2B29168  22.293  42.439   8.431
 2070POPC   C3B29169  22.206  42.598   8.039
 2070POPC   C4B29170  22.426  42.842   7.770
 2071POPC   NC329171   2.478  12.615   9.510
 2071POPC   PO429172   1.840  12.879   9.557
 2071POPC   GL129173   2.031  12.907   9.147
 2071POPC   GL229174   2.135  12.571   9.123
 2071POPC   C1A29175   1.839  12.753   8.746
 2071POPC   D2A29176   1.575  12.673   8.394
 2071POPC   C3A29177   1.774  12.864   8.037
 2071POPC   C4A29178   1.906  12.776   7.626
 2071POPC   C1B29179   2.283  12.492   8.692
 2071POPC   C2B29180   2.143  12.652   8.315
 2071POPC   C3B29181   2.286  12.838   7.948
 2071POPC   C4B29182   2.421  12.734   7.549
 2072POPC   NC329183  16.311  28.799   9.406
 2072POPC   PO429184  15.884  29.239   9.742
 2072POPC   GL129185  15.971  29.268   9.278
 2072POPC   GL229186  15.870  28.972   9.165
 2072POPC   C1A29187  15.989  29.235   8.778
 2072POPC   D2A29188  15.809  28.944   8.457
 2072POPC   C3A29189  15.939  29.093   8.030
 2072POPC   C4A29190  15.948  29.397   7.693
 2072POPC   C1B29191  16.189  28.788   8.794
 2072POPC   C2B29192  16.315  28.951   8.387
 2072POPC   C3B29193  16.355  28.766   7.975
 2072POPC   C4B29194  16.107  28.735   7.609
 2073POPC   NC329195  43.204  17.177   9.420
 2073POPC   PO429196  42.766  16.669   9.635
 2073POPC   GL129197  42.819  16.854   9.219
 2073POPC   GL229198  43.165  16.850   9.047
 2073POPC   C1A29199  42.767  16.722   8.782
 2073POPC   D2A29200  43.035  16.785   8.460
 2073POPC   C3A29201  42.864  16.759   8.060
 2073POPC   C4A29202  43.110  16.904   7.708
 2073POPC   C1B29203  43.315  16.495   8.806
 2073POPC   C2B29204  43.468  16.481   8.395
 2073POPC   C3B29205  43.304  16.493   8.016
 2073POPC   C4B29206  43.422  16.426   7.627
 2074POPC   NC329207  35.172  31.782   9.278
 2074POPC   PO429208  35.163  32.374   9.592
 2074POPC   GL129209  35.306  32.501   9.188
 2074POPC   GL229210  35.367  32.186   9.026
 2074POPC   C1A29211  35.191  32.597   8.749
 2074POPC   D2A29212  35.281  32.562   8.279
 2074POPC   C3A29213  35.155  32.187   8.009
 2074POPC   C4A29214  35.495  32.095   7.694
 2074POPC   C1B29215  35.283  32.076   8.578
 2074POPC   C2B29216  35.595  32.059   8.224
 2074POPC   C3B29217  35.856  31.818   7.918
 2074POPC   C4B29218  35.792  31.700   7.490
 2075POPC   NC329219  33.473  36.030   9.490
 2075POPC   PO429220  33.896  36.484   9.760
 2075POPC   GL129221  33.824  36.399   9.270
 2075POPC   GL229222  33.586  36.238   9.031
 2075POPC   C1A29223  34.053  36.374   8.845
 2075POPC   D2A29224  34.026  36.218   8.403
 2075POPC   C3A29225  34.146  36.370   7.986
 2075POPC   C4A29226  34.179  36.143   7.570
 2075POPC   C1B29227  33.834  35.895   8.788
 2075POPC   C2B29228  33.860  35.718   8.351
 2075POPC   C3B29229  33.797  36.008   7.990
 2075POPC   C4B29230  33.717  36.338   7.705
 2076POPC   NC329231  28.419  28.050   9.553
 2076POPC   PO429232  28.091  27.453   9.705
 2076POPC   GL129233  28.072  27.495   9.238
 2076POPC   GL229234  28.133  27.856   9.151
 2076POPC   C1A29235  28.107  27.418   8.768
 2076POPC   D2A29236  28.240  27.227   8.372
 2076POPC   C3A29237  28.290  27.533   8.052
 2076POPC   C4A29238  28.184  27.523   7.635
 2076POPC   C1B29239  28.510  27.738   8.882
 2076POPC   C2B29240  28.619  27.703   8.413
 2076POPC   C3B29241  28.676  27.863   7.948
 2076POPC   C4B29242  28.483  27.936   7.523
 2077POPC   NC329243   6.702   1.450   9.516
 2077POPC   PO429244   6.869   0.773   9.555
 2077POPC   GL129245   6.798   1.039   9.197
 2077POPC   GL229246   6.496   1.271   9.111
 2077POPC   C1A29247   6.885   0.923   8.789
 2077POPC   D2A29248   6.781   0.950   8.369
 2077POPC   C3A29249   6.835   1.266   8.074
 2077POPC   C4A29250   6.814   1.058   7.692
 2077POPC   C1B29251   6.604   1.353   8.708
 2077POPC   C2B29252   6.385   1.317   8.351
 2077POPC   C3B29253   6.371   1.049   7.999
 2077POPC   C4B29254   6.438   1.389   7.693
 2078POPC   NC329255  10.182   6.938   9.515
 2078POPC   PO429256  10.785   6.630   9.523
 2078POPC   GL129257  10.653   6.566   9.128
 2078POPC   GL229258  10.306   6.662   9.099
 2078POPC   C1A29259  10.665   6.719   8.728
 2078POPC   D2A29260  10.502   6.685   8.343
 2078POPC   C3A29261  10.735   6.862   8.033
 2078POPC   C4A29262  10.774   6.654   7.648
 2078POPC   C1B29263  10.162   6.874   8.740
 2078POPC   C2B29264  10.054   6.983   8.315
 2078POPC   C3B29265  10.233   6.778   7.893
 2078POPC   C4B29266  10.313   6.741   7.415
 2079POPC   NC329267  42.673  40.620   9.435
 2079POPC   PO429268  42.022  40.792   9.432
 2079POPC   GL129269  42.352  40.875   9.103
 2079POPC   GL229270  42.596  40.647   8.933
 2079POPC   C1A29271  42.373  41.056   8.680
 2079POPC   D2A29272  42.171  41.002   8.292
 2079POPC   C3A29273  42.421  40.948   7.929
 2079POPC   C4A29274  42.196  40.788   7.601
 2079POPC   C1B29275  42.342  40.530   8.583
 2079POPC   C2B29276  42.259  40.527   8.164
 2079POPC   C3B29277  42.022  40.366   7.847
 2079POPC   C4B29278  42.190  40.300   7.439
 2080POPC   NC329279  40.770  43.313   9.549
 2080POPC   PO429280  41.140  42.819   9.370
 2080POPC   GL129281  40.780  42.941   9.176
 2080POPC   GL229282  40.816  43.294   9.049
 2080POPC   C1A29283  40.534  42.905   8.830
 2080POPC   D2A29284  40.393  43.074   8.442
 2080POPC   C3A29285  40.446  42.861   8.048
 2080POPC   C4A29286  40.748  42.971   7.741
 2080POPC   C1B29287  40.739  43.487   8.668
 2080POPC   C2B29288  40.845  43.624   8.242
 2080POPC   C3B29289  40.640  43.434   7.896
 2080POPC   C4B29290  40.568  43.329   7.392
 2081POPC   NC329291  30.045  23.228   9.301
 2081POPC   PO429292  29.627  23.742   9.515
 2081POPC   GL129293  29.761  23.611   9.116
 2081POPC   GL229294  30.119  23.725   9.117
 2081POPC   C1A29295  29.937  23.528   8.693
 2081POPC   D2A29296  30.034  23.736   8.293
 2081POPC   C3A29297  30.094  23.514   7.917
 2081POPC   C4A29298  29.683  23.445   7.758
 2081POPC   C1B29299  30.196  23.997   8.739
 2081POPC   C2B29300  30.295  24.182   8.331
 2081POPC   C3B29301  30.277  24.074   7.910
 2081POPC   C4B29302  29.910  23.981   7.737
 2082POPC   NC329303  24.529  15.147   9.381
 2082POPC   PO429304  25.059  15.557   9.291
 2082POPC   GL129305  24.640  15.519   9.005
 2082POPC   GL229306  24.547  15.187   8.871
 2082POPC   C1A29307  24.399  15.564   8.580
 2082POPC   D2A29308  24.303  15.365   8.151
 2082POPC   C3A29309  24.622  15.161   7.866
 2082POPC   C4A29310  24.742  15.263   7.413
 2082POPC   C1B29311  24.154  15.128   8.627
 2082POPC   C2B29312  23.978  14.986   8.223
 2082POPC   C3B29313  24.184  14.863   7.796
 2082POPC   C4B29314  24.174  14.648   7.363
 2083POPC   NC329315  35.718  30.348   9.901
 2083POPC   PO429316  35.408  30.818   9.527
 2083POPC   GL129317  35.194  30.503   9.188
 2083POPC   GL229318  35.411  30.761   9.019
 2083POPC   C1A29319  35.135  30.470   8.730
 2083POPC   D2A29320  34.956  30.678   8.372
 2083POPC   C3A29321  35.082  30.557   7.960
 2083POPC   C4A29322  35.324  30.726   7.638
 2083POPC   C1B29323  35.333  30.931   8.620
 2083POPC   C2B29324  35.461  30.923   8.158
 2083POPC   C3B29325  35.734  30.988   7.768
 2083POPC   C4B29326  35.688  30.924   7.297
 2084POPC   NC329327  17.468  11.717   9.761
 2084POPC   PO429328  17.667  12.289   9.526
 2084POPC   GL129329  17.495  12.192   9.165
 2084POPC   GL229330  17.457  11.841   9.219
 2084POPC   C1A29331  17.347  12.232   8.775
 2084POPC   D2A29332  17.270  12.002   8.445
 2084POPC   C3A29333  17.418  12.163   8.096
 2084POPC   C4A29334  17.437  12.072   7.677
 2084POPC   C1B29335  17.676  11.841   8.809
 2084POPC   C2B29336  17.760  11.817   8.388
 2084POPC   C3B29337  17.609  11.699   7.999
 2084POPC   C4B29338  17.722  11.617   7.594
 2085POPC   NC329339   9.562  44.462   9.514
 2085POPC   PO429340   9.783   0.037   9.472
 2085POPC   GL129341   9.859  44.777   9.134
 2085POPC   GL229342  10.190  44.748   9.125
 2085POPC   C1A29343   9.715  44.568   8.748
 2085POPC   D2A29344   9.440  44.504   8.381
 2085POPC   C3A29345   9.731  44.438   8.046
 2085POPC   C4A29346  10.184  44.510   7.934
 2085POPC   C1B29347  10.211  44.912   8.718
 2085POPC   C2B29348  10.016  44.810   8.350
 2085POPC   C3B29349   9.897  44.939   7.979
 2085POPC   C4B29350   9.563   0.099   7.744
 2086POPC   NC329351  34.316   5.604   9.684
 2086POPC   PO429352  34.930   5.692   9.595
 2086POPC   GL129353  34.602   5.585   9.258
 2086POPC   GL229354  34.217   5.529   9.186
 2086POPC   C1A29355  34.623   5.716   8.858
 2086POPC   D2A29356  34.544   5.700   8.433
 2086POPC   C3A29357  34.582   6.025   8.130
 2086POPC   C4A29358  34.493   6.044   7.701
 2086POPC   C1B29359  34.251   5.349   8.773
 2086POPC   C2B29360  34.116   5.436   8.350
 2086POPC   C3B29361  34.298   5.606   7.991
 2086POPC   C4B29362  34.710   5.565   7.863
 2087POPC   NC329363  32.946  25.199   9.517
 2087POPC   PO429364  33.383  25.623   9.444
 2087POPC   GL129365  33.332  25.198   9.168
 2087POPC   GL229366  32.979  25.002   9.049
 2087POPC   C1A29367  33.335  25.085   8.729
 2087POPC   D2A29368  33.260  25.371   8.403
 2087POPC   C3A29369  33.180  25.173   8.016
 2087POPC   C4A29370  33.389  25.172   7.648
 2087POPC   C1B29371  32.973  25.435   8.849
 2087POPC   C2B29372  32.842  25.667   8.454
 2087POPC   C3B29373  33.016  25.684   8.029
 2087POPC   C4B29374  32.912  25.404   7.649
 2088POPC   NC329375   7.905  13.465   9.422
 2088POPC   PO429376   8.112  14.041   9.572
 2088POPC   GL129377   8.089  13.894   9.153
 2088POPC   GL229378   8.335  13.636   9.217
 2088POPC   C1A29379   8.260  13.877   8.716
 2088POPC   D2A29380   8.114  13.784   8.291
 2088POPC   C3A29381   8.280  13.827   7.877
 2088POPC   C4A29382   8.071  13.569   7.620
 2088POPC   C1B29383   8.398  13.377   8.853
 2088POPC   C2B29384   8.497  13.476   8.447
 2088POPC   C3B29385   8.454  13.353   8.031
 2088POPC   C4B29386   8.602  13.470   7.640
 2089POPC   NC329387  11.536  39.100   9.604
 2089POPC   PO429388  11.069  39.644   9.588
 2089POPC   GL129389  11.395  39.461   9.228
 2089POPC   GL229390  11.397  39.080   9.129
 2089POPC   C1A29391  11.412  39.405   8.760
 2089POPC   D2A29392  11.303  39.567   8.357
 2089POPC   C3A29393  11.251  39.380   7.950
 2089POPC   C4A29394  10.857  39.160   7.872
 2089POPC   C1B29395  11.257  38.896   8.732
 2089POPC   C2B29396  11.162  39.045   8.345
 2089POPC   C3B29397  11.266  38.849   7.962
 2089POPC   C4B29398  10.958  38.679   7.711
 2090POPC   NC329399  30.122  26.322   9.395
 2090POPC   PO429400  29.947  25.749   9.510
 2090POPC   GL129401  29.810  25.986   9.168
 2090POPC   GL229402  29.993  25.753   8.971
 2090POPC   C1A29403  29.751  26.149   8.768
 2090POPC   D2A29404  30.035  25.984   8.478
 2090POPC   C3A29405  29.948  26.144   8.095
 2090POPC   C4A29406  30.051  25.949   7.711
 2090POPC   C1B29407  29.639  25.666   8.712
 2090POPC   C2B29408  29.508  25.907   8.348
 2090POPC   C3B29409  29.530  25.917   7.922
 2090POPC   C4B29410  29.609  25.968   7.443
 2091POPC   NC329411  34.039  11.667   9.473
 2091POPC   PO429412  33.679  12.262   9.510
 2091POPC   GL129413  33.471  12.231   9.125
 2091POPC   GL229414  33.614  11.893   9.120
 2091POPC   C1A29415  33.621  12.337   8.712
 2091POPC   D2A29416  33.884  12.287   8.376
 2091POPC   C3A29417  33.665  12.295   8.006
 2091POPC   C4A29418  33.654  12.192   7.590
 2091POPC   C1B29419  33.957  11.931   8.801
 2091POPC   C2B29420  34.038  11.697   8.413
 2091POPC   C3B29421  34.010  11.879   8.028
 2091POPC   C4B29422  33.913  11.761   7.629
 2092POPC   NC329423  33.493   0.708   9.577
 2092POPC   PO429424  34.066   0.277   9.524
 2092POPC   GL129425  33.863   0.569   9.240
 2092POPC   GL229426  33.610   0.325   9.228
 2092POPC   C1A29427  33.629   0.646   8.848
 2092POPC   D2A29428  33.544   0.449   8.475
 2092POPC   C3A29429  33.763   0.532   8.098
 2092POPC   C4A29430  33.844   0.453   7.664
 2092POPC   C1B29431  33.904   0.189   8.879
 2092POPC   C2B29432  34.039   0.289   8.465
 2092POPC   C3B29433  34.070   0.073   8.074
 2092POPC   C4B29434  34.208   0.090   7.688
 2093POPC   NC329435   2.382  10.239   9.635
 2093POPC   PO429436   2.647   9.723   9.257
 2093POPC   GL129437   2.972   9.802   8.973
 2093POPC   GL229438   3.185  10.091   8.978
 2093POPC   C1A29439   2.846   9.988   8.608
 2093POPC   D2A29440   2.651   9.750   8.318
 2093POPC   C3A29441   2.805   9.930   7.982
 2093POPC   C4A29442   2.736   9.678   7.728
 2093POPC   C1B29443   3.356   9.918   8.639
 2093POPC   C2B29444   3.258   9.883   8.224
 2093POPC   C3B29445   3.278   9.828   7.811
 2093POPC   C4B29446   3.167   9.824   7.401
 2094POPC   NC329447  41.279  24.569   9.444
 2094POPC   PO429448  41.700  24.002   9.483
 2094POPC   GL129449  41.442  24.170   9.160
 2094POPC   GL229450  41.702  24.425   9.088
 2094POPC   C1A29451  41.267  24.415   8.804
 2094POPC   D2A29452  41.519  24.502   8.435
 2094POPC   C3A29453  41.459  24.442   7.998
 2094POPC   C4A29454  41.314  24.861   7.883
 2094POPC   C1B29455  41.718  24.104   8.752
 2094POPC   C2B29456  41.613  23.985   8.339
 2094POPC   C3B29457  41.796  24.012   7.970
 2094POPC   C4B29458  41.792  24.255   7.634
 2095POPC   NC329459   4.973   1.512   9.637
 2095POPC   PO429460   5.254   1.004   9.449
 2095POPC   GL129461   5.088   1.159   9.078
 2095POPC   GL229462   4.865   1.422   9.153
 2095POPC   C1A29463   5.076   1.104   8.647
 2095POPC   D2A29464   4.912   1.301   8.317
 2095POPC   C3A29465   5.085   1.435   7.956
 2095POPC   C4A29466   5.060   1.188   7.597
 2095POPC   C1B29467   4.694   1.431   8.772
 2095POPC   C2B29468   4.724   1.750   8.419
 2095POPC   C3B29469   4.587   1.579   8.019
 2095POPC   C4B29470   4.723   1.595   7.606
 2096POPC   NC329471  25.683  29.933   9.494
 2096POPC   PO429472  26.243  30.272   9.477
 2096POPC   GL129473  26.111  29.970   9.114
 2096POPC   GL229474  25.809  29.782   9.041
 2096POPC   C1A29475  25.963  30.075   8.655
 2096POPC   D2A29476  25.644  30.153   8.290
 2096POPC   C3A29477  25.791  30.185   7.871
 2096POPC   C4A29478  26.059  30.123   7.501
 2096POPC   C1B29479  25.915  29.572   8.639
 2096POPC   C2B29480  25.947  29.745   8.224
 2096POPC   C3B29481  25.990  29.710   7.779
 2096POPC   C4B29482  25.967  29.636   7.319
 2097POPC   NC329483  13.754  41.657   9.412
 2097POPC   PO429484  13.269  41.182   9.419
 2097POPC   GL129485  13.443  41.454   9.078
 2097POPC   GL229486  13.357  41.823   9.120
 2097POPC   C1A29487  13.779  41.506   8.763
 2097POPC   D2A29488  13.565  41.412   8.402
 2097POPC   C3A29489  13.762  41.319   8.024
 2097POPC   C4A29490  13.519  41.170   7.694
 2097POPC   C1B29491  13.539  41.968   8.710
 2097POPC   C2B29492  13.698  41.875   8.269
 2097POPC   C3B29493  13.585  41.762   7.834
 2097POPC   C4B29494  13.577  41.941   7.420
 2098POPC   NC329495  34.584  13.231   9.931
 2098POPC   PO429496  34.517  13.669   9.456
 2098POPC   GL129497  34.609  13.556   9.042
 2098POPC   GL229498  34.712  13.194   8.965
 2098POPC   C1A29499  34.339  13.687   8.724
 2098POPC   D2A29500  34.333  14.041   8.471
 2098POPC   C3A29501  34.299  14.007   8.037
 2098POPC   C4A29502  34.344  13.706   7.736
 2098POPC   C1B29503  34.709  13.396   8.571
 2098POPC   C2B29504  34.513  13.585   8.246
 2098POPC   C3B29505  34.709  13.410   7.945
 2098POPC   C4B29506  34.608  13.100   7.704
 2099POPC   NC329507  14.869  44.550   9.614
 2099POPC   PO429508  15.503  44.364   9.466
 2099POPC   GL129509  15.409  44.738   9.217
 2099POPC   GL229510  15.235   0.017   9.104
 2099POPC   C1A29511  15.643  44.882   8.831
 2099POPC   D2A29512  15.710  44.714   8.432
 2099POPC   C3A29513  15.432  44.874   8.127
 2099POPC   C4A29514  15.506  44.622   7.829
 2099POPC   C1B29515  15.220  44.631   8.771
 2099POPC   C2B29516  15.258  44.434   8.362
 2099POPC   C3B29517  15.018  44.541   7.999
 2099POPC   C4B29518  15.085  44.496   7.585
 2100POPC   NC329519  34.777  25.334   9.475
 2100POPC   PO429520  34.267  25.615   9.187
 2100POPC   GL129521  34.619  25.478   9.002
 2100POPC   GL229522  34.573  25.129   9.054
 2100POPC   C1A29523  34.820  25.335   8.635
 2100POPC   D2A29524  34.669  25.124   8.260
 2100POPC   C3A29525  34.670  25.288   7.847
 2100POPC   C4A29526  34.858  25.016   7.567
 2100POPC   C1B29527  34.324  25.157   8.661
 2100POPC   C2B29528  34.122  25.036   8.264
 2100POPC   C3B29529  34.233  25.014   7.839
 2100POPC   C4B29530  34.339  25.213   7.448
 2101POPC   NC329531  33.745  25.298   9.488
 2101POPC   PO429532  33.922  25.922   9.638
 2101POPC   GL129533  33.784  25.648   9.154
 2101POPC   GL229534  33.952  25.262   9.039
 2101POPC   C1A29535  33.616  25.501   8.769
 2101POPC   D2A29536  33.843  25.441   8.403
 2101POPC   C3A29537  33.618  25.440   8.036
 2101POPC   C4A29538  33.429  25.665   7.706
 2101POPC   C1B29539  33.831  24.999   8.708
 2101POPC   C2B29540  33.604  24.985   8.306
 2101POPC   C3B29541  33.734  24.920   7.910
 2101POPC   C4B29542  33.853  25.045   7.477
 2102POPC   NC329543   1.037  17.075   9.681
 2102POPC   PO429544   1.572  16.770   9.344
 2102POPC   GL129545   1.249  16.725   9.069
 2102POPC   GL229546   0.970  16.948   9.174
 2102POPC   C1A29547   1.421  16.806   8.667
 2102POPC   D2A29548   1.588  16.757   8.272
 2102POPC   C3A29549   1.263  16.632   7.989
 2102POPC   C4A29550   1.396  16.688   7.565
 2102POPC   C1B29551   0.943  16.984   8.723
 2102POPC   C2B29552   1.169  17.073   8.319
 2102POPC   C3B29553   1.346  17.135   7.919
 2102POPC   C4B29554   0.990  16.995   7.746
 2103POPC   NC329555  25.287  17.470   9.553
 2103POPC   PO429556  24.609  17.540   9.364
 2103POPC   GL129557  24.979  17.411   9.072
 2103POPC   GL229558  25.346  17.500   9.060
 2103POPC   C1A29559  25.080  17.503   8.615
 2103POPC   D2A29560  25.282  17.290   8.279
 2103POPC   C3A29561  25.061  17.339   7.866
 2103POPC   C4A29562  25.051  17.321   7.408
 2103POPC   C1B29563  25.492  17.793   8.754
 2103POPC   C2B29564  25.492  17.761   8.309
 2103POPC   C3B29565  25.561  17.540   7.937
 2103POPC   C4B29566  25.751  17.774   7.669
 2104POPC   NC329567   5.113  29.604   9.798
 2104POPC   PO429568   4.798  30.016   9.370
 2104POPC   GL129569   4.976  30.090   8.981
 2104POPC   GL229570   5.306  29.984   8.991
 2104POPC   C1A29571   5.102  30.136   8.531
 2104POPC   D2A29572   5.160  29.779   8.220
 2104POPC   C3A29573   4.909  29.685   7.887
 2104POPC   C4A29574   5.180  29.957   7.700
 2104POPC   C1B29575   5.146  29.653   8.704
 2104POPC   C2B29576   5.359  29.378   8.487
 2104POPC   C3B29577   5.568  29.465   8.120
 2104POPC   C4B29578   5.378  29.512   7.720
 2105POPC   NC329579  28.127  25.581   9.356
 2105POPC   PO429580  28.682  25.273   9.556
 2105POPC   GL129581  28.424  25.154   9.160
 2105POPC   GL229582  28.221  24.846   9.191
 2105POPC   C1A29583  28.164  25.274   8.782
 2105POPC   D2A29584  28.154  25.540   8.429
 2105POPC   C3A29585  28.214  25.338   8.051
 2105POPC   C4A29586  28.529  25.389   7.767
 2105POPC   C1B29587  28.383  24.816   8.764
 2105POPC   C2B29588  28.536  24.982   8.385
 2105POPC   C3B29589  28.549  24.889   7.951
 2105POPC   C4B29590  28.242  24.962   7.704
 2106POPC   NC329591  39.609  37.464   9.350
 2106POPC   PO429592  38.981  37.498   9.680
 2106POPC   GL129593  39.161  37.686   9.305
 2106POPC   GL229594  39.057  37.967   9.126
 2106POPC   C1A29595  39.134  37.463   8.909
 2106POPC   D2A29596  39.037  37.362   8.489
 2106POPC   C3A29597  39.341  37.482   8.183
 2106POPC   C4A29598  39.494  37.433   7.789
 2106POPC   C1B29599  39.395  37.883   8.824
 2106POPC   C2B29600  39.318  37.944   8.402
 2106POPC   C3B29601  39.184  38.116   8.033
 2106POPC   C4B29602  39.481  38.114   7.723
 2107POPC   NC329603  37.410  10.921   9.661
 2107POPC   PO429604  36.883  11.267   9.564
 2107POPC   GL129605  36.868  11.328   9.140
 2107POPC   GL229606  37.164  11.553   9.173
 2107POPC   C1A29607  36.692  11.185   8.726
 2107POPC   D2A29608  36.511  11.343   8.320
 2107POPC   C3A29609  36.745  11.377   7.904
 2107POPC   C4A29610  36.601  11.289   7.468
 2107POPC   C1B29611  37.186  11.403   8.748
 2107POPC   C2B29612  37.027  11.351   8.345
 2107POPC   C3B29613  37.228  11.204   7.986
 2107POPC   C4B29614  37.211  11.348   7.575
 2108POPC   NC329615   4.366  20.115   9.554
 2108POPC   PO429616   4.507  20.814   9.527
 2108POPC   GL129617   4.207  20.560   9.290
 2108POPC   GL229618   4.504  20.416   9.196
 2108POPC   C1A29619   4.137  20.387   8.858
 2108POPC   D2A29620   4.260  20.544   8.469
 2108POPC   C3A29621   4.470  20.474   8.098
 2108POPC   C4A29622   4.458  20.728   7.748
 2108POPC   C1B29623   4.465  20.787   8.879
 2108POPC   C2B29624   4.713  20.810   8.484
 2108POPC   C3B29625   4.666  21.004   8.093
 2108POPC   C4B29626   4.719  21.163   7.637
 2109POPC   NC329627  32.100   0.044   9.882
 2109POPC   PO429628  32.183  44.530   9.529
 2109POPC   GL129629  32.324  44.438   9.137
 2109POPC   GL229630  32.528  44.704   9.070
 2109POPC   C1A29631  32.170  44.574   8.732
 2109POPC   D2A29632  32.126  44.811   8.376
 2109POPC   C3A29633  32.165  44.526   8.074
 2109POPC   C4A29634  32.151  44.653   7.693
 2109POPC   C1B29635  32.673  44.493   8.696
 2109POPC   C2B29636  32.630  44.508   8.265
 2109POPC   C3B29637  32.595  44.790   7.927
 2109POPC   C4B29638  32.613  44.778   7.461
 2110POPC   NC329639  37.920   0.602   9.428
 2110POPC   PO429640  37.292   0.582   9.495
 2110POPC   GL129641  37.537   0.427   9.140
 2110POPC   GL229642  37.652   0.079   9.203
 2110POPC   C1A29643  37.419   0.343   8.720
 2110POPC   D2A29644  37.351   0.528   8.318
 2110POPC   C3A29645  37.657   0.495   8.060
 2110POPC   C4A29646  37.412   0.345   7.743
 2110POPC   C1B29647  37.890   0.163   8.830
 2110POPC   C2B29648  37.928   0.124   8.385
 2110POPC   C3B29649  37.787   0.016   7.964
 2110POPC   C4B29650  37.584  44.902   7.563
 2111POPC   NC329651   0.527  20.856   9.846
 2111POPC   PO429652   0.569  20.949   9.245
 2111POPC   GL129653   0.548  20.614   9.032
 2111POPC   GL229654   0.227  20.732   8.907
 2111POPC   C1A29655   0.847  20.488   8.746
 2111POPC   D2A29656   0.910  20.549   8.334
 2111POPC   C3A29657   0.535  20.555   8.055
 2111POPC   C4A29658   0.610  20.611   7.627
 2111POPC   C1B29659   0.451  20.751   8.535
 2111POPC   C2B29660   0.458  21.052   8.231
 2111POPC   C3B29661   0.422  21.028   7.826
 2111POPC   C4B29662   0.096  20.770   7.671
 2112POPC   NC329663  34.190  30.185   9.480
 2112POPC   PO429664  33.551  30.175   9.528
 2112POPC   GL129665  33.644  29.859   9.251
 2112POPC   GL229666  33.995  29.817   9.183
 2112POPC   C1A29667  33.535  29.747   8.846
 2112POPC   D2A29668  33.506  29.985   8.471
 2112POPC   C3A29669  33.599  29.811   8.084
 2112POPC   C4A29670  33.375  29.866   7.734
 2112POPC   C1B29671  33.928  30.060   8.789
 2112POPC   C2B29672  34.057  29.895   8.394
 2112POPC   C3B29673  34.078  29.651   8.020
 2112POPC   C4B29674  33.948  29.817   7.610
 2113POPC   NC329675  15.842  44.576   9.697
 2113POPC   PO429676  16.365  44.926   9.411
 2113POPC   GL129677  16.117  44.790   9.043
 2113POPC   GL229678  15.862  44.543   9.143
 2113POPC   C1A29679  16.162  44.594   8.660
 2113POPC   D2A29680  16.208  44.898   8.333
 2113POPC   C3A29681  15.964  44.818   7.975
 2113POPC   C4A29682  15.936  44.926   7.514
 2113POPC   C1B29683  15.696  44.345   8.792
 2113POPC   C2B29684  15.901  44.191   8.422
 2113POPC   C3B29685  15.823  44.214   7.989
 2113POPC   C4B29686  15.949  44.435   7.655
 2114POPC   NC329687   5.450  42.258   9.517
 2114POPC   PO429688   5.973  42.709   9.619
 2114POPC   GL129689   5.862  42.472   9.264
 2114POPC   GL229690   6.065  42.185   9.188
 2114POPC   C1A29691   5.871  42.461   8.822
 2114POPC   D2A29692   6.063  42.371   8.462
 2114POPC   C3A29693   5.933  42.479   8.064
 2114POPC   C4A29694   6.068  42.369   7.709
 2114POPC   C1B29695   5.979  41.968   8.783
 2114POPC   C2B29696   5.916  41.893   8.335
 2114POPC   C3B29697   6.185  41.900   7.944
 2114POPC   C4B29698   6.223  41.974   7.450
 2115POPC   NC329699   7.640  44.955   9.944
 2115POPC   PO429700   7.566  44.481   9.453
 2115POPC   GL129701   7.317  44.557   9.116
 2115POPC   GL229702   7.214  44.903   9.184
 2115POPC   C1A29703   7.476  44.529   8.699
 2115POPC   D2A29704   7.563  44.305   8.321
 2115POPC   C3A29705   7.445  44.607   8.022
 2115POPC   C4A29706   7.689  44.961   7.839
 2115POPC   C1B29707   7.091  44.873   8.730
 2115POPC   C2B29708   7.191  44.961   8.284
 2115POPC   C3B29709   7.175  44.972   7.772
 2115POPC   C4B29710   6.987  44.812   7.340
 2116POPC   NC329711  38.935  34.298   9.566
 2116POPC   PO429712  39.453  34.705   9.482
 2116POPC   GL129713  39.175  34.743   9.114
 2116POPC   GL229714  39.015  34.428   9.046
 2116POPC   C1A29715  39.057  34.802   8.648
 2116POPC   D2A29716  39.291  34.826   8.260
 2116POPC   C3A29717  39.125  34.610   7.854
 2116POPC   C4A29718  38.798  34.452   7.538
 2116POPC   C1B29719  39.358  34.401   8.703
 2116POPC   C2B29720  39.376  34.316   8.241
 2116POPC   C3B29721  39.439  34.117   7.825
 2116POPC   C4B29722  39.335  33.845   7.446
 2117POPC   NC329723  42.026   5.090   9.788
 2117POPC   PO429724  42.678   5.120   9.484
 2117POPC   GL129725  42.517   5.082   9.102
 2117POPC   GL229726  42.227   5.317   9.150
 2117POPC   C1A29727  42.529   4.835   8.704
 2117POPC   D2A29728  42.641   4.669   8.292
 2117POPC   C3A29729  42.410   4.775   7.946
 2117POPC   C4A29730  42.345   5.160   7.866
 2117POPC   C1B29731  42.419   5.363   8.708
 2117POPC   C2B29732  42.292   5.467   8.290
 2117POPC   C3B29733  41.898   5.319   8.045
 2117POPC   C4B29734  41.959   5.344   7.581
 2118POPC   NC329735  43.117  38.908   9.455
 2118POPC   PO429736  43.252  39.598   9.497
 2118POPC   GL129737  43.284  39.320   9.150
 2118POPC   GL229738  42.919  39.248   9.119
 2118POPC   C1A29739  43.212  39.444   8.716
 2118POPC   D2A29740  43.230  39.695   8.326
 2118POPC   C3A29741  43.082  39.432   7.962
 2118POPC   C4A29742  43.297  39.083   7.788
 2118POPC   C1B29743  42.748  38.997   8.765
 2118POPC   C2B29744  42.918  38.828   8.387
 2118POPC   C3B29745  42.831  38.972   7.960
 2118POPC   C4B29746  42.621  38.819   7.622
 2119POPC   NC329747  44.289  33.255   9.814
 2119POPC   PO429748  44.778  32.878   9.546
 2119POPC   GL129749  44.557  32.972   9.202
 2119POPC   GL229750  44.327  33.175   9.308
 2119POPC   C1A29751  44.591  32.763   8.809
 2119POPC   D2A29752  44.866  32.797   8.445
 2119POPC   C3A29753  44.753  32.698   8.049
 2119POPC   C4A29754  44.547  32.859   7.676
 2119POPC   C1B29755  44.292  33.201   8.840
 2119POPC   C2B29756  44.272  32.940   8.474
 2119POPC   C3B29757  44.260  33.033   8.079
 2119POPC   C4B29758  44.390  33.324   7.763
 2120POPC   NC329759  40.700  37.152   9.484
 2120POPC   PO429760  40.860  36.580   9.042
 2120POPC   GL129761  40.786  36.921   9.061
 2120POPC   GL229762  40.498  36.937   9.075
 2120POPC   C1A29763  40.833  37.153   8.745
 2120POPC   D2A29764  40.668  36.895   8.426
 2120POPC   C3A29765  40.811  36.944   8.015
 2120POPC   C4A29766  41.079  37.025   7.684
 2120POPC   C1B29767  40.300  37.122   8.817
 2120POPC   C2B29768  40.223  37.127   8.425
 2120POPC   C3B29769  40.443  37.298   8.079
 2120POPC   C4B29770  40.488  37.342   7.602
 2121POPC   NC329771  16.674   3.893   9.730
 2121POPC   PO429772  16.361   3.292   9.529
 2121POPC   GL129773  16.559   3.413   9.109
 2121POPC   GL229774  16.939   3.501   9.027
 2121POPC   C1A29775  16.578   3.650   8.699
 2121POPC   D2A29776  16.947   3.653   8.468
 2121POPC   C3A29777  16.872   3.566   8.076
 2121POPC   C4A29778  16.941   3.613   7.656
 2121POPC   C1B29779  16.833   3.196   8.734
 2121POPC   C2B29780  16.647   3.176   8.378
 2121POPC   C3B29781  16.823   3.058   8.001
 2121POPC   C4B29782  16.706   3.166   7.605
 2122POPC   NC329783  27.833  41.140   9.449
 2122POPC   PO429784  27.785  40.486   9.721
 2122POPC   GL129785  27.711  40.689   9.246
 2122POPC   GL229786  27.412  40.822   9.270
 2122POPC   C1A29787  27.850  40.864   8.789
 2122POPC   D2A29788  27.714  40.982   8.352
 2122POPC   C3A29789  27.787  40.826   7.942
 2122POPC   C4A29790  27.686  41.100   7.607
 2122POPC   C1B29791  27.372  40.665   8.858
 2122POPC   C2B29792  27.455  40.538   8.442
 2122POPC   C3B29793  27.305  40.746   8.074
 2122POPC   C4B29794  27.377  40.689   7.635
 2123POPC   NC329795  32.528  29.748   9.580
 2123POPC   PO429796  32.087  30.246   9.530
 2123POPC   GL129797  32.391  30.080   9.202
 2123POPC   GL229798  32.413  29.700   9.095
 2123POPC   C1A29799  32.560  30.067   8.783
 2123POPC   D2A29800  32.315  30.089   8.418
 2123POPC   C3A29801  32.527  30.033   8.077
 2123POPC   C4A29802  32.401  30.231   7.734
 2123POPC   C1B29803  32.118  29.752   8.755
 2123POPC   C2B29804  32.065  29.639   8.302
 2123POPC   C3B29805  32.090  29.775   7.872
 2123POPC   C4B29806  32.190  29.546   7.528
 2124POPC   NC329807   2.613  41.211   9.370
 2124POPC   PO429808   2.730  41.798   9.660
 2124POPC   GL129809   2.879  41.608   9.200
 2124POPC   GL229810   3.005  41.245   9.066
 2124POPC   C1A29811   2.716  41.528   8.756
 2124POPC   D2A29812   2.883  41.653   8.347
 2124POPC   C3A29813   2.668  41.744   7.959
 2124POPC   C4A29814   2.789  41.992   7.605
 2124POPC   C1B29815   2.828  41.045   8.679
 2124POPC   C2B29816   2.669  41.212   8.273
 2124POPC   C3B29817   2.943  41.287   7.881
 2124POPC   C4B29818   2.879  41.053   7.411
 2125POPC   NC329819  42.510  38.613   9.805
 2125POPC   PO429820  42.171  38.071   9.466
 2125POPC   GL129821  42.165  38.490   9.301
 2125POPC   GL229822  42.532  38.474   9.311
 2125POPC   C1A29823  41.962  38.635   8.894
 2125POPC   D2A29824  41.946  38.693   8.401
 2125POPC   C3A29825  42.135  38.400   8.092
 2125POPC   C4A29826  42.022  38.450   7.637
 2125POPC   C1B29827  42.465  38.584   8.902
 2125POPC   C2B29828  42.459  38.560   8.482
 2125POPC   C3B29829  42.634  38.511   8.083
 2125POPC   C4B29830  42.500  38.342   7.713
 2126POPC   NC329831  37.031  41.212   9.487
 2126POPC   PO429832  36.368  41.394   9.580
 2126POPC   GL129833  36.635  41.484   9.249
 2126POPC   GL229834  36.664  41.102   9.152
 2126POPC   C1A29835  36.848  41.671   8.878
 2126POPC   D2A29836  37.038  41.389   8.613
 2126POPC   C3A29837  37.011  41.409   8.165
 2126POPC   C4A29838  37.010  41.641   7.751
 2126POPC   C1B29839  36.538  41.286   8.785
 2126POPC   C2B29840  36.549  41.562   8.431
 2126POPC   C3B29841  36.538  41.455   7.984
 2126POPC   C4B29842  36.562  41.511   7.534
 2127POPC   NC329843   9.147  24.928   9.523
 2127POPC   PO429844   8.786  25.557   9.459
 2127POPC   GL129845   9.041  25.289   9.154
 2127POPC   GL229846   8.776  25.052   9.047
 2127POPC   C1A29847   9.147  25.137   8.686
 2127POPC   D2A29848   9.070  24.843   8.316
 2127POPC   C3A29849   9.058  24.875   7.816
 2127POPC   C4A29850   9.240  24.969   7.365
 2127POPC   C1B29851   8.735  25.459   8.793
 2127POPC   C2B29852   8.853  25.489   8.372
 2127POPC   C3B29853   9.163  25.341   8.074
 2127POPC   C4B29854   9.072  25.366   7.642
 2128POPC   NC329855  30.035   5.235   9.552
 2128POPC   PO429856  29.550   4.785   9.483
 2128POPC   GL129857  29.703   5.097   9.180
 2128POPC   GL229858  30.020   5.307   9.060
 2128POPC   C1A29859  29.723   4.996   8.756
 2128POPC   D2A29860  30.072   5.189   8.522
 2128POPC   C3A29861  30.005   5.132   8.100
 2128POPC   C4A29862  30.107   5.030   7.695
 2128POPC   C1B29863  29.733   5.497   8.766
 2128POPC   C2B29864  29.597   5.388   8.345
 2128POPC   C3B29865  29.710   5.518   7.914
 2128POPC   C4B29866  29.828   5.396   7.472
 2129POPC   NC329867  40.169  39.929   9.515
 2129POPC   PO429868  39.638  40.205   9.819
 2129POPC   GL129869  39.729  39.901   9.301
 2129POPC   GL229870  40.100  40.091   9.061
 2129POPC   C1A29871  39.819  39.765   8.826
 2129POPC   D2A29872  39.831  39.665   8.353
 2129POPC   C3A29873  39.780  39.894   7.918
 2129POPC   C4A29874  39.869  40.126   7.498
 2129POPC   C1B29875  40.047  40.254   8.652
 2129POPC   C2B29876  40.156  40.054   8.260
 2129POPC   C3B29877  40.240  40.174   7.856
 2129POPC   C4B29878  40.044  40.588   7.769
 2130POPC   NC329879  14.511   6.663   9.511
 2130POPC   PO429880  14.974   6.101   9.693
 2130POPC   GL129881  14.754   6.261   9.222
 2130POPC   GL229882  14.400   6.440   9.086
 2130POPC   C1A29883  14.717   6.375   8.713
 2130POPC   D2A29884  14.836   6.619   8.312
 2130POPC   C3A29885  14.538   6.544   7.965
 2130POPC   C4A29886  14.131   6.447   7.754
 2130POPC   C1B29887  14.219   6.748   8.761
 2130POPC   C2B29888  14.096   6.963   8.353
 2130POPC   C3B29889  14.230   6.952   7.933
 2130POPC   C4B29890  14.679   7.064   7.814
 2131POPC   NC329891   4.722  33.063   9.508
 2131POPC   PO429892   5.328  32.748   9.582
 2131POPC   GL129893   5.138  32.916   9.183
 2131POPC   GL229894   5.120  33.261   9.233
 2131POPC   C1A29895   4.848  32.971   8.800
 2131POPC   D2A29896   4.629  33.032   8.376
 2131POPC   C3A29897   4.926  32.911   8.021
 2131POPC   C4A29898   5.034  32.913   7.564
 2131POPC   C1B29899   5.193  33.364   8.823
 2131POPC   C2B29900   5.152  33.193   8.413
 2131POPC   C3B29901   5.313  33.403   8.049
 2131POPC   C4B29902   5.194  33.385   7.656
 2132POPC   NC329903  11.356  34.147   9.484
 2132POPC   PO429904  11.589  33.490   9.542
 2132POPC   GL129905  11.566  33.649   9.151
 2132POPC   GL229906  11.683  34.003   9.137
 2132POPC   C1A29907  11.166  33.683   8.941
 2132POPC   D2A29908  11.007  33.956   8.609
 2132POPC   C3A29909  11.051  33.893   8.142
 2132POPC   C4A29910  10.926  33.858   7.710
 2132POPC   C1B29911  11.545  33.949   8.722
 2132POPC   C2B29912  11.679  33.785   8.361
 2132POPC   C3B29913  11.580  33.937   8.010
 2132POPC   C4B29914  11.412  33.926   7.668
 2133POPC   NC329915  42.991  32.194   9.480
 2133POPC   PO429916  43.257  32.725   9.822
 2133POPC   GL129917  43.257  32.599   9.313
 2133POPC   GL229918  42.894  32.558   9.149
 2133POPC   C1A29919  43.265  32.322   8.898
 2133POPC   D2A29920  43.230  31.972   8.578
 2133POPC   C3A29921  43.216  32.122   8.146
 2133POPC   C4A29922  43.040  32.319   7.780
 2133POPC   C1B29923  42.769  32.208   8.847
 2133POPC   C2B29924  42.711  32.045   8.415
 2133POPC   C3B29925  42.760  31.948   7.958
 2133POPC   C4B29926  42.967  31.818   7.556
 2134POPC   NC329927  39.470  18.451   9.372
 2134POPC   PO429928  38.938  18.129   9.578
 2134POPC   GL129929  39.010  18.279   9.188
 2134POPC   GL229930  39.185  17.998   9.112
 2134POPC   C1A29931  39.150  18.355   8.750
 2134POPC   D2A29932  39.157  18.229   8.314
 2134POPC   C3A29933  39.049  18.537   7.995
 2134POPC   C4A29934  39.356  18.653   7.676
 2134POPC   C1B29935  39.544  17.994   8.811
 2134POPC   C2B29936  39.581  17.899   8.370
 2134POPC   C3B29937  39.250  17.716   8.137
 2134POPC   C4B29938  39.087  18.054   7.828
 2135POPC   NC329939   8.220  38.989   9.647
 2135POPC   PO429940   8.301  39.605   9.618
 2135POPC   GL129941   8.437  39.348   9.238
 2135POPC   GL229942   8.098  39.209   9.176
 2135POPC   C1A29943   8.431  39.123   8.795
 2135POPC   D2A29944   8.188  39.045   8.370
 2135POPC   C3A29945   8.356  39.153   7.957
 2135POPC   C4A29946   8.155  39.003   7.573
 2135POPC   C1B29947   7.980  39.376   8.763
 2135POPC   C2B29948   7.901  39.465   8.336
 2135POPC   C3B29949   7.863  39.290   7.931
 2135POPC   C4B29950   8.056  39.496   7.578
 2136POPC   NC329951  24.014  23.596   9.261
 2136POPC   PO429952  23.501  23.758   9.681
 2136POPC   GL129953  23.619  23.999   9.231
 2136POPC   GL229954  23.948  24.072   9.114
 2136POPC   C1A29955  23.654  23.916   8.722
 2136POPC   D2A29956  23.509  23.798   8.286
 2136POPC   C3A29957  23.523  23.537   7.945
 2136POPC   C4A29958  23.141  23.523   7.791
 2136POPC   C1B29959  24.177  24.119   8.744
 2136POPC   C2B29960  23.980  24.098   8.357
 2136POPC   C3B29961  23.985  23.738   8.090
 2136POPC   C4B29962  23.943  23.651   7.648
 2137POPC   NC329963   9.165  30.055   9.755
 2137POPC   PO429964   8.752  29.607   9.408
 2137POPC   GL129965   8.794  29.742   9.053
 2137POPC   GL229966   8.971  30.025   9.177
 2137POPC   C1A29967   8.867  29.630   8.639
 2137POPC   D2A29968   8.891  29.919   8.309
 2137POPC   C3A29969   8.940  29.781   7.882
 2137POPC   C4A29970   8.917  30.051   7.548
 2137POPC   C1B29971   9.195  30.097   8.797
 2137POPC   C2B29972   9.383  30.130   8.391
 2137POPC   C3B29973   9.170  30.247   7.996
 2137POPC   C4B29974   9.243  30.457   7.606
 2138POPC   NC329975   3.471   3.924   9.425
 2138POPC   PO429976   3.789   4.533   9.628
 2138POPC   GL129977   3.501   4.421   9.272
 2138POPC   GL229978   3.750   4.453   9.059
 2138POPC   C1A29979   3.376   4.230   8.842
 2138POPC   D2A29980   3.307   4.357   8.441
 2138POPC   C3A29981   3.187   4.100   8.160
 2138POPC   C4A29982   3.481   4.133   7.865
 2138POPC   C1B29983   3.812   4.498   8.631
 2138POPC   C2B29984   3.751   4.471   8.190
 2138POPC   C3B29985   3.883   4.412   7.769
 2138POPC   C4B29986   3.887   4.415   7.323
 2139POPC   NC329987  42.604   8.015   9.481
 2139POPC   PO429988  42.267   8.644   9.498
 2139POPC   GL129989  42.389   8.371   9.171
 2139POPC   GL229990  42.726   8.481   9.100
 2139POPC   C1A29991  42.424   8.255   8.734
 2139POPC   D2A29992  42.376   8.117   8.290
 2139POPC   C3A29993  42.071   8.311   8.029
 2139POPC   C4A29994  42.192   8.190   7.628
 2139POPC   C1B29995  42.891   8.414   8.662
 2139POPC   C2B29996  42.578   8.562   8.345
 2139POPC   C3B29997  42.534   8.454   7.912
 2139POPC   C4B29998  42.724   8.103   7.708
 2140POPC   NC329999  24.369  37.137   9.474
 2140POPC   PO430000  24.935  37.345   9.503
 2140POPC   GL130001  24.704  37.315   9.101
 2140POPC   GL230002  24.566  36.978   9.034
 2140POPC   C1A30003  24.729  37.264   8.643
 2140POPC   D2A30004  24.488  37.257   8.250
 2140POPC   C3A30005  24.639  37.075   7.862
 2140POPC   C4A30006  24.756  36.887   7.435
 2140POPC   C1B30007  24.242  37.161   8.757
 2140POPC   C2B30008  24.079  36.974   8.379
 2140POPC   C3B30009  24.084  37.055   7.930
 2140POPC   C4B30010  23.878  36.858   7.545
 2141POPC   NC330011  34.726   8.243   9.914
 2141POPC   PO430012  34.174   8.186   9.736
 2141POPC   GL130013  34.300   8.228   9.224
 2141POPC   GL230014  34.122   8.499   9.026
 2141POPC   C1A30015  34.157   8.068   8.766
 2141POPC   D2A30016  34.120   8.226   8.310
 2141POPC   C3A30017  34.381   8.000   7.946
 2141POPC   C4A30018  34.533   7.689   7.600
 2141POPC   C1B30019  34.445   8.476   8.660
 2141POPC   C2B30020  34.602   8.414   8.212
 2141POPC   C3B30021  34.565   8.476   7.768
 2141POPC   C4B30022  34.786   8.717   7.461
 2142POPC   NC330023  36.393  15.739   9.534
 2142POPC   PO430024  35.764  16.041   9.744
 2142POPC   GL130025  35.846  16.019   9.275
 2142POPC   GL230026  36.130  16.044   9.186
 2142POPC   C1A30027  35.857  15.832   8.787
 2142POPC   D2A30028  36.082  15.820   8.371
 2142POPC   C3A30029  35.900  15.830   7.964
 2142POPC   C4A30030  35.681  15.465   7.776
 2142POPC   C1B30031  36.299  16.102   8.752
 2142POPC   C2B30032  36.499  16.162   8.345
 2142POPC   C3B30033  36.277  16.219   7.978
 2142POPC   C4B30034  36.255  15.995   7.639
 2143POPC   NC330035  27.357   3.123   9.714
 2143POPC   PO430036  27.637   3.675   9.508
 2143POPC   GL130037  27.795   3.525   9.139
 2143POPC   GL230038  27.507   3.441   9.032
 2143POPC   C1A30039  27.945   3.607   8.749
 2143POPC   D2A30040  27.764   3.436   8.377
 2143POPC   C3A30041  27.848   3.631   7.985
 2143POPC   C4A30042  27.872   3.384   7.614
 2143POPC   C1B30043  27.364   3.568   8.662
 2143POPC   C2B30044  27.401   3.811   8.279
 2143POPC   C3B30045  27.458   3.926   7.844
 2143POPC   C4B30046  27.457   3.648   7.456
 2144POPC   NC330047  37.267  34.076   9.659
 2144POPC   PO430048  36.598  33.927   9.493
 2144POPC   GL130049  36.914  33.853   9.172
 2144POPC   GL230050  37.156  34.101   9.078
 2144POPC   C1A30051  36.880  33.875   8.715
 2144POPC   D2A30052  37.127  33.918   8.336
 2144POPC   C3A30053  37.015  33.733   7.934
 2144POPC   C4A30054  36.660  33.557   7.708
 2144POPC   C1B30055  37.339  34.235   8.706
 2144POPC   C2B30056  37.510  34.309   8.312
 2144POPC   C3B30057  37.374  34.165   7.973
 2144POPC   C4B30058  37.386  33.922   7.622
 2145POPC   NC330059   7.050  24.172   9.506
 2145POPC   PO430060   7.338  23.594   9.524
 2145POPC   GL130061   7.363  23.638   9.121
 2145POPC   GL230062   7.668  23.443   9.082
 2145POPC   C1A30063   7.145  23.872   8.780
 2145POPC   D2A30064   6.998  23.888   8.339
 2145POPC   C3A30065   7.273  23.853   7.954
 2145POPC   C4A30066   7.695  24.019   7.881
 2145POPC   C1B30067   7.631  23.616   8.685
 2145POPC   C2B30068   7.838  23.481   8.340
 2145POPC   C3B30069   7.730  23.479   7.937
 2145POPC   C4B30070   7.647  23.660   7.540
 2146POPC   NC330071   6.860  27.271   9.554
 2146POPC   PO430072   6.643  27.883   9.778
 2146POPC   GL130073   6.585  27.721   9.292
 2146POPC   GL230074   6.478  27.368   9.188
 2146POPC   C1A30075   6.656  27.696   8.806
 2146POPC   D2A30076   6.849  27.824   8.362
 2146POPC   C3A30077   6.578  27.857   7.964
 2146POPC   C4A30078   6.679  27.750   7.525
 2146POPC   C1B30079   6.305  27.300   8.762
 2146POPC   C2B30080   6.433  27.528   8.373
 2146POPC   C3B30081   6.692  27.381   8.035
 2146POPC   C4B30082   6.289  27.356   7.831
 2147POPC   NC330083  23.849   4.592   9.676
 2147POPC   PO430084  23.830   5.232   9.537
 2147POPC   GL130085  23.610   5.132   9.173
 2147POPC   GL230086  23.898   4.951   9.056
 2147POPC   C1A30087  23.507   5.157   8.736
 2147POPC   D2A30088  23.737   5.108   8.317
 2147POPC   C3A30089  23.595   5.351   7.941
 2147POPC   C4A30090  23.558   5.314   7.442
 2147POPC   C1B30091  23.767   4.716   8.714
 2147POPC   C2B30092  23.816   4.478   8.349
 2147POPC   C3B30093  23.968   4.689   8.006
 2147POPC   C4B30094  23.862   4.984   7.705
 2148POPC   NC330095  39.347  40.382   9.477
 2148POPC   PO430096  39.169  41.052   9.568
 2148POPC   GL130097  39.166  40.803   9.264
 2148POPC   GL230098  38.864  40.672   9.321
 2148POPC   C1A30099  39.364  40.827   8.869
 2148POPC   D2A30100  39.533  40.771   8.465
 2148POPC   C3A30101  39.312  40.694   8.090
 2148POPC   C4A30102  39.409  40.820   7.665
 2148POPC   C1B30103  38.834  40.765   8.879
 2148POPC   C2B30104  39.044  40.584   8.513
 2148POPC   C3B30105  38.856  40.472   8.099
 2148POPC   C4B30106  38.906  40.856   7.825
 2149POPC   NC330107  36.635  18.295   9.529
 2149POPC   PO430108  37.247  17.990   9.386
 2149POPC   GL130109  36.961  18.195   9.099
 2149POPC   GL230110  36.653  18.015   9.101
 2149POPC   C1A30111  36.962  18.495   8.737
 2149POPC   D2A30112  37.139  18.641   8.323
 2149POPC   C3A30113  37.033  18.444   7.907
 2149POPC   C4A30114  36.806  18.368   7.538
 2149POPC   C1B30115  36.612  18.145   8.697
 2149POPC   C2B30116  36.817  18.178   8.292
 2149POPC   C3B30117  36.662  18.015   7.886
 2149POPC   C4B30118  36.763  17.873   7.429
 2150POPC   NC330119  43.620  23.037   9.439
 2150POPC   PO430120  42.930  22.791   9.458
 2150POPC   GL130121  43.116  23.057   9.140
 2150POPC   GL230122  43.358  22.806   9.037
 2150POPC   C1A30123  42.948  23.363   8.792
 2150POPC   D2A30124  42.750  23.222   8.406
 2150POPC   C3A30125  42.894  23.052   8.048
 2150POPC   C4A30126  43.142  23.009   7.712
 2150POPC   C1B30127  43.240  22.975   8.646
 2150POPC   C2B30128  43.284  23.285   8.360
 2150POPC   C3B30129  43.507  23.221   8.016
 2150POPC   C4B30130  43.613  22.805   7.877
 2151POPC   NC330131   0.096  40.606   9.505
 2151POPC   PO430132   0.650  40.814   9.373
 2151POPC   GL130133   0.296  40.867   9.128
 2151POPC   GL230134   0.193  41.231   9.080
 2151POPC   C1A30135   0.324  40.625   8.779
 2151POPC   D2A30136   0.603  40.686   8.463
 2151POPC   C3A30137   0.447  40.660   8.065
 2151POPC   C4A30138   0.581  40.721   7.674
 2151POPC   C1B30139   0.443  41.130   8.737
 2151POPC   C2B30140   0.315  41.082   8.348
 2151POPC   C3B30141   0.258  41.287   8.005
 2151POPC   C4B30142   0.217  41.100   7.629
 2152POPC   NC330143  13.133  15.118   9.676
 2152POPC   PO430144  13.843  14.821   9.677
 2152POPC   GL130145  13.818  14.943   9.249
 2152POPC   GL230146  13.491  15.097   9.257
 2152POPC   C1A30147  13.953  15.049   8.824
 2152POPC   D2A30148  13.882  15.332   8.452
 2152POPC   C3A30149  13.812  15.132   8.020
 2152POPC   C4A30150  13.393  14.968   7.867
 2152POPC   C1B30151  13.476  15.234   8.811
 2152POPC   C2B30152  13.408  15.186   8.357
 2152POPC   C3B30153  13.424  15.472   7.997
 2152POPC   C4B30154  13.137  15.471   7.663
 2153POPC   NC330155   1.041   3.962   9.328
 2153POPC   PO430156   1.520   3.438   9.286
 2153POPC   GL130157   1.242   3.576   9.004
 2153POPC   GL230158   1.369   3.916   8.957
 2153POPC   C1A30159   1.137   3.451   8.585
 2153POPC   D2A30160   0.914   3.411   8.189
 2153POPC   C3A30161   1.211   3.545   7.883
 2153POPC   C4A30162   1.267   3.811   7.503
 2153POPC   C1B30163   1.022   3.933   8.675
 2153POPC   C2B30164   1.133   3.885   8.253
 2153POPC   C3B30165   0.917   3.968   7.867
 2153POPC   C4B30166   0.776   3.886   7.412
 2154POPC   NC330167  14.476  21.152   9.414
 2154POPC   PO430168  14.326  20.486   9.567
 2154POPC   GL130169  14.227  20.622   9.144
 2154POPC   GL230170  14.380  20.904   8.998
 2154POPC   C1A30171  14.330  20.496   8.717
 2154POPC   D2A30172  14.506  20.579   8.316
 2154POPC   C3A30173  14.387  20.368   7.922
 2154POPC   C4A30174  14.044  20.153   7.713
 2154POPC   C1B30175  14.718  20.833   8.715
 2154POPC   C2B30176  14.872  20.926   8.266
 2154POPC   C3B30177  14.611  20.818   7.883
 2154POPC   C4B30178  14.420  20.707   7.493
 2155POPC   NC330179  13.756  43.050   9.532
 2155POPC   PO430180  13.506  43.647   9.536
 2155POPC   GL130181  13.627  43.382   9.164
 2155POPC   GL230182  13.457  43.037   9.107
 2155POPC   C1A30183  13.759  43.198   8.763
 2155POPC   D2A30184  13.363  43.226   8.510
 2155POPC   C3A30185  13.368  43.246   8.070
 2155POPC   C4A30186  13.699  43.175   7.748
 2155POPC   C1B30187  13.172  42.849   8.791
 2155POPC   C2B30188  13.172  42.755   8.344
 2155POPC   C3B30189  13.332  42.761   7.902
 2155POPC   C4B30190  13.383  42.897   7.435
 2156POPC   NC330191  29.639   4.311   9.355
 2156POPC   PO430192  30.256   4.098   9.314
 2156POPC   GL130193  30.025   4.302   9.009
 2156POPC   GL230194  29.938   4.647   9.113
 2156POPC   C1A30195  29.976   4.245   8.584
 2156POPC   D2A30196  29.787   3.931   8.354
 2156POPC   C3A30197  29.890   4.112   8.011
 2156POPC   C4A30198  30.010   4.282   7.630
 2156POPC   C1B30199  30.166   4.723   8.734
 2156POPC   C2B30200  29.903   4.703   8.372
 2156POPC   C3B30201  29.885   4.637   7.968
 2156POPC   C4B30202  30.332   4.595   7.864
 2157POPC   NC330203  42.039   6.392   9.644
 2157POPC   PO430204  42.554   6.791   9.476
 2157POPC   GL130205  42.303   6.572   9.172
 2157POPC   GL230206  42.075   6.267   9.153
 2157POPC   C1A30207  42.384   6.754   8.768
 2157POPC   D2A30208  42.190   6.652   8.390
 2157POPC   C3A30209  42.342   6.754   8.028
 2157POPC   C4A30210  42.189   6.832   7.649
 2157POPC   C1B30211  42.273   6.241   8.764
 2157POPC   C2B30212  42.102   6.150   8.357
 2157POPC   C3B30213  42.163   6.291   7.927
 2157POPC   C4B30214  42.248   6.361   7.479
 2158POPC   NC330215  27.146  25.201   9.335
 2158POPC   PO430216  27.711  25.509   9.538
 2158POPC   GL130217  27.743  25.306   9.130
 2158POPC   GL230218  27.571  24.989   9.138
 2158POPC   C1A30219  27.635  25.276   8.697
 2158POPC   D2A30220  27.846  25.144   8.351
 2158POPC   C3A30221  27.628  25.290   8.018
 2158POPC   C4A30222  27.458  25.618   7.811
 2158POPC   C1B30223  27.350  24.842   8.752
 2158POPC   C2B30224  27.370  24.949   8.344
 2158POPC   C3B30225  27.300  24.788   7.973
 2158POPC   C4B30226  27.422  24.739   7.558
 2159POPC   NC330227  41.332  13.796   9.376
 2159POPC   PO430228  41.199  13.190   9.182
 2159POPC   GL130229  41.600  13.382   9.106
 2159POPC   GL230230  41.726  13.732   9.009
 2159POPC   C1A30231  41.761  13.255   8.717
 2159POPC   D2A30232  41.676  13.454   8.320
 2159POPC   C3A30233  41.302  13.311   8.100
 2159POPC   C4A30234  41.006  13.583   7.911
 2159POPC   C1B30235  41.377  13.696   8.708
 2159POPC   C2B30236  41.266  13.800   8.283
 2159POPC   C3B30237  41.503  13.719   7.894
 2159POPC   C4B30238  41.913  13.779   7.885
 2160POPC   NC330239  19.090  19.693   9.868
 2160POPC   PO430240  19.493  20.076   9.543
 2160POPC   GL130241  19.383  20.091   9.136
 2160POPC   GL230242  19.048  20.182   9.134
 2160POPC   C1A30243  19.245  19.877   8.753
 2160POPC   D2A30244  19.396  19.689   8.383
 2160POPC   C3A30245  19.237  19.828   7.959
 2160POPC   C4A30246  19.180  19.549   7.588
 2160POPC   C1B30247  19.257  20.383   8.755
 2160POPC   C2B30248  19.254  20.248   8.324
 2160POPC   C3B30249  19.375  20.317   7.890
 2160POPC   C4B30250  19.374  20.056   7.496
 2161POPC   NC330251  27.720  25.970   9.617
 2161POPC   PO430252  27.123  26.274   9.417
 2161POPC   GL130253  27.526  26.198   9.193
 2161POPC   GL230254  27.630  25.838   9.139
 2161POPC   C1A30255  27.543  26.197   8.745
 2161POPC   D2A30256  27.753  26.389   8.408
 2161POPC   C3A30257  27.591  26.181   8.046
 2161POPC   C4A30258  27.468  26.376   7.679
 2161POPC   C1B30259  27.827  25.754   8.761
 2161POPC   C2B30260  27.686  25.720   8.339
 2161POPC   C3B30261  27.931  25.770   7.983
 2161POPC   C4B30262  27.806  25.909   7.589
 2162POPC   NC330263   3.205   6.191   9.429
 2162POPC   PO430264   3.515   6.793   9.531
 2162POPC   GL130265   3.482   6.769   9.137
 2162POPC   GL230266   3.540   6.471   9.117
 2162POPC   C1A30267   3.709   6.835   8.802
 2162POPC   D2A30268   3.756   6.719   8.426
 2162POPC   C3A30269   3.476   6.826   8.143
 2162POPC   C4A30270   3.541   6.554   7.829
 2162POPC   C1B30271   3.817   6.342   8.819
 2162POPC   C2B30272   3.965   6.257   8.414
 2162POPC   C3B30273   3.805   6.138   8.013
 2162POPC   C4B30274   3.904   6.229   7.596
 2163POPC   NC330275  39.665  10.028   9.530
 2163POPC   PO430276  40.122   9.595   9.520
 2163POPC   GL130277  40.121   9.881   9.135
 2163POPC   GL230278  40.015  10.220   9.224
 2163POPC   C1A30279  39.960   9.741   8.721
 2163POPC   D2A30280  39.669   9.827   8.373
 2163POPC   C3A30281  39.786   9.689   7.948
 2163POPC   C4A30282  39.560   9.537   7.540
 2163POPC   C1B30283  39.859  10.231   8.815
 2163POPC   C2B30284  40.052  10.150   8.420
 2163POPC   C3B30285  39.932  10.190   8.008
 2163POPC   C4B30286  40.116  10.237   7.596
 2164POPC   NC330287  14.007  30.000   9.559
 2164POPC   PO430288  14.584  29.688   9.463
 2164POPC   GL130289  14.546  29.899   9.126
 2164POPC   GL230290  14.206  29.859   9.097
 2164POPC   C1A30291  14.497  30.024   8.716
 2164POPC   D2A30292  14.330  29.902   8.366
 2164POPC   C3A30293  14.561  30.180   8.129
 2164POPC   C4A30294  14.572  30.301   7.699
 2164POPC   C1B30295  14.028  30.156   8.743
 2164POPC   C2B30296  14.107  30.363   8.331
 2164POPC   C3B30297  14.123  30.089   7.930
 2164POPC   C4B30298  14.447  29.772   7.851
 2165POPC   NC330299  44.585   4.832   9.592
 2165POPC   PO430300   0.196   5.112   9.436
 2165POPC   GL130301  44.853   5.155   9.122
 2165POPC   GL230302  44.531   4.982   9.114
 2165POPC   C1A30303  44.635   5.363   8.773
 2165POPC   D2A30304  44.477   5.296   8.358
 2165POPC   C3A30305  44.774   5.128   8.057
 2165POPC   C4A30306  44.681   5.147   7.635
 2165POPC   C1B30307  44.262   4.994   8.746
 2165POPC   C2B30308  44.274   4.838   8.351
 2165POPC   C3B30309  44.301   5.004   7.957
 2165POPC   C4B30310  44.172   4.914   7.575
 2166POPC   NC330311  21.301   3.462   9.579
 2166POPC   PO430312  20.645   3.507   9.570
 2166POPC   GL130313  20.738   3.553   9.132
 2166POPC   GL230314  20.566   3.865   8.972
 2166POPC   C1A30315  20.597   3.417   8.716
 2166POPC   D2A30316  20.438   3.252   8.320
 2166POPC   C3A30317  20.689   3.438   8.022
 2166POPC   C4A30318  20.891   3.365   7.631
 2166POPC   C1B30319  20.973   3.786   8.743
 2166POPC   C2B30320  21.082   3.621   8.331
 2166POPC   C3B30321  21.040   3.805   7.916
 2166POPC   C4B30322  20.672   3.813   7.637
 2167POPC   NC330323  26.353  38.309   9.270
 2167POPC   PO430324  25.845  38.304   9.743
 2167POPC   GL130325  25.858  38.611   9.305
 2167POPC   GL230326  25.556  38.693   9.129
 2167POPC   C1A30327  25.915  38.785   8.808
 2167POPC   D2A30328  25.904  38.534   8.414
 2167POPC   C3A30329  25.999  38.705   8.011
 2167POPC   C4A30330  26.232  38.398   7.793
 2167POPC   C1B30331  25.455  38.530   8.673
 2167POPC   C2B30332  25.443  38.431   8.206
 2167POPC   C3B30333  25.720  38.312   7.850
 2167POPC   C4B30334  25.903  38.457   7.418
 2168POPC   NC330335  32.157   4.679   9.415
 2168POPC   PO430336  32.756   4.508   9.639
 2168POPC   GL130337  32.583   4.502   9.142
 2168POPC   GL230338  32.308   4.265   9.081
 2168POPC   C1A30339  32.537   4.301   8.652
 2168POPC   D2A30340  32.248   4.261   8.307
 2168POPC   C3A30341  32.311   4.087   7.881
 2168POPC   C4A30342  32.483   4.400   7.651
 2168POPC   C1B30343  31.956   4.310   8.736
 2168POPC   C2B30344  31.734   4.320   8.312
 2168POPC   C3B30345  31.978   4.469   7.926
 2168POPC   C4B30346  31.993   4.318   7.508
 2169POPC   NC330347  29.277   5.236   9.471
 2169POPC   PO430348  28.717   4.819   9.444
 2169POPC   GL130349  28.943   5.101   9.106
 2169POPC   GL230350  29.270   5.230   8.979
 2169POPC   C1A30351  28.872   5.484   8.828
 2169POPC   D2A30352  28.977   5.622   8.426
 2169POPC   C3A30353  29.100   5.323   8.146
 2169POPC   C4A30354  29.233   5.421   7.767
 2169POPC   C1B30355  29.225   5.118   8.606
 2169POPC   C2B30356  29.403   4.835   8.336
 2169POPC   C3B30357  29.350   4.761   7.926
 2169POPC   C4B30358  29.604   5.033   7.754
 2170POPC   NC330359  19.251   5.828   9.524
 2170POPC   PO430360  18.646   5.947   9.394
 2170POPC   GL130361  18.858   5.921   9.068
 2170POPC   GL230362  19.090   6.151   9.111
 2170POPC   C1A30363  18.781   5.870   8.655
 2170POPC   D2A30364  19.072   5.733   8.362
 2170POPC   C3A30365  18.883   5.808   7.980
 2170POPC   C4A30366  19.065   5.721   7.607
 2170POPC   C1B30367  19.114   6.268   8.726
 2170POPC   C2B30368  18.945   6.246   8.350
 2170POPC   C3B30369  19.185   6.221   8.044
 2170POPC   C4B30370  18.987   6.232   7.711
 2171POPC   NC330371   3.773  12.319   9.550
 2171POPC   PO430372   3.499  11.636   9.599
 2171POPC   GL130373   3.513  11.812   9.163
 2171POPC   GL230374   3.556  12.164   9.123
 2171POPC   C1A30375   3.356  11.885   8.722
 2171POPC   D2A30376   3.380  12.138   8.312
 2171POPC   C3A30377   3.328  12.023   7.850
 2171POPC   C4A30378   3.292  11.889   7.395
 2171POPC   C1B30379   3.829  12.091   8.774
 2171POPC   C2B30380   3.898  12.020   8.355
 2171POPC   C3B30381   3.770  12.269   7.980
 2171POPC   C4B30382   3.751  12.139   7.537
 2172POPC   NC330383  40.988  37.919   9.383
 2172POPC   PO430384  40.383  37.559   9.512
 2172POPC   GL130385  40.562  37.469   9.083
 2172POPC   GL230386  40.613  37.786   9.040
 2172POPC   C1A30387  40.535  37.503   8.581
 2172POPC   D2A30388  40.923  37.383   8.305
 2172POPC   C3A30389  40.879  37.480   7.882
 2172POPC   C4A30390  40.498  37.787   7.868
 2172POPC   C1B30391  40.937  37.739   8.742
 2172POPC   C2B30392  40.783  37.904   8.334
 2172POPC   C3B30393  40.983  37.957   7.948
 2172POPC   C4B30394  41.208  37.989   7.600
 2173POPC   NC330395  26.050   4.800   9.544
 2173POPC   PO430396  26.213   5.444   9.493
 2173POPC   GL130397  26.249   5.136   9.204
 2173POPC   GL230398  25.899   5.124   9.159
 2173POPC   C1A30399  26.207   5.050   8.764
 2173POPC   D2A30400  26.052   5.193   8.383
 2173POPC   C3A30401  26.289   5.015   8.056
 2173POPC   C4A30402  26.193   4.699   7.757
 2173POPC   C1B30403  25.724   4.852   8.883
 2173POPC   C2B30404  25.586   4.841   8.451
 2173POPC   C3B30405  25.782   4.879   8.035
 2173POPC   C4B30406  25.716   5.113   7.657
 2174POPC   NC330407   0.423  41.173   9.515
 2174POPC   PO430408   0.368  41.752   9.659
 2174POPC   GL130409   0.539  41.581   9.238
 2174POPC   GL230410   0.790  41.282   9.192
 2174POPC   C1A30411   0.344  41.693   8.837
 2174POPC   D2A30412   0.449  41.994   8.471
 2174POPC   C3A30413   0.329  41.805   8.088
 2174POPC   C4A30414   0.161  41.741   7.682
 2174POPC   C1B30415   0.819  41.453   8.796
 2174POPC   C2B30416   0.597  41.514   8.436
 2174POPC   C3B30417   0.780  41.543   8.100
 2174POPC   C4B30418   0.666  41.419   7.726
 2175POPC   NC330419  37.932  16.895   9.623
 2175POPC   PO430420  37.760  17.548   9.835
 2175POPC   GL130421  37.674  17.743   9.277
 2175POPC   GL230422  37.953  17.784   9.053
 2175POPC   C1A30423  37.472  17.690   8.830
 2175POPC   D2A30424  37.275  17.709   8.383
 2175POPC   C3A30425  37.553  17.644   8.002
 2175POPC   C4A30426  37.568  17.244   7.745
 2175POPC   C1B30427  37.946  17.678   8.639
 2175POPC   C2B30428  38.066  17.342   8.410
 2175POPC   C3B30429  37.998  17.318   8.001
 2175POPC   C4B30430  37.935  17.579   7.645
 2176POPC   NC330431   5.411   5.297   9.684
 2176POPC   PO430432   5.332   4.712   9.592
 2176POPC   GL130433   5.211   5.046   9.278
 2176POPC   GL230434   4.995   5.356   9.366
 2176POPC   C1A30435   5.198   5.128   8.829
 2176POPC   D2A30436   5.296   5.298   8.423
 2176POPC   C3A30437   5.147   4.938   8.173
 2176POPC   C4A30438   5.093   4.754   7.770
 2176POPC   C1B30439   4.822   5.469   8.947
 2176POPC   C2B30440   4.736   5.292   8.535
 2176POPC   C3B30441   4.867   5.356   8.137
 2176POPC   C4B30442   5.179   5.285   7.803
 2177POPC   NC330443  16.570  43.140   9.625
 2177POPC   PO430444  15.880  43.005   9.661
 2177POPC   GL130445  15.859  43.091   9.238
 2177POPC   GL230446  16.145  42.892   9.208
 2177POPC   C1A30447  15.894  43.331   8.836
 2177POPC   D2A30448  15.973  43.211   8.436
 2177POPC   C3A30449  16.138  43.375   8.070
 2177POPC   C4A30450  15.849  43.324   7.765
 2177POPC   C1B30451  16.082  42.650   8.831
 2177POPC   C2B30452  15.814  42.674   8.464
 2177POPC   C3B30453  15.772  42.876   8.104
 2177POPC   C4B30454  16.114  42.895   7.850
 2178POPC   NC330455  18.817  21.328   9.676
 2178POPC   PO430456  19.401  21.639   9.706
 2178POPC   GL130457  19.202  21.478   9.269
 2178POPC   GL230458  18.854  21.388   9.170
 2178POPC   C1A30459  19.196  21.454   8.777
 2178POPC   D2A30460  19.247  21.173   8.390
 2178POPC   C3A30461  19.195  21.309   7.963
 2178POPC   C4A30462  19.189  21.396   7.509
 2178POPC   C1B30463  18.836  21.120   8.798
 2178POPC   C2B30464  18.743  21.122   8.333
 2178POPC   C3B30465  18.721  21.135   7.886
 2178POPC   C4B30466  18.759  21.499   7.708
 2179POPC   NC330467  10.568  39.444   9.555
 2179POPC   PO430468  10.655  38.814   9.449
 2179POPC   GL130469  10.660  39.133   9.150
 2179POPC   GL230470  10.894  39.410   9.160
 2179POPC   C1A30471  10.404  39.202   8.799
 2179POPC   D2A30472  10.280  39.024   8.365
 2179POPC   C3A30473  10.355  39.239   7.954
 2179POPC   C4A30474  10.184  39.393   7.550
 2179POPC   C1B30475  10.922  39.297   8.742
 2179POPC   C2B30476  10.709  39.336   8.382
 2179POPC   C3B30477  10.810  39.624   8.103
 2179POPC   C4B30478  10.645  39.622   7.708
 2180POPC   NC330479  35.957  41.394   9.785
 2180POPC   PO430480  35.867  41.892   9.418
 2180POPC   GL130481  36.116  41.546   9.140
 2180POPC   GL230482  36.311  41.741   8.911
 2180POPC   C1A30483  36.041  41.308   8.731
 2180POPC   D2A30484  36.161  41.206   8.275
 2180POPC   C3A30485  35.947  41.394   7.904
 2180POPC   C4A30486  36.009  41.548   7.477
 2180POPC   C1B30487  35.861  41.782   8.767
 2180POPC   C2B30488  35.820  41.654   8.345
 2180POPC   C3B30489  36.186  41.794   8.121
 2180POPC   C4B30490  36.290  41.894   7.722
 2181POPC   NC330491  37.216  26.108   9.513
 2181POPC   PO430492  36.637  25.847   9.534
 2181POPC   GL130493  36.908  25.862   9.180
 2181POPC   GL230494  36.848  26.220   9.155
 2181POPC   C1A30495  37.016  25.858   8.742
 2181POPC   D2A30496  37.168  25.769   8.313
 2181POPC   C3A30497  36.853  25.803   7.985
 2181POPC   C4A30498  36.799  25.971   7.553
 2181POPC   C1B30499  36.952  26.375   8.742
 2181POPC   C2B30500  36.889  26.225   8.340
 2181POPC   C3B30501  37.185  26.246   8.021
 2181POPC   C4B30502  37.190  26.356   7.595
 2182POPC   NC330503  20.875  13.825   9.960
 2182POPC   PO430504  20.422  13.554   9.472
 2182POPC   GL130505  20.461  13.522   9.065
 2182POPC   GL230506  20.295  13.884   9.086
 2182POPC   C1A30507  20.600  13.309   8.652
 2182POPC   D2A30508  20.634  13.597   8.327
 2182POPC   C3A30509  20.513  13.552   7.947
 2182POPC   C4A30510  20.657  13.308   7.662
 2182POPC   C1B30511  20.321  13.800   8.670
 2182POPC   C2B30512  20.097  13.781   8.296
 2182POPC   C3B30513  20.187  13.940   7.919
 2182POPC   C4B30514  20.559  14.035   7.770
 2183POPC   NC330515  38.345  20.872   9.840
 2183POPC   PO430516  38.841  20.476   9.655
 2183POPC   GL130517  38.621  20.485   9.223
 2183POPC   GL230518  38.778  20.756   9.120
 2183POPC   C1A30519  38.297  20.428   8.874
 2183POPC   D2A30520  38.173  20.651   8.493
 2183POPC   C3A30521  38.458  20.491   8.211
 2183POPC   C4A30522  38.427  20.456   7.785
 2183POPC   C1B30523  38.583  20.825   8.729
 2183POPC   C2B30524  38.557  21.018   8.345
 2183POPC   C3B30525  38.352  20.974   7.972
 2183POPC   C4B30526  38.578  20.903   7.602
 2184POPC   NC330527  33.987   3.145   9.444
 2184POPC   PO430528  33.704   3.788   9.522
 2184POPC   GL130529  33.841   3.572   9.194
 2184POPC   GL230530  33.549   3.322   9.217
 2184POPC   C1A30531  34.077   3.541   8.808
 2184POPC   D2A30532  34.097   3.806   8.448
 2184POPC   C3A30533  34.115   3.656   8.054
 2184POPC   C4A30534  34.015   3.799   7.670
 2184POPC   C1B30535  33.581   3.418   8.788
 2184POPC   C2B30536  33.760   3.421   8.382
 2184POPC   C3B30537  33.624   3.545   7.989
 2184POPC   C4B30538  33.311   3.361   7.770
 2185POPC   NC330539  40.524   9.789   9.449
 2185POPC   PO430540  41.179   9.736   9.476
 2185POPC   GL130541  40.934   9.796   9.121
 2185POPC   GL230542  40.651  10.017   9.013
 2185POPC   C1A30543  40.794   9.521   8.830
 2185POPC   D2A30544  40.657   9.406   8.431
 2185POPC   C3A30545  40.777   9.669   8.103
 2185POPC   C4A30546  40.694   9.575   7.664
 2185POPC   C1B30547  40.449   9.872   8.644
 2185POPC   C2B30548  40.257   9.716   8.265
 2185POPC   C3B30549  40.315   9.861   7.861
 2185POPC   C4B30550  40.472   9.938   7.392
 2186POPC   NC330551  41.893  18.404   9.385
 2186POPC   PO430552  41.503  17.845   9.491
 2186POPC   GL130553  41.685  18.041   9.104
 2186POPC   GL230554  41.384  18.124   9.000
 2186POPC   C1A30555  41.705  18.376   8.719
 2186POPC   D2A30556  41.465  18.491   8.338
 2186POPC   C3A30557  41.486  18.340   7.932
 2186POPC   C4A30558  41.823  18.331   7.639
 2186POPC   C1B30559  41.545  17.902   8.626
 2186POPC   C2B30560  41.472  17.907   8.196
 2186POPC   C3B30561  41.532  17.855   7.747
 2186POPC   C4B30562  41.558  18.028   7.340
 2187POPC   NC330563  43.755  14.600   9.430
 2187POPC   PO430564  44.179  14.091   9.471
 2187POPC   GL130565  43.824  14.111   9.143
 2187POPC   GL230566  43.627  14.374   8.994
 2187POPC   C1A30567  43.813  14.002   8.676
 2187POPC   D2A30568  43.773  14.179   8.233
 2187POPC   C3A30569  44.104  14.111   7.887
 2187POPC   C4A30570  44.223  14.252   7.430
 2187POPC   C1B30571  43.410  14.341   8.617
 2187POPC   C2B30572  43.437  14.643   8.323
 2187POPC   C3B30573  43.751  14.664   8.030
 2187POPC   C4B30574  43.905  14.542   7.670
 2188POPC   NC330575   5.296  19.860   9.691
 2188POPC   PO430576   5.941  19.907   9.419
 2188POPC   GL130577   5.942  19.657   9.052
 2188POPC   GL230578   6.184  19.883   8.976
 2188POPC   C1A30579   5.703  19.748   8.655
 2188POPC   D2A30580   5.796  19.913   8.260
 2188POPC   C3A30581   5.940  19.649   7.980
 2188POPC   C4A30582   5.587  19.701   7.774
 2188POPC   C1B30583   6.183  19.735   8.574
 2188POPC   C2B30584   6.361  19.908   8.257
 2188POPC   C3B30585   6.430  19.803   7.863
 2188POPC   C4B30586   6.178  19.703   7.541
 2189POPC   NC330587   1.170  25.607   9.318
 2189POPC   PO430588   0.934  24.987   9.499
 2189POPC   GL130589   1.229  25.093   9.192
 2189POPC   GL230590   1.042  24.924   8.968
 2189POPC   C1A30591   1.463  25.303   8.832
 2189POPC   D2A30592   1.380  25.213   8.393
 2189POPC   C3A30593   1.444  25.502   8.065
 2189POPC   C4A30594   1.575  25.294   7.709
 2189POPC   C1B30595   0.961  25.286   8.720
 2189POPC   C2B30596   0.871  25.209   8.311
 2189POPC   C3B30597   1.040  25.232   7.899
 2189POPC   C4B30598   0.904  25.555   7.612
 2190POPC   NC330599  28.528  22.091   9.504
 2190POPC   PO430600  27.906  22.453   9.585
 2190POPC   GL130601  28.086  22.234   9.131
 2190POPC   GL230602  28.468  22.178   9.017
 2190POPC   C1A30603  28.125  22.371   8.696
 2190POPC   D2A30604  27.925  22.511   8.335
 2190POPC   C3A30605  28.072  22.320   7.942
 2190POPC   C4A30606  28.477  22.176   7.850
 2190POPC   C1B30607  28.638  22.381   8.657
 2190POPC   C2B30608  28.463  22.535   8.264
 2190POPC   C3B30609  28.744  22.614   7.970
 2190POPC   C4B30610  28.946  22.329   7.737
 2191POPC   NC330611  39.260  21.523   9.426
 2191POPC   PO430612  38.782  21.856   9.177
 2191POPC   GL130613  39.010  21.528   8.974
 2191POPC   GL230614  39.001  21.201   9.137
 2191POPC   C1A30615  39.321  21.513   8.658
 2191POPC   D2A30616  39.608  21.444   8.311
 2191POPC   C3A30617  39.414  21.317   7.933
 2191POPC   C4A30618  39.470  21.572   7.581
 2191POPC   C1B30619  39.027  21.060   8.730
 2191POPC   C2B30620  39.087  21.168   8.316
 2191POPC   C3B30621  38.987  20.991   7.915
 2191POPC   C4B30622  39.062  21.190   7.523
 2192POPC   NC330623  40.947  40.207   9.896
 2192POPC   PO430624  40.909  40.813   9.558
 2192POPC   GL130625  40.783  40.713   9.169
 2192POPC   GL230626  40.534  40.435   9.239
 2192POPC   C1A30627  40.980  40.618   8.760
 2192POPC   D2A30628  40.877  40.742   8.361
 2192POPC   C3A30629  41.036  40.630   7.974
 2192POPC   C4A30630  40.860  40.822   7.595
 2192POPC   C1B30631  40.436  40.610   8.821
 2192POPC   C2B30632  40.466  40.454   8.403
 2192POPC   C3B30633  40.509  40.638   7.995
 2192POPC   C4B30634  40.478  40.518   7.555
 2193POPC   NC330635  35.368  43.651   9.746
 2193POPC   PO430636  35.526  42.999   9.652
 2193POPC   GL130637  35.628  42.971   9.192
 2193POPC   GL230638  35.301  43.037   9.098
 2193POPC   C1A30639  35.714  43.206   8.798
 2193POPC   D2A30640  35.551  43.093   8.392
 2193POPC   C3A30641  35.707  43.231   8.024
 2193POPC   C4A30642  35.388  43.148   7.753
 2193POPC   C1B30643  35.203  43.282   8.731
 2193POPC   C2B30644  35.070  43.250   8.327
 2193POPC   C3B30645  34.968  43.395   7.972
 2193POPC   C4B30646  34.933  43.258   7.568
 2194POPC   NC330647  32.889   6.536   9.527
 2194POPC   PO430648  33.312   6.110   9.226
 2194POPC   GL130649  33.019   6.380   9.035
 2194POPC   GL230650  32.664   6.284   9.138
 2194POPC   C1A30651  33.016   6.725   8.707
 2194POPC   D2A30652  32.923   6.917   8.277
 2194POPC   C3A30653  33.176   6.744   7.881
 2194POPC   C4A30654  33.239   6.879   7.442
 2194POPC   C1B30655  32.625   6.395   8.695
 2194POPC   C2B30656  32.851   6.418   8.310
 2194POPC   C3B30657  32.707   6.568   7.913
 2194POPC   C4B30658  32.814   6.623   7.487
 2195POPC   NC330659  34.210  38.587   9.521
 2195POPC   PO430660  34.873  38.381   9.583
 2195POPC   GL130661  34.737  38.594   9.238
 2195POPC   GL230662  34.471  38.390   9.114
 2195POPC   C1A30663  34.708  38.705   8.808
 2195POPC   D2A30664  34.875  38.550   8.431
 2195POPC   C3A30665  34.567  38.392   8.152
 2195POPC   C4A30666  34.747  38.542   7.773
 2195POPC   C1B30667  34.546  38.212   8.690
 2195POPC   C2B30668  34.199  38.056   8.425
 2195POPC   C3B30669  34.025  38.156   8.018
 2195POPC   C4B30670  34.259  38.350   7.704
 2196POPC   NC330671  23.580  17.612   9.687
 2196POPC   PO430672  23.796  17.098   9.508
 2196POPC   GL130673  23.531  17.398   9.197
 2196POPC   GL230674  23.607  17.722   9.084
 2196POPC   C1A30675  23.470  17.440   8.700
 2196POPC   D2A30676  23.694  17.378   8.289
 2196POPC   C3A30677  23.459  17.303   7.928
 2196POPC   C4A30678  23.502  17.142   7.516
 2196POPC   C1B30679  23.859  17.761   8.690
 2196POPC   C2B30680  23.665  17.889   8.273
 2196POPC   C3B30681  23.676  17.773   7.793
 2196POPC   C4B30682  23.745  17.946   7.329
 2197POPC   NC330683  29.396   6.791   9.689
 2197POPC   PO430684  29.130   6.318   9.364
 2197POPC   GL130685  29.223   6.570   9.076
 2197POPC   GL230686  29.210   6.881   9.218
 2197POPC   C1A30687  29.151   6.475   8.684
 2197POPC   D2A30688  29.423   6.358   8.373
 2197POPC   C3A30689  29.229   6.497   8.011
 2197POPC   C4A30690  29.379   6.423   7.614
 2197POPC   C1B30691  29.285   6.996   8.790
 2197POPC   C2B30692  29.111   6.891   8.384
 2197POPC   C3B30693  29.083   7.080   7.995
 2197POPC   C4B30694  29.181   6.880   7.637
 2198POPC   NC330695  11.263  24.076   9.488
 2198POPC   PO430696  11.051  23.460   9.284
 2198POPC   GL130697  11.101  23.792   9.056
 2198POPC   GL230698  11.463  23.774   9.123
 2198POPC   C1A30699  11.116  23.766   8.602
 2198POPC   D2A30700  11.412  23.463   8.435
 2198POPC   C3A30701  11.595  23.505   8.046
 2198POPC   C4A30702  11.460  23.413   7.654
 2198POPC   C1B30703  11.633  23.858   8.746
 2198POPC   C2B30704  11.541  23.962   8.326
 2198POPC   C3B30705  11.170  23.885   8.083
 2198POPC   C4B30706  11.028  23.745   7.653
 2199POPC   NC330707   7.692  35.255   9.522
 2199POPC   PO430708   7.057  35.577   9.442
 2199POPC   GL130709   7.319  35.359   9.167
 2199POPC   GL230710   7.601  35.599   9.164
 2199POPC   C1A30711   7.334  35.128   8.783
 2199POPC   D2A30712   7.152  35.216   8.384
 2199POPC   C3A30713   7.309  35.062   7.979
 2199POPC   C4A30714   7.043  35.177   7.587
 2199POPC   C1B30715   7.449  35.692   8.763
 2199POPC   C2B30716   7.424  35.637   8.377
 2199POPC   C3B30717   7.479  35.525   7.988
 2199POPC   C4B30718   7.550  35.381   7.571
 2200POPC   NC330719   8.988  30.838   9.467
 2200POPC   PO430720   8.731  30.234   9.742
 2200POPC   GL130721   8.723  30.459   9.265
 2200POPC   GL230722   8.805  30.789   9.013
 2200POPC   C1A30723   8.748  30.336   8.814
 2200POPC   D2A30724   8.955  30.425   8.421
 2200POPC   C3A30725   8.751  30.548   8.013
 2200POPC   C4A30726   8.806  30.827   7.653
 2200POPC   C1B30727   9.214  30.687   8.787
 2200POPC   C2B30728   9.404  30.652   8.355
 2200POPC   C3B30729   9.208  30.817   7.950
 2200POPC   C4B30730   9.253  30.966   7.449
 2201POPC   NC330731  14.304  40.889   9.319
 2201POPC   PO430732  14.887  41.163   9.247
 2201POPC   GL130733  14.651  40.805   8.972
 2201POPC   GL230734  14.617  40.468   9.191
 2201POPC   C1A30735  14.231  40.768   8.680
 2201POPC   D2A30736  14.110  40.588   8.272
 2201POPC   C3A30737  14.092  40.917   7.934
 2201POPC   C4A30738  14.465  41.118   7.776
 2201POPC   C1B30739  14.510  40.354   8.761
 2201POPC   C2B30740  14.630  40.632   8.404
 2201POPC   C3B30741  14.546  40.695   8.037
 2201POPC   C4B30742  14.266  40.470   7.771
 2202POPC   NC330743  34.774  11.207   9.522
 2202POPC   PO430744  34.063  11.199   9.465
 2202POPC   GL130745  34.372  11.401   9.218
 2202POPC   GL230746  34.527  11.165   9.083
 2202POPC   C1A30747  34.341  11.533   8.788
 2202POPC   D2A30748  34.474  11.265   8.441
 2202POPC   C3A30749  34.218  11.325   8.080
 2202POPC   C4A30750  34.203  11.325   7.643
 2202POPC   C1B30751  34.828  11.389   8.847
 2202POPC   C2B30752  34.958  11.419   8.429
 2202POPC   C3B30753  34.905  11.187   8.025
 2202POPC   C4B30754  34.732  11.172   7.588
 2203POPC   NC330755  27.346   2.615   9.334
 2203POPC   PO430756  27.830   3.019   9.623
 2203POPC   GL130757  27.848   2.707   9.257
 2203POPC   GL230758  27.634   2.966   9.130
 2203POPC   C1A30759  27.730   2.597   8.790
 2203POPC   D2A30760  27.407   2.602   8.449
 2203POPC   C3A30761  27.586   2.481   8.054
 2203POPC   C4A30762  27.765   2.843   7.849
 2203POPC   C1B30763  27.457   3.046   8.710
 2203POPC   C2B30764  27.314   3.139   8.302
 2203POPC   C3B30765  27.488   3.273   7.926
 2203POPC   C4B30766  27.447   3.129   7.503
 2204POPC   NC330767   9.147  40.380   9.382
 2204POPC   PO430768   8.805  41.020   9.450
 2204POPC   GL130769   9.178  40.893   9.201
 2204POPC   GL230770   9.198  41.163   8.968
 2204POPC   C1A30771   9.304  40.675   8.812
 2204POPC   D2A30772   9.013  40.487   8.514
 2204POPC   C3A30773   9.157  40.512   8.103
 2204POPC   C4A30774   9.034  40.836   7.801
 2204POPC   C1B30775   8.869  40.932   8.767
 2204POPC   C2B30776   8.968  40.973   8.337
 2204POPC   C3B30777   8.757  41.194   8.047
 2204POPC   C4B30778   8.542  41.031   7.715
 2205POPC   NC330779  16.069   8.583   9.481
 2205POPC   PO430780  16.244   9.282   9.462
 2205POPC   GL130781  15.920   9.050   9.195
 2205POPC   GL230782  16.151   8.846   9.050
 2205POPC   C1A30783  15.717   8.789   8.808
 2205POPC   D2A30784  15.654   8.633   8.368
 2205POPC   C3A30785  15.967   8.810   8.079
 2205POPC   C4A30786  16.010   8.911   7.638
 2205POPC   C1B30787  16.331   9.070   8.710
 2205POPC   C2B30788  16.282   9.176   8.299
 2205POPC   C3B30789  16.441   9.058   7.905
 2205POPC   C4B30790  16.313   9.332   7.590
 2206POPC   NC330791  44.067  44.974   9.474
 2206POPC   PO430792  43.535  44.565   9.645
 2206POPC   GL130793  43.603  44.761   9.230
 2206POPC   GL230794  43.781  44.493   9.073
 2206POPC   C1A30795  43.790  44.955   8.812
 2206POPC   D2A30796  43.675  44.876   8.356
 2206POPC   C3A30797  43.906  44.910   7.966
 2206POPC   C4A30798  44.082  44.575   7.686
 2206POPC   C1B30799  43.869  44.447   8.628
 2206POPC   C2B30800  43.940  44.454   8.192
 2206POPC   C3B30801  43.619  44.450   7.862
 2206POPC   C4B30802  43.610  44.128   7.525
 2207POPC   NC330803   0.185  20.666   9.396
 2207POPC   PO430804  44.548  20.356   9.476
 2207POPC   GL130805  44.717  20.583   9.155
 2207POPC   GL230806  44.724  20.895   9.295
 2207POPC   C1A30807  44.818  20.537   8.725
 2207POPC   D2A30808  44.645  20.671   8.364
 2207POPC   C3A30809  44.913  20.488   8.069
 2207POPC   C4A30810  44.756  20.339   7.698
 2207POPC   C1B30811  44.710  21.010   8.881
 2207POPC   C2B30812  44.996  21.023   8.533
 2207POPC   C3B30813  44.955  21.008   8.100
 2207POPC   C4B30814  44.600  20.837   7.847
 2208POPC   NC330815  11.055   0.202   9.484
 2208POPC   PO430816  11.606   0.302   9.122
 2208POPC   GL130817  11.389   0.636   8.980
 2208POPC   GL230818  11.073   0.566   9.096
 2208POPC   C1A30819  11.217   0.754   8.597
 2208POPC   D2A30820  11.263   0.666   8.169
 2208POPC   C3A30821  11.582   0.335   8.002
 2208POPC   C4A30822  11.548   0.371   7.533
 2208POPC   C1B30823  11.077   0.259   8.744
 2208POPC   C2B30824  11.126   0.187   8.280
 2208POPC   C3B30825  11.117   0.333   7.807
 2208POPC   C4B30826  11.068   0.251   7.342
 2209POPC   NC330827   2.702  28.587   9.425
 2209POPC   PO430828   2.454  29.138   9.905
 2209POPC   GL130829   2.592  29.111   9.395
 2209POPC   GL230830   2.884  29.308   9.235
 2209POPC   C1A30831   2.655  29.004   8.895
 2209POPC   D2A30832   2.604  28.850   8.461
 2209POPC   C3A30833   2.742  29.039   8.050
 2209POPC   C4A30834   2.543  29.208   7.621
 2209POPC   C1B30835   2.821  29.516   8.824
 2209POPC   C2B30836   2.919  29.402   8.403
 2209POPC   C3B30837   2.830  29.534   8.008
 2209POPC   C4B30838   3.024  29.383   7.661
 2210POPC   NC330839  32.694  23.762   9.569
 2210POPC   PO430840  33.355  23.615   9.479
 2210POPC   GL130841  33.172  23.695   9.054
 2210POPC   GL230842  32.967  23.964   9.186
 2210POPC   C1A30843  33.160  23.683   8.560
 2210POPC   D2A30844  33.431  23.597   8.243
 2210POPC   C3A30845  33.266  23.674   7.863
 2210POPC   C4A30846  33.410  23.486   7.503
 2210POPC   C1B30847  32.901  24.055   8.769
 2210POPC   C2B30848  32.929  24.192   8.348
 2210POPC   C3B30849  32.869  23.983   7.974
 2210POPC   C4B30850  32.819  24.029   7.549
 2211POPC   NC330851   7.366  21.547   9.456
 2211POPC   PO430852   6.990  21.078   9.090
 2211POPC   GL130853   7.400  21.158   9.110
 2211POPC   GL230854   7.389  21.491   8.960
 2211POPC   C1A30855   7.661  21.119   8.750
 2211POPC   D2A30856   7.471  21.365   8.414
 2211POPC   C3A30857   7.364  21.156   8.036
 2211POPC   C4A30858   7.642  21.095   7.696
 2211POPC   C1B30859   7.743  21.628   8.783
 2211POPC   C2B30860   7.758  21.795   8.390
 2211POPC   C3B30861   7.702  21.588   7.988
 2211POPC   C4B30862   7.355  21.545   7.718
 2212POPC   NC330863  31.065   6.066   9.635
 2212POPC   PO430864  31.717   5.877   9.546
 2212POPC   GL130865  31.372   5.964   9.246
 2212POPC   GL230866  31.362   5.603   9.219
 2212POPC   C1A30867  31.180   5.835   8.828
 2212POPC   D2A30868  31.329   5.596   8.443
 2212POPC   C3A30869  31.158   5.750   8.062
 2212POPC   C4A30870  31.257   6.001   7.717
 2212POPC   C1B30871  31.679   5.795   8.890
 2212POPC   C2B30872  31.848   5.622   8.544
 2212POPC   C3B30873  31.815   5.445   8.148
 2212POPC   C4B30874  31.582   5.626   7.816
 2213POPC   NC330875  44.819  29.373   9.481
 2213POPC   PO430876  44.143  29.133   9.661
 2213POPC   GL130877  44.452  29.086   9.260
 2213POPC   GL230878  44.797  28.885   9.231
 2213POPC   C1A30879  44.677  29.215   8.851
 2213POPC   D2A30880  44.818  29.511   8.544
 2213POPC   C3A30881  44.808  29.410   8.149
 2213POPC   C4A30882  44.719  29.416   7.737
 2213POPC   C1B30883   0.093  28.870   8.865
 2213POPC   C2B30884   0.015  29.049   8.453
 2213POPC   C3B30885  44.975  28.961   7.991
 2213POPC   C4B30886   0.232  28.936   7.644
 2214POPC   NC330887  12.416  27.223   9.334
 2214POPC   PO430888  13.026  27.295   9.201
 2214POPC   GL130889  12.822  27.617   9.037
 2214POPC   GL230890  12.700  27.868   9.244
 2214POPC   C1A30891  12.723  27.612   8.604
 2214POPC   D2A30892  12.570  27.584   8.207
 2214POPC   C3A30893  12.924  27.399   8.012
 2214POPC   C4A30894  12.982  27.255   7.601
 2214POPC   C1B30895  12.723  28.084   8.806
 2214POPC   C2B30896  12.633  28.083   8.339
 2214POPC   C3B30897  12.790  27.950   7.932
 2214POPC   C4B30898  12.594  27.599   7.687
 2215POPC   NC330899  13.643   3.334   9.506
 2215POPC   PO430900  13.314   3.956   9.483
 2215POPC   GL130901  13.677   3.791   9.251
 2215POPC   GL230902  13.642   4.064   9.051
 2215POPC   C1A30903  13.847   3.556   8.879
 2215POPC   D2A30904  13.584   3.499   8.522
 2215POPC   C3A30905  13.773   3.388   8.131
 2215POPC   C4A30906  13.461   3.287   7.814
 2215POPC   C1B30907  13.670   3.975   8.678
 2215POPC   C2B30908  13.705   4.106   8.309
 2215POPC   C3B30909  13.814   3.875   7.993
 2215POPC   C4B30910  13.784   3.644   7.619
 2216POPC   NC330911  22.346  15.761   9.258
 2216POPC   PO430912  21.689  15.946   9.554
 2216POPC   GL130913  21.846  16.038   9.168
 2216POPC   GL230914  22.140  16.228   9.148
 2216POPC   C1A30915  21.938  16.012   8.742
 2216POPC   D2A30916  22.070  16.001   8.340
 2216POPC   C3A30917  21.904  15.847   7.992
 2216POPC   C4A30918  22.268  15.737   7.745
 2216POPC   C1B30919  22.428  16.223   8.737
 2216POPC   C2B30920  22.522  16.226   8.269
 2216POPC   C3B30921  22.270  16.225   7.897
 2216POPC   C4B30922  22.372  16.366   7.404
 2217POPC   NC330923   0.762   9.981   9.315
 2217POPC   PO430924   1.335  10.184   9.620
 2217POPC   GL130925   1.299   9.979   9.168
 2217POPC   GL230926   1.562   9.734   9.077
 2217POPC   C1A30927   1.261   9.914   8.688
 2217POPC   D2A30928   1.147  10.178   8.298
 2217POPC   C3A30929   1.223   9.896   7.942
 2217POPC   C4A30930   1.129   9.449   7.998
 2217POPC   C1B30931   1.656   9.505   8.722
 2217POPC   C2B30932   1.471   9.362   8.374
 2217POPC   C3B30933   1.631   9.334   7.990
 2217POPC   C4B30934   1.846   9.453   7.644
 2218POPC   NC330935  42.223  39.399   9.455
 2218POPC   PO430936  42.652  38.938   9.485
 2218POPC   GL130937  42.327  38.998   9.153
 2218POPC   GL230938  42.421  39.326   9.008
 2218POPC   C1A30939  42.233  39.003   8.683
 2218POPC   D2A30940  42.423  39.022   8.286
 2218POPC   C3A30941  42.203  38.884   7.922
 2218POPC   C4A30942  42.153  38.933   7.453
 2218POPC   C1B30943  42.040  39.461   8.790
 2218POPC   C2B30944  42.169  39.608   8.390
 2218POPC   C3B30945  42.255  39.424   8.019
 2218POPC   C4B30946  41.970  39.316   7.748
 2219POPC   NC330947  21.947  11.151   9.682
 2219POPC   PO430948  22.552  11.285   9.637
 2219POPC   GL130949  22.231  11.116   9.241
 2219POPC   GL230950  21.852  11.175   9.185
 2219POPC   C1A30951  22.076  11.067   8.758
 2219POPC   D2A30952  22.152  10.914   8.334
 2219POPC   C3A30953  22.162  11.221   7.969
 2219POPC   C4A30954  22.478  11.408   7.727
 2219POPC   C1B30955  21.660  11.395   8.807
 2219POPC   C2B30956  21.727  11.470   8.324
 2219POPC   C3B30957  21.920  11.698   7.966
 2219POPC   C4B30958  22.168  11.832   7.601
 2220POPC   NC330959  29.909  14.663   9.352
 2220POPC   PO430960  29.513  15.077   9.631
 2220POPC   GL130961  29.775  15.160   9.224
 2220POPC   GL230962  29.761  14.890   8.954
 2220POPC   C1A30963  29.807  15.377   8.800
 2220POPC   D2A30964  29.764  15.337   8.334
 2220POPC   C3A30965  30.142  15.338   8.073
 2220POPC   C4A30966  30.360  15.283   7.674
 2220POPC   C1B30967  29.961  14.931   8.590
 2220POPC   C2B30968  29.971  14.870   8.178
 2220POPC   C3B30969  29.951  14.969   7.747
 2220POPC   C4B30970  30.165  14.781   7.392
 2221POPC   NC330971  19.641  11.673  10.049
 2221POPC   PO430972  19.968  11.828   9.489
 2221POPC   GL130973  20.084  12.044   9.147
 2221POPC   GL230974  19.719  12.079   9.086
 2221POPC   C1A30975  20.147  11.921   8.766
 2221POPC   D2A30976  19.839  11.872   8.459
 2221POPC   C3A30977  20.074  11.935   8.061
 2221POPC   C4A30978  20.073  12.130   7.686
 2221POPC   C1B30979  19.505  12.353   8.793
 2221POPC   C2B30980  19.536  12.273   8.344
 2221POPC   C3B30981  19.599  12.073   7.953
 2221POPC   C4B30982  19.639  12.348   7.569
 2222POPC   NC330983  12.152  42.255   9.653
 2222POPC   PO430984  11.592  42.164   9.257
 2222POPC   GL130985  11.922  42.462   9.099
 2222POPC   GL230986  12.278  42.519   9.136
 2222POPC   C1A30987  12.017  42.403   8.675
 2222POPC   D2A30988  12.194  42.420   8.280
 2222POPC   C3A30989  11.829  42.489   8.021
 2222POPC   C4A30990  11.843  42.698   7.647
 2222POPC   C1B30991  12.512  42.461   8.753
 2222POPC   C2B30992  12.712  42.545   8.375
 2222POPC   C3B30993  12.576  42.574   7.962
 2222POPC   C4B30994  12.252  42.405   7.742
 2223POPC   NC330995  38.719  37.456  10.047
 2223POPC   PO430996  38.289  37.592   9.512
 2223POPC   GL130997  38.353  37.546   9.088
 2223POPC   GL230998  38.700  37.518   9.181
 2223POPC   C1A30999  38.203  37.822   8.756
 2223POPC   D2A31000  38.262  38.126   8.403
 2223POPC   C3A31001  38.175  37.900   8.009
 2223POPC   C4A31002  38.507  37.665   7.794
 2223POPC   C1B31003  38.720  37.727   8.783
 2223POPC   C2B31004  38.577  37.697   8.387
 2223POPC   C3B31005  38.885  37.686   8.133
 2223POPC   C4B31006  39.068  37.710   7.773
 2224POPC   NC331007  18.712  38.402   9.623
 2224POPC   PO431008  19.443  38.395   9.680
 2224POPC   GL131009  19.155  38.440   9.300
 2224POPC   GL231010  18.917  38.707   9.227
 2224POPC   C1A31011  19.140  38.300   8.869
 2224POPC   D2A31012  19.004  38.307   8.425
 2224POPC   C3A31013  19.254  38.459   8.088
 2224POPC   C4A31014  19.205  38.417   7.643
 2224POPC   C1B31015  18.756  38.601   8.795
 2224POPC   C2B31016  18.588  38.601   8.369
 2224POPC   C3B31017  18.740  38.486   7.959
 2224POPC   C4B31018  18.603  38.730   7.621
 2225POPC   NC331019  31.714  29.516   9.400
 2225POPC   PO431020  31.170  29.144   9.331
 2225POPC   GL131021  31.502  29.193   9.066
 2225POPC   GL231022  31.351  29.526   9.031
 2225POPC   C1A31023  31.704  29.159   8.670
 2225POPC   D2A31024  31.484  28.975   8.321
 2225POPC   C3A31025  31.685  28.909   7.948
 2225POPC   C4A31026  31.550  28.892   7.545
 2225POPC   C1B31027  31.248  29.361   8.638
 2225POPC   C2B31028  31.329  29.463   8.217
 2225POPC   C3B31029  31.339  29.265   7.840
 2225POPC   C4B31030  31.727  29.375   7.664
 2226POPC   NC331031  36.255   0.802   9.536
 2226POPC   PO431032  36.038   1.521   9.639
 2226POPC   GL131033  36.143   1.464   9.206
 2226POPC   GL231034  36.038   1.126   9.172
 2226POPC   C1A31035  36.014   1.439   8.749
 2226POPC   D2A31036  36.215   1.178   8.418
 2226POPC   C3A31037  36.039   1.248   8.025
 2226POPC   C4A31038  36.311   1.090   7.730
 2226POPC   C1B31039  36.008   0.861   8.814
 2226POPC   C2B31040  36.038   0.681   8.409
 2226POPC   C3B31041  36.024   0.709   7.989
 2226POPC   C4B31042  35.894   0.818   7.584
 2227POPC   NC331043  33.206  35.385   9.266
 2227POPC   PO431044  32.672  35.750   9.454
 2227POPC   GL131045  32.758  35.569   9.082
 2227POPC   GL231046  32.720  35.260   9.065
 2227POPC   C1A31047  32.845  35.705   8.691
 2227POPC   D2A31048  33.130  35.644   8.367
 2227POPC   C3A31049  33.082  35.524   7.949
 2227POPC   C4A31050  33.275  35.170   7.734
 2227POPC   C1B31051  32.994  35.190   8.686
 2227POPC   C2B31052  32.852  35.190   8.269
 2227POPC   C3B31053  32.789  35.101   7.839
 2227POPC   C4B31054  32.964  34.838   7.528
 2228POPC   NC331055  28.097  22.966   9.650
 2228POPC   PO431056  28.415  22.507   9.383
 2228POPC   GL131057  28.363  22.705   9.044
 2228POPC   GL231058  28.481  22.986   9.228
 2228POPC   C1A31059  28.312  22.839   8.636
 2228POPC   D2A31060  28.084  23.049   8.366
 2228POPC   C3A31061  28.084  22.847   7.996
 2228POPC   C4A31062  28.367  22.874   7.719
 2228POPC   C1B31063  28.592  23.155   8.890
 2228POPC   C2B31064  28.703  23.190   8.512
 2228POPC   C3B31065  28.556  23.049   8.172
 2228POPC   C4B31066  28.693  23.245   7.839
 2229POPC   NC331067  37.898  28.446   9.529
 2229POPC   PO431068  37.969  27.874   9.386
 2229POPC   GL131069  37.757  28.181   9.103
 2229POPC   GL231070  37.969  28.429   9.023
 2229POPC   C1A31071  37.540  28.316   8.730
 2229POPC   D2A31072  37.684  28.240   8.306
 2229POPC   C3A31073  37.462  28.421   7.951
 2229POPC   C4A31074  37.297  28.538   7.522
 2229POPC   C1B31075  37.976  28.552   8.605
 2229POPC   C2B31076  37.959  28.659   8.198
 2229POPC   C3B31077  37.878  28.664   7.769
 2229POPC   C4B31078  38.152  28.462   7.435
 2230POPC   NC331079  22.892  31.544   9.582
 2230POPC   PO431080  23.442  31.153   9.504
 2230POPC   GL131081  23.173  31.395   9.200
 2230POPC   GL231082  22.812  31.252   9.153
 2230POPC   C1A31083  23.153  31.432   8.757
 2230POPC   D2A31084  23.061  31.147   8.408
 2230POPC   C3A31085  23.109  31.311   7.980
 2230POPC   C4A31086  23.250  31.493   7.583
 2230POPC   C1B31087  22.658  31.315   8.724
 2230POPC   C2B31088  22.791  31.567   8.334
 2230POPC   C3B31089  22.647  31.580   7.910
 2230POPC   C4B31090  22.747  31.278   7.569
 2231POPC   NC331091  42.043  10.421   9.352
 2231POPC   PO431092  41.480  10.689   9.443
 2231POPC   GL131093  41.580  10.504   9.046
 2231POPC   GL231094  41.753  10.203   8.937
 2231POPC   C1A31095  41.450  10.444   8.612
 2231POPC   D2A31096  41.696  10.260   8.301
 2231POPC   C3A31097  41.603  10.504   7.949
 2231POPC   C4A31098  41.333  10.832   7.801
 2231POPC   C1B31099  42.000  10.496   8.678
 2231POPC   C2B31100  42.147  10.505   8.260
 2231POPC   C3B31101  42.039  10.282   7.864
 2231POPC   C4B31102  41.956  10.620   7.597
 2232POPC   NC331103  25.987   9.630   9.528
 2232POPC   PO431104  26.601   9.315   9.554
 2232POPC   GL131105  26.201   9.315   9.186
 2232POPC   GL231106  25.830   9.427   9.078
 2232POPC   C1A31107  26.177   9.593   8.774
 2232POPC   D2A31108  26.319   9.920   8.476
 2232POPC   C3A31109  26.238   9.848   8.046
 2232POPC   C4A31110  26.308   9.450   7.863
 2232POPC   C1B31111  25.811   9.250   8.660
 2232POPC   C2B31112  25.999   9.418   8.280
 2232POPC   C3B31113  25.807   9.629   7.909
 2232POPC   C4B31114  25.555   9.723   7.510
 2233POPC   NC331115  26.640  23.145   9.635
 2233POPC   PO431116  26.901  23.796   9.526
 2233POPC   GL131117  26.883  23.617   9.177
 2233POPC   GL231118  26.625  23.380   9.158
 2233POPC   C1A31119  26.791  23.713   8.784
 2233POPC   D2A31120  26.619  23.703   8.430
 2233POPC   C3A31121  26.804  23.600   8.070
 2233POPC   C4A31122  26.882  23.757   7.675
 2233POPC   C1B31123  26.492  23.278   8.738
 2233POPC   C2B31124  26.503  23.220   8.293
 2233POPC   C3B31125  26.490  23.212   7.838
 2233POPC   C4B31126  26.614  23.366   7.414
 2234POPC   NC331127  33.621  20.211   9.606
 2234POPC   PO431128  34.089  19.735   9.685
 2234POPC   GL131129  34.151  19.982   9.270
 2234POPC   GL231130  33.835  20.097   9.130
 2234POPC   C1A31131  34.240  19.980   8.803
 2234POPC   D2A31132  34.184  19.874   8.346
 2234POPC   C3A31133  33.994  20.037   7.955
 2234POPC   C4A31134  34.009  19.758   7.577
 2234POPC   C1B31135  33.774  20.286   8.727
 2234POPC   C2B31136  33.670  20.088   8.354
 2234POPC   C3B31137  33.490  19.908   7.984
 2234POPC   C4B31138  33.157  19.997   7.690
 2235POPC   NC331139  25.340  41.138   9.700
 2235POPC   PO431140  25.018  41.689   9.495
 2235POPC   GL131141  25.238  41.521   9.137
 2235POPC   GL231142  25.444  41.244   9.086
 2235POPC   C1A31143  25.044  41.432   8.730
 2235POPC   D2A31144  25.200  41.455   8.336
 2235POPC   C3A31145  25.044  41.336   7.936
 2235POPC   C4A31146  25.035  41.376   7.495
 2235POPC   C1B31147  25.528  41.575   8.731
 2235POPC   C2B31148  25.702  41.678   8.345
 2235POPC   C3B31149  25.527  41.603   7.982
 2235POPC   C4B31150  25.544  41.336   7.702
 2236POPC   NC331151  25.390  19.567   9.593
 2236POPC   PO431152  25.570  20.264   9.454
 2236POPC   GL131153  25.357  20.080   9.126
 2236POPC   GL231154  25.212  19.782   9.170
 2236POPC   C1A31155  25.476  19.927   8.712
 2236POPC   D2A31156  25.744  19.956   8.352
 2236POPC   C3A31157  25.403  19.904   8.050
 2236POPC   C4A31158  25.294  19.618   7.731
 2236POPC   C1B31159  24.982  19.832   8.813
 2236POPC   C2B31160  25.067  19.664   8.412
 2236POPC   C3B31161  24.880  19.731   8.006
 2236POPC   C4B31162  24.985  20.093   7.743
 2237POPC   NC331163   9.489   8.556   9.462
 2237POPC   PO431164   9.540   7.846   9.517
 2237POPC   GL131165   9.434   8.132   9.122
 2237POPC   GL231166   9.388   8.503   8.978
 2237POPC   C1A31167   9.670   8.144   8.728
 2237POPC   D2A31168   9.950   8.030   8.396
 2237POPC   C3A31169   9.751   7.913   8.018
 2237POPC   C4A31170   9.736   7.945   7.598
 2237POPC   C1B31171   9.318   8.480   8.565
 2237POPC   C2B31172   9.559   8.327   8.240
 2237POPC   C3B31173   9.660   8.463   7.828
 2237POPC   C4B31174   9.464   8.721   7.449
 2238POPC   NC331175   3.403  42.010   9.347
 2238POPC   PO431176   3.541  42.619   9.674
 2238POPC   GL131177   3.717  42.527   9.261
 2238POPC   GL231178   3.865  42.168   9.193
 2238POPC   C1A31179   3.542  42.440   8.854
 2238POPC   D2A31180   3.509  42.613   8.470
 2238POPC   C3A31181   3.312  42.484   8.084
 2238POPC   C4A31182   3.469  42.512   7.630
 2238POPC   C1B31183   3.714  41.975   8.780
 2238POPC   C2B31184   3.514  42.076   8.390
 2238POPC   C3B31185   3.603  42.106   7.941
 2238POPC   C4B31186   3.290  42.044   7.558
 2239POPC   NC331187  20.350   0.685   9.428
 2239POPC   PO431188  20.682   0.060   9.606
 2239POPC   GL131189  20.693   0.316   9.219
 2239POPC   GL231190  21.009   0.246   9.099
 2239POPC   C1A31191  20.625   0.577   8.830
 2239POPC   D2A31192  20.315   0.663   8.481
 2239POPC   C3A31193  20.459   0.566   8.053
 2239POPC   C4A31194  20.697   0.570   7.679
 2239POPC   C1B31195  21.019   0.069   8.681
 2239POPC   C2B31196  21.027   0.089   8.213
 2239POPC   C3B31197  21.017   0.107   7.757
 2239POPC   C4B31198  21.072   0.369   7.388
 2240POPC   NC331199  31.481  35.489   9.553
 2240POPC   PO431200  31.356  34.872   9.373
 2240POPC   GL131201  31.424  35.195   9.139
 2240POPC   GL231202  31.757  35.245   9.155
 2240POPC   C1A31203  31.339  35.461   8.818
 2240POPC   D2A31204  31.105  35.469   8.426
 2240POPC   C3A31205  31.313  35.279   8.073
 2240POPC   C4A31206  31.378  35.463   7.704
 2240POPC   C1B31207  31.841  35.508   8.814
 2240POPC   C2B31208  31.653  35.453   8.413
 2240POPC   C3B31209  31.855  35.388   8.029
 2240POPC   C4B31210  31.888  35.554   7.636
 2241POPC   NC331211  43.072  17.935   9.620
 2241POPC   PO431212  42.910  18.642   9.806
 2241POPC   GL131213  43.118  18.457   9.354
 2241POPC   GL231214  42.998  18.132   9.176
 2241POPC   C1A31215  43.094  18.505   8.852
 2241POPC   D2A31216  43.045  18.765   8.456
 2241POPC   C3A31217  42.996  18.519   8.085
 2241POPC   C4A31218  43.052  18.304   7.685
 2241POPC   C1B31219  43.146  17.945   8.802
 2241POPC   C2B31220  43.108  18.114   8.393
 2241POPC   C3B31221  43.342  18.047   8.008
 2241POPC   C4B31222  43.131  17.801   7.676
 2242POPC   NC331223  32.884  26.742   9.772
 2242POPC   PO431224  33.206  26.550   9.303
 2242POPC   GL131225  32.964  26.863   9.190
 2242POPC   GL231226  32.681  26.674   9.155
 2242POPC   C1A31227  32.825  27.088   8.808
 2242POPC   D2A31228  33.026  27.151   8.407
 2242POPC   C3A31229  33.341  26.975   8.143
 2242POPC   C4A31230  33.326  27.018   7.686
 2242POPC   C1B31231  32.867  26.580   8.739
 2242POPC   C2B31232  32.929  26.649   8.293
 2242POPC   C3B31233  32.885  26.755   7.862
 2242POPC   C4B31234  33.005  26.624   7.459
 2243POPC   NC331235  29.262  26.550   9.559
 2243POPC   PO431236  28.800  27.038   9.522
 2243POPC   GL131237  29.030  26.855   9.213
 2243POPC   GL231238  29.370  27.012   9.165
 2243POPC   C1A31239  28.997  26.792   8.803
 2243POPC   D2A31240  29.200  26.901   8.445
 2243POPC   C3A31241  28.938  26.809   8.108
 2243POPC   C4A31242  29.133  26.619   7.740
 2243POPC   C1B31243  29.573  27.142   8.750
 2243POPC   C2B31244  29.683  27.040   8.299
 2243POPC   C3B31245  29.553  26.905   7.864
 2243POPC   C4B31246  29.509  27.195   7.537
 2244POPC   NC331247  22.064  31.935   9.532
 2244POPC   PO431248  22.165  32.571   9.585
 2244POPC   GL131249  22.112  32.316   9.216
 2244POPC   GL231250  22.443  32.197   9.126
 2244POPC   C1A31251  22.053  32.012   8.858
 2244POPC   D2A31252  22.074  32.225   8.469
 2244POPC   C3A31253  22.206  32.150   8.082
 2244POPC   C4A31254  21.858  32.074   7.796
 2244POPC   C1B31255  22.308  32.518   8.808
 2244POPC   C2B31256  22.429  32.610   8.400
 2244POPC   C3B31257  22.302  32.678   7.997
 2244POPC   C4B31258  22.141  32.489   7.680
 2245POPC   NC331259  18.574   5.503   9.281
 2245POPC   PO431260  18.067   5.702   9.643
 2245POPC   GL131261  18.054   5.677   9.162
 2245POPC   GL231262  18.351   5.820   8.970
 2245POPC   C1A31263  18.008   5.619   8.673
 2245POPC   D2A31264  18.314   5.754   8.299
 2245POPC   C3A31265  18.144   5.928   7.919
 2245POPC   C4A31266  17.822   6.099   7.655
 2245POPC   C1B31267  18.495   5.452   8.662
 2245POPC   C2B31268  18.682   5.421   8.229
 2245POPC   C3B31269  18.447   5.511   7.830
 2245POPC   C4B31270  18.572   5.501   7.365
 2246POPC   NC331271   2.484  28.675   9.869
 2246POPC   PO431272   3.057  28.359   9.632
 2246POPC   GL131273   3.047  28.325   9.155
 2246POPC   GL231274   2.854  28.069   9.022
 2246POPC   C1A31275   2.897  28.510   8.761
 2246POPC   D2A31276   2.729  28.350   8.376
 2246POPC   C3A31277   2.811  28.511   8.000
 2246POPC   C4A31278   2.595  28.714   7.683
 2246POPC   C1B31279   3.185  27.968   8.696
 2246POPC   C2B31280   3.263  27.800   8.280
 2246POPC   C3B31281   3.021  28.022   7.972
 2246POPC   C4B31282   2.863  27.953   7.562
 2247POPC   NC331283  26.916  22.053   9.460
 2247POPC   PO431284  26.219  22.166   9.537
 2247POPC   GL131285  26.508  22.248   9.209
 2247POPC   GL231286  26.547  21.878   9.166
 2247POPC   C1A31287  26.723  22.294   8.814
 2247POPC   D2A31288  26.722  22.503   8.409
 2247POPC   C3A31289  26.988  22.369   8.053
 2247POPC   C4A31290  26.824  22.251   7.651
 2247POPC   C1B31291  26.781  21.780   8.814
 2247POPC   C2B31292  26.854  21.986   8.403
 2247POPC   C3B31293  26.808  21.775   7.999
 2247POPC   C4B31294  26.775  21.747   7.552
 2248POPC   NC331295   7.010  19.217   9.481
 2248POPC   PO431296   6.468  18.926   9.247
 2248POPC   GL131297   6.770  19.158   8.991
 2248POPC   GL231298   7.017  19.429   9.035
 2248POPC   C1A31299   6.704  19.136   8.565
 2248POPC   D2A31300   6.440  18.786   8.421
 2248POPC   C3A31301   6.468  18.684   7.986
 2248POPC   C4A31302   6.730  18.925   7.705
 2248POPC   C1B31303   7.133  19.564   8.682
 2248POPC   C2B31304   6.911  19.512   8.266
 2248POPC   C3B31305   6.768  19.438   7.826
 2248POPC   C4B31306   6.967  19.462   7.416
 2249POPC   NC331307  43.985  34.705   9.437
 2249POPC   PO431308  43.415  34.387   9.555
 2249POPC   GL131309  43.650  34.376   9.130
 2249POPC   GL231310  43.873  34.577   8.984
 2249POPC   C1A31311  43.793  34.213   8.663
 2249POPC   D2A31312  43.897  34.486   8.329
 2249POPC   C3A31313  43.723  34.423   7.954
 2249POPC   C4A31314  43.838  34.774   7.755
 2249POPC   C1B31315  44.199  34.542   8.739
 2249POPC   C2B31316  44.382  34.687   8.396
 2249POPC   C3B31317  44.304  34.623   7.987
 2249POPC   C4B31318  44.188  34.330   7.739
 2250POPC   NC331319  11.754  38.349   9.552
 2250POPC   PO431320  12.211  37.885   9.736
 2250POPC   GL131321  12.096  37.830   9.249
 2250POPC   GL231322  11.845  37.566   9.162
 2250POPC   C1A31323  12.253  37.793   8.794
 2250POPC   D2A31324  12.094  37.835   8.389
 2250POPC   C3A31325  12.292  37.829   8.005
 2250POPC   C4A31326  12.126  37.736   7.593
 2250POPC   C1B31327  11.739  37.856   8.809
 2250POPC   C2B31328  11.610  38.007   8.425
 2250POPC   C3B31329  11.652  37.887   8.017
 2250POPC   C4B31330  11.419  37.933   7.651
 2251POPC   NC331331  31.748  12.704   9.597
 2251POPC   PO431332  31.812  13.326   9.916
 2251POPC   GL131333  31.662  13.192   9.434
 2251POPC   GL231334  31.935  13.137   9.198
 2251POPC   C1A31335  31.475  12.959   9.020
 2251POPC   D2A31336  31.362  12.783   8.553
 2251POPC   C3A31337  31.358  12.767   8.060
 2251POPC   C4A31338  31.166  12.992   7.670
 2251POPC   C1B31339  31.918  12.903   8.779
 2251POPC   C2B31340  31.850  12.676   8.398
 2251POPC   C3B31341  31.843  12.912   8.041
 2251POPC   C4B31342  31.687  13.009   7.664
 2252POPC   NC331343  27.707  38.765   9.510
 2252POPC   PO431344  28.139  38.367   9.693
 2252POPC   GL131345  27.890  38.330   9.222
 2252POPC   GL231346  27.589  38.535   9.055
 2252POPC   C1A31347  27.802  38.171   8.774
 2252POPC   D2A31348  27.525  38.465   8.547
 2252POPC   C3A31349  27.523  38.441   8.126
 2252POPC   C4A31350  27.510  38.391   7.689
 2252POPC   C1B31351  27.319  38.864   8.820
 2252POPC   C2B31352  27.354  39.066   8.399
 2252POPC   C3B31353  27.383  38.894   7.949
 2252POPC   C4B31354  27.550  38.969   7.507
 2253POPC   NC331355  23.528  18.117   9.394
 2253POPC   PO431356  24.121  18.409   9.452
 2253POPC   GL131357  23.831  18.406   9.095
 2253POPC   GL231358  23.484  18.516   9.079
 2253POPC   C1A31359  23.734  18.245   8.705
 2253POPC   D2A31360  23.852  18.411   8.327
 2253POPC   C3A31361  24.048  18.157   8.057
 2253POPC   C4A31362  23.881  18.237   7.700
 2253POPC   C1B31363  23.227  18.278   8.768
 2253POPC   C2B31364  23.347  18.392   8.357
 2253POPC   C3B31365  23.414  18.207   7.960
 2253POPC   C4B31366  23.286  18.017   7.542
 2254POPC   NC331367  11.943   8.759   9.745
 2254POPC   PO431368  12.201   9.274   9.675
 2254POPC   GL131369  12.166   9.047   9.234
 2254POPC   GL231370  12.276   8.691   9.151
 2254POPC   C1A31371  12.160   8.973   8.744
 2254POPC   D2A31372  12.007   8.692   8.407
 2254POPC   C3A31373  11.901   8.845   7.993
 2254POPC   C4A31374  12.136   9.206   7.815
 2254POPC   C1B31375  12.409   8.510   8.701
 2254POPC   C2B31376  12.492   8.536   8.251
 2254POPC   C3B31377  12.379   8.724   7.865
 2254POPC   C4B31378  12.542   9.020   7.542
 2255POPC   NC331379  28.022  19.242   9.384
 2255POPC   PO431380  28.238  18.681   9.429
 2255POPC   GL131381  28.355  18.985   9.091
 2255POPC   GL231382  28.491  19.346   9.178
 2255POPC   C1A31383  28.196  19.109   8.691
 2255POPC   D2A31384  28.350  19.273   8.306
 2255POPC   C3A31385  28.141  19.219   7.923
 2255POPC   C4A31386  28.129  18.920   7.600
 2255POPC   C1B31387  28.653  19.344   8.743
 2255POPC   C2B31388  28.754  19.571   8.340
 2255POPC   C3B31389  28.690  19.418   7.889
 2255POPC   C4B31390  28.458  19.311   7.504
 2256POPC   NC331391  11.761  19.035   9.863
 2256POPC   PO431392  12.099  19.361   9.367
 2256POPC   GL131393  11.937  19.298   8.985
 2256POPC   GL231394  11.818  18.972   9.063
 2256POPC   C1A31395  12.108  19.352   8.594
 2256POPC   D2A31396  12.313  18.992   8.439
 2256POPC   C3A31397  12.055  19.018   8.155
 2256POPC   C4A31398  12.252  19.176   7.816
 2256POPC   C1B31399  11.747  18.966   8.615
 2256POPC   C2B31400  11.717  18.629   8.320
 2256POPC   C3B31401  11.772  18.681   7.909
 2256POPC   C4B31402  12.194  18.670   7.809
 2257POPC   NC331403  28.202  17.737   9.510
 2257POPC   PO431404  28.709  17.267   9.458
 2257POPC   GL131405  28.392  17.447   9.097
 2257POPC   GL231406  28.117  17.683   9.028
 2257POPC   C1A31407  28.465  17.584   8.667
 2257POPC   D2A31408  28.647  17.381   8.334
 2257POPC   C3A31409  28.648  17.563   7.926
 2257POPC   C4A31410  28.601  17.236   7.614
 2257POPC   C1B31411  27.978  17.441   8.704
 2257POPC   C2B31412  28.014  17.628   8.312
 2257POPC   C3B31413  28.127  17.812   7.931
 2257POPC   C4B31414  28.303  17.648   7.544
 2258POPC   NC331415  11.395  20.196   9.461
 2258POPC   PO431416  11.250  20.842   9.487
 2258POPC   GL131417  11.181  20.546   9.156
 2258POPC   GL231418  11.513  20.454   9.054
 2258POPC   C1A31419  11.086  20.484   8.721
 2258POPC   D2A31420  11.060  20.325   8.287
 2258POPC   C3A31421  11.057  20.633   7.950
 2258POPC   C4A31422  11.380  20.752   7.669
 2258POPC   C1B31423  11.715  20.260   8.717
 2258POPC   C2B31424  11.590  20.275   8.290
 2258POPC   C3B31425  11.667  20.376   7.879
 2258POPC   C4B31426  11.904  20.135   7.630
 2259POPC   NC331427  27.325  23.573   9.464
 2259POPC   PO431428  27.792  24.038   9.510
 2259POPC   GL131429  27.709  23.797   9.200
 2259POPC   GL231430  27.375  23.972   9.164
 2259POPC   C1A31431  27.620  23.715   8.779
 2259POPC   D2A31432  27.527  23.947   8.407
 2259POPC   C3A31433  27.709  23.851   8.032
 2259POPC   C4A31434  27.855  23.646   7.710
 2259POPC   C1B31435  27.172  24.039   8.790
 2259POPC   C2B31436  27.019  24.007   8.378
 2259POPC   C3B31437  27.207  23.998   7.974
 2259POPC   C4B31438  27.385  23.758   7.604
 2260POPC   NC331439  12.944  40.441   9.676
 2260POPC   PO431440  12.559  40.947   9.558
 2260POPC   GL131441  12.795  40.915   9.180
 2260POPC   GL231442  12.812  40.589   9.209
 2260POPC   C1A31443  12.634  40.932   8.760
 2260POPC   D2A31444  12.788  41.024   8.338
 2260POPC   C3A31445  12.665  40.958   7.912
 2260POPC   C4A31446  13.010  41.118   7.632
 2260POPC   C1B31447  12.626  40.406   8.857
 2260POPC   C2B31448  12.667  40.527   8.438
 2260POPC   C3B31449  12.712  40.408   8.031
 2260POPC   C4B31450  12.898  40.310   7.663
 2261POPC   NC331451   6.936  41.640   9.494
 2261POPC   PO431452   6.396  41.191   9.491
 2261POPC   GL131453   6.596  41.428   9.130
 2261POPC   GL231454   6.681  41.819   9.098
 2261POPC   C1A31455   6.609  41.559   8.689
 2261POPC   D2A31456   6.768  41.413   8.337
 2261POPC   C3A31457   6.672  41.761   8.116
 2261POPC   C4A31458   6.612  41.738   7.705
 2261POPC   C1B31459   7.063  41.623   8.837
 2261POPC   C2B31460   7.196  41.716   8.383
 2261POPC   C3B31461   7.103  41.558   7.947
 2261POPC   C4B31462   7.102  41.684   7.501
 2262POPC   NC331463  10.535   6.210   9.494
 2262POPC   PO431464  10.035   5.672   9.495
 2262POPC   GL131465  10.338   5.818   9.190
 2262POPC   GL231466  10.163   6.128   9.125
 2262POPC   C1A31467  10.617   5.783   8.794
 2262POPC   D2A31468  10.481   5.678   8.354
 2262POPC   C3A31469  10.644   5.868   7.941
 2262POPC   C4A31470  10.505   5.797   7.502
 2262POPC   C1B31471  10.389   6.270   8.774
 2262POPC   C2B31472  10.573   6.182   8.398
 2262POPC   C3B31473  10.363   6.299   8.028
 2262POPC   C4B31474  10.392   6.293   7.612
 2263POPC   NC331475  23.137   4.182   9.327
 2263POPC   PO431476  22.608   4.088   9.732
 2263POPC   GL131477  22.635   4.248   9.187
 2263POPC   GL231478  22.849   4.045   8.933
 2263POPC   C1A31479  22.701   4.410   8.671
 2263POPC   D2A31480  22.698   4.350   8.231
 2263POPC   C3A31481  22.959   4.611   7.982
 2263POPC   C4A31482  22.668   4.493   7.681
 2263POPC   C1B31483  23.083   3.881   8.634
 2263POPC   C2B31484  23.051   3.868   8.192
 2263POPC   C3B31485  23.018   4.111   7.846
 2263POPC   C4B31486  23.440   4.033   7.681
 2264POPC   NC331487  37.842  23.516   9.440
 2264POPC   PO431488  37.831  22.868   9.592
 2264POPC   GL131489  37.698  22.823   9.196
 2264POPC   GL231490  37.626  23.173   9.143
 2264POPC   C1A31491  37.562  22.571   8.832
 2264POPC   D2A31492  37.473  22.684   8.448
 2264POPC   C3A31493  37.720  22.657   8.095
 2264POPC   C4A31494  37.611  22.850   7.725
 2264POPC   C1B31495  37.659  23.070   8.749
 2264POPC   C2B31496  37.850  23.084   8.384
 2264POPC   C3B31497  37.611  23.210   8.087
 2264POPC   C4B31498  37.692  23.355   7.701
 2265POPC   NC331499  39.764   1.445   9.200
 2265POPC   PO431500  40.336   1.551   9.553
 2265POPC   GL131501  40.293   1.290   9.163
 2265POPC   GL231502  40.081   0.963   9.195
 2265POPC   C1A31503  40.216   1.167   8.729
 2265POPC   D2A31504  39.846   1.199   8.452
 2265POPC   C3A31505  39.996   1.293   8.053
 2265POPC   C4A31506  40.101   1.494   7.660
 2265POPC   C1B31507  39.806   0.832   8.834
 2265POPC   C2B31508  39.685   0.706   8.411
 2265POPC   C3B31509  39.680   0.872   8.011
 2265POPC   C4B31510  39.762   1.091   7.641
 2266POPC   NC331511  26.910  16.420   9.385
 2266POPC   PO431512  26.488  16.821   9.642
 2266POPC   GL131513  26.619  17.038   9.235
 2266POPC   GL231514  26.920  16.885   9.092
 2266POPC   C1A31515  26.530  16.936   8.778
 2266POPC   D2A31516  26.710  17.050   8.377
 2266POPC   C3A31517  26.832  16.769   8.073
 2266POPC   C4A31518  26.901  16.936   7.700
 2266POPC   C1B31519  26.936  16.668   8.687
 2266POPC   C2B31520  26.578  16.526   8.450
 2266POPC   C3B31521  26.583  16.297   8.107
 2266POPC   C4B31522  26.841  16.347   7.746
 2267POPC   NC331523  20.927  44.712   9.416
 2267POPC   PO431524  20.418  44.276   9.678
 2267POPC   GL131525  20.476  44.463   9.256
 2267POPC   GL231526  20.498  44.810   9.193
 2267POPC   C1A31527  20.413  44.473   8.805
 2267POPC   D2A31528  20.517  44.332   8.396
 2267POPC   C3A31529  20.433  44.524   8.008
 2267POPC   C4A31530  20.746  44.633   7.689
 2267POPC   C1B31531  20.491   0.012   8.806
 2267POPC   C2B31532  20.603  44.880   8.401
 2267POPC   C3B31533  20.556   0.029   7.977
 2267POPC   C4B31534  20.540   0.094   7.524
 2268POPC   NC331535  22.204  24.189   9.504
 2268POPC   PO431536  21.949  24.837   9.444
 2268POPC   GL131537  22.183  24.585   9.157
 2268POPC   GL231538  21.970  24.315   9.087
 2268POPC   C1A31539  22.342  24.608   8.734
 2268POPC   D2A31540  22.384  24.896   8.387
 2268POPC   C3A31541  22.338  24.673   7.996
 2268POPC   C4A31542  22.440  24.370   7.666
 2268POPC   C1B31543  21.827  24.622   8.785
 2268POPC   C2B31544  21.926  24.654   8.367
 2268POPC   C3B31545  21.734  24.679   7.982
 2268POPC   C4B31546  21.887  24.505   7.631
 2269POPC   NC331547  40.295  23.140   9.416
 2269POPC   PO431548  39.706  22.707   9.481
 2269POPC   GL131549  39.877  22.993   9.159
 2269POPC   GL231550  40.196  22.854   9.012
 2269POPC   C1A31551  39.999  23.235   8.763
 2269POPC   D2A31552  40.041  22.989   8.403
 2269POPC   C3A31553  39.891  23.191   8.041
 2269POPC   C4A31554  40.116  23.338   7.680
 2269POPC   C1B31555  40.293  22.579   8.662
 2269POPC   C2B31556  40.495  22.692   8.302
 2269POPC   C3B31557  40.379  22.981   7.993
 2269POPC   C4B31558  40.078  22.800   7.785
 2270POPC   NC331559  24.874  29.410   9.436
 2270POPC   PO431560  24.197  29.104   9.523
 2270POPC   GL131561  24.443  28.943   9.174
 2270POPC   GL231562  24.179  28.721   9.028
 2270POPC   C1A31563  24.707  29.141   8.851
 2270POPC   D2A31564  24.697  29.312   8.457
 2270POPC   C3A31565  24.674  28.976   8.235
 2270POPC   C4A31566  24.489  29.034   7.877
 2270POPC   C1B31567  24.185  29.103   8.761
 2270POPC   C2B31568  24.165  29.064   8.321
 2270POPC   C3B31569  23.977  29.194   7.963
 2270POPC   C4B31570  24.002  29.568   7.754
 2271POPC   NC331571  18.532  14.673   9.516
 2271POPC   PO431572  18.362  15.299   9.336
 2271POPC   GL131573  18.294  14.892   9.115
 2271POPC   GL231574  18.602  14.733   9.010
 2271POPC   C1A31575  18.110  14.676   8.773
 2271POPC   D2A31576  18.097  14.859   8.341
 2271POPC   C3A31577  18.203  14.890   7.898
 2271POPC   C4A31578  18.323  15.176   7.546
 2271POPC   C1B31579  18.503  15.059   8.699
 2271POPC   C2B31580  18.659  15.113   8.325
 2271POPC   C3B31581  18.642  15.182   7.928
 2271POPC   C4B31582  18.674  14.795   7.712
 2272POPC   NC331583  42.792  18.842   9.386
 2272POPC   PO431584  42.326  19.019   9.773
 2272POPC   GL131585  42.224  18.832   9.300
 2272POPC   GL231586  42.467  18.979   9.028
 2272POPC   C1A31587  42.076  18.761   8.824
 2272POPC   D2A31588  42.275  19.033   8.469
 2272POPC   C3A31589  42.172  19.079   8.019
 2272POPC   C4A31590  42.137  18.681   7.856
 2272POPC   C1B31591  42.582  18.672   8.693
 2272POPC   C2B31592  42.499  18.549   8.284
 2272POPC   C3B31593  42.637  18.893   8.049
 2272POPC   C4B31594  42.684  19.242   7.774
 2273POPC   NC331595  29.024  33.434   9.493
 2273POPC   PO431596  29.058  34.055   9.579
 2273POPC   GL131597  29.335  33.919   9.218
 2273POPC   GL231598  29.127  33.664   9.033
 2273POPC   C1A31599  29.476  33.914   8.757
 2273POPC   D2A31600  29.232  33.636   8.483
 2273POPC   C3A31601  29.250  33.716   8.046
 2273POPC   C4A31602  29.356  33.592   7.640
 2273POPC   C1B31603  28.983  34.011   8.735
 2273POPC   C2B31604  28.895  34.019   8.264
 2273POPC   C3B31605  28.825  33.871   7.809
 2273POPC   C4B31606  28.577  33.850   7.401
 2274POPC   NC331607  15.805  27.107   9.646
 2274POPC   PO431608  16.094  26.568   9.635
 2274POPC   GL131609  15.997  26.852   9.239
 2274POPC   GL231610  15.640  26.909   9.182
 2274POPC   C1A31611  15.955  26.935   8.766
 2274POPC   D2A31612  15.784  26.780   8.354
 2274POPC   C3A31613  15.924  26.944   7.929
 2274POPC   C4A31614  16.187  27.258   7.687
 2274POPC   C1B31615  15.438  27.017   8.774
 2274POPC   C2B31616  15.444  27.160   8.329
 2274POPC   C3B31617  15.420  27.029   7.877
 2274POPC   C4B31618  15.634  26.708   7.562
 2275POPC   NC331619   9.407  35.466   9.358
 2275POPC   PO431620   9.987  35.088   9.441
 2275POPC   GL131621   9.839  35.279   9.114
 2275POPC   GL231622   9.548  35.060   9.099
 2275POPC   C1A31623   9.720  35.290   8.690
 2275POPC   D2A31624   9.694  35.091   8.317
 2275POPC   C3A31625   9.821  35.472   8.189
 2275POPC   C4A31626   9.966  35.620   7.829
 2275POPC   C1B31627   9.438  34.875   8.749
 2275POPC   C2B31628   9.189  35.076   8.459
 2275POPC   C3B31629   9.258  35.144   8.045
 2275POPC   C4B31630   9.390  35.532   7.962
 2276POPC   NC331631   0.581  29.355   9.681
 2276POPC   PO431632   0.160  28.966   9.582
 2276POPC   GL131633   0.248  29.199   9.216
 2276POPC   GL231634   0.579  29.352   9.176
 2276POPC   C1A31635   0.227  29.389   8.814
 2276POPC   D2A31636   0.524  29.485   8.504
 2276POPC   C3A31637   0.355  29.289   8.129
 2276POPC   C4A31638   0.241  29.478   7.754
 2276POPC   C1B31639   0.613  29.067   8.851
 2276POPC   C2B31640   0.644  28.988   8.420
 2276POPC   C3B31641   0.619  28.827   7.989
 2276POPC   C4B31642   0.737  28.857   7.517
 2277POPC   NC331643  32.597  22.793   9.338
 2277POPC   PO431644  32.253  23.409   9.488
 2277POPC   GL131645  32.074  23.253   9.146
 2277POPC   GL231646  32.070  22.920   9.319
 2277POPC   C1A31647  32.314  23.182   8.782
 2277POPC   D2A31648  32.475  23.254   8.375
 2277POPC   C3A31649  32.248  23.102   8.023
 2277POPC   C4A31650  31.803  23.073   7.887
 2277POPC   C1B31651  32.013  22.796   8.904
 2277POPC   C2B31652  32.085  22.835   8.471
 2277POPC   C3B31653  31.995  22.653   8.092
 2277POPC   C4B31654  32.161  22.694   7.709
 2278POPC   NC331655  16.667  28.348   9.753
 2278POPC   PO431656  16.149  28.121   9.404
 2278POPC   GL131657  16.522  28.363   9.251
 2278POPC   GL231658  16.773  28.137   9.209
 2278POPC   C1A31659  16.818  28.563   8.919
 2278POPC   D2A31660  16.679  28.599   8.439
 2278POPC   C3A31661  16.800  28.457   8.000
 2278POPC   C4A31662  16.516  28.400   7.603
 2278POPC   C1B31663  16.570  28.160   8.760
 2278POPC   C2B31664  16.667  28.061   8.326
 2278POPC   C3B31665  16.685  27.984   7.871
 2278POPC   C4B31666  16.970  28.204   7.561
 2279POPC   NC331667  12.641   0.141   9.381
 2279POPC   PO431668  13.001   0.703   9.552
 2279POPC   GL131669  12.898   0.526   9.152
 2279POPC   GL231670  13.104   0.257   9.091
 2279POPC   C1A31671  12.616   0.376   8.788
 2279POPC   D2A31672  12.548   0.434   8.355
 2279POPC   C3A31673  12.651   0.130   8.053
 2279POPC   C4A31674  12.662   0.241   7.638
 2279POPC   C1B31675  13.121   0.404   8.692
 2279POPC   C2B31676  13.083   0.256   8.295
 2279POPC   C3B31677  13.078   0.414   7.885
 2279POPC   C4B31678  13.253   0.362   7.455
 2280POPC   NC331679  31.232   1.572   9.243
 2280POPC   PO431680  31.616   1.175   9.675
 2280POPC   GL131681  31.573   0.986   9.218
 2280POPC   GL231682  31.193   1.041   9.122
 2280POPC   C1A31683  31.541   0.921   8.766
 2280POPC   D2A31684  31.399   1.082   8.358
 2280POPC   C3A31685  31.560   1.398   8.070
 2280POPC   C4A31686  31.602   1.340   7.616
 2280POPC   C1B31687  31.011   1.089   8.695
 2280POPC   C2B31688  30.905   1.080   8.230
 2280POPC   C3B31689  31.155   1.170   7.857
 2280POPC   C4B31690  31.090   1.257   7.417
 2281POPC   NC331691  35.580  24.776   9.890
 2281POPC   PO431692  35.427  25.323   9.572
 2281POPC   GL131693  35.365  25.132   9.160
 2281POPC   GL231694  35.104  25.332   9.088
 2281POPC   C1A31695  35.381  25.100   8.670
 2281POPC   D2A31696  35.691  25.290   8.323
 2281POPC   C3A31697  35.624  25.271   7.860
 2281POPC   C4A31698  35.364  24.986   7.613
 2281POPC   C1B31699  35.257  25.594   8.755
 2281POPC   C2B31700  35.209  25.468   8.326
 2281POPC   C3B31701  35.138  25.210   8.015
 2281POPC   C4B31702  35.137  25.458   7.644
 2282POPC   NC331703   9.781   3.427   9.904
 2282POPC   PO431704   9.913   3.818   9.380
 2282POPC   GL131705   9.581   3.757   9.108
 2282POPC   GL231706   9.379   3.461   9.124
 2282POPC   C1A31707   9.761   3.650   8.715
 2282POPC   D2A31708   9.910   3.411   8.400
 2282POPC   C3A31709   9.903   3.602   8.024
 2282POPC   C4A31710  10.209   3.649   7.729
 2282POPC   C1B31711   9.265   3.560   8.713
 2282POPC   C2B31712   9.388   3.374   8.344
 2282POPC   C3B31713   9.348   3.548   7.953
 2282POPC   C4B31714   9.553   3.562   7.612
 2283POPC   NC331715  38.301   2.149   9.910
 2283POPC   PO431716  38.443   1.723   9.379
 2283POPC   GL131717  38.630   1.943   9.105
 2283POPC   GL231718  38.915   1.775   9.102
 2283POPC   C1A31719  38.480   2.064   8.697
 2283POPC   D2A31720  38.530   1.828   8.295
 2283POPC   C3A31721  38.343   2.019   7.970
 2283POPC   C4A31722  38.471   2.256   7.665
 2283POPC   C1B31723  38.821   1.658   8.682
 2283POPC   C2B31724  39.071   1.570   8.328
 2283POPC   C3B31725  38.915   1.542   7.952
 2283POPC   C4B31726  38.606   1.707   7.700
 2284POPC   NC331727  12.640  35.915   9.830
 2284POPC   PO431728  13.050  35.506   9.551
 2284POPC   GL131729  12.866  35.392   9.156
 2284POPC   GL231730  12.794  35.721   9.077
 2284POPC   C1A31731  12.810  35.149   8.774
 2284POPC   D2A31732  12.717  35.231   8.355
 2284POPC   C3A31733  12.811  35.002   7.994
 2284POPC   C4A31734  12.943  35.164   7.625
 2284POPC   C1B31735  13.152  35.642   8.774
 2284POPC   C2B31736  13.274  35.625   8.311
 2284POPC   C3B31737  13.058  35.602   7.875
 2284POPC   C4B31738  12.914  35.659   7.418
 2285POPC   NC331739  13.490  40.774   9.416
 2285POPC   PO431740  14.096  40.454   9.325
 2285POPC   GL131741  13.710  40.501   9.035
 2285POPC   GL231742  13.315  40.516   9.033
 2285POPC   C1A31743  13.596  40.834   8.745
 2285POPC   D2A31744  13.794  40.959   8.382
 2285POPC   C3A31745  13.613  40.764   8.011
 2285POPC   C4A31746  13.793  40.596   7.633
 2285POPC   C1B31747  13.077  40.686   8.739
 2285POPC   C2B31748  13.176  40.686   8.319
 2285POPC   C3B31749  13.115  40.706   7.897
 2285POPC   C4B31750  13.315  40.727   7.505
 2286POPC   NC331751  35.423  31.277   9.616
 2286POPC   PO431752  35.625  31.771   9.306
 2286POPC   GL131753  35.494  31.441   9.006
 2286POPC   GL231754  35.235  31.238   9.102
 2286POPC   C1A31755  35.490  31.422   8.535
 2286POPC   D2A31756  35.250  31.669   8.223
 2286POPC   C3A31757  35.364  31.617   7.808
 2286POPC   C4A31758  35.470  31.318   7.501
 2286POPC   C1B31759  35.023  31.374   8.718
 2286POPC   C2B31760  35.048  31.195   8.289
 2286POPC   C3B31761  35.118  31.160   7.835
 2286POPC   C4B31762  34.970  31.298   7.399
 2287POPC   NC331763   5.933  38.342   9.797
 2287POPC   PO431764   5.949  37.703   9.558
 2287POPC   GL131765   6.075  37.597   9.173
 2287POPC   GL231766   6.045  37.878   8.939
 2287POPC   C1A31767   6.114  37.349   8.813
 2287POPC   D2A31768   6.040  37.561   8.465
 2287POPC   C3A31769   5.944  37.384   8.084
 2287POPC   C4A31770   5.925  37.629   7.799
 2287POPC   C1B31771   5.685  37.614   8.822
 2287POPC   C2B31772   5.552  37.454   8.412
 2287POPC   C3B31773   5.448  37.514   7.965
 2287POPC   C4B31774   5.541  37.397   7.521
 2288POPC   NC331775  26.672   7.156   9.650
 2288POPC   PO431776  26.730   6.507   9.507
 2288POPC   GL131777  26.856   6.796   9.184
 2288POPC   GL231778  26.543   6.739   9.073
 2288POPC   C1A31779  27.003   6.627   8.778
 2288POPC   D2A31780  26.906   6.471   8.360
 2288POPC   C3A31781  27.105   6.353   7.987
 2288POPC   C4A31782  26.975   6.530   7.593
 2288POPC   C1B31783  26.491   6.537   8.687
 2288POPC   C2B31784  26.410   6.485   8.268
 2288POPC   C3B31785  26.579   6.575   7.910
 2288POPC   C4B31786  26.297   6.813   7.707
 2289POPC   NC331787  22.699  10.969   9.932
 2289POPC   PO431788  22.752  10.232   9.798
 2289POPC   GL131789  22.769  10.269   9.289
 2289POPC   GL231790  23.022  10.494   9.100
 2289POPC   C1A31791  22.633  10.314   8.817
 2289POPC   D2A31792  22.542  10.590   8.435
 2289POPC   C3A31793  22.732  10.486   8.043
 2289POPC   C4A31794  23.082  10.544   7.771
 2289POPC   C1B31795  22.994  10.672   8.655
 2289POPC   C2B31796  23.249  10.666   8.261
 2289POPC   C3B31797  23.544  10.478   7.939
 2289POPC   C4B31798  23.402  10.139   7.654
 2290POPC   NC331799  42.676  43.614   9.403
 2290POPC   PO431800  42.245  44.067   9.663
 2290POPC   GL131801  42.206  43.888   9.221
 2290POPC   GL231802  42.499  43.819   8.987
 2290POPC   C1A31803  42.062  43.763   8.771
 2290POPC   D2A31804  42.197  43.955   8.412
 2290POPC   C3A31805  42.322  43.796   8.046
 2290POPC   C4A31806  42.153  43.922   7.688
 2290POPC   C1B31807  42.587  44.168   8.679
 2290POPC   C2B31808  42.819  44.162   8.293
 2290POPC   C3B31809  42.719  44.063   7.856
 2290POPC   C4B31810  42.600  44.104   7.428
 2291POPC   NC331811  14.515  30.857   9.648
 2291POPC   PO431812  13.937  30.459   9.546
 2291POPC   GL131813  14.182  30.369   9.199
 2291POPC   GL231814  14.532  30.359   9.341
 2291POPC   C1A31815  14.099  30.646   8.822
 2291POPC   D2A31816  13.931  30.925   8.523
 2291POPC   C3A31817  14.199  30.868   8.177
 2291POPC   C4A31818  14.221  30.590   7.884
 2291POPC   C1B31819  14.580  30.499   8.907
 2291POPC   C2B31820  14.543  30.571   8.472
 2291POPC   C3B31821  14.706  30.665   8.050
 2291POPC   C4B31822  14.652  30.806   7.631
 2292POPC   NC331823  24.765  16.623   9.577
 2292POPC   PO431824  24.166  16.720   9.349
 2292POPC   GL131825  24.442  16.869   9.053
 2292POPC   GL231826  24.795  16.839   9.097
 2292POPC   C1A31827  24.529  17.063   8.680
 2292POPC   D2A31828  24.614  16.786   8.352
 2292POPC   C3A31829  24.304  16.639   8.061
 2292POPC   C4A31830  24.416  16.674   7.670
 2292POPC   C1B31831  24.817  16.478   8.771
 2292POPC   C2B31832  24.898  16.353   8.342
 2292POPC   C3B31833  24.812  16.522   7.939
 2292POPC   C4B31834  24.762  16.377   7.454
 2293POPC   NC331835  27.169  37.815   9.571
 2293POPC   PO431836  27.759  37.875   9.374
 2293POPC   GL131837  27.575  37.736   9.023
 2293POPC   GL231838  27.314  37.546   9.138
 2293POPC   C1A31839  27.561  37.766   8.595
 2293POPC   D2A31840  27.717  37.984   8.258
 2293POPC   C3A31841  27.507  37.913   7.855
 2293POPC   C4A31842  27.769  37.933   7.470
 2293POPC   C1B31843  27.397  37.318   8.776
 2293POPC   C2B31844  27.401  37.369   8.326
 2293POPC   C3B31845  27.591  37.416   7.932
 2293POPC   C4B31846  27.243  37.380   7.730
 2294POPC   NC331847  42.044  40.382   9.188
 2294POPC   PO431848  42.284  39.838   9.574
 2294POPC   GL131849  42.260  39.808   9.116
 2294POPC   GL231850  42.642  39.820   9.011
 2294POPC   C1A31851  42.240  40.005   8.683
 2294POPC   D2A31852  42.043  40.101   8.291
 2294POPC   C3A31853  42.245  39.923   7.905
 2294POPC   C4A31854  42.389  39.823   7.483
 2294POPC   C1B31855  42.756  40.140   8.656
 2294POPC   C2B31856  42.583  40.123   8.249
 2294POPC   C3B31857  42.755  39.985   7.850
 2294POPC   C4B31858  42.759  40.159   7.402
 2295POPC   NC331859  42.406  31.789   9.509
 2295POPC   PO431860  42.609  31.140   9.501
 2295POPC   GL131861  42.665  31.394   9.163
 2295POPC   GL231862  42.313  31.436   9.151
 2295POPC   C1A31863  42.597  31.703   8.823
 2295POPC   D2A31864  42.283  31.740   8.527
 2295POPC   C3A31865  42.411  31.627   8.140
 2295POPC   C4A31866  42.582  31.512   7.759
 2295POPC   C1B31867  42.208  31.263   8.770
 2295POPC   C2B31868  42.079  31.276   8.356
 2295POPC   C3B31869  42.199  31.202   7.957
 2295POPC   C4B31870  42.059  31.519   7.717
 2296POPC   NC331871  40.744  13.210   9.317
 2296POPC   PO431872  40.530  12.584   9.476
 2296POPC   GL131873  40.837  12.664   9.164
 2296POPC   GL231874  40.526  12.704   8.958
 2296POPC   C1A31875  40.940  12.830   8.724
 2296POPC   D2A31876  40.765  12.755   8.331
 2296POPC   C3A31877  41.066  12.798   8.012
 2296POPC   C4A31878  41.092  13.069   7.659
 2296POPC   C1B31879  40.523  13.107   8.671
 2296POPC   C2B31880  40.354  13.112   8.250
 2296POPC   C3B31881  40.604  12.947   7.863
 2296POPC   C4B31882  40.681  12.887   7.374
 2297POPC   NC331883   8.503  33.692   9.803
 2297POPC   PO431884   9.124  33.741   9.590
 2297POPC   GL131885   9.079  33.756   9.118
 2297POPC   GL231886   9.002  34.036   8.901
 2297POPC   C1A31887   9.190  33.583   8.712
 2297POPC   D2A31888   9.016  33.708   8.315
 2297POPC   C3A31889   9.162  33.993   7.987
 2297POPC   C4A31890   9.266  33.629   7.766
 2297POPC   C1B31891   8.692  33.802   8.713
 2297POPC   C2B31892   8.515  33.770   8.327
 2297POPC   C3B31893   8.677  33.721   7.929
 2297POPC   C4B31894   8.828  33.873   7.564
 2298POPC   NC331895  24.248   5.065   9.423
 2298POPC   PO431896  24.826   4.671   9.493
 2298POPC   GL131897  24.674   4.985   9.172
 2298POPC   GL231898  24.814   5.346   9.123
 2298POPC   C1A31899  24.421   5.058   8.790
 2298POPC   D2A31900  24.186   4.904   8.453
 2298POPC   C3A31901  24.441   4.840   8.096
 2298POPC   C4A31902  24.372   4.927   7.642
 2298POPC   C1B31903  24.638   5.509   8.745
 2298POPC   C2B31904  24.357   5.452   8.397
 2298POPC   C3B31905  24.449   5.317   7.972
 2298POPC   C4B31906  24.732   5.282   7.582
 2299POPC   NC331907   4.896  20.556   9.544
 2299POPC   PO431908   5.438  20.254   9.471
 2299POPC   GL131909   5.247  20.462   9.081
 2299POPC   GL231910   4.934  20.640   9.042
 2299POPC   C1A31911   5.191  20.485   8.619
 2299POPC   D2A31912   5.535  20.441   8.297
 2299POPC   C3A31913   5.379  20.533   7.876
 2299POPC   C4A31914   5.083  20.863   7.830
 2299POPC   C1B31915   4.685  20.349   8.758
 2299POPC   C2B31916   4.763  20.203   8.413
 2299POPC   C3B31917   4.971  20.439   8.145
 2299POPC   C4B31918   4.847  20.410   7.729
 2300POPC   NC331919  30.588   7.607   9.373
 2300POPC   PO431920  31.087   7.132   9.479
 2300POPC   GL131921  31.029   7.346   9.118
 2300POPC   GL231922  30.742   7.134   9.020
 2300POPC   C1A31923  30.890   7.542   8.726
 2300POPC   D2A31924  30.829   7.849   8.381
 2300POPC   C3A31925  30.681   7.621   8.011
 2300POPC   C4A31926  30.826   7.460   7.615
 2300POPC   C1B31927  30.421   7.144   8.654
 2300POPC   C2B31928  30.426   7.159   8.176
 2300POPC   C3B31929  30.425   7.180   7.725
 2300POPC   C4B31930  30.602   7.047   7.313
 2301POPC   NC331931  30.525  28.628   9.589
 2301POPC   PO431932  29.820  28.377   9.472
 2301POPC   GL131933  29.951  28.465   9.077
 2301POPC   GL231934  30.318  28.451   9.141
 2301POPC   C1A31935  29.824  28.416   8.648
 2301POPC   D2A31936  30.070  28.484   8.268
 2301POPC   C3A31937  29.799  28.576   7.916
 2301POPC   C4A31938  29.718  28.461   7.487
 2301POPC   C1B31939  30.281  28.232   8.747
 2301POPC   C2B31940  30.050  27.994   8.411
 2301POPC   C3B31941  29.971  28.025   7.997
 2301POPC   C4B31942  30.212  28.307   7.778
 2302POPC   NC331943  31.646  30.391   9.511
 2302POPC   PO431944  31.348  29.792   9.495
 2302POPC   GL131945  31.410  30.028   9.140
 2302POPC   GL231946  31.217  30.315   9.222
 2302POPC   C1A31947  31.326  29.901   8.683
 2302POPC   D2A31948  31.606  29.878   8.321
 2302POPC   C3A31949  31.538  29.825   7.880
 2302POPC   C4A31950  31.642  30.081   7.539
 2302POPC   C1B31951  30.982  30.287   8.847
 2302POPC   C2B31952  30.899  30.072   8.478
 2302POPC   C3B31953  31.133  30.023   8.132
 2302POPC   C4B31954  31.165  30.197   7.729
 2303POPC   NC331955  34.323  20.700   9.295
 2303POPC   PO431956  34.845  20.272   9.531
 2303POPC   GL131957  34.924  20.482   9.107
 2303POPC   GL231958  34.624  20.540   8.943
 2303POPC   C1A31959  34.984  20.753   8.692
 2303POPC   D2A31960  34.745  20.623   8.330
 2303POPC   C3A31961  34.736  20.807   7.908
 2303POPC   C4A31962  34.844  20.784   7.457
 2303POPC   C1B31963  34.275  20.463   8.685
 2303POPC   C2B31964  34.076  20.411   8.306
 2303POPC   C3B31965  34.347  20.433   7.959
 2303POPC   C4B31966  34.351  20.699   7.594
 2304POPC   NC331967  15.625  29.045  10.091
 2304POPC   PO431968  15.126  28.863   9.617
 2304POPC   GL131969  15.332  29.146   9.302
 2304POPC   GL231970  15.039  29.057   9.141
 2304POPC   C1A31971  15.380  29.297   8.838
 2304POPC   D2A31972  15.201  29.455   8.421
 2304POPC   C3A31973  15.411  29.299   8.025
 2304POPC   C4A31974  15.493  28.839   8.057
 2304POPC   C1B31975  14.889  29.179   8.759
 2304POPC   C2B31976  14.848  29.057   8.371
 2304POPC   C3B31977  14.974  29.024   7.979
 2304POPC   C4B31978  14.731  28.784   7.716
 2305POPC   NC331979  40.325  10.767   9.398
 2305POPC   PO431980  39.674  10.488   9.569
 2305POPC   GL131981  39.762  10.682   9.175
 2305POPC   GL231982  40.088  10.653   8.974
 2305POPC   C1A31983  39.646  10.707   8.748
 2305POPC   D2A31984  39.981  10.642   8.458
 2305POPC   C3A31985  39.766  10.712   8.095
 2305POPC   C4A31986  39.762  10.591   7.693
 2305POPC   C1B31987  40.376  10.385   8.746
 2305POPC   C2B31988  40.491  10.381   8.292
 2305POPC   C3B31989  40.255  10.585   7.937
 2305POPC   C4B31990  40.201  10.735   7.464
 2306POPC   NC331991  39.331  19.269   9.675
 2306POPC   PO431992  38.979  18.770   9.383
 2306POPC   GL131993  39.329  18.982   9.226
 2306POPC   GL231994  39.274  19.332   9.152
 2306POPC   C1A31995  39.432  18.963   8.802
 2306POPC   D2A31996  39.166  18.796   8.481
 2306POPC   C3A31997  39.403  18.868   8.150
 2306POPC   C4A31998  39.227  19.121   7.842
 2306POPC   C1B31999  39.036  19.321   8.764
 2306POPC   C2B32000  39.129  19.347   8.338
 2306POPC   C3B32001  38.884  19.484   7.978
 2306POPC   C4B32002  38.752  19.230   7.623
 2307POPC   NC332003  18.706   0.407   9.516
 2307POPC   PO432004  19.374   0.464   9.653
 2307POPC   GL132005  19.201   0.587   9.272
 2307POPC   GL232006  19.155   0.301   9.115
 2307POPC   C1A32007  19.263   0.713   8.838
 2307POPC   D2A32008  19.041   0.550   8.512
 2307POPC   C3A32009  19.227   0.521   8.135
 2307POPC   C4A32010  19.072   0.551   7.687
 2307POPC   C1B32011  18.977   0.130   8.775
 2307POPC   C2B32012  19.105   0.045   8.336
 2307POPC   C3B32013  18.988   0.119   7.946
 2307POPC   C4B32014  19.083   0.040   7.554
 2308POPC   NC332015  33.445  36.874   9.592
 2308POPC   PO432016  32.764  36.935   9.592
 2308POPC   GL132017  33.042  36.905   9.214
 2308POPC   GL232018  33.274  37.196   9.151
 2308POPC   C1A32019  32.993  37.008   8.756
 2308POPC   D2A32020  33.118  36.763   8.367
 2308POPC   C3A32021  32.970  36.983   8.002
 2308POPC   C4A32022  32.719  36.772   7.712
 2308POPC   C1B32023  33.497  37.172   8.775
 2308POPC   C2B32024  33.337  37.226   8.354
 2308POPC   C3B32025  33.493  37.252   7.943
 2308POPC   C4B32026  33.353  37.141   7.501
 2309POPC   NC332027  34.182   3.872   9.498
 2309POPC   PO432028  34.796   4.136   9.588
 2309POPC   GL132029  34.603   4.215   9.144
 2309POPC   GL232030  34.910   4.354   9.100
 2309POPC   C1A32031  34.286   4.109   8.818
 2309POPC   D2A32032  34.142   4.316   8.436
 2309POPC   C3A32033  34.350   4.121   8.091
 2309POPC   C4A32034  34.471   4.131   7.680
 2309POPC   C1B32035  35.046   4.237   8.704
 2309POPC   C2B32036  34.809   4.172   8.368
 2309POPC   C3B32037  34.834   4.306   7.982
 2309POPC   C4B32038  35.039   4.599   7.807
 2310POPC   NC332039   4.218  28.884   9.366
 2310POPC   PO432040   4.123  28.250   9.359
 2310POPC   GL132041   4.201  28.409   8.978
 2310POPC   GL232042   4.165  28.757   8.891
 2310POPC   C1A32043   4.144  28.334   8.582
 2310POPC   D2A32044   4.457  28.228   8.353
 2310POPC   C3A32045   4.449  28.451   7.986
 2310POPC   C4A32046   4.366  28.345   7.565
 2310POPC   C1B32047   3.811  28.707   8.667
 2310POPC   C2B32048   3.719  28.624   8.252
 2310POPC   C3B32049   3.983  28.655   7.873
 2310POPC   C4B32050   4.039  28.734   7.446
 2311POPC   NC332051  22.934  25.611   9.695
 2311POPC   PO432052  23.171  25.087   9.327
 2311POPC   GL132053  23.104  25.420   9.091
 2311POPC   GL232054  22.784  25.498   9.230
 2311POPC   C1A32055  23.027  25.298   8.670
 2311POPC   D2A32056  22.906  24.995   8.327
 2311POPC   C3A32057  23.069  25.033   7.887
 2311POPC   C4A32058  23.077  24.873   7.438
 2311POPC   C1B32059  22.691  25.687   8.862
 2311POPC   C2B32060  22.615  25.484   8.471
 2311POPC   C3B32061  22.548  25.297   8.096
 2311POPC   C4B32062  22.830  25.509   7.845
 2312POPC   NC332063  35.997  13.913   9.492
 2312POPC   PO432064  36.084  14.594   9.506
 2312POPC   GL132065  36.309  14.477   9.160
 2312POPC   GL232066  36.315  14.099   9.135
 2312POPC   C1A32067  36.439  14.550   8.732
 2312POPC   D2A32068  36.206  14.401   8.376
 2312POPC   C3A32069  36.395  14.442   7.987
 2312POPC   C4A32070  36.193  14.541   7.643
 2312POPC   C1B32071  35.988  14.237   8.820
 2312POPC   C2B32072  35.884  13.996   8.429
 2312POPC   C3B32073  36.073  14.023   8.007
 2312POPC   C4B32074  35.880  14.161   7.636
 2313POPC   NC332075  17.615   6.705   9.627
 2313POPC   PO432076  16.975   6.569   9.632
 2313POPC   GL132077  17.313   6.489   9.238
 2313POPC   GL232078  17.620   6.693   9.129
 2313POPC   C1A32079  17.342   6.530   8.733
 2313POPC   D2A32080  17.485   6.782   8.309
 2313POPC   C3A32081  17.258   6.658   7.917
 2313POPC   C4A32082  17.146   6.460   7.496
 2313POPC   C1B32083  17.791   6.776   8.738
 2313POPC   C2B32084  17.920   6.517   8.402
 2313POPC   C3B32085  17.870   6.509   7.953
 2313POPC   C4B32086  17.949   6.671   7.499
 2314POPC   NC332087  27.425  43.591   9.556
 2314POPC   PO432088  27.889  44.071   9.436
 2314POPC   GL132089  27.695  43.831   9.168
 2314POPC   GL232090  27.386  43.861   9.117
 2314POPC   C1A32091  27.762  43.767   8.760
 2314POPC   D2A32092  27.888  43.990   8.432
 2314POPC   C3A32093  27.849  43.811   8.053
 2314POPC   C4A32094  27.765  43.998   7.720
 2314POPC   C1B32095  27.287  43.625   8.712
 2314POPC   C2B32096  27.449  43.675   8.332
 2314POPC   C3B32097  27.322  43.891   7.971
 2314POPC   C4B32098  27.370  43.725   7.578
 2315POPC   NC332099  38.174  42.676   9.463
 2315POPC   PO432100  38.784  42.413   9.538
 2315POPC   GL132101  38.487  42.379   9.165
 2315POPC   GL232102  38.185  42.154   9.215
 2315POPC   C1A32103  38.520  42.246   8.724
 2315POPC   D2A32104  38.893  42.301   8.420
 2315POPC   C3A32105  38.915  42.053   8.020
 2315POPC   C4A32106  38.676  41.943   7.640
 2315POPC   C1B32107  38.040  42.438   8.878
 2315POPC   C2B32108  38.015  42.445   8.458
 2315POPC   C3B32109  38.062  42.564   8.043
 2315POPC   C4B32110  38.377  42.346   7.800
 2316POPC   NC332111  14.205   0.601   9.548
 2316POPC   PO432112  14.806   0.322   9.289
 2316POPC   GL132113  14.391   0.327   9.155
 2316POPC   GL232114  14.424   0.689   9.095
 2316POPC   C1A32115  14.222   0.302   8.752
 2316POPC   D2A32116  14.428   0.435   8.385
 2316POPC   C3A32117  14.729   0.151   8.227
 2316POPC   C4A32118  14.459   0.146   7.900
 2316POPC   C1B32119  14.018   0.726   8.899
 2316POPC   C2B32120  13.929   0.609   8.443
 2316POPC   C3B32121  14.071   0.452   8.016
 2316POPC   C4B32122  14.193   0.447   7.524
 2317POPC   NC332123   8.880  15.470   9.676
 2317POPC   PO432124   9.457  15.214   9.558
 2317POPC   GL132125   9.071  15.187   9.264
 2317POPC   GL232126   8.685  15.188   9.270
 2317POPC   C1A32127   8.955  15.196   8.816
 2317POPC   D2A32128   9.162  15.102   8.421
 2317POPC   C3A32129   8.900  15.163   8.077
 2317POPC   C4A32130   8.826  14.775   7.900
 2317POPC   C1B32131   8.457  15.022   8.901
 2317POPC   C2B32132   8.539  15.058   8.469
 2317POPC   C3B32133   8.402  15.057   8.044
 2317POPC   C4B32134   8.600  15.114   7.618
 2318POPC   NC332135  36.798  25.418   9.519
 2318POPC   PO432136  37.061  24.809   9.440
 2318POPC   GL132137  36.811  25.035   9.173
 2318POPC   GL232138  36.581  24.775   9.134
 2318POPC   C1A32139  36.835  25.388   8.865
 2318POPC   D2A32140  36.752  25.456   8.410
 2318POPC   C3A32141  37.046  25.314   8.079
 2318POPC   C4A32142  37.027  25.103   7.653
 2318POPC   C1B32143  36.567  24.976   8.730
 2318POPC   C2B32144  36.672  24.923   8.329
 2318POPC   C3B32145  36.625  25.059   7.951
 2318POPC   C4B32146  36.556  24.793   7.598
 2319POPC   NC332147  24.115   6.531   9.387
 2319POPC   PO432148  23.479   6.775   9.499
 2319POPC   GL132149  23.581   6.580   9.176
 2319POPC   GL232150  23.814   6.861   9.111
 2319POPC   C1A32151  23.342   6.382   8.847
 2319POPC   D2A32152  23.244   6.595   8.465
 2319POPC   C3A32153  23.473   6.442   8.106
 2319POPC   C4A32154  23.520   6.609   7.710
 2319POPC   C1B32155  23.796   6.660   8.723
 2319POPC   C2B32156  23.734   6.812   8.341
 2319POPC   C3B32157  23.975   6.810   8.000
 2319POPC   C4B32158  24.097   6.539   7.708
 2320POPC   NC332159  19.146  28.138   9.550
 2320POPC   PO432160  18.796  28.644   9.472
 2320POPC   GL132161  18.856  28.334   9.171
 2320POPC   GL232162  18.532  28.235   9.072
 2320POPC   C1A32163  19.115  28.300   8.802
 2320POPC   D2A32164  18.983  28.384   8.387
 2320POPC   C3A32165  19.162  28.343   8.002
 2320POPC   C4A32166  18.966  28.165   7.671
 2320POPC   C1B32167  18.657  28.551   8.747
 2320POPC   C2B32168  18.758  28.832   8.393
 2320POPC   C3B32169  18.869  28.781   7.970
 2320POPC   C4B32170  18.762  28.610   7.582
 2321POPC   NC332171   6.635   4.024   9.831
 2321POPC   PO432172   6.469   3.473   9.417
 2321POPC   GL132173   6.655   3.709   9.138
 2321POPC   GL232174   6.963   3.569   9.189
 2321POPC   C1A32175   6.448   3.726   8.737
 2321POPC   D2A32176   6.174   3.504   8.437
 2321POPC   C3A32177   6.448   3.534   8.109
 2321POPC   C4A32178   6.472   3.859   7.814
 2321POPC   C1B32179   6.948   3.588   8.753
 2321POPC   C2B32180   6.848   3.724   8.364
 2321POPC   C3B32181   6.973   3.841   7.929
 2321POPC   C4B32182   6.827   3.716   7.493
 2322POPC   NC332183   7.990  24.513   9.521
 2322POPC   PO432184   8.656  24.792   9.474
 2322POPC   GL132185   8.458  24.545   9.141
 2322POPC   GL232186   8.105  24.372   9.058
 2322POPC   C1A32187   8.385  24.596   8.705
 2322POPC   D2A32188   8.172  24.779   8.368
 2322POPC   C3A32189   8.337  24.688   7.990
 2322POPC   C4A32190   8.516  24.870   7.655
 2322POPC   C1B32191   7.861  24.374   8.653
 2322POPC   C2B32192   7.956  24.339   8.195
 2322POPC   C3B32193   8.130  24.280   7.775
 2322POPC   C4B32194   7.943  24.136   7.399
 2323POPC   NC332195  19.207   3.174   9.442
 2323POPC   PO432196  18.767   2.642   9.520
 2323POPC   GL132197  18.908   2.759   9.134
 2323POPC   GL232198  18.702   3.008   9.094
 2323POPC   C1A32199  19.117   2.770   8.733
 2323POPC   D2A32200  18.954   2.619   8.336
 2323POPC   C3A32201  19.143   2.687   7.929
 2323POPC   C4A32202  19.220   2.674   7.482
 2323POPC   C1B32203  18.756   3.141   8.708
 2323POPC   C2B32204  19.007   3.124   8.371
 2323POPC   C3B32205  18.767   3.038   8.042
 2323POPC   C4B32206  18.898   3.036   7.634
 2324POPC   NC332207  30.059  17.604   9.879
 2324POPC   PO432208  29.542  17.517   9.739
 2324POPC   GL132209  29.615  17.490   9.242
 2324POPC   GL232210  29.638  17.804   9.021
 2324POPC   C1A32211  29.828  17.387   8.797
 2324POPC   D2A32212  29.980  17.602   8.385
 2324POPC   C3A32213  30.105  17.358   7.984
 2324POPC   C4A32214  30.257  17.334   7.527
 2324POPC   C1B32215  29.435  17.652   8.616
 2324POPC   C2B32216  29.536  17.422   8.227
 2324POPC   C3B32217  29.607  17.322   7.804
 2324POPC   C4B32218  29.528  17.584   7.453
 2325POPC   NC332219  40.280   2.429   9.604
 2325POPC   PO432220  40.093   3.060   9.457
 2325POPC   GL132221  39.993   2.925   9.086
 2325POPC   GL232222  39.814   2.610   9.123
 2325POPC   C1A32223  40.092   2.936   8.676
 2325POPC   D2A32224  40.111   2.724   8.309
 2325POPC   C3A32225  40.473   2.767   8.070
 2325POPC   C4A32226  40.303   2.744   7.673
 2325POPC   C1B32227  39.811   2.466   8.685
 2325POPC   C2B32228  39.804   2.298   8.243
 2325POPC   C3B32229  39.840   2.595   7.850
 2325POPC   C4B32230  39.711   2.499   7.386
 2326POPC   NC332231  29.034  44.248   9.493
 2326POPC   PO432232  29.370  43.675   9.242
 2326POPC   GL132233  29.244  44.093   9.065
 2326POPC   GL232234  28.890  44.245   9.005
 2326POPC   C1A32235  29.221  44.064   8.662
 2326POPC   D2A32236  29.511  43.825   8.424
 2326POPC   C3A32237  29.349  43.897   8.031
 2326POPC   C4A32238  29.235  43.707   7.675
 2326POPC   C1B32239  28.734  43.931   8.732
 2326POPC   C2B32240  28.839  43.993   8.290
 2326POPC   C3B32241  28.795  43.901   7.870
 2326POPC   C4B32242  28.751  43.463   7.781
 2327POPC   NC332243   9.159  41.380   9.418
 2327POPC   PO432244   8.638  41.716   9.365
 2327POPC   GL132245   8.816  41.516   9.047
 2327POPC   GL232246   9.134  41.707   9.014
 2327POPC   C1A32247   8.854  41.415   8.629
 2327POPC   D2A32248   9.060  41.521   8.289
 2327POPC   C3A32249   8.886  41.789   8.012
 2327POPC   C4A32250   8.725  41.551   7.701
 2327POPC   C1B32251   9.395  41.541   8.684
 2327POPC   C2B32252   9.555  41.476   8.273
 2327POPC   C3B32253   9.364  41.491   7.864
 2327POPC   C4B32254   9.201  41.666   7.482
 2328POPC   NC332255  26.364   4.193   9.445
 2328POPC   PO432256  25.801   4.413   9.498
 2328POPC   GL132257  25.942   4.298   9.130
 2328POPC   GL232258  26.189   4.558   9.097
 2328POPC   C1A32259  25.867   4.403   8.705
 2328POPC   D2A32260  26.065   4.640   8.419
 2328POPC   C3A32261  25.976   4.381   8.085
 2328POPC   C4A32262  25.818   4.334   7.679
 2328POPC   C1B32263  26.335   4.178   8.819
 2328POPC   C2B32264  26.255   4.092   8.432
 2328POPC   C3B32265  26.446   4.109   8.073
 2328POPC   C4B32266  26.313   4.146   7.697
 2329POPC   NC332267   5.544   2.324   9.519
 2329POPC   PO432268   6.002   1.854   9.432
 2329POPC   GL132269   6.140   1.994   9.079
 2329POPC   GL232270   5.889   2.245   9.093
 2329POPC   C1A32271   6.239   1.749   8.747
 2329POPC   D2A32272   5.956   1.660   8.446
 2329POPC   C3A32273   6.061   1.884   8.090
 2329POPC   C4A32274   5.844   1.771   7.693
 2329POPC   C1B32275   5.608   2.128   8.729
 2329POPC   C2B32276   5.491   2.301   8.312
 2329POPC   C3B32277   5.414   2.345   7.867
 2329POPC   C4B32278   5.528   2.288   7.421
 2330POPC   NC332279  10.399  35.348   9.404
 2330POPC   PO432280  11.125  35.218   9.346
 2330POPC   GL132281  10.742  35.164   9.075
 2330POPC   GL232282  10.357  34.988   9.089
 2330POPC   C1A32283  10.722  35.378   8.693
 2330POPC   D2A32284  10.791  35.622   8.352
 2330POPC   C3A32285  10.768  35.407   8.025
 2330POPC   C4A32286  10.466  35.549   7.804
 2330POPC   C1B32287  10.230  35.298   8.774
 2330POPC   C2B32288  10.299  35.449   8.366
 2330POPC   C3B32289  10.199  35.183   8.031
 2330POPC   C4B32290  10.226  35.126   7.617
 2331POPC   NC332291  21.492  18.943   9.532
 2331POPC   PO432292  20.894  19.037   9.659
 2331POPC   GL132293  21.105  19.150   9.239
 2331POPC   GL232294  21.437  19.331   9.199
 2331POPC   C1A32295  21.311  18.990   8.841
 2331POPC   D2A32296  21.531  18.971   8.455
 2331POPC   C3A32297  21.219  18.944   8.134
 2331POPC   C4A32298  21.309  18.821   7.743
 2331POPC   C1B32299  21.620  19.411   8.805
 2331POPC   C2B32300  21.542  19.469   8.363
 2331POPC   C3B32301  21.618  19.250   7.990
 2331POPC   C4B32302  21.522  19.226   7.533
 2332POPC   NC332303   3.548  20.259   9.419
 2332POPC   PO432304   3.623  20.909   9.445
 2332POPC   GL132305   3.568  20.655   9.070
 2332POPC   GL232306   3.253  20.416   9.031
 2332POPC   C1A32307   3.825  20.762   8.710
 2332POPC   D2A32308   3.727  20.846   8.303
 2332POPC   C3A32309   3.469  20.550   8.109
 2332POPC   C4A32310   3.175  20.647   7.837
 2332POPC   C1B32311   3.426  20.446   8.613
 2332POPC   C2B32312   3.813  20.306   8.426
 2332POPC   C3B32313   3.969  20.471   8.036
 2332POPC   C4B32314   3.746  20.306   7.724
 2333POPC   NC332315  33.339   9.090   9.587
 2333POPC   PO432316  32.610   9.321   9.596
 2333POPC   GL132317  32.908   9.144   9.286
 2333POPC   GL232318  32.910   8.778   9.209
 2333POPC   C1A32319  33.019   9.163   8.852
 2333POPC   D2A32320  32.753   9.021   8.510
 2333POPC   C3A32321  32.821   9.145   8.085
 2333POPC   C4A32322  33.134   9.231   7.756
 2333POPC   C1B32323  33.048   8.666   8.766
 2333POPC   C2B32324  33.225   8.834   8.371
 2333POPC   C3B32325  33.210   8.751   7.930
 2333POPC   C4B32326  33.208   8.825   7.448
 2334POPC   NC332327  44.655  27.958   9.278
 2334POPC   PO432328  44.403  28.564   9.331
 2334POPC   GL132329  44.630  28.414   9.039
 2334POPC   GL232330  44.977  28.324   9.038
 2334POPC   C1A32331  44.461  28.213   8.702
 2334POPC   D2A32332  44.539  28.118   8.324
 2334POPC   C3A32333  44.313  28.298   8.029
 2334POPC   C4A32334  44.416  28.040   7.721
 2334POPC   C1B32335  44.918  28.446   8.634
 2334POPC   C2B32336  44.757  28.568   8.236
 2334POPC   C3B32337  44.718  28.515   7.787
 2334POPC   C4B32338   0.019  28.488   7.444
 2335POPC   NC332339  20.391   8.287   9.696
 2335POPC   PO432340  19.711   8.337   9.495
 2335POPC   GL132341  19.866   8.203   9.142
 2335POPC   GL232342  20.021   7.878   9.176
 2335POPC   C1A32343  19.732   8.400   8.759
 2335POPC   D2A32344  19.705   8.547   8.342
 2335POPC   C3A32345  20.017   8.426   8.075
 2335POPC   C4A32346  19.861   8.148   7.822
 2335POPC   C1B32347  20.055   7.989   8.735
 2335POPC   C2B32348  19.846   7.999   8.341
 2335POPC   C3B32349  20.064   7.747   8.031
 2335POPC   C4B32350  20.247   7.837   7.683
 2336POPC   NC332351  24.672  27.772   9.499
 2336POPC   PO432352  24.077  27.625   9.212
 2336POPC   GL132353  24.444  27.694   9.041
 2336POPC   GL232354  24.698  27.443   9.069
 2336POPC   C1A32355  24.519  27.728   8.633
 2336POPC   D2A32356  24.578  27.970   8.307
 2336POPC   C3A32357  24.447  27.647   8.044
 2336POPC   C4A32358  24.308  27.635   7.641
 2336POPC   C1B32359  24.516  27.214   8.743
 2336POPC   C2B32360  24.356  27.194   8.341
 2336POPC   C3B32361  24.618  27.160   8.009
 2336POPC   C4B32362  24.802  27.421   7.726
 2337POPC   NC332363   0.038   1.174   9.452
 2337POPC   PO432364  44.424   1.053   9.553
 2337POPC   GL132365  44.492   1.124   9.139
 2337POPC   GL232366  44.736   1.348   9.065
 2337POPC   C1A32367  44.436   1.052   8.694
 2337POPC   D2A32368  44.647   1.013   8.319
 2337POPC   C3A32369  44.525   1.000   7.879
 2337POPC   C4A32370  44.829   0.886   7.549
 2337POPC   C1B32371  44.398   1.542   8.819
 2337POPC   C2B32372  44.305   1.512   8.365
 2337POPC   C3B32373  44.654   1.459   8.092
 2337POPC   C4B32374  44.824   1.402   7.671
 2338POPC   NC332375  34.690  41.241   9.475
 2338POPC   PO432376  34.499  40.629   9.768
 2338POPC   GL132377  34.386  40.635   9.300
 2338POPC   GL232378  34.712  40.700   9.206
 2338POPC   C1A32379  34.347  40.791   8.831
 2338POPC   D2A32380  34.595  40.814   8.396
 2338POPC   C3A32381  34.300  40.732   8.025
 2338POPC   C4A32382  34.265  40.535   7.604
 2338POPC   C1B32383  34.822  40.963   8.835
 2338POPC   C2B32384  34.981  41.197   8.469
 2338POPC   C3B32385  34.971  41.090   8.058
 2338POPC   C4B32386  35.000  41.406   7.803
 2339POPC   NC332387  12.035  20.936   9.564
 2339POPC   PO432388  11.847  20.301   9.595
 2339POPC   GL132389  12.083  20.544   9.243
 2339POPC   GL232390  11.868  20.820   9.098
 2339POPC   C1A32391  12.168  20.505   8.792
 2339POPC   D2A32392  11.976  20.613   8.385
 2339POPC   C3A32393  12.158  20.539   7.988
 2339POPC   C4A32394  12.470  20.441   7.702
 2339POPC   C1B32395  11.618  20.796   8.696
 2339POPC   C2B32396  11.470  20.772   8.287
 2339POPC   C3B32397  11.762  20.868   7.969
 2339POPC   C4B32398  11.873  20.745   7.553
 2340POPC   NC332399  17.615   5.589   9.550
 2340POPC   PO432400  17.784   6.312   9.465
 2340POPC   GL132401  17.568   6.037   9.190
 2340POPC   GL232402  17.534   5.684   9.073
 2340POPC   C1A32403  17.661   6.083   8.752
 2340POPC   D2A32404  17.897   6.016   8.377
 2340POPC   C3A32405  17.647   5.873   8.078
 2340POPC   C4A32406  17.365   6.167   7.903
 2340POPC   C1B32407  17.269   5.465   8.808
 2340POPC   C2B32408  17.186   5.613   8.430
 2340POPC   C3B32409  16.934   5.604   8.116
 2340POPC   C4B32410  17.249   5.655   7.859
 2341POPC   NC332411  19.294  12.683   9.613
 2341POPC   PO432412  18.641  12.515   9.509
 2341POPC   GL132413  19.004  12.699   9.176
 2341POPC   GL232414  19.406  12.824   9.138
 2341POPC   C1A32415  19.115  12.748   8.734
 2341POPC   D2A32416  19.134  12.565   8.360
 2341POPC   C3A32417  19.112  12.843   8.066
 2341POPC   C4A32418  19.008  12.834   7.676
 2341POPC   C1B32419  19.402  13.151   8.799
 2341POPC   C2B32420  19.470  12.996   8.398
 2341POPC   C3B32421  19.397  13.246   8.025
 2341POPC   C4B32422  19.285  13.255   7.620
 2342POPC   NC332423  37.069  40.255   9.499
 2342POPC   PO432424  36.580  39.817   9.381
 2342POPC   GL132425  36.743  40.115   9.105
 2342POPC   GL232426  37.053  39.928   9.083
 2342POPC   C1A32427  36.808  40.164   8.656
 2342POPC   D2A32428  36.985  39.926   8.299
 2342POPC   C3A32429  36.933  40.125   7.914
 2342POPC   C4A32430  36.817  40.106   7.478
 2342POPC   C1B32431  37.330  39.981   8.734
 2342POPC   C2B32432  37.469  40.125   8.338
 2342POPC   C3B32433  37.442  39.932   7.918
 2342POPC   C4B32434  37.152  39.764   7.604
 2343POPC   NC332435   0.956   5.931   9.578
 2343POPC   PO432436   1.650   6.003   9.469
 2343POPC   GL132437   1.316   5.850   9.226
 2343POPC   GL232438   1.098   6.126   9.136
 2343POPC   C1A32439   1.100   5.635   8.912
 2343POPC   D2A32440   1.063   5.661   8.461
 2343POPC   C3A32441   1.262   5.960   8.174
 2343POPC   C4A32442   1.246   5.751   7.758
 2343POPC   C1B32443   1.212   6.098   8.726
 2343POPC   C2B32444   0.962   6.277   8.432
 2343POPC   C3B32445   1.037   6.412   8.037
 2343POPC   C4B32446   1.317   6.242   7.716
 2344POPC   NC332447  27.246  21.249   9.567
 2344POPC   PO432448  27.909  21.538   9.585
 2344POPC   GL132449  27.628  21.417   9.258
 2344POPC   GL232450  27.781  21.210   9.076
 2344POPC   C1A32451  27.575  21.571   8.804
 2344POPC   D2A32452  27.530  21.421   8.371
 2344POPC   C3A32453  27.746  21.560   8.020
 2344POPC   C4A32454  27.734  21.924   7.775
 2344POPC   C1B32455  27.643  21.062   8.702
 2344POPC   C2B32456  27.735  20.931   8.267
 2344POPC   C3B32457  27.656  21.076   7.839
 2344POPC   C4B32458  27.358  21.082   7.480
 2345POPC   NC332459  44.031  43.325   9.688
 2345POPC   PO432460  43.553  42.918   9.771
 2345POPC   GL132461  43.759  43.038   9.362
 2345POPC   GL232462  43.466  42.954   9.213
 2345POPC   C1A32463  44.034  43.266   9.007
 2345POPC   D2A32464  44.095  43.216   8.540
 2345POPC   C3A32465  44.024  43.324   8.088
 2345POPC   C4A32466  43.761  43.244   7.729
 2345POPC   C1B32467  43.626  43.037   8.838
 2345POPC   C2B32468  43.629  43.006   8.415
 2345POPC   C3B32469  43.600  42.854   8.021
 2345POPC   C4B32470  43.401  42.889   7.617
 2346POPC   NC332471  34.138  22.808   9.848
 2346POPC   PO432472  34.061  23.259   9.378
 2346POPC   GL132473  33.927  22.937   9.107
 2346POPC   GL232474  33.588  22.841   9.021
 2346POPC   C1A32475  34.030  22.786   8.677
 2346POPC   D2A32476  34.156  23.069   8.316
 2346POPC   C3A32477  34.040  22.850   7.972
 2346POPC   C4A32478  34.030  22.655   7.580
 2346POPC   C1B32479  33.507  22.724   8.627
 2346POPC   C2B32480  33.687  22.551   8.271
 2346POPC   C3B32481  33.569  22.737   7.918
 2346POPC   C4B32482  33.678  23.058   7.654
 2347POPC   NC332483   2.227  17.757   9.429
 2347POPC   PO432484   1.580  17.444   9.583
 2347POPC   GL132485   1.847  17.502   9.198
 2347POPC   GL232486   2.083  17.260   9.121
 2347POPC   C1A32487   1.906  17.685   8.773
 2347POPC   D2A32488   1.817  17.763   8.326
 2347POPC   C3A32489   2.100  17.751   7.953
 2347POPC   C4A32490   1.969  17.761   7.546
 2347POPC   C1B32491   1.779  17.189   8.746
 2347POPC   C2B32492   1.620  17.289   8.358
 2347POPC   C3B32493   1.817  17.339   7.977
 2347POPC   C4B32494   1.927  17.271   7.560
 2348POPC   NC332495  24.956   2.625   9.538
 2348POPC   PO432496  25.544   2.479   9.489
 2348POPC   GL132497  25.317   2.729   9.170
 2348POPC   GL232498  25.601   2.619   8.978
 2348POPC   C1A32499  25.113   2.862   8.781
 2348POPC   D2A32500  25.029   2.600   8.409
 2348POPC   C3A32501  25.245   2.592   8.039
 2348POPC   C4A32502  25.111   2.676   7.627
 2348POPC   C1B32503  25.514   2.696   8.539
 2348POPC   C2B32504  25.302   3.041   8.306
 2348POPC   C3B32505  25.320   3.070   7.867
 2348POPC   C4B32506  25.590   2.867   7.590
 2349POPC   NC332507  17.824  21.566   9.628
 2349POPC   PO432508  18.383  21.398   9.595
 2349POPC   GL132509  18.365  21.238   9.140
 2349POPC   GL232510  18.024  21.271   9.097
 2349POPC   C1A32511  18.375  21.258   8.673
 2349POPC   D2A32512  18.340  21.590   8.375
 2349POPC   C3A32513  18.327  21.474   7.971
 2349POPC   C4A32514  18.199  21.071   7.814
 2349POPC   C1B32515  17.909  21.411   8.675
 2349POPC   C2B32516  17.946  21.255   8.253
 2349POPC   C3B32517  17.831  21.433   7.852
 2349POPC   C4B32518  17.998  21.767   7.599
 2350POPC   NC332519   7.814  22.154   9.452
 2350POPC   PO432520   7.127  22.002   9.448
 2350POPC   GL132521   7.395  22.257   9.151
 2350POPC   GL232522   7.757  22.406   9.009
 2350POPC   C1A32523   7.447  22.058   8.768
 2350POPC   D2A32524   7.161  21.980   8.455
 2350POPC   C3A32525   7.355  21.949   8.073
 2350POPC   C4A32526   7.428  22.051   7.650
 2350POPC   C1B32527   7.454  22.580   8.742
 2350POPC   C2B32528   7.314  22.451   8.330
 2350POPC   C3B32529   7.452  22.479   7.919
 2350POPC   C4B32530   7.853  22.529   7.728
 2351POPC   NC332531  26.444  29.086   9.471
 2351POPC   PO432532  25.980  29.572   9.484
 2351POPC   GL132533  26.117  29.369   9.075
 2351POPC   GL232534  26.443  29.191   8.992
 2351POPC   C1A32535  26.023  29.072   8.709
 2351POPC   D2A32536  25.808  28.983   8.349
 2351POPC   C3A32537  25.827  29.267   8.001
 2351POPC   C4A32538  26.060  29.236   7.628
 2351POPC   C1B32539  26.421  29.470   8.673
 2351POPC   C2B32540  26.228  29.317   8.315
 2351POPC   C3B32541  26.360  29.106   7.998
 2351POPC   C4B32542  26.616  29.348   7.782
 2352POPC   NC332543  13.718  31.633   9.823
 2352POPC   PO432544  13.637  31.303   9.259
 2352POPC   GL132545  13.584  31.479   8.932
 2352POPC   GL232546  13.734  31.758   8.975
 2352POPC   C1A32547  13.645  31.425   8.527
 2352POPC   D2A32548  13.852  31.344   8.243
 2352POPC   C3A32549  13.520  31.338   7.984
 2352POPC   C4A32550  13.777  31.294   7.690
 2352POPC   C1B32551  13.528  31.890   8.605
 2352POPC   C2B32552  13.474  31.805   8.188
 2352POPC   C3B32553  13.450  31.763   7.721
 2352POPC   C4B32554  13.788  31.888   7.437
 2353POPC   NC332555   4.520  17.300   9.817
 2353POPC   PO432556   4.272  17.925   9.550
 2353POPC   GL132557   4.495  17.830   9.170
 2353POPC   GL232558   4.549  17.455   9.260
 2353POPC   C1A32559   4.357  17.697   8.734
 2353POPC   D2A32560   4.032  17.530   8.444
 2353POPC   C3A32561   4.232  17.561   8.047
 2353POPC   C4A32562   4.368  17.556   7.584
 2353POPC   C1B32563   4.704  17.321   8.830
 2353POPC   C2B32564   4.599  17.415   8.390
 2353POPC   C3B32565   4.748  17.512   7.981
 2353POPC   C4B32566   4.763  17.255   7.611
 2354POPC   NC332567  27.285  17.132   9.363
 2354POPC   PO432568  27.938  17.346   9.375
 2354POPC   GL132569  27.627  17.595   9.080
 2354POPC   GL232570  27.272  17.557   9.012
 2354POPC   C1A32571  27.558  17.726   8.617
 2354POPC   D2A32572  27.521  17.706   8.172
 2354POPC   C3A32573  27.736  17.515   7.823
 2354POPC   C4A32574  27.827  17.747   7.458
 2354POPC   C1B32575  27.498  17.231   8.749
 2354POPC   C2B32576  27.652  17.224   8.320
 2354POPC   C3B32577  27.395  17.160   7.920
 2354POPC   C4B32578  27.202  17.407   7.604
 2355POPC   NC332579  20.692  25.322   9.874
 2355POPC   PO432580  20.096  25.467   9.729
 2355POPC   GL132581  20.422  25.384   9.409
 2355POPC   GL232582  20.303  25.107   9.201
 2355POPC   C1A32583  20.736  25.393   9.044
 2355POPC   D2A32584  20.875  25.195   8.641
 2355POPC   C3A32585  20.858  25.235   8.167
 2355POPC   C4A32586  20.649  24.962   7.864
 2355POPC   C1B32587  20.347  25.253   8.742
 2355POPC   C2B32588  20.357  25.188   8.277
 2355POPC   C3B32589  20.371  25.380   7.852
 2355POPC   C4B32590  20.159  25.394   7.444
 2356POPC   NC332591  32.518  42.894   9.558
 2356POPC   PO432592  31.792  42.782   9.556
 2356POPC   GL132593  32.081  42.958   9.267
 2356POPC   GL232594  32.047  43.304   9.165
 2356POPC   C1A32595  32.310  42.933   8.904
 2356POPC   D2A32596  32.525  43.057   8.551
 2356POPC   C3A32597  32.429  42.871   8.151
 2356POPC   C4A32598  32.313  42.970   7.727
 2356POPC   C1B32599  32.194  43.411   8.760
 2356POPC   C2B32600  32.092  43.495   8.349
 2356POPC   C3B32601  32.268  43.424   7.960
 2356POPC   C4B32602  32.023  43.384   7.599
 2357POPC   NC332603  42.769  32.710   9.649
 2357POPC   PO432604  42.238  33.075   9.544
 2357POPC   GL132605  42.210  33.017   9.128
 2357POPC   GL232606  42.396  32.692   9.252
 2357POPC   C1A32607  42.064  33.299   8.762
 2357POPC   D2A32608  42.076  33.588   8.384
 2357POPC   C3A32609  42.101  33.351   7.977
 2357POPC   C4A32610  42.396  33.055   7.774
 2357POPC   C1B32611  42.513  32.676   8.832
 2357POPC   C2B32612  42.636  32.834   8.424
 2357POPC   C3B32613  42.766  32.726   8.009
 2357POPC   C4B32614  42.556  32.451   7.746
 2358POPC   NC332615   1.510  12.469   9.534
 2358POPC   PO432616   0.999  12.914   9.560
 2358POPC   GL132617   1.136  12.766   9.176
 2358POPC   GL232618   1.505  12.836   9.152
 2358POPC   C1A32619   0.932  12.812   8.770
 2358POPC   D2A32620   0.992  12.631   8.390
 2358POPC   C3A32621   0.783  12.777   8.000
 2358POPC   C4A32622   1.032  12.677   7.646
 2358POPC   C1B32623   1.385  13.043   8.775
 2358POPC   C2B32624   1.165  13.133   8.422
 2358POPC   C3B32625   1.262  12.926   8.054
 2358POPC   C4B32626   1.437  12.951   7.668
 2359POPC   NC332627   8.427  41.334   9.497
 2359POPC   PO432628   8.151  42.032   9.569
 2359POPC   GL132629   8.176  41.805   9.168
 2359POPC   GL232630   8.280  41.463   9.040
 2359POPC   C1A32631   7.925  41.751   8.819
 2359POPC   D2A32632   7.956  41.463   8.491
 2359POPC   C3A32633   7.963  41.627   8.089
 2359POPC   C4A32634   8.194  41.392   7.796
 2359POPC   C1B32635   8.431  41.698   8.686
 2359POPC   C2B32636   8.471  41.604   8.244
 2359POPC   C3B32637   8.377  41.857   7.898
 2359POPC   C4B32638   8.451  41.909   7.493
 2360POPC   NC332639   6.148  19.201   9.454
 2360POPC   PO432640   5.433  19.430   9.443
 2360POPC   GL132641   5.714  19.188   9.158
 2360POPC   GL232642   5.988  18.937   9.027
 2360POPC   C1A32643   5.717  19.261   8.753
 2360POPC   D2A32644   5.865  19.353   8.373
 2360POPC   C3A32645   5.802  19.119   8.016
 2360POPC   C4A32646   5.781  19.273   7.604
 2360POPC   C1B32647   6.228  19.223   8.706
 2360POPC   C2B32648   6.367  19.373   8.248
 2360POPC   C3B32649   6.280  19.264   7.799
 2360POPC   C4B32650   6.153  18.914   7.528
 2361POPC   NC332651   5.018  14.519   9.544
 2361POPC   PO432652   4.812  13.874   9.653
 2361POPC   GL132653   5.070  14.068   9.298
 2361POPC   GL232654   5.337  14.376   9.193
 2361POPC   C1A32655   5.045  14.093   8.849
 2361POPC   D2A32656   5.201  13.990   8.448
 2361POPC   C3A32657   4.918  13.895   8.139
 2361POPC   C4A32658   4.800  14.009   7.732
 2361POPC   C1B32659   5.262  14.574   8.792
 2361POPC   C2B32660   4.976  14.460   8.452
 2361POPC   C3B32661   5.014  14.407   8.020
 2361POPC   C4B32662   5.351  14.620   7.840
 2362POPC   NC332663  33.407  26.144   9.542
 2362POPC   PO432664  32.719  26.309   9.742
 2362POPC   GL132665  32.863  26.175   9.264
 2362POPC   GL232666  33.157  26.062   9.125
 2362POPC   C1A32667  32.806  26.068   8.778
 2362POPC   D2A32668  33.033  26.139   8.376
 2362POPC   C3A32669  32.908  26.209   7.964
 2362POPC   C4A32670  32.758  25.895   7.631
 2362POPC   C1B32671  33.269  25.857   8.744
 2362POPC   C2B32672  33.495  25.848   8.365
 2362POPC   C3B32673  33.431  26.059   8.001
 2362POPC   C4B32674  33.255  26.142   7.583
 2363POPC   NC332675   9.831   2.280   9.479
 2363POPC   PO432676  10.076   1.656   9.515
 2363POPC   GL132677   9.924   1.909   9.118
 2363POPC   GL232678  10.039   2.261   9.021
 2363POPC   C1A32679   9.920   1.844   8.655
 2363POPC   D2A32680   9.863   1.758   8.202
 2363POPC   C3A32681   9.468   1.783   7.983
 2363POPC   C4A32682   9.411   1.897   7.570
 2363POPC   C1B32683   9.657   2.256   8.777
 2363POPC   C2B32684   9.538   2.168   8.355
 2363POPC   C3B32685   9.653   2.351   7.959
 2363POPC   C4B32686   9.664   2.317   7.502
 2364POPC   NC332687   6.365   4.023   9.388
 2364POPC   PO432688   6.790   4.422   9.602
 2364POPC   GL132689   6.635   4.341   9.142
 2364POPC   GL232690   6.534   4.639   9.132
 2364POPC   C1A32691   6.647   4.193   8.692
 2364POPC   D2A32692   6.519   4.101   8.253
 2364POPC   C3A32693   6.749   4.299   7.880
 2364POPC   C4A32694   7.030   4.181   7.515
 2364POPC   C1B32695   6.429   4.651   8.698
 2364POPC   C2B32696   6.689   4.579   8.326
 2364POPC   C3B32697   6.511   4.751   7.948
 2364POPC   C4B32698   6.432   4.676   7.547
 2365POPC   NC332699   1.403  44.309   9.711
 2365POPC   PO432700   1.269  44.936   9.738
 2365POPC   GL132701   1.150  44.650   9.380
 2365POPC   GL232702   0.999  44.905   9.184
 2365POPC   C1A32703   1.218  44.483   8.930
 2365POPC   D2A32704   0.989  44.408   8.519
 2365POPC   C3A32705   1.120  44.466   8.094
 2365POPC   C4A32706   1.226  44.459   7.657
 2365POPC   C1B32707   1.014  44.901   8.737
 2365POPC   C2B32708   1.369  44.756   8.463
 2365POPC   C3B32709   1.421  44.881   8.027
 2365POPC   C4B32710   1.060   0.055   7.813
 2366POPC   NC332711  22.324   5.199   9.475
 2366POPC   PO432712  21.856   4.718   9.539
 2366POPC   GL132713  21.985   4.929   9.146
 2366POPC   GL232714  22.299   4.837   9.109
 2366POPC   C1A32715  22.189   5.221   8.789
 2366POPC   D2A32716  22.400   5.272   8.363
 2366POPC   C3A32717  22.157   5.263   7.956
 2366POPC   C4A32718  21.962   5.307   7.520
 2366POPC   C1B32719  22.541   4.863   8.761
 2366POPC   C2B32720  22.735   4.869   8.372
 2366POPC   C3B32721  22.547   4.911   7.978
 2366POPC   C4B32722  22.375   4.951   7.561
 2367POPC   NC332723  43.278  26.914   9.734
 2367POPC   PO432724  42.853  26.763   9.299
 2367POPC   GL132725  43.135  27.033   9.139
 2367POPC   GL232726  43.415  26.892   9.239
 2367POPC   C1A32727  43.187  27.162   8.756
 2367POPC   D2A32728  43.000  26.841   8.535
 2367POPC   C3A32729  43.010  26.834   8.108
 2367POPC   C4A32730  42.944  26.511   7.857
 2367POPC   C1B32731  43.434  26.711   8.808
 2367POPC   C2B32732  43.519  26.925   8.407
 2367POPC   C3B32733  43.436  27.120   8.002
 2367POPC   C4B32734  43.406  26.733   7.774
 2368POPC   NC332735  23.656  21.192   9.637
 2368POPC   PO432736  23.528  21.877   9.449
 2368POPC   GL132737  23.763  21.524   9.210
 2368POPC   GL232738  23.733  21.148   9.144
 2368POPC   C1A32739  23.884  21.502   8.760
 2368POPC   D2A32740  23.635  21.641   8.395
 2368POPC   C3A32741  23.758  21.484   7.966
 2368POPC   C4A32742  24.046  21.651   7.650
 2368POPC   C1B32743  23.984  20.993   8.806
 2368POPC   C2B32744  24.115  21.111   8.391
 2368POPC   C3B32745  23.966  20.998   7.984
 2368POPC   C4B32746  23.573  20.992   7.811
 2369POPC   NC332747   6.298   0.661   9.429
 2369POPC   PO432748   5.677   0.262   9.494
 2369POPC   GL132749   5.644   0.388   9.085
 2369POPC   GL232750   5.899   0.606   9.105
 2369POPC   C1A32751   5.804   0.309   8.664
 2369POPC   D2A32752   5.943   0.068   8.316
 2369POPC   C3A32753   5.979   0.280   7.943
 2369POPC   C4A32754   5.742   0.313   7.577
 2369POPC   C1B32755   5.838   0.804   8.720
 2369POPC   C2B32756   5.908   0.665   8.266
 2369POPC   C3B32757   5.722   0.756   7.837
 2369POPC   C4B32758   5.703   0.828   7.356
 2370POPC   NC332759   0.621  21.415   9.404
 2370POPC   PO432760   0.109  21.038   9.666
 2370POPC   GL132761   0.140  21.210   9.166
 2370POPC   GL232762   0.268  21.579   9.084
 2370POPC   C1A32763   0.406  21.254   8.721
 2370POPC   D2A32764   0.694  21.515   8.438
 2370POPC   C3A32765   0.772  21.404   8.014
 2370POPC   C4A32766   0.616  21.506   7.618
 2370POPC   C1B32767   0.282  21.757   8.646
 2370POPC   C2B32768   0.181  21.470   8.308
 2370POPC   C3B32769   0.155  21.441   7.894
 2370POPC   C4B32770   0.188  21.263   7.436
 2371POPC   NC332771   1.828  32.353   9.604
 2371POPC   PO432772   2.208  31.740   9.721
 2371POPC   GL132773   1.851  31.923   9.343
 2371POPC   GL232774   1.999  32.230   9.150
 2371POPC   C1A32775   1.759  31.939   8.833
 2371POPC   D2A32776   1.979  31.918   8.397
 2371POPC   C3A32777   1.978  32.139   8.010
 2371POPC   C4A32778   2.211  32.112   7.640
 2371POPC   C1B32779   2.210  32.262   8.718
 2371POPC   C2B32780   2.338  32.392   8.300
 2371POPC   C3B32781   2.279  32.576   7.872
 2371POPC   C4B32782   2.265  32.562   7.421
 2372POPC   NC332783   0.925  42.803   9.239
 2372POPC   PO432784   1.205  42.297   9.623
 2372POPC   GL132785   1.313  42.177   9.208
 2372POPC   GL232786   1.028  42.319   9.103
 2372POPC   C1A32787   1.425  42.280   8.759
 2372POPC   D2A32788   1.377  42.617   8.455
 2372POPC   C3A32789   1.332  42.481   8.045
 2372POPC   C4A32790   1.418  42.608   7.627
 2372POPC   C1B32791   0.892  42.242   8.704
 2372POPC   C2B32792   1.091  42.147   8.354
 2372POPC   C3B32793   0.959  42.054   7.991
 2372POPC   C4B32794   0.962  42.397   7.704
 2373POPC   NC332795   6.290   8.155   9.410
 2373POPC   PO432796   6.847   8.539   9.595
 2373POPC   GL132797   6.707   8.375   9.197
 2373POPC   GL232798   6.632   8.045   9.069
 2373POPC   C1A32799   6.561   8.465   8.783
 2373POPC   D2A32800   6.560   8.244   8.432
 2373POPC   C3A32801   6.767   8.363   8.054
 2373POPC   C4A32802   6.632   8.198   7.651
 2373POPC   C1B32803   6.877   7.946   8.723
 2373POPC   C2B32804   6.736   7.783   8.386
 2373POPC   C3B32805   6.508   7.886   8.039
 2373POPC   C4B32806   6.590   7.698   7.663
 2374POPC   NC332807  27.019  24.929   9.789
 2374POPC   PO432808  26.714  25.464   9.472
 2374POPC   GL132809  26.639  25.085   9.185
 2374POPC   GL232810  26.889  24.956   8.973
 2374POPC   C1A32811  26.446  25.085   8.739
 2374POPC   D2A32812  26.349  25.270   8.319
 2374POPC   C3A32813  26.560  25.129   7.967
 2374POPC   C4A32814  26.663  25.507   7.814
 2374POPC   C1B32815  26.986  25.294   8.689
 2374POPC   C2B32816  27.232  25.440   8.337
 2374POPC   C3B32817  27.108  25.267   7.948
 2374POPC   C4B32818  26.986  24.991   7.626
 2375POPC   NC332819  23.766  16.640   9.541
 2375POPC   PO432820  23.153  16.860   9.520
 2375POPC   GL132821  23.490  16.880   9.150
 2375POPC   GL232822  23.781  16.638   9.040
 2375POPC   C1A32823  23.612  16.972   8.716
 2375POPC   D2A32824  23.446  16.921   8.310
 2375POPC   C3A32825  23.742  16.894   7.968
 2375POPC   C4A32826  23.610  16.658   7.642
 2375POPC   C1B32827  24.074  16.789   8.698
 2375POPC   C2B32828  23.882  16.622   8.380
 2375POPC   C3B32829  23.844  16.395   8.034
 2375POPC   C4B32830  24.023  16.379   7.658
 2376POPC   NC332831   1.541  16.288   9.420
 2376POPC   PO432832   1.061  15.879   9.637
 2376POPC   GL132833   1.100  15.902   9.181
 2376POPC   GL232834   0.774  15.749   9.080
 2376POPC   C1A32835   1.384  16.057   8.817
 2376POPC   D2A32836   1.367  16.331   8.435
 2376POPC   C3A32837   1.549  16.216   8.005
 2376POPC   C4A32838   1.231  16.217   7.626
 2376POPC   C1B32839   1.028  15.699   8.683
 2376POPC   C2B32840   1.322  15.829   8.365
 2376POPC   C3B32841   1.214  15.837   7.955
 2376POPC   C4B32842   1.534  15.785   7.645
 2377POPC   NC332843  17.026  11.148   9.594
 2377POPC   PO432844  16.306  11.059   9.515
 2377POPC   GL132845  16.608  11.180   9.182
 2377POPC   GL232846  16.806  10.883   9.170
 2377POPC   C1A32847  16.822  11.155   8.749
 2377POPC   D2A32848  16.792  11.332   8.356
 2377POPC   C3A32849  17.025  11.215   8.036
 2377POPC   C4A32850  16.762  11.415   7.766
 2377POPC   C1B32851  16.689  10.674   8.769
 2377POPC   C2B32852  16.702  10.830   8.334
 2377POPC   C3B32853  16.628  10.900   7.905
 2377POPC   C4B32854  16.959  10.959   7.606
 2378POPC   NC332855  34.018   9.780   9.497
 2378POPC   PO432856  34.641   9.874   9.651
 2378POPC   GL132857  34.459   9.844   9.243
 2378POPC   GL232858  34.464  10.166   9.129
 2378POPC   C1A32859  34.533   9.683   8.813
 2378POPC   D2A32860  34.440   9.712   8.351
 2378POPC   C3A32861  34.598   9.503   7.958
 2378POPC   C4A32862  34.509   9.550   7.518
 2378POPC   C1B32863  34.729  10.308   8.779
 2378POPC   C2B32864  34.868  10.196   8.352
 2378POPC   C3B32865  34.659  10.031   7.985
 2378POPC   C4B32866  34.517  10.235   7.604
 2379POPC   NC332867  10.695  19.658   9.256
 2379POPC   PO432868  10.866  20.164   9.733
 2379POPC   GL132869  10.737  20.222   9.218
 2379POPC   GL232870  10.403  20.058   9.084
 2379POPC   C1A32871  10.771  20.069   8.726
 2379POPC   D2A32872  10.589  19.884   8.333
 2379POPC   C3A32873  10.773  19.923   7.932
 2379POPC   C4A32874  10.988  19.830   7.565
 2379POPC   C1B32875  10.355  19.708   8.741
 2379POPC   C2B32876  10.219  19.489   8.362
 2379POPC   C3B32877  10.458  19.511   8.002
 2379POPC   C4B32878  10.455  19.638   7.571
 2380POPC   NC332879  34.230  36.258   9.520
 2380POPC   PO432880  34.814  35.881   9.465
 2380POPC   GL132881  34.524  35.969   9.136
 2380POPC   GL232882  34.585  36.278   9.049
 2380POPC   C1A32883  34.372  35.968   8.694
 2380POPC   D2A32884  34.377  35.778   8.275
 2380POPC   C3A32885  34.528  35.991   7.893
 2380POPC   C4A32886  34.678  36.199   7.489
 2380POPC   C1B32887  34.544  36.456   8.676
 2380POPC   C2B32888  34.551  36.296   8.299
 2380POPC   C3B32889  34.622  36.493   7.899
 2380POPC   C4B32890  35.013  36.531   7.693
 2381POPC   NC332891  36.846  11.741   9.560
 2381POPC   PO432892  37.077  12.335   9.514
 2381POPC   GL132893  36.827  12.123   9.142
 2381POPC   GL232894  36.719  11.806   9.076
 2381POPC   C1A32895  36.797  12.193   8.689
 2381POPC   D2A32896  37.134  12.269   8.414
 2381POPC   C3A32897  37.072  12.243   7.988
 2381POPC   C4A32898  36.698  12.379   7.789
 2381POPC   C1B32899  36.740  11.685   8.652
 2381POPC   C2B32900  36.795  11.853   8.244
 2381POPC   C3B32901  36.729  11.869   7.791
 2381POPC   C4B32902  36.506  11.779   7.424
 2382POPC   NC332903  30.500  21.151   9.932
 2382POPC   PO432904  30.817  21.495   9.414
 2382POPC   GL132905  30.511  21.512   9.089
 2382POPC   GL232906  30.802  21.683   8.941
 2382POPC   C1A32907  30.488  21.413   8.641
 2382POPC   D2A32908  30.818  21.628   8.407
 2382POPC   C3A32909  30.830  21.449   8.010
 2382POPC   C4A32910  30.540  21.217   7.769
 2382POPC   C1B32911  30.432  21.891   8.776
 2382POPC   C2B32912  30.310  21.815   8.385
 2382POPC   C3B32913  30.285  21.964   8.033
 2382POPC   C4B32914  30.551  21.826   7.758
 2383POPC   NC332915  20.360  14.661   9.433
 2383POPC   PO432916  20.630  14.094   9.646
 2383POPC   GL132917  20.653  14.258   9.204
 2383POPC   GL232918  20.756  14.599   9.134
 2383POPC   C1A32919  20.458  14.358   8.793
 2383POPC   D2A32920  20.340  14.219   8.375
 2383POPC   C3A32921  20.536  14.451   8.093
 2383POPC   C4A32922  20.500  14.542   7.703
 2383POPC   C1B32923  20.906  14.644   8.717
 2383POPC   C2B32924  21.011  14.528   8.278
 2383POPC   C3B32925  20.904  14.773   7.914
 2383POPC   C4B32926  20.922  14.723   7.465
 2384POPC   NC332927   8.748  17.224   9.749
 2384POPC   PO432928   9.160  17.644   9.386
 2384POPC   GL132929   8.927  17.797   9.087
 2384POPC   GL232930   9.244  17.968   8.951
 2384POPC   C1A32931   8.706  17.659   8.696
 2384POPC   D2A32932   8.630  17.655   8.260
 2384POPC   C3A32933   8.757  17.345   7.975
 2384POPC   C4A32934   8.822  17.317   7.544
 2384POPC   C1B32935   9.217  17.579   8.724
 2384POPC   C2B32936   9.142  17.406   8.328
 2384POPC   C3B32937   9.107  17.698   8.030
 2384POPC   C4B32938   9.118  17.728   7.631
 2385POPC   NC332939  44.784  17.653   9.325
 2385POPC   PO432940  44.293  17.316   9.613
 2385POPC   GL132941  44.468  17.220   9.181
 2385POPC   GL232942  44.811  17.238   9.024
 2385POPC   C1A32943  44.368  17.344   8.746
 2385POPC   D2A32944  44.598  17.326   8.339
 2385POPC   C3A32945  44.535  17.664   8.053
 2385POPC   C4A32946  44.401  17.525   7.678
 2385POPC   C1B32947  44.830  17.602   8.700
 2385POPC   C2B32948  45.000  17.657   8.307
 2385POPC   C3B32949  44.994  17.509   7.899
 2385POPC   C4B32950  44.842  17.743   7.605
 2386POPC   NC332951  10.772  15.307   9.542
 2386POPC   PO432952  10.280  14.831   9.464
 2386POPC   GL132953  10.388  15.171   9.194
 2386POPC   GL232954  10.720  15.042   9.091
 2386POPC   C1A32955  10.452  15.404   8.801
 2386POPC   D2A32956  10.591  15.534   8.421
 2386POPC   C3A32957  10.598  15.333   8.010
 2386POPC   C4A32958  10.429  15.381   7.586
 2386POPC   C1B32959  10.835  15.111   8.648
 2386POPC   C2B32960  10.832  14.926   8.249
 2386POPC   C3B32961  10.620  14.838   7.865
 2386POPC   C4B32962  10.624  14.927   7.438
 2387POPC   NC332963   6.995  22.476   9.452
 2387POPC   PO432964   6.346  22.314   9.530
 2387POPC   GL132965   6.498  22.400   9.136
 2387POPC   GL232966   6.774  22.181   9.107
 2387POPC   C1A32967   6.447  22.198   8.710
 2387POPC   D2A32968   6.645  21.882   8.416
 2387POPC   C3A32969   6.521  22.024   7.998
 2387POPC   C4A32970   6.540  22.409   7.735
 2387POPC   C1B32971   6.960  22.371   8.758
 2387POPC   C2B32972   6.801  22.372   8.347
 2387POPC   C3B32973   6.978  22.263   7.960
 2387POPC   C4B32974   6.933  22.164   7.527
 2388POPC   NC332975  36.401  36.728   9.947
 2388POPC   PO432976  36.042  37.122   9.525
 2388POPC   GL132977  36.155  36.887   9.112
 2388POPC   GL232978  35.939  36.593   9.019
 2388POPC   C1A32979  36.029  36.914   8.653
 2388POPC   D2A32980  35.842  36.951   8.247
 2388POPC   C3A32981  36.181  37.033   7.953
 2388POPC   C4A32982  36.504  36.766   7.771
 2388POPC   C1B32983  35.756  36.402   8.663
 2388POPC   C2B32984  35.722  36.378   8.222
 2388POPC   C3B32985  35.929  36.584   7.889
 2388POPC   C4B32986  35.921  36.843   7.542
 2389POPC   NC332987  36.703  21.211   9.454
 2389POPC   PO432988  37.124  21.752   9.435
 2389POPC   GL132989  36.824  21.594   9.131
 2389POPC   GL232990  36.989  21.281   9.021
 2389POPC   C1A32991  36.649  21.500   8.715
 2389POPC   D2A32992  37.035  21.352   8.459
 2389POPC   C3A32993  36.945  21.249   8.076
 2389POPC   C4A32994  36.784  21.487   7.802
 2389POPC   C1B32995  36.774  21.010   8.703
 2389POPC   C2B32996  36.576  20.915   8.256
 2389POPC   C3B32997  36.552  21.015   7.805
 2389POPC   C4B32998  36.919  21.045   7.546
 2390POPC   NC332999  37.488  12.503   9.388
 2390POPC   PO433000  37.936  12.002   9.408
 2390POPC   GL133001  37.660  11.963   9.072
 2390POPC   GL233002  37.338  12.046   9.190
 2390POPC   C1A33003  37.567  12.239   8.717
 2390POPC   D2A33004  37.607  12.463   8.324
 2390POPC   C3A33005  37.611  12.219   7.928
 2390POPC   C4A33006  37.986  12.055   7.670
 2390POPC   C1B33007  37.189  11.908   8.810
 2390POPC   C2B33008  37.294  11.789   8.398
 2390POPC   C3B33009  37.216  11.725   7.961
 2390POPC   C4B33010  37.472  11.792   7.608
 2391POPC   NC333011  19.024  41.875   9.463
 2391POPC   PO433012  19.177  41.168   9.489
 2391POPC   GL133013  19.156  41.394   9.098
 2391POPC   GL233014  19.296  41.753   9.060
 2391POPC   C1A33015  19.125  41.320   8.642
 2391POPC   D2A33016  19.409  41.253   8.294
 2391POPC   C3A33017  19.176  41.278   7.903
 2391POPC   C4A33018  18.937  41.601   7.717
 2391POPC   C1B33019  18.866  41.729   8.822
 2391POPC   C2B33020  18.685  41.890   8.430
 2391POPC   C3B33021  18.573  41.778   8.013
 2391POPC   C4B33022  18.568  41.963   7.597
 2392POPC   NC333023  28.528  38.597   9.853
 2392POPC   PO433024  28.890  38.038   9.680
 2392POPC   GL133025  28.674  38.428   9.347
 2392POPC   GL233026  28.319  38.584   9.268
 2392POPC   C1A33027  28.610  38.609   8.869
 2392POPC   D2A33028  28.424  38.349   8.463
 2392POPC   C3A33029  28.420  38.600   8.040
 2392POPC   C4A33030  28.408  38.989   7.782
 2392POPC   C1B33031  28.118  38.548   8.815
 2392POPC   C2B33032  27.980  38.574   8.338
 2392POPC   C3B33033  27.977  38.388   7.904
 2392POPC   C4B33034  28.236  38.068   7.731
 2393POPC   NC333035  39.874  22.256   9.477
 2393POPC   PO433036  40.380  21.689   9.422
 2393POPC   GL133037  40.131  21.948   9.102
 2393POPC   GL233038  40.206  22.324   9.097
 2393POPC   C1A33039  39.937  22.105   8.703
 2393POPC   D2A33040  39.591  22.010   8.413
 2393POPC   C3A33041  39.691  21.881   7.986
 2393POPC   C4A33042  39.789  22.037   7.561
 2393POPC   C1B33043  39.834  22.547   8.875
 2393POPC   C2B33044  39.787  22.539   8.422
 2393POPC   C3B33045  39.815  22.401   7.983
 2393POPC   C4B33046  39.724  22.540   7.534
 2394POPC   NC333047  12.589   9.512   9.649
 2394POPC   PO433048  13.183   9.300   9.861
 2394POPC   GL133049  13.082   9.482   9.371
 2394POPC   GL233050  13.087   9.839   9.190
 2394POPC   C1A33051  12.858   9.496   8.895
 2394POPC   D2A33052  12.813   9.606   8.411
 2394POPC   C3A33053  12.856   9.312   8.018
 2394POPC   C4A33054  12.971   9.301   7.573
 2394POPC   C1B33055  12.900  10.012   8.759
 2394POPC   C2B33056  12.682  10.098   8.347
 2394POPC   C3B33057  12.759  10.056   7.895
 2394POPC   C4B33058  12.489  10.064   7.522
 2395POPC   NC333059  19.610  15.884   9.759
 2395POPC   PO433060  20.062  16.329   9.575
 2395POPC   GL133061  19.964  16.174   9.170
 2395POPC   GL233062  19.802  15.916   9.277
 2395POPC   C1A33063  20.085  15.883   8.819
 2395POPC   D2A33064  19.950  15.684   8.417
 2395POPC   C3A33065  20.035  15.818   8.019
 2395POPC   C4A33066  20.412  15.915   7.842
 2395POPC   C1B33067  19.626  15.652   8.965
 2395POPC   C2B33068  19.507  15.483   8.563
 2395POPC   C3B33069  19.511  15.603   8.115
 2395POPC   C4B33070  19.643  15.618   7.690
 2396POPC   NC333071  21.918  28.922   9.436
 2396POPC   PO433072  22.352  29.328   9.641
 2396POPC   GL133073  22.422  29.234   9.222
 2396POPC   GL233074  22.414  28.870   9.238
 2396POPC   C1A33075  22.209  29.238   8.807
 2396POPC   D2A33076  22.210  29.044   8.382
 2396POPC   C3A33077  22.152  29.345   8.039
 2396POPC   C4A33078  22.087  29.518   7.610
 2396POPC   C1B33079  22.434  28.757   8.807
 2396POPC   C2B33080  22.381  28.479   8.448
 2396POPC   C3B33081  22.498  28.595   8.033
 2396POPC   C4B33082  22.223  28.864   7.857
 2397POPC   NC333083  25.853  43.372   9.538
 2397POPC   PO433084  26.261  42.854   9.478
 2397POPC   GL133085  26.052  43.074   9.131
 2397POPC   GL233086  25.670  43.024   9.124
 2397POPC   C1A33087  25.956  42.918   8.708
 2397POPC   D2A33088  25.830  42.690   8.323
 2397POPC   C3A33089  26.096  42.903   8.026
 2397POPC   C4A33090  26.043  43.366   7.878
 2397POPC   C1B33091  25.596  43.288   8.730
 2397POPC   C2B33092  25.768  43.192   8.313
 2397POPC   C3B33093  25.622  43.059   7.893
 2397POPC   C4B33094  25.628  43.304   7.484
 2398POPC   NC333095  30.117  13.888   9.764
 2398POPC   PO433096  29.617  13.541   9.491
 2398POPC   GL133097  29.846  13.465   9.150
 2398POPC   GL233098  29.624  13.247   8.962
 2398POPC   C1A33099  30.125  13.457   8.810
 2398POPC   D2A33100  30.206  13.617   8.389
 2398POPC   C3A33101  29.973  13.577   7.981
 2398POPC   C4A33102  30.044  13.719   7.513
 2398POPC   C1B33103  29.566  13.620   8.761
 2398POPC   C2B33104  29.686  13.702   8.370
 2398POPC   C3B33105  29.469  13.685   7.961
 2398POPC   C4B33106  29.518  13.641   7.506
 2399POPC   NC333107   2.996  12.863   9.361
 2399POPC   PO433108   2.563  12.284   9.206
 2399POPC   GL133109   2.753  12.574   8.998
 2399POPC   GL233110   2.551  12.853   9.026
 2399POPC   C1A33111   2.831  12.766   8.611
 2399POPC   D2A33112   2.662  12.978   8.262
 2399POPC   C3A33113   2.797  12.754   7.896
 2399POPC   C4A33114   2.937  12.724   7.446
 2399POPC   C1B33115   2.292  13.000   8.690
 2399POPC   C2B33116   2.182  13.210   8.294
 2399POPC   C3B33117   2.441  13.330   7.922
 2399POPC   C4B33118   2.698  13.159   7.581
 2400POPC   NC333119  27.919  21.988   9.545
 2400POPC   PO433120  27.329  22.318   9.350
 2400POPC   GL133121  27.543  21.977   9.177
 2400POPC   GL233122  27.242  21.734   9.162
 2400POPC   C1A33123  27.742  22.042   8.756
 2400POPC   D2A33124  27.798  22.016   8.298
 2400POPC   C3A33125  27.550  22.333   8.009
 2400POPC   C4A33126  27.500  22.305   7.548
 2400POPC   C1B33127  27.224  21.992   8.792
 2400POPC   C2B33128  27.328  22.181   8.447
 2400POPC   C3B33129  27.321  21.877   8.142
 2400POPC   C4B33130  27.223  21.932   7.752
 2401POPC   NC333131  19.460   3.848   9.464
 2401POPC   PO433132  18.863   3.515   9.505
 2401POPC   GL133133  18.984   3.434   9.072
 2401POPC   GL233134  19.342   3.506   9.069
 2401POPC   C1A33135  19.062   3.566   8.644
 2401POPC   D2A33136  18.852   3.590   8.244
 2401POPC   C3A33137  19.115   3.399   7.919
 2401POPC   C4A33138  19.320   3.527   7.536
 2401POPC   C1B33139  19.428   3.890   8.835
 2401POPC   C2B33140  19.400   3.923   8.420
 2401POPC   C3B33141  19.394   3.828   8.015
 2401POPC   C4B33142  19.413   4.047   7.628
 2402POPC   NC333143  22.752   8.690   9.605
 2402POPC   PO433144  23.044   9.281   9.698
 2402POPC   GL133145  22.805   9.099   9.270
 2402POPC   GL233146  22.801   8.755   9.112
 2402POPC   C1A33147  22.714   9.126   8.779
 2402POPC   D2A33148  22.867   9.175   8.321
 2402POPC   C3A33149  22.742   9.186   7.852
 2402POPC   C4A33150  22.910   9.260   7.437
 2402POPC   C1B33151  22.571   8.622   8.740
 2402POPC   C2B33152  22.424   8.827   8.366
 2402POPC   C3B33153  22.621   8.719   7.988
 2402POPC   C4B33154  22.861   8.731   7.590
 2403POPC   NC333155  29.856  12.575   9.752
 2403POPC   PO433156  29.960  11.962   9.531
 2403POPC   GL133157  29.772  12.045   9.138
 2403POPC   GL233158  30.131  12.070   9.027
 2403POPC   C1A33159  29.736  11.894   8.700
 2403POPC   D2A33160  30.137  11.915   8.481
 2403POPC   C3A33161  30.060  11.876   8.068
 2403POPC   C4A33162  29.675  12.051   7.921
 2403POPC   C1B33163  29.965  12.347   8.745
 2403POPC   C2B33164  29.986  12.503   8.353
 2403POPC   C3B33165  30.073  12.375   7.933
 2403POPC   C4B33166  29.966  12.428   7.523
 2404POPC   NC333167  10.853  29.245   9.474
 2404POPC   PO433168  10.212  29.230   9.703
 2404POPC   GL133169  10.369  29.358   9.299
 2404POPC   GL233170  10.409  28.994   9.246
 2404POPC   C1A33171  10.550  29.346   8.856
 2404POPC   D2A33172  10.646  29.103   8.434
 2404POPC   C3A33173  10.586  29.273   8.006
 2404POPC   C4A33174  10.195  29.244   7.741
 2404POPC   C1B33175  10.542  28.830   8.854
 2404POPC   C2B33176  10.717  28.570   8.534
 2404POPC   C3B33177  10.754  28.679   8.110
 2404POPC   C4B33178  10.482  28.805   7.766
 2405POPC   NC333179  21.817   0.167   9.463
 2405POPC   PO433180  22.192  44.532   9.491
 2405POPC   GL133181  22.109  44.748   9.140
 2405POPC   GL233182  22.319   0.047   9.219
 2405POPC   C1A33183  22.010  44.604   8.714
 2405POPC   D2A33184  22.127  44.399   8.323
 2405POPC   C3A33185  21.936  44.649   8.038
 2405POPC   C4A33186  22.160  44.891   7.837
 2405POPC   C1B33187  22.396  44.970   8.788
 2405POPC   C2B33188  22.305  44.879   8.360
 2405POPC   C3B33189  22.601  44.987   8.053
 2405POPC   C4B33190  22.530   0.094   7.577
 2406POPC   NC333191   2.904  16.313   9.501
 2406POPC   PO433192   2.685  15.720   9.599
 2406POPC   GL133193   2.790  15.860   9.168
 2406POPC   GL233194   3.102  16.042   9.089
 2406POPC   C1A33195   2.705  16.062   8.750
 2406POPC   D2A33196   2.586  16.229   8.323
 2406POPC   C3A33197   2.603  15.965   7.943
 2406POPC   C4A33198   2.922  15.999   7.606
 2406POPC   C1B33199   3.118  15.746   8.719
 2406POPC   C2B33200   2.958  15.786   8.293
 2406POPC   C3B33201   3.032  15.526   7.915
 2406POPC   C4B33202   2.925  15.510   7.451
 2407POPC   NC333203  21.781  16.416   9.544
 2407POPC   PO433204  22.371  16.759   9.709
 2407POPC   GL133205  22.224  16.731   9.279
 2407POPC   GL233206  22.488  16.593   9.107
 2407POPC   C1A33207  21.977  16.638   8.897
 2407POPC   D2A33208  22.071  16.476   8.477
 2407POPC   C3A33209  22.047  16.660   8.071
 2407POPC   C4A33210  21.948  16.485   7.643
 2407POPC   C1B33211  22.415  16.781   8.725
 2407POPC   C2B33212  22.513  16.742   8.351
 2407POPC   C3B33213  22.457  17.000   8.044
 2407POPC   C4B33214  22.380  16.797   7.713
 2408POPC   NC333215  42.156  24.089   9.413
 2408POPC   PO433216  42.392  24.705   9.491
 2408POPC   GL133217  42.590  24.547   9.136
 2408POPC   GL233218  42.570  24.179   9.119
 2408POPC   C1A33219  42.706  24.474   8.722
 2408POPC   D2A33220  42.483  24.211   8.417
 2408POPC   C3A33221  42.603  24.410   8.047
 2408POPC   C4A33222  42.631  24.578   7.652
 2408POPC   C1B33223  42.202  24.339   8.828
 2408POPC   C2B33224  41.996  24.343   8.421
 2408POPC   C3B33225  42.098  24.411   8.042
 2408POPC   C4B33226  42.134  24.626   7.672
 2409POPC   NC333227  40.169  43.676   9.461
 2409POPC   PO433228  39.734  44.246   9.583
 2409POPC   GL133229  39.902  44.288   9.144
 2409POPC   GL233230  39.998  43.962   9.085
 2409POPC   C1A33231  39.811  44.201   8.676
 2409POPC   D2A33232  39.864  43.876   8.318
 2409POPC   C3A33233  39.823  44.068   7.950
 2409POPC   C4A33234  39.946  43.927   7.564
 2409POPC   C1B33235  40.189  43.812   8.726
 2409POPC   C2B33236  40.324  43.613   8.350
 2409POPC   C3B33237  40.180  43.672   7.938
 2409POPC   C4B33238  40.443  43.782   7.591
 2410POPC   NC333239  17.348  42.753   9.812
 2410POPC   PO433240  17.644  42.240   9.529
 2410POPC   GL133241  17.561  42.066   9.189
 2410POPC   GL233242  17.347  42.315   9.091
 2410POPC   C1A33243  17.549  41.955   8.773
 2410POPC   D2A33244  17.731  42.123   8.390
 2410POPC   C3A33245  17.576  41.994   7.988
 2410POPC   C4A33246  17.700  42.107   7.576
 2410POPC   C1B33247  17.270  42.397   8.671
 2410POPC   C2B33248  17.280  42.427   8.263
 2410POPC   C3B33249  17.369  42.730   8.015
 2410POPC   C4B33250  17.381  42.491   7.666
 2411POPC   NC333251  10.766  41.311   9.617
 2411POPC   PO433252  10.621  41.829   9.166
 2411POPC   GL133253  10.593  41.505   8.873
 2411POPC   GL233254  10.664  41.186   9.064
 2411POPC   C1A33255  10.393  41.699   8.524
 2411POPC   D2A33256  10.266  41.731   8.111
 2411POPC   C3A33257  10.617  41.674   7.829
 2411POPC   C4A33258  10.835  41.354   7.635
 2411POPC   C1B33259  10.489  41.045   8.688
 2411POPC   C2B33260  10.475  41.259   8.275
 2411POPC   C3B33261  10.390  41.217   7.862
 2411POPC   C4B33262  10.128  40.906   7.841
 2412POPC   NC333263  27.351  40.299   9.696
 2412POPC   PO433264  27.932  39.909   9.468
 2412POPC   GL133265  27.827  39.997   9.089
 2412POPC   GL233266  27.551  40.212   9.214
 2412POPC   C1A33267  27.819  39.879   8.692
 2412POPC   D2A33268  27.767  40.105   8.342
 2412POPC   C3A33269  27.823  39.865   8.008
 2412POPC   C4A33270  27.469  39.774   7.774
 2412POPC   C1B33271  27.408  40.154   8.801
 2412POPC   C2B33272  27.270  40.035   8.406
 2412POPC   C3B33273  27.394  40.234   8.019
 2412POPC   C4B33274  27.274  40.197   7.616
 2413POPC   NC333275  40.095  18.022   9.662
 2413POPC   PO433276  40.282  17.517   9.339
 2413POPC   GL133277  40.172  17.562   8.987
 2413POPC   GL233278  40.020  17.875   9.023
 2413POPC   C1A33279  40.084  17.326   8.648
 2413POPC   D2A33280  40.046  17.123   8.260
 2413POPC   C3A33281  40.220  17.315   7.878
 2413POPC   C4A33282  39.956  17.226   7.553
 2413POPC   C1B33283  40.036  17.853   8.598
 2413POPC   C2B33284  40.134  17.682   8.237
 2413POPC   C3B33285  39.813  17.580   7.985
 2413POPC   C4B33286  39.594  17.882   7.823
 2414POPC   NC333287  34.590   4.539   9.513
 2414POPC   PO433288  34.372   5.174   9.524
 2414POPC   GL133289  34.550   5.084   9.124
 2414POPC   GL233290  34.572   4.748   9.065
 2414POPC   C1A33291  34.639   5.047   8.674
 2414POPC   D2A33292  34.744   5.253   8.340
 2414POPC   C3A33293  34.475   5.104   8.099
 2414POPC   C4A33294  34.363   5.173   7.743
 2414POPC   C1B33295  34.587   4.512   8.703
 2414POPC   C2B33296  34.535   4.616   8.286
 2414POPC   C3B33297  34.420   4.622   7.868
 2414POPC   C4B33298  34.654   4.812   7.554
 2415POPC   NC333299  37.007  15.697   9.281
 2415POPC   PO433300  36.620  16.150   9.606
 2415POPC   GL133301  36.816  16.162   9.228
 2415POPC   GL233302  36.601  15.914   9.106
 2415POPC   C1A33303  36.833  16.164   8.754
 2415POPC   D2A33304  36.883  15.822   8.463
 2415POPC   C3A33305  36.924  15.937   8.044
 2415POPC   C4A33306  37.173  15.769   7.697
 2415POPC   C1B33307  36.499  15.595   8.816
 2415POPC   C2B33308  36.491  15.512   8.400
 2415POPC   C3B33309  36.465  15.728   8.035
 2415POPC   C4B33310  36.662  15.706   7.639
 2416POPC   NC333311  32.985  21.737   9.352
 2416POPC   PO433312  33.269  21.194   9.701
 2416POPC   GL133313  33.152  21.228   9.233
 2416POPC   GL233314  32.795  21.306   9.103
 2416POPC   C1A33315  33.159  21.206   8.753
 2416POPC   D2A33316  32.878  21.137   8.407
 2416POPC   C3A33317  33.002  21.283   7.975
 2416POPC   C4A33318  33.344  21.372   7.683
 2416POPC   C1B33319  32.768  21.572   8.698
 2416POPC   C2B33320  32.890  21.697   8.265
 2416POPC   C3B33321  32.669  21.688   7.849
 2416POPC   C4B33322  32.732  21.669   7.397
 2417POPC   NC333323  28.734  20.571   9.199
 2417POPC   PO433324  28.021  20.590   9.288
 2417POPC   GL133325  28.226  20.759   8.948
 2417POPC   GL233326  28.413  21.025   9.117
 2417POPC   C1A33327  28.491  20.590   8.607
 2417POPC   D2A33328  28.683  20.412   8.266
 2417POPC   C3A33329  28.636  20.559   7.885
 2417POPC   C4A33330  28.298  20.603   7.572
 2417POPC   C1B33331  28.548  21.096   8.702
 2417POPC   C2B33332  28.243  20.984   8.400
 2417POPC   C3B33333  28.256  20.862   8.006
 2417POPC   C4B33334  28.604  21.018   7.685
 2418POPC   NC333335  44.340  18.893   9.505
 2418POPC   PO433336  44.727  19.410   9.442
 2418POPC   GL133337  44.753  19.023   9.191
 2418POPC   GL233338   0.068  18.826   9.219
 2418POPC   C1A33339  44.555  18.914   8.807
 2418POPC   D2A33340  44.418  18.761   8.408
 2418POPC   C3A33341  44.542  19.066   8.079
 2418POPC   C4A33342  44.516  19.009   7.631
 2418POPC   C1B33343   0.070  18.705   8.807
 2418POPC   C2B33344  44.916  18.809   8.416
 2418POPC   C3B33345  44.768  18.612   8.045
 2418POPC   C4B33346  44.952  18.739   7.669
 2419POPC   NC333347  40.022   0.541   9.538
 2419POPC   PO433348  39.452   0.198   9.635
 2419POPC   GL133349  39.640   0.433   9.189
 2419POPC   GL233350  40.060   0.435   9.049
 2419POPC   C1A33351  39.664   0.329   8.755
 2419POPC   D2A33352  40.024   0.307   8.523
 2419POPC   C3A33353  39.986   0.393   8.099
 2419POPC   C4A33354  40.158   0.262   7.722
 2419POPC   C1B33355  40.303   0.675   8.749
 2419POPC   C2B33356  40.178   0.818   8.321
 2419POPC   C3B33357  40.161   0.817   7.868
 2419POPC   C4B33358  40.035   0.693   7.444
 2420POPC   NC333359  38.139  13.514   9.424
 2420POPC   PO433360  37.473  13.786   9.421
 2420POPC   GL133361  37.579  13.791   9.038
 2420POPC   GL233362  37.718  13.447   9.090
 2420POPC   C1A33363  37.371  13.652   8.676
 2420POPC   D2A33364  37.458  13.477   8.343
 2420POPC   C3A33365  37.675  13.731   8.125
 2420POPC   C4A33366  37.573  13.737   7.712
 2420POPC   C1B33367  37.864  13.549   8.674
 2420POPC   C2B33368  37.948  13.292   8.316
 2420POPC   C3B33369  37.753  13.280   7.903
 2420POPC   C4B33370  37.918  13.380   7.450
 2421POPC   NC333371   9.185  25.826   9.364
 2421POPC   PO433372   9.805  26.076   9.537
 2421POPC   GL133373   9.727  26.071   9.123
 2421POPC   GL233374   9.389  26.187   9.046
 2421POPC   C1A33375   9.859  26.149   8.737
 2421POPC   D2A33376   9.620  26.151   8.390
 2421POPC   C3A33377   9.861  26.099   8.069
 2421POPC   C4A33378   9.743  26.206   7.722
 2421POPC   C1B33379   9.429  25.812   8.741
 2421POPC   C2B33380   9.552  25.636   8.313
 2421POPC   C3B33381   9.438  25.831   7.905
 2421POPC   C4B33382   9.181  25.835   7.507
 2422POPC   NC333383  34.918  33.975   9.406
 2422POPC   PO433384  34.601  33.462   9.517
 2422POPC   GL133385  34.526  33.704   9.152
 2422POPC   GL233386  34.219  33.575   9.070
 2422POPC   C1A33387  34.713  33.869   8.780
 2422POPC   D2A33388  34.744  33.667   8.382
 2422POPC   C3A33389  34.666  33.947   8.058
 2422POPC   C4A33390  34.783  34.059   7.639
 2422POPC   C1B33391  34.237  33.736   8.699
 2422POPC   C2B33392  34.030  33.659   8.364
 2422POPC   C3B33393  34.051  33.935   8.107
 2422POPC   C4B33394  34.273  33.923   7.755
 2423POPC   NC333395  37.574  20.732   9.492
 2423POPC   PO433396  38.218  20.563   9.520
 2423POPC   GL133397  37.954  20.647   9.170
 2423POPC   GL233398  37.781  20.355   9.119
 2423POPC   C1A33399  37.765  20.774   8.771
 2423POPC   D2A33400  37.632  20.619   8.325
 2423POPC   C3A33401  37.972  20.536   8.028
 2423POPC   C4A33402  38.035  20.726   7.617
 2423POPC   C1B33403  37.562  20.318   8.738
 2423POPC   C2B33404  37.214  20.336   8.483
 2423POPC   C3B33405  37.194  20.258   8.030
 2423POPC   C4B33406  37.325  20.183   7.587
 2424POPC   NC333407  30.755  31.695   9.611
 2424POPC   PO433408  30.203  31.403   9.331
 2424POPC   GL133409  30.595  31.429   9.122
 2424POPC   GL233410  30.778  31.760   9.091
 2424POPC   C1A33411  30.466  31.453   8.682
 2424POPC   D2A33412  30.552  31.667   8.310
 2424POPC   C3A33413  30.669  31.495   7.951
 2424POPC   C4A33414  30.396  31.551   7.670
 2424POPC   C1B33415  30.947  31.656   8.672
 2424POPC   C2B33416  30.871  31.289   8.389
 2424POPC   C3B33417  31.084  31.216   7.976
 2424POPC   C4B33418  30.910  31.136   7.546
 2425POPC   NC333419  41.453  22.187   9.684
 2425POPC   PO433420  42.085  22.293   9.614
 2425POPC   GL133421  41.775  22.426   9.259
 2425POPC   GL233422  41.452  22.222   9.187
 2425POPC   C1A33423  41.786  22.268   8.807
 2425POPC   D2A33424  41.586  21.986   8.463
 2425POPC   C3A33425  41.550  22.161   8.018
 2425POPC   C4A33426  41.860  22.508   7.927
 2425POPC   C1B33427  41.258  22.293   8.801
 2425POPC   C2B33428  41.137  22.245   8.394
 2425POPC   C3B33429  41.153  21.872   8.188
 2425POPC   C4B33430  41.262  21.788   7.796
 2426POPC   NC333431  24.888   6.012   9.496
 2426POPC   PO433432  24.527   5.408   9.550
 2426POPC   GL133433  24.435   5.709   9.204
 2426POPC   GL233434  24.703   5.889   9.055
 2426POPC   C1A33435  24.206   5.812   8.795
 2426POPC   D2A33436  24.208   6.009   8.367
 2426POPC   C3A33437  24.487   5.822   8.071
 2426POPC   C4A33438  24.485   5.695   7.653
 2426POPC   C1B33439  24.621   6.117   8.690
 2426POPC   C2B33440  24.699   6.292   8.272
 2426POPC   C3B33441  24.537   6.264   7.866
 2426POPC   C4B33442  24.642   6.121   7.482
 2427POPC   NC333443  22.363   8.359   9.314
 2427POPC   PO433444  21.953   7.838   9.495
 2427POPC   GL133445  22.144   7.950   9.084
 2427POPC   GL233446  21.940   8.243   9.064
 2427POPC   C1A33447  22.192   8.111   8.627
 2427POPC   D2A33448  22.441   8.309   8.266
 2427POPC   C3A33449  22.328   8.245   7.824
 2427POPC   C4A33450  22.317   7.962   7.444
 2427POPC   C1B33451  21.694   7.974   8.801
 2427POPC   C2B33452  21.779   7.836   8.392
 2427POPC   C3B33453  21.912   8.027   8.030
 2427POPC   C4B33454  21.868   8.187   7.611
 2428POPC   NC333455  30.160  41.495   9.526
 2428POPC   PO433456  29.751  41.953   9.320
 2428POPC   GL133457  30.076  41.767   9.086
 2428POPC   GL233458  30.052  41.405   9.048
 2428POPC   C1A33459  30.076  41.746   8.675
 2428POPC   D2A33460  30.061  41.567   8.308
 2428POPC   C3A33461  29.918  41.762   7.965
 2428POPC   C4A33462  30.145  41.719   7.568
 2428POPC   C1B33463  30.005  41.206   8.672
 2428POPC   C2B33464  30.005  41.058   8.248
 2428POPC   C3B33465  30.066  41.278   7.863
 2428POPC   C4B33466  30.450  41.294   7.626
 2429POPC   NC333467  35.603  38.051   9.367
 2429POPC   PO433468  35.290  37.571   9.609
 2429POPC   GL133469  35.156  37.566   9.175
 2429POPC   GL233470  35.331  37.853   8.993
 2429POPC   C1A33471  35.253  37.400   8.759
 2429POPC   D2A33472  35.094  37.513   8.348
 2429POPC   C3A33473  35.317  37.809   8.083
 2429POPC   C4A33474  35.241  37.832   7.637
 2429POPC   C1B33475  35.676  37.866   8.662
 2429POPC   C2B33476  35.815  37.946   8.205
 2429POPC   C3B33477  35.670  38.196   7.814
 2429POPC   C4B33478  35.579  38.071   7.351
 2430POPC   NC333479  28.512  36.824   9.699
 2430POPC   PO433480  28.149  37.369   9.622
 2430POPC   GL133481  28.261  37.253   9.207
 2430POPC   GL233482  28.418  36.931   9.187
 2430POPC   C1A33483  28.460  37.391   8.814
 2430POPC   D2A33484  28.345  37.280   8.390
 2430POPC   C3A33485  28.542  37.195   8.003
 2430POPC   C4A33486  28.373  37.084   7.583
 2430POPC   C1B33487  28.179  36.956   8.777
 2430POPC   C2B33488  28.104  36.796   8.349
 2430POPC   C3B33489  28.301  36.732   7.961
 2430POPC   C4B33490  28.191  36.593   7.569
 2431POPC   NC333491  21.011  35.335   9.543
 2431POPC   PO433492  21.452  34.947   9.517
 2431POPC   GL133493  21.424  35.239   9.166
 2431POPC   GL233494  21.531  35.564   9.142
 2431POPC   C1A33495  21.371  35.314   8.698
 2431POPC   D2A33496  21.460  35.565   8.296
 2431POPC   C3A33497  21.255  35.456   7.876
 2431POPC   C4A33498  20.998  35.148   7.613
 2431POPC   C1B33499  21.788  35.582   8.721
 2431POPC   C2B33500  21.955  35.658   8.290
 2431POPC   C3B33501  21.871  35.607   7.834
 2431POPC   C4B33502  21.535  35.706   7.537
 2432POPC   NC333503   4.764  16.988   9.395
 2432POPC   PO433504   5.407  16.709   9.496
 2432POPC   GL133505   5.179  16.787   9.154
 2432POPC   GL233506   4.922  16.527   9.178
 2432POPC   C1A33507   5.094  16.977   8.773
 2432POPC   D2A33508   4.922  16.805   8.397
 2432POPC   C3A33509   4.914  17.013   8.035
 2432POPC   C4A33510   5.105  16.895   7.643
 2432POPC   C1B33511   4.974  16.379   8.749
 2432POPC   C2B33512   4.800  16.304   8.324
 2432POPC   C3B33513   4.937  16.495   7.934
 2432POPC   C4B33514   4.919  16.465   7.458
 2433POPC   NC333515  23.016  21.762   9.443
 2433POPC   PO433516  23.150  21.137   9.656
 2433POPC   GL133517  23.228  21.315   9.272
 2433POPC   GL233518  22.912  21.285   9.114
 2433POPC   C1A33519  23.365  21.390   8.856
 2433POPC   D2A33520  23.551  21.152   8.533
 2433POPC   C3A33521  23.317  21.282   8.174
 2433POPC   C4A33522  23.167  21.386   7.764
 2433POPC   C1B33523  22.746  21.426   8.738
 2433POPC   C2B33524  22.831  21.192   8.371
 2433POPC   C3B33525  22.617  21.141   8.029
 2433POPC   C4B33526  22.560  21.450   7.737
 2434POPC   NC333527  23.468  40.500   9.659
 2434POPC   PO433528  23.869  40.958   9.567
 2434POPC   GL133529  23.685  40.895   9.192
 2434POPC   GL233530  23.766  40.546   9.222
 2434POPC   C1A33531  23.577  40.750   8.777
 2434POPC   D2A33532  23.887  40.725   8.483
 2434POPC   C3A33533  23.785  40.951   8.124
 2434POPC   C4A33534  23.870  40.995   7.694
 2434POPC   C1B33535  23.903  40.348   8.843
 2434POPC   C2B33536  23.578  40.230   8.551
 2434POPC   C3B33537  23.539  40.494   8.192
 2434POPC   C4B33538  23.516  40.635   7.778
 2435POPC   NC333539  20.227   9.513   9.502
 2435POPC   PO433540  20.830   9.757   9.562
 2435POPC   GL133541  20.549   9.833   9.205
 2435POPC   GL233542  20.541   9.504   9.108
 2435POPC   C1A33543  20.362   9.909   8.790
 2435POPC   D2A33544  20.584   9.946   8.417
 2435POPC   C3A33545  20.429   9.765   8.068
 2435POPC   C4A33546  20.455  10.012   7.691
 2435POPC   C1B33547  20.760   9.614   8.749
 2435POPC   C2B33548  20.862   9.507   8.287
 2435POPC   C3B33549  20.856   9.620   7.828
 2435POPC   C4B33550  20.855   9.438   7.353
 2436POPC   NC333551   0.198  31.718   9.473
 2436POPC   PO433552   0.782  31.353   9.521
 2436POPC   GL133553   0.623  31.513   9.152
 2436POPC   GL233554   0.326  31.295   9.176
 2436POPC   C1A33555   0.631  31.320   8.735
 2436POPC   D2A33556   0.449  31.145   8.376
 2436POPC   C3A33557   0.470  31.333   8.005
 2436POPC   C4A33558   0.718  31.551   7.729
 2436POPC   C1B33559   0.166  31.501   8.834
 2436POPC   C2B33560   0.298  31.649   8.426
 2436POPC   C3B33561   0.054  31.740   8.068
 2436POPC   C4B33562   0.194  31.599   7.669
 2437POPC   NC333563  13.120  27.598   9.534
 2437POPC   PO433564  13.808  27.412   9.459
 2437POPC   GL133565  13.490  27.579   9.138
 2437POPC   GL233566  13.281  27.906   9.146
 2437POPC   C1A33567  13.635  27.546   8.713
 2437POPC   D2A33568  13.969  27.624   8.396
 2437POPC   C3A33569  13.774  27.570   7.981
 2437POPC   C4A33570  13.421  27.285   7.872
 2437POPC   C1B33571  13.189  27.813   8.740
 2437POPC   C2B33572  13.236  27.586   8.369
 2437POPC   C3B33573  13.263  27.770   7.972
 2437POPC   C4B33574  13.482  27.804   7.612
 2438POPC   NC333575  25.111  20.365   9.494
 2438POPC   PO433576  25.086  21.001   9.507
 2438POPC   GL133577  25.146  20.736   9.121
 2438POPC   GL233578  25.456  20.608   9.120
 2438POPC   C1A33579  25.124  20.361   8.789
 2438POPC   D2A33580  25.072  20.180   8.367
 2438POPC   C3A33581  25.132  20.494   8.032
 2438POPC   C4A33582  25.263  20.553   7.596
 2438POPC   C1B33583  25.637  20.403   8.767
 2438POPC   C2B33584  25.555  20.432   8.333
 2438POPC   C3B33585  25.621  20.328   7.891
 2438POPC   C4B33586  25.467  20.059   7.550
 2439POPC   NC333587  22.207  27.180   9.493
 2439POPC   PO433588  22.496  27.726   9.528
 2439POPC   GL133589  22.362  27.637   9.089
 2439POPC   GL233590  22.429  27.303   9.017
 2439POPC   C1A33591  22.012  27.529   8.774
 2439POPC   D2A33592  21.938  27.372   8.334
 2439POPC   C3A33593  21.795  27.713   8.040
 2439POPC   C4A33594  21.808  28.004   7.678
 2439POPC   C1B33595  22.478  27.435   8.556
 2439POPC   C2B33596  22.513  27.299   8.102
 2439POPC   C3B33597  22.457  27.437   7.673
 2439POPC   C4B33598  22.567  27.283   7.237
 2440POPC   NC333599   2.540  39.772   9.431
 2440POPC   PO433600   3.050  39.810   9.707
 2440POPC   GL133601   2.998  40.030   9.240
 2440POPC   GL233602   2.666  40.212   9.151
 2440POPC   C1A33603   3.009  40.186   8.751
 2440POPC   D2A33604   2.739  40.269   8.337
 2440POPC   C3A33605   2.813  40.157   7.924
 2440POPC   C4A33606   3.017  39.779   7.723
 2440POPC   C1B33607   2.495  40.040   8.743
 2440POPC   C2B33608   2.404  39.886   8.279
 2440POPC   C3B33609   2.503  39.763   7.824
 2440POPC   C4B33610   2.360  39.903   7.407
 2441POPC   NC333611  44.517  10.515   9.488
 2441POPC   PO433612   0.170  10.549   9.538
 2441POPC   GL133613  44.943  10.442   9.187
 2441POPC   GL233614  44.862  10.789   9.207
 2441POPC   C1A33615  44.881  10.190   8.812
 2441POPC   D2A33616  44.715  10.143   8.398
 2441POPC   C3A33617  44.936  10.374   8.110
 2441POPC   C4A33618  44.767  10.391   7.710
 2441POPC   C1B33619  44.619  10.735   8.854
 2441POPC   C2B33620  44.573  10.642   8.431
 2441POPC   C3B33621  44.578  10.763   8.010
 2441POPC   C4B33622  44.279  10.915   7.727
 2442POPC   NC333623  33.279  29.809   9.652
 2442POPC   PO433624  32.781  30.180   9.554
 2442POPC   GL133625  32.907  29.984   9.199
 2442POPC   GL233626  33.133  29.713   9.171
 2442POPC   C1A33627  33.083  30.093   8.806
 2442POPC   D2A33628  32.977  29.937   8.412
 2442POPC   C3A33629  33.143  30.187   8.092
 2442POPC   C4A33630  32.917  30.087   7.750
 2442POPC   C1B33631  32.844  29.615   8.824
 2442POPC   C2B33632  32.559  29.614   8.454
 2442POPC   C3B33633  32.559  29.531   7.989
 2442POPC   C4B33634  32.936  29.562   7.716
 2443POPC   NC333635  34.419  43.872   9.518
 2443POPC   PO433636  35.049  43.919   9.529
 2443POPC   GL133637  34.721  43.855   9.117
 2443POPC   GL233638  34.390  43.629   9.065
 2443POPC   C1A33639  34.550  43.857   8.658
 2443POPC   D2A33640  34.534  44.066   8.294
 2443POPC   C3A33641  34.488  43.916   7.854
 2443POPC   C4A33642  34.622  44.046   7.400
 2443POPC   C1B33643  34.070  43.666   8.755
 2443POPC   C2B33644  34.034  43.756   8.335
 2443POPC   C3B33645  34.098  43.543   7.968
 2443POPC   C4B33646  34.258  43.570   7.570
 2444POPC   NC333647  27.953   1.892   9.541
 2444POPC   PO433648  27.305   2.163   9.384
 2444POPC   GL133649  27.596   1.948   9.203
 2444POPC   GL233650  27.829   2.201   9.136
 2444POPC   C1A33651  27.694   1.823   8.816
 2444POPC   D2A33652  27.599   2.131   8.497
 2444POPC   C3A33653  27.480   1.934   8.119
 2444POPC   C4A33654  27.656   1.970   7.728
 2444POPC   C1B33655  28.045   2.193   8.739
 2444POPC   C2B33656  28.014   2.401   8.351
 2444POPC   C3B33657  28.061   2.309   7.915
 2444POPC   C4B33658  27.834   2.440   7.566
 2445POPC   NC333659   9.246  26.578   9.532
 2445POPC   PO433660   8.858  27.073   9.561
 2445POPC   GL133661   9.023  26.883   9.182
 2445POPC   GL233662   8.698  26.726   9.119
 2445POPC   C1A33663   9.251  26.985   8.779
 2445POPC   D2A33664   9.061  26.949   8.353
 2445POPC   C3A33665   9.290  26.956   7.957
 2445POPC   C4A33666   9.107  26.769   7.583
 2445POPC   C1B33667   8.730  27.010   8.758
 2445POPC   C2B33668   8.591  27.140   8.352
 2445POPC   C3B33669   8.760  26.989   7.898
 2445POPC   C4B33670   8.706  27.049   7.395
 2446POPC   NC333671  28.053  40.350   9.367
 2446POPC   PO433672  28.548  39.932   9.654
 2446POPC   GL133673  28.386  39.945   9.215
 2446POPC   GL233674  28.358  40.243   8.988
 2446POPC   C1A33675  28.307  39.791   8.776
 2446POPC   D2A33676  28.264  40.050   8.367
 2446POPC   C3A33677  28.473  40.002   7.937
 2446POPC   C4A33678  28.907  40.145   7.811
 2446POPC   C1B33679  27.999  40.371   8.729
 2446POPC   C2B33680  28.001  40.556   8.336
 2446POPC   C3B33681  28.070  40.364   7.954
 2446POPC   C4B33682  27.778  40.264   7.668
 2447POPC   NC333683  41.815  26.775   9.558
 2447POPC   PO433684  41.203  26.834   9.517
 2447POPC   GL133685  41.375  27.047   9.204
 2447POPC   GL233686  41.738  27.036   9.143
 2447POPC   C1A33687  41.395  26.885   8.796
 2447POPC   D2A33688  41.543  27.033   8.459
 2447POPC   C3A33689  41.399  26.801   8.114
 2447POPC   C4A33690  41.611  26.687   7.732
 2447POPC   C1B33691  41.852  27.268   8.796
 2447POPC   C2B33692  41.871  27.443   8.369
 2447POPC   C3B33693  41.786  27.141   8.037
 2447POPC   C4B33694  41.609  27.204   7.686
 2448POPC   NC333695  33.200  30.458   9.368
 2448POPC   PO433696  32.785  30.963   9.521
 2448POPC   GL133697  32.849  30.808   9.108
 2448POPC   GL233698  32.732  30.476   9.129
 2448POPC   C1A33699  33.057  30.650   8.694
 2448POPC   D2A33700  33.374  30.657   8.317
 2448POPC   C3A33701  33.239  30.689   7.871
 2448POPC   C4A33702  32.946  31.004   7.708
 2448POPC   C1B33703  32.539  30.575   8.759
 2448POPC   C2B33704  32.715  30.404   8.393
 2448POPC   C3B33705  32.750  30.540   7.997
 2448POPC   C4B33706  32.803  30.540   7.576
 2449POPC   NC333707  33.180  28.816   9.716
 2449POPC   PO433708  32.907  29.436   9.590
 2449POPC   GL133709  33.188  29.218   9.303
 2449POPC   GL233710  33.069  28.940   9.100
 2449POPC   C1A33711  33.278  29.310   8.855
 2449POPC   D2A33712  33.175  29.139   8.450
 2449POPC   C3A33713  33.222  29.435   8.118
 2449POPC   C4A33714  33.328  29.220   7.729
 2449POPC   C1B33715  32.752  29.102   8.758
 2449POPC   C2B33716  32.607  29.087   8.326
 2449POPC   C3B33717  32.860  29.103   7.977
 2449POPC   C4B33718  32.890  28.945   7.589
 2450POPC   NC333719  21.922  44.175   9.395
 2450POPC   PO433720  22.487  43.825   9.501
 2450POPC   GL133721  22.271  43.811   9.141
 2450POPC   GL233722  22.348  44.168   9.112
 2450POPC   C1A33723  22.114  43.567   8.769
 2450POPC   D2A33724  22.242  43.578   8.335
 2450POPC   C3A33725  22.182  43.926   8.045
 2450POPC   C4A33726  22.322  43.783   7.651
 2450POPC   C1B33727  22.107  44.079   8.719
 2450POPC   C2B33728  21.762  44.064   8.386
 2450POPC   C3B33729  21.733  44.182   7.959
 2450POPC   C4B33730  22.089  44.323   7.679
 2451POPC   NC333731  20.335  44.737   9.700
 2451POPC   PO433732  19.727  44.547   9.466
 2451POPC   GL133733  19.991  44.663   9.157
 2451POPC   GL233734  20.049   0.021   9.135
 2451POPC   C1A33735  19.938  44.691   8.749
 2451POPC   D2A33736  20.135  44.710   8.402
 2451POPC   C3A33737  19.901  44.806   8.054
 2451POPC   C4A33738  20.092  44.725   7.687
 2451POPC   C1B33739  20.000   0.186   8.694
 2451POPC   C2B33740  20.160   0.207   8.268
 2451POPC   C3B33741  20.110   0.214   7.803
 2451POPC   C4B33742  20.032   0.121   7.344
 2452POPC   NC333743  13.910  40.002   9.419
 2452POPC   PO433744  13.347  40.335   9.497
 2452POPC   GL133745  13.477  40.050   9.144
 2452POPC   GL233746  13.449  39.732   9.178
 2452POPC   C1A33747  13.611  40.093   8.722
 2452POPC   D2A33748  13.606  40.418   8.425
 2452POPC   C3A33749  13.779  40.275   8.059
 2452POPC   C4A33750  13.878  40.102   7.717
 2452POPC   C1B33751  13.293  39.691   8.745
 2452POPC   C2B33752  13.414  39.780   8.289
 2452POPC   C3B33753  13.441  39.782   7.819
 2452POPC   C4B33754  13.471  39.645   7.370
 2453POPC   NC333755  34.439  34.743   9.465
 2453POPC   PO433756  34.471  34.091   9.489
 2453POPC   GL133757  34.579  34.257   9.111
 2453POPC   GL233758  34.897  34.422   9.159
 2453POPC   C1A33759  34.388  34.273   8.715
 2453POPC   D2A33760  34.421  34.598   8.418
 2453POPC   C3A33761  34.497  34.449   8.017
 2453POPC   C4A33762  34.705  34.682   7.701
 2453POPC   C1B33763  35.077  34.251   8.790
 2453POPC   C2B33764  34.843  34.266   8.408
 2453POPC   C3B33765  35.002  34.353   7.972
 2453POPC   C4B33766  35.148  34.484   7.540
 2454POPC   NC333767  19.680  29.385   9.349
 2454POPC   PO433768  20.115  28.888   9.366
 2454POPC   GL133769  19.922  29.049   9.035
 2454POPC   GL233770  19.569  28.968   9.035
 2454POPC   C1A33771  19.866  28.889   8.638
 2454POPC   D2A33772  19.994  29.143   8.371
 2454POPC   C3A33773  19.770  29.062   8.059
 2454POPC   C4A33774  19.877  28.872   7.720
 2454POPC   C1B33775  19.631  29.339   8.712
 2454POPC   C2B33776  19.633  29.511   8.291
 2454POPC   C3B33777  19.945  29.524   7.953
 2454POPC   C4B33778  19.883  29.361   7.527
 2455POPC   NC333779  13.521   2.368   9.734
 2455POPC   PO433780  13.378   2.962   9.573
 2455POPC   GL133781  13.316   2.930   9.131
 2455POPC   GL233782  13.188   2.608   9.024
 2455POPC   C1A33783  13.312   3.074   8.716
 2455POPC   D2A33784  13.372   3.102   8.270
 2455POPC   C3A33785  13.705   2.868   8.037
 2455POPC   C4A33786  13.594   2.521   7.787
 2455POPC   C1B33787  13.555   2.558   8.709
 2455POPC   C2B33788  13.865   2.360   8.402
 2455POPC   C3B33789  14.109   2.378   8.027
 2455POPC   C4B33790  13.932   2.171   7.660
 2456POPC   NC333791  13.174  25.716   9.446
 2456POPC   PO433792  12.799  26.242   9.485
 2456POPC   GL133793  12.898  26.108   9.103
 2456POPC   GL233794  13.040  26.405   9.002
 2456POPC   C1A33795  12.758  25.963   8.707
 2456POPC   D2A33796  12.599  26.059   8.330
 2456POPC   C3A33797  12.868  25.817   8.061
 2456POPC   C4A33798  13.146  25.548   7.813
 2456POPC   C1B33799  12.680  26.451   8.693
 2456POPC   C2B33800  12.700  26.593   8.243
 2456POPC   C3B33801  12.804  26.295   7.921
 2456POPC   C4B33802  12.611  25.995   7.648
 2457POPC   NC333803  13.086  43.445   9.462
 2457POPC   PO433804  12.922  44.146   9.595
 2457POPC   GL133805  12.643  44.146   9.274
 2457POPC   GL233806  12.611  43.761   9.281
 2457POPC   C1A33807  12.784  44.302   8.887
 2457POPC   D2A33808  13.006  44.079   8.588
 2457POPC   C3A33809  12.933  44.168   8.150
 2457POPC   C4A33810  12.838  43.988   7.756
 2457POPC   C1B33811  12.617  43.817   8.847
 2457POPC   C2B33812  12.697  43.680   8.409
 2457POPC   C3B33813  12.898  43.535   8.004
 2457POPC   C4B33814  12.745  43.504   7.569
 2458POPC   NC333815  36.183  16.246   9.766
 2458POPC   PO433816  36.412  16.802   9.755
 2458POPC   GL133817  36.368  16.794   9.248
 2458POPC   GL233818  36.408  16.458   9.133
 2458POPC   C1A33819  36.092  16.777   8.854
 2458POPC   D2A33820  35.841  16.830   8.452
 2458POPC   C3A33821  35.832  16.685   8.002
 2458POPC   C4A33822  35.627  16.779   7.571
 2458POPC   C1B33823  36.510  16.567   8.680
 2458POPC   C2B33824  36.288  16.633   8.281
 2458POPC   C3B33825  36.308  16.715   7.837
 2458POPC   C4B33826  36.407  16.428   7.472
 2459POPC   NC333827  34.448  13.226   9.385
 2459POPC   PO433828  34.622  12.592   9.472
 2459POPC   GL133829  34.530  12.701   9.072
 2459POPC   GL233830  34.281  12.852   9.106
 2459POPC   C1A33831  34.689  12.757   8.675
 2459POPC   D2A33832  34.780  12.470   8.359
 2459POPC   C3A33833  34.676  12.682   8.000
 2459POPC   C4A33834  34.845  12.617   7.592
 2459POPC   C1B33835  34.291  13.083   8.729
 2459POPC   C2B33836  34.428  13.077   8.317
 2459POPC   C3B33837  34.215  13.012   8.004
 2459POPC   C4B33838  34.070  13.279   7.772
 2460POPC   NC333839   8.203  30.956   9.591
 2460POPC   PO433840   8.233  30.369   9.223
 2460POPC   GL133841   8.312  30.778   9.126
 2460POPC   GL233842   7.994  30.854   9.127
 2460POPC   C1A33843   8.309  30.866   8.699
 2460POPC   D2A33844   8.042  30.612   8.424
 2460POPC   C3A33845   8.227  30.521   8.032
 2460POPC   C4A33846   8.312  30.821   7.711
 2460POPC   C1B33847   7.808  30.952   8.755
 2460POPC   C2B33848   7.920  31.205   8.422
 2460POPC   C3B33849   7.927  30.974   8.044
 2460POPC   C4B33850   7.896  31.080   7.642
 2461POPC   NC333851  37.576   3.115   9.469
 2461POPC   PO433852  37.963   3.669   9.424
 2461POPC   GL133853  37.639   3.762   9.095
 2461POPC   GL233854  37.568   3.458   9.076
 2461POPC   C1A33855  37.545   3.721   8.642
 2461POPC   D2A33856  37.621   3.548   8.254
 2461POPC   C3A33857  37.375   3.763   7.975
 2461POPC   C4A33858  37.515   4.057   7.680
 2461POPC   C1B33859  37.931   3.418   8.780
 2461POPC   C2B33860  37.988   3.168   8.405
 2461POPC   C3B33861  37.871   3.203   7.985
 2461POPC   C4B33862  37.769   3.556   7.710
 2462POPC   NC333863   3.862  22.827   9.174
 2462POPC   PO433864   3.315  23.193   9.378
 2462POPC   GL133865   3.437  23.059   9.007
 2462POPC   GL233866   3.662  23.269   8.968
 2462POPC   C1A33867   3.522  22.884   8.612
 2462POPC   D2A33868   3.568  22.734   8.221
 2462POPC   C3A33869   3.410  23.015   7.896
 2462POPC   C4A33870   3.575  22.748   7.585
 2462POPC   C1B33871   3.761  23.335   8.615
 2462POPC   C2B33872   3.790  23.191   8.232
 2462POPC   C3B33873   3.925  23.023   7.875
 2462POPC   C4B33874   3.873  23.213   7.498
 2463POPC   NC333875   4.116   5.165   9.777
 2463POPC   PO433876   4.443   4.606   9.608
 2463POPC   GL133877   4.473   5.035   9.365
 2463POPC   GL233878   4.135   5.212   9.268
 2463POPC   C1A33879   4.465   5.049   8.896
 2463POPC   D2A33880   4.288   4.796   8.544
 2463POPC   C3A33881   4.503   4.951   8.163
 2463POPC   C4A33882   4.669   5.083   7.754
 2463POPC   C1B33883   4.055   5.362   8.864
 2463POPC   C2B33884   4.216   5.315   8.462
 2463POPC   C3B33885   4.358   5.410   8.069
 2463POPC   C4B33886   4.136   5.274   7.747
 2464POPC   NC333887   6.888  35.135   9.462
 2464POPC   PO433888   6.708  34.439   9.474
 2464POPC   GL133889   6.596  34.580   9.059
 2464POPC   GL233890   6.587  34.933   9.115
 2464POPC   C1A33891   6.640  34.418   8.616
 2464POPC   D2A33892   6.620  34.492   8.152
 2464POPC   C3A33893   6.821  34.278   7.805
 2464POPC   C4A33894   6.868  34.156   7.364
 2464POPC   C1B33895   6.794  35.070   8.795
 2464POPC   C2B33896   6.805  34.870   8.429
 2464POPC   C3B33897   6.801  34.999   8.031
 2464POPC   C4B33898   6.633  34.792   7.698
 2465POPC   NC333899  10.510   2.978   9.708
 2465POPC   PO433900  10.649   2.279   9.595
 2465POPC   GL133901  10.426   2.556   9.272
 2465POPC   GL233902  10.513   2.921   9.214
 2465POPC   C1A33903  10.427   2.602   8.815
 2465POPC   D2A33904  10.604   2.470   8.429
 2465POPC   C3A33905  10.541   2.713   8.105
 2465POPC   C4A33906  10.434   2.591   7.700
 2465POPC   C1B33907  10.616   3.142   8.861
 2465POPC   C2B33908  10.618   3.149   8.415
 2465POPC   C3B33909  10.293   3.203   8.101
 2465POPC   C4B33910  10.434   3.087   7.731
 2466POPC   NC333911   6.339   5.600   9.346
 2466POPC   PO433912   6.679   6.151   9.504
 2466POPC   GL133913   6.630   5.924   9.121
 2466POPC   GL233914   6.785   5.619   9.022
 2466POPC   C1A33915   6.465   5.899   8.723
 2466POPC   D2A33916   6.695   5.886   8.367
 2466POPC   C3A33917   6.566   5.850   7.975
 2466POPC   C4A33918   6.569   6.201   7.703
 2466POPC   C1B33919   6.938   5.517   8.633
 2466POPC   C2B33920   6.917   5.465   8.209
 2466POPC   C3B33921   7.044   5.616   7.868
 2466POPC   C4B33922   6.906   5.848   7.553
 2467POPC   NC333923  44.342   4.139   9.621
 2467POPC   PO433924  44.878   4.454   9.612
 2467POPC   GL133925  44.633   4.451   9.237
 2467POPC   GL233926  44.899   4.649   9.125
 2467POPC   C1A33927  44.712   4.275   8.804
 2467POPC   D2A33928  44.926   4.176   8.393
 2467POPC   C3A33929  44.663   4.177   7.989
 2467POPC   C4A33930  44.760   4.035   7.550
 2467POPC   C1B33931  44.824   4.836   8.734
 2467POPC   C2B33932   0.062   4.864   8.403
 2467POPC   C3B33933  44.887   4.624   8.108
 2467POPC   C4B33934  44.606   4.645   7.753
 2468POPC   NC333935  44.428  40.016   9.350
 2468POPC   PO433936  43.795  39.936   9.608
 2468POPC   GL133937  43.769  40.022   9.220
 2468POPC   GL233938  43.592  39.752   9.140
 2468POPC   C1A33939  43.990  40.008   8.851
 2468POPC   D2A33940  44.158  39.692   8.587
 2468POPC   C3A33941  44.063  39.761   8.151
 2468POPC   C4A33942  44.011  40.117   7.822
 2468POPC   C1B33943  43.703  39.559   8.799
 2468POPC   C2B33944  43.742  39.426   8.408
 2468POPC   C3B33945  43.591  39.483   8.021
 2468POPC   C4B33946  43.807  39.657   7.731
 2469POPC   NC333947  34.796  33.051   9.554
 2469POPC   PO433948  34.358  32.603   9.688
 2469POPC   GL133949  34.464  32.769   9.247
 2469POPC   GL233950  34.393  33.112   9.202
 2469POPC   C1A33951  34.775  32.911   8.903
 2469POPC   D2A33952  34.886  32.863   8.433
 2469POPC   C3A33953  34.699  33.026   8.048
 2469POPC   C4A33954  34.317  33.018   7.862
 2469POPC   C1B33955  34.441  33.256   8.758
 2469POPC   C2B33956  34.313  33.232   8.329
 2469POPC   C3B33957  34.418  33.493   7.987
 2469POPC   C4B33958  34.857  33.494   7.862
 2470POPC   NC333959  29.955  40.523   9.646
 2470POPC   PO433960  29.851  41.111   9.509
 2470POPC   GL133961  29.774  40.958   9.098
 2470POPC   GL233962  29.678  40.630   9.195
 2470POPC   C1A33963  29.963  40.704   8.738
 2470POPC   D2A33964  30.190  40.581   8.353
 2470POPC   C3A33965  30.047  40.660   7.928
 2470POPC   C4A33966  30.149  40.874   7.577
 2470POPC   C1B33967  29.455  40.676   8.790
 2470POPC   C2B33968  29.566  40.818   8.365
 2470POPC   C3B33969  29.545  40.610   7.948
 2470POPC   C4B33970  29.695  40.627   7.521
 2471POPC   NC333971  24.341  39.576   9.474
 2471POPC   PO433972  24.545  40.247   9.538
 2471POPC   GL133973  24.363  40.209   9.129
 2471POPC   GL233974  24.459  39.867   9.064
 2471POPC   C1A33975  24.324  40.116   8.654
 2471POPC   D2A33976  24.507  40.010   8.300
 2471POPC   C3A33977  24.266  39.941   7.934
 2471POPC   C4A33978  24.290  40.121   7.513
 2471POPC   C1B33979  24.687  39.684   8.695
 2471POPC   C2B33980  24.846  39.616   8.273
 2471POPC   C3B33981  24.786  39.889   7.893
 2471POPC   C4B33982  24.652  39.763   7.485
 2472POPC   NC333983  43.579  30.463   9.470
 2472POPC   PO433984  44.206  30.669   9.218
 2472POPC   GL133985  43.781  30.809   9.116
 2472POPC   GL233986  43.724  30.508   8.967
 2472POPC   C1A33987  43.676  30.913   8.679
 2472POPC   D2A33988  44.007  30.823   8.386
 2472POPC   C3A33989  43.852  30.774   7.992
 2472POPC   C4A33990  44.068  30.559   7.660
 2472POPC   C1B33991  43.550  30.246   8.636
 2472POPC   C2B33992  43.612  30.329   8.182
 2472POPC   C3B33993  43.598  30.435   7.712
 2472POPC   C4B33994  43.710  30.865   7.484
 2473POPC   NC333995  21.659  22.776   9.515
 2473POPC   PO433996  22.257  23.022   9.531
 2473POPC   GL133997  22.268  22.997   9.129
 2473POPC   GL233998  22.468  23.327   9.160
 2473POPC   C1A33999  22.015  22.793   8.798
 2473POPC   D2A34000  22.050  22.679   8.358
 2473POPC   C3A34001  21.900  22.989   8.064
 2473POPC   C4A34002  21.894  22.831   7.692
 2473POPC   C1B34003  22.487  23.250   8.753
 2473POPC   C2B34004  22.294  23.128   8.404
 2473POPC   C3B34005  22.401  22.891   8.051
 2473POPC   C4B34006  22.330  23.089   7.690
 2474POPC   NC334007  16.707  14.003   9.588
 2474POPC   PO434008  16.447  14.530   9.321
 2474POPC   GL134009  16.711  14.201   9.107
 2474POPC   GL234010  16.493  14.131   8.831
 2474POPC   C1A34011  16.998  14.086   8.748
 2474POPC   D2A34012  16.989  14.089   8.276
 2474POPC   C3A34013  17.080  14.424   7.962
 2474POPC   C4A34014  16.993  14.397   7.513
 2474POPC   C1B34015  16.711  14.489   8.590
 2474POPC   C2B34016  16.689  14.690   8.178
 2474POPC   C3B34017  16.577  14.559   7.800
 2474POPC   C4B34018  16.643  14.168   7.888
 2475POPC   NC334019  12.241  40.528   9.597
 2475POPC   PO434020  11.798  41.034   9.558
 2475POPC   GL134021  11.973  40.819   9.203
 2475POPC   GL234022  12.314  40.739   9.147
 2475POPC   C1A34023  12.154  41.076   8.813
 2475POPC   D2A34024  12.270  40.993   8.378
 2475POPC   C3A34025  11.902  40.890   8.139
 2475POPC   C4A34026  11.840  40.823   7.684
 2475POPC   C1B34027  12.134  40.573   8.764
 2475POPC   C2B34028  12.160  40.440   8.335
 2475POPC   C3B34029  12.263  40.601   7.916
 2475POPC   C4B34030  12.422  40.371   7.517
 2476POPC   NC334031  24.248  25.278   9.542
 2476POPC   PO434032  24.846  24.898   9.459
 2476POPC   GL134033  24.681  25.152   9.129
 2476POPC   GL234034  24.707  25.503   9.219
 2476POPC   C1A34035  24.477  25.067   8.707
 2476POPC   D2A34036  24.285  25.001   8.288
 2476POPC   C3A34037  24.521  25.206   7.913
 2476POPC   C4A34038  24.584  25.115   7.458
 2476POPC   C1B34039  24.491  25.572   8.818
 2476POPC   C2B34040  24.381  25.497   8.397
 2476POPC   C3B34041  24.498  25.713   8.056
 2476POPC   C4B34042  24.667  25.690   7.673
 2477POPC   NC334043  38.916  16.944   9.448
 2477POPC   PO434044  38.219  16.733   9.303
 2477POPC   GL134045  38.610  16.675   9.131
 2477POPC   GL234046  38.621  17.037   9.062
 2477POPC   C1A34047  38.706  16.685   8.714
 2477POPC   D2A34048  38.654  16.862   8.358
 2477POPC   C3A34049  38.602  16.580   8.038
 2477POPC   C4A34050  38.342  16.603   7.681
 2477POPC   C1B34051  38.953  17.116   8.761
 2477POPC   C2B34052  39.148  16.966   8.420
 2477POPC   C3B34053  38.992  17.016   8.001
 2477POPC   C4B34054  38.687  16.963   7.703
 2478POPC   NC334055  35.551   2.556   9.410
 2478POPC   PO434056  35.232   3.147   9.624
 2478POPC   GL134057  35.293   2.984   9.191
 2478POPC   GL234058  35.541   2.817   8.970
 2478POPC   C1A34059  35.078   2.896   8.797
 2478POPC   D2A34060  35.243   2.573   8.529
 2478POPC   C3A34061  35.367   2.635   8.138
 2478POPC   C4A34062  35.399   2.806   7.737
 2478POPC   C1B34063  35.702   2.506   8.742
 2478POPC   C2B34064  35.832   2.428   8.347
 2478POPC   C3B34065  35.738   2.355   7.944
 2478POPC   C4B34066  35.803   2.561   7.570
 2479POPC   NC334067  35.408   0.804   9.445
 2479POPC   PO434068  35.330   1.469   9.581
 2479POPC   GL134069  35.483   1.284   9.230
 2479POPC   GL234070  35.150   1.137   9.161
 2479POPC   C1A34071  35.551   1.089   8.846
 2479POPC   D2A34072  35.721   1.093   8.459
 2479POPC   C3A34073  35.499   1.180   8.147
 2479POPC   C4A34074  35.603   1.179   7.770
 2479POPC   C1B34075  35.064   1.259   8.765
 2479POPC   C2B34076  35.165   0.953   8.467
 2479POPC   C3B34077  35.083   0.929   8.004
 2479POPC   C4B34078  35.100   1.349   7.820
 2480POPC   NC334079  43.378   7.342   9.452
 2480POPC   PO434080  42.805   7.601   9.413
 2480POPC   GL134081  43.048   7.529   9.079
 2480POPC   GL234082  43.325   7.743   9.153
 2480POPC   C1A34083  42.913   7.417   8.674
 2480POPC   D2A34084  42.901   7.288   8.242
 2480POPC   C3A34085  42.794   7.608   7.991
 2480POPC   C4A34086  43.139   7.716   7.763
 2480POPC   C1B34087  43.493   7.653   8.758
 2480POPC   C2B34088  43.276   7.637   8.373
 2480POPC   C3B34089  43.396   7.373   8.064
 2480POPC   C4B34090  43.496   7.370   7.656
 2481POPC   NC334091  44.647  18.104   9.737
 2481POPC   PO434092  44.762  18.745   9.635
 2481POPC   GL134093  44.581  18.502   9.261
 2481POPC   GL234094  44.593  18.128   9.236
 2481POPC   C1A34095  44.573  18.400   8.799
 2481POPC   D2A34096  44.896  18.296   8.506
 2481POPC   C3A34097  44.811  18.097   8.111
 2481POPC   C4A34098  44.877  18.230   7.711
 2481POPC   C1B34099  44.393  17.890   8.884
 2481POPC   C2B34100  44.468  17.968   8.479
 2481POPC   C3B34101  44.332  18.264   8.186
 2481POPC   C4B34102  44.370  18.106   7.772
 2482POPC   NC334103   7.046  10.502   9.656
 2482POPC   PO434104   7.562  10.076   9.651
 2482POPC   GL134105   7.644  10.339   9.254
 2482POPC   GL234106   7.551  10.703   9.185
 2482POPC   C1A34107   7.521  10.306   8.842
 2482POPC   D2A34108   7.239  10.206   8.511
 2482POPC   C3A34109   7.408  10.406   8.175
 2482POPC   C4A34110   7.320  10.350   7.771
 2482POPC   C1B34111   7.265  10.747   8.791
 2482POPC   C2B34112   7.047  10.693   8.386
 2482POPC   C3B34113   7.171  10.821   7.988
 2482POPC   C4B34114   7.608  10.777   7.814
 2483POPC   NC334115  19.521  22.753   9.430
 2483POPC   PO434116  19.899  23.161   9.716
 2483POPC   GL134117  20.009  22.999   9.305
 2483POPC   GL234118  20.044  22.632   9.221
 2483POPC   C1A34119  20.070  23.106   8.859
 2483POPC   D2A34120  20.054  22.950   8.419
 2483POPC   C3A34121  19.857  23.132   8.026
 2483POPC   C4A34122  19.516  23.042   7.723
 2483POPC   C1B34123  20.219  22.594   8.796
 2483POPC   C2B34124  20.080  22.448   8.400
 2483POPC   C3B34125  19.760  22.606   8.143
 2483POPC   C4B34126  19.880  22.674   7.752
 2484POPC   NC334127  11.634  19.341   9.389
 2484POPC   PO434128  11.150  18.931   9.512
 2484POPC   GL134129  11.298  19.078   9.111
 2484POPC   GL234130  11.177  19.425   9.097
 2484POPC   C1A34131  11.237  19.096   8.673
 2484POPC   D2A34132  11.298  18.905   8.282
 2484POPC   C3A34133  11.385  19.096   7.930
 2484POPC   C4A34134  11.762  19.181   7.768
 2484POPC   C1B34135  10.992  19.551   8.687
 2484POPC   C2B34136  10.898  19.319   8.302
 2484POPC   C3B34137  10.945  19.376   7.873
 2484POPC   C4B34138  11.014  19.032   7.576
 2485POPC   NC334139   6.315   9.110   9.398
 2485POPC   PO434140   5.678   9.070   9.640
 2485POPC   GL134141   5.784   9.228   9.226
 2485POPC   GL234142   5.957   8.951   9.089
 2485POPC   C1A34143   5.664   9.238   8.782
 2485POPC   D2A34144   5.858   9.119   8.399
 2485POPC   C3A34145   5.677   9.181   7.983
 2485POPC   C4A34146   5.843   8.943   7.676
 2485POPC   C1B34147   6.102   8.784   8.713
 2485POPC   C2B34148   6.284   8.658   8.354
 2485POPC   C3B34149   6.250   8.359   8.035
 2485POPC   C4B34150   6.173   8.559   7.694
 2486POPC   NC334151   5.793   8.626   9.482
 2486POPC   PO434152   5.872   7.950   9.464
 2486POPC   GL134153   5.774   8.212   9.134
 2486POPC   GL234154   5.985   8.436   9.047
 2486POPC   C1A34155   5.652   8.247   8.679
 2486POPC   D2A34156   5.792   8.494   8.309
 2486POPC   C3A34157   5.735   8.313   7.900
 2486POPC   C4A34158   5.789   8.319   7.449
 2486POPC   C1B34159   6.161   8.154   8.772
 2486POPC   C2B34160   6.085   8.009   8.386
 2486POPC   C3B34161   5.988   7.865   7.995
 2486POPC   C4B34162   6.153   8.017   7.635
 2487POPC   NC334163  25.057  39.359   9.569
 2487POPC   PO434164  24.431  39.130   9.605
 2487POPC   GL134165  24.396  39.121   9.177
 2487POPC   GL234166  24.591  39.364   9.086
 2487POPC   C1A34167  24.545  38.992   8.752
 2487POPC   D2A34168  24.667  39.092   8.352
 2487POPC   C3A34169  24.467  38.911   8.016
 2487POPC   C4A34170  24.748  39.016   7.714
 2487POPC   C1B34171  24.257  39.419   8.758
 2487POPC   C2B34172  24.353  39.503   8.322
 2487POPC   C3B34173  24.482  39.458   7.882
 2487POPC   C4B34174  24.157  39.608   7.571
 2488POPC   NC334175   4.867  30.461   9.327
 2488POPC   PO434176   5.337  30.875   9.378
 2488POPC   GL134177   5.118  31.020   9.057
 2488POPC   GL234178   5.364  31.277   9.000
 2488POPC   C1A34179   5.082  30.732   8.694
 2488POPC   D2A34180   5.263  30.726   8.267
 2488POPC   C3A34181   5.039  30.521   7.930
 2488POPC   C4A34182   4.760  30.217   7.763
 2488POPC   C1B34183   5.299  31.178   8.594
 2488POPC   C2B34184   5.009  31.192   8.262
 2488POPC   C3B34185   5.079  31.030   7.848
 2488POPC   C4B34186   5.376  30.811   7.576
 2489POPC   NC334187   7.706  36.541   9.359
 2489POPC   PO434188   7.678  37.171   9.483
 2489POPC   GL134189   7.504  37.068   9.089
 2489POPC   GL234190   7.762  36.913   9.013
 2489POPC   C1A34191   7.372  36.941   8.658
 2489POPC   D2A34192   7.220  37.084   8.254
 2489POPC   C3A34193   7.356  36.954   7.855
 2489POPC   C4A34194   7.391  36.827   7.406
 2489POPC   C1B34195   7.819  37.199   8.671
 2489POPC   C2B34196   7.732  37.130   8.242
 2489POPC   C3B34197   7.764  37.284   7.840
 2489POPC   C4B34198   7.677  37.257   7.396
 2490POPC   NC334199   8.641  34.973   9.384
 2490POPC   PO434200   8.115  35.431   9.522
 2490POPC   GL134201   8.095  35.445   9.110
 2490POPC   GL234202   8.446  35.369   9.109
 2490POPC   C1A34203   7.816  35.330   8.764
 2490POPC   D2A34204   7.668  35.185   8.357
 2490POPC   C3A34205   7.868  35.196   7.955
 2490POPC   C4A34206   8.065  35.427   7.604
 2490POPC   C1B34207   8.293  35.080   8.798
 2490POPC   C2B34208   8.179  35.251   8.406
 2490POPC   C3B34209   8.354  35.413   8.046
 2490POPC   C4B34210   8.542  35.243   7.702
 2491POPC   NC334211  30.309  31.844   9.287
 2491POPC   PO434212  30.824  32.175   9.561
 2491POPC   GL134213  30.638  32.291   9.199
 2491POPC   GL234214  30.424  32.637   9.184
 2491POPC   C1A34215  30.851  32.201   8.827
 2491POPC   D2A34216  30.623  32.137   8.472
 2491POPC   C3A34217  30.898  31.993   8.174
 2491POPC   C4A34218  30.716  31.982   7.779
 2491POPC   C1B34219  30.474  32.540   8.787
 2491POPC   C2B34220  30.789  32.616   8.471
 2491POPC   C3B34221  30.771  32.466   8.040
 2491POPC   C4B34222  31.139  32.287   7.842
 2492POPC   NC334223   8.735  34.115   9.319
 2492POPC   PO434224   9.122  34.731   9.451
 2492POPC   GL134225   9.077  34.489   9.123
 2492POPC   GL234226   8.739  34.565   9.061
 2492POPC   C1A34227   9.138  34.480   8.681
 2492POPC   D2A34228   9.361  34.615   8.304
 2492POPC   C3A34229   9.070  34.545   8.006
 2492POPC   C4A34230   9.074  34.455   7.577
 2492POPC   C1B34231   8.624  34.337   8.707
 2492POPC   C2B34232   8.824  34.187   8.343
 2492POPC   C3B34233   8.678  34.232   7.916
 2492POPC   C4B34234   8.533  34.596   7.706
 2493POPC   NC334235  31.558  37.414   9.574
 2493POPC   PO434236  31.404  36.814   9.744
 2493POPC   GL134237  31.466  36.953   9.306
 2493POPC   GL234238  31.814  37.033   9.183
 2493POPC   C1A34239  31.436  36.930   8.839
 2493POPC   D2A34240  31.260  36.942   8.422
 2493POPC   C3A34241  31.294  36.683   8.063
 2493POPC   C4A34242  31.381  36.938   7.724
 2493POPC   C1B34243  31.867  37.182   8.722
 2493POPC   C2B34244  31.774  37.005   8.297
 2493POPC   C3B34245  31.875  36.972   7.858
 2493POPC   C4B34246  31.780  37.081   7.424
 2494POPC   NC334247  15.459  37.493   9.469
 2494POPC   PO434248  14.994  38.005   9.514
 2494POPC   GL134249  15.046  37.798   9.155
 2494POPC   GL234250  14.973  37.454   9.265
 2494POPC   C1A34251  15.192  37.913   8.735
 2494POPC   D2A34252  15.197  37.721   8.333
 2494POPC   C3A34253  15.038  37.857   7.932
 2494POPC   C4A34254  15.167  37.943   7.480
 2494POPC   C1B34255  15.033  37.389   8.829
 2494POPC   C2B34256  15.117  37.225   8.447
 2494POPC   C3B34257  14.989  37.339   8.059
 2494POPC   C4B34258  15.263  37.465   7.720
 2495POPC   NC334259  30.919  27.773   9.522
 2495POPC   PO434260  30.323  27.527   9.385
 2495POPC   GL134261  30.670  27.636   9.103
 2495POPC   GL234262  30.525  27.957   9.103
 2495POPC   C1A34263  30.923  27.510   8.726
 2495POPC   D2A34264  31.165  27.595   8.326
 2495POPC   C3A34265  30.909  27.703   7.948
 2495POPC   C4A34266  30.795  27.604   7.511
 2495POPC   C1B34267  30.438  27.756   8.679
 2495POPC   C2B34268  30.497  27.826   8.226
 2495POPC   C3B34269  30.396  27.809   7.767
 2495POPC   C4B34270  30.365  27.788   7.288
 2496POPC   NC334271  26.203  16.437   9.556
 2496POPC   PO434272  26.002  17.069   9.487
 2496POPC   GL134273  26.162  16.803   9.197
 2496POPC   GL234274  25.858  16.640   9.145
 2496POPC   C1A34275  26.268  16.527   8.858
 2496POPC   D2A34276  26.082  16.658   8.453
 2496POPC   C3A34277  26.114  16.559   8.062
 2496POPC   C4A34278  26.398  16.584   7.748
 2496POPC   C1B34279  25.671  16.690   8.766
 2496POPC   C2B34280  25.635  16.918   8.397
 2496POPC   C3B34281  25.819  17.059   8.057
 2496POPC   C4B34282  25.951  16.853   7.687
 2497POPC   NC334283   1.799   2.622   9.444
 2497POPC   PO434284   1.914   3.172   9.737
 2497POPC   GL134285   1.988   3.072   9.250
 2497POPC   GL234286   1.980   2.757   9.005
 2497POPC   C1A34287   1.915   3.201   8.805
 2497POPC   D2A34288   1.896   2.878   8.471
 2497POPC   C3A34289   1.914   2.851   8.033
 2497POPC   C4A34290   2.243   3.010   7.770
 2497POPC   C1B34291   2.240   2.571   8.704
 2497POPC   C2B34292   2.192   2.376   8.314
 2497POPC   C3B34293   2.249   2.468   7.908
 2497POPC   C4B34294   2.053   2.533   7.568
 2498POPC   NC334295  41.831  43.801   9.609
 2498POPC   PO434296  41.399  44.327   9.511
 2498POPC   GL134297  41.406  44.012   9.185
 2498POPC   GL234298  41.127  43.742   9.206
 2498POPC   C1A34299  41.597  43.962   8.797
 2498POPC   D2A34300  41.719  44.179   8.425
 2498POPC   C3A34301  41.769  43.917   8.095
 2498POPC   C4A34302  41.642  43.910   7.687
 2498POPC   C1B34303  41.082  43.874   8.775
 2498POPC   C2B34304  41.291  43.903   8.374
 2498POPC   C3B34305  41.278  43.711   7.958
 2498POPC   C4B34306  41.478  43.395   7.630
 2499POPC   NC334307  42.481   9.871   9.499
 2499POPC   PO434308  43.164  10.045   9.483
 2499POPC   GL134309  43.011   9.879   9.119
 2499POPC   GL234310  42.997   9.506   9.076
 2499POPC   C1A34311  43.231   9.893   8.735
 2499POPC   D2A34312  43.126   9.775   8.329
 2499POPC   C3A34313  43.121  10.018   7.979
 2499POPC   C4A34314  43.164   9.912   7.533
 2499POPC   C1B34315  43.072   9.319   8.653
 2499POPC   C2B34316  42.987   9.307   8.212
 2499POPC   C3B34317  42.908   9.552   7.881
 2499POPC   C4B34318  42.649   9.480   7.552
 2500POPC   NC334319   6.293  24.111   9.382
 2500POPC   PO434320   6.845  24.609   9.461
 2500POPC   GL134321   6.698  24.364   9.137
 2500POPC   GL234322   6.378  24.539   9.091
 2500POPC   C1A34323   6.749  24.381   8.693
 2500POPC   D2A34324   6.538  24.575   8.344
 2500POPC   C3A34325   6.744  24.550   7.934
 2500POPC   C4A34326   6.759  24.822   7.576
 2500POPC   C1B34327   6.234  24.263   8.768
 2500POPC   C2B34328   6.221  24.150   8.377
 2500POPC   C3B34329   6.191  24.068   7.939
 2500POPC   C4B34330   6.320  24.442   7.652
 2501POPC   NC334331  28.167  42.924   9.550
 2501POPC   PO434332  28.731  43.109   9.415
 2501POPC   GL134333  28.520  42.956   9.064
 2501POPC   GL234334  28.195  43.130   9.091
 2501POPC   C1A34335  28.458  43.169   8.664
 2501POPC   D2A34336  28.582  43.352   8.287
 2501POPC   C3A34337  28.401  43.031   8.073
 2501POPC   C4A34338  28.352  42.990   7.649
 2501POPC   C1B34339  28.059  42.847   8.761
 2501POPC   C2B34340  28.104  42.662   8.365
 2501POPC   C3B34341  27.996  42.767   7.940
 2501POPC   C4B34342  28.110  42.551   7.562
 2502POPC   NC334343  39.790  23.982   9.429
 2502POPC   PO434344  39.213  23.577   9.466
 2502POPC   GL134345  39.472  23.689   9.127
 2502POPC   GL234346  39.593  23.395   9.029
 2502POPC   C1A34347  39.323  23.782   8.710
 2502POPC   D2A34348  39.441  23.946   8.334
 2502POPC   C3A34349  39.228  23.810   7.984
 2502POPC   C4A34350  39.443  24.009   7.697
 2502POPC   C1B34351  39.198  23.303   8.788
 2502POPC   C2B34352  39.146  23.413   8.349
 2502POPC   C3B34353  39.380  23.319   7.974
 2502POPC   C4B34354  39.445  23.504   7.582
 2503POPC   NC334355  13.372  18.879   9.523
 2503POPC   PO434356  13.847  19.235   9.557
 2503POPC   GL134357  13.547  19.128   9.115
 2503POPC   GL234358  13.314  18.802   9.031
 2503POPC   C1A34359  13.362  19.160   8.657
 2503POPC   D2A34360  13.197  19.253   8.226
 2503POPC   C3A34361  13.429  19.227   7.839
 2503POPC   C4A34362  13.751  19.207   7.516
 2503POPC   C1B34363  13.380  18.646   8.595
 2503POPC   C2B34364  13.549  18.870   8.235
 2503POPC   C3B34365  13.721  18.788   7.828
 2503POPC   C4B34366  13.567  18.452   7.568
 2504POPC   NC334367  12.918   6.555   9.505
 2504POPC   PO434368  13.308   7.016   9.134
 2504POPC   GL134369  12.967   6.777   9.050
 2504POPC   GL234370  13.031   6.403   9.031
 2504POPC   C1A34371  12.785   6.853   8.668
 2504POPC   D2A34372  12.803   6.647   8.278
 2504POPC   C3A34373  13.052   6.683   7.876
 2504POPC   C4A34374  12.945   6.733   7.429
 2504POPC   C1B34375  12.650   6.376   8.792
 2504POPC   C2B34376  12.489   6.274   8.372
 2504POPC   C3B34377  12.634   6.281   7.954
 2504POPC   C4B34378  12.570   6.396   7.532
 2505POPC   NC334379  10.959  38.491   9.576
 2505POPC   PO434380  11.556  38.675   9.802
 2505POPC   GL134381  11.372  38.575   9.301
 2505POPC   GL234382  11.042  38.727   9.145
 2505POPC   C1A34383  11.486  38.439   8.863
 2505POPC   D2A34384  11.591  38.579   8.454
 2505POPC   C3A34385  11.480  38.375   8.101
 2505POPC   C4A34386  11.442  38.431   7.698
 2505POPC   C1B34387  10.967  38.423   8.859
 2505POPC   C2B34388  11.058  38.418   8.396
 2505POPC   C3B34389  11.030  38.201   7.963
 2505POPC   C4B34390  11.018  38.238   7.487
 2506POPC   NC334391  21.217  21.402   9.564
 2506POPC   PO434392  21.874  21.681   9.375
 2506POPC   GL134393  21.478  21.543   9.131
 2506POPC   GL234394  21.254  21.208   9.100
 2506POPC   C1A34395  21.319  21.515   8.706
 2506POPC   D2A34396  21.379  21.205   8.407
 2506POPC   C3A34397  21.308  21.375   7.987
 2506POPC   C4A34398  21.203  21.588   7.597
 2506POPC   C1B34399  21.617  21.063   8.850
 2506POPC   C2B34400  21.779  20.888   8.437
 2506POPC   C3B34401  21.777  21.065   8.030
 2506POPC   C4B34402  21.695  21.316   7.666
 2507POPC   NC334403  13.999  27.864   9.484
 2507POPC   PO434404  14.541  27.419   9.539
 2507POPC   GL134405  14.591  27.615   9.177
 2507POPC   GL234406  14.534  27.964   9.275
 2507POPC   C1A34407  14.330  27.557   8.807
 2507POPC   D2A34408  14.353  27.264   8.470
 2507POPC   C3A34409  14.462  27.368   8.083
 2507POPC   C4A34410  14.239  27.372   7.751
 2507POPC   C1B34411  14.275  28.053   8.897
 2507POPC   C2B34412  14.314  28.044   8.476
 2507POPC   C3B34413  14.311  27.859   8.100
 2507POPC   C4B34414  14.405  27.846   7.690
 2508POPC   NC334415   8.683   8.765   9.470
 2508POPC   PO434416   9.316   9.011   9.550
 2508POPC   GL134417   9.086   8.985   9.137
 2508POPC   GL234418   8.698   9.054   9.075
 2508POPC   C1A34419   9.013   8.884   8.710
 2508POPC   D2A34420   9.166   8.978   8.324
 2508POPC   C3A34421   9.231   8.715   7.979
 2508POPC   C4A34422   9.127   9.048   7.749
 2508POPC   C1B34423   8.505   8.917   8.709
 2508POPC   C2B34424   8.633   8.968   8.271
 2508POPC   C3B34425   8.606   8.952   7.817
 2508POPC   C4B34426   8.657   9.182   7.437
 2509POPC   NC334427  34.032  28.426   9.559
 2509POPC   PO434428  33.532  28.006   9.505
 2509POPC   GL134429  33.855  28.103   9.178
 2509POPC   GL234430  33.797  28.460   9.094
 2509POPC   C1A34431  34.057  28.031   8.771
 2509POPC   D2A34432  34.078  28.297   8.428
 2509POPC   C3A34433  34.208  28.193   8.013
 2509POPC   C4A34434  33.833  28.172   7.756
 2509POPC   C1B34435  33.670  28.542   8.658
 2509POPC   C2B34436  33.721  28.793   8.250
 2509POPC   C3B34437  33.767  28.818   7.778
 2509POPC   C4B34438  33.778  28.581   7.367
 2510POPC   NC334439   3.025  25.943   9.505
 2510POPC   PO434440   2.309  25.915   9.609
 2510POPC   GL134441   2.557  26.053   9.274
 2510POPC   GL234442   2.665  25.732   9.180
 2510POPC   C1A34443   2.738  26.294   8.951
 2510POPC   D2A34444   2.935  26.252   8.542
 2510POPC   C3A34445   2.624  26.112   8.249
 2510POPC   C4A34446   2.665  26.173   7.823
 2510POPC   C1B34447   2.796  25.795   8.755
 2510POPC   C2B34448   2.846  25.651   8.336
 2510POPC   C3B34449   3.054  25.851   7.999
 2510POPC   C4B34450   3.329  26.177   7.898
 2511POPC   NC334451  38.663  41.977   9.433
 2511POPC   PO434452  38.360  41.433   9.419
 2511POPC   GL134453  38.436  41.677   9.089
 2511POPC   GL234454  38.764  41.607   9.069
 2511POPC   C1A34455  38.398  41.703   8.675
 2511POPC   D2A34456  38.555  41.888   8.335
 2511POPC   C3A34457  38.365  41.752   7.981
 2511POPC   C4A34458  38.337  41.496   7.609
 2511POPC   C1B34459  38.941  41.713   8.660
 2511POPC   C2B34460  38.985  41.579   8.214
 2511POPC   C3B34461  38.792  41.408   7.829
 2511POPC   C4B34462  38.774  41.536   7.351
 2512POPC   NC334463  35.700  36.874   9.356
 2512POPC   PO434464  35.084  36.841   9.396
 2512POPC   GL134465  35.278  36.960   9.051
 2512POPC   GL234466  35.281  36.607   8.967
 2512POPC   C1A34467  35.494  36.945   8.648
 2512POPC   D2A34468  35.298  37.040   8.257
 2512POPC   C3A34469  35.437  36.782   7.917
 2512POPC   C4A34470  35.464  36.635   7.479
 2512POPC   C1B34471  34.982  36.792   8.661
 2512POPC   C2B34472  34.883  36.707   8.258
 2512POPC   C3B34473  34.926  36.968   7.898
 2512POPC   C4B34474  35.134  37.368   7.844
 2513POPC   NC334475  14.950   5.780   9.347
 2513POPC   PO434476  15.609   6.042   9.457
 2513POPC   GL134477  15.358   5.961   9.119
 2513POPC   GL234478  15.273   5.611   9.006
 2513POPC   C1A34479  15.463   5.926   8.695
 2513POPC   D2A34480  15.334   5.704   8.389
 2513POPC   C3A34481  15.238   5.871   8.043
 2513POPC   C4A34482  15.360   5.763   7.660
 2513POPC   C1B34483  15.025   5.433   8.679
 2513POPC   C2B34484  14.811   5.583   8.257
 2513POPC   C3B34485  14.860   5.619   7.790
 2513POPC   C4B34486  15.002   5.562   7.334
 2514POPC   NC334487  20.684   2.382   9.561
 2514POPC   PO434488  20.281   1.803   9.512
 2514POPC   GL134489  20.605   1.762   9.189
 2514POPC   GL234490  20.801   2.087   9.167
 2514POPC   C1A34491  20.630   1.860   8.750
 2514POPC   D2A34492  20.535   1.664   8.397
 2514POPC   C3A34493  20.327   1.798   8.054
 2514POPC   C4A34494  20.667   1.706   7.772
 2514POPC   C1B34495  20.628   2.367   8.838
 2514POPC   C2B34496  20.457   2.242   8.447
 2514POPC   C3B34497  20.651   2.173   8.061
 2514POPC   C4B34498  20.410   2.137   7.685
 2515POPC   NC334499  30.362  12.228   9.478
 2515POPC   PO434500  30.952  11.842   9.483
 2515POPC   GL134501  30.733  12.025   9.161
 2515POPC   GL234502  30.785  12.390   9.218
 2515POPC   C1A34503  30.607  11.895   8.750
 2515POPC   D2A34504  30.616  11.774   8.319
 2515POPC   C3A34505  30.664  12.098   8.048
 2515POPC   C4A34506  30.382  12.032   7.714
 2515POPC   C1B34507  30.501  12.396   8.877
 2515POPC   C2B34508  30.467  12.333   8.480
 2515POPC   C3B34509  30.446  12.608   8.163
 2515POPC   C4B34510  30.572  12.493   7.743
 2516POPC   NC334511  35.313  35.667   9.383
 2516POPC   PO434512  35.083  35.111   9.775
 2516POPC   GL134513  35.261  35.178   9.281
 2516POPC   GL234514  35.612  35.117   9.228
 2516POPC   C1A34515  35.130  35.297   8.808
 2516POPC   D2A34516  35.071  35.231   8.331
 2516POPC   C3A34517  35.296  35.417   7.921
 2516POPC   C4A34518  35.186  35.443   7.433
 2516POPC   C1B34519  35.573  35.027   8.750
 2516POPC   C2B34520  35.555  35.129   8.297
 2516POPC   C3B34521  35.635  35.015   7.881
 2516POPC   C4B34522  35.418  34.930   7.501
 2517POPC   NC334523  25.664  27.646   9.503
 2517POPC   PO434524  24.981  27.411   9.490
 2517POPC   GL134525  25.162  27.669   9.188
 2517POPC   GL234526  24.924  27.898   9.040
 2517POPC   C1A34527  25.458  27.612   8.850
 2517POPC   D2A34528  25.461  27.280   8.519
 2517POPC   C3A34529  25.517  27.463   8.126
 2517POPC   C4A34530  25.286  27.580   7.798
 2517POPC   C1B34531  24.990  27.569   8.679
 2517POPC   C2B34532  24.936  27.591   8.227
 2517POPC   C3B34533  24.875  27.900   7.876
 2517POPC   C4B34534  25.031  27.818   7.431
 2518POPC   NC334535  29.448   0.930   9.338
 2518POPC   PO434536  29.034   1.515   9.437
 2518POPC   GL134537  29.150   1.282   9.090
 2518POPC   GL234538  29.036   0.938   9.046
 2518POPC   C1A34539  29.171   1.459   8.682
 2518POPC   D2A34540  29.212   1.293   8.300
 2518POPC   C3A34541  29.109   1.456   7.918
 2518POPC   C4A34542  29.208   1.460   7.488
 2518POPC   C1B34543  28.812   1.107   8.750
 2518POPC   C2B34544  28.701   1.188   8.358
 2518POPC   C3B34545  28.686   0.877   8.057
 2518POPC   C4B34546  28.730   0.932   7.629
 2519POPC   NC334547   6.760  29.579   9.449
 2519POPC   PO434548   6.380  30.114   9.709
 2519POPC   GL134549   6.554  30.025   9.262
 2519POPC   GL234550   6.839  30.246   9.160
 2519POPC   C1A34551   6.692  29.824   8.858
 2519POPC   D2A34552   6.719  29.543   8.469
 2519POPC   C3A34553   6.832  29.702   8.068
 2519POPC   C4A34554   6.690  29.915   7.689
 2519POPC   C1B34555   6.636  30.331   8.758
 2519POPC   C2B34556   6.689  30.142   8.365
 2519POPC   C3B34557   6.633  30.347   7.957
 2519POPC   C4B34558   6.731  30.458   7.513
 2520POPC   NC334559  22.793  40.437   9.418
 2520POPC   PO434560  22.806  41.026   9.777
 2520POPC   GL134561  22.953  40.912   9.298
 2520POPC   GL234562  23.230  40.649   9.223
 2520POPC   C1A34563  23.125  40.983   8.844
 2520POPC   D2A34564  23.331  41.163   8.436
 2520POPC   C3A34565  23.200  40.985   8.032
 2520POPC   C4A34566  22.732  40.889   7.929
 2520POPC   C1B34567  23.158  40.428   8.826
 2520POPC   C2B34568  23.115  40.634   8.431
 2520POPC   C3B34569  23.051  40.490   8.011
 2520POPC   C4B34570  23.067  40.285   7.664
 2521POPC   NC334571  36.349  14.958   9.421
 2521POPC   PO434572  36.040  15.550   9.328
 2521POPC   GL134573  36.144  15.246   9.052
 2521POPC   GL234574  35.881  15.026   9.236
 2521POPC   C1A34575  36.404  15.076   8.699
 2521POPC   D2A34576  36.419  15.043   8.246
 2521POPC   C3A34577  36.115  15.330   8.082
 2521POPC   C4A34578  36.173  15.509   7.688
 2521POPC   C1B34579  36.009  14.793   8.864
 2521POPC   C2B34580  35.990  14.862   8.466
 2521POPC   C3B34581  36.034  14.796   8.046
 2521POPC   C4B34582  35.975  15.039   7.683
 2522POPC   NC334583   1.845  31.471   9.593
 2522POPC   PO434584   2.310  31.834   9.196
 2522POPC   GL134585   1.999  31.528   9.047
 2522POPC   GL234586   1.913  31.187   9.172
 2522POPC   C1A34587   1.991  31.464   8.621
 2522POPC   D2A34588   1.820  31.454   8.204
 2522POPC   C3A34589   2.087  31.643   7.872
 2522POPC   C4A34590   2.120  31.451   7.437
 2522POPC   C1B34591   1.784  31.032   8.758
 2522POPC   C2B34592   2.021  30.999   8.358
 2522POPC   C3B34593   2.123  31.125   7.932
 2522POPC   C4B34594   1.864  31.047   7.625
 2523POPC   NC334595   5.385  39.717   9.710
 2523POPC   PO434596   5.131  39.112   9.491
 2523POPC   GL134597   5.183  39.229   9.123
 2523POPC   GL234598   5.515  39.346   9.120
 2523POPC   C1A34599   5.027  39.378   8.729
 2523POPC   D2A34600   5.224  39.433   8.316
 2523POPC   C3A34601   4.997  39.245   7.952
 2523POPC   C4A34602   4.804  39.532   7.707
 2523POPC   C1B34603   5.478  39.071   8.741
 2523POPC   C2B34604   5.600  39.038   8.310
 2523POPC   C3B34605   5.496  39.196   7.879
 2523POPC   C4B34606   5.379  38.943   7.501
 2524POPC   NC334607  39.148  38.218   9.561
 2524POPC   PO434608  39.377  38.835   9.524
 2524POPC   GL134609  39.356  38.524   9.195
 2524POPC   GL234610  39.010  38.519   9.179
 2524POPC   C1A34611  39.237  38.354   8.773
 2524POPC   D2A34612  39.255  38.476   8.384
 2524POPC   C3A34613  39.383  38.573   7.999
 2524POPC   C4A34614  39.195  38.552   7.640
 2524POPC   C1B34615  38.763  38.739   8.923
 2524POPC   C2B34616  38.770  38.637   8.505
 2524POPC   C3B34617  38.866  38.578   8.067
 2524POPC   C4B34618  38.721  38.800   7.727
 2525POPC   NC334619  15.649   2.294   9.493
 2525POPC   PO434620  16.069   1.760   9.576
 2525POPC   GL134621  15.985   1.977   9.229
 2525POPC   GL234622  15.659   1.867   9.164
 2525POPC   C1A34623  16.088   1.802   8.844
 2525POPC   D2A34624  16.158   1.922   8.436
 2525POPC   C3A34625  15.965   1.765   8.061
 2525POPC   C4A34626  16.124   2.046   7.738
 2525POPC   C1B34627  15.704   2.139   8.784
 2525POPC   C2B34628  15.594   2.067   8.353
 2525POPC   C3B34629  15.713   2.205   7.955
 2525POPC   C4B34630  15.743   2.218   7.451
 2526POPC   NC334631  12.234   7.865   9.405
 2526POPC   PO434632  11.778   8.331   9.682
 2526POPC   GL134633  11.879   8.304   9.197
 2526POPC   GL234634  12.191   8.202   9.044
 2526POPC   C1A34635  11.815   8.231   8.696
 2526POPC   D2A34636  12.058   8.208   8.266
 2526POPC   C3A34637  11.897   8.089   7.857
 2526POPC   C4A34638  11.705   8.434   7.593
 2526POPC   C1B34639  12.305   7.990   8.664
 2526POPC   C2B34640  12.535   8.032   8.255
 2526POPC   C3B34641  12.409   8.195   7.830
 2526POPC   C4B34642  12.187   8.312   7.423
 2527POPC   NC334643   5.431  17.767   9.365
 2527POPC   PO434644   4.968  17.332   9.639
 2527POPC   GL134645   5.118  17.347   9.205
 2527POPC   GL234646   4.991  17.675   9.138
 2527POPC   C1A34647   5.298  17.453   8.773
 2527POPC   D2A34648   5.097  17.367   8.369
 2527POPC   C3A34649   5.281  17.374   7.939
 2527POPC   C4A34650   5.263  17.356   7.490
 2527POPC   C1B34651   4.904  17.792   8.712
 2527POPC   C2B34652   5.166  17.880   8.349
 2527POPC   C3B34653   5.132  17.859   7.898
 2527POPC   C4B34654   4.915  17.721   7.530
 2528POPC   NC334655  26.354   1.756   9.459
 2528POPC   PO434656  25.711   1.642   9.186
 2528POPC   GL134657  26.050   1.849   9.024
 2528POPC   GL234658  26.351   2.078   9.044
 2528POPC   C1A34659  26.085   1.902   8.600
 2528POPC   D2A34660  26.075   2.096   8.228
 2528POPC   C3A34661  25.902   1.878   7.903
 2528POPC   C4A34662  25.794   2.173   7.572
 2528POPC   C1B34663  26.480   1.684   8.823
 2528POPC   C2B34664  26.480   1.562   8.377
 2528POPC   C3B34665  26.437   1.803   8.005
 2528POPC   C4B34666  26.300   1.876   7.593
 2529POPC   NC334667   1.349  23.228   9.474
 2529POPC   PO434668   0.947  22.714   9.338
 2529POPC   GL134669   1.128  23.016   9.060
 2529POPC   GL234670   1.484  22.975   9.064
 2529POPC   C1A34671   1.217  23.025   8.607
 2529POPC   D2A34672   0.984  22.772   8.279
 2529POPC   C3A34673   0.994  22.966   7.859
 2529POPC   C4A34674   1.145  23.091   7.455
 2529POPC   C1B34675   1.733  22.921   8.723
 2529POPC   C2B34676   1.579  22.706   8.391
 2529POPC   C3B34677   1.425  22.765   8.014
 2529POPC   C4B34678   1.542  23.073   7.772
 2530POPC   NC334679  20.490   1.411   9.594
 2530POPC   PO434680  20.834   0.839   9.537
 2530POPC   GL134681  20.626   1.085   9.233
 2530POPC   GL234682  20.906   1.306   9.237
 2530POPC   C1A34683  20.470   1.335   8.866
 2530POPC   D2A34684  20.536   1.158   8.448
 2530POPC   C3A34685  20.458   1.311   8.016
 2530POPC   C4A34686  20.324   0.970   7.748
 2530POPC   C1B34687  20.925   1.090   8.829
 2530POPC   C2B34688  21.034   1.077   8.407
 2530POPC   C3B34689  20.825   0.967   8.033
 2530POPC   C4B34690  20.838   1.211   7.683
 2531POPC   NC334691  19.993  13.962   9.510
 2531POPC   PO434692  19.859  14.671   9.417
 2531POPC   GL134693  20.025  14.357   9.160
 2531POPC   GL234694  19.689  14.230   9.153
 2531POPC   C1A34695  19.983  14.195   8.749
 2531POPC   D2A34696  19.706  14.139   8.420
 2531POPC   C3A34697  19.855  14.300   8.047
 2531POPC   C4A34698  19.799  14.108   7.636
 2531POPC   C1B34699  19.551  14.496   8.810
 2531POPC   C2B34700  19.660  14.663   8.412
 2531POPC   C3B34701  19.456  14.649   8.035
 2531POPC   C4B34702  19.625  14.591   7.673
 2532POPC   NC334703  14.677   9.309   9.356
 2532POPC   PO434704  14.016   9.398   9.611
 2532POPC   GL134705  14.218   9.045   9.290
 2532POPC   GL234706  14.253   9.270   9.074
 2532POPC   C1A34707  14.361   8.858   8.813
 2532POPC   D2A34708  14.676   8.922   8.465
 2532POPC   C3A34709  14.537   8.862   8.053
 2532POPC   C4A34710  14.718   8.890   7.664
 2532POPC   C1B34711  14.430   9.357   8.707
 2532POPC   C2B34712  14.468   9.349   8.285
 2532POPC   C3B34713  14.572   9.360   7.885
 2532POPC   C4B34714  14.260   9.129   7.695
 2533POPC   NC334715  31.218  38.242   9.903
 2533POPC   PO434716  31.633  38.494   9.458
 2533POPC   GL134717  31.383  38.284   9.153
 2533POPC   GL234718  31.522  38.539   8.942
 2533POPC   C1A34719  31.439  38.113   8.716
 2533POPC   D2A34720  31.577  38.400   8.406
 2533POPC   C3A34721  31.354  38.366   8.043
 2533POPC   C4A34722  31.311  38.285   7.638
 2533POPC   C1B34723  31.646  38.905   8.762
 2533POPC   C2B34724  31.839  38.945   8.421
 2533POPC   C3B34725  31.613  38.837   8.083
 2533POPC   C4B34726  31.729  38.572   7.748
 2534POPC   NC334727  41.855  33.313   9.441
 2534POPC   PO434728  41.555  32.772   9.596
 2534POPC   GL134729  41.669  32.917   9.181
 2534POPC   GL234730  41.387  33.114   9.156
 2534POPC   C1A34731  41.615  33.042   8.724
 2534POPC   D2A34732  41.754  33.171   8.338
 2534POPC   C3A34733  41.703  32.911   7.981
 2534POPC   C4A34734  41.847  33.094   7.611
 2534POPC   C1B34735  41.176  33.351   8.834
 2534POPC   C2B34736  41.244  33.395   8.396
 2534POPC   C3B34737  41.405  33.321   7.983
 2534POPC   C4B34738  41.374  33.307   7.530
 2535POPC   NC334739  17.815  38.839   9.739
 2535POPC   PO434740  17.483  38.248   9.545
 2535POPC   GL134741  17.376  38.234   9.127
 2535POPC   GL234742  17.362  38.589   9.114
 2535POPC   C1A34743  17.621  38.321   8.724
 2535POPC   D2A34744  17.698  38.103   8.338
 2535POPC   C3A34745  17.644  38.367   8.004
 2535POPC   C4A34746  17.554  38.821   8.026
 2535POPC   C1B34747  17.147  38.529   8.732
 2535POPC   C2B34748  17.273  38.528   8.326
 2535POPC   C3B34749  17.132  38.430   7.913
 2535POPC   C4B34750  17.215  38.144   7.571
 2536POPC   NC334751  37.851  43.622   9.512
 2536POPC   PO434752  37.335  44.002   9.390
 2536POPC   GL134753  37.568  43.827   9.090
 2536POPC   GL234754  37.936  43.951   9.130
 2536POPC   C1A34755  37.413  43.662   8.700
 2536POPC   D2A34756  37.258  43.567   8.270
 2536POPC   C3A34757  37.596  43.574   7.951
 2536POPC   C4A34758  37.659  43.650   7.504
 2536POPC   C1B34759  37.838  44.057   8.714
 2536POPC   C2B34760  37.796  43.846   8.338
 2536POPC   C3B34761  37.779  44.049   7.944
 2536POPC   C4B34762  37.849  44.119   7.513
 2537POPC   NC334763  44.008  29.565   9.569
 2537POPC   PO434764  43.986  30.245   9.586
 2537POPC   GL134765  43.826  30.071   9.192
 2537POPC   GL234766  43.893  29.757   9.121
 2537POPC   C1A34767  44.019  30.080   8.752
 2537POPC   D2A34768  44.107  30.294   8.343
 2537POPC   C3A34769  43.985  30.101   7.927
 2537POPC   C4A34770  43.865  30.036   7.502
 2537POPC   C1B34771  43.998  29.551   8.736
 2537POPC   C2B34772  43.870  29.464   8.288
 2537POPC   C3B34773  43.872  29.601   7.845
 2537POPC   C4B34774  43.882  29.511   7.388
 2538POPC   NC334775   3.238  21.194   9.420
 2538POPC   PO434776   3.849  21.562   9.440
 2538POPC   GL134777   3.582  21.464   9.142
 2538POPC   GL234778   3.707  21.160   9.021
 2538POPC   C1A34779   3.600  21.547   8.721
 2538POPC   D2A34780   3.553  21.342   8.370
 2538POPC   C3A34781   3.853  21.429   8.127
 2538POPC   C4A34782   3.781  21.485   7.722
 2538POPC   C1B34783   3.365  21.030   8.735
 2538POPC   C2B34784   3.222  20.971   8.278
 2538POPC   C3B34785   3.481  21.074   7.890
 2538POPC   C4B34786   3.403  21.170   7.433
 2539POPC   NC334787  44.098  10.707  10.099
 2539POPC   PO434788  43.666  10.531   9.588
 2539POPC   GL134789  44.024  10.526   9.314
 2539POPC   GL234790  44.168  10.172   9.277
 2539POPC   C1A34791  44.100  10.731   8.918
 2539POPC   D2A34792  43.898  10.715   8.512
 2539POPC   C3A34793  43.755  10.440   8.191
 2539POPC   C4A34794  43.904  10.553   7.807
 2539POPC   C1B34795  44.348  10.263   8.850
 2539POPC   C2B34796  44.202  10.280   8.415
 2539POPC   C3B34797  44.324  10.307   7.974
 2539POPC   C4B34798  44.298  10.447   7.512
 2540POPC   NC334799  26.157  26.576   9.610
 2540POPC   PO434800  25.764  27.159   9.468
 2540POPC   GL134801  25.923  26.831   9.212
 2540POPC   GL234802  26.266  26.783   9.118
 2540POPC   C1A34803  25.845  26.685   8.801
 2540POPC   D2A34804  25.912  26.930   8.436
 2540POPC   C3A34805  25.633  26.952   8.102
 2540POPC   C4A34806  25.793  26.802   7.725
 2540POPC   C1B34807  26.368  26.707   8.678
 2540POPC   C2B34808  26.477  26.533   8.256
 2540POPC   C3B34809  26.208  26.536   7.885
 2540POPC   C4B34810  26.209  26.569   7.423
 2541POPC   NC334811   3.756   7.132   9.711
 2541POPC   PO434812   3.310   7.574   9.464
 2541POPC   GL134813   3.379   7.280   9.148
 2541POPC   GL234814   3.697   7.214   9.223
 2541POPC   C1A34815   3.519   7.286   8.700
 2541POPC   D2A34816   3.652   7.428   8.286
 2541POPC   C3A34817   3.445   7.271   7.889
 2541POPC   C4A34818   3.016   7.183   7.779
 2541POPC   C1B34819   3.983   7.228   8.931
 2541POPC   C2B34820   4.060   7.138   8.525
 2541POPC   C3B34821   3.955   7.083   8.109
 2541POPC   C4B34822   3.821   6.969   7.710
 2542POPC   NC334823  10.227  42.734   9.564
 2542POPC   PO434824   9.599  42.731   9.573
 2542POPC   GL134825   9.678  43.003   9.226
 2542POPC   GL234826  10.023  43.163   9.237
 2542POPC   C1A34827   9.601  43.296   8.884
 2542POPC   D2A34828   9.820  43.362   8.506
 2542POPC   C3A34829   9.618  43.230   8.116
 2542POPC   C4A34830   9.685  43.438   7.737
 2542POPC   C1B34831  10.010  42.977   8.815
 2542POPC   C2B34832   9.892  42.875   8.376
 2542POPC   C3B34833  10.070  42.965   7.970
 2542POPC   C4B34834  10.096  42.671   7.624
 2543POPC   NC334835   6.295  17.720   9.591
 2543POPC   PO434836   6.822  17.346   9.429
 2543POPC   GL134837   6.709  17.580   9.104
 2543POPC   GL234838   6.976  17.538   8.910
 2543POPC   C1A34839   6.636  17.903   8.800
 2543POPC   D2A34840   6.687  17.878   8.372
 2543POPC   C3A34841   6.547  17.521   8.115
 2543POPC   C4A34842   6.580  17.493   7.659
 2543POPC   C1B34843   6.802  17.239   8.606
 2543POPC   C2B34844   6.994  17.062   8.230
 2543POPC   C3B34845   6.920  17.145   7.767
 2543POPC   C4B34846   7.003  17.285   7.329
 2544POPC   NC334847  35.677  11.612   9.671
 2544POPC   PO434848  35.233  11.101   9.508
 2544POPC   GL134849  35.215  11.339   9.177
 2544POPC   GL234850  35.523  11.471   9.201
 2544POPC   C1A34851  35.329  11.289   8.751
 2544POPC   D2A34852  35.298  11.045   8.394
 2544POPC   C3A34853  35.448  11.242   8.024
 2544POPC   C4A34854  35.267  11.180   7.643
 2544POPC   C1B34855  35.758  11.541   8.827
 2544POPC   C2B34856  35.622  11.561   8.401
 2544POPC   C3B34857  35.656  11.701   7.979
 2544POPC   C4B34858  35.396  11.700   7.605
 2545POPC   NC334859  42.631  30.240   9.698
 2545POPC   PO434860  43.178  30.763   9.552
 2545POPC   GL134861  43.233  30.747   9.145
 2545POPC   GL234862  43.237  30.412   9.016
 2545POPC   C1A34863  43.166  30.904   8.748
 2545POPC   D2A34864  43.264  30.613   8.435
 2545POPC   C3A34865  43.313  30.720   8.031
 2545POPC   C4A34866  43.093  30.837   7.706
 2545POPC   C1B34867  42.883  30.475   8.773
 2545POPC   C2B34868  42.769  30.714   8.419
 2545POPC   C3B34869  42.806  30.568   8.022
 2545POPC   C4B34870  42.672  30.536   7.611
 2546POPC   NC334871  30.541   4.071   9.713
 2546POPC   PO434872  30.714   3.466   9.356
 2546POPC   GL134873  30.724   3.516   8.952
 2546POPC   GL234874  30.394   3.594   8.952
 2546POPC   C1A34875  30.934   3.530   8.578
 2546POPC   D2A34876  30.905   3.790   8.214
 2546POPC   C3A34877  30.745   3.638   7.820
 2546POPC   C4A34878  30.708   3.299   7.477
 2546POPC   C1B34879  30.443   3.262   8.632
 2546POPC   C2B34880  30.499   3.419   8.236
 2546POPC   C3B34881  30.386   3.259   7.861
 2546POPC   C4B34882  30.237   3.531   7.557
 2547POPC   NC334883   2.212   9.341   9.467
 2547POPC   PO434884   2.036   8.602   9.532
 2547POPC   GL134885   2.103   8.782   9.148
 2547POPC   GL234886   1.776   8.890   9.102
 2547POPC   C1A34887   2.096   8.971   8.731
 2547POPC   D2A34888   1.947   9.112   8.348
 2547POPC   C3A34889   2.267   9.102   8.029
 2547POPC   C4A34890   2.320   8.727   7.790
 2547POPC   C1B34891   1.555   8.991   8.726
 2547POPC   C2B34892   1.556   8.771   8.354
 2547POPC   C3B34893   1.842   8.709   8.034
 2547POPC   C4B34894   1.870   8.952   7.749
 2548POPC   NC334895   4.456  15.676   9.412
 2548POPC   PO434896   3.914  16.036   9.420
 2548POPC   GL134897   4.103  15.957   9.056
 2548POPC   GL234898   4.051  15.613   9.031
 2548POPC   C1A34899   4.060  16.159   8.662
 2548POPC   D2A34900   4.279  16.129   8.309
 2548POPC   C3A34901   4.136  16.252   7.942
 2548POPC   C4A34902   4.500  16.285   7.722
 2548POPC   C1B34903   4.216  15.650   8.645
 2548POPC   C2B34904   4.026  15.694   8.270
 2548POPC   C3B34905   4.244  15.724   7.895
 2548POPC   C4B34906   4.500  15.578   7.540
 2549POPC   NC334907   8.855  39.704   9.371
 2549POPC   PO434908   8.773  40.330   9.117
 2549POPC   GL134909   9.181  40.193   8.910
 2549POPC   GL234910   9.100  39.874   8.953
 2549POPC   C1A34911   9.241  40.041   8.482
 2549POPC   D2A34912   8.891  39.826   8.361
 2549POPC   C3A34913   8.737  40.102   8.033
 2549POPC   C4A34914   8.636  40.499   7.835
 2549POPC   C1B34915   9.335  39.584   8.678
 2549POPC   C2B34916   9.453  39.633   8.243
 2549POPC   C3B34917   9.197  39.864   7.959
 2549POPC   C4B34918   8.942  39.856   7.626
 2550POPC   NC334919  18.788  40.918   9.553
 2550POPC   PO434920  19.128  40.305   9.510
 2550POPC   GL134921  19.012  40.519   9.122
 2550POPC   GL234922  19.030  40.873   9.102
 2550POPC   C1A34923  19.272  40.622   8.739
 2550POPC   D2A34924  19.273  40.508   8.321
 2550POPC   C3A34925  19.387  40.805   8.025
 2550POPC   C4A34926  19.037  40.719   7.792
 2550POPC   C1B34927  18.847  40.902   8.699
 2550POPC   C2B34928  18.954  40.972   8.265
 2550POPC   C3B34929  18.697  41.092   7.890
 2550POPC   C4B34930  18.877  41.147   7.453
 2551POPC   NC334931   2.911   7.817   9.493
 2551POPC   PO434932   2.617   7.129   9.415
 2551POPC   GL134933   2.871   7.391   9.194
 2551POPC   GL234934   2.694   7.668   9.066
 2551POPC   C1A34935   3.009   7.308   8.777
 2551POPC   D2A34936   3.135   7.293   8.329
 2551POPC   C3A34937   2.835   7.549   8.100
 2551POPC   C4A34938   2.878   7.698   7.705
 2551POPC   C1B34939   2.393   7.581   8.746
 2551POPC   C2B34940   2.349   7.730   8.328
 2551POPC   C3B34941   2.285   7.437   8.022
 2551POPC   C4B34942   2.515   7.355   7.699
 2552POPC   NC334943  18.351  28.482   9.511
 2552POPC   PO434944  17.682  28.510   9.518
 2552POPC   GL134945  17.929  28.465   9.112
 2552POPC   GL234946  17.746  28.174   9.023
 2552POPC   C1A34947  18.157  28.285   8.710
 2552POPC   D2A34948  18.502  28.184   8.416
 2552POPC   C3A34949  18.597  28.335   8.012
 2552POPC   C4A34950  18.432  28.215   7.602
 2552POPC   C1B34951  17.627  28.235   8.610
 2552POPC   C2B34952  17.863  28.326   8.254
 2552POPC   C3B34953  18.106  28.470   7.933
 2552POPC   C4B34954  18.079  28.780   7.628
 2553POPC   NC334955   8.619  29.201   9.621
 2553POPC   PO434956   7.940  29.075   9.643
 2553POPC   GL134957   8.228  29.071   9.312
 2553POPC   GL234958   8.312  29.406   9.269
 2553POPC   C1A34959   8.197  29.036   8.882
 2553POPC   D2A34960   8.124  28.889   8.456
 2553POPC   C3A34961   8.112  29.182   8.129
 2553POPC   C4A34962   8.116  29.123   7.702
 2553POPC   C1B34963   8.393  29.497   8.801
 2553POPC   C2B34964   8.395  29.681   8.336
 2553POPC   C3B34965   8.402  29.555   7.894
 2553POPC   C4B34966   8.661  29.468   7.531
 2554POPC   NC334967  44.580  36.309   9.628
 2554POPC   PO434968   0.110  36.387   9.471
 2554POPC   GL134969  44.785  36.233   9.116
 2554POPC   GL234970  44.412  36.205   9.135
 2554POPC   C1A34971  44.628  36.277   8.634
 2554POPC   D2A34972  44.692  36.426   8.168
 2554POPC   C3A34973  44.893  36.145   7.853
 2554POPC   C4A34974   0.111  36.113   7.453
 2554POPC   C1B34975  44.253  35.946   8.765
 2554POPC   C2B34976  44.320  35.922   8.321
 2554POPC   C3B34977  44.371  36.106   7.917
 2554POPC   C4B34978  44.510  36.424   7.634
 2555POPC   NC334979   8.462  26.337   9.372
 2555POPC   PO434980   8.066  25.777   9.627
 2555POPC   GL134981   8.207  25.895   9.267
 2555POPC   GL234982   8.026  26.183   9.150
 2555POPC   C1A34983   8.253  25.708   8.880
 2555POPC   D2A34984   8.130  25.798   8.464
 2555POPC   C3A34985   8.443  25.856   8.162
 2555POPC   C4A34986   8.312  25.848   7.746
 2555POPC   C1B34987   8.242  26.213   8.771
 2555POPC   C2B34988   8.117  26.333   8.375
 2555POPC   C3B34989   8.280  26.326   7.963
 2555POPC   C4B34990   8.086  26.552   7.668
 2556POPC   NC334991  31.553   7.490   9.544
 2556POPC   PO434992  32.071   7.031   9.330
 2556POPC   GL134993  31.587   7.176   9.149
 2556POPC   GL234994  31.548   7.596   9.060
 2556POPC   C1A34995  31.390   7.279   8.726
 2556POPC   D2A34996  31.713   7.482   8.474
 2556POPC   C3A34997  31.713   7.516   8.019
 2556POPC   C4A34998  31.517   7.237   7.713
 2556POPC   C1B34999  31.340   7.806   8.683
 2556POPC   C2B35000  31.325   7.899   8.225
 2556POPC   C3B35001  31.081   7.867   7.818
 2556POPC   C4B35002  31.239   7.687   7.416
 2557POPC   NC335003  21.050   0.388   9.589
 2557POPC   PO435004  21.647   0.792   9.592
 2557POPC   GL135005  21.437   0.548   9.265
 2557POPC   GL235006  21.165   0.752   9.148
 2557POPC   C1A35007  21.488   0.266   8.885
 2557POPC   D2A35008  21.486   0.157   8.442
 2557POPC   C3A35009  21.740   0.350   8.106
 2557POPC   C4A35010  21.571   0.587   7.752
 2557POPC   C1B35011  21.131   0.600   8.738
 2557POPC   C2B35012  20.905   0.567   8.369
 2557POPC   C3B35013  21.115   0.557   7.979
 2557POPC   C4B35014  21.135   0.817   7.607
 2558POPC   NC335015  33.504   4.203   9.439
 2558POPC   PO435016  34.171   4.329   9.444
 2558POPC   GL135017  33.908   4.167   9.149
 2558POPC   GL235018  33.782   4.516   9.146
 2558POPC   C1A35019  33.742   3.948   8.800
 2558POPC   D2A35020  33.560   3.905   8.388
 2558POPC   C3A35021  33.816   4.085   8.062
 2558POPC   C4A35022  33.998   4.305   7.695
 2558POPC   C1B35023  33.505   4.460   8.820
 2558POPC   C2B35024  33.640   4.442   8.419
 2558POPC   C3B35025  33.718   4.592   8.024
 2558POPC   C4B35026  33.514   4.463   7.654
 2559POPC   NC335027   8.572   7.184   9.433
 2559POPC   PO435028   7.994   7.502   9.590
 2559POPC   GL135029   8.088   7.201   9.266
 2559POPC   GL235030   8.278   7.445   9.108
 2559POPC   C1A35031   8.014   7.121   8.836
 2559POPC   D2A35032   8.132   7.248   8.438
 2559POPC   C3A35033   7.898   7.228   8.065
 2559POPC   C4A35034   8.057   7.155   7.662
 2559POPC   C1B35035   8.478   7.507   8.719
 2559POPC   C2B35036   8.338   7.690   8.332
 2559POPC   C3B35037   8.350   7.466   7.968
 2559POPC   C4B35038   8.619   7.248   7.710
 2560POPC   NC335039  13.978  33.982   9.759
 2560POPC   PO435040  14.266  33.458   9.488
 2560POPC   GL135041  14.092  33.557   9.085
 2560POPC   GL235042  14.228  33.888   8.934
 2560POPC   C1A35043  14.122  33.509   8.628
 2560POPC   D2A35044  14.414  33.787   8.406
 2560POPC   C3A35045  14.520  33.763   7.952
 2560POPC   C4A35046  14.296  33.635   7.542
 2560POPC   C1B35047  14.455  34.201   8.725
 2560POPC   C2B35048  14.289  34.279   8.364
 2560POPC   C3B35049  14.080  34.018   8.090
 2560POPC   C4B35050  14.227  34.142   7.707
 2561POPC   NC335051  37.765  14.155   9.444
 2561POPC   PO435052  37.628  14.767   9.541
 2561POPC   GL135053  37.450  14.549   9.179
 2561POPC   GL235054  37.266  14.244   9.260
 2561POPC   C1A35055  37.511  14.400   8.750
 2561POPC   D2A35056  37.732  14.063   8.515
 2561POPC   C3A35057  37.942  14.171   8.098
 2561POPC   C4A35058  37.786  14.475   7.807
 2561POPC   C1B35059  37.146  14.057   8.857
 2561POPC   C2B35060  37.219  14.112   8.388
 2561POPC   C3B35061  37.400  14.160   7.953
 2561POPC   C4B35062  37.527  14.193   7.476
 2562POPC   NC335063  21.681  30.371   9.512
 2562POPC   PO435064  21.199  30.869   9.491
 2562POPC   GL135065  21.248  30.616   9.123
 2562POPC   GL235066  21.576  30.597   9.059
 2562POPC   C1A35067  21.262  30.745   8.668
 2562POPC   D2A35068  21.597  30.739   8.312
 2562POPC   C3A35069  21.464  30.803   7.840
 2562POPC   C4A35070  21.185  31.035   7.520
 2562POPC   C1B35071  21.506  30.323   8.687
 2562POPC   C2B35072  21.281  30.321   8.274
 2562POPC   C3B35073  21.432  30.286   7.831
 2562POPC   C4B35074  21.704  30.469   7.497
 2563POPC   NC335075  38.369  21.785   9.433
 2563POPC   PO435076  38.208  22.354   9.671
 2563POPC   GL135077  38.434  22.378   9.266
 2563POPC   GL235078  38.364  22.102   9.046
 2563POPC   C1A35079  38.639  22.513   8.863
 2563POPC   D2A35080  38.837  22.405   8.474
 2563POPC   C3A35081  38.610  22.439   8.115
 2563POPC   C4A35082  38.494  22.642   7.732
 2563POPC   C1B35083  38.511  22.044   8.636
 2563POPC   C2B35084  38.368  21.955   8.272
 2563POPC   C3B35085  38.678  21.936   7.997
 2563POPC   C4B35086  38.840  22.247   7.696
 2564POPC   NC335087  31.197  34.434   9.445
 2564POPC   PO435088  30.582  34.711   9.274
 2564POPC   GL135089  30.509  34.496   8.933
 2564POPC   GL235090  30.732  34.250   9.092
 2564POPC   C1A35091  30.648  34.707   8.578
 2564POPC   D2A35092  30.883  34.803   8.228
 2564POPC   C3A35093  30.707  34.606   7.877
 2564POPC   C4A35094  30.591  34.761   7.474
 2564POPC   C1B35095  30.915  34.258   8.725
 2564POPC   C2B35096  30.807  34.290   8.314
 2564POPC   C3B35097  31.130  34.349   8.026
 2564POPC   C4B35098  30.982  34.224   7.670
 2565POPC   NC335099  23.050  26.538   9.342
 2565POPC   PO435100  22.786  26.046   9.756
 2565POPC   GL135101  22.804  26.006   9.270
 2565POPC   GL235102  23.106  25.934   9.168
 2565POPC   C1A35103  22.847  26.177   8.807
 2565POPC   D2A35104  23.052  26.214   8.408
 2565POPC   C3A35105  22.905  26.120   8.008
 2565POPC   C4A35106  22.805  26.385   7.680
 2565POPC   C1B35107  23.166  25.785   8.716
 2565POPC   C2B35108  23.139  25.708   8.240
 2565POPC   C3B35109  23.226  25.809   7.759
 2565POPC   C4B35110  23.340  25.786   7.292
 2566POPC   NC335111  32.548  14.349   9.866
 2566POPC   PO435112  33.032  14.305   9.483
 2566POPC   GL135113  33.139  14.055   9.099
 2566POPC   GL235114  32.840  14.124   8.973
 2566POPC   C1A35115  33.169  13.981   8.617
 2566POPC   D2A35116  33.316  14.057   8.203
 2566POPC   C3A35117  33.108  14.240   7.845
 2566POPC   C4A35118  32.673  14.309   7.758
 2566POPC   C1B35119  33.051  14.461   8.688
 2566POPC   C2B35120  33.170  14.590   8.233
 2566POPC   C3B35121  33.048  14.734   7.797
 2566POPC   C4B35122  32.920  14.969   7.420
 2567POPC   NC335123  36.648  36.561   9.307
 2567POPC   PO435124  37.023  37.124   9.504
 2567POPC   GL135125  37.123  37.020   9.095
 2567POPC   GL235126  37.089  36.656   9.031
 2567POPC   C1A35127  37.029  37.160   8.699
 2567POPC   D2A35128  36.640  37.102   8.440
 2567POPC   C3A35129  36.699  37.181   8.005
 2567POPC   C4A35130  36.974  37.008   7.687
 2567POPC   C1B35131  36.938  36.657   8.621
 2567POPC   C2B35132  36.990  36.778   8.196
 2567POPC   C3B35133  36.936  36.496   7.856
 2567POPC   C4B35134  36.752  36.382   7.475
 2568POPC   NC335135  11.149  33.247   9.504
 2568POPC   PO435136  11.535  32.737   9.512
 2568POPC   GL135137  11.372  32.865   9.124
 2568POPC   GL235138  11.322  32.527   9.034
 2568POPC   C1A35139  11.328  33.182   8.772
 2568POPC   D2A35140  11.244  33.517   8.463
 2568POPC   C3A35141  11.351  33.461   8.054
 2568POPC   C4A35142  11.186  33.151   7.788
 2568POPC   C1B35143  11.295  32.666   8.621
 2568POPC   C2B35144  11.230  32.847   8.230
 2568POPC   C3B35145  11.037  32.685   7.872
 2568POPC   C4B35146  11.336  32.722   7.564
 2569POPC   NC335147  23.841  37.832   9.655
 2569POPC   PO435148  23.252  37.919   9.656
 2569POPC   GL135149  23.520  37.971   9.254
 2569POPC   GL235150  23.851  37.813   9.156
 2569POPC   C1A35151  23.433  37.820   8.825
 2569POPC   D2A35152  23.595  37.797   8.404
 2569POPC   C3A35153  23.393  37.821   8.001
 2569POPC   C4A35154  23.554  37.760   7.591
 2569POPC   C1B35155  23.923  37.604   8.770
 2569POPC   C2B35156  23.996  37.478   8.329
 2569POPC   C3B35157  23.792  37.477   7.943
 2569POPC   C4B35158  23.861  37.375   7.482
 2570POPC   NC335159  16.504  36.560   9.580
 2570POPC   PO435160  16.953  36.126   9.370
 2570POPC   GL135161  16.792  36.433   9.155
 2570POPC   GL235162  16.432  36.453   9.091
 2570POPC   C1A35163  16.828  36.414   8.749
 2570POPC   D2A35164  16.777  36.147   8.434
 2570POPC   C3A35165  16.930  36.313   8.074
 2570POPC   C4A35166  17.012  36.027   7.732
 2570POPC   C1B35167  16.323  36.526   8.656
 2570POPC   C2B35168  16.408  36.421   8.248
 2570POPC   C3B35169  16.482  36.084   7.954
 2570POPC   C4B35170  16.384  36.362   7.638
 2571POPC   NC335171  30.652  13.134   9.519
 2571POPC   PO435172  31.248  12.882   9.652
 2571POPC   GL135173  30.981  12.872   9.197
 2571POPC   GL235174  30.591  12.877   9.097
 2571POPC   C1A35175  30.891  12.695   8.740
 2571POPC   D2A35176  30.958  12.513   8.321
 2571POPC   C3A35177  30.851  12.824   8.007
 2571POPC   C4A35178  30.668  12.982   7.631
 2571POPC   C1B35179  30.560  13.156   8.715
 2571POPC   C2B35180  30.465  13.145   8.247
 2571POPC   C3B35181  30.373  13.329   7.829
 2571POPC   C4B35182  30.349  13.297   7.358
 2572POPC   NC335183  10.108  23.527   9.479
 2572POPC   PO435184  10.732  23.688   9.684
 2572POPC   GL135185  10.582  23.606   9.260
 2572POPC   GL235186  10.403  23.826   9.145
 2572POPC   C1A35187  10.637  23.530   8.795
 2572POPC   D2A35188  10.435  23.535   8.407
 2572POPC   C3A35189  10.658  23.732   8.094
 2572POPC   C4A35190  10.527  23.787   7.693
 2572POPC   C1B35191  10.710  24.048   8.847
 2572POPC   C2B35192  10.775  24.125   8.381
 2572POPC   C3B35193  10.797  24.185   7.887
 2572POPC   C4B35194  10.793  24.100   7.376
 2573POPC   NC335195  28.906   3.566   9.472
 2573POPC   PO435196  29.487   3.353   9.819
 2573POPC   GL135197  29.436   3.467   9.312
 2573POPC   GL235198  29.157   3.383   9.064
 2573POPC   C1A35199  29.483   3.692   8.860
 2573POPC   D2A35200  29.286   3.861   8.474
 2573POPC   C3A35201  29.404   3.780   8.042
 2573POPC   C4A35202  29.114   3.739   7.689
 2573POPC   C1B35203  28.955   3.484   8.643
 2573POPC   C2B35204  28.985   3.492   8.168
 2573POPC   C3B35205  28.932   3.273   7.754
 2573POPC   C4B35206  29.083   2.921   7.538
 2574POPC   NC335207   1.535   7.258   9.590
 2574POPC   PO435208   0.855   7.393   9.485
 2574POPC   GL135209   1.038   7.489   9.086
 2574POPC   GL235210   1.352   7.476   9.167
 2574POPC   C1A35211   1.183   7.668   8.718
 2574POPC   D2A35212   1.411   7.517   8.405
 2574POPC   C3A35213   1.281   7.621   8.010
 2574POPC   C4A35214   1.489   7.649   7.648
 2574POPC   C1B35215   1.345   7.158   8.831
 2574POPC   C2B35216   1.243   7.016   8.425
 2574POPC   C3B35217   1.365   7.116   8.012
 2574POPC   C4B35218   1.166   7.227   7.656
 2575POPC   NC335219   6.551  30.500   9.505
 2575POPC   PO435220   7.190  30.623   9.416
 2575POPC   GL135221   6.963  30.735   9.041
 2575POPC   GL235222   6.592  30.752   9.060
 2575POPC   C1A35223   6.834  30.920   8.634
 2575POPC   D2A35224   6.985  31.066   8.230
 2575POPC   C3A35225   6.777  30.853   7.903
 2575POPC   C4A35226   6.379  30.775   7.735
 2575POPC   C1B35227   6.320  30.737   8.666
 2575POPC   C2B35228   6.270  30.649   8.217
 2575POPC   C3B35229   6.107  30.360   7.868
 2575POPC   C4B35230   6.233  30.374   7.404
 2576POPC   NC335231   9.884  41.044   9.513
 2576POPC   PO435232   9.617  40.438   9.496
 2576POPC   GL135233   9.859  40.680   9.148
 2576POPC   GL235234  10.064  41.022   9.035
 2576POPC   C1A35235   9.790  40.520   8.753
 2576POPC   D2A35236   9.606  40.402   8.416
 2576POPC   C3A35237   9.782  40.596   8.074
 2576POPC   C4A35238   9.527  40.526   7.730
 2576POPC   C1B35239   9.675  41.054   8.830
 2576POPC   C2B35240   9.533  40.935   8.438
 2576POPC   C3B35241   9.454  41.006   8.034
 2576POPC   C4B35242   9.680  40.985   7.669
 2577POPC   NC335243   3.844  11.336   9.380
 2577POPC   PO435244   4.466  11.563   9.417
 2577POPC   GL135245   4.295  11.298   9.130
 2577POPC   GL235246   4.407  10.949   9.125
 2577POPC   C1A35247   4.428  11.258   8.735
 2577POPC   D2A35248   4.462  11.414   8.344
 2577POPC   C3A35249   4.097  11.481   8.170
 2577POPC   C4A35250   4.171  11.469   7.747
 2577POPC   C1B35251   4.106  10.860   8.807
 2577POPC   C2B35252   4.195  10.980   8.381
 2577POPC   C3B35253   4.338  11.026   7.991
 2577POPC   C4B35254   3.987  10.992   7.736
 2578POPC   NC335255  17.169   2.311   9.450
 2578POPC   PO435256  17.297   3.029   9.464
 2578POPC   GL135257  17.208   2.810   9.070
 2578POPC   GL235258  17.220   2.434   8.959
 2578POPC   C1A35259  17.167   2.793   8.626
 2578POPC   D2A35260  17.581   2.901   8.470
 2578POPC   C3A35261  17.636   2.907   8.051
 2578POPC   C4A35262  17.263   2.821   7.821
 2578POPC   C1B35263  17.601   2.440   8.660
 2578POPC   C2B35264  17.807   2.447   8.251
 2578POPC   C3B35265  17.706   2.438   7.795
 2578POPC   C4B35266  17.758   2.391   7.344
 2579POPC   NC335267  25.125  28.485   9.432
 2579POPC   PO435268  25.694  28.112   9.493
 2579POPC   GL135269  25.439  28.097   9.097
 2579POPC   GL235270  25.153  28.339   8.930
 2579POPC   C1A35271  25.548  28.121   8.666
 2579POPC   D2A35272  25.405  28.456   8.412
 2579POPC   C3A35273  25.150  28.433   8.025
 2579POPC   C4A35274  25.296  28.588   7.599
 2579POPC   C1B35275  25.054  28.060   8.551
 2579POPC   C2B35276  25.320  27.950   8.185
 2579POPC   C3B35277  25.339  28.082   7.740
 2579POPC   C4B35278  24.925  28.292   7.546
 2580POPC   NC335279  20.557  27.131   9.884
 2580POPC   PO435280  20.864  26.893   9.366
 2580POPC   GL135281  20.787  26.590   9.043
 2580POPC   GL235282  20.610  26.842   8.881
 2580POPC   C1A35283  20.862  26.468   8.607
 2580POPC   D2A35284  20.515  26.685   8.379
 2580POPC   C3A35285  20.656  26.837   7.993
 2580POPC   C4A35286  20.531  26.733   7.582
 2580POPC   C1B35287  20.509  27.184   8.593
 2580POPC   C2B35288  20.228  27.169   8.235
 2580POPC   C3B35289  20.217  27.035   7.816
 2580POPC   C4B35290  20.338  27.152   7.369
 2581POPC   NC335291  27.163   1.734   9.498
 2581POPC   PO435292  26.634   2.137   9.494
 2581POPC   GL135293  26.816   1.887   9.150
 2581POPC   GL235294  27.152   1.821   9.007
 2581POPC   C1A35295  26.824   2.022   8.713
 2581POPC   D2A35296  26.544   2.078   8.432
 2581POPC   C3A35297  26.737   2.244   8.094
 2581POPC   C4A35298  26.712   2.128   7.724
 2581POPC   C1B35299  27.251   1.777   8.572
 2581POPC   C2B35300  26.968   1.791   8.225
 2581POPC   C3B35301  27.085   1.806   7.794
 2581POPC   C4B35302  27.279   1.749   7.408
 2582POPC   NC335303  34.106  26.039   9.244
 2582POPC   PO435304  33.690  26.513   9.616
 2582POPC   GL135305  33.694  26.366   9.170
 2582POPC   GL235306  33.643  26.094   9.007
 2582POPC   C1A35307  33.854  26.404   8.685
 2582POPC   D2A35308  33.853  26.243   8.281
 2582POPC   C3A35309  34.148  26.340   7.974
 2582POPC   C4A35310  33.795  26.298   7.715
 2582POPC   C1B35311  33.922  25.897   8.665
 2582POPC   C2B35312  34.158  25.850   8.299
 2582POPC   C3B35313  33.933  25.847   7.928
 2582POPC   C4B35314  33.949  25.513   7.655
 2583POPC   NC335315  17.138   1.313   9.504
 2583POPC   PO435316  17.774   1.037   9.528
 2583POPC   GL135317  17.448   1.035   9.199
 2583POPC   GL235318  17.474   1.392   9.111
 2583POPC   C1A35319  17.368   0.973   8.751
 2583POPC   D2A35320  17.642   0.894   8.370
 2583POPC   C3A35321  17.634   1.081   7.916
 2583POPC   C4A35322  17.910   1.119   7.503
 2583POPC   C1B35323  17.287   1.498   8.708
 2583POPC   C2B35324  17.302   1.332   8.275
 2583POPC   C3B35325  17.313   1.512   7.867
 2583POPC   C4B35326  17.127   1.429   7.442
 2584POPC   NC335327  20.602   6.404   9.556
 2584POPC   PO435328  20.828   6.981   9.495
 2584POPC   GL135329  20.593   6.758   9.201
 2584POPC   GL235330  20.879   6.574   9.140
 2584POPC   C1A35331  20.485   6.540   8.823
 2584POPC   D2A35332  20.326   6.571   8.423
 2584POPC   C3A35333  20.565   6.495   8.053
 2584POPC   C4A35334  20.409   6.287   7.688
 2584POPC   C1B35335  20.875   6.904   8.804
 2584POPC   C2B35336  20.737   6.884   8.384
 2584POPC   C3B35337  20.760   6.998   7.969
 2584POPC   C4B35338  20.661   6.732   7.603
 2585POPC   NC335339  28.878  21.430   9.370
 2585POPC   PO435340  29.513  21.036   9.455
 2585POPC   GL135341  29.325  21.212   9.042
 2585POPC   GL235342  29.234  21.567   9.010
 2585POPC   C1A35343  29.072  21.202   8.635
 2585POPC   D2A35344  28.885  21.411   8.251
 2585POPC   C3A35345  29.030  21.365   7.805
 2585POPC   C4A35346  28.935  21.249   7.362
 2585POPC   C1B35347  29.472  21.524   8.621
 2585POPC   C2B35348  29.338  21.644   8.197
 2585POPC   C3B35349  29.511  21.555   7.779
 2585POPC   C4B35350  29.355  21.573   7.315
 2586POPC   NC335351  20.822  41.351   9.519
 2586POPC   PO435352  20.251  41.698   9.593
 2586POPC   GL135353  20.406  41.731   9.159
 2586POPC   GL235354  20.428  41.373   9.090
 2586POPC   C1A35355  20.567  41.686   8.711
 2586POPC   D2A35356  20.556  41.498   8.273
 2586POPC   C3A35357  20.628  41.825   8.013
 2586POPC   C4A35358  20.344  41.925   7.722
 2586POPC   C1B35359  20.538  41.174   8.664
 2586POPC   C2B35360  20.822  41.045   8.325
 2586POPC   C3B35361  20.930  41.244   7.944
 2586POPC   C4B35362  20.619  41.435   7.682
 2587POPC   NC335363  32.329   7.115   9.718
 2587POPC   PO435364  32.324   6.471   9.517
 2587POPC   GL135365  32.372   6.687   9.110
 2587POPC   GL235366  32.706   6.809   9.104
 2587POPC   C1A35367  32.149   6.577   8.708
 2587POPC   D2A35368  31.941   6.583   8.297
 2587POPC   C3A35369  32.153   6.612   7.890
 2587POPC   C4A35370  31.971   6.784   7.501
 2587POPC   C1B35371  32.545   6.923   8.697
 2587POPC   C2B35372  32.439   6.760   8.326
 2587POPC   C3B35373  32.505   7.015   7.998
 2587POPC   C4B35374  32.445   6.947   7.583
 2588POPC   NC335375  35.450  27.765   9.828
 2588POPC   PO435376  35.232  28.426   9.503
 2588POPC   GL135377  35.192  28.356   9.098
 2588POPC   GL235378  35.499  28.318   9.073
 2588POPC   C1A35379  35.195  28.283   8.646
 2588POPC   D2A35380  35.119  28.601   8.351
 2588POPC   C3A35381  35.233  28.473   7.934
 2588POPC   C4A35382  35.113  28.404   7.457
 2588POPC   C1B35383  35.699  28.281   8.705
 2588POPC   C2B35384  35.790  28.244   8.317
 2588POPC   C3B35385  35.756  28.429   7.957
 2588POPC   C4B35386  35.599  28.304   7.598
 2589POPC   NC335387   4.005   1.713   9.492
 2589POPC   PO435388   4.394   2.244   9.505
 2589POPC   GL135389   4.272   2.009   9.186
 2589POPC   GL235390   4.518   1.818   9.032
 2589POPC   C1A35391   4.131   2.156   8.814
 2589POPC   D2A35392   4.441   2.199   8.506
 2589POPC   C3A35393   4.394   2.047   8.108
 2589POPC   C4A35394   4.540   2.062   7.710
 2589POPC   C1B35395   4.283   1.705   8.628
 2589POPC   C2B35396   4.100   1.616   8.210
 2589POPC   C3B35397   4.152   1.721   7.758
 2589POPC   C4B35398   4.236   1.694   7.298
 2590POPC   NC335399   8.479  23.411   9.480
 2590POPC   PO435400   9.001  23.854   9.474
 2590POPC   GL135401   8.963  23.695   9.068
 2590POPC   GL235402   8.854  23.398   9.121
 2590POPC   C1A35403   9.065  23.688   8.633
 2590POPC   D2A35404   9.017  23.946   8.274
 2590POPC   C3A35405   9.226  23.802   7.936
 2590POPC   C4A35406   9.047  23.989   7.573
 2590POPC   C1B35407   8.652  23.384   8.701
 2590POPC   C2B35408   8.714  23.525   8.288
 2590POPC   C3B35409   8.672  23.771   7.920
 2590POPC   C4B35410   8.912  23.480   7.704
 2591POPC   NC335411  17.624   1.780   9.429
 2591POPC   PO435412  17.604   2.406   9.283
 2591POPC   GL135413  17.581   2.061   9.014
 2591POPC   GL235414  17.292   1.890   9.062
 2591POPC   C1A35415  17.550   1.938   8.585
 2591POPC   D2A35416  17.353   2.204   8.282
 2591POPC   C3A35417  17.519   1.996   7.969
 2591POPC   C4A35418  17.404   1.952   7.571
 2591POPC   C1B35419  17.075   2.017   8.711
 2591POPC   C2B35420  17.068   1.796   8.331
 2591POPC   C3B35421  17.005   1.933   7.938
 2591POPC   C4B35422  16.907   1.862   7.515
 2592POPC   NC335423  34.862  10.258   9.520
 2592POPC   PO435424  34.474  10.855   9.552
 2592POPC   GL135425  34.572  10.671   9.119
 2592POPC   GL235426  34.294  10.779   8.865
 2592POPC   C1A35427  34.802  10.835   8.726
 2592POPC   D2A35428  34.923  10.705   8.286
 2592POPC   C3A35429  34.622  10.557   8.001
 2592POPC   C4A35430  34.385  10.890   7.840
 2592POPC   C1B35431  34.192  10.381   8.749
 2592POPC   C2B35432  34.354  10.207   8.399
 2592POPC   C3B35433  34.196  10.221   8.016
 2592POPC   C4B35434  34.046  10.509   7.846
 2593POPC   NC335435  44.916  44.445   9.510
 2593POPC   PO435436  44.515  44.901   9.642
 2593POPC   GL135437  44.501  44.747   9.206
 2593POPC   GL235438  44.816  44.606   9.042
 2593POPC   C1A35439  44.319  44.702   8.784
 2593POPC   D2A35440  44.584  44.677   8.422
 2593POPC   C3A35441  44.428  44.678   8.045
 2593POPC   C4A35442  44.707  44.703   7.707
 2593POPC   C1B35443   0.156  44.327   8.842
 2593POPC   C2B35444   0.204  44.264   8.381
 2593POPC   C3B35445  44.905  44.329   8.016
 2593POPC   C4B35446  44.920  44.292   7.534
 2594POPC   NC335447  43.351  43.293   9.603
 2594POPC   PO435448  43.015  42.780   9.375
 2594POPC   GL135449  42.987  42.971   9.046
 2594POPC   GL235450  43.047  43.324   9.174
 2594POPC   C1A35451  43.180  42.841   8.684
 2594POPC   D2A35452  43.187  42.675   8.281
 2594POPC   C3A35453  42.947  42.946   8.016
 2594POPC   C4A35454  42.916  43.136   7.657
 2594POPC   C1B35455  43.226  43.360   8.788
 2594POPC   C2B35456  43.172  43.255   8.363
 2594POPC   C3B35457  43.321  43.279   7.955
 2594POPC   C4B35458  43.280  43.488   7.550
 2595POPC   NC335459  41.794  37.793   9.427
 2595POPC   PO435460  41.193  37.433   9.445
 2595POPC   GL135461  41.392  37.651   9.127
 2595POPC   GL235462  41.650  37.425   9.037
 2595POPC   C1A35463  41.450  37.875   8.742
 2595POPC   D2A35464  41.285  37.780   8.339
 2595POPC   C3A35465  41.506  37.967   7.997
 2595POPC   C4A35466  41.933  37.975   7.837
 2595POPC   C1B35467  41.880  37.596   8.729
 2595POPC   C2B35468  41.802  37.730   8.339
 2595POPC   C3B35469  41.718  37.495   7.989
 2595POPC   C4B35470  42.035  37.296   7.772
 2596POPC   NC335471   5.463  17.216   9.607
 2596POPC   PO435472   5.829  17.841   9.585
 2596POPC   GL135473   5.881  17.657   9.141
 2596POPC   GL235474   6.208  17.660   9.070
 2596POPC   C1A35475   5.832  17.501   8.705
 2596POPC   D2A35476   5.593  17.555   8.342
 2596POPC   C3A35477   5.789  17.340   7.999
 2596POPC   C4A35478   5.759  17.476   7.573
 2596POPC   C1B35479   6.128  17.924   8.692
 2596POPC   C2B35480   6.072  17.803   8.246
 2596POPC   C3B35481   6.145  17.698   7.809
 2596POPC   C4B35482   6.189  17.540   7.317
 2597POPC   NC335483  38.374  11.010   9.607
 2597POPC   PO435484  38.503  11.703   9.639
 2597POPC   GL135485  38.660  11.381   9.293
 2597POPC   GL235486  38.600  11.063   9.122
 2597POPC   C1A35487  38.787  11.436   8.823
 2597POPC   D2A35488  38.569  11.457   8.401
 2597POPC   C3A35489  38.633  11.275   7.988
 2597POPC   C4A35490  38.537  11.302   7.546
 2597POPC   C1B35491  38.625  10.982   8.640
 2597POPC   C2B35492  38.680  10.815   8.196
 2597POPC   C3B35493  38.591  10.823   7.722
 2597POPC   C4B35494  38.460  10.869   7.265
 2598POPC   NC335495   6.100  39.911   9.480
 2598POPC   PO435496   5.443  40.059   9.415
 2598POPC   GL135497   5.704  39.868   9.142
 2598POPC   GL235498   5.855  40.205   9.115
 2598POPC   C1A35499   6.037  39.834   8.816
 2598POPC   D2A35500   6.180  40.035   8.439
 2598POPC   C3A35501   6.064  39.889   8.041
 2598POPC   C4A35502   5.789  39.867   7.697
 2598POPC   C1B35503   6.182  40.369   8.858
 2598POPC   C2B35504   6.312  40.550   8.507
 2598POPC   C3B35505   6.318  40.464   8.075
 2598POPC   C4B35506   6.104  40.285   7.736
 2599POPC   NC335507  22.422  29.772   9.594
 2599POPC   PO435508  22.141  30.281   9.421
 2599POPC   GL135509  22.421  30.099   9.122
 2599POPC   GL235510  22.182  30.136   8.865
 2599POPC   C1A35511  22.502  29.750   8.807
 2599POPC   D2A35512  22.146  29.662   8.486
 2599POPC   C3A35513  22.135  29.845   8.072
 2599POPC   C4A35514  22.500  29.695   7.852
 2599POPC   C1B35515  22.506  30.359   8.654
 2599POPC   C2B35516  22.634  30.412   8.261
 2599POPC   C3B35517  22.450  30.201   7.910
 2599POPC   C4B35518  22.195  30.350   7.601
 2600POPC   NC335519   3.458  16.167   9.450
 2600POPC   PO435520   3.270  15.619   9.345
 2600POPC   GL135521   3.579  15.851   9.053
 2600POPC   GL235522   3.662  16.235   9.008
 2600POPC   C1A35523   3.669  15.846   8.636
 2600POPC   D2A35524   3.468  15.704   8.289
 2600POPC   C3A35525   3.328  15.959   7.955
 2600POPC   C4A35526   3.362  15.743   7.573
 2600POPC   C1B35527   3.513  16.325   8.605
 2600POPC   C2B35528   3.703  16.210   8.217
 2600POPC   C3B35529   3.620  16.404   7.816
 2600POPC   C4B35530   3.379  16.236   7.509
 2601POPC   NC335531  19.684  15.097   9.369
 2601POPC   PO435532  19.997  15.643   9.673
 2601POPC   GL135533  20.042  15.447   9.236
 2601POPC   GL235534  20.130  15.047   9.161
 2601POPC   C1A35535  20.004  15.348   8.789
 2601POPC   D2A35536  19.893  15.129   8.435
 2601POPC   C3A35537  19.902  15.293   8.036
 2601POPC   C4A35538  19.588  15.109   7.766
 2601POPC   C1B35539  20.037  14.748   8.794
 2601POPC   C2B35540  20.180  14.710   8.372
 2601POPC   C3B35541  19.972  14.794   7.983
 2601POPC   C4B35542  20.082  14.793   7.536
 2602POPC   NC335543   6.210  14.944   9.662
 2602POPC   PO435544   5.760  15.397   9.452
 2602POPC   GL135545   5.834  15.128   9.112
 2602POPC   GL235546   6.174  15.037   9.157
 2602POPC   C1A35547   5.666  15.020   8.708
 2602POPC   D2A35548   5.852  14.973   8.268
 2602POPC   C3A35549   5.675  15.104   7.866
 2602POPC   C4A35550   5.812  15.464   7.579
 2602POPC   C1B35551   6.117  14.817   8.774
 2602POPC   C2B35552   6.192  14.606   8.413
 2602POPC   C3B35553   6.238  14.745   7.989
 2602POPC   C4B35554   6.161  15.096   7.743
 2603POPC   NC335555  44.107  38.673   9.175
 2603POPC   PO435556  43.502  38.644   9.327
 2603POPC   GL135557  43.675  38.313   9.043
 2603POPC   GL235558  44.006  38.173   9.058
 2603POPC   C1A35559  43.776  38.265   8.578
 2603POPC   D2A35560  44.023  38.644   8.344
 2603POPC   C3A35561  44.073  38.709   7.871
 2603POPC   C4A35562  43.961  38.371   7.570
 2603POPC   C1B35563  44.254  38.308   8.679
 2603POPC   C2B35564  44.386  38.255   8.281
 2603POPC   C3B35565  44.385  38.317   7.872
 2603POPC   C4B35566  44.450  38.568   7.507
 2604POPC   NC335567   4.552   7.584   9.401
 2604POPC   PO435568   4.185   7.010   9.550
 2604POPC   GL135569   4.415   7.148   9.163
 2604POPC   GL235570   4.764   7.156   9.108
 2604POPC   C1A35571   4.377   7.498   8.795
 2604POPC   D2A35572   4.115   7.644   8.458
 2604POPC   C3A35573   4.206   7.531   8.052
 2604POPC   C4A35574   3.900   7.481   7.746
 2604POPC   C1B35575   4.558   7.033   8.692
 2604POPC   C2B35576   4.495   7.108   8.241
 2604POPC   C3B35577   4.364   7.085   7.816
 2604POPC   C4B35578   4.560   7.031   7.453
 2605POPC   NC335579  25.921  17.945   9.569
 2605POPC   PO435580  25.849  18.602   9.408
 2605POPC   GL135581  26.025  18.301   9.124
 2605POPC   GL235582  26.099  17.929   9.090
 2605POPC   C1A35583  25.833  18.196   8.754
 2605POPC   D2A35584  25.857  18.105   8.371
 2605POPC   C3A35585  26.034  18.368   8.118
 2605POPC   C4A35586  25.846  18.276   7.743
 2605POPC   C1B35587  26.219  17.845   8.678
 2605POPC   C2B35588  26.369  18.038   8.300
 2605POPC   C3B35589  26.218  17.938   7.874
 2605POPC   C4B35590  26.111  17.991   7.420
 2606POPC   NC335591  31.997  25.497   9.281
 2606POPC   PO435592  32.493  25.187   9.578
 2606POPC   GL135593  32.489  25.165   9.109
 2606POPC   GL235594  32.177  25.185   8.917
 2606POPC   C1A35595  32.578  25.138   8.629
 2606POPC   D2A35596  32.252  25.056   8.272
 2606POPC   C3A35597  32.312  25.226   7.830
 2606POPC   C4A35598  32.510  25.021   7.473
 2606POPC   C1B35599  32.046  25.436   8.593
 2606POPC   C2B35600  32.049  25.547   8.163
 2606POPC   C3B35601  31.823  25.494   7.775
 2606POPC   C4B35602  31.976  25.530   7.382
 2607POPC   NC335603   9.685  31.701   9.571
 2607POPC   PO435604   9.282  31.203   9.521
 2607POPC   GL135605   9.559  31.372   9.202
 2607POPC   GL235606   9.924  31.284   9.286
 2607POPC   C1A35607   9.695  31.551   8.804
 2607POPC   D2A35608   9.521  31.691   8.401
 2607POPC   C3A35609   9.743  31.679   8.020
 2607POPC   C4A35610   9.544  31.371   7.747
 2607POPC   C1B35611  10.118  31.241   8.870
 2607POPC   C2B35612  10.086  31.425   8.438
 2607POPC   C3B35613  10.045  31.277   8.039
 2607POPC   C4B35614  10.016  31.146   7.647
 2608POPC   NC335615   6.354  10.019   9.419
 2608POPC   PO435616   6.631   9.370   9.610
 2608POPC   GL135617   6.730   9.607   9.235
 2608POPC   GL235618   7.109   9.559   9.198
 2608POPC   C1A35619   6.539   9.687   8.806
 2608POPC   D2A35620   6.338   9.908   8.469
 2608POPC   C3A35621   6.491   9.767   8.068
 2608POPC   C4A35622   6.597   9.620   7.650
 2608POPC   C1B35623   7.061   9.798   8.815
 2608POPC   C2B35624   6.852   9.873   8.436
 2608POPC   C3B35625   6.952   9.997   8.039
 2608POPC   C4B35626   7.076   9.799   7.670
 2609POPC   NC335627  16.250  38.064   9.251
 2609POPC   PO435628  15.931  37.506   9.520
 2609POPC   GL135629  15.872  37.716   9.149
 2609POPC   GL235630  15.552  37.886   9.148
 2609POPC   C1A35631  15.995  37.733   8.716
 2609POPC   D2A35632  16.126  37.502   8.371
 2609POPC   C3A35633  16.133  37.705   7.978
 2609POPC   C4A35634  16.160  38.083   7.761
 2609POPC   C1B35635  15.522  37.545   8.820
 2609POPC   C2B35636  15.610  37.441   8.420
 2609POPC   C3B35637  15.634  37.611   8.047
 2609POPC   C4B35638  15.806  37.431   7.688
 2610POPC   NC335639  22.312   2.040   9.612
 2610POPC   PO435640  21.787   2.330   9.267
 2610POPC   GL135641  22.117   2.201   9.126
 2610POPC   GL235642  22.129   1.906   9.174
 2610POPC   C1A35643  22.311   2.320   8.788
 2610POPC   D2A35644  22.482   2.147   8.438
 2610POPC   C3A35645  22.263   2.073   8.069
 2610POPC   C4A35646  22.390   2.231   7.677
 2610POPC   C1B35647  22.241   1.811   8.773
 2610POPC   C2B35648  22.003   1.679   8.437
 2610POPC   C3B35649  21.977   1.584   8.027
 2610POPC   C4B35650  22.151   1.769   7.668
 2611POPC   NC335651  10.087   0.287   9.723
 2611POPC   PO435652  10.722   0.477   9.658
 2611POPC   GL135653  10.588   0.455   9.226
 2611POPC   GL235654  10.615   0.785   9.046
 2611POPC   C1A35655  10.572   0.340   8.784
 2611POPC   D2A35656  10.778   0.558   8.447
 2611POPC   C3A35657  10.696   0.394   8.078
 2611POPC   C4A35658  10.642   0.314   7.634
 2611POPC   C1B35659  10.412   0.846   8.646
 2611POPC   C2B35660  10.370   0.791   8.236
 2611POPC   C3B35661  10.065   0.817   7.977
 2611POPC   C4B35662  10.267   0.699   7.586
 2612POPC   NC335663  35.326  16.182   9.746
 2612POPC   PO435664  35.160  15.802   9.294
 2612POPC   GL135665  35.410  16.026   9.009
 2612POPC   GL235666  35.467  16.340   9.196
 2612POPC   C1A35667  35.466  16.049   8.545
 2612POPC   D2A35668  35.471  15.733   8.206
 2612POPC   C3A35669  35.395  15.876   7.761
 2612POPC   C4A35670  35.018  15.914   7.491
 2612POPC   C1B35671  35.819  16.336   8.860
 2612POPC   C2B35672  35.911  16.299   8.403
 2612POPC   C3B35673  35.600  16.236   8.062
 2612POPC   C4B35674  35.317  16.387   7.719
 2613POPC   NC335675  43.403   0.826   9.529
 2613POPC   PO435676  42.800   1.017   9.679
 2613POPC   GL135677  42.952   0.942   9.249
 2613POPC   GL235678  43.295   1.099   9.122
 2613POPC   C1A35679  42.902   1.076   8.806
 2613POPC   D2A35680  43.176   1.112   8.428
 2613POPC   C3A35681  43.032   1.325   8.036
 2613POPC   C4A35682  42.905   1.224   7.591
 2613POPC   C1B35683  43.564   0.948   8.770
 2613POPC   C2B35684  43.636   0.827   8.324
 2613POPC   C3B35685  43.420   1.006   7.965
 2613POPC   C4B35686  43.424   1.153   7.511
 2614POPC   NC335687  24.181  40.560   9.555
 2614POPC   PO435688  24.876  40.726   9.554
 2614POPC   GL135689  24.574  40.718   9.211
 2614POPC   GL235690  24.312  40.993   9.258
 2614POPC   C1A35691  24.457  40.582   8.778
 2614POPC   D2A35692  24.339  40.556   8.322
 2614POPC   C3A35693  24.534  40.403   7.914
 2614POPC   C4A35694  24.455  40.591   7.470
 2614POPC   C1B35695  24.218  41.053   8.812
 2614POPC   C2B35696  24.261  41.072   8.354
 2614POPC   C3B35697  24.337  40.895   7.926
 2614POPC   C4B35698  24.650  41.055   7.635
 2615POPC   NC335699  28.744   6.080   9.423
 2615POPC   PO435700  28.061   5.984   9.350
 2615POPC   GL135701  28.357   5.845   9.106
 2615POPC   GL235702  28.245   5.518   9.154
 2615POPC   C1A35703  28.340   5.999   8.707
 2615POPC   D2A35704  28.544   5.902   8.364
 2615POPC   C3A35705  28.538   6.194   8.048
 2615POPC   C4A35706  28.515   6.020   7.670
 2615POPC   C1B35707  27.973   5.619   8.806
 2615POPC   C2B35708  28.102   5.652   8.396
 2615POPC   C3B35709  28.083   5.929   8.071
 2615POPC   C4B35710  28.019   5.742   7.716
 2616POPC   NC335711  11.082   7.213   9.562
 2616POPC   PO435712  10.400   7.457   9.545
 2616POPC   GL135713  10.572   7.198   9.242
 2616POPC   GL235714  10.793   7.446   9.193
 2616POPC   C1A35715  10.466   7.300   8.813
 2616POPC   D2A35716  10.534   7.181   8.405
 2616POPC   C3A35717  10.332   7.257   8.011
 2616POPC   C4A35718  10.554   7.165   7.653
 2616POPC   C1B35719  10.889   7.636   8.816
 2616POPC   C2B35720  10.681   7.691   8.431
 2616POPC   C3B35721  10.771   7.489   8.032
 2616POPC   C4B35722  10.589   7.685   7.689
 2617POPC   NC335723  37.348  23.008   9.551
 2617POPC   PO435724  36.742  23.162   9.988
 2617POPC   GL135725  36.825  23.020   9.440
 2617POPC   GL235726  36.609  22.796   9.180
 2617POPC   C1A35727  37.043  22.958   8.946
 2617POPC   D2A35728  37.207  23.102   8.494
 2617POPC   C3A35729  37.217  22.863   8.064
 2617POPC   C4A35730  37.207  23.142   7.718
 2617POPC   C1B35731  36.697  22.589   8.777
 2617POPC   C2B35732  36.806  22.812   8.373
 2617POPC   C3B35733  36.760  23.034   7.955
 2617POPC   C4B35734  36.805  22.872   7.539
 2618POPC   NC335735   4.414  41.085   9.306
 2618POPC   PO435736   3.901  40.836   9.556
 2618POPC   GL135737   4.110  40.673   9.164
 2618POPC   GL235738   4.008  40.377   9.013
 2618POPC   C1A35739   4.319  40.707   8.745
 2618POPC   D2A35740   4.639  40.922   8.466
 2618POPC   C3A35741   4.550  40.902   8.021
 2618POPC   C4A35742   4.682  40.897   7.592
 2618POPC   C1B35743   3.924  40.409   8.592
 2618POPC   C2B35744   4.140  40.529   8.261
 2618POPC   C3B35745   4.090  40.468   7.847
 2618POPC   C4B35746   4.168  40.853   7.639
 2619POPC   NC335747   7.042   6.413   9.381
 2619POPC   PO435748   7.559   6.689   9.661
 2619POPC   GL135749   7.488   6.679   9.220
 2619POPC   GL235750   7.502   6.310   9.220
 2619POPC   C1A35751   7.332   6.886   8.822
 2619POPC   D2A35752   7.027   6.740   8.521
 2619POPC   C3A35753   7.192   6.669   8.100
 2619POPC   C4A35754   7.194   6.941   7.768
 2619POPC   C1B35755   7.376   6.367   8.795
 2619POPC   C2B35756   7.548   6.395   8.393
 2619POPC   C3B35757   7.647   6.268   7.989
 2619POPC   C4B35758   7.499   6.507   7.701
 2620POPC   NC335759  15.202   4.833   9.527
 2620POPC   PO435760  15.343   5.530   9.512
 2620POPC   GL135761  15.421   5.174   9.207
 2620POPC   GL235762  15.077   5.151   9.151
 2620POPC   C1A35763  15.345   5.023   8.758
 2620POPC   D2A35764  15.434   5.209   8.392
 2620POPC   C3A35765  15.181   5.311   8.081
 2620POPC   C4A35766  15.276   5.271   7.685
 2620POPC   C1B35767  14.803   4.981   8.859
 2620POPC   C2B35768  14.817   5.051   8.419
 2620POPC   C3B35769  15.013   4.841   8.067
 2620POPC   C4B35770  14.934   4.883   7.637
 2621POPC   NC335771  12.040  24.333   9.473
 2621POPC   PO435772  12.503  24.832   9.387
 2621POPC   GL135773  12.168  24.691   9.108
 2621POPC   GL235774  12.142  24.342   8.996
 2621POPC   C1A35775  11.830  24.754   8.813
 2621POPC   D2A35776  11.745  24.893   8.399
 2621POPC   C3A35777  11.815  24.674   8.007
 2621POPC   C4A35778  12.130  24.669   7.675
 2621POPC   C1B35779  12.185  24.436   8.609
 2621POPC   C2B35780  12.046  24.286   8.266
 2621POPC   C3B35781  12.288  24.260   7.914
 2621POPC   C4B35782  12.290  24.179   7.515
 2622POPC   NC335783  12.572  22.391   9.349
 2622POPC   PO435784  13.119  22.593   9.476
 2622POPC   GL135785  13.034  22.388   9.094
 2622POPC   GL235786  13.205  22.108   9.163
 2622POPC   C1A35787  12.785  22.365   8.719
 2622POPC   D2A35788  12.700  22.134   8.348
 2622POPC   C3A35789  12.710  22.204   7.904
 2622POPC   C4A35790  12.618  21.817   7.733
 2622POPC   C1B35791  13.061  21.928   8.794
 2622POPC   C2B35792  12.986  21.697   8.438
 2622POPC   C3B35793  13.058  21.853   8.046
 2622POPC   C4B35794  13.079  21.613   7.717
 2623POPC   NC335795  42.085   9.093   9.505
 2623POPC   PO435796  41.476   8.781   9.503
 2623POPC   GL135797  41.679   8.759   9.115
 2623POPC   GL235798  41.813   9.047   9.041
 2623POPC   C1A35799  41.675   8.703   8.684
 2623POPC   D2A35800  41.588   8.995   8.361
 2623POPC   C3A35801  41.403   8.839   7.999
 2623POPC   C4A35802  41.501   8.771   7.575
 2623POPC   C1B35803  42.019   9.159   8.653
 2623POPC   C2B35804  41.987   9.293   8.226
 2623POPC   C3B35805  41.799   9.109   7.849
 2623POPC   C4B35806  41.805   9.152   7.385
 2624POPC   NC335807   7.852  18.687   9.484
 2624POPC   PO435808   8.335  19.240   9.487
 2624POPC   GL135809   8.316  19.268   9.114
 2624POPC   GL235810   8.630  19.403   9.084
 2624POPC   C1A35811   8.040  19.113   8.831
 2624POPC   D2A35812   7.901  19.205   8.440
 2624POPC   C3A35813   8.065  19.020   8.099
 2624POPC   C4A35814   8.076  19.305   7.765
 2624POPC   C1B35815   8.575  19.273   8.670
 2624POPC   C2B35816   8.414  19.369   8.286
 2624POPC   C3B35817   8.527  19.138   7.910
 2624POPC   C4B35818   8.409  18.793   7.696
 2625POPC   NC335819  33.399  12.657   9.458
 2625POPC   PO435820  34.052  13.024   9.518
 2625POPC   GL135821  33.773  12.895   9.200
 2625POPC   GL235822  33.829  12.579   9.128
 2625POPC   C1A35823  33.633  12.913   8.788
 2625POPC   D2A35824  33.889  12.969   8.426
 2625POPC   C3A35825  33.760  12.787   8.061
 2625POPC   C4A35826  33.855  12.644   7.678
 2625POPC   C1B35827  34.054  12.601   8.757
 2625POPC   C2B35828  34.274  12.614   8.400
 2625POPC   C3B35829  34.190  12.516   8.027
 2625POPC   C4B35830  34.339  12.668   7.596
 2626POPC   NC335831  31.506   9.335   9.146
 2626POPC   PO435832  31.714   9.762   9.654
 2626POPC   GL135833  31.577   9.852   9.225
 2626POPC   GL235834  31.890   9.696   9.112
 2626POPC   C1A35835  31.270   9.864   8.841
 2626POPC   D2A35836  31.357   9.681   8.406
 2626POPC   C3A35837  31.100   9.786   8.008
 2626POPC   C4A35838  31.007   9.935   7.571
 2626POPC   C1B35839  31.758   9.840   8.705
 2626POPC   C2B35840  31.883   9.901   8.285
 2626POPC   C3B35841  31.676   9.632   8.000
 2626POPC   C4B35842  31.613   9.570   7.555
 2627POPC   NC335843  42.362  15.144   9.602
 2627POPC   PO435844  41.773  15.055   9.263
 2627POPC   GL135845  42.182  14.919   9.135
 2627POPC   GL235846  42.240  15.189   8.984
 2627POPC   C1A35847  42.546  14.846   8.813
 2627POPC   D2A35848  42.671  15.042   8.435
 2627POPC   C3A35849  42.531  15.025   8.019
 2627POPC   C4A35850  42.316  15.154   7.652
 2627POPC   C1B35851  42.066  15.342   8.603
 2627POPC   C2B35852  42.032  15.276   8.166
 2627POPC   C3B35853  41.979  15.546   7.830
 2627POPC   C4B35854  42.022  15.511   7.408
 2628POPC   NC335855  15.688   1.473   9.515
 2628POPC   PO435856  16.083   0.882   9.486
 2628POPC   GL135857  15.908   1.131   9.216
 2628POPC   GL235858  15.589   1.009   9.312
 2628POPC   C1A35859  15.937   1.308   8.799
 2628POPC   D2A35860  16.201   1.393   8.424
 2628POPC   C3A35861  16.081   1.207   8.027
 2628POPC   C4A35862  15.771   1.342   7.692
 2628POPC   C1B35863  15.607   0.925   8.882
 2628POPC   C2B35864  15.736   0.978   8.440
 2628POPC   C3B35865  15.729   0.819   8.003
 2628POPC   C4B35866  15.522   0.710   7.603
 2629POPC   NC335867   3.338  31.994   9.809
 2629POPC   PO435868   3.698  32.417   9.444
 2629POPC   GL135869   3.490  32.151   9.181
 2629POPC   GL235870   3.710  32.280   8.938
 2629POPC   C1A35871   3.273  32.149   8.759
 2629POPC   D2A35872   3.405  32.386   8.394
 2629POPC   C3A35873   3.253  32.308   7.968
 2629POPC   C4A35874   3.547  32.309   7.637
 2629POPC   C1B35875   3.791  31.878   8.788
 2629POPC   C2B35876   3.840  31.788   8.360
 2629POPC   C3B35877   3.983  32.055   8.052
 2629POPC   C4B35878   3.929  31.977   7.618
 2630POPC   NC335879  16.092  14.308   9.493
 2630POPC   PO435880  15.490  14.516   9.607
 2630POPC   GL135881  15.708  14.458   9.188
 2630POPC   GL235882  16.029  14.292   9.009
 2630POPC   C1A35883  15.651  14.536   8.773
 2630POPC   D2A35884  15.727  14.339   8.388
 2630POPC   C3A35885  15.692  14.549   7.975
 2630POPC   C4A35886  15.661  14.345   7.558
 2630POPC   C1B35887  16.158  14.511   8.645
 2630POPC   C2B35888  16.182  14.531   8.202
 2630POPC   C3B35889  16.117  14.344   7.809
 2630POPC   C4B35890  16.151  14.533   7.413
 2631POPC   NC335891  42.676  23.193   9.385
 2631POPC   PO435892  42.493  23.788   9.508
 2631POPC   GL135893  42.459  23.664   9.109
 2631POPC   GL235894  42.239  23.410   9.076
 2631POPC   C1A35895  42.292  23.840   8.747
 2631POPC   D2A35896  42.106  23.835   8.357
 2631POPC   C3A35897  42.343  23.910   8.007
 2631POPC   C4A35898  42.278  24.125   7.664
 2631POPC   C1B35899  42.361  23.218   8.737
 2631POPC   C2B35900  42.258  23.327   8.329
 2631POPC   C3B35901  42.474  23.379   7.944
 2631POPC   C4B35902  42.312  23.419   7.520
 2632POPC   NC335903   5.949  28.995   9.458
 2632POPC   PO435904   5.383  29.292   9.563
 2632POPC   GL135905   5.744  29.491   9.296
 2632POPC   GL235906   6.045  29.313   9.074
 2632POPC   C1A35907   5.695  29.571   8.834
 2632POPC   D2A35908   5.879  29.291   8.499
 2632POPC   C3A35909   6.098  29.481   8.154
 2632POPC   C4A35910   5.912  29.436   7.747
 2632POPC   C1B35911   6.051  28.929   8.814
 2632POPC   C2B35912   5.962  28.741   8.421
 2632POPC   C3B35913   5.981  29.000   8.053
 2632POPC   C4B35914   6.219  29.035   7.684
 2633POPC   NC335915  13.680   4.255   9.514
 2633POPC   PO435916  13.170   4.692   9.483
 2633POPC   GL135917  13.316   4.469   9.130
 2633POPC   GL235918  13.668   4.572   9.120
 2633POPC   C1A35919  13.412   4.393   8.689
 2633POPC   D2A35920  13.214   4.461   8.288
 2633POPC   C3A35921  13.463   4.345   7.924
 2633POPC   C4A35922  13.699   4.172   7.615
 2633POPC   C1B35923  13.756   4.775   8.716
 2633POPC   C2B35924  13.698   4.623   8.297
 2633POPC   C3B35925  13.840   4.714   7.874
 2633POPC   C4B35926  13.640   4.663   7.476
 2634POPC   NC335927  29.279  28.300   9.509
 2634POPC   PO435928  28.911  28.790   9.533
 2634POPC   GL135929  29.033  28.620   9.145
 2634POPC   GL235930  29.038  28.257   9.042
 2634POPC   C1A35931  29.331  28.643   8.806
 2634POPC   D2A35932  29.211  28.475   8.409
 2634POPC   C3A35933  29.072  28.628   8.030
 2634POPC   C4A35934  29.252  28.615   7.597
 2634POPC   C1B35935  29.389  28.130   8.753
 2634POPC   C2B35936  29.551  28.102   8.305
 2634POPC   C3B35937  29.405  28.217   7.880
 2634POPC   C4B35938  29.364  28.107   7.412
 2635POPC   NC335939  11.294   8.190   9.513
 2635POPC   PO435940  11.802   7.773   9.281
 2635POPC   GL135941  11.468   8.030   9.073
 2635POPC   GL235942  11.072   8.016   9.103
 2635POPC   C1A35943  11.312   8.424   8.859
 2635POPC   D2A35944  11.329   8.528   8.403
 2635POPC   C3A35945  11.438   8.173   8.127
 2635POPC   C4A35946  11.419   8.024   7.693
 2635POPC   C1B35947  11.236   7.979   8.643
 2635POPC   C2B35948  11.151   7.764   8.284
 2635POPC   C3B35949  10.970   7.935   7.916
 2635POPC   C4B35950  10.964   7.949   7.455
 2636POPC   NC335951  30.964   4.895   9.551
 2636POPC   PO435952  30.475   5.360   9.485
 2636POPC   GL135953  30.691   5.080   9.144
 2636POPC   GL235954  31.067   5.111   9.103
 2636POPC   C1A35955  30.677   4.956   8.688
 2636POPC   D2A35956  30.484   4.929   8.279
 2636POPC   C3A35957  30.766   4.848   7.917
 2636POPC   C4A35958  30.582   5.019   7.555
 2636POPC   C1B35959  31.005   5.355   8.748
 2636POPC   C2B35960  30.805   5.355   8.350
 2636POPC   C3B35961  30.795   5.352   7.912
 2636POPC   C4B35962  31.127   5.457   7.648
 2637POPC   NC335963  17.595  43.644   9.624
 2637POPC   PO435964  17.043  43.841   9.509
 2637POPC   GL135965  17.316  43.702   9.154
 2637POPC   GL235966  17.606  43.866   9.160
 2637POPC   C1A35967  17.238  43.795   8.713
 2637POPC   D2A35968  17.446  43.649   8.331
 2637POPC   C3A35969  17.239  43.871   8.026
 2637POPC   C4A35970  17.092  43.690   7.665
 2637POPC   C1B35971  17.746  43.803   8.726
 2637POPC   C2B35972  17.905  43.871   8.284
 2637POPC   C3B35973  17.715  43.822   7.885
 2637POPC   C4B35974  17.680  44.156   7.548
 2638POPC   NC335975  43.858   2.408   9.492
 2638POPC   PO435976  44.076   2.981   9.262
 2638POPC   GL135977  43.931   2.660   9.021
 2638POPC   GL235978  44.216   2.443   9.059
 2638POPC   C1A35979  43.917   2.730   8.571
 2638POPC   D2A35980  44.081   2.480   8.224
 2638POPC   C3A35981  43.759   2.585   7.910
 2638POPC   C4A35982  43.744   2.993   7.730
 2638POPC   C1B35983  44.413   2.652   8.671
 2638POPC   C2B35984  44.332   2.967   8.292
 2638POPC   C3B35985  44.218   2.838   7.854
 2638POPC   C4B35986  44.163   2.380   7.709
 2639POPC   NC335987  12.987   5.874   9.359
 2639POPC   PO435988  12.458   6.308   9.494
 2639POPC   GL135989  12.518   6.002   9.119
 2639POPC   GL235990  12.591   5.624   9.096
 2639POPC   C1A35991  12.673   5.882   8.684
 2639POPC   D2A35992  12.568   5.782   8.277
 2639POPC   C3A35993  12.895   5.806   7.999
 2639POPC   C4A35994  12.704   5.901   7.619
 2639POPC   C1B35995  13.017   5.501   8.786
 2639POPC   C2B35996  13.232   5.518   8.365
 2639POPC   C3B35997  13.276   5.376   7.938
 2639POPC   C4B35998  12.984   5.458   7.636
 2640POPC   NC335999  40.028  16.216   9.244
 2640POPC   PO436000  39.679  15.656   9.416
 2640POPC   GL136001  39.913  15.685   9.047
 2640POPC   GL236002  40.261  15.761   9.072
 2640POPC   C1A36003  39.984  15.862   8.639
 2640POPC   D2A36004  40.031  16.047   8.235
 2640POPC   C3A36005  39.801  15.822   7.891
 2640POPC   C4A36006  39.683  15.844   7.397
 2640POPC   C1B36007  40.487  15.863   8.647
 2640POPC   C2B36008  40.481  15.784   8.201
 2640POPC   C3B36009  40.284  15.887   7.787
 2640POPC   C4B36010  39.988  16.224   7.587
 2641POPC   NC336011  14.785  28.545   9.542
 2641POPC   PO436012  14.146  28.304   9.473
 2641POPC   GL136013  14.377  28.502   9.136
 2641POPC   GL236014  14.087  28.700   9.043
 2641POPC   C1A36015  14.592  28.406   8.707
 2641POPC   D2A36016  14.606  28.594   8.309
 2641POPC   C3A36017  14.527  28.331   7.949
 2641POPC   C4A36018  14.831  28.116   7.702
 2641POPC   C1B36019  14.108  28.505   8.630
 2641POPC   C2B36020  14.062  28.383   8.198
 2641POPC   C3B36021  13.979  28.508   7.790
 2641POPC   C4B36022  14.167  28.705   7.479
 2642POPC   NC336023   4.159   4.267   9.781
 2642POPC   PO436024   4.645   4.016   9.643
 2642POPC   GL136025   4.334   4.181   9.299
 2642POPC   GL236026   3.971   4.085   9.321
 2642POPC   C1A36027   4.314   4.278   8.843
 2642POPC   D2A36028   4.175   4.221   8.413
 2642POPC   C3A36029   4.267   4.513   8.086
 2642POPC   C4A36030   4.215   4.778   7.683
 2642POPC   C1B36031   3.868   4.002   8.856
 2642POPC   C2B36032   3.687   4.003   8.421
 2642POPC   C3B36033   3.934   3.954   8.038
 2642POPC   C4B36034   4.300   4.093   7.777
 2643POPC   NC336035  16.880   6.226   9.317
 2643POPC   PO436036  16.584   6.884   9.390
 2643POPC   GL136037  16.873   6.745   9.101
 2643POPC   GL236038  17.174   6.940   9.073
 2643POPC   C1A36039  16.812   6.509   8.718
 2643POPC   D2A36040  16.562   6.463   8.322
 2643POPC   C3A36041  16.765   6.470   7.903
 2643POPC   C4A36042  16.647   6.378   7.463
 2643POPC   C1B36043  17.203   7.020   8.675
 2643POPC   C2B36044  16.971   6.804   8.345
 2643POPC   C3B36045  16.676   6.933   8.063
 2643POPC   C4B36046  16.891   6.901   7.664
 2644POPC   NC336047   1.429   8.723   9.422
 2644POPC   PO436048   1.760   9.326   9.351
 2644POPC   GL136049   1.373   9.252   9.145
 2644POPC   GL236050   1.174   8.957   9.059
 2644POPC   C1A36051   1.146   9.415   8.808
 2644POPC   D2A36052   0.958   9.260   8.464
 2644POPC   C3A36053   1.107   8.944   8.205
 2644POPC   C4A36054   1.387   8.884   7.854
 2644POPC   C1B36055   0.958   8.785   8.710
 2644POPC   C2B36056   0.638   8.835   8.402
 2644POPC   C3B36057   0.656   8.828   7.950
 2644POPC   C4B36058   0.938   9.062   7.737
 2645POPC   NC336059  31.228   8.366   9.489
 2645POPC   PO436060  31.674   7.939   9.465
 2645POPC   GL136061  31.471   8.129   9.067
 2645POPC   GL236062  31.233   8.410   9.001
 2645POPC   C1A36063  31.605   8.351   8.669
 2645POPC   D2A36064  31.524   8.600   8.294
 2645POPC   C3A36065  31.740   8.353   7.978
 2645POPC   C4A36066  31.570   7.991   7.765
 2645POPC   C1B36067  31.057   8.243   8.660
 2645POPC   C2B36068  31.062   8.337   8.244
 2645POPC   C3B36069  31.228   8.348   7.846
 2645POPC   C4B36070  31.171   8.197   7.394
 2646POPC   NC336071  44.431   7.710   9.630
 2646POPC   PO436072  43.747   7.739   9.414
 2646POPC   GL136073  43.985   7.436   9.175
 2646POPC   GL236074  43.710   7.249   9.090
 2646POPC   C1A36075  44.042   7.461   8.718
 2646POPC   D2A36076  43.842   7.598   8.330
 2646POPC   C3A36077  44.086   7.501   7.964
 2646POPC   C4A36078  44.004   7.420   7.533
 2646POPC   C1B36079  43.774   7.004   8.772
 2646POPC   C2B36080  43.776   7.097   8.342
 2646POPC   C3B36081  43.821   7.068   7.915
 2646POPC   C4B36082  43.756   6.994   7.469
 2647POPC   NC336083  42.207  11.742   9.571
 2647POPC   PO436084  42.380  11.135   9.891
 2647POPC   GL136085  42.277  11.236   9.356
 2647POPC   GL236086  42.478  11.496   9.194
 2647POPC   C1A36087  42.163  11.188   8.881
 2647POPC   D2A36088  42.187  10.985   8.465
 2647POPC   C3A36089  42.210  11.273   8.105
 2647POPC   C4A36090  42.093  11.360   7.670
 2647POPC   C1B36091  42.664  11.248   8.897
 2647POPC   C2B36092  42.559  11.365   8.494
 2647POPC   C3B36093  42.679  11.440   8.086
 2647POPC   C4B36094  42.608  11.242   7.717
 2648POPC   NC336095  21.816  18.018   9.333
 2648POPC   PO436096  22.342  18.360   9.563
 2648POPC   GL136097  22.156  18.432   9.155
 2648POPC   GL236098  21.794  18.469   9.053
 2648POPC   C1A36099  22.254  18.373   8.744
 2648POPC   D2A36100  22.111  18.197   8.371
 2648POPC   C3A36101  22.298  18.407   8.043
 2648POPC   C4A36102  22.522  18.329   7.707
 2648POPC   C1B36103  21.740  18.517   8.586
 2648POPC   C2B36104  21.651  18.309   8.207
 2648POPC   C3B36105  21.898  18.169   7.871
 2648POPC   C4B36106  22.016  18.444   7.535
 2649POPC   NC336107  10.846  35.415   9.656
 2649POPC   PO436108  11.590  35.386   9.645
 2649POPC   GL136109  11.604  35.399   9.187
 2649POPC   GL236110  11.641  35.053   9.163
 2649POPC   C1A36111  11.420  35.462   8.740
 2649POPC   D2A36112  11.180  35.293   8.403
 2649POPC   C3A36113  11.287  35.498   8.021
 2649POPC   C4A36114  11.036  35.643   7.677
 2649POPC   C1B36115  11.393  34.957   8.801
 2649POPC   C2B36116  11.206  34.780   8.432
 2649POPC   C3B36117  11.058  34.947   8.034
 2649POPC   C4B36118  11.232  35.132   7.682
 2650POPC   NC336119  14.162  27.079   9.468
 2650POPC   PO436120  14.365  26.438   9.617
 2650POPC   GL136121  14.370  26.698   9.201
 2650POPC   GL236122  14.562  27.052   9.149
 2650POPC   C1A36123  14.215  26.897   8.803
 2650POPC   D2A36124  14.080  26.840   8.379
 2650POPC   C3A36125  14.359  26.875   8.033
 2650POPC   C4A36126  14.215  26.858   7.621
 2650POPC   C1B36127  14.774  27.293   8.799
 2650POPC   C2B36128  14.930  27.265   8.353
 2650POPC   C3B36129  14.903  27.160   7.911
 2650POPC   C4B36130  14.645  27.118   7.539
 2651POPC   NC336131  23.687  27.836   9.342
 2651POPC   PO436132  24.002  27.312   9.665
 2651POPC   GL136133  23.786  27.220   9.211
 2651POPC   GL236134  23.419  27.341   9.216
 2651POPC   C1A36135  23.978  27.205   8.764
 2651POPC   D2A36136  24.014  27.567   8.469
 2651POPC   C3A36137  23.950  27.441   8.047
 2651POPC   C4A36138  23.875  27.351   7.610
 2651POPC   C1B36139  23.530  27.464   8.782
 2651POPC   C2B36140  23.499  27.391   8.335
 2651POPC   C3B36141  23.371  27.481   7.905
 2651POPC   C4B36142  23.469  27.615   7.443
 2652POPC   NC336143  25.851  39.921   9.804
 2652POPC   PO436144  26.155  40.513   9.621
 2652POPC   GL136145  26.066  40.334   9.176
 2652POPC   GL236146  25.861  40.003   9.234
 2652POPC   C1A36147  26.012  40.218   8.690
 2652POPC   D2A36148  26.155  39.950   8.289
 2652POPC   C3A36149  25.976  39.743   7.883
 2652POPC   C4A36150  25.947  39.843   7.380
 2652POPC   C1B36151  25.723  39.794   8.837
 2652POPC   C2B36152  25.666  39.745   8.377
 2652POPC   C3B36153  25.632  40.107   8.078
 2652POPC   C4B36154  25.822  40.245   7.709
 2653POPC   NC336155  32.299  36.832   9.638
 2653POPC   PO436156  32.223  37.439   9.769
 2653POPC   GL136157  32.336  37.214   9.307
 2653POPC   GL236158  32.492  36.847   9.172
 2653POPC   C1A36159  32.373  37.187   8.836
 2653POPC   D2A36160  32.271  36.945   8.464
 2653POPC   C3A36161  32.423  36.994   8.048
 2653POPC   C4A36162  32.306  37.106   7.608
 2653POPC   C1B36163  32.114  36.708   8.922
 2653POPC   C2B36164  31.991  36.518   8.526
 2653POPC   C3B36165  32.118  36.569   8.108
 2653POPC   C4B36166  32.234  36.608   7.703
 2654POPC   NC336167  11.983  33.743   9.709
 2654POPC   PO436168  12.315  33.334   9.324
 2654POPC   GL136169  12.090  33.657   9.176
 2654POPC   GL236170  12.181  33.961   9.212
 2654POPC   C1A36171  11.966  33.652   8.765
 2654POPC   D2A36172  12.096  33.418   8.368
 2654POPC   C3A36173  11.879  33.507   7.976
 2654POPC   C4A36174  11.934  33.772   7.602
 2654POPC   C1B36175  12.393  33.967   8.817
 2654POPC   C2B36176  12.222  33.939   8.422
 2654POPC   C3B36177  12.086  34.008   8.028
 2654POPC   C4B36178  12.287  34.188   7.684
 2655POPC   NC336179  23.061  17.238   9.282
 2655POPC   PO436180  23.188  17.858   9.576
 2655POPC   GL136181  23.077  17.835   9.162
 2655POPC   GL236182  22.753  17.677   9.152
 2655POPC   C1A36183  23.071  17.751   8.728
 2655POPC   D2A36184  23.045  17.981   8.351
 2655POPC   C3A36185  23.204  17.739   8.016
 2655POPC   C4A36186  23.131  17.525   7.616
 2655POPC   C1B36187  22.577  17.542   8.744
 2655POPC   C2B36188  22.680  17.235   8.451
 2655POPC   C3B36189  22.908  17.275   8.058
 2655POPC   C4B36190  22.725  17.219   7.664
 2656POPC   NC336191  30.504  30.396   9.551
 2656POPC   PO436192  30.696  31.186   9.633
 2656POPC   GL136193  30.583  30.930   9.281
 2656POPC   GL236194  30.853  30.690   9.200
 2656POPC   C1A36195  30.670  31.009   8.824
 2656POPC   D2A36196  30.844  30.775   8.499
 2656POPC   C3A36197  30.711  30.895   8.084
 2656POPC   C4A36198  31.054  30.717   7.848
 2656POPC   C1B36199  30.537  30.530   8.902
 2656POPC   C2B36200  30.512  30.391   8.463
 2656POPC   C3B36201  30.759  30.388   8.108
 2656POPC   C4B36202  30.580  30.517   7.741
 2657POPC   NC336203   0.353  23.897   9.509
 2657POPC   PO436204   0.102  23.228   9.486
 2657POPC   GL136205   0.115  23.521   9.187
 2657POPC   GL236206   0.480  23.558   9.124
 2657POPC   C1A36207   0.038  23.656   8.773
 2657POPC   D2A36208   0.273  23.636   8.406
 2657POPC   C3A36209   0.204  23.791   7.997
 2657POPC   C4A36210   0.514  23.632   7.782
 2657POPC   C1B36211   0.472  23.932   8.828
 2657POPC   C2B36212   0.531  24.078   8.381
 2657POPC   C3B36213   0.774  24.021   8.006
 2657POPC   C4B36214   0.835  23.951   7.573
 2658POPC   NC336215  38.819   4.935   9.619
 2658POPC   PO436216  39.291   5.332   9.514
 2658POPC   GL136217  39.174   4.969   9.240
 2658POPC   GL236218  38.861   5.108   9.120
 2658POPC   C1A36219  39.176   4.822   8.794
 2658POPC   D2A36220  39.308   5.077   8.418
 2658POPC   C3A36221  39.343   4.971   7.947
 2658POPC   C4A36222  39.360   5.160   7.508
 2658POPC   C1B36223  38.797   5.157   8.652
 2658POPC   C2B36224  38.845   5.039   8.208
 2658POPC   C3B36225  38.857   5.101   7.748
 2658POPC   C4B36226  38.882   5.117   7.280
 2659POPC   NC336227  36.022  38.735   9.610
 2659POPC   PO436228  36.030  38.148   9.263
 2659POPC   GL136229  36.167  38.392   8.969
 2659POPC   GL236230  35.963  38.647   9.102
 2659POPC   C1A36231  36.335  38.340   8.561
 2659POPC   D2A36232  36.383  38.030   8.245
 2659POPC   C3A36233  36.206  38.228   7.924
 2659POPC   C4A36234  36.404  38.563   7.731
 2659POPC   C1B36235  35.811  38.589   8.670
 2659POPC   C2B36236  35.858  38.463   8.271
 2659POPC   C3B36237  35.929  38.646   7.903
 2659POPC   C4B36238  35.684  38.657   7.556
 2660POPC   NC336239  16.380  37.280   9.596
 2660POPC   PO436240  16.952  36.834   9.620
 2660POPC   GL136241  16.694  36.920   9.255
 2660POPC   GL236242  17.030  36.882   9.110
 2660POPC   C1A36243  16.632  36.897   8.797
 2660POPC   D2A36244  16.788  36.747   8.368
 2660POPC   C3A36245  16.566  36.875   8.002
 2660POPC   C4A36246  16.419  37.278   7.850
 2660POPC   C1B36247  17.169  36.783   8.717
 2660POPC   C2B36248  17.302  36.656   8.292
 2660POPC   C3B36249  17.092  36.788   7.893
 2660POPC   C4B36250  16.890  36.507   7.599
 2661POPC   NC336251  25.828  20.655   9.485
 2661POPC   PO436252  26.289  20.088   9.449
 2661POPC   GL136253  26.333  20.433   9.161
 2661POPC   GL236254  26.251  20.796   9.201
 2661POPC   C1A36255  26.447  20.587   8.764
 2661POPC   D2A36256  26.337  20.907   8.460
 2661POPC   C3A36257  26.305  20.711   8.081
 2661POPC   C4A36258  26.029  20.608   7.757
 2661POPC   C1B36259  25.969  20.782   8.830
 2661POPC   C2B36260  25.832  20.884   8.395
 2661POPC   C3B36261  25.615  20.829   8.010
 2661POPC   C4B36262  25.615  20.950   7.597
 2662POPC   NC336263  36.834   9.522   9.963
 2662POPC   PO436264  36.731   9.988   9.673
 2662POPC   GL136265  36.863   9.853   9.204
 2662POPC   GL236266  37.103  10.087   9.037
 2662POPC   C1A36267  36.985   9.694   8.741
 2662POPC   D2A36268  36.760   9.708   8.326
 2662POPC   C3A36269  36.931   9.600   7.895
 2662POPC   C4A36270  37.218   9.400   7.548
 2662POPC   C1B36271  36.712  10.152   8.807
 2662POPC   C2B36272  36.607  10.311   8.409
 2662POPC   C3B36273  36.687  10.115   8.035
 2662POPC   C4B36274  36.464   9.793   7.803
 2663POPC   NC336275  33.454  33.514   9.357
 2663POPC   PO436276  32.873  33.296   9.558
 2663POPC   GL136277  33.156  33.074   9.258
 2663POPC   GL236278  33.498  32.960   9.302
 2663POPC   C1A36279  33.045  32.859   8.857
 2663POPC   D2A36280  32.722  32.930   8.495
 2663POPC   C3A36281  32.903  32.912   8.103
 2663POPC   C4A36282  32.830  32.697   7.728
 2663POPC   C1B36283  33.454  33.147   8.839
 2663POPC   C2B36284  33.177  33.175   8.469
 2663POPC   C3B36285  33.373  33.144   8.059
 2663POPC   C4B36286  33.259  32.973   7.682
 2664POPC   NC336287  17.948  13.331   9.422
 2664POPC   PO436288  18.581  13.554   9.506
 2664POPC   GL136289  18.322  13.567   9.162
 2664POPC   GL236290  18.310  13.211   9.093
 2664POPC   C1A36291  18.422  13.786   8.812
 2664POPC   D2A36292  18.642  13.614   8.461
 2664POPC   C3A36293  18.345  13.598   8.134
 2664POPC   C4A36294  18.228  13.807   7.737
 2664POPC   C1B36295  18.395  13.206   8.683
 2664POPC   C2B36296  18.245  13.101   8.311
 2664POPC   C3B36297  18.163  13.178   7.894
 2664POPC   C4B36298  17.803  13.283   7.723
 2665POPC   NC336299  13.856  20.513   9.523
 2665POPC   PO436300  13.250  20.703   9.629
 2665POPC   GL136301  13.506  20.823   9.249
 2665POPC   GL236302  13.697  20.552   9.038
 2665POPC   C1A36303  13.415  20.949   8.823
 2665POPC   D2A36304  13.533  20.683   8.470
 2665POPC   C3A36305  13.574  20.801   8.010
 2665POPC   C4A36306  13.615  20.434   7.697
 2665POPC   C1B36307  13.918  20.898   8.805
 2665POPC   C2B36308  13.939  20.975   8.368
 2665POPC   C3B36309  14.102  20.789   8.010
 2665POPC   C4B36310  13.931  20.825   7.624
 2666POPC   NC336311  11.591   5.877   9.626
 2666POPC   PO436312  10.968   6.012   9.485
 2666POPC   GL136313  11.244   6.007   9.154
 2666POPC   GL236314  11.524   6.207   9.176
 2666POPC   C1A36315  11.138   5.910   8.741
 2666POPC   D2A36316  10.961   5.805   8.348
 2666POPC   C3A36317  11.176   5.884   7.971
 2666POPC   C4A36318  11.025   5.853   7.549
 2666POPC   C1B36319  11.620   6.082   8.760
 2666POPC   C2B36320  11.514   6.021   8.347
 2666POPC   C3B36321  11.612   6.185   7.943
 2666POPC   C4B36322  11.570   5.914   7.585
 2667POPC   NC336323  20.457  13.079   9.443
 2667POPC   PO436324  20.342  12.375   9.476
 2667POPC   GL136325  20.401  12.648   9.178
 2667POPC   GL236326  20.749  12.719   9.207
 2667POPC   C1A36327  20.352  12.863   8.809
 2667POPC   D2A36328  20.490  12.670   8.446
 2667POPC   C3A36329  20.541  12.958   8.092
 2667POPC   C4A36330  20.536  12.801   7.727
 2667POPC   C1B36331  20.869  12.856   8.810
 2667POPC   C2B36332  20.944  12.891   8.378
 2667POPC   C3B36333  20.908  12.558   8.024
 2667POPC   C4B36334  20.939  12.538   7.540
 2668POPC   NC336335  24.341   2.181   9.810
 2668POPC   PO436336  23.683   2.124   9.617
 2668POPC   GL136337  23.763   2.046   9.170
 2668POPC   GL236338  23.778   1.681   9.221
 2668POPC   C1A36339  23.798   2.214   8.759
 2668POPC   D2A36340  23.683   2.455   8.378
 2668POPC   C3A36341  23.790   2.227   8.019
 2668POPC   C4A36342  23.805   1.968   7.650
 2668POPC   C1B36343  24.005   1.716   8.849
 2668POPC   C2B36344  23.843   1.811   8.447
 2668POPC   C3B36345  23.946   1.711   8.051
 2668POPC   C4B36346  24.154   1.544   7.692
 2669POPC   NC336347  18.951  10.357   9.529
 2669POPC   PO436348  19.067   9.664   9.480
 2669POPC   GL136349  18.858   9.706   9.119
 2669POPC   GL236350  18.776  10.051   9.149
 2669POPC   C1A36351  19.014   9.659   8.697
 2669POPC   D2A36352  18.964   9.404   8.316
 2669POPC   C3A36353  19.184   9.650   8.013
 2669POPC   C4A36354  19.071   9.759   7.606
 2669POPC   C1B36355  18.601   9.957   8.742
 2669POPC   C2B36356  18.758  10.091   8.332
 2669POPC   C3B36357  18.706  10.314   7.969
 2669POPC   C4B36358  18.767  10.188   7.586
 2670POPC   NC336359   1.592   1.037   9.525
 2670POPC   PO436360   2.153   1.267   9.469
 2670POPC   GL136361   1.886   1.282   9.137
 2670POPC   GL236362   1.663   1.006   9.027
 2670POPC   C1A36363   2.034   1.205   8.746
 2670POPC   D2A36364   1.796   1.003   8.416
 2670POPC   C3A36365   1.967   1.124   8.017
 2670POPC   C4A36366   2.199   0.875   7.711
 2670POPC   C1B36367   1.568   1.372   8.753
 2670POPC   C2B36368   1.662   1.498   8.340
 2670POPC   C3B36369   1.521   1.332   7.930
 2670POPC   C4B36370   1.613   0.877   7.769
 2671POPC   NC336371  21.079   8.990   9.515
 2671POPC   PO436372  20.486   8.666   9.445
 2671POPC   GL136373  20.598   8.882   9.072
 2671POPC   GL236374  20.877   9.120   9.075
 2671POPC   C1A36375  20.403   8.840   8.674
 2671POPC   D2A36376  20.451   8.582   8.311
 2671POPC   C3A36377  20.355   8.788   7.899
 2671POPC   C4A36378  20.130   8.914   7.512
 2671POPC   C1B36379  20.806   9.131   8.647
 2671POPC   C2B36380  20.832   8.947   8.264
 2671POPC   C3B36381  20.730   9.134   7.882
 2671POPC   C4B36382  20.616   9.012   7.472
 2672POPC   NC336383  41.086  33.205   9.559
 2672POPC   PO436384  40.586  32.803   9.843
 2672POPC   GL136385  40.624  33.027   9.379
 2672POPC   GL236386  40.919  32.890   9.184
 2672POPC   C1A36387  40.667  33.246   8.927
 2672POPC   D2A36388  40.761  33.090   8.497
 2672POPC   C3A36389  40.635  33.126   8.046
 2672POPC   C4A36390  40.609  32.842   7.697
 2672POPC   C1B36391  41.126  32.852   8.761
 2672POPC   C2B36392  41.242  32.902   8.290
 2672POPC   C3B36393  41.213  32.883   7.808
 2672POPC   C4B36394  41.463  32.829   7.388
 2673POPC   NC336395   8.669  36.664   9.600
 2673POPC   PO436396   9.302  36.864   9.490
 2673POPC   GL136397   9.037  36.812   9.147
 2673POPC   GL236398   8.717  36.979   9.176
 2673POPC   C1A36399   9.069  37.033   8.770
 2673POPC   D2A36400   9.120  37.266   8.404
 2673POPC   C3A36401   9.117  36.976   8.057
 2673POPC   C4A36402   9.065  36.992   7.641
 2673POPC   C1B36403   8.606  36.799   8.762
 2673POPC   C2B36404   8.726  36.927   8.358
 2673POPC   C3B36405   8.656  36.771   7.922
 2673POPC   C4B36406   8.761  36.609   7.503
 2674POPC   NC336407  35.409  40.595   9.703
 2674POPC   PO436408  35.223  41.165   9.338
 2674POPC   GL136409  35.209  40.762   9.109
 2674POPC   GL236410  35.428  40.485   9.212
 2674POPC   C1A36411  35.306  40.883   8.703
 2674POPC   D2A36412  35.122  40.709   8.403
 2674POPC   C3A36413  35.402  40.801   8.144
 2674POPC   C4A36414  35.407  40.758   7.758
 2674POPC   C1B36415  35.474  40.428   8.774
 2674POPC   C2B36416  35.439  40.291   8.390
 2674POPC   C3B36417  35.648  40.373   8.048
 2674POPC   C4B36418  35.559  40.289   7.657
 2675POPC   NC336419  27.625  28.526   9.570
 2675POPC   PO436420  26.960  28.501   9.380
 2675POPC   GL136421  27.304  28.308   9.233
 2675POPC   GL236422  27.426  28.636   9.123
 2675POPC   C1A36423  27.612  28.213   8.898
 2675POPC   D2A36424  27.821  28.215   8.487
 2675POPC   C3A36425  27.630  28.193   8.069
 2675POPC   C4A36426  27.777  28.403   7.684
 2675POPC   C1B36427  27.620  28.707   8.735
 2675POPC   C2B36428  27.610  28.657   8.310
 2675POPC   C3B36429  27.387  28.643   7.924
 2675POPC   C4B36430  27.161  28.932   7.679
 2676POPC   NC336431  40.697   1.278   9.516
 2676POPC   PO436432  41.320   1.092   9.572
 2676POPC   GL136433  41.061   1.081   9.209
 2676POPC   GL236434  41.145   1.413   9.191
 2676POPC   C1A36435  40.777   1.157   8.847
 2676POPC   D2A36436  40.639   0.964   8.456
 2676POPC   C3A36437  40.500   1.163   8.073
 2676POPC   C4A36438  40.492   1.136   7.636
 2676POPC   C1B36439  41.120   1.538   8.775
 2676POPC   C2B36440  41.100   1.334   8.431
 2676POPC   C3B36441  41.216   1.212   8.063
 2676POPC   C4B36442  40.977   1.281   7.746
 2677POPC   NC336443   5.094   7.928   9.432
 2677POPC   PO436444   5.342   8.512   9.479
 2677POPC   GL136445   5.268   8.322   9.070
 2677POPC   GL236446   5.352   7.969   8.995
 2677POPC   C1A36447   5.098   8.287   8.650
 2677POPC   D2A36448   5.253   8.402   8.251
 2677POPC   C3A36449   4.969   8.425   7.889
 2677POPC   C4A36450   5.210   8.336   7.504
 2677POPC   C1B36451   5.201   7.792   8.601
 2677POPC   C2B36452   4.986   7.953   8.230
 2677POPC   C3B36453   5.255   8.010   7.886
 2677POPC   C4B36454   5.610   7.883   7.639
 2678POPC   NC336455  32.444  28.144   9.633
 2678POPC   PO436456  32.830  28.675   9.446
 2678POPC   GL136457  32.488  28.435   9.185
 2678POPC   GL236458  32.498  28.061   9.104
 2678POPC   C1A36459  32.178  28.365   8.824
 2678POPC   D2A36460  32.048  28.159   8.432
 2678POPC   C3A36461  32.314  28.181   8.040
 2678POPC   C4A36462  32.113  28.196   7.628
 2678POPC   C1B36463  32.655  28.226   8.718
 2678POPC   C2B36464  32.481  28.542   8.412
 2678POPC   C3B36465  32.529  28.671   7.977
 2678POPC   C4B36466  32.579  28.498   7.552
 2679POPC   NC336467  32.074  39.502   9.730
 2679POPC   PO436468  32.465  38.992   9.699
 2679POPC   GL136469  32.159  39.145   9.349
 2679POPC   GL236470  32.240  39.458   9.252
 2679POPC   C1A36471  32.056  39.186   8.874
 2679POPC   D2A36472  32.044  39.438   8.488
 2679POPC   C3A36473  32.101  39.240   8.101
 2679POPC   C4A36474  32.250  39.256   7.707
 2679POPC   C1B36475  32.485  39.458   8.844
 2679POPC   C2B36476  32.544  39.421   8.406
 2679POPC   C3B36477  32.386  39.669   8.067
 2679POPC   C4B36478  32.639  39.584   7.724
 2680POPC   NC336479  32.873  43.527   9.554
 2680POPC   PO436480  32.648  44.159   9.463
 2680POPC   GL136481  33.017  43.939   9.237
 2680POPC   GL236482  33.019  43.619   9.085
 2680POPC   C1A36483  33.198  43.998   8.808
 2680POPC   D2A36484  33.041  44.215   8.439
 2680POPC   C3A36485  32.845  44.093   8.030
 2680POPC   C4A36486  32.536  44.310   7.766
 2680POPC   C1B36487  32.789  43.708   8.719
 2680POPC   C2B36488  33.081  43.713   8.384
 2680POPC   C3B36489  33.189  43.708   7.966
 2680POPC   C4B36490  32.938  43.570   7.596
 2681POPC   NC336491  36.802  22.104   9.414
 2681POPC   PO436492  37.297  22.555   9.442
 2681POPC   GL136493  37.128  22.402   9.043
 2681POPC   GL236494  37.076  22.049   9.009
 2681POPC   C1A36495  37.101  22.353   8.578
 2681POPC   D2A36496  36.727  22.303   8.309
 2681POPC   C3A36497  36.783  22.507   7.942
 2681POPC   C4A36498  37.033  22.322   7.665
 2681POPC   C1B36499  36.997  21.853   8.643
 2681POPC   C2B36500  36.779  21.761   8.251
 2681POPC   C3B36501  36.683  21.990   7.864
 2681POPC   C4B36502  36.564  22.054   7.396
 2682POPC   NC336503  27.658   5.761   9.458
 2682POPC   PO436504  27.578   6.408   9.588
 2682POPC   GL136505  27.548   6.209   9.178
 2682POPC   GL236506  27.285   5.926   9.126
 2682POPC   C1A36507  27.727   6.096   8.775
 2682POPC   D2A36508  27.655   5.902   8.374
 2682POPC   C3A36509  27.604   6.162   8.034
 2682POPC   C4A36510  27.762   6.168   7.655
 2682POPC   C1B36511  27.432   5.669   8.776
 2682POPC   C2B36512  27.650   5.385   8.481
 2682POPC   C3B36513  27.738   5.477   8.063
 2682POPC   C4B36514  27.496   5.730   7.803
 2683POPC   NC336515   9.131   0.893   9.755
 2683POPC   PO436516   8.856   0.316   9.422
 2683POPC   GL136517   8.836   0.215   8.998
 2683POPC   GL236518   9.176   0.197   9.029
 2683POPC   C1A36519   8.870   0.255   8.565
 2683POPC   D2A36520   8.776   0.506   8.211
 2683POPC   C3A36521   8.797   0.357   7.767
 2683POPC   C4A36522   9.065   0.026   7.586
 2683POPC   C1B36523   9.309   0.471   8.722
 2683POPC   C2B36524   9.292   0.521   8.349
 2683POPC   C3B36525   9.227   0.339   8.008
 2683POPC   C4B36526   9.281   0.476   7.573
 2684POPC   NC336527   3.663   2.493   9.521
 2684POPC   PO436528   2.987   2.763   9.551
 2684POPC   GL136529   3.294   2.776   9.212
 2684POPC   GL236530   3.578   2.979   9.252
 2684POPC   C1A36531   3.566   2.586   8.883
 2684POPC   D2A36532   3.550   2.730   8.480
 2684POPC   C3A36533   3.620   2.527   8.106
 2684POPC   C4A36534   3.455   2.785   7.748
 2684POPC   C1B36535   3.757   3.070   8.862
 2684POPC   C2B36536   3.951   3.012   8.466
 2684POPC   C3B36537   3.834   2.969   8.062
 2684POPC   C4B36538   3.677   3.262   7.770
 2685POPC   NC336539  37.561  42.855   9.455
 2685POPC   PO436540  37.352  43.499   9.655
 2685POPC   GL136541  37.488  43.327   9.237
 2685POPC   GL236542  37.826  43.373   9.048
 2685POPC   C1A36543  37.456  43.102   8.833
 2685POPC   D2A36544  37.641  43.253   8.443
 2685POPC   C3A36545  37.456  43.104   8.071
 2685POPC   C4A36546  37.588  43.137   7.674
 2685POPC   C1B36547  37.933  42.954   8.800
 2685POPC   C2B36548  38.088  42.954   8.395
 2685POPC   C3B36549  37.990  43.120   8.005
 2685POPC   C4B36550  38.025  42.887   7.628
 2686POPC   NC336551   8.678   6.423   9.467
 2686POPC   PO436552   9.035   7.012   9.495
 2686POPC   GL136553   8.955   6.751   9.183
 2686POPC   GL236554   8.663   6.887   9.027
 2686POPC   C1A36555   8.888   6.452   8.857
 2686POPC   D2A36556   9.148   6.269   8.591
 2686POPC   C3A36557   9.048   6.403   8.171
 2686POPC   C4A36558   9.267   6.256   7.851
 2686POPC   C1B36559   8.978   6.945   8.713
 2686POPC   C2B36560   9.083   6.915   8.296
 2686POPC   C3B36561   8.873   6.824   7.911
 2686POPC   C4B36562   8.885   6.917   7.444
 2687POPC   NC336563  12.623  44.505   9.692
 2687POPC   PO436564  13.031  44.933   9.486
 2687POPC   GL136565  12.846  44.696   9.202
 2687POPC   GL236566  12.485  44.651   9.219
 2687POPC   C1A36567  12.846  44.840   8.791
 2687POPC   D2A36568  12.873  44.572   8.463
 2687POPC   C3A36569  13.032  44.749   8.117
 2687POPC   C4A36570  13.058  44.928   7.722
 2687POPC   C1B36571  12.327  44.850   8.854
 2687POPC   C2B36572  12.438  44.833   8.433
 2687POPC   C3B36573  12.512  44.522   8.105
 2687POPC   C4B36574  12.766  44.504   7.749
 2688POPC   NC336575   3.205   5.238   9.373
 2688POPC   PO436576   2.831   4.815   9.687
 2688POPC   GL136577   2.846   4.909   9.205
 2688POPC   GL236578   2.720   5.267   9.133
 2688POPC   C1A36579   2.977   5.062   8.757
 2688POPC   D2A36580   2.753   4.887   8.395
 2688POPC   C3A36581   2.877   4.972   7.986
 2688POPC   C4A36582   2.973   4.780   7.611
 2688POPC   C1B36583   2.480   5.186   8.724
 2688POPC   C2B36584   2.466   5.285   8.260
 2688POPC   C3B36585   2.481   5.259   7.785
 2688POPC   C4B36586   2.487   5.420   7.318
 2689POPC   NC336587  13.507   6.726   9.423
 2689POPC   PO436588  14.039   6.365   9.457
 2689POPC   GL136589  13.869   6.570   9.083
 2689POPC   GL236590  13.855   6.950   9.096
 2689POPC   C1A36591  13.800   6.413   8.652
 2689POPC   D2A36592  13.899   6.421   8.200
 2689POPC   C3A36593  13.639   6.579   7.802
 2689POPC   C4A36594  13.815   6.916   7.526
 2689POPC   C1B36595  13.702   6.893   8.662
 2689POPC   C2B36596  13.592   6.860   8.224
 2689POPC   C3B36597  13.395   7.089   7.880
 2689POPC   C4B36598  13.329   7.074   7.444
 2690POPC   NC336599  22.344  36.033   9.381
 2690POPC   PO436600  21.810  36.429   9.412
 2690POPC   GL136601  21.976  36.178   9.061
 2690POPC   GL236602  21.992  35.830   9.084
 2690POPC   C1A36603  21.795  36.094   8.653
 2690POPC   D2A36604  22.033  36.196   8.298
 2690POPC   C3A36605  22.060  36.109   7.879
 2690POPC   C4A36606  22.253  36.277   7.549
 2690POPC   C1B36607  22.257  35.880   8.652
 2690POPC   C2B36608  22.407  35.834   8.153
 2690POPC   C3B36609  22.360  35.768   7.658
 2690POPC   C4B36610  22.388  35.804   7.188
 2691POPC   NC336611  29.289  41.973   9.404
 2691POPC   PO436612  29.016  41.282   9.408
 2691POPC   GL136613  29.189  41.542   9.075
 2691POPC   GL236614  29.549  41.476   9.155
 2691POPC   C1A36615  29.106  41.506   8.619
 2691POPC   D2A36616  29.123  41.312   8.226
 2691POPC   C3A36617  28.893  41.514   7.944
 2691POPC   C4A36618  28.957  41.566   7.533
 2691POPC   C1B36619  29.571  41.712   8.744
 2691POPC   C2B36620  29.516  41.869   8.328
 2691POPC   C3B36621  29.373  41.705   7.956
 2691POPC   C4B36622  29.594  41.541   7.664
 2692POPC   NC336623  17.567   3.371   9.640
 2692POPC   PO436624  17.014   3.694   9.501
 2692POPC   GL136625  17.328   3.776   9.218
 2692POPC   GL236626  17.471   3.461   9.151
 2692POPC   C1A36627  17.378   3.861   8.777
 2692POPC   D2A36628  17.447   3.656   8.372
 2692POPC   C3A36629  17.316   3.819   7.981
 2692POPC   C4A36630  17.603   3.828   7.643
 2692POPC   C1B36631  17.344   3.286   8.761
 2692POPC   C2B36632  17.179   3.213   8.345
 2692POPC   C3B36633  17.300   3.313   7.967
 2692POPC   C4B36634  17.663   3.326   7.751
 2693POPC   NC336635   1.418  17.197   9.246
 2693POPC   PO436636   0.951  17.529   9.539
 2693POPC   GL136637   1.069  17.679   9.156
 2693POPC   GL236638   1.393  17.662   9.057
 2693POPC   C1A36639   0.978  17.875   8.762
 2693POPC   D2A36640   0.753  17.851   8.386
 2693POPC   C3A36641   0.985  17.985   8.061
 2693POPC   C4A36642   1.114  17.887   7.662
 2693POPC   C1B36643   1.237  17.435   8.699
 2693POPC   C2B36644   1.232  17.637   8.357
 2693POPC   C3B36645   1.424  17.655   7.982
 2693POPC   C4B36646   1.489  17.535   7.553
 2694POPC   NC336647  20.391  40.642   9.491
 2694POPC   PO436648  20.987  40.881   9.663
 2694POPC   GL136649  20.831  40.708   9.229
 2694POPC   GL236650  20.543  40.873   9.073
 2694POPC   C1A36651  20.780  40.493   8.826
 2694POPC   D2A36652  20.671  40.560   8.375
 2694POPC   C3A36653  20.830  40.655   7.952
 2694POPC   C4A36654  20.706  40.442   7.534
 2694POPC   C1B36655  20.307  40.721   8.702
 2694POPC   C2B36656  20.240  40.769   8.234
 2694POPC   C3B36657  20.367  41.027   7.884
 2694POPC   C4B36658  20.255  41.105   7.405
 2695POPC   NC336659   1.468   0.083   9.334
 2695POPC   PO436660   1.886   0.614   9.605
 2695POPC   GL136661   1.989   0.599   9.183
 2695POPC   GL236662   2.001   0.252   9.065
 2695POPC   C1A36663   2.051   0.693   8.757
 2695POPC   D2A36664   1.913   0.395   8.439
 2695POPC   C3A36665   1.920   0.606   8.080
 2695POPC   C4A36666   1.917   0.439   7.686
 2695POPC   C1B36667   2.315   0.273   8.711
 2695POPC   C2B36668   2.405   0.525   8.371
 2695POPC   C3B36669   2.326   0.308   7.995
 2695POPC   C4B36670   2.336   0.081   7.627
 2696POPC   NC336671  15.781  29.697   9.494
 2696POPC   PO436672  16.462  29.486   9.424
 2696POPC   GL136673  16.237  29.629   9.028
 2696POPC   GL236674  16.075  29.931   9.041
 2696POPC   C1A36675  16.106  29.743   8.559
 2696POPC   D2A36676  16.097  30.122   8.358
 2696POPC   C3A36677  16.182  30.136   7.909
 2696POPC   C4A36678  16.095  30.151   7.440
 2696POPC   C1B36679  15.743  29.644   8.868
 2696POPC   C2B36680  15.711  29.450   8.426
 2696POPC   C3B36681  15.874  29.698   8.086
 2696POPC   C4B36682  15.735  29.927   7.724
 2697POPC   NC336683  42.141  36.810   9.648
 2697POPC   PO436684  41.948  37.350   9.419
 2697POPC   GL136685  41.949  36.986   9.156
 2697POPC   GL236686  42.253  36.795   9.155
 2697POPC   C1A36687  41.949  36.831   8.733
 2697POPC   D2A36688  42.250  36.819   8.427
 2697POPC   C3A36689  42.153  36.634   8.060
 2697POPC   C4A36690  42.060  36.791   7.669
 2697POPC   C1B36691  42.565  36.728   8.848
 2697POPC   C2B36692  42.641  36.505   8.437
 2697POPC   C3B36693  42.649  36.595   7.979
 2697POPC   C4B36694  42.548  36.665   7.551
 2698POPC   NC336695  38.079  38.928   9.365
 2698POPC   PO436696  37.496  39.281   9.510
 2698POPC   GL136697  37.644  39.096   9.162
 2698POPC   GL236698  37.887  39.342   9.105
 2698POPC   C1A36699  37.689  38.943   8.749
 2698POPC   D2A36700  37.458  39.100   8.386
 2698POPC   C3A36701  37.538  38.941   7.968
 2698POPC   C4A36702  37.643  39.093   7.549
 2698POPC   C1B36703  37.975  39.368   8.684
 2698POPC   C2B36704  37.968  39.129   8.317
 2698POPC   C3B36705  37.845  39.347   7.979
 2698POPC   C4B36706  38.091  39.395   7.633
 2699POPC   NC336707  44.317  32.643   9.522
 2699POPC   PO436708  44.839  32.111   9.579
 2699POPC   GL136709  44.572  32.228   9.278
 2699POPC   GL236710  44.733  32.486   9.194
 2699POPC   C1A36711  44.606  32.145   8.828
 2699POPC   D2A36712  44.576  32.386   8.444
 2699POPC   C3A36713  44.660  32.170   8.073
 2699POPC   C4A36714  44.594  32.352   7.690
 2699POPC   C1B36715   0.008  32.458   8.804
 2699POPC   C2B36716   0.042  32.172   8.452
 2699POPC   C3B36717   0.157  32.246   8.014
 2699POPC   C4B36718  44.999  32.064   7.652
 2700POPC   NC336719  22.869  43.538   9.390
 2700POPC   PO436720  23.431  43.618   9.756
 2700POPC   GL136721  23.242  43.841   9.289
 2700POPC   GL236722  22.910  44.043   9.217
 2700POPC   C1A36723  23.237  43.871   8.826
 2700POPC   D2A36724  23.050  44.067   8.467
 2700POPC   C3A36725  23.224  44.008   8.065
 2700POPC   C4A36726  23.111  43.629   7.830
 2700POPC   C1B36727  22.689  43.903   8.823
 2700POPC   C2B36728  22.533  44.028   8.410
 2700POPC   C3B36729  22.700  44.014   7.973
 2700POPC   C4B36730  22.597  44.199   7.574
 2701POPC   NC336731  26.948  28.869   9.650
 2701POPC   PO436732  26.743  29.470   9.492
 2701POPC   GL136733  26.936  29.286   9.133
 2701POPC   GL236734  26.881  28.931   9.130
 2701POPC   C1A36735  26.883  29.197   8.680
 2701POPC   D2A36736  26.633  28.974   8.396
 2701POPC   C3A36737  26.760  28.775   7.981
 2701POPC   C4A36738  26.647  28.900   7.544
 2701POPC   C1B36739  27.083  28.723   8.768
 2701POPC   C2B36740  27.138  28.846   8.343
 2701POPC   C3B36741  27.012  29.213   8.094
 2701POPC   C4B36742  27.171  29.440   7.723
 2702POPC   NC336743  13.260   5.147   9.479
 2702POPC   PO436744  13.897   5.377   9.451
 2702POPC   GL136745  13.637   5.338   9.062
 2702POPC   GL236746  13.449   5.023   9.045
 2702POPC   C1A36747  13.605   5.243   8.599
 2702POPC   D2A36748  13.943   5.051   8.311
 2702POPC   C3A36749  14.039   5.177   7.904
 2702POPC   C4A36750  13.711   5.140   7.630
 2702POPC   C1B36751  13.240   4.865   8.729
 2702POPC   C2B36752  13.219   4.991   8.322
 2702POPC   C3B36753  13.372   4.871   7.939
 2702POPC   C4B36754  13.234   4.990   7.534
 2703POPC   NC336755   8.386  12.497   9.489
 2703POPC   PO436756   8.169  13.098   9.496
 2703POPC   GL136757   8.349  12.879   9.158
 2703POPC   GL236758   8.137  12.562   9.052
 2703POPC   C1A36759   8.469  12.850   8.753
 2703POPC   D2A36760   8.286  12.993   8.410
 2703POPC   C3A36761   8.444  12.763   8.095
 2703POPC   C4A36762   8.586  12.943   7.730
 2703POPC   C1B36763   7.940  12.692   8.654
 2703POPC   C2B36764   7.935  12.683   8.196
 2703POPC   C3B36765   8.065  12.684   7.773
 2703POPC   C4B36766   7.856  12.617   7.398
 2704POPC   NC336767   1.024  18.885   9.460
 2704POPC   PO436768   1.733  19.023   9.385
 2704POPC   GL136769   1.361  19.176   9.108
 2704POPC   GL236770   0.969  19.165   9.047
 2704POPC   C1A36771   1.312  19.304   8.665
 2704POPC   D2A36772   1.521  19.217   8.256
 2704POPC   C3A36773   1.401  18.994   7.855
 2704POPC   C4A36774   1.347  19.030   7.401
 2704POPC   C1B36775   0.790  18.843   8.778
 2704POPC   C2B36776   0.808  18.846   8.352
 2704POPC   C3B36777   0.891  18.931   7.959
 2704POPC   C4B36778   1.003  18.728   7.623
 2705POPC   NC336779   8.953  28.758   9.300
 2705POPC   PO436780   9.071  29.297   9.660
 2705POPC   GL136781   9.049  29.244   9.198
 2705POPC   GL236782   8.727  29.183   9.100
 2705POPC   C1A36783   9.161  29.185   8.782
 2705POPC   D2A36784   9.106  28.845   8.479
 2705POPC   C3A36785   9.084  29.035   8.094
 2705POPC   C4A36786   9.108  29.318   7.757
 2705POPC   C1B36787   8.671  29.080   8.680
 2705POPC   C2B36788   8.622  29.227   8.262
 2705POPC   C3B36789   8.625  29.049   7.849
 2705POPC   C4B36790   8.974  28.850   7.616
 2706POPC   NC336791  19.191   2.328   9.476
 2706POPC   PO436792  18.691   1.853   9.586
 2706POPC   GL136793  18.933   1.926   9.219
 2706POPC   GL236794  18.793   2.231   9.183
 2706POPC   C1A36795  19.267   1.877   8.885
 2706POPC   D2A36796  19.353   1.748   8.443
 2706POPC   C3A36797  19.243   1.943   8.046
 2706POPC   C4A36798  19.004   1.752   7.707
 2706POPC   C1B36799  18.955   2.273   8.775
 2706POPC   C2B36800  18.849   2.126   8.368
 2706POPC   C3B36801  18.694   2.061   7.974
 2706POPC   C4B36802  19.007   2.245   7.686
 2707POPC   NC336803  19.361  11.004  10.024
 2707POPC   PO436804  19.079  11.371   9.454
 2707POPC   GL136805  18.908  11.416   9.098
 2707POPC   GL236806  18.770  11.724   9.164
 2707POPC   C1A36807  19.041  11.299   8.722
 2707POPC   D2A36808  18.888  11.176   8.351
 2707POPC   C3A36809  19.200  11.384   8.115
 2707POPC   C4A36810  19.388  11.380   7.730
 2707POPC   C1B36811  18.662  11.645   8.718
 2707POPC   C2B36812  18.806  11.681   8.315
 2707POPC   C3B36813  18.795  11.663   7.863
 2707POPC   C4B36814  18.751  11.904   7.471
 2708POPC   NC336815  25.036  42.824   9.465
 2708POPC   PO436816  25.434  43.403   9.358
 2708POPC   GL136817  25.150  43.161   9.076
 2708POPC   GL236818  25.195  42.821   8.995
 2708POPC   C1A36819  24.950  43.269   8.688
 2708POPC   D2A36820  25.058  43.626   8.426
 2708POPC   C3A36821  25.382  43.484   8.161
 2708POPC   C4A36822  25.204  43.320   7.802
 2708POPC   C1B36823  25.457  42.798   8.692
 2708POPC   C2B36824  25.290  43.016   8.370
 2708POPC   C3B36825  25.131  42.875   8.038
 2708POPC   C4B36826  25.178  42.821   7.660
 2709POPC   NC336827  26.745  38.569   9.696
 2709POPC   PO436828  26.357  38.757   9.260
 2709POPC   GL136829  26.795  38.553   9.161
 2709POPC   GL236830  27.133  38.393   9.240
 2709POPC   C1A36831  26.977  38.485   8.745
 2709POPC   D2A36832  27.068  38.633   8.334
 2709POPC   C3A36833  26.697  38.608   8.025
 2709POPC   C4A36834  26.663  38.553   7.581
 2709POPC   C1B36835  27.301  38.131   8.869
 2709POPC   C2B36836  27.207  38.094   8.386
 2709POPC   C3B36837  27.080  38.274   7.961
 2709POPC   C4B36838  27.049  38.200   7.525
 2710POPC   NC336839  12.296  25.237   9.467
 2710POPC   PO436840  11.748  24.747   9.476
 2710POPC   GL136841  11.877  25.119   9.209
 2710POPC   GL236842  11.720  25.437   9.134
 2710POPC   C1A36843  12.101  25.206   8.818
 2710POPC   D2A36844  12.254  24.961   8.475
 2710POPC   C3A36845  12.193  25.060   8.030
 2710POPC   C4A36846  12.492  25.017   7.658
 2710POPC   C1B36847  11.847  25.645   8.734
 2710POPC   C2B36848  11.908  25.412   8.358
 2710POPC   C3B36849  11.910  25.519   7.951
 2710POPC   C4B36850  12.165  25.426   7.604
 2711POPC   NC336851  35.692   3.330   9.614
 2711POPC   PO436852  35.276   3.794   9.332
 2711POPC   GL136853  35.533   3.465   9.153
 2711POPC   GL236854  35.628   3.708   8.955
 2711POPC   C1A36855  35.467   3.266   8.769
 2711POPC   D2A36856  35.537   3.451   8.391
 2711POPC   C3A36857  35.433   3.203   8.068
 2711POPC   C4A36858  35.606   3.249   7.680
 2711POPC   C1B36859  35.230   3.741   8.690
 2711POPC   C2B36860  35.251   3.904   8.270
 2711POPC   C3B36861  35.341   3.676   7.899
 2711POPC   C4B36862  35.067   3.394   7.719
 2712POPC   NC336863  39.394   0.650   9.595
 2712POPC   PO436864  38.958   0.256   9.349
 2712POPC   GL136865  39.154   0.554   9.145
 2712POPC   GL236866  39.189   0.278   8.899
 2712POPC   C1A36867  39.285   0.768   8.781
 2712POPC   D2A36868  39.232   0.480   8.433
 2712POPC   C3A36869  39.240   0.627   8.020
 2712POPC   C4A36870  38.992   0.540   7.667
 2712POPC   C1B36871  38.778   0.133   8.716
 2712POPC   C2B36872  38.601   0.134   8.303
 2712POPC   C3B36873  38.972   0.186   8.035
 2712POPC   C4B36874  39.292   0.091   7.744
 2713POPC   NC336875   6.585  25.056   9.530
 2713POPC   PO436876   6.530  25.551   9.114
 2713POPC   GL136877   6.876  25.352   8.995
 2713POPC   GL236878   6.874  25.023   9.113
 2713POPC   C1A36879   6.862  25.300   8.568
 2713POPC   D2A36880   6.868  25.221   8.168
 2713POPC   C3A36881   6.519  25.406   7.999
 2713POPC   C4A36882   6.727  25.331   7.656
 2713POPC   C1B36883   6.520  24.947   8.799
 2713POPC   C2B36884   6.418  25.079   8.375
 2713POPC   C3B36885   6.379  24.932   7.926
 2713POPC   C4B36886   6.330  25.078   7.492
 2714POPC   NC336887  43.209  26.429   9.372
 2714POPC   PO436888  43.340  25.745   9.442
 2714POPC   GL136889  43.111  25.950   9.135
 2714POPC   GL236890  43.293  26.099   8.979
 2714POPC   C1A36891  42.920  25.837   8.753
 2714POPC   D2A36892  43.158  25.933   8.394
 2714POPC   C3A36893  42.878  26.082   8.101
 2714POPC   C4A36894  42.786  26.058   7.665
 2714POPC   C1B36895  43.048  26.348   8.715
 2714POPC   C2B36896  43.243  26.445   8.340
 2714POPC   C3B36897  43.391  26.249   8.008
 2714POPC   C4B36898  43.288  26.252   7.619
 2715POPC   NC336899  42.105   9.692   9.872
 2715POPC   PO436900  42.061   9.974   9.266
 2715POPC   GL136901  42.221   9.637   9.070
 2715POPC   GL236902  42.526   9.765   9.021
 2715POPC   C1A36903  42.224   9.674   8.611
 2715POPC   D2A36904  42.157   9.992   8.303
 2715POPC   C3A36905  41.948   9.780   7.945
 2715POPC   C4A36906  42.087   9.475   7.684
 2715POPC   C1B36907  42.746   9.753   8.677
 2715POPC   C2B36908  42.617   9.642   8.305
 2715POPC   C3B36909  42.460   9.808   7.937
 2715POPC   C4B36910  42.704  10.006   7.684
 2716POPC   NC336911  23.394  44.906   9.501
 2716POPC   PO436912  23.371  44.288   9.436
 2716POPC   GL136913  23.590  44.554   9.187
 2716POPC   GL236914  23.926  44.528   9.288
 2716POPC   C1A36915  23.508  44.699   8.809
 2716POPC   D2A36916  23.741  44.684   8.446
 2716POPC   C3A36917  23.550  44.568   8.072
 2716POPC   C4A36918  23.770  44.674   7.693
 2716POPC   C1B36919  23.999  44.482   8.856
 2716POPC   C2B36920  24.138  44.351   8.454
 2716POPC   C3B36921  24.044  44.463   8.060
 2716POPC   C4B36922  24.166  44.367   7.643
 2717POPC   NC336923   3.574  13.883   9.595
 2717POPC   PO436924   3.243  13.307   9.447
 2717POPC   GL136925   3.498  13.539   9.219
 2717POPC   GL236926   3.307  13.830   9.150
 2717POPC   C1A36927   3.627  13.444   8.833
 2717POPC   D2A36928   3.750  13.530   8.441
 2717POPC   C3A36929   3.521  13.422   8.102
 2717POPC   C4A36930   3.682  13.268   7.745
 2717POPC   C1B36931   3.546  13.941   8.783
 2717POPC   C2B36932   3.395  13.892   8.360
 2717POPC   C3B36933   3.636  13.907   8.017
 2717POPC   C4B36934   3.818  13.784   7.657
 2718POPC   NC336935  29.534   6.090   9.419
 2718POPC   PO436936  28.977   5.605   9.479
 2718POPC   GL136937  29.113   5.831   9.138
 2718POPC   GL236938  29.445   5.681   9.134
 2718POPC   C1A36939  28.885   6.017   8.761
 2718POPC   D2A36940  28.979   6.141   8.318
 2718POPC   C3A36941  28.939   5.853   7.957
 2718POPC   C4A36942  29.010   5.933   7.509
 2718POPC   C1B36943  29.350   5.815   8.687
 2718POPC   C2B36944  29.409   5.857   8.222
 2718POPC   C3B36945  29.439   5.930   7.775
 2718POPC   C4B36946  29.423   5.666   7.369
 2719POPC   NC336947  28.198  37.924   9.526
 2719POPC   PO436948  28.748  37.971   9.105
 2719POPC   GL136949  28.284  38.025   8.983
 2719POPC   GL236950  28.104  37.715   9.044
 2719POPC   C1A36951  28.163  37.859   8.546
 2719POPC   D2A36952  28.520  37.853   8.240
 2719POPC   C3A36953  28.545  37.669   7.835
 2719POPC   C4A36954  28.485  37.743   7.401
 2719POPC   C1B36955  27.930  37.413   8.753
 2719POPC   C2B36956  27.884  37.447   8.346
 2719POPC   C3B36957  28.055  37.658   8.022
 2719POPC   C4B36958  28.087  37.514   7.617
 2720POPC   NC336959  28.905  29.199   9.737
 2720POPC   PO436960  28.171  29.239   9.584
 2720POPC   GL136961  28.361  29.241   9.190
 2720POPC   GL236962  28.725  29.192   9.232
 2720POPC   C1A36963  28.497  29.298   8.783
 2720POPC   D2A36964  28.730  29.397   8.459
 2720POPC   C3A36965  28.501  29.374   8.084
 2720POPC   C4A36966  28.566  29.188   7.696
 2720POPC   C1B36967  28.592  28.835   8.923
 2720POPC   C2B36968  28.665  28.870   8.497
 2720POPC   C3B36969  28.555  28.843   8.083
 2720POPC   C4B36970  28.720  28.710   7.689
 2721POPC   NC336971  13.667  37.371   9.248
 2721POPC   PO436972  13.249  37.887   9.441
 2721POPC   GL136973  13.376  37.908   9.055
 2721POPC   GL236974  13.742  37.877   9.087
 2721POPC   C1A36975  13.487  37.867   8.633
 2721POPC   D2A36976  13.754  37.816   8.267
 2721POPC   C3A36977  13.435  37.892   7.980
 2721POPC   C4A36978  13.233  37.566   7.726
 2721POPC   C1B36979  14.024  37.891   8.721
 2721POPC   C2B36980  14.177  38.104   8.343
 2721POPC   C3B36981  14.166  37.922   7.952
 2721POPC   C4B36982  13.844  37.912   7.698
 2722POPC   NC336983  21.227   6.712   9.529
 2722POPC   PO436984  21.809   6.335   9.386
 2722POPC   GL136985  21.695   6.518   9.022
 2722POPC   GL236986  21.372   6.467   9.122
 2722POPC   C1A36987  21.797   6.571   8.607
 2722POPC   D2A36988  21.690   6.833   8.278
 2722POPC   C3A36989  21.633   6.720   7.881
 2722POPC   C4A36990  21.930   6.638   7.601
 2722POPC   C1B36991  21.255   6.559   8.746
 2722POPC   C2B36992  21.319   6.494   8.355
 2722POPC   C3B36993  21.104   6.634   8.034
 2722POPC   C4B36994  21.184   6.776   7.620
 2723POPC   NC336995  34.428  21.067   9.645
 2723POPC   PO436996  34.739  21.667   9.598
 2723POPC   GL136997  34.732  21.422   9.213
 2723POPC   GL236998  34.401  21.256   9.145
 2723POPC   C1A36999  34.781  21.257   8.787
 2723POPC   D2A37000  34.545  21.393   8.439
 2723POPC   C3A37001  34.777  21.348   8.058
 2723POPC   C4A37002  34.603  21.641   7.770
 2723POPC   C1B37003  34.354  20.993   8.756
 2723POPC   C2B37004  34.309  20.868   8.369
 2723POPC   C3B37005  34.306  21.117   8.077
 2723POPC   C4B37006  34.416  21.182   7.730
 2724POPC   NC337007  43.624   4.112   9.580
 2724POPC   PO437008  44.160   4.579   9.626
 2724POPC   GL137009  44.067   4.341   9.245
 2724POPC   GL237010  43.716   4.395   9.165
 2724POPC   C1A37011  44.214   4.456   8.826
 2724POPC   D2A37012  44.025   4.401   8.414
 2724POPC   C3A37013  44.220   4.448   8.023
 2724POPC   C4A37014  44.269   4.289   7.629
 2724POPC   C1B37015  43.657   4.059   8.853
 2724POPC   C2B37016  43.813   3.936   8.429
 2724POPC   C3B37017  43.813   4.115   7.997
 2724POPC   C4B37018  43.911   3.921   7.582
 2725POPC   NC337019   0.096  12.307   9.777
 2725POPC   PO437020  44.513  12.051   9.534
 2725POPC   GL137021  44.495  12.024   9.090
 2725POPC   GL237022  44.216  12.229   9.002
 2725POPC   C1A37023  44.849  12.116   8.771
 2725POPC   D2A37024  44.996  12.406   8.433
 2725POPC   C3A37025  44.939  12.196   8.054
 2725POPC   C4A37026  44.634  12.108   7.741
 2725POPC   C1B37027  44.479  12.458   8.689
 2725POPC   C2B37028  44.475  12.339   8.241
 2725POPC   C3B37029  44.266  12.438   7.853
 2725POPC   C4B37030  44.168  12.167   7.523
 2726POPC   NC337031   3.088  26.940   9.556
 2726POPC   PO437032   2.406  26.776   9.463
 2726POPC   GL137033   2.790  26.721   9.216
 2726POPC   GL237034   2.930  27.064   9.073
 2726POPC   C1A37035   3.086  26.646   8.846
 2726POPC   D2A37036   2.979  26.838   8.437
 2726POPC   C3A37037   2.842  26.581   8.113
 2726POPC   C4A37038   2.939  26.738   7.710
 2726POPC   C1B37039   2.614  26.885   8.779
 2726POPC   C2B37040   2.495  26.994   8.377
 2726POPC   C3B37041   2.675  27.066   8.011
 2726POPC   C4B37042   2.453  26.973   7.678
 2727POPC   NC337043   3.937  43.407   9.524
 2727POPC   PO437044   4.438  42.980   9.644
 2727POPC   GL137045   4.375  42.981   9.231
 2727POPC   GL237046   4.030  42.989   9.224
 2727POPC   C1A37047   4.380  42.914   8.785
 2727POPC   D2A37048   4.368  43.176   8.399
 2727POPC   C3A37049   4.543  43.051   7.973
 2727POPC   C4A37050   4.393  43.338   7.654
 2727POPC   C1B37051   3.888  42.816   8.845
 2727POPC   C2B37052   3.992  42.833   8.418
 2727POPC   C3B37053   4.035  43.048   8.013
 2727POPC   C4B37054   4.190  42.789   7.666
 2728POPC   NC337055  34.069  39.569   9.643
 2728POPC   PO437056  33.429  39.383   9.611
 2728POPC   GL137057  33.684  39.314   9.198
 2728POPC   GL237058  34.045  39.364   9.149
 2728POPC   C1A37059  33.761  39.208   8.756
 2728POPC   D2A37060  33.689  38.991   8.392
 2728POPC   C3A37061  33.736  39.237   8.080
 2728POPC   C4A37062  34.005  39.208   7.789
 2728POPC   C1B37063  34.150  39.536   8.719
 2728POPC   C2B37064  34.186  39.330   8.319
 2728POPC   C3B37065  34.455  39.381   7.970
 2728POPC   C4B37066  34.407  39.354   7.505
 2729POPC   NC337067  20.049  44.209   9.409
 2729POPC   PO437068  19.521  43.833   9.505
 2729POPC   GL137069  19.770  43.873   9.143
 2729POPC   GL237070  19.635  44.186   9.109
 2729POPC   C1A37071  19.790  43.691   8.734
 2729POPC   D2A37072  19.648  43.868   8.340
 2729POPC   C3A37073  19.514  43.621   7.998
 2729POPC   C4A37074  19.704  43.305   7.755
 2729POPC   C1B37075  19.837  44.201   8.720
 2729POPC   C2B37076  19.789  44.355   8.311
 2729POPC   C3B37077  19.990  44.191   7.968
 2729POPC   C4B37078  19.772  43.915   7.665
 2730POPC   NC337079  31.289  22.470   9.539
 2730POPC   PO437080  31.643  21.893   9.471
 2730POPC   GL137081  31.590  22.242   9.128
 2730POPC   GL237082  31.222  22.413   9.043
 2730POPC   C1A37083  31.873  22.254   8.750
 2730POPC   D2A37084  31.906  21.963   8.407
 2730POPC   C3A37085  31.771  22.203   8.054
 2730POPC   C4A37086  31.453  22.138   7.728
 2730POPC   C1B37087  31.367  22.233   8.646
 2730POPC   C2B37088  31.282  22.218   8.223
 2730POPC   C3B37089  31.045  21.930   7.983
 2730POPC   C4B37090  30.990  21.919   7.546
 2731POPC   NC337091  27.319   9.290   9.469
 2731POPC   PO437092  27.084   8.738   9.433
 2731POPC   GL137093  26.962   9.066   9.156
 2731POPC   GL237094  26.638   9.093   9.087
 2731POPC   C1A37095  26.929   9.092   8.688
 2731POPC   D2A37096  26.887   9.115   8.249
 2731POPC   C3A37097  27.076   8.822   8.004
 2731POPC   C4A37098  26.900   8.679   7.639
 2731POPC   C1B37099  26.340   9.081   8.739
 2731POPC   C2B37100  26.273   8.977   8.315
 2731POPC   C3B37101  26.514   8.977   7.930
 2731POPC   C4B37102  26.825   9.202   7.711
 2732POPC   NC337103  19.803   6.199   9.555
 2732POPC   PO437104  19.664   5.613   9.572
 2732POPC   GL137105  19.827   5.780   9.221
 2732POPC   GL237106  19.574   5.989   9.152
 2732POPC   C1A37107  19.956   5.710   8.811
 2732POPC   D2A37108  20.044   5.943   8.437
 2732POPC   C3A37109  19.943   5.731   8.085
 2732POPC   C4A37110  19.978   5.955   7.758
 2732POPC   C1B37111  19.616   6.113   8.750
 2732POPC   C2B37112  19.535   5.961   8.337
 2732POPC   C3B37113  19.465   5.826   7.910
 2732POPC   C4B37114  19.487   6.142   7.580
 2733POPC   NC337115  40.438   7.216   9.503
 2733POPC   PO437116  39.891   7.307   9.754
 2733POPC   GL137117  40.041   7.315   9.223
 2733POPC   GL237118  39.923   7.596   9.039
 2733POPC   C1A37119  40.221   7.304   8.725
 2733POPC   D2A37120  40.035   7.277   8.295
 2733POPC   C3A37121  40.246   7.224   7.911
 2733POPC   C4A37122  40.120   7.012   7.505
 2733POPC   C1B37123  40.170   7.808   8.712
 2733POPC   C2B37124  40.280   7.725   8.278
 2733POPC   C3B37125  40.006   7.689   7.908
 2733POPC   C4B37126  39.785   7.786   7.500
 2734POPC   NC337127  33.710  41.420   9.559
 2734POPC   PO437128  34.344  41.508   9.319
 2734POPC   GL137129  33.943  41.600   9.097
 2734POPC   GL237130  33.658  41.371   9.068
 2734POPC   C1A37131  33.903  41.682   8.644
 2734POPC   D2A37132  34.016  41.902   8.247
 2734POPC   C3A37133  33.808  41.679   7.918
 2734POPC   C4A37134  33.914  41.384   7.556
 2734POPC   C1B37135  33.451  41.253   8.721
 2734POPC   C2B37136  33.671  41.194   8.373
 2734POPC   C3B37137  33.533  41.182   7.977
 2734POPC   C4B37138  33.425  41.447   7.688
 2735POPC   NC337139  18.353  27.530   9.586
 2735POPC   PO437140  18.132  28.074   9.351
 2735POPC   GL137141  18.294  27.743   9.109
 2735POPC   GL237142  18.628  27.669   9.111
 2735POPC   C1A37143  18.389  27.562   8.697
 2735POPC   D2A37144  18.533  27.589   8.302
 2735POPC   C3A37145  18.258  27.486   7.989
 2735POPC   C4A37146  18.307  27.570   7.574
 2735POPC   C1B37147  18.778  27.926   8.744
 2735POPC   C2B37148  18.910  27.903   8.266
 2735POPC   C3B37149  18.672  27.809   7.849
 2735POPC   C4B37150  18.678  27.844   7.349
 2736POPC   NC337151  33.551  26.864   9.350
 2736POPC   PO437152  34.202  26.492   9.276
 2736POPC   GL137153  33.926  26.769   8.995
 2736POPC   GL237154  33.518  26.744   8.880
 2736POPC   C1A37155  33.901  26.947   8.618
 2736POPC   D2A37156  34.059  26.719   8.333
 2736POPC   C3A37157  33.801  26.733   8.011
 2736POPC   C4A37158  33.982  26.782   7.634
 2736POPC   C1B37159  33.348  26.384   8.693
 2736POPC   C2B37160  33.412  26.477   8.285
 2736POPC   C3B37161  33.345  26.543   7.865
 2736POPC   C4B37162  33.510  26.603   7.444
 2737POPC   NC337163   9.514  39.258   9.548
 2737POPC   PO437164  10.168  39.214   9.541
 2737POPC   GL137165   9.902  39.113   9.192
 2737POPC   GL237166   9.646  39.354   9.065
 2737POPC   C1A37167   9.945  38.967   8.773
 2737POPC   D2A37168   9.732  38.678   8.467
 2737POPC   C3A37169   9.757  38.856   8.033
 2737POPC   C4A37170  10.035  38.898   7.656
 2737POPC   C1B37171  10.022  39.581   8.945
 2737POPC   C2B37172  10.141  39.527   8.523
 2737POPC   C3B37173   9.903  39.364   8.176
 2737POPC   C4B37174   9.715  39.315   7.759
 2738POPC   NC337175  11.756  35.817   9.681
 2738POPC   PO437176  11.968  36.331   9.306
 2738POPC   GL137177  11.996  36.204   8.903
 2738POPC   GL237178  12.223  35.914   8.854
 2738POPC   C1A37179  11.801  36.383   8.546
 2738POPC   D2A37180  11.604  36.185   8.225
 2738POPC   C3A37181  11.891  36.125   7.920
 2738POPC   C4A37182  12.229  36.220   7.685
 2738POPC   C1B37183  12.135  35.983   8.429
 2738POPC   C2B37184  12.012  35.678   8.133
 2738POPC   C3B37185  12.150  35.691   7.728
 2738POPC   C4B37186  12.414  35.868   7.369
 2739POPC   NC337187  10.929  26.619   9.451
 2739POPC   PO437188  11.374  27.135   9.527
 2739POPC   GL137189  11.239  27.053   9.154
 2739POPC   GL237190  10.857  27.073   9.180
 2739POPC   C1A37191  11.441  26.951   8.749
 2739POPC   D2A37192  11.383  26.681   8.380
 2739POPC   C3A37193  11.545  26.882   8.015
 2739POPC   C4A37194  11.384  26.861   7.612
 2739POPC   C1B37195  10.969  26.776   8.826
 2739POPC   C2B37196  10.948  26.944   8.436
 2739POPC   C3B37197  11.023  26.877   8.017
 2739POPC   C4B37198  10.900  27.070   7.624
 2740POPC   NC337199  36.250  40.171   9.367
 2740POPC   PO437200  35.914  39.620   9.445
 2740POPC   GL137201  35.965  39.824   9.089
 2740POPC   GL237202  35.816  40.157   9.083
 2740POPC   C1A37203  36.243  39.939   8.731
 2740POPC   D2A37204  36.467  39.825   8.344
 2740POPC   C3A37205  36.421  40.099   7.986
 2740POPC   C4A37206  36.331  39.911   7.585
 2740POPC   C1B37207  35.735  39.974   8.669
 2740POPC   C2B37208  35.793  39.784   8.251
 2740POPC   C3B37209  35.927  39.997   7.867
 2740POPC   C4B37210  36.067  40.405   7.730
 2741POPC   NC337211  42.716  36.961   9.536
 2741POPC   PO437212  43.280  36.595   9.586
 2741POPC   GL137213  43.001  36.642   9.222
 2741POPC   GL237214  43.045  37.010   9.134
 2741POPC   C1A37215  43.049  36.597   8.771
 2741POPC   D2A37216  43.157  36.515   8.348
 2741POPC   C3A37217  43.100  36.795   7.987
 2741POPC   C4A37218  42.858  37.093   7.709
 2741POPC   C1B37219  43.258  37.072   8.724
 2741POPC   C2B37220  43.456  36.977   8.303
 2741POPC   C3B37221  43.387  37.204   7.890
 2741POPC   C4B37222  43.450  37.503   7.538
 2742POPC   NC337223   5.492  23.521   9.486
 2742POPC   PO437224   6.184  23.650   9.406
 2742POPC   GL137225   6.000  23.806   9.086
 2742POPC   GL237226   5.653  23.872   9.152
 2742POPC   C1A37227   6.109  23.727   8.680
 2742POPC   D2A37228   5.876  23.729   8.348
 2742POPC   C3A37229   6.002  23.555   7.996
 2742POPC   C4A37230   5.662  23.455   7.724
 2742POPC   C1B37231   5.733  24.069   8.734
 2742POPC   C2B37232   5.739  24.221   8.285
 2742POPC   C3B37233   5.617  23.945   7.933
 2742POPC   C4B37234   5.506  24.096   7.522
 2743POPC   NC337235  42.884   2.190   9.444
 2743POPC   PO437236  43.066   1.616   9.172
 2743POPC   GL137237  43.137   2.052   9.023
 2743POPC   GL237238  42.797   2.242   8.950
 2743POPC   C1A37239  43.413   1.998   8.676
 2743POPC   D2A37240  43.309   1.737   8.325
 2743POPC   C3A37241  43.052   1.992   8.090
 2743POPC   C4A37242  43.178   2.295   7.761
 2743POPC   C1B37243  42.903   1.986   8.593
 2743POPC   C2B37244  42.847   1.574   8.474
 2743POPC   C3B37245  42.638   1.650   8.117
 2743POPC   C4B37246  42.653   1.988   7.790
 2744POPC   NC337247  32.909  34.353   9.343
 2744POPC   PO437248  33.145  34.996   9.514
 2744POPC   GL137249  33.048  34.855   9.126
 2744POPC   GL237250  32.711  34.767   9.154
 2744POPC   C1A37251  33.073  34.651   8.734
 2744POPC   D2A37252  33.171  34.802   8.333
 2744POPC   C3A37253  32.997  34.593   7.996
 2744POPC   C4A37254  33.191  34.393   7.671
 2744POPC   C1B37255  32.602  34.853   8.742
 2744POPC   C2B37256  32.620  34.683   8.349
 2744POPC   C3B37257  32.498  34.709   7.923
 2744POPC   C4B37258  32.659  34.463   7.591
 2745POPC   NC337259  13.581  21.444   9.557
 2745POPC   PO437260  13.056  21.316   9.296
 2745POPC   GL137261  13.317  21.565   9.092
 2745POPC   GL237262  13.672  21.425   9.066
 2745POPC   C1A37263  13.370  21.474   8.669
 2745POPC   D2A37264  13.452  21.189   8.358
 2745POPC   C3A37265  13.429  21.480   8.061
 2745POPC   C4A37266  13.584  21.640   7.688
 2745POPC   C1B37267  13.869  21.413   8.664
 2745POPC   C2B37268  13.903  21.458   8.237
 2745POPC   C3B37269  13.887  21.274   7.871
 2745POPC   C4B37270  14.000  21.479   7.461
 2746POPC   NC337271  38.135   2.405   9.348
 2746POPC   PO437272  37.528   2.653   9.398
 2746POPC   GL137273  37.644   2.879   9.039
 2746POPC   GL237274  37.333   3.030   9.023
 2746POPC   C1A37275  37.718   2.757   8.654
 2746POPC   D2A37276  37.647   2.498   8.330
 2746POPC   C3A37277  37.832   2.703   8.009
 2746POPC   C4A37278  37.764   2.865   7.627
 2746POPC   C1B37279  37.470   3.201   8.627
 2746POPC   C2B37280  37.437   3.047   8.208
 2746POPC   C3B37281  37.399   3.184   7.761
 2746POPC   C4B37282  37.379   3.018   7.304
 2747POPC   NC337283  21.133  40.446   9.532
 2747POPC   PO437284  21.507  39.827   9.544
 2747POPC   GL137285  21.591  39.912   9.121
 2747POPC   GL237286  21.257  40.074   9.169
 2747POPC   C1A37287  21.634  39.754   8.680
 2747POPC   D2A37288  21.463  40.048   8.404
 2747POPC   C3A37289  21.560  40.087   7.988
 2747POPC   C4A37290  21.771  39.788   7.756
 2747POPC   C1B37291  21.267  40.283   8.818
 2747POPC   C2B37292  20.997  40.196   8.470
 2747POPC   C3B37293  21.047  39.987   8.116
 2747POPC   C4B37294  21.125  40.267   7.765
 2748POPC   NC337295   1.350  43.703   9.325
 2748POPC   PO437296   0.976  44.189   9.600
 2748POPC   GL137297   0.999  44.084   9.152
 2748POPC   GL237298   0.925  43.743   9.053
 2748POPC   C1A37299   1.237  43.998   8.739
 2748POPC   D2A37300   1.425  44.147   8.370
 2748POPC   C3A37301   1.288  44.000   7.954
 2748POPC   C4A37302   1.432  44.006   7.527
 2748POPC   C1B37303   0.984  43.550   8.668
 2748POPC   C2B37304   1.136  43.635   8.302
 2748POPC   C3B37305   0.920  43.595   7.932
 2748POPC   C4B37306   1.095  43.639   7.553
 2749POPC   NC337307  11.148  42.001   9.296
 2749POPC   PO437308  11.054  42.661   9.250
 2749POPC   GL137309  11.221  42.392   8.964
 2749POPC   GL237310  11.479  42.527   8.889
 2749POPC   C1A37311  11.369  42.075   8.672
 2749POPC   D2A37312  11.318  41.903   8.320
 2749POPC   C3A37313  11.024  42.117   8.123
 2749POPC   C4A37314  11.240  42.186   7.758
 2749POPC   C1B37315  11.557  42.526   8.477
 2749POPC   C2B37316  11.337  42.608   8.136
 2749POPC   C3B37317  11.357  42.665   7.728
 2749POPC   C4B37318  11.492  42.454   7.351
 2750POPC   NC337319  43.539   9.280   9.463
 2750POPC   PO437320  44.147   9.078   9.801
 2750POPC   GL137321  43.973   8.999   9.378
 2750POPC   GL237322  44.204   9.199   9.207
 2750POPC   C1A37323  43.814   9.004   8.934
 2750POPC   D2A37324  43.984   9.009   8.512
 2750POPC   C3A37325  43.833   9.035   8.100
 2750POPC   C4A37326  43.949   8.765   7.774
 2750POPC   C1B37327  44.227   9.332   8.808
 2750POPC   C2B37328  44.434   9.264   8.430
 2750POPC   C3B37329  44.287   9.259   8.033
 2750POPC   C4B37330  43.954   9.472   7.837
 2751POPC   NC337331  42.493  26.476   9.289
 2751POPC   PO437332  42.176  27.054   9.454
 2751POPC   GL137333  42.234  26.868   9.075
 2751POPC   GL237334  42.013  26.540   9.122
 2751POPC   C1A37335  42.495  26.730   8.698
 2751POPC   D2A37336  42.587  26.367   8.417
 2751POPC   C3A37337  42.466  26.509   7.998
 2751POPC   C4A37338  42.594  26.908   7.779
 2751POPC   C1B37339  41.904  26.741   8.726
 2751POPC   C2B37340  42.139  27.018   8.453
 2751POPC   C3B37341  42.280  27.173   8.074
 2751POPC   C4B37342  42.151  27.154   7.643
 2752POPC   NC337343   7.802  28.644   9.522
 2752POPC   PO437344   8.535  28.632   9.456
 2752POPC   GL137345   8.184  28.562   9.181
 2752POPC   GL237346   8.093  28.227   9.263
 2752POPC   C1A37347   7.912  28.609   8.826
 2752POPC   D2A37348   7.783  28.463   8.395
 2752POPC   C3A37349   7.906  28.686   8.009
 2752POPC   C4A37350   8.294  28.637   7.763
 2752POPC   C1B37351   8.058  28.122   8.824
 2752POPC   C2B37352   8.240  28.215   8.398
 2752POPC   C3B37353   8.017  28.168   7.997
 2752POPC   C4B37354   7.811  28.343   7.618
 2753POPC   NC337355  44.348   8.705   9.592
 2753POPC   PO437356  44.847   9.096   9.493
 2753POPC   GL137357  44.620   8.903   9.131
 2753POPC   GL237358  44.292   8.727   9.063
 2753POPC   C1A37359  44.779   8.873   8.711
 2753POPC   D2A37360  44.722   8.844   8.271
 2753POPC   C3A37361  44.777   9.143   7.960
 2753POPC   C4A37362  44.994   9.413   7.725
 2753POPC   C1B37363  44.341   8.633   8.617
 2753POPC   C2B37364  44.245   8.706   8.186
 2753POPC   C3B37365  44.457   8.784   7.830
 2753POPC   C4B37366  44.839   8.588   7.819
 2754POPC   NC337367  34.314  42.882   9.429
 2754POPC   PO437368  34.665  43.465   9.446
 2754POPC   GL137369  34.773  43.249   9.060
 2754POPC   GL237370  34.806  42.883   9.121
 2754POPC   C1A37371  34.686  43.372   8.641
 2754POPC   D2A37372  34.546  43.532   8.226
 2754POPC   C3A37373  34.495  43.208   7.879
 2754POPC   C4A37374  34.484  43.121   7.421
 2754POPC   C1B37375  35.000  42.820   8.700
 2754POPC   C2B37376  35.161  42.747   8.278
 2754POPC   C3B37377  34.924  42.878   7.907
 2754POPC   C4B37378  34.836  42.757   7.462
 2755POPC   NC337379   0.563  43.251   9.555
 2755POPC   PO437380   0.269  42.618   9.548
 2755POPC   GL137381   0.442  42.945   9.156
 2755POPC   GL237382   0.296  43.228   9.094
 2755POPC   C1A37383   0.583  43.128   8.684
 2755POPC   D2A37384   0.446  42.963   8.273
 2755POPC   C3A37385   0.506  43.237   7.910
 2755POPC   C4A37386   0.810  43.221   7.563
 2755POPC   C1B37387   0.115  42.939   8.722
 2755POPC   C2B37388  44.958  42.873   8.276
 2755POPC   C3B37389   0.114  42.868   7.828
 2755POPC   C4B37390  44.946  42.869   7.365
 2756POPC   NC337391  29.781   9.915   9.538
 2756POPC   PO437392  30.351   9.469   9.388
 2756POPC   GL137393  30.121   9.746   9.142
 2756POPC   GL237394  29.813   9.539   9.188
 2756POPC   C1A37395  30.003   9.661   8.710
 2756POPC   D2A37396  30.181   9.573   8.341
 2756POPC   C3A37397  30.175   9.808   7.990
 2756POPC   C4A37398  30.174   9.493   7.678
 2756POPC   C1B37399  29.535   9.704   8.887
 2756POPC   C2B37400  29.473   9.643   8.457
 2756POPC   C3B37401  29.711   9.583   8.091
 2756POPC   C4B37402  29.736   9.834   7.739
 2757POPC   NC337403  21.902  23.266   9.387
 2757POPC   PO437404  21.799  23.910   9.486
 2757POPC   GL137405  22.026  23.756   9.157
 2757POPC   GL237406  22.377  23.836   9.177
 2757POPC   C1A37407  22.130  23.622   8.758
 2757POPC   D2A37408  22.004  23.789   8.361
 2757POPC   C3A37409  22.101  23.477   8.068
 2757POPC   C4A37410  22.238  23.571   7.718
 2757POPC   C1B37411  22.331  24.094   8.807
 2757POPC   C2B37412  22.378  24.207   8.382
 2757POPC   C3B37413  22.081  24.240   8.075
 2757POPC   C4B37414  22.055  24.026   7.710
 2758POPC   NC337415  42.834  24.818   9.506
 2758POPC   PO437416  43.317  24.304   9.527
 2758POPC   GL137417  43.080  24.323   9.161
 2758POPC   GL237418  43.084  24.679   9.090
 2758POPC   C1A37419  43.189  24.257   8.738
 2758POPC   D2A37420  42.969  24.215   8.346
 2758POPC   C3A37421  43.189  24.202   7.986
 2758POPC   C4A37422  43.304  24.436   7.625
 2758POPC   C1B37423  43.224  24.828   8.718
 2758POPC   C2B37424  43.268  24.612   8.342
 2758POPC   C3B37425  43.055  24.703   7.965
 2758POPC   C4B37426  43.256  25.074   7.858
 2759POPC   NC337427  15.302   3.539   9.199
 2759POPC   PO437428  14.907   3.996   9.570
 2759POPC   GL137429  14.933   3.887   9.107
 2759POPC   GL237430  15.288   4.004   9.027
 2759POPC   C1A37431  14.929   3.646   8.659
 2759POPC   D2A37432  15.270   3.384   8.413
 2759POPC   C3A37433  15.344   3.451   7.950
 2759POPC   C4A37434  15.183   3.468   7.492
 2759POPC   C1B37435  15.378   3.863   8.618
 2759POPC   C2B37436  15.226   3.879   8.193
 2759POPC   C3B37437  15.296   3.921   7.735
 2759POPC   C4B37438  15.422   3.863   7.276
 2760POPC   NC337439  30.779  44.508   9.556
 2760POPC   PO437440  30.347  44.966   9.615
 2760POPC   GL137441  30.385  44.760   9.225
 2760POPC   GL237442  30.334  44.408   9.265
 2760POPC   C1A37443  30.668  44.708   8.864
 2760POPC   D2A37444  30.740  44.826   8.452
 2760POPC   C3A37445  30.774  44.607   8.085
 2760POPC   C4A37446  30.794  44.832   7.703
 2760POPC   C1B37447  30.218  44.476   8.812
 2760POPC   C2B37448  30.353  44.436   8.346
 2760POPC   C3B37449  30.306  44.625   7.900
 2760POPC   C4B37450  30.450  44.497   7.480
 2761POPC   NC337451  35.174   0.226   9.357
 2761POPC   PO437452  35.803   0.588   9.421
 2761POPC   GL137453  35.533   0.506   9.044
 2761POPC   GL237454  35.190   0.668   8.962
 2761POPC   C1A37455  35.564   0.617   8.613
 2761POPC   D2A37456  35.338   0.536   8.237
 2761POPC   C3A37457  35.500   0.664   7.862
 2761POPC   C4A37458  35.493   0.516   7.447
 2761POPC   C1B37459  35.140   0.311   8.673
 2761POPC   C2B37460  35.031   0.129   8.247
 2761POPC   C3B37461  35.217   0.213   7.820
 2761POPC   C4B37462  35.150   0.182   7.307
 2762POPC   NC337463  13.079  33.809   9.560
 2762POPC   PO437464  12.431  33.835   9.672
 2762POPC   GL137465  12.646  33.704   9.263
 2762POPC   GL237466  12.809  33.944   9.088
 2762POPC   C1A37467  12.647  33.530   8.813
 2762POPC   D2A37468  12.791  33.714   8.451
 2762POPC   C3A37469  12.599  33.862   8.078
 2762POPC   C4A37470  12.776  34.078   7.763
 2762POPC   C1B37471  13.140  33.760   8.860
 2762POPC   C2B37472  13.289  33.642   8.448
 2762POPC   C3B37473  13.130  33.795   8.059
 2762POPC   C4B37474  13.316  33.681   7.675
 2763POPC   NC337475  24.669  18.848   9.528
 2763POPC   PO437476  24.276  19.377   9.648
 2763POPC   GL137477  24.474  19.228   9.253
 2763POPC   GL237478  24.208  19.321   9.120
 2763POPC   C1A37479  24.498  18.975   8.840
 2763POPC   D2A37480  24.751  18.753   8.521
 2763POPC   C3A37481  24.678  18.827   8.041
 2763POPC   C4A37482  24.542  19.216   7.877
 2763POPC   C1B37483  24.055  19.219   8.745
 2763POPC   C2B37484  24.110  18.947   8.452
 2763POPC   C3B37485  24.140  18.960   8.068
 2763POPC   C4B37486  24.107  19.008   7.663
 2764POPC   NC337487  43.496  28.954   9.750
 2764POPC   PO437488  42.870  29.213   9.691
 2764POPC   GL137489  43.105  29.231   9.282
 2764POPC   GL237490  43.319  28.931   9.260
 2764POPC   C1A37491  43.184  29.278   8.862
 2764POPC   D2A37492  43.048  29.071   8.497
 2764POPC   C3A37493  43.231  29.220   8.123
 2764POPC   C4A37494  43.053  29.341   7.679
 2764POPC   C1B37495  43.391  28.786   8.817
 2764POPC   C2B37496  43.325  28.659   8.370
 2764POPC   C3B37497  43.435  28.772   7.938
 2764POPC   C4B37498  43.276  28.890   7.488
 2765POPC   NC337499  36.222  26.181   9.438
 2765POPC   PO437500  35.782  25.610   9.206
 2765POPC   GL137501  36.055  25.884   9.045
 2765POPC   GL237502  36.398  25.837   9.091
 2765POPC   C1A37503  36.053  25.975   8.644
 2765POPC   D2A37504  35.895  26.252   8.380
 2765POPC   C3A37505  35.948  26.076   8.013
 2765POPC   C4A37506  35.817  26.271   7.661
 2765POPC   C1B37507  36.544  26.051   8.742
 2765POPC   C2B37508  36.466  25.916   8.319
 2765POPC   C3B37509  36.446  26.114   7.915
 2765POPC   C4B37510  36.205  25.945   7.583
 2766POPC   NC337511  15.096  14.282   9.579
 2766POPC   PO437512  15.253  13.701   9.415
 2766POPC   GL137513  15.291  14.140   9.126
 2766POPC   GL237514  15.199  14.540   9.139
 2766POPC   C1A37515  15.239  14.271   8.685
 2766POPC   D2A37516  15.266  14.550   8.321
 2766POPC   C3A37517  15.269  14.292   7.929
 2766POPC   C4A37518  15.169  14.198   7.495
 2766POPC   C1B37519  14.891  14.637   8.791
 2766POPC   C2B37520  14.759  14.748   8.344
 2766POPC   C3B37521  14.942  14.698   7.914
 2766POPC   C4B37522  15.278  14.686   7.566
 2767POPC   NC337523  32.591  40.157   9.180
 2767POPC   PO437524  32.072  39.949   9.614
 2767POPC   GL137525  32.073  40.114   9.230
 2767POPC   GL237526  32.221  39.876   8.980
 2767POPC   C1A37527  31.836  40.168   8.875
 2767POPC   D2A37528  31.963  39.943   8.542
 2767POPC   C3A37529  32.109  40.126   8.181
 2767POPC   C4A37530  31.887  39.908   7.869
 2767POPC   C1B37531  32.481  39.914   8.580
 2767POPC   C2B37532  32.844  39.867   8.308
 2767POPC   C3B37533  32.735  40.044   7.926
 2767POPC   C4B37534  32.357  40.195   7.723
 2768POPC   NC337535  39.855  35.757   9.315
 2768POPC   PO437536  40.153  36.212   9.644
 2768POPC   GL137537  40.143  36.157   9.207
 2768POPC   GL237538  39.818  36.237   9.101
 2768POPC   C1A37539  40.105  36.043   8.737
 2768POPC   D2A37540  40.059  35.856   8.358
 2768POPC   C3A37541  40.195  36.001   8.009
 2768POPC   C4A37542  40.335  35.755   7.703
 2768POPC   C1B37543  39.783  36.435   8.732
 2768POPC   C2B37544  39.665  36.186   8.423
 2768POPC   C3B37545  39.661  36.016   8.043
 2768POPC   C4B37546  39.854  36.064   7.628
 2769POPC   NC337547   5.989  22.041   9.424
 2769POPC   PO437548   5.364  22.238   9.540
 2769POPC   GL137549   5.610  22.427   9.178
 2769POPC   GL237550   5.980  22.532   9.226
 2769POPC   C1A37551   5.747  22.164   8.831
 2769POPC   D2A37552   5.539  21.914   8.508
 2769POPC   C3A37553   5.729  21.965   8.111
 2769POPC   C4A37554   6.051  21.915   7.787
 2769POPC   C1B37555   6.040  22.598   8.785
 2769POPC   C2B37556   5.893  22.397   8.400
 2769POPC   C3B37557   6.107  22.354   8.033
 2769POPC   C4B37558   6.158  22.730   7.813
 2770POPC   NC337559  39.802  13.440   9.473
 2770POPC   PO437560  40.055  14.118   9.663
 2770POPC   GL137561  39.971  13.936   9.220
 2770POPC   GL237562  40.267  13.748   9.088
 2770POPC   C1A37563  39.927  13.905   8.727
 2770POPC   D2A37564  39.748  14.027   8.298
 2770POPC   C3A37565  39.690  13.822   7.909
 2770POPC   C4A37566  39.642  13.487   7.626
 2770POPC   C1B37567  40.430  13.647   8.690
 2770POPC   C2B37568  40.209  13.704   8.295
 2770POPC   C3B37569  40.014  13.437   7.997
 2770POPC   C4B37570  40.205  13.208   7.684
 2771POPC   NC337571  36.897   0.310   9.547
 2771POPC   PO437572  36.717   0.962   9.418
 2771POPC   GL137573  36.934   0.691   9.113
 2771POPC   GL237574  37.040   0.360   9.081
 2771POPC   C1A37575  37.075   0.733   8.704
 2771POPC   D2A37576  36.854   0.608   8.334
 2771POPC   C3A37577  36.945   0.728   7.937
 2771POPC   C4A37578  36.735   0.880   7.548
 2771POPC   C1B37579  36.783   0.309   8.771
 2771POPC   C2B37580  36.883   0.080   8.404
 2771POPC   C3B37581  36.998   0.210   8.011
 2771POPC   C4B37582  36.842   0.368   7.608
 2772POPC   NC337583   9.748   6.066   9.446
 2772POPC   PO437584   9.426   5.516   9.332
 2772POPC   GL137585   9.666   5.752   9.059
 2772POPC   GL237586   9.928   5.531   8.995
 2772POPC   C1A37587   9.632   5.938   8.659
 2772POPC   D2A37588   9.727   5.676   8.331
 2772POPC   C3A37589   9.622   5.873   7.951
 2772POPC   C4A37590   9.303   5.784   7.679
 2772POPC   C1B37591  10.111   5.817   8.735
 2772POPC   C2B37592  10.097   6.007   8.384
 2772POPC   C3B37593  10.136   5.838   8.002
 2772POPC   C4B37594  10.004   5.992   7.655
 2773POPC   NC337595  26.208  27.243   9.331
 2773POPC   PO437596  26.394  27.829   9.526
 2773POPC   GL137597  26.050  27.711   9.171
 2773POPC   GL237598  25.882  27.363   8.983
 2773POPC   C1A37599  25.935  27.788   8.723
 2773POPC   D2A37600  25.946  27.458   8.415
 2773POPC   C3A37601  26.028  27.594   8.047
 2773POPC   C4A37602  25.803  27.845   7.751
 2773POPC   C1B37603  26.246  27.204   8.716
 2773POPC   C2B37604  26.407  27.049   8.311
 2773POPC   C3B37605  26.118  27.102   7.973
 2773POPC   C4B37606  25.787  27.327   7.710
 2774POPC   NC337607  24.267  17.181   9.413
 2774POPC   PO437608  23.921  17.835   9.457
 2774POPC   GL137609  24.115  17.583   9.110
 2774POPC   GL237610  23.965  17.226   9.024
 2774POPC   C1A37611  24.404  17.644   8.741
 2774POPC   D2A37612  24.657  17.773   8.372
 2774POPC   C3A37613  24.603  17.585   7.922
 2774POPC   C4A37614  24.635  17.597   7.432
 2774POPC   C1B37615  24.054  17.283   8.633
 2774POPC   C2B37616  24.139  17.095   8.245
 2774POPC   C3B37617  24.101  17.359   7.866
 2774POPC   C4B37618  24.189  17.803   7.693
 2775POPC   NC337619  43.552  40.325   9.618
 2775POPC   PO437620  43.848  40.934   9.643
 2775POPC   GL137621  43.885  40.814   9.213
 2775POPC   GL237622  44.042  40.480   9.201
 2775POPC   C1A37623  43.983  40.821   8.775
 2775POPC   D2A37624  44.099  40.778   8.359
 2775POPC   C3A37625  43.770  40.973   8.176
 2775POPC   C4A37626  43.729  41.066   7.776
 2775POPC   C1B37627  43.661  40.427   8.925
 2775POPC   C2B37628  43.604  40.530   8.485
 2775POPC   C3B37629  43.686  40.495   8.046
 2775POPC   C4B37630  44.022  40.628   7.780
 2776POPC   NC337631  25.442  21.312   9.460
 2776POPC   PO437632  25.023  21.645   9.101
 2776POPC   GL137633  25.382  21.404   8.951
 2776POPC   GL237634  25.599  21.091   9.034
 2776POPC   C1A37635  25.578  21.311   8.576
 2776POPC   D2A37636  25.644  21.340   8.184
 2776POPC   C3A37637  25.429  21.686   8.064
 2776POPC   C4A37638  25.238  21.654   7.675
 2776POPC   C1B37639  25.398  20.847   8.680
 2776POPC   C2B37640  25.204  20.946   8.291
 2776POPC   C3B37641  25.250  21.195   7.903
 2776POPC   C4B37642  25.186  21.159   7.424
 2777POPC   NC337643  16.015  42.559   9.628
 2777POPC   PO437644  15.792  41.965   9.539
 2777POPC   GL137645  15.742  42.218   9.152
 2777POPC   GL237646  15.701  42.596   9.192
 2777POPC   C1A37647  15.919  42.172   8.712
 2777POPC   D2A37648  16.204  42.342   8.408
 2777POPC   C3A37649  16.028  42.409   8.015
 2777POPC   C4A37650  16.076  42.332   7.575
 2777POPC   C1B37651  15.494  42.463   8.784
 2777POPC   C2B37652  15.443  42.278   8.360
 2777POPC   C3B37653  15.562  42.255   7.914
 2777POPC   C4B37654  15.667  42.633   7.673
 2778POPC   NC337655  42.743  30.691   9.398
 2778POPC   PO437656  42.195  30.279   9.541
 2778POPC   GL137657  42.279  30.554   9.211
 2778POPC   GL237658  42.323  30.908   9.162
 2778POPC   C1A37659  42.378  30.560   8.788
 2778POPC   D2A37660  42.269  30.816   8.442
 2778POPC   C3A37661  42.333  30.716   8.008
 2778POPC   C4A37662  42.160  30.542   7.624
 2778POPC   C1B37663  42.638  31.001   8.826
 2778POPC   C2B37664  42.593  31.211   8.424
 2778POPC   C3B37665  42.721  31.085   8.036
 2778POPC   C4B37666  42.566  31.027   7.625
 2779POPC   NC337667  17.107  35.725   9.527
 2779POPC   PO437668  16.773  35.181   9.510
 2779POPC   GL137669  17.197  35.314   9.223
 2779POPC   GL237670  17.510  35.576   9.264
 2779POPC   C1A37671  17.459  35.342   8.812
 2779POPC   D2A37672  17.675  35.168   8.446
 2779POPC   C3A37673  17.484  35.278   8.045
 2779POPC   C4A37674  17.222  35.581   7.837
 2779POPC   C1B37675  17.635  35.822   8.865
 2779POPC   C2B37676  17.650  35.691   8.411
 2779POPC   C3B37677  17.785  35.685   7.972
 2779POPC   C4B37678  17.760  35.510   7.516
 2780POPC   NC337679  30.948   6.694   9.564
 2780POPC   PO437680  30.391   6.262   9.306
 2780POPC   GL137681  30.730   6.505   9.138
 2780POPC   GL237682  31.038   6.364   9.186
 2780POPC   C1A37683  30.685   6.705   8.740
 2780POPC   D2A37684  30.454   6.665   8.347
 2780POPC   C3A37685  30.698   6.728   8.024
 2780POPC   C4A37686  30.911   6.968   7.736
 2780POPC   C1B37687  30.968   6.282   8.763
 2780POPC   C2B37688  30.883   6.372   8.368
 2780POPC   C3B37689  30.898   6.254   7.974
 2780POPC   C4B37690  31.167   6.517   7.754
 2781POPC   NC337691  23.872  25.932   9.563
 2781POPC   PO437692  23.461  26.492   9.568
 2781POPC   GL137693  23.523  26.284   9.195
 2781POPC   GL237694  23.605  25.916   9.136
 2781POPC   C1A37695  23.378  26.242   8.804
 2781POPC   D2A37696  23.531  26.018   8.457
 2781POPC   C3A37697  23.478  26.171   8.047
 2781POPC   C4A37698  23.687  26.020   7.684
 2781POPC   C1B37699  23.959  25.812   8.900
 2781POPC   C2B37700  23.996  25.809   8.485
 2781POPC   C3B37701  24.000  25.866   8.061
 2781POPC   C4B37702  24.142  25.757   7.662
 2782POPC   NC337703  44.145  26.564   9.646
 2782POPC   PO437704  43.720  27.002   9.736
 2782POPC   GL137705  43.904  26.861   9.283
 2782POPC   GL237706  44.236  26.751   9.178
 2782POPC   C1A37707  43.903  26.934   8.812
 2782POPC   D2A37708  44.128  26.803   8.406
 2782POPC   C3A37709  43.872  26.846   7.991
 2782POPC   C4A37710  43.822  26.880   7.489
 2782POPC   C1B37711  44.116  26.448   8.837
 2782POPC   C2B37712  44.251  26.306   8.418
 2782POPC   C3B37713  44.160  26.426   7.966
 2782POPC   C4B37714  43.804  26.408   7.652
 2783POPC   NC337715  41.829   8.470   9.497
 2783POPC   PO437716  41.323   8.001   9.458
 2783POPC   GL137717  41.495   8.234   9.083
 2783POPC   GL237718  41.878   8.313   9.002
 2783POPC   C1A37719  41.460   8.244   8.620
 2783POPC   D2A37720  41.609   8.421   8.224
 2783POPC   C3A37721  41.317   8.355   7.884
 2783POPC   C4A37722  41.255   7.937   7.722
 2783POPC   C1B37723  41.952   8.222   8.572
 2783POPC   C2B37724  41.921   7.896   8.271
 2783POPC   C3B37725  41.774   7.906   7.847
 2783POPC   C4B37726  41.721   8.302   7.623
 2784POPC   NC337727  19.887  16.837   9.638
 2784POPC   PO437728  19.409  16.991   9.287
 2784POPC   GL137729  19.725  16.654   9.167
 2784POPC   GL237730  20.083  16.665   9.157
 2784POPC   C1A37731  19.775  16.646   8.723
 2784POPC   D2A37732  19.618  16.915   8.407
 2784POPC   C3A37733  19.751  16.872   7.987
 2784POPC   C4A37734  19.873  16.696   7.583
 2784POPC   C1B37735  20.205  16.385   8.772
 2784POPC   C2B37736  19.940  16.259   8.391
 2784POPC   C3B37737  19.943  16.328   7.928
 2784POPC   C4B37738  20.251  16.330   7.574
 2785POPC   NC337739  17.896  38.531   9.299
 2785POPC   PO437740  18.459  38.816   9.615
 2785POPC   GL137741  18.419  38.534   9.212
 2785POPC   GL237742  18.624  38.250   9.147
 2785POPC   C1A37743  18.256  38.574   8.775
 2785POPC   D2A37744  18.134  38.334   8.438
 2785POPC   C3A37745  18.223  38.454   8.006
 2785POPC   C4A37746  17.963  38.683   7.753
 2785POPC   C1B37747  18.577  38.149   8.696
 2785POPC   C2B37748  18.533  38.074   8.264
 2785POPC   C3B37749  18.141  37.962   8.053
 2785POPC   C4B37750  17.925  38.108   7.671
 2786POPC   NC337751  20.434  15.545   9.850
 2786POPC   PO437752  20.735  14.997   9.480
 2786POPC   GL137753  20.612  15.127   9.117
 2786POPC   GL237754  20.534  15.442   9.154
 2786POPC   C1A37755  20.485  14.986   8.736
 2786POPC   D2A37756  20.686  14.947   8.346
 2786POPC   C3A37757  20.439  14.979   7.979
 2786POPC   C4A37758  20.559  15.063   7.551
 2786POPC   C1B37759  20.472  15.541   8.750
 2786POPC   C2B37760  20.368  15.365   8.392
 2786POPC   C3B37761  20.556  15.468   8.055
 2786POPC   C4B37762  20.302  15.439   7.757
 2787POPC   NC337763   8.686  39.722   9.864
 2787POPC   PO437764   8.977  39.167   9.581
 2787POPC   GL137765   9.111  39.123   9.165
 2787POPC   GL237766   9.143  39.392   9.091
 2787POPC   C1A37767   9.011  39.031   8.712
 2787POPC   D2A37768   9.046  39.323   8.324
 2787POPC   C3A37769   9.018  39.158   7.885
 2787POPC   C4A37770   9.164  38.766   7.685
 2787POPC   C1B37771   8.812  39.480   8.771
 2787POPC   C2B37772   8.560  39.412   8.396
 2787POPC   C3B37773   8.682  39.550   7.982
 2787POPC   C4B37774   8.438  39.799   7.735
 2788POPC   NC337775  28.568  16.105   9.464
 2788POPC   PO437776  27.938  15.766   9.491
 2788POPC   GL137777  28.137  15.989   9.168
 2788POPC   GL237778  28.463  15.801   9.092
 2788POPC   C1A37779  28.152  15.932   8.725
 2788POPC   D2A37780  28.320  15.731   8.394
 2788POPC   C3A37781  28.315  15.876   7.982
 2788POPC   C4A37782  28.312  15.564   7.701
 2788POPC   C1B37783  28.671  15.952   8.711
 2788POPC   C2B37784  28.558  16.183   8.314
 2788POPC   C3B37785  28.640  16.328   7.874
 2788POPC   C4B37786  28.807  16.403   7.429
 2789POPC   NC337787  18.025   7.024   9.295
 2789POPC   PO437788  18.306   7.639   9.456
 2789POPC   GL137789  18.341   7.414   9.077
 2789POPC   GL237790  18.515   7.113   9.067
 2789POPC   C1A37791  18.158   7.357   8.671
 2789POPC   D2A37792  18.375   7.314   8.285
 2789POPC   C3A37793  18.398   7.614   7.971
 2789POPC   C4A37794  18.371   7.486   7.561
 2789POPC   C1B37795  18.683   7.253   8.698
 2789POPC   C2B37796  18.883   7.166   8.326
 2789POPC   C3B37797  18.707   7.180   7.910
 2789POPC   C4B37798  18.848   7.351   7.509
 2790POPC   NC337799  32.287  41.205   9.775
 2790POPC   PO437800  32.506  41.706   9.390
 2790POPC   GL137801  32.373  41.516   9.100
 2790POPC   GL237802  32.069  41.403   9.249
 2790POPC   C1A37803  32.459  41.441   8.700
 2790POPC   D2A37804  32.310  41.692   8.382
 2790POPC   C3A37805  32.194  41.604   7.961
 2790POPC   C4A37806  32.408  41.654   7.570
 2790POPC   C1B37807  31.966  41.529   8.798
 2790POPC   C2B37808  31.928  41.357   8.368
 2790POPC   C3B37809  31.815  41.263   7.939
 2790POPC   C4B37810  31.865  41.529   7.550
 2791POPC   NC337811   8.567  15.975   9.554
 2791POPC   PO437812   8.041  16.237   9.466
 2791POPC   GL137813   8.363  16.088   9.116
 2791POPC   GL237814   8.567  15.739   9.119
 2791POPC   C1A37815   8.416  16.006   8.679
 2791POPC   D2A37816   8.159  16.205   8.369
 2791POPC   C3A37817   8.279  15.983   8.066
 2791POPC   C4A37818   8.177  16.022   7.678
 2791POPC   C1B37819   8.518  15.506   8.759
 2791POPC   C2B37820   8.358  15.516   8.321
 2791POPC   C3B37821   8.465  15.544   7.874
 2791POPC   C4B37822   8.406  15.655   7.426
 2792POPC   NC337823  20.974  23.060   9.506
 2792POPC   PO437824  21.306  22.498   9.478
 2792POPC   GL137825  21.279  22.822   9.155
 2792POPC   GL237826  20.989  22.963   9.003
 2792POPC   C1A37827  21.504  23.041   8.836
 2792POPC   D2A37828  21.597  22.870   8.462
 2792POPC   C3A37829  21.342  22.949   8.116
 2792POPC   C4A37830  21.397  22.936   7.688
 2792POPC   C1B37831  21.132  22.706   8.631
 2792POPC   C2B37832  21.171  22.454   8.252
 2792POPC   C3B37833  21.100  22.510   7.798
 2792POPC   C4B37834  21.168  22.614   7.338
 2793POPC   NC337835  23.071  15.723   9.591
 2793POPC   PO437836  22.597  16.134   9.373
 2793POPC   GL137837  23.001  16.022   9.177
 2793POPC   GL237838  23.223  15.724   9.099
 2793POPC   C1A37839  23.090  16.104   8.760
 2793POPC   D2A37840  23.060  15.914   8.374
 2793POPC   C3A37841  23.027  16.112   7.995
 2793POPC   C4A37842  22.721  16.198   7.725
 2793POPC   C1B37843  22.850  15.656   8.828
 2793POPC   C2B37844  22.551  15.758   8.482
 2793POPC   C3B37845  22.681  15.741   8.027
 2793POPC   C4B37846  22.691  15.493   7.625
 2794POPC   NC337847   2.132  27.137   9.541
 2794POPC   PO437848   2.082  27.719   9.390
 2794POPC   GL137849   2.087  27.363   9.096
 2794POPC   GL237850   2.415  27.176   9.126
 2794POPC   C1A37851   1.872  27.423   8.718
 2794POPC   D2A37852   1.861  27.846   8.562
 2794POPC   C3A37853   1.838  27.813   8.109
 2794POPC   C4A37854   1.653  27.861   7.652
 2794POPC   C1B37855   2.416  27.366   8.725
 2794POPC   C2B37856   2.280  27.600   8.405
 2794POPC   C3B37857   2.371  27.479   8.055
 2794POPC   C4B37858   2.140  27.384   7.734
 2795POPC   NC337859  30.858  39.988   9.659
 2795POPC   PO437860  30.320  40.312   9.470
 2795POPC   GL137861  30.577  40.009   9.220
 2795POPC   GL237862  30.875  40.178   9.175
 2795POPC   C1A37863  30.445  39.833   8.799
 2795POPC   D2A37864  30.415  40.085   8.415
 2795POPC   C3A37865  30.400  39.863   8.034
 2795POPC   C4A37866  30.432  40.000   7.637
 2795POPC   C1B37867  30.899  40.034   8.761
 2795POPC   C2B37868  30.990  40.118   8.333
 2795POPC   C3B37869  30.913  40.112   7.902
 2795POPC   C4B37870  30.905  40.110   7.435
 2796POPC   NC337871   4.549  19.449   9.310
 2796POPC   PO437872   3.943  19.962   9.423
 2796POPC   GL137873   4.215  19.943   9.080
 2796POPC   GL237874   4.567  19.906   9.082
 2796POPC   C1A37875   4.323  19.951   8.640
 2796POPC   D2A37876   4.385  19.686   8.295
 2796POPC   C3A37877   4.194  20.008   8.068
 2796POPC   C4A37878   4.275  20.211   7.688
 2796POPC   C1B37879   4.725  19.624   8.707
 2796POPC   C2B37880   4.914  19.735   8.303
 2796POPC   C3B37881   4.686  19.944   7.965
 2796POPC   C4B37882   4.398  19.700   7.708
 2797POPC   NC337883   0.097  33.241   9.474
 2797POPC   PO437884   0.530  32.775   9.453
 2797POPC   GL137885   0.352  32.827   9.071
 2797POPC   GL237886   0.041  32.880   9.090
 2797POPC   C1A37887   0.320  32.905   8.625
 2797POPC   D2A37888   0.336  32.677   8.212
 2797POPC   C3A37889   0.404  32.961   7.837
 2797POPC   C4A37890   0.678  33.172   7.508
 2797POPC   C1B37891  44.873  33.190   8.780
 2797POPC   C2B37892  44.785  33.290   8.306
 2797POPC   C3B37893  44.906  33.187   7.846
 2797POPC   C4B37894   0.168  33.194   7.447
 2798POPC   NC337895   3.521  22.449   9.588
 2798POPC   PO437896   3.908  22.375   9.069
 2798POPC   GL137897   3.503  22.502   8.979
 2798POPC   GL237898   3.283  22.285   9.134
 2798POPC   C1A37899   3.339  22.315   8.580
 2798POPC   D2A37900   3.568  21.934   8.372
 2798POPC   C3A37901   3.803  21.965   7.962
 2798POPC   C4A37902   3.903  22.345   7.705
 2798POPC   C1B37903   3.258  21.880   8.894
 2798POPC   C2B37904   3.138  21.647   8.493
 2798POPC   C3B37905   3.300  21.663   8.040
 2798POPC   C4B37906   3.274  22.077   7.844
 2799POPC   NC337907  19.709  36.686   9.538
 2799POPC   PO437908  20.154  36.103   9.587
 2799POPC   GL137909  19.964  36.254   9.211
 2799POPC   GL237910  20.063  36.576   9.206
 2799POPC   C1A37911  19.833  36.116   8.777
 2799POPC   D2A37912  19.782  35.893   8.376
 2799POPC   C3A37913  19.677  36.071   7.981
 2799POPC   C4A37914  19.871  35.992   7.587
 2799POPC   C1B37915  19.794  36.624   8.800
 2799POPC   C2B37916  19.777  36.474   8.329
 2799POPC   C3B37917  19.813  36.525   7.840
 2799POPC   C4B37918  19.598  36.413   7.493
 2800POPC   NC337919   6.157   3.142   9.285
 2800POPC   PO437920   5.836   2.691   9.657
 2800POPC   GL137921   5.788   2.744   9.213
 2800POPC   GL237922   5.605   3.055   9.148
 2800POPC   C1A37923   5.800   2.621   8.767
 2800POPC   D2A37924   5.682   2.810   8.372
 2800POPC   C3A37925   5.831   2.641   8.006
 2800POPC   C4A37926   5.957   2.268   7.776
 2800POPC   C1B37927   5.859   3.120   8.749
 2800POPC   C2B37928   6.155   2.961   8.487
 2800POPC   C3B37929   6.089   3.115   8.084
 2800POPC   C4B37930   6.054   3.124   7.656
 2801POPC   NC337931  24.562  31.916   9.331
 2801POPC   PO437932  24.926  31.387   9.614
 2801POPC   GL137933  24.852  31.361   9.146
 2801POPC   GL237934  24.539  31.448   9.088
 2801POPC   C1A37935  24.776  31.362   8.655
 2801POPC   D2A37936  24.481  31.481   8.291
 2801POPC   C3A37937  24.688  31.615   7.887
 2801POPC   C4A37938  24.668  31.726   7.434
 2801POPC   C1B37939  24.344  31.670   8.764
 2801POPC   C2B37940  24.106  31.831   8.444
 2801POPC   C3B37941  23.984  31.582   8.141
 2801POPC   C4B37942  24.238  31.419   7.812
 2802POPC   NC337943  42.756  14.618   9.400
 2802POPC   PO437944  43.341  14.255   9.399
 2802POPC   GL137945  43.095  14.338   9.049
 2802POPC   GL237946  43.188  14.691   9.047
 2802POPC   C1A37947  42.935  14.149   8.657
 2802POPC   D2A37948  42.915  14.087   8.228
 2802POPC   C3A37949  43.214  14.296   8.028
 2802POPC   C4A37950  42.963  14.331   7.717
 2802POPC   C1B37951  43.012  14.673   8.629
 2802POPC   C2B37952  42.953  14.711   8.164
 2802POPC   C3B37953  42.963  14.828   7.738
 2802POPC   C4B37954  42.953  14.636   7.297
 2803POPC   NC337955  41.200  20.813   9.669
 2803POPC   PO437956  40.837  20.283   9.493
 2803POPC   GL137957  40.595  20.585   9.155
 2803POPC   GL237958  40.729  20.848   8.918
 2803POPC   C1A37959  40.680  20.396   8.722
 2803POPC   D2A37960  40.730  20.328   8.300
 2803POPC   C3A37961  40.938  20.483   7.942
 2803POPC   C4A37962  40.773  20.808   7.657
 2803POPC   C1B37963  40.910  20.795   8.474
 2803POPC   C2B37964  41.065  20.954   8.065
 2803POPC   C3B37965  41.272  20.806   7.672
 2803POPC   C4B37966  41.107  20.866   7.228
 2804POPC   NC337967  20.026   8.670   9.336
 2804POPC   PO437968  19.744   9.336   9.453
 2804POPC   GL137969  19.801   9.084   9.107
 2804POPC   GL237970  20.155   9.136   9.110
 2804POPC   C1A37971  19.900   8.897   8.709
 2804POPC   D2A37972  20.062   8.924   8.297
 2804POPC   C3A37973  19.831   8.895   7.936
 2804POPC   C4A37974  19.526   9.137   7.752
 2804POPC   C1B37975  20.266   9.346   8.720
 2804POPC   C2B37976  20.424   9.267   8.320
 2804POPC   C3B37977  20.233   9.281   7.931
 2804POPC   C4B37978  20.413   9.505   7.615
 2805POPC   NC337979   7.595  11.885   9.491
 2805POPC   PO437980   7.247  12.412   9.748
 2805POPC   GL137981   7.198  12.176   9.334
 2805POPC   GL237982   7.502  12.223   9.153
 2805POPC   C1A37983   7.111  12.074   8.877
 2805POPC   D2A37984   7.253  11.973   8.453
 2805POPC   C3A37985   7.244  12.176   8.071
 2805POPC   C4A37986   7.271  12.044   7.659
 2805POPC   C1B37987   7.621  11.883   8.834
 2805POPC   C2B37988   7.651  11.683   8.423
 2805POPC   C3B37989   7.645  11.808   8.004
 2805POPC   C4B37990   7.916  11.768   7.673
 2806POPC   NC337991  31.006  37.003   9.582
 2806POPC   PO437992  30.455  37.334   9.475
 2806POPC   GL137993  30.670  37.026   9.166
 2806POPC   GL237994  31.001  36.849   9.107
 2806POPC   C1A37995  30.621  36.753   8.787
 2806POPC   D2A37996  30.828  36.668   8.359
 2806POPC   C3A37997  30.584  36.684   7.967
 2806POPC   C4A37998  30.484  36.589   7.531
 2806POPC   C1B37999  30.965  37.155   8.786
 2806POPC   C2B38000  30.801  37.188   8.380
 2806POPC   C3B38001  30.924  37.059   8.000
 2806POPC   C4B38002  31.046  37.315   7.724
 2807POPC   NC338003  13.285   0.321   9.566
 2807POPC   PO438004  13.927   0.196   9.563
 2807POPC   GL138005  13.747   0.523   9.274
 2807POPC   GL238006  13.428   0.720   9.257
 2807POPC   C1A38007  13.605   0.436   8.853
 2807POPC   D2A38008  13.579   0.182   8.486
 2807POPC   C3A38009  13.546   0.369   8.081
 2807POPC   C4A38010  13.722   0.459   7.669
 2807POPC   C1B38011  13.327   0.882   8.852
 2807POPC   C2B38012  13.439   0.746   8.446
 2807POPC   C3B38013  13.650   0.854   8.080
 2807POPC   C4B38014  13.382   0.796   7.726
 2808POPC   NC338015  25.689  29.239   9.371
 2808POPC   PO438016  25.054  28.955   9.398
 2808POPC   GL138017  25.200  29.272   9.067
 2808POPC   GL238018  25.555  29.355   8.915
 2808POPC   C1A38019  25.142  29.447   8.660
 2808POPC   D2A38020  25.483  29.379   8.361
 2808POPC   C3A38021  25.297  29.254   7.953
 2808POPC   C4A38022  24.985  28.890   7.848
 2808POPC   C1B38023  25.419  28.978   8.713
 2808POPC   C2B38024  25.204  28.916   8.335
 2808POPC   C3B38025  25.494  28.794   8.013
 2808POPC   C4B38026  25.650  28.940   7.657
 2809POPC   NC338027  33.484  14.316   9.445
 2809POPC   PO438028  34.094  14.438   9.422
 2809POPC   GL138029  33.863  14.326   9.052
 2809POPC   GL238030  33.533  14.313   8.931
 2809POPC   C1A38031  33.997  14.404   8.632
 2809POPC   D2A38032  34.208  14.489   8.256
 2809POPC   C3A38033  34.009  14.391   7.882
 2809POPC   C4A38034  33.619  14.203   7.831
 2809POPC   C1B38035  33.542  14.631   8.624
 2809POPC   C2B38036  33.679  14.562   8.218
 2809POPC   C3B38037  33.575  14.704   7.791
 2809POPC   C4B38038  33.372  14.710   7.372
 2810POPC   NC338039  12.982  35.032   9.511
 2810POPC   PO438040  12.983  34.281   9.408
 2810POPC   GL138041  13.092  34.636   9.181
 2810POPC   GL238042  12.749  34.767   9.122
 2810POPC   C1A38043  13.106  34.697   8.749
 2810POPC   D2A38044  12.806  34.717   8.418
 2810POPC   C3A38045  12.947  34.491   8.035
 2810POPC   C4A38046  13.001  34.647   7.622
 2810POPC   C1B38047  12.707  34.402   8.826
 2810POPC   C2B38048  12.677  34.218   8.445
 2810POPC   C3B38049  12.460  34.363   8.113
 2810POPC   C4B38050  12.494  34.652   7.779
 2811POPC   NC338051  34.919   5.237   9.462
 2811POPC   PO438052  35.625   5.373   9.525
 2811POPC   GL138053  35.415   5.116   9.178
 2811POPC   GL238054  35.069   5.096   9.001
 2811POPC   C1A38055  35.494   5.085   8.720
 2811POPC   D2A38056  35.631   4.896   8.311
 2811POPC   C3A38057  35.479   5.084   7.911
 2811POPC   C4A38058  35.632   5.256   7.500
 2811POPC   C1B38059  35.044   4.756   8.709
 2811POPC   C2B38060  35.007   4.821   8.269
 2811POPC   C3B38061  34.947   5.084   7.890
 2811POPC   C4B38062  35.162   4.980   7.498
 2812POPC   NC338063  20.381  21.111   9.488
 2812POPC   PO438064  20.878  21.608   9.318
 2812POPC   GL138065  20.717  21.317   9.100
 2812POPC   GL238066  20.383  21.353   9.026
 2812POPC   C1A38067  20.903  21.231   8.725
 2812POPC   D2A38068  20.918  21.389   8.331
 2812POPC   C3A38069  20.823  21.169   7.957
 2812POPC   C4A38070  20.708  21.471   7.615
 2812POPC   C1B38071  20.506  21.580   8.681
 2812POPC   C2B38072  20.451  21.562   8.266
 2812POPC   C3B38073  20.363  21.352   7.964
 2812POPC   C4B38074  20.127  21.283   7.674
 2813POPC   NC338075   4.992  21.967   9.465
 2813POPC   PO438076   4.856  22.628   9.463
 2813POPC   GL138077   5.075  22.360   9.102
 2813POPC   GL238078   5.108  22.008   8.978
 2813POPC   C1A38079   5.303  22.345   8.656
 2813POPC   D2A38080   5.239  22.206   8.194
 2813POPC   C3A38081   5.424  22.141   7.758
 2813POPC   C4A38082   5.178  22.401   7.639
 2813POPC   C1B38083   4.822  22.164   8.665
 2813POPC   C2B38084   4.676  22.089   8.250
 2813POPC   C3B38085   4.852  22.077   7.850
 2813POPC   C4B38086   5.062  21.864   7.523
 2814POPC   NC338087  11.725   7.331   9.234
 2814POPC   PO438088  11.209   7.682   9.594
 2814POPC   GL138089  11.287   7.563   9.170
 2814POPC   GL238090  11.245   7.245   9.098
 2814POPC   C1A38091  11.397   7.511   8.713
 2814POPC   D2A38092  11.598   7.354   8.365
 2814POPC   C3A38093  11.553   7.645   8.031
 2814POPC   C4A38094  11.230   7.553   7.723
 2814POPC   C1B38095  10.949   7.131   8.828
 2814POPC   C2B38096  11.021   7.299   8.447
 2814POPC   C3B38097  11.195   7.191   8.090
 2814POPC   C4B38098  11.078   7.054   7.688
 2815POPC   NC338099  22.339  30.982   9.405
 2815POPC   PO438100  22.426  31.621   9.548
 2815POPC   GL138101  22.306  31.447   9.163
 2815POPC   GL238102  22.483  31.700   9.021
 2815POPC   C1A38103  22.047  31.450   8.789
 2815POPC   D2A38104  21.935  31.718   8.390
 2815POPC   C3A38105  22.121  31.657   7.952
 2815POPC   C4A38106  21.896  31.638   7.539
 2815POPC   C1B38107  22.395  31.747   8.585
 2815POPC   C2B38108  22.311  31.367   8.343
 2815POPC   C3B38109  22.359  31.178   7.977
 2815POPC   C4B38110  22.222  31.260   7.623
 2816POPC   NC338111   3.567  26.339   9.826
 2816POPC   PO438112   3.550  26.961   9.632
 2816POPC   GL138113   3.633  27.033   9.200
 2816POPC   GL238114   3.836  26.726   9.112
 2816POPC   C1A38115   3.483  26.973   8.783
 2816POPC   D2A38116   3.447  26.682   8.439
 2816POPC   C3A38117   3.407  26.803   7.984
 2816POPC   C4A38118   3.463  26.576   7.589
 2816POPC   C1B38119   3.926  26.680   8.656
 2816POPC   C2B38120   3.822  27.020   8.396
 2816POPC   C3B38121   3.847  27.153   8.005
 2816POPC   C4B38122   3.895  26.809   7.717
 2817POPC   NC338123  18.539   3.081   9.560
 2817POPC   PO438124  17.952   3.445   9.401
 2817POPC   GL138125  18.302   3.329   9.162
 2817POPC   GL238126  18.486   3.635   9.208
 2817POPC   C1A38127  18.217   3.175   8.745
 2817POPC   D2A38128  17.851   3.321   8.423
 2817POPC   C3A38129  17.886   3.643   8.086
 2817POPC   C4A38130  18.078   3.642   7.665
 2817POPC   C1B38131  18.551   3.599   8.785
 2817POPC   C2B38132  18.329   3.534   8.399
 2817POPC   C3B38133  18.271   3.280   8.049
 2817POPC   C4B38134  18.591   3.445   7.790
 2818POPC   NC338135  36.425  33.475   9.566
 2818POPC   PO438136  35.950  32.971   9.604
 2818POPC   GL138137  36.088  33.048   9.194
 2818POPC   GL238138  35.939  33.340   9.187
 2818POPC   C1A38139  36.125  32.932   8.726
 2818POPC   D2A38140  35.944  32.768   8.323
 2818POPC   C3A38141  36.074  32.937   7.910
 2818POPC   C4A38142  36.450  33.080   7.685
 2818POPC   C1B38143  36.100  33.433   8.759
 2818POPC   C2B38144  36.073  33.324   8.298
 2818POPC   C3B38145  36.092  33.456   7.843
 2818POPC   C4B38146  35.804  33.509   7.484
 2819POPC   NC338147  16.419  13.337   9.503
 2819POPC   PO438148  16.680  12.596   9.465
 2819POPC   GL138149  16.921  12.832   9.193
 2819POPC   GL238150  16.656  13.070   9.121
 2819POPC   C1A38151  17.021  12.673   8.791
 2819POPC   D2A38152  16.871  12.829   8.406
 2819POPC   C3A38153  16.676  12.659   8.045
 2819POPC   C4A38154  16.874  12.836   7.699
 2819POPC   C1B38155  16.502  13.128   8.706
 2819POPC   C2B38156  16.446  13.099   8.265
 2819POPC   C3B38157  16.379  13.132   7.849
 2819POPC   C4B38158  16.373  12.753   7.626
 2820POPC   NC338159  14.160  29.418   9.394
 2820POPC   PO438160  14.494  28.918   9.521
 2820POPC   GL138161  14.522  29.013   9.127
 2820POPC   GL238162  14.565  29.340   9.102
 2820POPC   C1A38163  14.459  28.911   8.719
 2820POPC   D2A38164  14.198  28.962   8.390
 2820POPC   C3A38165  14.297  28.836   7.990
 2820POPC   C4A38166  14.141  29.143   7.725
 2820POPC   C1B38167  14.353  29.474   8.770
 2820POPC   C2B38168  14.537  29.448   8.429
 2820POPC   C3B38169  14.482  29.292   8.078
 2820POPC   C4B38170  14.637  29.299   7.693
 2821POPC   NC338171  30.112  25.363   9.677
 2821POPC   PO438172  29.541  25.169   9.503
 2821POPC   GL138173  29.866  25.305   9.233
 2821POPC   GL238174  30.133  25.033   9.272
 2821POPC   C1A38175  29.961  25.272   8.809
 2821POPC   D2A38176  29.777  25.271   8.408
 2821POPC   C3A38177  29.883  25.590   8.127
 2821POPC   C4A38178  29.747  25.528   7.714
 2821POPC   C1B38179  30.332  24.929   8.854
 2821POPC   C2B38180  30.335  25.170   8.460
 2821POPC   C3B38181  30.136  25.078   8.061
 2821POPC   C4B38182  30.361  24.956   7.688
 2822POPC   NC338183  36.461  11.137   9.428
 2822POPC   PO438184  35.883  11.202   9.680
 2822POPC   GL138185  36.024  11.355   9.267
 2822POPC   GL238186  35.894  11.112   9.052
 2822POPC   C1A38187  36.276  11.490   8.879
 2822POPC   D2A38188  36.132  11.674   8.479
 2822POPC   C3A38189  36.036  11.402   8.125
 2822POPC   C4A38190  36.223  11.544   7.761
 2822POPC   C1B38191  36.187  11.030   8.690
 2822POPC   C2B38192  36.193  10.926   8.257
 2822POPC   C3B38193  36.357  11.055   7.885
 2822POPC   C4B38194  36.151  11.061   7.525
 2823POPC   NC338195  21.296  26.838   9.591
 2823POPC   PO438196  21.682  26.262   9.716
 2823POPC   GL138197  21.621  26.537   9.296
 2823POPC   GL238198  21.279  26.630   9.145
 2823POPC   C1A38199  21.651  26.677   8.832
 2823POPC   D2A38200  21.373  26.578   8.480
 2823POPC   C3A38201  21.562  26.592   8.095
 2823POPC   C4A38202  21.381  26.626   7.717
 2823POPC   C1B38203  21.144  26.896   8.799
 2823POPC   C2B38204  20.958  26.930   8.433
 2823POPC   C3B38205  21.156  26.906   8.085
 2823POPC   C4B38206  21.115  27.084   7.718
 2824POPC   NC338207   5.268  22.701   9.637
 2824POPC   PO438208   4.792  23.219   9.707
 2824POPC   GL138209   5.142  23.144   9.341
 2824POPC   GL238210   5.262  22.835   9.167
 2824POPC   C1A38211   5.254  23.220   8.867
 2824POPC   D2A38212   5.157  23.371   8.433
 2824POPC   C3A38213   5.313  23.235   8.051
 2824POPC   C4A38214   5.238  22.849   7.852
 2824POPC   C1B38215   5.027  22.761   8.802
 2824POPC   C2B38216   4.925  22.608   8.417
 2824POPC   C3B38217   4.830  22.551   8.025
 2824POPC   C4B38218   4.786  22.715   7.640
 2825POPC   NC338219  16.727  44.138   9.688
 2825POPC   PO438220  16.495  43.541   9.403
 2825POPC   GL138221  16.602  43.951   9.223
 2825POPC   GL238222  16.833  43.806   9.031
 2825POPC   C1A38223  16.634  44.261   8.870
 2825POPC   D2A38224  16.494  44.203   8.451
 2825POPC   C3A38225  16.870  44.251   8.188
 2825POPC   C4A38226  16.837  44.105   7.803
 2825POPC   C1B38227  16.644  43.741   8.638
 2825POPC   C2B38228  16.749  43.748   8.192
 2825POPC   C3B38229  16.615  43.607   7.782
 2825POPC   C4B38230  16.751  43.412   7.354
 2826POPC   NC338231   3.917  33.419   9.772
 2826POPC   PO438232   4.324  32.901   9.652
 2826POPC   GL138233   4.274  33.030   9.236
 2826POPC   GL238234   4.167  33.336   9.339
 2826POPC   C1A38235   4.305  32.952   8.797
 2826POPC   D2A38236   4.238  32.633   8.485
 2826POPC   C3A38237   4.166  32.821   8.105
 2826POPC   C4A38238   4.474  32.880   7.776
 2826POPC   C1B38239   4.063  33.399   8.915
 2826POPC   C2B38240   4.153  33.355   8.478
 2826POPC   C3B38241   4.292  33.311   8.053
 2826POPC   C4B38242   4.066  33.150   7.689
 2827POPC   NC338243   7.008  31.965   9.513
 2827POPC   PO438244   7.688  32.306   9.619
 2827POPC   GL138245   7.579  32.139   9.189
 2827POPC   GL238246   7.251  32.133   9.126
 2827POPC   C1A38247   7.557  32.212   8.740
 2827POPC   D2A38248   7.476  32.454   8.356
 2827POPC   C3A38249   7.492  32.242   7.963
 2827POPC   C4A38250   7.509  32.457   7.566
 2827POPC   C1B38251   6.954  32.194   8.831
 2827POPC   C2B38252   6.982  32.323   8.433
 2827POPC   C3B38253   6.972  32.170   8.048
 2827POPC   C4B38254   7.091  32.142   7.637
 2828POPC   NC338255  21.561   2.498   9.642
 2828POPC   PO438256  21.268   2.999   9.397
 2828POPC   GL138257  21.452   2.686   9.100
 2828POPC   GL238258  21.523   2.904   8.838
 2828POPC   C1A38259  21.509   2.457   8.668
 2828POPC   D2A38260  21.360   2.782   8.348
 2828POPC   C3A38261  21.477   2.742   7.916
 2828POPC   C4A38262  21.446   2.419   7.583
 2828POPC   C1B38263  21.137   3.147   8.779
 2828POPC   C2B38264  20.933   3.135   8.436
 2828POPC   C3B38265  21.112   3.138   8.047
 2828POPC   C4B38266  21.041   2.894   7.691
 2829POPC   NC338267   9.944  11.725   9.787
 2829POPC   PO438268   9.560  12.117   9.686
 2829POPC   GL138269   9.494  11.992   9.240
 2829POPC   GL238270   9.825  12.030   9.078
 2829POPC   C1A38271   9.442  11.942   8.756
 2829POPC   D2A38272   9.722  11.895   8.360
 2829POPC   C3A38273   9.626  12.020   7.933
 2829POPC   C4A38274   9.362  11.920   7.603
 2829POPC   C1B38275   9.799  12.303   8.682
 2829POPC   C2B38276   9.843  12.385   8.218
 2829POPC   C3B38277  10.087  12.228   7.846
 2829POPC   C4B38278  10.297  12.197   7.433
 2830POPC   NC338279  44.917  41.579   9.651
 2830POPC   PO438280  44.243  41.478   9.593
 2830POPC   GL138281  44.540  41.401   9.249
 2830POPC   GL238282  44.632  41.768   9.247
 2830POPC   C1A38283  44.808  41.466   8.855
 2830POPC   D2A38284   0.053  41.510   8.458
 2830POPC   C3A38285  44.838  41.581   8.061
 2830POPC   C4A38286  44.729  41.258   7.749
 2830POPC   C1B38287  44.355  41.730   8.873
 2830POPC   C2B38288  44.497  41.640   8.465
 2830POPC   C3B38289  44.330  41.639   8.066
 2830POPC   C4B38290  44.465  41.689   7.658
 2831POPC   NC338291  29.937  33.426   9.438
 2831POPC   PO438292  29.942  34.063   9.436
 2831POPC   GL138293  29.847  33.811   9.086
 2831POPC   GL238294  29.611  33.504   9.062
 2831POPC   C1A38295  29.961  33.799   8.669
 2831POPC   D2A38296  29.702  33.661   8.305
 2831POPC   C3A38297  29.699  33.911   7.916
 2831POPC   C4A38298  30.054  34.034   7.689
 2831POPC   C1B38299  29.810  33.314   8.711
 2831POPC   C2B38300  30.166  33.418   8.415
 2831POPC   C3B38301  30.124  33.619   8.025
 2831POPC   C4B38302  29.888  33.499   7.702
 2832POPC   NC338303  14.781  12.303   9.635
 2832POPC   PO438304  15.208  11.966   9.533
 2832POPC   GL138305  15.518  12.012   9.181
 2832POPC   GL238306  15.597  12.336   9.212
 2832POPC   C1A38307  15.563  12.073   8.727
 2832POPC   D2A38308  15.353  11.909   8.365
 2832POPC   C3A38309  15.517  11.904   7.967
 2832POPC   C4A38310  15.333  11.868   7.568
 2832POPC   C1B38311  15.210  12.370   8.936
 2832POPC   C2B38312  15.189  12.386   8.462
 2832POPC   C3B38313  15.147  12.275   7.992
 2832POPC   C4B38314  14.949  12.203   7.551
 2833POPC   NC338315   4.785  41.918   9.395
 2833POPC   PO438316   5.005  42.502   9.477
 2833POPC   GL138317   5.100  42.251   9.104
 2833POPC   GL238318   5.480  42.158   9.022
 2833POPC   C1A38319   5.136  42.421   8.701
 2833POPC   D2A38320   5.090  42.696   8.353
 2833POPC   C3A38321   4.843  42.523   8.065
 2833POPC   C4A38322   4.914  42.187   7.794
 2833POPC   C1B38323   5.487  42.057   8.594
 2833POPC   C2B38324   5.201  42.175   8.256
 2833POPC   C3B38325   5.395  42.281   7.902
 2833POPC   C4B38326   5.715  42.031   7.877
 2834POPC   NC338327  10.048  24.873   9.955
 2834POPC   PO438328  10.461  25.324   9.606
 2834POPC   GL138329  10.315  25.162   9.237
 2834POPC   GL238330  10.243  25.453   9.095
 2834POPC   C1A38331  10.209  24.972   8.837
 2834POPC   D2A38332  10.294  24.893   8.375
 2834POPC   C3A38333  10.325  25.290   8.101
 2834POPC   C4A38334  10.417  25.534   7.703
 2834POPC   C1B38335  10.549  25.448   8.798
 2834POPC   C2B38336  10.568  25.617   8.398
 2834POPC   C3B38337  10.788  25.649   8.026
 2834POPC   C4B38338  11.016  25.672   7.646
 2835POPC   NC338339  35.524  38.821   9.310
 2835POPC   PO438340  35.036  39.252   9.521
 2835POPC   GL138341  34.971  39.050   9.134
 2835POPC   GL238342  35.288  39.153   9.026
 2835POPC   C1A38343  34.965  39.105   8.659
 2835POPC   D2A38344  35.286  39.282   8.439
 2835POPC   C3A38345  35.120  39.190   8.069
 2835POPC   C4A38346  35.245  39.302   7.690
 2835POPC   C1B38347  35.634  39.058   8.725
 2835POPC   C2B38348  35.831  39.002   8.348
 2835POPC   C3B38349  35.697  39.292   8.047
 2835POPC   C4B38350  35.752  39.223   7.627
 2836POPC   NC338351  40.168   3.497   9.614
 2836POPC   PO438352  39.576   3.847   9.526
 2836POPC   GL138353  39.851   3.526   9.207
 2836POPC   GL238354  40.216   3.412   9.115
 2836POPC   C1A38355  39.863   3.408   8.751
 2836POPC   D2A38356  39.786   3.218   8.345
 2836POPC   C3A38357  39.708   3.457   7.975
 2836POPC   C4A38358  39.971   3.719   7.737
 2836POPC   C1B38359  40.406   3.338   8.704
 2836POPC   C2B38360  40.312   3.220   8.274
 2836POPC   C3B38361  40.138   3.201   7.856
 2836POPC   C4B38362  40.153   3.374   7.400
 2837POPC   NC338363   1.019  31.768   9.543
 2837POPC   PO438364   1.458  31.229   9.481
 2837POPC   GL138365   1.170  31.426   9.168
 2837POPC   GL238366   1.424  31.673   9.201
 2837POPC   C1A38367   1.045  31.607   8.723
 2837POPC   D2A38368   0.873  31.579   8.279
 2837POPC   C3A38369   1.174  31.490   7.917
 2837POPC   C4A38370   1.107  31.388   7.451
 2837POPC   C1B38371   1.523  31.484   8.804
 2837POPC   C2B38372   1.463  31.759   8.433
 2837POPC   C3B38373   1.547  31.835   7.996
 2837POPC   C4B38374   1.637  31.499   7.699
 2838POPC   NC338375  30.515  21.838   9.491
 2838POPC   PO438376  30.834  22.421   9.577
 2838POPC   GL138377  30.745  22.185   9.191
 2838POPC   GL238378  30.394  22.258   9.231
 2838POPC   C1A38379  30.875  22.149   8.762
 2838POPC   D2A38380  30.734  22.133   8.361
 2838POPC   C3A38381  30.841  22.423   8.085
 2838POPC   C4A38382  30.725  22.309   7.725
 2838POPC   C1B38383  30.287  22.353   8.858
 2838POPC   C2B38384  30.279  22.343   8.432
 2838POPC   C3B38385  30.313  22.463   8.004
 2838POPC   C4B38386  30.213  22.258   7.613
 2839POPC   NC338387  29.348  35.177   9.566
 2839POPC   PO438388  28.735  35.517   9.575
 2839POPC   GL138389  29.001  35.393   9.235
 2839POPC   GL238390  29.234  35.612   9.206
 2839POPC   C1A38391  29.159  35.299   8.793
 2839POPC   D2A38392  29.364  35.087   8.426
 2839POPC   C3A38393  29.254  35.167   7.979
 2839POPC   C4A38394  29.373  35.215   7.549
 2839POPC   C1B38395  29.468  35.834   8.919
 2839POPC   C2B38396  29.504  35.599   8.527
 2839POPC   C3B38397  29.503  35.607   8.101
 2839POPC   C4B38398  29.202  35.644   7.763
 2840POPC   NC338399  28.262   0.233   9.502
 2840POPC   PO438400  28.372   0.899   9.325
 2840POPC   GL138401  28.571   0.637   9.055
 2840POPC   GL238402  28.428   0.296   9.001
 2840POPC   C1A38403  28.630   0.654   8.624
 2840POPC   D2A38404  28.793   0.428   8.317
 2840POPC   C3A38405  28.478   0.301   8.067
 2840POPC   C4A38406  28.401   0.529   7.747
 2840POPC   C1B38407  28.141   0.564   8.728
 2840POPC   C2B38408  28.213   0.741   8.287
 2840POPC   C3B38409  27.941   0.610   7.942
 2840POPC   C4B38410  27.619   0.412   7.695
 2841POPC   NC338411  11.774   4.904   9.682
 2841POPC   PO438412  11.932   5.541   9.647
 2841POPC   GL138413  11.759   5.178   9.234
 2841POPC   GL238414  11.943   4.928   9.105
 2841POPC   C1A38415  11.748   5.234   8.722
 2841POPC   D2A38416  11.701   5.272   8.221
 2841POPC   C3A38417  12.036   5.262   7.922
 2841POPC   C4A38418  12.216   5.150   7.537
 2841POPC   C1B38419  12.207   4.984   8.718
 2841POPC   C2B38420  12.322   5.022   8.288
 2841POPC   C3B38421  12.397   4.835   7.887
 2841POPC   C4B38422  12.428   4.640   7.459
 2842POPC   NC338423  39.563   3.090   9.384
 2842POPC   PO438424  39.237   2.544   9.416
 2842POPC   GL138425  39.106   2.604   9.057
 2842POPC   GL238426  39.248   2.909   9.025
 2842POPC   C1A38427  39.202   2.594   8.612
 2842POPC   D2A38428  39.173   2.975   8.420
 2842POPC   C3A38429  39.022   2.942   8.047
 2842POPC   C4A38430  38.801   2.585   7.910
 2842POPC   C1B38431  39.586   2.926   8.732
 2842POPC   C2B38432  39.599   2.747   8.307
 2842POPC   C3B38433  39.346   2.530   7.999
 2842POPC   C4B38434  39.351   2.828   7.649
 2843POPC   NC338435   9.556  10.119   9.673
 2843POPC   PO438436   9.902   9.675   9.716
 2843POPC   GL138437   9.575   9.714   9.318
 2843POPC   GL238438   9.417   9.399   9.172
 2843POPC   C1A38439   9.515   9.812   8.849
 2843POPC   D2A38440   9.498   9.847   8.358
 2843POPC   C3A38441   9.834   9.686   8.065
 2843POPC   C4A38442   9.921   9.705   7.591
 2843POPC   C1B38443   9.272   9.365   8.740
 2843POPC   C2B38444   9.524   9.329   8.347
 2843POPC   C3B38445   9.395   9.467   7.925
 2843POPC   C4B38446   9.454   9.887   7.777
 2844POPC   NC338447  11.981  30.571   9.500
 2844POPC   PO438448  12.565  30.832   9.611
 2844POPC   GL138449  12.349  30.670   9.188
 2844POPC   GL238450  12.178  31.009   9.120
 2844POPC   C1A38451  12.064  30.582   8.814
 2844POPC   D2A38452  11.814  30.441   8.434
 2844POPC   C3A38453  11.981  30.403   7.995
 2844POPC   C4A38454  12.054  30.710   7.646
 2844POPC   C1B38455  12.431  30.931   8.743
 2844POPC   C2B38456  12.416  30.608   8.438
 2844POPC   C3B38457  12.383  30.723   8.049
 2844POPC   C4B38458  12.544  30.921   7.723
 2845POPC   NC338459   4.163  14.672   9.420
 2845POPC   PO438460   4.158  15.322   9.434
 2845POPC   GL138461   4.320  15.152   9.073
 2845POPC   GL238462   4.538  15.419   8.993
 2845POPC   C1A38463   4.166  15.132   8.652
 2845POPC   D2A38464   4.135  14.908   8.262
 2845POPC   C3A38465   4.121  15.176   7.880
 2845POPC   C4A38466   4.296  15.117   7.473
 2845POPC   C1B38467   4.638  15.307   8.609
 2845POPC   C2B38468   4.474  15.330   8.207
 2845POPC   C3B38469   4.634  15.097   7.856
 2845POPC   C4B38470   4.846  15.160   7.451
 2846POPC   NC338471  26.761  44.338   9.594
 2846POPC   PO438472  26.986   0.017   9.512
 2846POPC   GL138473  27.050  44.608   9.267
 2846POPC   GL238474  26.717  44.475   9.110
 2846POPC   C1A38475  27.128  44.529   8.834
 2846POPC   D2A38476  27.056  44.687   8.431
 2846POPC   C3A38477  27.210  44.658   8.040
 2846POPC   C4A38478  26.948  44.576   7.682
 2846POPC   C1B38479  26.540  44.596   8.701
 2846POPC   C2B38480  26.396  44.437   8.289
 2846POPC   C3B38481  26.453  44.304   7.848
 2846POPC   C4B38482  26.356  44.347   7.383
 2847POPC   NC338483  31.855  37.955   9.338
 2847POPC   PO438484  31.294  37.808   9.743
 2847POPC   GL138485  31.418  37.761   9.191
 2847POPC   GL238486  31.460  37.409   9.057
 2847POPC   C1A38487  31.721  37.708   8.749
 2847POPC   D2A38488  31.745  37.567   8.360
 2847POPC   C3A38489  31.564  37.898   8.128
 2847POPC   C4A38490  31.675  37.947   7.701
 2847POPC   C1B38491  31.226  37.589   8.711
 2847POPC   C2B38492  31.234  37.449   8.288
 2847POPC   C3B38493  31.484  37.439   7.930
 2847POPC   C4B38494  31.203  37.787   7.748
 2848POPC   NC338495  31.266  32.082   9.454
 2848POPC   PO438496  31.832  32.336   9.637
 2848POPC   GL138497  31.703  32.182   9.184
 2848POPC   GL238498  31.696  31.811   9.220
 2848POPC   C1A38499  31.397  32.266   8.804
 2848POPC   D2A38500  31.238  32.376   8.357
 2848POPC   C3A38501  31.595  32.458   8.043
 2848POPC   C4A38502  31.667  32.660   7.627
 2848POPC   C1B38503  31.528  31.755   8.783
 2848POPC   C2B38504  31.577  31.997   8.391
 2848POPC   C3B38505  31.552  31.963   7.940
 2848POPC   C4B38506  31.424  32.054   7.489
 2849POPC   NC338507  38.027  11.672   9.700
 2849POPC   PO438508  37.859  11.035   9.650
 2849POPC   GL138509  37.863  11.393   9.280
 2849POPC   GL238510  38.175  11.578   9.198
 2849POPC   C1A38511  37.736  11.514   8.816
 2849POPC   D2A38512  37.564  11.349   8.382
 2849POPC   C3A38513  37.693  11.448   7.932
 2849POPC   C4A38514  37.710  11.340   7.482
 2849POPC   C1B38515  38.247  11.309   8.812
 2849POPC   C2B38516  38.185  11.136   8.355
 2849POPC   C3B38517  38.144  11.168   7.886
 2849POPC   C4B38518  38.015  10.915   7.533
 2850POPC   NC338519   7.970  31.823   9.280
 2850POPC   PO438520   7.844  31.322   9.704
 2850POPC   GL138521   8.123  31.335   9.264
 2850POPC   GL238522   7.860  31.357   9.043
 2850POPC   C1A38523   8.266  31.388   8.780
 2850POPC   D2A38524   8.232  31.728   8.434
 2850POPC   C3A38525   8.529  31.664   8.085
 2850POPC   C4A38526   8.507  31.304   7.781
 2850POPC   C1B38527   7.768  31.687   8.687
 2850POPC   C2B38528   7.763  31.666   8.249
 2850POPC   C3B38529   8.037  31.508   7.929
 2850POPC   C4B38530   7.934  31.562   7.497
 2851POPC   NC338531  18.958  42.635   9.429
 2851POPC   PO438532  18.775  43.301   9.515
 2851POPC   GL138533  19.063  43.238   9.195
 2851POPC   GL238534  18.869  42.978   9.069
 2851POPC   C1A38535  19.151  43.287   8.776
 2851POPC   D2A38536  18.933  43.208   8.447
 2851POPC   C3A38537  19.143  43.291   8.109
 2851POPC   C4A38538  19.159  43.083   7.776
 2851POPC   C1B38539  18.630  43.316   8.861
 2851POPC   C2B38540  18.448  43.330   8.447
 2851POPC   C3B38541  18.618  43.374   8.048
 2851POPC   C4B38542  18.862  43.606   7.783
 2852POPC   NC338543  21.275   9.679   9.616
 2852POPC   PO438544  21.771  10.122   9.647
 2852POPC   GL138545  21.484   9.972   9.253
 2852POPC   GL238546  21.122   9.807   9.131
 2852POPC   C1A38547  21.515   9.845   8.814
 2852POPC   D2A38548  21.157   9.842   8.533
 2852POPC   C3A38549  21.273   9.751   8.108
 2852POPC   C4A38550  21.508   9.928   7.791
 2852POPC   C1B38551  21.220   9.432   8.820
 2852POPC   C2B38552  21.397   9.311   8.422
 2852POPC   C3B38553  21.222   9.227   8.024
 2852POPC   C4B38554  21.271   9.410   7.628
 2853POPC   NC338555  25.680   2.933   9.480
 2853POPC   PO438556  26.182   2.521   9.259
 2853POPC   GL138557  26.359   2.885   9.042
 2853POPC   GL238558  26.162   3.129   9.224
 2853POPC   C1A38559  26.266   2.967   8.604
 2853POPC   D2A38560  25.997   2.629   8.392
 2853POPC   C3A38561  25.978   2.507   7.941
 2853POPC   C4A38562  26.283   2.373   7.656
 2853POPC   C1B38563  25.853   3.044   8.882
 2853POPC   C2B38564  25.784   3.113   8.463
 2853POPC   C3B38565  25.770   2.959   8.069
 2853POPC   C4B38566  26.069   2.969   7.737
 2854POPC   NC338567  34.759  15.054   9.552
 2854POPC   PO438568  34.277  15.413   9.555
 2854POPC   GL138569  34.495  15.186   9.140
 2854POPC   GL238570  34.818  14.967   9.069
 2854POPC   C1A38571  34.489  15.048   8.692
 2854POPC   D2A38572  34.241  14.988   8.318
 2854POPC   C3A38573  34.447  14.948   7.917
 2854POPC   C4A38574  34.597  15.097   7.505
 2854POPC   C1B38575  34.972  14.825   8.701
 2854POPC   C2B38576  34.766  14.837   8.294
 2854POPC   C3B38577  34.948  14.897   7.884
 2854POPC   C4B38578  35.202  14.702   7.556
 2855POPC   NC338579  41.545  37.090   9.459
 2855POPC   PO438580  40.932  36.724   9.551
 2855POPC   GL138581  41.291  36.757   9.205
 2855POPC   GL238582  41.236  37.120   9.062
 2855POPC   C1A38583  41.442  36.795   8.764
 2855POPC   D2A38584  41.193  36.924   8.397
 2855POPC   C3A38585  41.316  36.722   8.015
 2855POPC   C4A38586  41.689  36.527   7.885
 2855POPC   C1B38587  41.297  37.361   8.690
 2855POPC   C2B38588  41.622  37.234   8.455
 2855POPC   C3B38589  41.768  36.986   8.120
 2855POPC   C4B38590  41.595  37.035   7.702
 2856POPC   NC338591  33.226   3.588   9.564
 2856POPC   PO438592  32.659   3.441   9.209
 2856POPC   GL138593  33.074   3.569   9.038
 2856POPC   GL238594  33.361   3.802   9.128
 2856POPC   C1A38595  33.162   3.580   8.582
 2856POPC   D2A38596  33.224   3.296   8.280
 2856POPC   C3A38597  32.821   3.206   8.102
 2856POPC   C4A38598  32.818   3.538   7.804
 2856POPC   C1B38599  33.233   4.026   8.807
 2856POPC   C2B38600  33.062   4.070   8.433
 2856POPC   C3B38601  33.162   3.831   8.051
 2856POPC   C4B38602  33.448   3.943   7.726
 2857POPC   NC338603   4.899   3.634   9.544
 2857POPC   PO438604   5.560   3.324   9.599
 2857POPC   GL138605   5.253   3.450   9.233
 2857POPC   GL238606   5.280   3.773   9.094
 2857POPC   C1A38607   5.002   3.320   8.876
 2857POPC   D2A38608   4.836   3.463   8.486
 2857POPC   C3A38609   5.077   3.319   8.115
 2857POPC   C4A38610   5.114   3.242   7.667
 2857POPC   C1B38611   4.933   3.852   8.823
 2857POPC   C2B38612   4.722   4.117   8.483
 2857POPC   C3B38613   4.782   4.042   8.013
 2857POPC   C4B38614   5.096   3.766   7.747
 2858POPC   NC338615  17.915   4.681   9.403
 2858POPC   PO438616  17.288   5.183   9.574
 2858POPC   GL138617  17.270   5.108   9.171
 2858POPC   GL238618  17.574   4.973   9.113
 2858POPC   C1A38619  17.163   4.959   8.757
 2858POPC   D2A38620  17.225   5.093   8.330
 2858POPC   C3A38621  17.358   4.822   8.004
 2858POPC   C4A38622  17.526   5.107   7.683
 2858POPC   C1B38623  17.665   4.831   8.709
 2858POPC   C2B38624  17.755   4.992   8.283
 2858POPC   C3B38625  17.888   4.811   7.872
 2858POPC   C4B38626  17.862   4.832   7.386
 2859POPC   NC338627   2.353  11.720   9.859
 2859POPC   PO438628   1.844  11.377   9.591
 2859POPC   GL138629   2.003  11.400   9.184
 2859POPC   GL238630   1.825  11.094   9.146
 2859POPC   C1A38631   2.034  11.325   8.727
 2859POPC   D2A38632   2.268  11.380   8.343
 2859POPC   C3A38633   2.119  11.189   7.980
 2859POPC   C4A38634   2.074  11.434   7.652
 2859POPC   C1B38635   1.717  10.902   8.757
 2859POPC   C2B38636   1.826  10.973   8.341
 2859POPC   C3B38637   1.721  10.833   7.921
 2859POPC   C4B38638   1.856  10.755   7.504
 2860POPC   NC338639  29.887  11.352   9.560
 2860POPC   PO438640  30.431  11.136   9.221
 2860POPC   GL138641  30.078  11.214   8.998
 2860POPC   GL238642  29.770  11.050   9.131
 2860POPC   C1A38643  30.069  11.299   8.548
 2860POPC   D2A38644  29.758  11.504   8.278
 2860POPC   C3A38645  29.842  11.465   7.837
 2860POPC   C4A38646  30.269  11.502   7.721
 2860POPC   C1B38647  29.605  11.184   8.742
 2860POPC   C2B38648  29.695  11.000   8.354
 2860POPC   C3B38649  29.624  10.889   7.979
 2860POPC   C4B38650  29.622  11.076   7.585
 2861POPC   NC338651  14.826  36.783   9.574
 2861POPC   PO438652  14.270  37.129   9.447
 2861POPC   GL138653  14.426  36.891   9.125
 2861POPC   GL238654  14.649  36.624   9.130
 2861POPC   C1A38655  14.686  37.001   8.790
 2861POPC   D2A38656  14.599  37.175   8.411
 2861POPC   C3A38657  14.612  36.969   8.021
 2861POPC   C4A38658  14.379  36.846   7.673
 2861POPC   C1B38659  14.886  36.413   8.826
 2861POPC   C2B38660  14.857  36.246   8.421
 2861POPC   C3B38661  14.714  36.454   8.055
 2861POPC   C4B38662  14.799  36.559   7.645
 2862POPC   NC338663  10.099  36.084   9.667
 2862POPC   PO438664   9.496  35.885   9.544
 2862POPC   GL138665   9.853  35.816   9.222
 2862POPC   GL238666   9.833  36.150   9.091
 2862POPC   C1A38667   9.963  35.763   8.742
 2862POPC   D2A38668  10.043  35.938   8.283
 2862POPC   C3A38669   9.652  35.984   8.003
 2862POPC   C4A38670   9.491  36.318   7.705
 2862POPC   C1B38671  10.069  36.305   8.728
 2862POPC   C2B38672   9.979  36.570   8.366
 2862POPC   C3B38673   9.925  36.402   7.976
 2862POPC   C4B38674  10.089  36.487   7.621
 2863POPC   NC338675  35.878  37.544   9.655
 2863POPC   PO438676  36.388  37.891   9.592
 2863POPC   GL138677  36.214  37.672   9.217
 2863POPC   GL238678  35.848  37.657   9.153
 2863POPC   C1A38679  36.190  37.694   8.756
 2863POPC   D2A38680  36.170  37.367   8.445
 2863POPC   C3A38681  36.115  37.527   8.070
 2863POPC   C4A38682  36.221  37.760   7.761
 2863POPC   C1B38683  35.781  37.359   8.829
 2863POPC   C2B38684  35.638  37.405   8.409
 2863POPC   C3B38685  35.635  37.361   7.988
 2863POPC   C4B38686  35.710  37.706   7.735
 2864POPC   NC338687  37.027  44.331   9.393
 2864POPC   PO438688  36.585  44.967   9.379
 2864POPC   GL138689  36.738  44.643   9.143
 2864POPC   GL238690  36.956  44.856   8.962
 2864POPC   C1A38691  36.788  44.407   8.758
 2864POPC   D2A38692  37.050  44.585   8.457
 2864POPC   C3A38693  36.863  44.552   8.077
 2864POPC   C4A38694  36.908  44.812   7.710
 2864POPC   C1B38695  36.554  44.863   8.741
 2864POPC   C2B38696  36.469  44.716   8.389
 2864POPC   C3B38697  36.532  44.940   8.031
 2864POPC   C4B38698  36.434   0.049   7.628
 2865POPC   NC338699  35.788  24.168   9.591
 2865POPC   PO438700  35.303  24.419   9.981
 2865POPC   GL138701  35.353  24.453   9.488
 2865POPC   GL238702  35.062  24.307   9.279
 2865POPC   C1A38703  35.469  24.609   9.047
 2865POPC   D2A38704  35.292  24.583   8.623
 2865POPC   C3A38705  35.333  24.738   8.178
 2865POPC   C4A38706  35.550  24.528   7.833
 2865POPC   C1B38707  34.891  24.322   8.828
 2865POPC   C2B38708  34.895  24.442   8.354
 2865POPC   C3B38709  35.086  24.305   7.980
 2865POPC   C4B38710  35.076  24.560   7.634
 2866POPC   NC338711  40.729  35.368   9.273
 2866POPC   PO438712  41.081  35.863   9.510
 2866POPC   GL138713  41.023  35.700   9.066
 2866POPC   GL238714  41.212  35.409   9.040
 2866POPC   C1A38715  40.801  35.570   8.653
 2866POPC   D2A38716  40.561  35.695   8.261
 2866POPC   C3A38717  40.812  35.570   7.867
 2866POPC   C4A38718  40.784  35.346   7.458
 2866POPC   C1B38719  41.219  35.204   8.662
 2866POPC   C2B38720  41.064  35.085   8.256
 2866POPC   C3B38721  41.005  35.066   7.819
 2866POPC   C4B38722  41.242  35.082   7.425
 2867POPC   NC338723  32.635  29.094   9.386
 2867POPC   PO438724  32.157  29.415   9.457
 2867POPC   GL138725  32.122  29.238   9.068
 2867POPC   GL238726  32.313  28.912   9.030
 2867POPC   C1A38727  32.229  29.251   8.649
 2867POPC   D2A38728  32.053  29.033   8.320
 2867POPC   C3A38729  32.116  29.227   7.959
 2867POPC   C4A38730  32.419  29.104   7.718
 2867POPC   C1B38731  31.880  28.768   8.940
 2867POPC   C2B38732  31.795  28.615   8.523
 2867POPC   C3B38733  32.013  28.568   8.110
 2867POPC   C4B38734  32.102  28.710   7.678
 2868POPC   NC338735   3.723  15.517   9.413
 2868POPC   PO438736   3.307  14.985   9.508
 2868POPC   GL138737   3.453  15.145   9.136
 2868POPC   GL238738   3.809  15.131   9.100
 2868POPC   C1A38739   3.311  15.038   8.733
 2868POPC   D2A38740   3.188  15.275   8.387
 2868POPC   C3A38741   3.316  15.088   8.015
 2868POPC   C4A38742   3.396  15.259   7.614
 2868POPC   C1B38743   3.714  15.354   8.724
 2868POPC   C2B38744   3.742  15.263   8.289
 2868POPC   C3B38745   3.730  15.488   7.900
 2868POPC   C4B38746   3.970  15.513   7.494
 2869POPC   NC338747  13.345  31.641   9.362
 2869POPC   PO438748  12.708  31.596   9.484
 2869POPC   GL138749  12.850  31.495   9.106
 2869POPC   GL238750  12.476  31.459   9.027
 2869POPC   C1A38751  13.116  31.537   8.744
 2869POPC   D2A38752  13.123  31.384   8.340
 2869POPC   C3A38753  13.019  31.682   8.021
 2869POPC   C4A38754  12.920  31.726   7.601
 2869POPC   C1B38755  12.619  31.403   8.617
 2869POPC   C2B38756  12.446  31.232   8.247
 2869POPC   C3B38757  12.592  31.427   7.872
 2869POPC   C4B38758  12.625  31.341   7.416
 2870POPC   NC338759  19.335  37.770  10.085
 2870POPC   PO438760  18.933  37.938   9.556
 2870POPC   GL138761  18.941  37.854   9.115
 2870POPC   GL238762  18.998  37.506   9.121
 2870POPC   C1A38763  19.017  37.861   8.685
 2870POPC   D2A38764  18.941  37.765   8.296
 2870POPC   C3A38765  19.000  38.022   7.972
 2870POPC   C4A38766  19.074  37.684   7.708
 2870POPC   C1B38767  19.356  37.525   8.813
 2870POPC   C2B38768  19.357  37.329   8.384
 2870POPC   C3B38769  19.319  37.303   7.939
 2870POPC   C4B38770  19.521  37.490   7.580
 2871POPC   NC338771   9.147  12.279   9.544
 2871POPC   PO438772   8.697  11.758   9.465
 2871POPC   GL138773   8.880  11.979   9.063
 2871POPC   GL238774   9.111  12.262   9.029
 2871POPC   C1A38775   8.958  11.981   8.583
 2871POPC   D2A38776   8.697  12.127   8.213
 2871POPC   C3A38777   8.912  12.035   7.825
 2871POPC   C4A38778   8.907  11.615   7.595
 2871POPC   C1B38779   9.262  12.413   8.627
 2871POPC   C2B38780   9.275  12.291   8.186
 2871POPC   C3B38781   9.343  12.417   7.741
 2871POPC   C4B38782   9.179  12.354   7.342
 2872POPC   NC338783  17.257  28.669   9.641
 2872POPC   PO438784  17.445  29.350   9.536
 2872POPC   GL138785  17.493  28.976   9.280
 2872POPC   GL238786  17.793  28.955   9.073
 2872POPC   C1A38787  17.289  29.000   8.889
 2872POPC   D2A38788  17.257  29.160   8.471
 2872POPC   C3A38789  17.329  28.987   8.062
 2872POPC   C4A38790  17.174  29.226   7.695
 2872POPC   C1B38791  17.706  28.758   8.632
 2872POPC   C2B38792  17.835  28.854   8.187
 2872POPC   C3B38793  17.751  29.133   7.802
 2872POPC   C4B38794  17.592  29.424   7.464
 2873POPC   NC338795  43.060  31.197   9.513
 2873POPC   PO438796  43.281  31.842   9.375
 2873POPC   GL138797  43.182  31.485   9.102
 2873POPC   GL238798  43.442  31.223   9.113
 2873POPC   C1A38799  42.973  31.380   8.718
 2873POPC   D2A38800  42.912  31.596   8.327
 2873POPC   C3A38801  43.206  31.623   8.009
 2873POPC   C4A38802  43.052  31.336   7.740
 2873POPC   C1B38803  43.467  31.381   8.679
 2873POPC   C2B38804  43.291  31.177   8.288
 2873POPC   C3B38805  43.507  31.176   7.865
 2873POPC   C4B38806  43.482  31.547   7.568
 2874POPC   NC338807   2.125  24.075   9.352
 2874POPC   PO438808   1.668  23.599   9.425
 2874POPC   GL138809   1.957  23.650   9.084
 2874POPC   GL238810   2.321  23.655   9.157
 2874POPC   C1A38811   1.889  23.880   8.720
 2874POPC   D2A38812   1.772  23.744   8.321
 2874POPC   C3A38813   1.972  23.963   7.973
 2874POPC   C4A38814   1.787  23.893   7.571
 2874POPC   C1B38815   2.399  23.797   8.739
 2874POPC   C2B38816   2.274  23.630   8.347
 2874POPC   C3B38817   2.331  23.332   8.019
 2874POPC   C4B38818   2.661  23.417   7.769
 2875POPC   NC338819  35.047   3.413   9.293
 2875POPC   PO438820  34.405   3.341   9.522
 2875POPC   GL138821  34.456   3.501   9.156
 2875POPC   GL238822  34.668   3.741   9.264
 2875POPC   C1A38823  34.554   3.356   8.746
 2875POPC   D2A38824  34.277   3.278   8.382
 2875POPC   C3A38825  34.508   3.366   7.970
 2875POPC   C4A38826  34.502   3.630   7.593
 2875POPC   C1B38827  34.721   3.838   8.810
 2875POPC   C2B38828  34.597   3.715   8.370
 2875POPC   C3B38829  34.812   3.794   7.978
 2875POPC   C4B38830  34.921   3.910   7.558
 2876POPC   NC338831  30.576   9.934   9.440
 2876POPC   PO438832  31.132   9.455   9.404
 2876POPC   GL138833  30.792   9.565   9.116
 2876POPC   GL238834  30.774   9.938   8.977
 2876POPC   C1A38835  30.529   9.545   8.752
 2876POPC   D2A38836  30.652   9.769   8.370
 2876POPC   C3A38837  30.611   9.554   7.987
 2876POPC   C4A38838  30.895   9.429   7.696
 2876POPC   C1B38839  30.362  10.032   8.743
 2876POPC   C2B38840  30.330  10.198   8.304
 2876POPC   C3B38841  30.612  10.096   7.946
 2876POPC   C4B38842  30.516   9.869   7.555
 2877POPC   NC338843  20.331  29.867   9.433
 2877POPC   PO438844  20.742  30.279   9.692
 2877POPC   GL138845  20.853  30.017   9.307
 2877POPC   GL238846  20.618  30.168   9.098
 2877POPC   C1A38847  20.763  29.721   8.916
 2877POPC   D2A38848  20.810  29.896   8.490
 2877POPC   C3A38849  20.625  29.703   8.104
 2877POPC   C4A38850  20.668  29.875   7.693
 2877POPC   C1B38851  20.350  29.978   8.783
 2877POPC   C2B38852  20.348  30.068   8.366
 2877POPC   C3B38853  20.281  30.079   7.939
 2877POPC   C4B38854  20.416  30.365   7.619
 2878POPC   NC338855  43.748  34.062   9.543
 2878POPC   PO438856  43.930  33.409   9.547
 2878POPC   GL138857  43.720  33.653   9.210
 2878POPC   GL238858  43.905  33.949   9.057
 2878POPC   C1A38859  43.534  33.739   8.818
 2878POPC   D2A38860  43.417  33.867   8.444
 2878POPC   C3A38861  43.638  33.906   8.106
 2878POPC   C4A38862  43.470  33.630   7.762
 2878POPC   C1B38863  44.058  33.755   8.667
 2878POPC   C2B38864  44.146  33.476   8.318
 2878POPC   C3B38865  43.967  33.550   7.892
 2878POPC   C4B38866  43.893  33.941   7.682
 2879POPC   NC338867  32.177  21.157   9.446
 2879POPC   PO438868  32.521  21.711   9.321
 2879POPC   GL138869  32.322  21.527   8.985
 2879POPC   GL238870  32.014  21.410   9.049
 2879POPC   C1A38871  32.321  21.319   8.586
 2879POPC   D2A38872  32.469  21.307   8.157
 2879POPC   C3A38873  32.201  21.500   7.878
 2879POPC   C4A38874  32.229  21.618   7.479
 2879POPC   C1B38875  31.782  21.374   8.688
 2879POPC   C2B38876  31.898  21.421   8.282
 2879POPC   C3B38877  31.821  21.186   7.914
 2879POPC   C4B38878  32.066  21.082   7.512
 2880POPC   NC338879  34.929  37.247   9.551
 2880POPC   PO438880  34.526  36.612   9.422
 2880POPC   GL138881  34.680  36.798   9.063
 2880POPC   GL238882  34.774  37.133   9.092
 2880POPC   C1A38883  34.440  36.941   8.695
 2880POPC   D2A38884  34.321  36.768   8.293
 2880POPC   C3A38885  34.338  36.916   7.852
 2880POPC   C4A38886  34.102  36.640   7.534
 2880POPC   C1B38887  34.753  37.325   8.727
 2880POPC   C2B38888  34.701  37.176   8.320
 2880POPC   C3B38889  34.634  37.373   7.943
 2880POPC   C4B38890  34.670  37.233   7.534
 2881POPC   NC338891  33.440  10.084   9.578
 2881POPC   PO438892  34.028  10.244   9.403
 2881POPC   GL138893  33.962  10.031   9.064
 2881POPC   GL238894  33.656   9.880   9.118
 2881POPC   C1A38895  34.085   9.878   8.707
 2881POPC   D2A38896  33.936   9.899   8.330
 2881POPC   C3A38897  34.132   9.740   7.943
 2881POPC   C4A38898  34.124   9.925   7.545
 2881POPC   C1B38899  33.616   9.691   8.703
 2881POPC   C2B38900  33.529   9.548   8.271
 2881POPC   C3B38901  33.706   9.498   7.850
 2881POPC   C4B38902  33.688   9.664   7.416
 2882POPC   NC338903  18.580  40.126   9.360
 2882POPC   PO438904  18.330  40.838   9.494
 2882POPC   GL138905  18.502  40.777   9.131
 2882POPC   GL238906  18.289  40.481   9.072
 2882POPC   C1A38907  18.335  40.910   8.738
 2882POPC   D2A38908  18.467  40.895   8.327
 2882POPC   C3A38909  18.172  40.869   8.043
 2882POPC   C4A38910  17.904  41.045   7.757
 2882POPC   C1B38911  18.632  40.448   8.773
 2882POPC   C2B38912  18.763  40.483   8.359
 2882POPC   C3B38913  18.572  40.537   7.933
 2882POPC   C4B38914  18.228  40.596   7.625
 2883POPC   NC338915  41.127  26.377   9.429
 2883POPC   PO438916  41.818  26.217   9.546
 2883POPC   GL138917  41.570  26.224   9.160
 2883POPC   GL238918  41.504  26.552   9.136
 2883POPC   C1A38919  41.440  25.929   8.814
 2883POPC   D2A38920  41.508  25.794   8.398
 2883POPC   C3A38921  41.232  25.932   8.105
 2883POPC   C4A38922  41.401  26.103   7.733
 2883POPC   C1B38923  41.528  26.406   8.669
 2883POPC   C2B38924  41.627  26.279   8.235
 2883POPC   C3B38925  41.892  26.261   7.873
 2883POPC   C4B38926  41.774  26.310   7.441
 2884POPC   NC338927  17.960  15.102   9.424
 2884POPC   PO438928  17.414  14.965   9.455
 2884POPC   GL138929  17.664  14.845   9.083
 2884POPC   GL238930  17.659  15.204   9.011
 2884POPC   C1A38931  17.626  14.846   8.605
 2884POPC   D2A38932  17.666  15.122   8.227
 2884POPC   C3A38933  17.373  15.087   7.875
 2884POPC   C4A38934  16.974  14.886   7.748
 2884POPC   C1B38935  18.001  15.185   8.737
 2884POPC   C2B38936  18.127  15.373   8.337
 2884POPC   C3B38937  17.977  15.371   7.892
 2884POPC   C4B38938  17.590  15.484   7.644
 2885POPC   NC338939  39.446  41.412   9.500
 2885POPC   PO438940  40.137  41.281   9.568
 2885POPC   GL138941  40.009  41.474   9.199
 2885POPC   GL238942  39.776  41.206   9.115
 2885POPC   C1A38943  39.981  41.625   8.776
 2885POPC   D2A38944  40.135  41.412   8.430
 2885POPC   C3A38945  40.389  41.564   8.090
 2885POPC   C4A38946  40.233  41.562   7.672
 2885POPC   C1B38947  39.565  41.298   8.723
 2885POPC   C2B38948  39.640  41.553   8.352
 2885POPC   C3B38949  39.820  41.459   7.976
 2885POPC   C4B38950  39.682  41.525   7.543
 2886POPC   NC338951  30.101   9.097   9.235
 2886POPC   PO438952  29.488   8.975   9.495
 2886POPC   GL138953  29.528   8.737   9.140
 2886POPC   GL238954  29.865   8.665   9.094
 2886POPC   C1A38955  29.648   8.933   8.750
 2886POPC   D2A38956  29.945   9.121   8.502
 2886POPC   C3A38957  29.688   9.080   8.157
 2886POPC   C4A38958  29.799   9.134   7.757
 2886POPC   C1B38959  30.083   8.510   8.796
 2886POPC   C2B38960  30.062   8.603   8.404
 2886POPC   C3B38961  30.172   8.863   8.084
 2886POPC   C4B38962  30.108   8.743   7.671
 2887POPC   NC338963  31.291   0.838   9.599
 2887POPC   PO438964  31.741   0.315   9.728
 2887POPC   GL138965  31.665   0.345   9.273
 2887POPC   GL238966  31.341   0.524   9.168
 2887POPC   C1A38967  31.617   0.204   8.848
 2887POPC   D2A38968  31.639   0.483   8.505
 2887POPC   C3A38969  31.535   0.287   8.160
 2887POPC   C4A38970  31.629   0.149   7.790
 2887POPC   C1B38971  31.159   0.553   8.744
 2887POPC   C2B38972  31.114   0.614   8.295
 2887POPC   C3B38973  31.417   0.750   7.981
 2887POPC   C4B38974  31.684   0.643   7.677
 2888POPC   NC338975   4.045  21.127   9.440
 2888POPC   PO438976   4.548  21.679   9.394
 2888POPC   GL138977   4.351  21.395   9.108
 2888POPC   GL238978   4.069  21.538   8.967
 2888POPC   C1A38979   4.535  21.274   8.715
 2888POPC   D2A38980   4.618  21.477   8.340
 2888POPC   C3A38981   4.345  21.388   7.986
 2888POPC   C4A38982   4.259  21.404   7.565
 2888POPC   C1B38983   4.023  21.246   8.625
 2888POPC   C2B38984   4.195  21.019   8.288
 2888POPC   C3B38985   4.015  21.002   7.845
 2888POPC   C4B38986   3.894  21.086   7.377
 2889POPC   NC338987   1.993  16.814   9.546
 2889POPC   PO438988   2.551  16.592   9.442
 2889POPC   GL138989   2.360  16.811   9.134
 2889POPC   GL238990   2.052  16.624   9.084
 2889POPC   C1A38991   2.222  16.966   8.733
 2889POPC   D2A38992   2.041  16.993   8.332
 2889POPC   C3A38993   2.299  17.141   8.018
 2889POPC   C4A38994   2.265  16.907   7.656
 2889POPC   C1B38995   1.893  16.571   8.674
 2889POPC   C2B38996   2.132  16.478   8.315
 2889POPC   C3B38997   2.017  16.530   7.910
 2889POPC   C4B38998   1.783  16.861   7.816
 2890POPC   NC338999  36.668  37.551   9.447
 2890POPC   PO439000  37.261  37.806   9.363
 2890POPC   GL139001  37.005  37.785   9.027
 2890POPC   GL239002  36.665  37.953   9.132
 2890POPC   C1A39003  37.145  37.710   8.589
 2890POPC   D2A39004  37.118  37.392   8.256
 2890POPC   C3A39005  37.138  37.523   7.861
 2890POPC   C4A39006  36.919  37.499   7.502
 2890POPC   C1B39007  36.647  37.938   8.703
 2890POPC   C2B39008  36.658  37.617   8.390
 2890POPC   C3B39009  36.672  37.683   7.965
 2890POPC   C4B39010  36.662  38.053   7.745
 2891POPC   NC339011  39.141   3.948   9.364
 2891POPC   PO439012  39.146   3.277   9.563
 2891POPC   GL139013  39.238   3.402   9.130
 2891POPC   GL239014  39.401   3.681   9.051
 2891POPC   C1A39015  39.337   3.368   8.681
 2891POPC   D2A39016  39.434   3.646   8.380
 2891POPC   C3A39017  39.213   3.574   8.029
 2891POPC   C4A39018  39.121   3.309   7.700
 2891POPC   C1B39019  39.668   3.892   8.777
 2891POPC   C2B39020  39.809   3.989   8.348
 2891POPC   C3B39021  39.545   3.971   7.959
 2891POPC   C4B39022  39.443   3.706   7.593
 2892POPC   NC339023  24.739  23.339   9.415
 2892POPC   PO439024  24.377  24.016   9.425
 2892POPC   GL139025  24.555  23.743   9.137
 2892POPC   GL239026  24.880  23.941   9.233
 2892POPC   C1A39027  24.458  23.674   8.679
 2892POPC   D2A39028  24.458  23.944   8.270
 2892POPC   C3A39029  24.435  23.786   7.810
 2892POPC   C4A39030  24.357  23.969   7.394
 2892POPC   C1B39031  24.754  24.077   8.813
 2892POPC   C2B39032  24.921  23.784   8.495
 2892POPC   C3B39033  24.826  23.611   8.107
 2892POPC   C4B39034  24.915  23.961   7.842
 2893POPC   NC339035  16.870   3.232   9.454
 2893POPC   PO439036  16.726   2.512   9.517
 2893POPC   GL139037  16.759   2.601   9.130
 2893POPC   GL239038  16.677   2.908   9.100
 2893POPC   C1A39039  16.737   2.458   8.731
 2893POPC   D2A39040  16.666   2.659   8.338
 2893POPC   C3A39041  16.950   2.460   8.057
 2893POPC   C4A39042  17.117   2.363   7.645
 2893POPC   C1B39043  16.382   2.821   8.770
 2893POPC   C2B39044  16.187   2.930   8.390
 2893POPC   C3B39045  16.319   2.921   7.961
 2893POPC   C4B39046  16.623   2.679   7.726
 2894POPC   NC339047  38.611  23.769   9.475
 2894POPC   PO439048  37.881  23.994   9.437
 2894POPC   GL139049  38.068  23.717   9.039
 2894POPC   GL239050  38.405  23.566   9.043
 2894POPC   C1A39051  38.145  23.483   8.619
 2894POPC   D2A39052  38.169  23.453   8.169
 2894POPC   C3A39053  38.264  23.882   8.047
 2894POPC   C4A39054  38.392  24.058   7.663
 2894POPC   C1B39055  38.774  23.685   8.779
 2894POPC   C2B39056  38.846  23.843   8.357
 2894POPC   C3B39057  38.729  23.663   7.966
 2894POPC   C4B39058  38.955  23.380   7.715
 2895POPC   NC339059  44.862   0.229   9.645
 2895POPC   PO439060  44.299   0.347   9.355
 2895POPC   GL139061  44.683   0.388   9.167
 2895POPC   GL239062  44.905   0.090   9.175
 2895POPC   C1A39063  44.670   0.565   8.760
 2895POPC   D2A39064  44.463   0.557   8.374
 2895POPC   C3A39065  44.776   0.593   8.036
 2895POPC   C4A39066  44.617   0.451   7.648
 2895POPC   C1B39067  44.709   0.040   8.795
 2895POPC   C2B39068  44.793   0.168   8.407
 2895POPC   C3B39069  44.728   0.099   8.011
 2895POPC   C4B39070   0.026   0.117   7.659
 2896POPC   NC339071  12.143  42.016   9.197
 2896POPC   PO439072  12.607  42.444   9.511
 2896POPC   GL139073  12.751  42.249   9.136
 2896POPC   GL239074  12.824  41.888   9.148
 2896POPC   C1A39075  13.029  42.299   8.759
 2896POPC   D2A39076  13.273  42.258   8.373
 2896POPC   C3A39077  13.029  42.338   8.003
 2896POPC   C4A39078  12.959  42.594   7.618
 2896POPC   C1B39079  12.612  41.946   8.745
 2896POPC   C2B39080  12.753  42.015   8.359
 2896POPC   C3B39081  12.574  41.968   7.990
 2896POPC   C4B39082  12.673  42.147   7.672
 2897POPC   NC339083  21.622  27.939   5.594
 2897POPC   PO439084  21.234  27.519   5.313
 2897POPC   GL139085  21.237  27.614   5.740
 2897POPC   GL239086  21.350  27.311   5.854
 2897POPC   C1A39087  21.044  27.800   6.127
 2897POPC   D2A39088  21.060  27.691   6.571
 2897POPC   C3A39089  21.419  27.768   6.825
 2897POPC   C4A39090  21.512  27.851   7.269
 2897POPC   C1B39091  21.381  27.427   6.276
 2897POPC   C2B39092  21.351  27.257   6.670
 2897POPC   C3B39093  21.270  27.338   7.079
 2897POPC   C4B39094  21.442  27.370   7.471
 2898POPC   NC339095  34.905  43.949   5.605
 2898POPC   PO439096  34.405  44.297   5.357
 2898POPC   GL139097  34.439  44.118   5.787
 2898POPC   GL239098  34.358  43.761   5.867
 2898POPC   C1A39099  34.534  44.063   6.228
 2898POPC   D2A39100  34.365  43.755   6.535
 2898POPC   C3A39101  34.467  43.905   6.919
 2898POPC   C4A39102  34.321  44.298   7.078
 2898POPC   C1B39103  34.681  43.593   6.160
 2898POPC   C2B39104  34.874  43.800   6.534
 2898POPC   C3B39105  34.855  43.564   6.878
 2898POPC   C4B39106  34.660  43.562   7.262
 2899POPC   NC339107  23.685  16.638   5.200
 2899POPC   PO439108  23.943  17.213   5.414
 2899POPC   GL139109  23.742  16.955   5.721
 2899POPC   GL239110  23.687  16.589   5.712
 2899POPC   C1A39111  23.793  16.913   6.144
 2899POPC   D2A39112  23.828  16.608   6.465
 2899POPC   C3A39113  23.946  16.718   6.832
 2899POPC   C4A39114  23.814  16.600   7.204
 2899POPC   C1B39115  23.631  16.348   6.081
 2899POPC   C2B39116  23.370  16.384   6.449
 2899POPC   C3B39117  23.534  16.321   6.866
 2899POPC   C4B39118  23.318  16.111   7.187
 2900POPC   NC339119  35.411  23.983   5.385
 2900POPC   PO439120  35.231  23.348   5.339
 2900POPC   GL139121  35.172  23.576   5.753
 2900POPC   GL239122  35.111  23.910   5.788
 2900POPC   C1A39123  35.130  23.477   6.203
 2900POPC   D2A39124  34.979  23.266   6.564
 2900POPC   C3A39125  35.033  23.553   6.904
 2900POPC   C4A39126  35.205  23.620   7.299
 2900POPC   C1B39127  35.475  23.841   6.105
 2900POPC   C2B39128  35.428  23.794   6.569
 2900POPC   C3B39129  35.457  23.958   7.002
 2900POPC   C4B39130  35.234  24.157   7.344
 2901POPC   NC339131  41.668  39.286   4.998
 2901POPC   PO439132  41.369  39.436   5.562
 2901POPC   GL139133  41.641  39.374   5.897
 2901POPC   GL239134  41.515  39.035   6.002
 2901POPC   C1A39135  41.651  39.375   6.332
 2901POPC   D2A39136  41.626  39.035   6.575
 2901POPC   C3A39137  41.599  39.243   6.938
 2901POPC   C4A39138  41.691  39.170   7.344
 2901POPC   C1B39139  41.200  38.965   6.287
 2901POPC   C2B39140  41.182  38.868   6.719
 2901POPC   C3B39141  41.274  38.904   7.159
 2901POPC   C4B39142  41.283  39.025   7.595
 2902POPC   NC339143   2.422   9.217   5.542
 2902POPC   PO439144   1.876   8.909   5.505
 2902POPC   GL139145   2.028   9.099   5.851
 2902POPC   GL239146   2.255   8.848   5.930
 2902POPC   C1A39147   1.885   9.297   6.212
 2902POPC   D2A39148   1.888   9.031   6.565
 2902POPC   C3A39149   1.985   9.019   6.990
 2902POPC   C4A39150   2.012   8.689   7.333
 2902POPC   C1B39151   2.348   9.075   6.291
 2902POPC   C2B39152   2.432   9.017   6.701
 2902POPC   C3B39153   2.456   9.198   7.100
 2902POPC   C4B39154   2.184   9.146   7.433
 2903POPC   NC339155  41.725  42.582   5.391
 2903POPC   PO439156  41.481  41.950   5.453
 2903POPC   GL139157  41.523  42.076   5.873
 2903POPC   GL239158  41.864  42.084   5.862
 2903POPC   C1A39159  41.422  42.087   6.327
 2903POPC   D2A39160  41.192  41.883   6.666
 2903POPC   C3A39161  41.234  42.113   7.051
 2903POPC   C4A39162  41.535  42.455   7.010
 2903POPC   C1B39163  41.851  42.389   6.160
 2903POPC   C2B39164  41.887  42.286   6.581
 2903POPC   C3B39165  42.035  42.320   6.982
 2903POPC   C4B39166  41.912  42.142   7.350
 2904POPC   NC339167  40.446  11.379   5.597
 2904POPC   PO439168  39.775  11.264   5.411
 2904POPC   GL139169  40.020  11.222   5.842
 2904POPC   GL239170  40.287  10.998   6.039
 2904POPC   C1A39171  39.840  11.115   6.225
 2904POPC   D2A39172  39.804  11.299   6.567
 2904POPC   C3A39173  40.029  11.299   6.918
 2904POPC   C4A39174  39.919  11.619   7.188
 2904POPC   C1B39175  40.303  11.366   6.306
 2904POPC   C2B39176  40.443  11.515   6.698
 2904POPC   C3B39177  40.447  11.511   7.119
 2904POPC   C4B39178  40.300  11.343   7.447
 2905POPC   NC339179   9.593  21.987   5.393
 2905POPC   PO439180  10.139  22.344   5.437
 2905POPC   GL139181   9.809  22.245   5.766
 2905POPC   GL239182   9.939  21.920   5.817
 2905POPC   C1A39183   9.578  22.213   6.167
 2905POPC   D2A39184   9.564  21.941   6.534
 2905POPC   C3A39185   9.607  22.158   6.923
 2905POPC   C4A39186   9.272  22.336   7.135
 2905POPC   C1B39187  10.073  22.190   6.191
 2905POPC   C2B39188   9.898  22.366   6.553
 2905POPC   C3B39189  10.034  22.482   6.952
 2905POPC   C4B39190   9.880  22.488   7.361
 2906POPC   NC339191  28.589  41.138   5.537
 2906POPC   PO439192  28.314  40.637   5.415
 2906POPC   GL139193  28.178  40.714   5.893
 2906POPC   GL239194  27.846  40.532   5.963
 2906POPC   C1A39195  28.142  41.070   6.209
 2906POPC   D2A39196  28.398  41.254   6.542
 2906POPC   C3A39197  28.459  41.004   6.955
 2906POPC   C4A39198  28.489  40.784   7.376
 2906POPC   C1B39199  27.779  40.722   6.345
 2906POPC   C2B39200  28.114  40.744   6.648
 2906POPC   C3B39201  28.221  40.531   7.034
 2906POPC   C4B39202  28.269  40.329   7.464
 2907POPC   NC339203  19.486  26.358   5.500
 2907POPC   PO439204  19.864  25.860   5.435
 2907POPC   GL139205  19.888  26.171   5.761
 2907POPC   GL239206  19.597  26.064   5.943
 2907POPC   C1A39207  20.099  26.323   6.132
 2907POPC   D2A39208  20.039  26.128   6.540
 2907POPC   C3A39209  20.173  26.167   6.980
 2907POPC   C4A39210  20.334  25.816   7.201
 2907POPC   C1B39211  19.521  26.020   6.416
 2907POPC   C2B39212  19.647  26.134   6.875
 2907POPC   C3B39213  19.450  26.143   7.292
 2907POPC   C4B39214  19.533  26.133   7.755
 2908POPC   NC339215  34.114  24.988   5.547
 2908POPC   PO439216  34.617  25.405   5.269
 2908POPC   GL139217  34.667  25.450   5.731
 2908POPC   GL239218  34.496  25.141   5.875
 2908POPC   C1A39219  34.469  25.600   6.131
 2908POPC   D2A39220  34.431  25.388   6.530
 2908POPC   C3A39221  34.579  25.548   6.947
 2908POPC   C4A39222  34.783  25.423   7.291
 2908POPC   C1B39223  34.125  25.144   6.177
 2908POPC   C2B39224  34.076  24.936   6.568
 2908POPC   C3B39225  34.226  25.168   6.937
 2908POPC   C4B39226  34.617  24.962   7.103
 2909POPC   NC339227  40.854  24.705   5.350
 2909POPC   PO439228  41.168  24.073   5.440
 2909POPC   GL139229  40.912  24.331   5.745
 2909POPC   GL239230  40.972  24.690   5.839
 2909POPC   C1A39231  40.877  24.344   6.212
 2909POPC   D2A39232  40.915  24.030   6.534
 2909POPC   C3A39233  40.730  24.234   6.892
 2909POPC   C4A39234  41.001  24.513   7.095
 2909POPC   C1B39235  40.641  24.789   6.155
 2909POPC   C2B39236  40.560  24.626   6.583
 2909POPC   C3B39237  40.587  24.796   6.979
 2909POPC   C4B39238  40.736  24.904   7.395
 2910POPC   NC339239  13.716   9.461   5.279
 2910POPC   PO439240  13.649   8.791   5.413
 2910POPC   GL139241  13.736   8.971   5.819
 2910POPC   GL239242  13.804   9.328   5.770
 2910POPC   C1A39243  13.610   9.106   6.246
 2910POPC   D2A39244  13.559   8.920   6.666
 2910POPC   C3A39245  13.357   9.087   7.066
 2910POPC   C4A39246  13.437   9.103   7.523
 2910POPC   C1B39247  14.059   9.329   6.132
 2910POPC   C2B39248  13.994   9.251   6.578
 2910POPC   C3B39249  13.836   9.278   6.985
 2910POPC   C4B39250  13.879   9.345   7.422
 2911POPC   NC339251   9.248  20.428   5.437
 2911POPC   PO439252   8.536  20.288   5.428
 2911POPC   GL139253   8.793  20.623   5.676
 2911POPC   GL239254   9.121  20.821   5.728
 2911POPC   C1A39255   8.915  20.548   6.118
 2911POPC   D2A39256   9.115  20.605   6.539
 2911POPC   C3A39257   8.932  20.489   6.952
 2911POPC   C4A39258   8.862  20.398   7.398
 2911POPC   C1B39259   9.163  20.995   6.156
 2911POPC   C2B39260   9.379  21.037   6.579
 2911POPC   C3B39261   9.156  20.945   6.968
 2911POPC   C4B39262   9.397  20.984   7.305
 2912POPC   NC339263  31.669  23.108   5.386
 2912POPC   PO439264  31.244  22.491   5.272
 2912POPC   GL139265  31.341  22.763   5.612
 2912POPC   GL239266  31.682  22.738   5.749
 2912POPC   C1A39267  31.269  22.889   6.047
 2912POPC   D2A39268  31.242  22.766   6.481
 2912POPC   C3A39269  31.298  22.992   6.848
 2912POPC   C4A39270  31.404  22.886   7.279
 2912POPC   C1B39271  31.888  22.801   6.142
 2912POPC   C2B39272  31.949  22.651   6.564
 2912POPC   C3B39273  31.801  22.763   6.967
 2912POPC   C4B39274  31.918  22.969   7.373
 2913POPC   NC339275  24.960  25.322   5.276
 2913POPC   PO439276  25.507  25.673   5.323
 2913POPC   GL139277  25.328  25.424   5.660
 2913POPC   GL239278  25.015  25.551   5.736
 2913POPC   C1A39279  25.265  25.261   6.113
 2913POPC   D2A39280  25.545  25.304   6.505
 2913POPC   C3A39281  25.311  25.301   6.910
 2913POPC   C4A39282  25.078  25.055   7.222
 2913POPC   C1B39283  24.974  25.728   6.121
 2913POPC   C2B39284  25.087  25.582   6.513
 2913POPC   C3B39285  25.041  25.734   6.904
 2913POPC   C4B39286  24.922  25.526   7.263
 2914POPC   NC339287   8.188   9.444   5.255
 2914POPC   PO439288   7.773   9.935   5.567
 2914POPC   GL139289   8.196   9.847   5.740
 2914POPC   GL239290   8.209   9.483   5.774
 2914POPC   C1A39291   8.421  10.012   6.136
 2914POPC   D2A39292   8.493  10.148   6.597
 2914POPC   C3A39293   8.264   9.894   6.942
 2914POPC   C4A39294   7.904   9.936   7.238
 2914POPC   C1B39295   7.998   9.622   6.171
 2914POPC   C2B39296   7.754   9.450   6.539
 2914POPC   C3B39297   7.827   9.495   6.980
 2914POPC   C4B39298   8.209   9.451   7.217
 2915POPC   NC339299   3.059   3.601   5.104
 2915POPC   PO439300   2.609   3.209   5.587
 2915POPC   GL139301   2.545   3.537   5.887
 2915POPC   GL239302   2.811   3.799   5.981
 2915POPC   C1A39303   2.579   3.493   6.290
 2915POPC   D2A39304   2.817   3.429   6.606
 2915POPC   C3A39305   2.521   3.354   6.888
 2915POPC   C4A39306   2.459   3.467   7.254
 2915POPC   C1B39307   3.102   3.867   6.347
 2915POPC   C2B39308   2.991   4.065   6.746
 2915POPC   C3B39309   2.824   3.755   7.026
 2915POPC   C4B39310   2.962   3.299   7.089
 2916POPC   NC339311  42.076  32.460   5.321
 2916POPC   PO439312  42.609  32.161   5.404
 2916POPC   GL139313  42.312  32.219   5.745
 2916POPC   GL239314  42.321  32.581   5.809
 2916POPC   C1A39315  42.154  32.260   6.181
 2916POPC   D2A39316  42.101  32.246   6.631
 2916POPC   C3A39317  42.377  32.166   6.970
 2916POPC   C4A39318  42.240  32.314   7.374
 2916POPC   C1B39319  42.627  32.416   6.157
 2916POPC   C2B39320  42.800  32.497   6.580
 2916POPC   C3B39321  42.731  32.545   7.010
 2916POPC   C4B39322  42.772  32.251   7.338
 2917POPC   NC339323   0.758  15.756   5.240
 2917POPC   PO439324   0.507  15.058   5.307
 2917POPC   GL139325   0.511  15.205   5.763
 2917POPC   GL239326   0.803  15.442   5.832
 2917POPC   C1A39327   0.323  15.128   6.178
 2917POPC   D2A39328   0.401  14.938   6.569
 2917POPC   C3A39329   0.290  15.205   6.885
 2917POPC   C4A39330   0.224  15.361   7.260
 2917POPC   C1B39331   0.843  15.269   6.266
 2917POPC   C2B39332   0.751  15.382   6.708
 2917POPC   C3B39333   0.753  15.333   7.173
 2917POPC   C4B39334   0.937  15.011   7.441
 2918POPC   NC339335  19.386  42.929   5.595
 2918POPC   PO439336  19.905  43.208   5.281
 2918POPC   GL139337  19.836  43.214   5.707
 2918POPC   GL239338  19.850  42.881   5.747
 2918POPC   C1A39339  19.834  43.373   6.126
 2918POPC   D2A39340  20.040  43.573   6.496
 2918POPC   C3A39341  19.905  43.416   6.888
 2918POPC   C4A39342  19.904  43.262   7.294
 2918POPC   C1B39343  19.727  42.875   6.162
 2918POPC   C2B39344  19.931  43.043   6.517
 2918POPC   C3B39345  20.022  42.914   6.927
 2918POPC   C4B39346  19.859  42.751   7.291
 2919POPC   NC339347  22.075  29.489   5.302
 2919POPC   PO439348  21.843  28.882   5.144
 2919POPC   GL139349  22.070  29.036   5.593
 2919POPC   GL239350  22.063  29.380   5.787
 2919POPC   C1A39351  22.101  28.979   6.085
 2919POPC   D2A39352  22.243  28.903   6.534
 2919POPC   C3A39353  22.005  29.001   6.914
 2919POPC   C4A39354  22.159  29.072   7.354
 2919POPC   C1B39355  22.251  29.488   6.211
 2919POPC   C2B39356  22.281  29.403   6.650
 2919POPC   C3B39357  22.179  29.478   7.065
 2919POPC   C4B39358  21.832  29.697   7.210
 2920POPC   NC339359   9.030  32.380   5.449
 2920POPC   PO439360   8.425  32.113   5.440
 2920POPC   GL139361   8.745  32.090   5.773
 2920POPC   GL239362   9.125  31.994   5.755
 2920POPC   C1A39363   8.847  32.398   6.104
 2920POPC   D2A39364   9.105  32.578   6.435
 2920POPC   C3A39365   9.193  32.419   6.858
 2920POPC   C4A39366   8.894  32.522   7.203
 2920POPC   C1B39367   9.301  32.143   6.154
 2920POPC   C2B39368   9.439  32.022   6.565
 2920POPC   C3B39369   9.240  31.849   6.933
 2920POPC   C4B39370   9.051  32.031   7.294
 2921POPC   NC339371   6.803  40.107   5.394
 2921POPC   PO439372   6.270  39.684   5.592
 2921POPC   GL139373   6.680  39.822   5.799
 2921POPC   GL239374   6.759  40.198   5.890
 2921POPC   C1A39375   6.929  39.824   6.178
 2921POPC   D2A39376   6.737  39.816   6.573
 2921POPC   C3A39377   7.022  39.882   6.898
 2921POPC   C4A39378   6.776  40.014   7.265
 2921POPC   C1B39379   6.793  40.294   6.379
 2921POPC   C2B39380   6.706  40.263   6.822
 2921POPC   C3B39381   6.457  40.402   7.175
 2921POPC   C4B39382   6.565  40.433   7.615
 2922POPC   NC339383   0.664  12.065   5.399
 2922POPC   PO439384   0.084  11.696   5.646
 2922POPC   GL139385   0.383  11.986   5.814
 2922POPC   GL239386   0.368  12.308   5.807
 2922POPC   C1A39387   0.600  11.969   6.168
 2922POPC   D2A39388   0.393  11.851   6.522
 2922POPC   C3A39389   0.568  11.892   6.911
 2922POPC   C4A39390   0.568  12.033   7.330
 2922POPC   C1B39391   0.566  12.470   6.186
 2922POPC   C2B39392   0.625  12.305   6.579
 2922POPC   C3B39393   0.541  12.415   7.001
 2922POPC   C4B39394   0.696  12.694   7.259
 2923POPC   NC339395  37.750   3.786   5.453
 2923POPC   PO439396  37.324   3.338   5.564
 2923POPC   GL139397  37.751   3.387   5.778
 2923POPC   GL239398  38.097   3.392   5.649
 2923POPC   C1A39399  37.900   3.622   6.145
 2923POPC   D2A39400  37.680   3.816   6.494
 2923POPC   C3A39401  37.720   3.563   6.865
 2923POPC   C4A39402  37.662   3.751   7.244
 2923POPC   C1B39403  38.246   3.233   6.069
 2923POPC   C2B39404  38.041   3.171   6.475
 2923POPC   C3B39405  38.136   3.244   6.915
 2923POPC   C4B39406  37.861   3.244   7.305
 2924POPC   NC339407   9.514  27.461   5.335
 2924POPC   PO439408  10.110  27.605   5.647
 2924POPC   GL139409   9.725  27.660   5.835
 2924POPC   GL239410   9.482  27.365   5.845
 2924POPC   C1A39411   9.905  27.783   6.243
 2924POPC   D2A39412  10.235  27.794   6.526
 2924POPC   C3A39413   9.992  27.823   6.862
 2924POPC   C4A39414   9.729  27.884   7.223
 2924POPC   C1B39415   9.746  27.267   6.193
 2924POPC   C2B39416   9.842  27.408   6.612
 2924POPC   C3B39417   9.835  27.361   7.065
 2924POPC   C4B39418   9.422  27.461   7.178
 2925POPC   NC339419  42.355  36.584   5.612
 2925POPC   PO439420  42.160  37.198   5.305
 2925POPC   GL139421  42.121  37.034   5.757
 2925POPC   GL239422  42.465  37.037   5.811
 2925POPC   C1A39423  42.025  36.790   6.185
 2925POPC   D2A39424  42.315  36.566   6.512
 2925POPC   C3A39425  42.459  36.641   6.943
 2925POPC   C4A39426  42.137  36.536   7.243
 2925POPC   C1B39427  42.381  37.165   6.223
 2925POPC   C2B39428  42.464  37.078   6.644
 2925POPC   C3B39429  42.348  37.232   7.041
 2925POPC   C4B39430  42.386  37.135   7.459
 2926POPC   NC339431   3.829   5.637   5.346
 2926POPC   PO439432   3.272   6.123   5.521
 2926POPC   GL139433   3.374   5.845   5.822
 2926POPC   GL239434   3.741   5.817   5.812
 2926POPC   C1A39435   3.244   5.887   6.260
 2926POPC   D2A39436   3.046   5.815   6.674
 2926POPC   C3A39437   3.313   5.945   7.038
 2926POPC   C4A39438   3.725   6.060   7.149
 2926POPC   C1B39439   3.732   6.018   6.191
 2926POPC   C2B39440   3.627   5.957   6.617
 2926POPC   C3B39441   3.692   5.625   6.902
 2926POPC   C4B39442   3.891   5.577   7.279
 2927POPC   NC339443  17.620  21.969   5.429
 2927POPC   PO439444  17.109  21.712   5.517
 2927POPC   GL139445  17.267  21.975   5.854
 2927POPC   GL239446  17.610  22.108   5.923
 2927POPC   C1A39447  17.288  21.894   6.315
 2927POPC   D2A39448  17.496  21.792   6.714
 2927POPC   C3A39449  17.360  21.968   7.133
 2927POPC   C4A39450  17.046  21.951   7.503
 2927POPC   C1B39451  17.653  22.251   6.372
 2927POPC   C2B39452  17.609  22.294   6.823
 2927POPC   C3B39453  17.584  22.605   7.172
 2927POPC   C4B39454  17.730  22.638   7.626
 2928POPC   NC339455   6.839  40.910   5.421
 2928POPC   PO439456   6.428  40.411   5.319
 2928POPC   GL139457   6.502  40.626   5.711
 2928POPC   GL239458   6.177  40.808   5.756
 2928POPC   C1A39459   6.831  40.675   6.055
 2928POPC   D2A39460   6.883  40.849   6.490
 2928POPC   C3A39461   6.824  40.720   6.937
 2928POPC   C4A39462   6.682  40.852   7.339
 2928POPC   C1B39463   6.332  40.713   6.193
 2928POPC   C2B39464   6.409  40.640   6.626
 2928POPC   C3B39465   6.284  40.863   7.019
 2928POPC   C4B39466   6.200  40.788   7.486
 2929POPC   NC339467   7.761  42.569   5.120
 2929POPC   PO439468   7.327  42.081   5.143
 2929POPC   GL139469   7.430  42.176   5.582
 2929POPC   GL239470   7.778  42.040   5.644
 2929POPC   C1A39471   7.215  42.334   5.973
 2929POPC   D2A39472   7.394  42.478   6.359
 2929POPC   C3A39473   7.391  42.151   6.679
 2929POPC   C4A39474   7.188  41.963   7.048
 2929POPC   C1B39475   7.727  42.105   6.105
 2929POPC   C2B39476   7.926  41.931   6.455
 2929POPC   C3B39477   7.837  42.013   6.855
 2929POPC   C4B39478   7.629  42.240   7.159
 2930POPC   NC339479   2.258  14.756   5.466
 2930POPC   PO439480   1.798  14.260   5.485
 2930POPC   GL139481   1.912  14.249   5.882
 2930POPC   GL239482   2.256  14.396   5.850
 2930POPC   C1A39483   1.939  14.518   6.237
 2930POPC   D2A39484   2.153  14.581   6.587
 2930POPC   C3A39485   1.957  14.467   6.977
 2930POPC   C4A39486   1.584  14.252   7.076
 2930POPC   C1B39487   2.314  14.081   6.171
 2930POPC   C2B39488   2.121  14.047   6.588
 2930POPC   C3B39489   2.340  14.134   6.966
 2930POPC   C4B39490   2.293  14.391   7.373
 2931POPC   NC339491  10.808  20.855   5.303
 2931POPC   PO439492  11.397  20.542   5.243
 2931POPC   GL139493  11.391  20.603   5.705
 2931POPC   GL239494  11.075  20.733   5.748
 2931POPC   C1A39495  11.417  20.675   6.177
 2931POPC   D2A39496  11.463  20.777   6.621
 2931POPC   C3A39497  11.357  20.460   6.936
 2931POPC   C4A39498  11.630  20.374   7.279
 2931POPC   C1B39499  10.929  20.855   6.164
 2931POPC   C2B39500  10.792  20.935   6.582
 2931POPC   C3B39501  11.057  20.898   6.925
 2931POPC   C4B39502  11.035  20.706   7.320
 2932POPC   NC339503  14.452   7.880   5.492
 2932POPC   PO439504  14.592   8.595   5.624
 2932POPC   GL139505  14.459   8.263   5.874
 2932POPC   GL239506  14.182   8.439   5.985
 2932POPC   C1A39507  14.369   8.087   6.308
 2932POPC   D2A39508  14.536   7.900   6.698
 2932POPC   C3A39509  14.318   8.057   7.044
 2932POPC   C4A39510  14.170   8.466   7.107
 2932POPC   C1B39511  14.514   8.594   6.293
 2932POPC   C2B39512  14.567   8.652   6.740
 2932POPC   C3B39513  14.606   8.709   7.180
 2932POPC   C4B39514  14.323   8.613   7.579
 2933POPC   NC339515  33.502  41.114   5.406
 2933POPC   PO439516  34.050  40.709   5.386
 2933POPC   GL139517  34.006  40.641   5.815
 2933POPC   GL239518  33.830  40.979   5.799
 2933POPC   C1A39519  33.955  40.804   6.242
 2933POPC   D2A39520  33.945  40.909   6.639
 2933POPC   C3A39521  33.826  40.570   6.858
 2933POPC   C4A39522  33.859  40.594   7.270
 2933POPC   C1B39523  33.482  41.014   6.100
 2933POPC   C2B39524  33.445  41.028   6.567
 2933POPC   C3B39525  33.607  41.032   7.012
 2933POPC   C4B39526  33.468  41.003   7.431
 2934POPC   NC339527  40.566  11.456   5.072
 2934POPC   PO439528  40.994  10.984   5.185
 2934POPC   GL139529  40.954  11.267   5.568
 2934POPC   GL239530  40.896  11.056   5.807
 2934POPC   C1A39531  41.027  11.500   6.018
 2934POPC   D2A39532  40.892  11.580   6.486
 2934POPC   C3A39533  40.918  11.409   6.979
 2934POPC   C4A39534  40.823  11.493   7.475
 2934POPC   C1B39535  40.778  11.107   6.228
 2934POPC   C2B39536  40.700  11.043   6.643
 2934POPC   C3B39537  40.471  11.024   7.004
 2934POPC   C4B39538  40.684  11.009   7.369
 2935POPC   NC339539  36.538  21.028   5.497
 2935POPC   PO439540  35.888  21.217   5.367
 2935POPC   GL139541  35.927  21.316   5.830
 2935POPC   GL239542  36.239  21.135   5.913
 2935POPC   C1A39543  36.030  21.487   6.274
 2935POPC   D2A39544  36.400  21.601   6.558
 2935POPC   C3A39545  36.306  21.530   7.006
 2935POPC   C4A39546  35.987  21.668   7.278
 2935POPC   C1B39547  36.398  21.134   6.331
 2935POPC   C2B39548  36.135  21.154   6.691
 2935POPC   C3B39549  35.955  21.150   7.099
 2935POPC   C4B39550  36.127  21.231   7.520
 2936POPC   NC339551  42.721   0.724   5.507
 2936POPC   PO439552  43.418   0.615   5.541
 2936POPC   GL139553  43.102   0.504   5.834
 2936POPC   GL239554  43.209   0.148   5.825
 2936POPC   C1A39555  42.902   0.623   6.262
 2936POPC   D2A39556  42.967   0.706   6.740
 2936POPC   C3A39557  42.942   0.336   7.051
 2936POPC   C4A39558  42.807   0.345   7.498
 2936POPC   C1B39559  43.301   0.278   6.248
 2936POPC   C2B39560  43.276   0.166   6.660
 2936POPC   C3B39561  43.413   0.468   6.909
 2936POPC   C4B39562  43.305   0.730   7.214
 2937POPC   NC339563  19.321   7.821   5.532
 2937POPC   PO439564  18.944   8.436   5.402
 2937POPC   GL139565  18.981   8.269   5.783
 2937POPC   GL239566  19.259   8.480   5.849
 2937POPC   C1A39567  19.003   8.012   6.159
 2937POPC   D2A39568  18.785   7.902   6.535
 2937POPC   C3A39569  18.917   8.142   6.859
 2937POPC   C4A39570  19.041   8.064   7.249
 2937POPC   C1B39571  19.452   8.291   6.197
 2937POPC   C2B39572  19.361   8.078   6.578
 2937POPC   C3B39573  19.460   8.192   6.990
 2937POPC   C4B39574  19.297   8.506   7.270
 2938POPC   NC339575  21.338   4.587   5.368
 2938POPC   PO439576  21.347   5.296   5.297
 2938POPC   GL139577  21.450   5.016   5.647
 2938POPC   GL239578  21.134   4.916   5.745
 2938POPC   C1A39579  21.547   4.936   6.113
 2938POPC   D2A39580  21.398   4.972   6.564
 2938POPC   C3A39581  21.535   5.082   7.016
 2938POPC   C4A39582  21.513   5.019   7.504
 2938POPC   C1B39583  21.016   5.023   6.163
 2938POPC   C2B39584  20.903   5.060   6.580
 2938POPC   C3B39585  21.042   4.906   6.964
 2938POPC   C4B39586  21.058   5.134   7.321
 2939POPC   NC339587  14.282   6.051   5.325
 2939POPC   PO439588  14.680   5.566   5.110
 2939POPC   GL139589  14.381   5.650   5.621
 2939POPC   GL239590  14.395   5.969   5.823
 2939POPC   C1A39591  14.217   5.586   6.107
 2939POPC   D2A39592  14.371   5.749   6.526
 2939POPC   C3A39593  14.494   5.654   6.961
 2939POPC   C4A39594  14.540   5.766   7.396
 2939POPC   C1B39595  14.238   6.185   6.228
 2939POPC   C2B39596  14.070   6.134   6.663
 2939POPC   C3B39597  14.177   6.052   7.100
 2939POPC   C4B39598  14.094   5.977   7.558
 2940POPC   NC339599  32.776   3.786   5.494
 2940POPC   PO439600  33.310   4.040   5.158
 2940POPC   GL139601  33.091   4.170   5.605
 2940POPC   GL239602  32.737   4.349   5.642
 2940POPC   C1A39603  32.929   4.138   6.083
 2940POPC   D2A39604  33.177   4.219   6.484
 2940POPC   C3A39605  33.065   4.118   6.911
 2940POPC   C4A39606  33.251   4.189   7.317
 2940POPC   C1B39607  32.622   4.606   6.028
 2940POPC   C2B39608  32.642   4.585   6.484
 2940POPC   C3B39609  32.651   4.424   6.882
 2940POPC   C4B39610  32.809   4.425   7.267
 2941POPC   NC339611   0.217  31.747   5.392
 2941POPC   PO439612   0.400  31.094   5.339
 2941POPC   GL139613   0.519  31.415   5.685
 2941POPC   GL239614   0.615  31.820   5.700
 2941POPC   C1A39615   0.681  31.545   6.103
 2941POPC   D2A39616   0.486  31.604   6.483
 2941POPC   C3A39617   0.660  31.642   6.879
 2941POPC   C4A39618   0.614  31.419   7.263
 2941POPC   C1B39619   0.346  31.925   6.102
 2941POPC   C2B39620   0.140  31.983   6.491
 2941POPC   C3B39621   0.011  31.974   6.908
 2941POPC   C4B39622   0.286  31.810   7.218
 2942POPC   NC339623   1.165  41.641   5.476
 2942POPC   PO439624   0.927  41.094   5.197
 2942POPC   GL139625   1.052  41.234   5.722
 2942POPC   GL239626   1.374  41.416   5.872
 2942POPC   C1A39627   0.998  41.516   6.154
 2942POPC   D2A39628   1.305  41.553   6.499
 2942POPC   C3A39629   1.147  41.491   6.900
 2942POPC   C4A39630   1.000  41.428   7.318
 2942POPC   C1B39631   1.446  41.821   6.076
 2942POPC   C2B39632   1.462  42.053   6.465
 2942POPC   C3B39633   1.435  41.958   6.908
 2942POPC   C4B39634   1.372  41.764   7.319
 2943POPC   NC339635  21.759  40.852   5.372
 2943POPC   PO439636  21.123  40.803   5.526
 2943POPC   GL139637  21.302  40.588   5.811
 2943POPC   GL239638  21.185  40.832   6.038
 2943POPC   C1A39639  21.609  40.599   6.143
 2943POPC   D2A39640  21.743  40.715   6.556
 2943POPC   C3A39641  21.494  40.733   6.938
 2943POPC   C4A39642  21.644  40.621   7.367
 2943POPC   C1B39643  21.243  40.834   6.447
 2943POPC   C2B39644  21.024  41.011   6.757
 2943POPC   C3B39645  21.053  40.903   7.145
 2943POPC   C4B39646  21.153  40.495   7.291
 2944POPC   NC339647   4.184  38.066   5.500
 2944POPC   PO439648   4.538  37.617   5.398
 2944POPC   GL139649   4.508  37.824   5.827
 2944POPC   GL239650   4.155  37.807   5.949
 2944POPC   C1A39651   4.489  38.018   6.274
 2944POPC   D2A39652   4.275  37.969   6.700
 2944POPC   C3A39653   4.452  37.744   7.066
 2944POPC   C4A39654   4.572  37.744   7.523
 2944POPC   C1B39655   4.206  37.565   6.349
 2944POPC   C2B39656   4.097  37.473   6.803
 2944POPC   C3B39657   4.237  37.320   7.245
 2944POPC   C4B39658   4.224  37.387   7.714
 2945POPC   NC339659  20.740  41.022   5.446
 2945POPC   PO439660  20.562  40.418   5.375
 2945POPC   GL139661  20.777  40.517   5.780
 2945POPC   GL239662  20.687  40.814   5.923
 2945POPC   C1A39663  20.991  40.380   6.160
 2945POPC   D2A39664  20.786  40.601   6.497
 2945POPC   C3A39665  20.805  40.512   6.909
 2945POPC   C4A39666  20.528  40.747   7.146
 2945POPC   C1B39667  20.726  41.064   6.301
 2945POPC   C2B39668  20.520  41.118   6.712
 2945POPC   C3B39669  20.665  41.249   7.136
 2945POPC   C4B39670  20.743  40.964   7.544
 2946POPC   NC339671  10.533  24.767   5.312
 2946POPC   PO439672  10.757  25.394   5.429
 2946POPC   GL139673  10.652  25.334   5.814
 2946POPC   GL239674  10.363  25.150   5.773
 2946POPC   C1A39675  10.830  25.381   6.217
 2946POPC   D2A39676  10.799  25.229   6.607
 2946POPC   C3A39677  10.836  25.493   6.921
 2946POPC   C4A39678  10.761  25.402   7.317
 2946POPC   C1B39679  10.292  25.246   6.201
 2946POPC   C2B39680  10.299  25.135   6.612
 2946POPC   C3B39681  10.334  25.378   6.970
 2946POPC   C4B39682  10.313  25.161   7.327
 2947POPC   NC339683   1.346  17.250   5.599
 2947POPC   PO439684   1.298  17.795   5.226
 2947POPC   GL139685   1.103  17.720   5.665
 2947POPC   GL239686   0.923  17.378   5.815
 2947POPC   C1A39687   1.184  17.675   6.133
 2947POPC   D2A39688   1.306  17.309   6.416
 2947POPC   C3A39689   1.330  17.390   6.880
 2947POPC   C4A39690   1.194  17.738   7.172
 2947POPC   C1B39691   0.797  17.332   6.220
 2947POPC   C2B39692   0.824  17.177   6.618
 2947POPC   C3B39693   0.813  17.345   7.028
 2947POPC   C4B39694   0.708  17.065   7.337
 2948POPC   NC339695  29.175  39.796   5.491
 2948POPC   PO439696  29.271  39.107   5.580
 2948POPC   GL139697  29.114  39.142   5.966
 2948POPC   GL239698  29.128  39.495   5.894
 2948POPC   C1A39699  28.894  38.939   6.326
 2948POPC   D2A39700  28.691  38.913   6.751
 2948POPC   C3A39701  28.994  39.004   7.092
 2948POPC   C4A39702  29.425  39.065   7.135
 2948POPC   C1B39703  29.385  39.455   6.252
 2948POPC   C2B39704  29.263  39.582   6.635
 2948POPC   C3B39705  29.364  39.576   7.039
 2948POPC   C4B39706  29.252  39.447   7.437
 2949POPC   NC339707   3.755  12.031   5.057
 2949POPC   PO439708   3.593  12.292   5.675
 2949POPC   GL139709   3.384  12.212   6.016
 2949POPC   GL239710   3.341  11.858   5.943
 2949POPC   C1A39711   3.332  12.069   6.453
 2949POPC   D2A39712   3.242  11.899   6.853
 2949POPC   C3A39713   3.375  12.265   7.025
 2949POPC   C4A39714   3.343  12.403   7.414
 2949POPC   C1B39715   3.698  11.826   6.179
 2949POPC   C2B39716   3.857  11.852   6.588
 2949POPC   C3B39717   3.748  11.897   7.027
 2949POPC   C4B39718   3.982  11.735   7.365
 2950POPC   NC339719   6.323   7.936   5.555
 2950POPC   PO439720   6.857   8.298   5.277
 2950POPC   GL139721   6.822   8.267   5.717
 2950POPC   GL239722   6.492   8.368   5.800
 2950POPC   C1A39723   6.696   8.097   6.142
 2950POPC   D2A39724   6.478   8.187   6.519
 2950POPC   C3A39725   6.630   8.142   6.899
 2950POPC   C4A39726   6.424   7.890   7.230
 2950POPC   C1B39727   6.201   8.358   6.133
 2950POPC   C2B39728   6.090   8.490   6.548
 2950POPC   C3B39729   6.341   8.569   6.885
 2950POPC   C4B39730   6.355   8.383   7.269
 2951POPC   NC339731  42.229   6.070   5.436
 2951POPC   PO439732  42.554   5.517   5.293
 2951POPC   GL139733  42.505   5.742   5.703
 2951POPC   GL239734  42.181   5.827   5.886
 2951POPC   C1A39735  42.645   5.914   6.116
 2951POPC   D2A39736  42.591   5.738   6.517
 2951POPC   C3A39737  42.546   5.961   6.886
 2951POPC   C4A39738  42.480   5.830   7.301
 2951POPC   C1B39739  42.121   5.603   6.287
 2951POPC   C2B39740  42.044   5.477   6.713
 2951POPC   C3B39741  42.034   5.624   7.119
 2951POPC   C4B39742  42.069   6.073   7.085
 2952POPC   NC339743  11.897  19.662   5.387
 2952POPC   PO439744  12.066  20.185   5.748
 2952POPC   GL139745  11.919  19.834   5.928
 2952POPC   GL239746  12.164  19.615   5.823
 2952POPC   C1A39747  11.885  19.870   6.375
 2952POPC   D2A39748  12.040  20.221   6.618
 2952POPC   C3A39749  12.196  20.026   6.961
 2952POPC   C4A39750  11.990  19.799   7.209
 2952POPC   C1B39751  12.369  19.709   6.200
 2952POPC   C2B39752  12.288  19.647   6.622
 2952POPC   C3B39753  12.452  19.587   7.009
 2952POPC   C4B39754  12.301  19.412   7.376
 2953POPC   NC339755  37.413  11.361   5.326
 2953POPC   PO439756  38.050  11.137   5.137
 2953POPC   GL139757  37.791  11.135   5.585
 2953POPC   GL239758  37.416  11.003   5.708
 2953POPC   C1A39759  37.634  11.347   6.011
 2953POPC   D2A39760  37.638  11.265   6.481
 2953POPC   C3A39761  37.731  11.440   6.887
 2953POPC   C4A39762  37.408  11.558   7.140
 2953POPC   C1B39763  37.262  11.010   6.195
 2953POPC   C2B39764  37.276  10.959   6.705
 2953POPC   C3B39765  37.421  11.046   7.160
 2953POPC   C4B39766  37.476  10.908   7.620
 2954POPC   NC339767  43.993  39.405   5.172
 2954POPC   PO439768  43.753  38.896   5.474
 2954POPC   GL139769  43.904  39.068   5.842
 2954POPC   GL239770  44.023  39.374   5.691
 2954POPC   C1A39771  44.161  38.987   6.221
 2954POPC   D2A39772  44.018  39.171   6.587
 2954POPC   C3A39773  44.066  39.042   6.971
 2954POPC   C4A39774  43.777  38.913   7.254
 2954POPC   C1B39775  44.066  39.486   6.111
 2954POPC   C2B39776  43.996  39.681   6.492
 2954POPC   C3B39777  44.070  39.600   6.916
 2954POPC   C4B39778  43.872  39.462   7.269
 2955POPC   NC339779   2.538  18.977   5.613
 2955POPC   PO439780   3.100  18.965   5.244
 2955POPC   GL139781   3.037  18.790   5.659
 2955POPC   GL239782   3.020  19.162   5.740
 2955POPC   C1A39783   2.908  18.732   6.119
 2955POPC   D2A39784   2.559  18.756   6.447
 2955POPC   C3A39785   2.680  18.908   6.869
 2955POPC   C4A39786   2.865  19.001   7.259
 2955POPC   C1B39787   3.070  19.339   6.159
 2955POPC   C2B39788   2.974  19.304   6.592
 2955POPC   C3B39789   2.807  19.441   7.006
 2955POPC   C4B39790   2.698  19.406   7.499
 2956POPC   NC339791  28.464  32.355   5.473
 2956POPC   PO439792  27.892  32.168   5.478
 2956POPC   GL139793  28.129  32.252   5.846
 2956POPC   GL239794  27.883  32.474   5.987
 2956POPC   C1A39795  28.431  32.105   6.187
 2956POPC   D2A39796  28.370  32.245   6.617
 2956POPC   C3A39797  28.335  32.019   6.960
 2956POPC   C4A39798  28.631  32.164   7.170
 2956POPC   C1B39799  27.939  32.156   6.325
 2956POPC   C2B39800  27.869  32.102   6.767
 2956POPC   C3B39801  27.851  32.260   7.214
 2956POPC   C4B39802  27.957  32.450   7.621
 2957POPC   NC339803  23.838  23.728   4.977
 2957POPC   PO439804  24.097  23.654   5.595
 2957POPC   GL139805  23.860  23.741   5.942
 2957POPC   GL239806  24.036  24.051   6.002
 2957POPC   C1A39807  23.585  23.491   6.229
 2957POPC   D2A39808  23.409  23.535   6.651
 2957POPC   C3A39809  23.624  23.355   7.002
 2957POPC   C4A39810  23.750  23.208   7.419
 2957POPC   C1B39811  23.626  24.115   6.231
 2957POPC   C2B39812  23.423  24.105   6.655
 2957POPC   C3B39813  23.565  23.924   7.072
 2957POPC   C4B39814  23.475  23.640   7.417
 2958POPC   NC339815   6.921  21.197   5.323
 2958POPC   PO439816   7.515  21.576   5.356
 2958POPC   GL139817   7.317  21.281   5.642
 2958POPC   GL239818   7.159  21.540   5.793
 2958POPC   C1A39819   7.216  21.119   6.084
 2958POPC   D2A39820   7.503  21.095   6.437
 2958POPC   C3A39821   7.446  21.200   6.870
 2958POPC   C4A39822   7.318  21.263   7.301
 2958POPC   C1B39823   7.550  21.522   6.080
 2958POPC   C2B39824   7.783  21.534   6.499
 2958POPC   C3B39825   7.838  21.615   6.941
 2958POPC   C4B39826   7.639  21.711   7.327
 2959POPC   NC339827  36.322  23.849   5.527
 2959POPC   PO439828  35.738  24.254   5.551
 2959POPC   GL139829  35.915  23.956   5.826
 2959POPC   GL239830  35.906  23.570   5.784
 2959POPC   C1A39831  35.997  23.838   6.239
 2959POPC   D2A39832  35.923  23.573   6.571
 2959POPC   C3A39833  35.929  23.767   6.934
 2959POPC   C4A39834  36.230  23.876   7.179
 2959POPC   C1B39835  36.138  23.353   6.136
 2959POPC   C2B39836  36.423  23.351   6.475
 2959POPC   C3B39837  36.341  23.440   6.895
 2959POPC   C4B39838  36.026  23.313   7.170
 2960POPC   NC339839  26.568   9.599   5.507
 2960POPC   PO439840  27.168   9.793   5.498
 2960POPC   GL139841  26.989   9.516   5.846
 2960POPC   GL239842  26.774   9.761   5.945
 2960POPC   C1A39843  26.887   9.457   6.328
 2960POPC   D2A39844  26.709   9.577   6.727
 2960POPC   C3A39845  26.906   9.573   7.119
 2960POPC   C4A39846  27.196   9.546   7.454
 2960POPC   C1B39847  26.740   9.947   6.344
 2960POPC   C2B39848  26.727  10.098   6.770
 2960POPC   C3B39849  26.628   9.999   7.211
 2960POPC   C4B39850  26.444  10.105   7.627
 2961POPC   NC339851  27.601  41.271   5.459
 2961POPC   PO439852  27.259  41.816   5.562
 2961POPC   GL139853  27.556  41.643   5.814
 2961POPC   GL239854  27.345  41.374   5.903
 2961POPC   C1A39855  27.625  41.747   6.236
 2961POPC   D2A39856  27.470  41.632   6.643
 2961POPC   C3A39857  27.705  41.547   7.012
 2961POPC   C4A39858  27.896  41.573   7.447
 2961POPC   C1B39859  27.158  41.369   6.310
 2961POPC   C2B39860  27.335  41.151   6.687
 2961POPC   C3B39861  27.151  41.320   7.043
 2961POPC   C4B39862  27.392  41.429   7.390
 2962POPC   NC339863  24.631  21.475   5.559
 2962POPC   PO439864  24.085  21.203   5.589
 2962POPC   GL139865  24.242  21.420   5.918
 2962POPC   GL239866  24.419  21.733   5.958
 2962POPC   C1A39867  24.366  21.389   6.339
 2962POPC   D2A39868  24.202  21.162   6.655
 2962POPC   C3A39869  24.373  21.160   7.035
 2962POPC   C4A39870  24.666  21.044   7.352
 2962POPC   C1B39871  24.039  21.788   6.242
 2962POPC   C2B39872  24.106  21.691   6.692
 2962POPC   C3B39873  24.450  21.663   6.972
 2962POPC   C4B39874  24.454  21.527   7.381
 2963POPC   NC339875  39.540  19.657   5.508
 2963POPC   PO439876  38.871  19.887   5.389
 2963POPC   GL139877  39.087  19.809   5.779
 2963POPC   GL239878  39.354  20.046   5.811
 2963POPC   C1A39879  38.979  19.668   6.222
 2963POPC   D2A39880  39.233  19.593   6.609
 2963POPC   C3A39881  39.056  19.821   6.946
 2963POPC   C4A39882  39.160  19.999   7.323
 2963POPC   C1B39883  39.467  19.761   6.155
 2963POPC   C2B39884  39.706  19.818   6.520
 2963POPC   C3B39885  39.551  19.973   6.890
 2963POPC   C4B39886  39.530  19.675   7.206
 2964POPC   NC339887  40.960  44.484   5.515
 2964POPC   PO439888  40.355  44.420   5.383
 2964POPC   GL139889  40.532  44.564   5.811
 2964POPC   GL239890  40.429  44.865   5.970
 2964POPC   C1A39891  40.855  44.694   6.169
 2964POPC   D2A39892  40.865  44.839   6.598
 2964POPC   C3A39893  40.999  44.589   6.948
 2964POPC   C4A39894  40.618  44.488   7.152
 2964POPC   C1B39895  40.465   0.076   6.343
 2964POPC   C2B39896  40.412   0.061   6.791
 2964POPC   C3B39897  40.704  44.978   7.100
 2964POPC   C4B39898  41.137   0.030   7.249
 2965POPC   NC339899  29.706   8.681   5.365
 2965POPC   PO439900  30.262   9.091   5.455
 2965POPC   GL139901  30.089   9.077   5.834
 2965POPC   GL239902  29.802   8.886   5.820
 2965POPC   C1A39903  30.085   8.961   6.247
 2965POPC   D2A39904  29.917   8.750   6.591
 2965POPC   C3A39905  30.050   8.950   6.945
 2965POPC   C4A39906  30.158   9.133   7.310
 2965POPC   C1B39907  29.587   9.120   6.128
 2965POPC   C2B39908  29.411   9.193   6.510
 2965POPC   C3B39909  29.575   9.094   6.892
 2965POPC   C4B39910  29.691   8.946   7.296
 2966POPC   NC339911   7.590  40.251   5.442
 2966POPC   PO439912   7.174  39.744   5.345
 2966POPC   GL139913   7.239  39.948   5.733
 2966POPC   GL239914   7.573  39.794   5.719
 2966POPC   C1A39915   7.241  40.257   6.088
 2966POPC   D2A39916   7.428  40.291   6.499
 2966POPC   C3A39917   7.227  40.396   6.870
 2966POPC   C4A39918   7.450  40.340   7.228
 2966POPC   C1B39919   7.633  39.907   6.126
 2966POPC   C2B39920   7.420  39.791   6.497
 2966POPC   C3B39921   7.566  39.940   6.887
 2966POPC   C4B39922   7.378  39.840   7.249
 2967POPC   NC339923  25.318   3.417   5.458
 2967POPC   PO439924  25.382   4.070   5.384
 2967POPC   GL139925  25.249   3.839   5.761
 2967POPC   GL239926  25.517   3.605   5.882
 2967POPC   C1A39927  25.113   3.724   6.197
 2967POPC   D2A39928  25.361   3.590   6.574
 2967POPC   C3A39929  25.085   3.515   6.909
 2967POPC   C4A39930  24.869   3.451   7.263
 2967POPC   C1B39931  25.591   3.260   6.182
 2967POPC   C2B39932  25.780   3.237   6.608
 2967POPC   C3B39933  25.559   3.283   6.995
 2967POPC   C4B39934  25.508   3.685   7.184
 2968POPC   NC339935  43.449  29.498   5.577
 2968POPC   PO439936  44.020  29.221   5.342
 2968POPC   GL139937  43.825  29.130   5.728
 2968POPC   GL239938  44.049  28.833   5.709
 2968POPC   C1A39939  43.768  29.216   6.185
 2968POPC   D2A39940  43.578  29.371   6.595
 2968POPC   C3A39941  43.785  29.246   6.964
 2968POPC   C4A39942  43.784  28.998   7.379
 2968POPC   C1B39943  44.255  29.106   6.020
 2968POPC   C2B39944  44.372  29.037   6.414
 2968POPC   C3B39945  44.161  28.967   6.757
 2968POPC   C4B39946  44.220  29.023   7.162
 2969POPC   NC339947  12.281  40.877   5.472
 2969POPC   PO439948  11.707  40.540   5.248
 2969POPC   GL139949  12.010  40.398   5.690
 2969POPC   GL239950  12.321  40.514   5.837
 2969POPC   C1A39951  11.929  40.480   6.196
 2969POPC   D2A39952  11.986  40.892   6.434
 2969POPC   C3A39953  11.984  40.932   6.887
 2969POPC   C4A39954  11.963  40.652   7.219
 2969POPC   C1B39955  12.474  40.717   6.215
 2969POPC   C2B39956  12.460  40.901   6.644
 2969POPC   C3B39957  12.422  40.730   7.065
 2969POPC   C4B39958  12.355  40.862   7.499
 2970POPC   NC339959  37.824  17.286   5.364
 2970POPC   PO439960  37.395  17.768   5.473
 2970POPC   GL139961  37.697  17.607   5.734
 2970POPC   GL239962  37.442  17.413   5.865
 2970POPC   C1A39963  37.829  17.729   6.131
 2970POPC   D2A39964  37.720  17.711   6.561
 2970POPC   C3A39965  37.633  17.334   6.812
 2970POPC   C4A39966  37.661  17.382   7.252
 2970POPC   C1B39967  37.310  17.663   6.222
 2970POPC   C2B39968  37.219  17.573   6.652
 2970POPC   C3B39969  37.160  17.683   7.070
 2970POPC   C4B39970  37.238  17.553   7.484
 2971POPC   NC339971  11.939  27.751   5.346
 2971POPC   PO439972  12.409  27.292   5.273
 2971POPC   GL139973  12.287  27.582   5.671
 2971POPC   GL239974  12.217  27.988   5.729
 2971POPC   C1A39975  12.238  27.634   6.142
 2971POPC   D2A39976  12.137  27.455   6.575
 2971POPC   C3A39977  12.204  27.596   7.017
 2971POPC   C4A39978  11.806  27.572   7.266
 2971POPC   C1B39979  11.892  28.015   6.061
 2971POPC   C2B39980  11.664  28.008   6.464
 2971POPC   C3B39981  11.822  27.906   6.861
 2971POPC   C4B39982  12.154  28.128   7.077
 2972POPC   NC339983  35.872  38.897   5.676
 2972POPC   PO439984  36.294  39.253   5.277
 2972POPC   GL139985  36.235  39.284   5.732
 2972POPC   GL239986  36.448  39.016   5.866
 2972POPC   C1A39987  36.079  39.408   6.170
 2972POPC   D2A39988  36.257  39.646   6.548
 2972POPC   C3A39989  36.215  39.501   6.975
 2972POPC   C4A39990  35.886  39.230   7.134
 2972POPC   C1B39991  36.307  38.961   6.296
 2972POPC   C2B39992  36.180  39.041   6.722
 2972POPC   C3B39993  36.405  39.043   7.095
 2972POPC   C4B39994  36.653  38.859   7.406
 2973POPC   NC339995  34.975  23.122   5.646
 2973POPC   PO439996  34.391  23.064   5.322
 2973POPC   GL139997  34.474  22.986   5.808
 2973POPC   GL239998  34.742  23.136   6.082
 2973POPC   C1A39999  34.356  22.844   6.253
 2973POPC   D2A40000  34.545  22.985   6.690
 2973POPC   C3A40001  34.330  23.140   7.098
 2973POPC   C4A40002  34.279  23.105   7.564
 2973POPC   C1B40003  34.839  22.715   6.256
 2973POPC   C2B40004  34.668  22.477   6.590
 2973POPC   C3B40005  34.897  22.645   6.897
 2973POPC   C4B40006  34.793  22.932   7.214
 2974POPC   NC340007   7.625  27.453   5.524
 2974POPC   PO440008   7.099  27.809   5.628
 2974POPC   GL140009   7.312  27.571   5.919
 2974POPC   GL240010   7.318  27.200   5.869
 2974POPC   C1A40011   7.484  27.778   6.266
 2974POPC   D2A40012   7.245  27.718   6.601
 2974POPC   C3A40013   7.445  27.808   6.951
 2974POPC   C4A40014   7.350  27.817   7.355
 2974POPC   C1B40015   7.621  27.296   6.232
 2974POPC   C2B40016   7.556  27.315   6.676
 2974POPC   C3B40017   7.447  27.298   7.105
 2974POPC   C4B40018   7.674  27.431   7.445
 2975POPC   NC340019  11.385  37.052   5.183
 2975POPC   PO440020  11.406  37.709   5.346
 2975POPC   GL140021  11.456  37.729   5.778
 2975POPC   GL240022  11.114  37.660   5.832
 2975POPC   C1A40023  11.462  37.504   6.177
 2975POPC   D2A40024  11.151  37.459   6.514
 2975POPC   C3A40025  11.393  37.602   6.874
 2975POPC   C4A40026  11.338  37.537   7.327
 2975POPC   C1B40027  11.118  37.908   6.228
 2975POPC   C2B40028  11.031  37.941   6.702
 2975POPC   C3B40029  10.920  37.689   7.105
 2975POPC   C4B40030  10.947  37.745   7.580
 2976POPC   NC340031  29.298  11.806   5.287
 2976POPC   PO440032  29.119  11.207   5.451
 2976POPC   GL140033  29.124  11.548   5.760
 2976POPC   GL240034  29.486  11.580   5.731
 2976POPC   C1A40035  29.003  11.472   6.223
 2976POPC   D2A40036  29.061  11.095   6.534
 2976POPC   C3A40037  28.962  11.132   6.977
 2976POPC   C4A40038  29.236  10.978   7.262
 2976POPC   C1B40039  29.507  11.419   6.161
 2976POPC   C2B40040  29.403  11.549   6.580
 2976POPC   C3B40041  29.405  11.439   7.010
 2976POPC   C4B40042  29.725  11.490   7.305
 2977POPC   NC340043  23.931  34.714   5.328
 2977POPC   PO440044  23.380  34.610   5.234
 2977POPC   GL140045  23.517  34.574   5.678
 2977POPC   GL240046  23.750  34.823   5.825
 2977POPC   C1A40047  23.461  34.546   6.152
 2977POPC   D2A40048  23.437  34.699   6.607
 2977POPC   C3A40049  23.440  34.372   6.934
 2977POPC   C4A40050  23.493  34.382   7.393
 2977POPC   C1B40051  23.876  34.824   6.298
 2977POPC   C2B40052  23.918  34.567   6.702
 2977POPC   C3B40053  23.789  34.682   7.118
 2977POPC   C4B40054  23.899  35.065   7.329
 2978POPC   NC340055  31.236  27.516   5.469
 2978POPC   PO440056  31.678  27.994   5.320
 2978POPC   GL140057  31.434  27.919   5.743
 2978POPC   GL240058  31.418  27.542   5.934
 2978POPC   C1A40059  31.535  27.942   6.196
 2978POPC   D2A40060  31.531  27.628   6.548
 2978POPC   C3A40061  31.537  27.804   6.994
 2978POPC   C4A40062  31.706  27.968   7.375
 2978POPC   C1B40063  31.557  27.190   6.232
 2978POPC   C2B40064  31.498  26.988   6.616
 2978POPC   C3B40065  31.507  27.304   6.942
 2978POPC   C4B40066  31.193  27.501   7.220
 2979POPC   NC340067  34.497  31.306   5.271
 2979POPC   PO440068  34.605  30.571   5.318
 2979POPC   GL140069  34.590  30.471   5.759
 2979POPC   GL240070  34.774  30.780   5.806
 2979POPC   C1A40071  34.476  30.537   6.206
 2979POPC   D2A40072  34.451  30.841   6.560
 2979POPC   C3A40073  34.295  30.712   6.939
 2979POPC   C4A40074  34.516  30.540   7.270
 2979POPC   C1B40075  34.859  30.908   6.248
 2979POPC   C2B40076  34.945  30.987   6.698
 2979POPC   C3B40077  34.727  30.954   7.068
 2979POPC   C4B40078  34.418  31.069   7.338
 2980POPC   NC340079  21.157  10.508   5.493
 2980POPC   PO440080  20.461  10.636   5.486
 2980POPC   GL140081  20.703  10.578   5.860
 2980POPC   GL240082  20.799  10.266   5.785
 2980POPC   C1A40083  20.664  10.491   6.311
 2980POPC   D2A40084  20.473  10.720   6.653
 2980POPC   C3A40085  20.490  10.621   7.082
 2980POPC   C4A40086  20.324  10.254   7.213
 2980POPC   C1B40087  20.947  10.095   6.148
 2980POPC   C2B40088  21.009  10.103   6.606
 2980POPC   C3B40089  20.848  10.257   6.998
 2980POPC   C4B40090  20.794  10.295   7.437
 2981POPC   NC340091  18.158  41.173   5.483
 2981POPC   PO440092  18.034  40.558   5.285
 2981POPC   GL140093  18.141  40.655   5.772
 2981POPC   GL240094  18.297  40.968   5.922
 2981POPC   C1A40095  18.126  40.663   6.290
 2981POPC   D2A40096  18.236  40.893   6.695
 2981POPC   C3A40097  18.303  40.610   7.071
 2981POPC   C4A40098  17.988  40.338   7.262
 2981POPC   C1B40099  18.542  40.995   6.283
 2981POPC   C2B40100  18.682  41.159   6.686
 2981POPC   C3B40101  18.487  41.094   7.097
 2981POPC   C4B40102  18.367  41.047   7.503
 2982POPC   NC340103   6.798   3.857   5.205
 2982POPC   PO440104   6.325   3.845   5.584
 2982POPC   GL140105   6.487   3.571   5.884
 2982POPC   GL240106   6.789   3.370   5.875
 2982POPC   C1A40107   6.611   3.668   6.310
 2982POPC   D2A40108   6.533   3.509   6.727
 2982POPC   C3A40109   6.458   3.734   7.113
 2982POPC   C4A40110   6.378   3.472   7.469
 2982POPC   C1B40111   7.113   3.521   6.170
 2982POPC   C2B40112   7.057   3.574   6.578
 2982POPC   C3B40113   6.943   3.775   6.948
 2982POPC   C4B40114   6.897   3.389   7.112
 2983POPC   NC340115  13.142   0.145   5.552
 2983POPC   PO440116  13.048  44.543   5.327
 2983POPC   GL140117  12.801  44.706   5.672
 2983POPC   GL240118  12.609  44.408   5.733
 2983POPC   C1A40119  12.822  44.882   6.109
 2983POPC   D2A40120  12.840  44.674   6.526
 2983POPC   C3A40121  13.007  44.757   6.944
 2983POPC   C4A40122  12.772  44.817   7.327
 2983POPC   C1B40123  12.884  44.332   6.079
 2983POPC   C2B40124  12.753  44.189   6.478
 2983POPC   C3B40125  12.863  44.267   6.878
 2983POPC   C4B40126  12.791  44.295   7.296
 2984POPC   NC340127  11.219  22.381   5.312
 2984POPC   PO440128  11.655  21.839   5.432
 2984POPC   GL140129  11.506  21.994   5.811
 2984POPC   GL240130  11.158  22.117   5.786
 2984POPC   C1A40131  11.340  21.883   6.218
 2984POPC   D2A40132  11.346  22.104   6.582
 2984POPC   C3A40133  11.434  21.865   6.933
 2984POPC   C4A40134  11.421  22.092   7.283
 2984POPC   C1B40135  11.127  22.372   6.169
 2984POPC   C2B40136  10.937  22.518   6.561
 2984POPC   C3B40137  11.037  22.300   6.942
 2984POPC   C4B40138  10.847  22.222   7.316
 2985POPC   NC340139   8.884  22.411   5.458
 2985POPC   PO440140   9.152  21.781   5.399
 2985POPC   GL140141   9.215  22.079   5.737
 2985POPC   GL240142   9.435  21.841   5.872
 2985POPC   C1A40143   9.114  22.383   6.104
 2985POPC   D2A40144   9.232  22.364   6.565
 2985POPC   C3A40145   8.853  22.335   6.821
 2985POPC   C4A40146   8.727  22.348   7.237
 2985POPC   C1B40147   9.099  21.866   6.183
 2985POPC   C2B40148   8.866  21.883   6.562
 2985POPC   C3B40149   8.999  21.866   6.983
 2985POPC   C4B40150   8.741  21.713   7.291
 2986POPC   NC340151  22.247  37.446   5.343
 2986POPC   PO440152  21.933  38.001   5.568
 2986POPC   GL140153  22.313  37.895   5.812
 2986POPC   GL240154  22.465  37.552   5.796
 2986POPC   C1A40155  22.276  37.747   6.250
 2986POPC   D2A40156  22.023  37.608   6.569
 2986POPC   C3A40157  22.075  37.787   6.976
 2986POPC   C4A40158  21.979  37.540   7.353
 2986POPC   C1B40159  22.656  37.431   6.195
 2986POPC   C2B40160  22.526  37.500   6.673
 2986POPC   C3B40161  22.537  37.604   7.126
 2986POPC   C4B40162  22.368  37.795   7.529
 2987POPC   NC340163  18.783  44.894   5.700
 2987POPC   PO440164  19.033  44.480   5.211
 2987POPC   GL140165  19.118  44.486   5.697
 2987POPC   GL240166  19.380  44.698   5.850
 2987POPC   C1A40167  19.045  44.432   6.178
 2987POPC   D2A40168  18.983  44.293   6.627
 2987POPC   C3A40169  19.272  44.498   6.911
 2987POPC   C4A40170  19.266  44.882   7.113
 2987POPC   C1B40171  19.192  44.927   6.207
 2987POPC   C2B40172  19.089  44.888   6.616
 2987POPC   C3B40173  18.808  44.705   6.897
 2987POPC   C4B40174  18.737   0.003   7.168
 2988POPC   NC340175  40.848  10.530   5.323
 2988POPC   PO440176  40.362  10.919   5.556
 2988POPC   GL140177  40.622  10.645   5.858
 2988POPC   GL240178  40.864  10.395   5.810
 2988POPC   C1A40179  40.587  10.631   6.307
 2988POPC   D2A40180  40.831  10.515   6.658
 2988POPC   C3A40181  40.671  10.567   7.078
 2988POPC   C4A40182  40.585  10.431   7.484
 2988POPC   C1B40183  40.959  10.206   6.209
 2988POPC   C2B40184  41.261  10.246   6.567
 2988POPC   C3B40185  41.177  10.339   7.020
 2988POPC   C4B40186  40.963  10.116   7.372
 2989POPC   NC340187  24.146  28.972   5.506
 2989POPC   PO440188  24.793  29.217   5.465
 2989POPC   GL140189  24.562  29.175   5.827
 2989POPC   GL240190  24.265  29.073   5.966
 2989POPC   C1A40191  24.750  29.063   6.221
 2989POPC   D2A40192  24.689  29.240   6.615
 2989POPC   C3A40193  24.763  29.099   7.012
 2989POPC   C4A40194  24.692  29.010   7.404
 2989POPC   C1B40195  24.254  28.982   6.368
 2989POPC   C2B40196  24.381  28.851   6.752
 2989POPC   C3B40197  24.242  29.076   7.093
 2989POPC   C4B40198  24.179  29.120   7.512
 2990POPC   NC340199  34.806   8.379   5.201
 2990POPC   PO440200  34.251   8.611   5.317
 2990POPC   GL140201  34.457   8.446   5.717
 2990POPC   GL240202  34.749   8.202   5.685
 2990POPC   C1A40203  34.267   8.423   6.161
 2990POPC   D2A40204  34.045   8.433   6.564
 2990POPC   C3A40205  34.230   8.243   6.968
 2990POPC   C4A40206  34.403   8.155   7.394
 2990POPC   C1B40207  34.695   8.138   6.156
 2990POPC   C2B40208  34.611   8.172   6.628
 2990POPC   C3B40209  34.777   8.053   7.070
 2990POPC   C4B40210  34.903   8.169   7.520
 2991POPC   NC340211   3.846  13.532   5.210
 2991POPC   PO440212   4.472  13.666   5.258
 2991POPC   GL140213   4.464  13.691   5.712
 2991POPC   GL240214   4.470  13.321   5.761
 2991POPC   C1A40215   4.359  13.933   6.127
 2991POPC   D2A40216   4.122  13.873   6.495
 2991POPC   C3A40217   4.330  13.868   6.877
 2991POPC   C4A40218   4.153  13.883   7.256
 2991POPC   C1B40219   4.301  13.410   6.189
 2991POPC   C2B40220   4.203  13.371   6.663
 2991POPC   C3B40221   4.308  13.400   7.106
 2991POPC   C4B40222   4.067  13.420   7.440
 2992POPC   NC340223   4.624   1.594   5.319
 2992POPC   PO440224   4.805   0.985   5.392
 2992POPC   GL140225   4.990   1.065   5.770
 2992POPC   GL240226   4.846   0.849   5.996
 2992POPC   C1A40227   5.100   1.303   6.129
 2992POPC   D2A40228   5.225   1.386   6.518
 2992POPC   C3A40229   4.952   1.438   6.851
 2992POPC   C4A40230   5.097   1.543   7.255
 2992POPC   C1B40231   5.337   0.854   6.109
 2992POPC   C2B40232   5.500   0.904   6.543
 2992POPC   C3B40233   5.344   1.095   6.939
 2992POPC   C4B40234   4.965   1.017   7.131
 2993POPC   NC340235  22.865  44.566   5.407
 2993POPC   PO440236  23.214   0.164   5.569
 2993POPC   GL140237  23.015  44.872   5.800
 2993POPC   GL240238  23.257  44.713   5.840
 2993POPC   C1A40239  22.830  44.613   6.113
 2993POPC   D2A40240  23.006  44.410   6.415
 2993POPC   C3A40241  22.830  44.425   6.805
 2993POPC   C4A40242  22.850  44.450   7.231
 2993POPC   C1B40243  23.180  44.952   6.263
 2993POPC   C2B40244  22.910  44.903   6.607
 2993POPC   C3B40245  22.750  44.919   7.022
 2993POPC   C4B40246  23.011  44.929   7.358
 2994POPC   NC340247   5.285  23.178   5.294
 2994POPC   PO440248   4.685  22.815   5.375
 2994POPC   GL140249   4.940  22.770   5.737
 2994POPC   GL240250   5.152  23.079   5.787
 2994POPC   C1A40251   5.004  22.760   6.189
 2994POPC   D2A40252   5.116  22.643   6.599
 2994POPC   C3A40253   4.968  22.905   6.942
 2994POPC   C4A40254   5.168  22.778   7.318
 2994POPC   C1B40255   5.389  23.136   6.188
 2994POPC   C2B40256   5.354  23.126   6.652
 2994POPC   C3B40257   5.383  23.184   7.106
 2994POPC   C4B40258   5.241  23.246   7.517
 2995POPC   NC340259  28.771  41.962   5.370
 2995POPC   PO440260  29.207  42.405   5.437
 2995POPC   GL140261  29.103  42.260   5.842
 2995POPC   GL240262  28.812  42.028   5.875
 2995POPC   C1A40263  29.274  42.367   6.243
 2995POPC   D2A40264  29.205  42.725   6.516
 2995POPC   C3A40265  29.212  42.594   6.936
 2995POPC   C4A40266  29.097  42.813   7.294
 2995POPC   C1B40267  29.002  41.928   6.257
 2995POPC   C2B40268  29.113  42.025   6.669
 2995POPC   C3B40269  29.016  42.091   7.087
 2995POPC   C4B40270  28.955  42.348   7.418
 2996POPC   NC340271   9.133  18.690   5.524
 2996POPC   PO440272   8.867  19.344   5.435
 2996POPC   GL140273   8.806  19.214   5.823
 2996POPC   GL240274   8.548  19.461   5.850
 2996POPC   C1A40275   8.962  18.988   6.189
 2996POPC   D2A40276   8.782  19.008   6.621
 2996POPC   C3A40277   8.987  18.974   7.002
 2996POPC   C4A40278   9.187  19.267   7.185
 2996POPC   C1B40279   8.494  19.249   6.250
 2996POPC   C2B40280   8.350  19.297   6.697
 2996POPC   C3B40281   8.500  19.113   7.093
 2996POPC   C4B40282   8.621  18.686   7.234
 2997POPC   NC340283  35.651  19.370   5.638
 2997POPC   PO440284  35.983  18.873   5.266
 2997POPC   GL140285  36.060  19.021   5.719
 2997POPC   GL240286  36.133  19.340   5.900
 2997POPC   C1A40287  36.039  18.952   6.196
 2997POPC   D2A40288  36.210  19.177   6.565
 2997POPC   C3A40289  36.135  18.920   6.931
 2997POPC   C4A40290  36.112  19.067   7.346
 2997POPC   C1B40291  35.848  19.453   6.245
 2997POPC   C2B40292  35.769  19.566   6.631
 2997POPC   C3B40293  35.930  19.385   6.979
 2997POPC   C4B40294  36.380  19.380   7.032
 2998POPC   NC340295  36.594   4.369   5.521
 2998POPC   PO440296  35.932   4.040   5.415
 2998POPC   GL140297  36.060   4.246   5.779
 2998POPC   GL240298  35.838   4.498   5.880
 2998POPC   C1A40299  36.163   4.190   6.216
 2998POPC   D2A40300  36.188   3.983   6.612
 2998POPC   C3A40301  35.880   3.916   6.954
 2998POPC   C4A40302  36.100   4.220   7.166
 2998POPC   C1B40303  35.913   4.620   6.293
 2998POPC   C2B40304  36.153   4.511   6.658
 2998POPC   C3B40305  36.176   4.705   7.036
 2998POPC   C4B40306  36.558   4.736   7.246
 2999POPC   NC340307  43.845  23.788   5.544
 2999POPC   PO440308  43.704  23.290   5.201
 2999POPC   GL140309  44.018  23.469   5.861
 2999POPC   GL240310  44.080  23.852   5.993
 2999POPC   C1A40311  43.671  23.727   6.211
 2999POPC   D2A40312  43.828  23.939   6.566
 2999POPC   C3A40313  43.570  23.858   6.902
 2999POPC   C4A40314  43.527  23.633   7.271
 2999POPC   C1B40315  44.165  23.582   6.341
 2999POPC   C2B40316  44.396  23.578   6.715
 2999POPC   C3B40317  44.159  23.773   7.013
 2999POPC   C4B40318  43.920  23.946   7.334
 3000POPC   NC340319   1.520  18.974   5.413
 3000POPC   PO440320   0.988  19.439   5.473
 3000POPC   GL140321   1.202  19.135   5.796
 3000POPC   GL240322   1.179  18.756   5.765
 3000POPC   C1A40323   1.491  19.004   6.149
 3000POPC   D2A40324   1.527  18.927   6.604
 3000POPC   C3A40325   1.410  19.293   6.862
 3000POPC   C4A40326   1.086  19.391   7.140
 3000POPC   C1B40327   1.112  18.614   6.198
 3000POPC   C2B40328   1.021  18.785   6.610
 3000POPC   C3B40329   1.027  18.845   7.045
 3000POPC   C4B40330   0.667  18.694   7.257
 3001POPC   NC340331  29.281  26.638   5.301
 3001POPC   PO440332  29.680  26.369   5.751
 3001POPC   GL140333  29.279  26.544   5.820
 3001POPC   GL240334  29.154  26.895   5.746
 3001POPC   C1A40335  29.271  26.715   6.224
 3001POPC   D2A40336  29.145  26.930   6.539
 3001POPC   C3A40337  29.246  26.709   6.866
 3001POPC   C4A40338  29.199  26.851   7.279
 3001POPC   C1B40339  28.819  26.858   6.079
 3001POPC   C2B40340  28.637  26.886   6.490
 3001POPC   C3B40341  28.784  26.919   6.939
 3001POPC   C4B40342  28.701  26.864   7.384
 3002POPC   NC340343  13.604  28.347   4.894
 3002POPC   PO440344  13.956  28.103   5.400
 3002POPC   GL140345  13.813  28.260   5.812
 3002POPC   GL240346  13.471  28.325   5.787
 3002POPC   C1A40347  13.592  28.187   6.256
 3002POPC   D2A40348  13.412  28.107   6.647
 3002POPC   C3A40349  13.582  28.314   7.002
 3002POPC   C4A40350  13.644  28.237   7.432
 3002POPC   C1B40351  13.638  28.665   6.099
 3002POPC   C2B40352  13.716  28.699   6.567
 3002POPC   C3B40353  13.412  28.789   6.916
 3002POPC   C4B40354  13.212  28.610   7.289
 3003POPC   NC340355  33.066   8.908   5.382
 3003POPC   PO440356  32.574   9.393   5.513
 3003POPC   GL140357  32.848   9.083   5.794
 3003POPC   GL240358  33.204   9.107   5.809
 3003POPC   C1A40359  32.842   8.793   6.157
 3003POPC   D2A40360  32.679   8.774   6.562
 3003POPC   C3A40361  32.849   8.928   6.950
 3003POPC   C4A40362  32.800   9.184   7.304
 3003POPC   C1B40363  33.329   8.898   6.166
 3003POPC   C2B40364  33.184   8.889   6.565
 3003POPC   C3B40365  33.345   8.796   6.956
 3003POPC   C4B40366  33.714   8.751   7.208
 3004POPC   NC340367  28.014  41.863   5.484
 3004POPC   PO440368  28.040  41.192   5.530
 3004POPC   GL140369  28.230  41.420   5.830
 3004POPC   GL240370  28.479  41.627   5.696
 3004POPC   C1A40371  28.114  41.597   6.207
 3004POPC   D2A40372  28.028  41.684   6.612
 3004POPC   C3A40373  28.209  41.463   6.976
 3004POPC   C4A40374  28.555  41.440   7.236
 3004POPC   C1B40375  28.610  41.629   6.129
 3004POPC   C2B40376  28.526  41.884   6.482
 3004POPC   C3B40377  28.572  41.870   6.934
 3004POPC   C4B40378  28.644  41.922   7.398
 3005POPC   NC340379  37.860  43.757   5.116
 3005POPC   PO440380  38.100  44.337   5.469
 3005POPC   GL140381  37.932  44.198   5.910
 3005POPC   GL240382  37.620  44.023   5.949
 3005POPC   C1A40383  37.980  43.880   6.291
 3005POPC   D2A40384  37.890  43.836   6.766
 3005POPC   C3A40385  37.609  44.010   7.050
 3005POPC   C4A40386  37.339  44.046   7.393
 3005POPC   C1B40387  37.526  43.635   6.154
 3005POPC   C2B40388  37.672  43.397   6.524
 3005POPC   C3B40389  37.534  43.489   6.943
 3005POPC   C4B40390  37.323  43.309   7.276
 3006POPC   NC340391  33.064  14.105   5.170
 3006POPC   PO440392  33.195  14.805   5.364
 3006POPC   GL140393  33.187  14.362   5.630
 3006POPC   GL240394  33.505  14.213   5.718
 3006POPC   C1A40395  33.101  14.152   6.090
 3006POPC   D2A40396  32.904  13.998   6.525
 3006POPC   C3A40397  32.811  14.316   6.886
 3006POPC   C4A40398  32.932  14.445   7.330
 3006POPC   C1B40399  33.604  14.162   6.166
 3006POPC   C2B40400  33.388  14.157   6.577
 3006POPC   C3B40401  33.424  14.352   6.989
 3006POPC   C4B40402  33.368  14.177   7.397
 3007POPC   NC340403  31.324   6.213   5.549
 3007POPC   PO440404  31.645   6.762   5.431
 3007POPC   GL140405  31.566   6.629   5.816
 3007POPC   GL240406  31.252   6.633   5.851
 3007POPC   C1A40407  31.531   6.519   6.259
 3007POPC   D2A40408  31.465   6.233   6.576
 3007POPC   C3A40409  31.390   6.444   6.949
 3007POPC   C4A40410  31.327   6.299   7.323
 3007POPC   C1B40411  31.244   6.951   6.171
 3007POPC   C2B40412  31.421   7.081   6.573
 3007POPC   C3B40413  31.285   6.963   6.972
 3007POPC   C4B40414  31.168   7.167   7.349
 3008POPC   NC340415   9.952  21.030   5.060
 3008POPC   PO440416   9.794  21.564   5.395
 3008POPC   GL140417   9.734  21.431   5.807
 3008POPC   GL240418   9.557  21.104   5.777
 3008POPC   C1A40419   9.844  21.634   6.227
 3008POPC   D2A40420   9.733  21.460   6.630
 3008POPC   C3A40421   9.783  21.674   7.031
 3008POPC   C4A40422  10.015  21.649   7.417
 3008POPC   C1B40423   9.704  21.032   6.181
 3008POPC   C2B40424   9.922  20.997   6.561
 3008POPC   C3B40425   9.816  21.076   6.986
 3008POPC   C4B40426   9.861  20.723   7.249
 3009POPC   NC340427  20.852  13.620   5.425
 3009POPC   PO440428  20.310  13.938   5.629
 3009POPC   GL140429  20.631  13.807   5.884
 3009POPC   GL240430  20.658  13.461   5.869
 3009POPC   C1A40431  20.674  13.686   6.319
 3009POPC   D2A40432  20.528  13.519   6.689
 3009POPC   C3A40433  20.660  13.836   6.987
 3009POPC   C4A40434  20.779  13.750   7.410
 3009POPC   C1B40435  20.314  13.297   6.134
 3009POPC   C2B40436  20.130  13.074   6.508
 3009POPC   C3B40437  20.134  13.252   6.919
 3009POPC   C4B40438  20.466  13.404   7.212
 3010POPC   NC340439  36.711  38.955   5.415
 3010POPC   PO440440  36.949  39.577   5.394
 3010POPC   GL140441  36.731  39.500   5.779
 3010POPC   GL240442  36.933  39.213   5.840
 3010POPC   C1A40443  36.689  39.564   6.254
 3010POPC   D2A40444  36.628  39.335   6.675
 3010POPC   C3A40445  36.863  39.254   7.053
 3010POPC   C4A40446  36.805  39.336   7.514
 3010POPC   C1B40447  36.806  39.062   6.258
 3010POPC   C2B40448  36.668  38.834   6.658
 3010POPC   C3B40449  36.920  38.740   6.991
 3010POPC   C4B40450  37.309  38.862   7.187
 3011POPC   NC340451  40.452  42.470   5.487
 3011POPC   PO440452  39.827  42.159   5.286
 3011POPC   GL140453  39.886  42.393   5.669
 3011POPC   GL240454  40.187  42.274   5.859
 3011POPC   C1A40455  39.783  42.381   6.129
 3011POPC   D2A40456  39.824  42.281   6.567
 3011POPC   C3A40457  39.874  42.542   6.929
 3011POPC   C4A40458  39.855  42.288   7.285
 3011POPC   C1B40459  40.242  42.139   6.279
 3011POPC   C2B40460  40.332  42.293   6.699
 3011POPC   C3B40461  40.325  42.204   7.141
 3011POPC   C4B40462  40.352  42.080   7.594
 3012POPC   NC340463  16.961   3.176   5.610
 3012POPC   PO440464  16.503   2.746   5.310
 3012POPC   GL140465  16.677   2.722   5.706
 3012POPC   GL240466  16.507   2.986   5.845
 3012POPC   C1A40467  16.663   2.575   6.132
 3012POPC   D2A40468  16.835   2.534   6.545
 3012POPC   C3A40469  16.684   2.625   6.932
 3012POPC   C4A40470  16.867   2.790   7.300
 3012POPC   C1B40471  16.232   2.842   6.197
 3012POPC   C2B40472  16.310   2.817   6.638
 3012POPC   C3B40473  16.431   3.052   7.017
 3012POPC   C4B40474  16.293   2.902   7.421
 3013POPC   NC340475  15.923  12.865   5.321
 3013POPC   PO440476  15.466  12.564   5.639
 3013POPC   GL140477  15.893  12.618   5.819
 3013POPC   GL240478  15.981  12.998   5.826
 3013POPC   C1A40479  15.995  12.652   6.288
 3013POPC   D2A40480  15.707  12.883   6.617
 3013POPC   C3A40481  15.706  12.812   7.089
 3013POPC   C4A40482  15.508  12.866   7.500
 3013POPC   C1B40483  16.083  13.149   6.266
 3013POPC   C2B40484  16.177  13.028   6.694
 3013POPC   C3B40485  16.065  13.182   7.092
 3013POPC   C4B40486  15.987  13.054   7.497
 3014POPC   NC340487  22.873  26.455   5.479
 3014POPC   PO440488  23.333  26.907   5.565
 3014POPC   GL140489  22.947  26.867   5.795
 3014POPC   GL240490  22.614  26.946   5.682
 3014POPC   C1A40491  22.864  27.018   6.209
 3014POPC   D2A40492  23.185  27.160   6.505
 3014POPC   C3A40493  23.190  26.894   6.841
 3014POPC   C4A40494  23.023  26.976   7.238
 3014POPC   C1B40495  22.570  26.616   6.037
 3014POPC   C2B40496  22.560  26.681   6.474
 3014POPC   C3B40497  22.674  26.888   6.878
 3014POPC   C4B40498  22.746  26.543   7.200
 3015POPC   NC340499  12.604  34.834   5.395
 3015POPC   PO440500  12.463  35.459   5.435
 3015POPC   GL140501  12.840  35.316   5.706
 3015POPC   GL240502  12.832  34.988   5.805
 3015POPC   C1A40503  13.095  35.261   6.121
 3015POPC   D2A40504  12.924  35.526   6.423
 3015POPC   C3A40505  12.891  35.501   6.881
 3015POPC   C4A40506  13.109  35.231   7.159
 3015POPC   C1B40507  12.631  35.079   6.198
 3015POPC   C2B40508  12.836  35.052   6.606
 3015POPC   C3B40509  12.620  35.081   6.990
 3015POPC   C4B40510  12.629  34.884   7.363
 3016POPC   NC340511  12.380   3.669   5.377
 3016POPC   PO440512  11.764   3.308   5.449
 3016POPC   GL140513  11.765   3.563   5.821
 3016POPC   GL240514  12.118   3.559   5.819
 3016POPC   C1A40515  11.857   3.666   6.294
 3016POPC   D2A40516  12.213   3.822   6.623
 3016POPC   C3A40517  12.134   3.698   7.033
 3016POPC   C4A40518  11.870   3.366   7.081
 3016POPC   C1B40519  12.328   3.511   6.222
 3016POPC   C2B40520  12.247   3.316   6.637
 3016POPC   C3B40521  12.384   3.222   7.066
 3016POPC   C4B40522  12.544   3.082   7.487
 3017POPC   NC340523  40.990  27.471   5.393
 3017POPC   PO440524  40.334  27.427   5.337
 3017POPC   GL140525  40.597  27.558   5.731
 3017POPC   GL240526  40.822  27.864   5.706
 3017POPC   C1A40527  40.725  27.438   6.175
 3017POPC   D2A40528  40.866  27.578   6.601
 3017POPC   C3A40529  40.632  27.384   6.957
 3017POPC   C4A40530  40.727  27.196   7.378
 3017POPC   C1B40531  40.977  27.887   6.142
 3017POPC   C2B40532  41.151  28.031   6.547
 3017POPC   C3B40533  41.085  27.906   6.965
 3017POPC   C4B40534  40.824  27.706   7.328
 3018POPC   NC340535  43.185  30.206   5.378
 3018POPC   PO440536  42.995  29.578   5.603
 3018POPC   GL140537  43.018  29.670   5.963
 3018POPC   GL240538  43.362  29.824   5.961
 3018POPC   C1A40539  43.066  29.755   6.378
 3018POPC   D2A40540  43.396  29.843   6.600
 3018POPC   C3A40541  43.245  29.663   6.961
 3018POPC   C4A40542  42.989  29.792   7.319
 3018POPC   C1B40543  43.105  30.164   6.070
 3018POPC   C2B40544  43.106  30.287   6.489
 3018POPC   C3B40545  43.053  30.122   6.877
 3018POPC   C4B40546  42.909  30.293   7.242
 3019POPC   NC340547  36.850  42.087   5.439
 3019POPC   PO440548  37.291  42.560   5.516
 3019POPC   GL140549  36.980  42.390   5.804
 3019POPC   GL240550  36.629  42.476   5.713
 3019POPC   C1A40551  36.797  42.212   6.165
 3019POPC   D2A40552  36.948  42.199   6.561
 3019POPC   C3A40553  36.701  42.160   6.908
 3019POPC   C4A40554  36.868  42.369   7.248
 3019POPC   C1B40555  36.487  42.613   6.125
 3019POPC   C2B40556  36.448  42.436   6.552
 3019POPC   C3B40557  36.524  42.637   6.984
 3019POPC   C4B40558  36.540  42.678   7.458
 3020POPC   NC340559  15.830  38.099   5.269
 3020POPC   PO440560  16.242  38.579   5.466
 3020POPC   GL140561  16.042  38.505   5.880
 3020POPC   GL240562  15.690  38.441   5.871
 3020POPC   C1A40563  15.973  38.367   6.298
 3020POPC   D2A40564  15.695  38.199   6.592
 3020POPC   C3A40565  15.946  38.206   6.912
 3020POPC   C4A40566  15.912  38.265   7.343
 3020POPC   C1B40567  15.687  38.782   6.199
 3020POPC   C2B40568  15.864  38.781   6.633
 3020POPC   C3B40569  15.737  38.695   7.059
 3020POPC   C4B40570  15.634  38.841   7.472
 3021POPC   NC340571  32.913   6.865   5.308
 3021POPC   PO440572  32.998   7.558   5.332
 3021POPC   GL140573  32.950   7.308   5.688
 3021POPC   GL240574  33.283   7.217   5.817
 3021POPC   C1A40575  32.849   7.346   6.147
 3021POPC   D2A40576  32.985   7.269   6.600
 3021POPC   C3A40577  32.947   7.556   6.943
 3021POPC   C4A40578  32.719   7.586   7.323
 3021POPC   C1B40579  33.301   7.083   6.233
 3021POPC   C2B40580  33.506   7.127   6.638
 3021POPC   C3B40581  33.318   7.211   7.026
 3021POPC   C4B40582  33.195   7.408   7.388
 3022POPC   NC340583  41.068  13.719   5.551
 3022POPC   PO440584  40.450  13.414   5.402
 3022POPC   GL140585  40.611  13.682   5.816
 3022POPC   GL240586  40.948  13.785   6.032
 3022POPC   C1A40587  40.501  13.789   6.272
 3022POPC   D2A40588  40.673  13.619   6.660
 3022POPC   C3A40589  40.637  13.845   7.033
 3022POPC   C4A40590  41.026  13.993   7.206
 3022POPC   C1B40591  41.137  13.530   6.385
 3022POPC   C2B40592  41.282  13.306   6.730
 3022POPC   C3B40593  41.290  13.586   7.046
 3022POPC   C4B40594  41.165  13.552   7.455
 3023POPC   NC340595  26.162  27.763   5.312
 3023POPC   PO440596  25.614  27.465   5.545
 3023POPC   GL140597  25.882  27.728   5.839
 3023POPC   GL240598  26.178  27.910   5.794
 3023POPC   C1A40599  26.071  27.653   6.251
 3023POPC   D2A40600  25.978  27.343   6.579
 3023POPC   C3A40601  25.831  27.543   6.946
 3023POPC   C4A40602  26.037  27.569   7.333
 3023POPC   C1B40603  26.350  28.096   6.154
 3023POPC   C2B40604  26.413  27.904   6.560
 3023POPC   C3B40605  26.271  28.009   6.983
 3023POPC   C4B40606  26.446  27.905   7.372
 3024POPC   NC340607  32.276  10.138   5.339
 3024POPC   PO440608  32.051  10.715   5.518
 3024POPC   GL140609  32.316  10.458   5.776
 3024POPC   GL240610  32.372  10.758   5.964
 3024POPC   C1A40611  32.375  10.288   6.214
 3024POPC   D2A40612  32.594  10.326   6.651
 3024POPC   C3A40613  32.372  10.216   7.070
 3024POPC   C4A40614  32.121  10.292   7.479
 3024POPC   C1B40615  32.298  10.777   6.409
 3024POPC   C2B40616  31.983  10.736   6.724
 3024POPC   C3B40617  32.075  10.671   7.147
 3024POPC   C4B40618  32.457  10.653   7.396
 3025POPC   NC340619  29.791  18.947   5.440
 3025POPC   PO440620  29.281  18.677   5.538
 3025POPC   GL140621  29.549  18.959   5.887
 3025POPC   GL240622  29.880  19.186   5.880
 3025POPC   C1A40623  29.645  19.176   6.319
 3025POPC   D2A40624  29.740  18.958   6.699
 3025POPC   C3A40625  29.879  19.101   7.084
 3025POPC   C4A40626  30.198  19.142   7.411
 3025POPC   C1B40627  30.140  19.077   6.286
 3025POPC   C2B40628  30.290  19.036   6.741
 3025POPC   C3B40629  30.261  18.740   7.082
 3025POPC   C4B40630  30.174  18.315   7.229
 3026POPC   NC340631  11.726   8.492   5.494
 3026POPC   PO440632  11.255   7.995   5.370
 3026POPC   GL140633  11.338   8.160   5.757
 3026POPC   GL240634  11.052   8.400   5.829
 3026POPC   C1A40635  11.267   8.064   6.181
 3026POPC   D2A40636  11.217   7.836   6.545
 3026POPC   C3A40637  11.461   8.031   6.858
 3026POPC   C4A40638  11.358   8.248   7.240
 3026POPC   C1B40639  10.803   8.289   6.242
 3026POPC   C2B40640  10.942   8.241   6.696
 3026POPC   C3B40641  11.024   8.544   7.017
 3026POPC   C4B40642  11.379   8.760   7.257
 3027POPC   NC340643  31.237   9.741   5.500
 3027POPC   PO440644  31.607   9.232   5.620
 3027POPC   GL140645  31.742   9.583   5.897
 3027POPC   GL240646  31.576   9.916   5.870
 3027POPC   C1A40647  31.581   9.657   6.325
 3027POPC   D2A40648  31.728   9.804   6.725
 3027POPC   C3A40649  31.521   9.568   7.034
 3027POPC   C4A40650  31.130   9.554   7.249
 3027POPC   C1B40651  31.626  10.159   6.258
 3027POPC   C2B40652  31.477  10.256   6.647
 3027POPC   C3B40653  31.265  10.033   6.946
 3027POPC   C4B40654  31.452   9.996   7.329
 3028POPC   NC340655  42.044  18.292   5.560
 3028POPC   PO440656  42.537  17.859   5.485
 3028POPC   GL140657  42.531  18.103   5.880
 3028POPC   GL240658  42.358  18.474   5.893
 3028POPC   C1A40659  42.618  17.969   6.303
 3028POPC   D2A40660  42.350  18.037   6.672
 3028POPC   C3A40661  42.515  18.153   7.047
 3028POPC   C4A40662  42.638  18.052   7.470
 3028POPC   C1B40663  42.247  18.343   6.274
 3028POPC   C2B40664  42.216  18.540   6.654
 3028POPC   C3B40665  42.010  18.518   7.032
 3028POPC   C4B40666  42.253  18.414   7.402
 3029POPC   NC340667  28.760  25.469   5.432
 3029POPC   PO440668  28.081  25.106   5.537
 3029POPC   GL140669  28.175  25.355   5.845
 3029POPC   GL240670  28.497  25.450   5.851
 3029POPC   C1A40671  28.120  25.170   6.244
 3029POPC   D2A40672  28.077  25.336   6.611
 3029POPC   C3A40673  28.032  25.125   6.956
 3029POPC   C4A40674  28.270  25.240   7.285
 3029POPC   C1B40675  28.508  25.488   6.283
 3029POPC   C2B40676  28.596  25.197   6.592
 3029POPC   C3B40677  28.732  25.254   6.991
 3029POPC   C4B40678  28.760  25.520   7.341
 3030POPC   NC340679  12.293  42.765   5.537
 3030POPC   PO440680  11.954  43.248   5.262
 3030POPC   GL140681  11.900  43.293   5.745
 3030POPC   GL240682  12.012  42.971   5.906
 3030POPC   C1A40683  12.177  43.393   6.132
 3030POPC   D2A40684  12.211  43.043   6.396
 3030POPC   C3A40685  12.215  43.114   6.824
 3030POPC   C4A40686  12.385  42.878   7.144
 3030POPC   C1B40687  11.977  42.616   6.204
 3030POPC   C2B40688  11.847  42.476   6.594
 3030POPC   C3B40689  11.712  42.636   6.945
 3030POPC   C4B40690  11.895  42.958   7.215
 3031POPC   NC340691  16.936  29.230   5.450
 3031POPC   PO440692  16.483  28.684   5.353
 3031POPC   GL140693  16.655  28.854   5.746
 3031POPC   GL240694  16.599  29.199   5.817
 3031POPC   C1A40695  16.725  28.840   6.234
 3031POPC   D2A40696  16.706  29.099   6.628
 3031POPC   C3A40697  16.750  28.969   7.062
 3031POPC   C4A40698  16.423  28.701   7.199
 3031POPC   C1B40699  16.695  29.426   6.219
 3031POPC   C2B40700  16.736  29.593   6.659
 3031POPC   C3B40701  16.589  29.447   7.061
 3031POPC   C4B40702  16.737  29.420   7.487
 3032POPC   NC340703  15.218   6.114   5.415
 3032POPC   PO440704  15.087   6.799   5.280
 3032POPC   GL140705  15.068   6.722   5.742
 3032POPC   GL240706  15.301   6.442   5.815
 3032POPC   C1A40707  15.210   6.797   6.200
 3032POPC   D2A40708  15.540   6.741   6.537
 3032POPC   C3A40709  15.416   6.783   6.981
 3032POPC   C4A40710  15.082   6.923   7.250
 3032POPC   C1B40711  15.165   6.283   6.215
 3032POPC   C2B40712  15.093   6.420   6.586
 3032POPC   C3B40713  15.303   6.288   6.898
 3032POPC   C4B40714  15.210   6.386   7.278
 3033POPC   NC340715   2.249  13.259   5.426
 3033POPC   PO440716   1.812  12.670   5.419
 3033POPC   GL140717   2.070  12.860   5.702
 3033POPC   GL240718   1.890  13.173   5.788
 3033POPC   C1A40719   2.230  12.861   6.115
 3033POPC   D2A40720   2.234  12.545   6.443
 3033POPC   C3A40721   1.931  12.565   6.777
 3033POPC   C4A40722   2.061  12.617   7.183
 3033POPC   C1B40723   1.727  13.085   6.178
 3033POPC   C2B40724   1.937  13.045   6.534
 3033POPC   C3B40725   2.001  13.105   6.939
 3033POPC   C4B40726   1.683  13.022   7.228
 3034POPC   NC340727   5.284  14.657   5.419
 3034POPC   PO440728   5.927  14.297   5.332
 3034POPC   GL140729   5.830  14.519   5.689
 3034POPC   GL240730   5.557  14.281   5.704
 3034POPC   C1A40731   5.914  14.701   6.108
 3034POPC   D2A40732   5.879  14.529   6.525
 3034POPC   C3A40733   5.903  14.702   6.933
 3034POPC   C4A40734   5.955  14.402   7.242
 3034POPC   C1B40735   5.591  14.276   6.160
 3034POPC   C2B40736   5.460  14.250   6.624
 3034POPC   C3B40737   5.557  14.126   7.050
 3034POPC   C4B40738   5.505  14.327   7.454
 3035POPC   NC340739  23.530  25.770   5.388
 3035POPC   PO440740  24.079  25.848   4.999
 3035POPC   GL140741  23.979  25.918   5.536
 3035POPC   GL240742  23.713  26.141   5.689
 3035POPC   C1A40743  24.012  25.841   5.991
 3035POPC   D2A40744  23.916  25.795   6.434
 3035POPC   C3A40745  24.062  25.881   6.842
 3035POPC   C4A40746  23.854  25.829   7.239
 3035POPC   C1B40747  23.591  26.089   6.149
 3035POPC   C2B40748  23.456  25.998   6.604
 3035POPC   C3B40749  23.497  26.203   7.043
 3035POPC   C4B40750  23.309  26.275   7.483
 3036POPC   NC340751  36.744  20.385   5.218
 3036POPC   PO440752  37.218  20.798   5.453
 3036POPC   GL140753  37.108  20.549   5.800
 3036POPC   GL240754  36.773  20.551   5.718
 3036POPC   C1A40755  37.130  20.525   6.243
 3036POPC   D2A40756  36.954  20.339   6.615
 3036POPC   C3A40757  36.843  20.582   6.999
 3036POPC   C4A40758  37.114  20.601   7.396
 3036POPC   C1B40759  36.645  20.681   6.119
 3036POPC   C2B40760  36.762  20.810   6.522
 3036POPC   C3B40761  36.604  21.030   6.860
 3036POPC   C4B40762  36.481  20.992   7.268
 3037POPC   NC340763  28.841  38.864   5.628
 3037POPC   PO440764  29.344  38.672   5.184
 3037POPC   GL140765  29.270  38.571   5.638
 3037POPC   GL240766  28.955  38.394   5.794
 3037POPC   C1A40767  29.294  38.644   6.106
 3037POPC   D2A40768  29.144  38.530   6.538
 3037POPC   C3A40769  29.383  38.540   6.904
 3037POPC   C4A40770  29.275  38.614   7.309
 3037POPC   C1B40771  28.784  38.375   6.201
 3037POPC   C2B40772  28.639  38.411   6.626
 3037POPC   C3B40773  28.873  38.443   7.003
 3037POPC   C4B40774  29.149  38.133   7.195
 3038POPC   NC340775  36.806  32.402   5.472
 3038POPC   PO440776  37.343  32.271   5.419
 3038POPC   GL140777  37.048  32.226   5.875
 3038POPC   GL240778  36.636  32.253   5.924
 3038POPC   C1A40779  36.908  32.346   6.341
 3038POPC   D2A40780  36.762  32.437   6.792
 3038POPC   C3A40781  36.993  32.206   7.125
 3038POPC   C4A40782  37.181  32.225   7.553
 3038POPC   C1B40783  36.372  32.311   6.317
 3038POPC   C2B40784  36.307  32.200   6.774
 3038POPC   C3B40785  36.480  32.241   7.207
 3038POPC   C4B40786  36.770  32.539   7.451
 3039POPC   NC340787  30.450  24.400   5.143
 3039POPC   PO440788  31.075  24.455   5.298
 3039POPC   GL140789  30.867  24.586   5.731
 3039POPC   GL240790  30.515  24.736   5.772
 3039POPC   C1A40791  30.918  24.506   6.194
 3039POPC   D2A40792  30.854  24.160   6.518
 3039POPC   C3A40793  30.953  24.320   6.922
 3039POPC   C4A40794  31.016  24.413   7.347
 3039POPC   C1B40795  30.387  24.598   6.213
 3039POPC   C2B40796  30.616  24.602   6.618
 3039POPC   C3B40797  30.480  24.494   7.031
 3039POPC   C4B40798  30.223  24.764   7.237
 3040POPC   NC340799  17.969  37.826   5.390
 3040POPC   PO440800  18.547  37.513   5.517
 3040POPC   GL140801  18.295  37.692   5.785
 3040POPC   GL240802  18.520  37.953   5.826
 3040POPC   C1A40803  18.199  37.796   6.206
 3040POPC   D2A40804  17.879  37.741   6.480
 3040POPC   C3A40805  18.077  37.687   6.856
 3040POPC   C4A40806  18.096  37.994   7.157
 3040POPC   C1B40807  18.680  37.632   6.146
 3040POPC   C2B40808  18.548  37.634   6.589
 3040POPC   C3B40809  18.564  37.761   7.040
 3040POPC   C4B40810  18.675  37.530   7.406
 3041POPC   NC340811   3.968   2.143   5.621
 3041POPC   PO440812   4.638   1.966   5.585
 3041POPC   GL140813   4.374   1.742   5.830
 3041POPC   GL240814   4.322   2.064   5.998
 3041POPC   C1A40815   4.216   1.667   6.271
 3041POPC   D2A40816   4.246   2.098   6.509
 3041POPC   C3A40817   4.293   2.131   6.964
 3041POPC   C4A40818   4.142   2.183   7.413
 3041POPC   C1B40819   4.692   2.259   6.199
 3041POPC   C2B40820   4.855   2.373   6.602
 3041POPC   C3B40821   4.666   2.594   6.931
 3041POPC   C4B40822   4.596   2.363   7.302
 3042POPC   NC340823   9.437  23.977   5.544
 3042POPC   PO440824   8.900  23.651   5.347
 3042POPC   GL140825   9.042  23.762   5.789
 3042POPC   GL240826   8.815  23.914   5.992
 3042POPC   C1A40827   9.236  23.824   6.243
 3042POPC   D2A40828   9.057  23.724   6.675
 3042POPC   C3A40829   9.331  23.648   7.043
 3042POPC   C4A40830   9.343  23.556   7.475
 3042POPC   C1B40831   8.511  23.721   6.240
 3042POPC   C2B40832   8.350  23.771   6.633
 3042POPC   C3B40833   8.514  23.579   6.995
 3042POPC   C4B40834   8.851  23.687   7.235
 3043POPC   NC340835  35.867  35.707   5.471
 3043POPC   PO440836  36.321  35.245   5.325
 3043POPC   GL140837  36.170  35.110   5.742
 3043POPC   GL240838  35.811  35.009   5.768
 3043POPC   C1A40839  36.267  35.198   6.176
 3043POPC   D2A40840  36.070  35.513   6.439
 3043POPC   C3A40841  36.104  35.467   6.873
 3043POPC   C4A40842  36.072  35.627   7.273
 3043POPC   C1B40843  35.757  35.137   6.219
 3043POPC   C2B40844  35.897  35.054   6.647
 3043POPC   C3B40845  35.843  35.089   7.095
 3043POPC   C4B40846  35.951  34.887   7.451
 3044POPC   NC340847  32.534   7.694   5.448
 3044POPC   PO440848  32.480   6.964   5.405
 3044POPC   GL140849  32.427   7.264   5.721
 3044POPC   GL240850  32.087   7.222   5.816
 3044POPC   C1A40851  32.379   7.584   6.086
 3044POPC   D2A40852  32.562   7.627   6.518
 3044POPC   C3A40853  32.383   7.675   6.934
 3044POPC   C4A40854  32.225   7.704   7.381
 3044POPC   C1B40855  32.365   7.085   6.188
 3044POPC   C2B40856  32.339   7.004   6.620
 3044POPC   C3B40857  32.086   6.947   6.994
 3044POPC   C4B40858  32.321   7.243   7.193
 3045POPC   NC340859   7.725  19.411   5.481
 3045POPC   PO440860   7.127  19.018   5.379
 3045POPC   GL140861   7.377  18.927   5.707
 3045POPC   GL240862   7.550  19.196   5.906
 3045POPC   C1A40863   7.364  18.769   6.097
 3045POPC   D2A40864   7.522  18.697   6.493
 3045POPC   C3A40865   7.399  18.915   6.838
 3045POPC   C4A40866   7.557  18.909   7.249
 3045POPC   C1B40867   7.508  19.187   6.364
 3045POPC   C2B40868   7.359  19.404   6.703
 3045POPC   C3B40869   7.369  19.371   7.131
 3045POPC   C4B40870   7.677  19.360   7.453
 3046POPC   NC340871  15.448  42.842   5.443
 3046POPC   PO440872  15.107  43.425   5.379
 3046POPC   GL140873  15.050  43.199   5.791
 3046POPC   GL240874  15.410  43.191   5.838
 3046POPC   C1A40875  14.842  43.052   6.236
 3046POPC   D2A40876  14.882  42.827   6.683
 3046POPC   C3A40877  15.001  43.076   7.059
 3046POPC   C4A40878  14.951  43.524   7.123
 3046POPC   C1B40879  15.356  43.076   6.259
 3046POPC   C2B40880  15.431  42.919   6.671
 3046POPC   C3B40881  15.416  42.755   7.076
 3046POPC   C4B40882  15.237  42.886   7.469
 3047POPC   NC340883  22.045  31.289   5.411
 3047POPC   PO440884  22.244  31.894   5.210
 3047POPC   GL140885  22.311  31.643   5.701
 3047POPC   GL240886  22.214  31.299   5.875
 3047POPC   C1A40887  22.205  31.639   6.230
 3047POPC   D2A40888  22.039  31.831   6.626
 3047POPC   C3A40889  22.098  31.700   7.062
 3047POPC   C4A40890  22.391  31.687   7.451
 3047POPC   C1B40891  22.261  31.126   6.283
 3047POPC   C2B40892  22.226  31.326   6.669
 3047POPC   C3B40893  22.321  31.255   7.085
 3047POPC   C4B40894  21.978  31.134   7.221
 3048POPC   NC340895   8.661  13.076   5.714
 3048POPC   PO440896   9.345  12.886   5.404
 3048POPC   GL140897   9.159  12.910   5.816
 3048POPC   GL240898   8.922  12.654   5.799
 3048POPC   C1A40899   9.165  12.957   6.291
 3048POPC   D2A40900   8.939  12.974   6.705
 3048POPC   C3A40901   9.150  12.811   7.077
 3048POPC   C4A40902   9.523  12.797   7.350
 3048POPC   C1B40903   8.716  12.725   6.230
 3048POPC   C2B40904   8.677  12.542   6.597
 3048POPC   C3B40905   8.792  12.438   6.989
 3048POPC   C4B40906   8.760  12.648   7.353
 3049POPC   NC340907  11.522  19.045   5.305
 3049POPC   PO440908  10.988  18.757   5.640
 3049POPC   GL140909  11.298  19.009   5.780
 3049POPC   GL240910  11.615  18.831   5.755
 3049POPC   C1A40911  11.304  19.202   6.186
 3049POPC   D2A40912  11.309  18.993   6.583
 3049POPC   C3A40913  11.109  19.054   6.991
 3049POPC   C4A40914  11.106  18.673   7.234
 3049POPC   C1B40915  11.602  18.773   6.178
 3049POPC   C2B40916  11.763  18.750   6.580
 3049POPC   C3B40917  11.636  18.995   6.976
 3049POPC   C4B40918  11.482  18.959   7.409
 3050POPC   NC340919   6.772  29.438   5.414
 3050POPC   PO440920   6.836  28.731   5.344
 3050POPC   GL140921   6.874  29.028   5.729
 3050POPC   GL240922   6.555  29.154   5.796
 3050POPC   C1A40923   6.782  28.905   6.167
 3050POPC   D2A40924   6.796  29.026   6.569
 3050POPC   C3A40925   6.443  28.996   6.792
 3050POPC   C4A40926   6.412  29.028   7.219
 3050POPC   C1B40927   6.548  29.356   6.187
 3050POPC   C2B40928   6.675  29.549   6.551
 3050POPC   C3B40929   6.556  29.471   6.949
 3050POPC   C4B40930   6.712  29.467   7.333
 3051POPC   NC340931   4.735  23.990   5.442
 3051POPC   PO440932   5.276  24.391   5.471
 3051POPC   GL140933   5.292  24.535   5.881
 3051POPC   GL240934   5.504  24.827   5.905
 3051POPC   C1A40935   5.095  24.344   6.258
 3051POPC   D2A40936   4.760  24.387   6.577
 3051POPC   C3A40937   4.930  24.448   6.991
 3051POPC   C4A40938   5.032  24.495   7.462
 3051POPC   C1B40939   5.408  24.748   6.335
 3051POPC   C2B40940   5.414  24.440   6.665
 3051POPC   C3B40941   5.419  24.392   7.104
 3051POPC   C4B40942   5.538  24.607   7.436
 3052POPC   NC340943  29.808  28.649   5.512
 3052POPC   PO440944  29.887  27.998   5.197
 3052POPC   GL140945  29.769  28.125   5.684
 3052POPC   GL240946  30.016  28.344   5.853
 3052POPC   C1A40947  29.713  28.171   6.199
 3052POPC   D2A40948  29.641  28.315   6.659
 3052POPC   C3A40949  29.805  28.181   7.065
 3052POPC   C4A40950  29.922  27.988   7.467
 3052POPC   C1B40951  29.828  28.684   6.161
 3052POPC   C2B40952  29.945  28.784   6.590
 3052POPC   C3B40953  29.888  28.687   7.050
 3052POPC   C4B40954  30.088  28.791   7.513
 3053POPC   NC340955  24.855  43.194   5.413
 3053POPC   PO440956  25.475  43.480   5.506
 3053POPC   GL140957  25.216  43.211   5.771
 3053POPC   GL240958  24.869  43.353   5.877
 3053POPC   C1A40959  25.119  42.978   6.121
 3053POPC   D2A40960  25.229  43.081   6.514
 3053POPC   C3A40961  25.004  42.994   6.883
 3053POPC   C4A40962  25.156  43.143   7.294
 3053POPC   C1B40963  24.945  43.514   6.266
 3053POPC   C2B40964  25.028  43.536   6.691
 3053POPC   C3B40965  24.824  43.446   7.060
 3053POPC   C4B40966  24.865  43.520   7.490
 3054POPC   NC340967  28.876   1.226   5.395
 3054POPC   PO440968  29.484   1.303   5.109
 3054POPC   GL140969  29.338   1.539   5.573
 3054POPC   GL240970  29.522   1.377   5.852
 3054POPC   C1A40971  29.065   1.420   6.042
 3054POPC   D2A40972  28.858   1.163   6.357
 3054POPC   C3A40973  29.042   1.232   6.769
 3054POPC   C4A40974  28.929   1.140   7.205
 3054POPC   C1B40975  29.444   1.144   6.292
 3054POPC   C2B40976  29.553   1.109   6.779
 3054POPC   C3B40977  29.440   1.068   7.250
 3054POPC   C4B40978  29.246   0.978   7.666
 3055POPC   NC340979  33.883   2.132   5.406
 3055POPC   PO440980  33.320   1.923   5.199
 3055POPC   GL140981  33.496   2.057   5.701
 3055POPC   GL240982  33.706   1.789   5.955
 3055POPC   C1A40983  33.740   2.268   6.062
 3055POPC   D2A40984  33.919   2.027   6.409
 3055POPC   C3A40985  34.096   2.168   6.816
 3055POPC   C4A40986  34.179   1.898   7.147
 3055POPC   C1B40987  33.419   1.934   6.282
 3055POPC   C2B40988  33.495   2.073   6.704
 3055POPC   C3B40989  33.662   2.072   7.103
 3055POPC   C4B40990  33.413   2.246   7.462
 3056POPC   NC340991  25.505   4.513   5.325
 3056POPC   PO440992  24.829   4.616   5.413
 3056POPC   GL140993  25.147   4.454   5.720
 3056POPC   GL240994  25.446   4.638   5.815
 3056POPC   C1A40995  25.228   4.234   6.106
 3056POPC   D2A40996  24.998   4.166   6.495
 3056POPC   C3A40997  25.211   4.041   6.893
 3056POPC   C4A40998  25.096   3.914   7.329
 3056POPC   C1B40999  25.308   4.728   6.247
 3056POPC   C2B41000  25.306   4.558   6.673
 3056POPC   C3B41001  25.522   4.695   7.040
 3056POPC   C4B41002  25.499   4.694   7.485
 3057POPC   NC341003   0.842  10.566   5.540
 3057POPC   PO441004   1.457  10.259   5.351
 3057POPC   GL141005   1.283  10.371   5.793
 3057POPC   GL241006   1.145  10.738   5.914
 3057POPC   C1A41007   1.432  10.377   6.251
 3057POPC   D2A41008   1.431  10.375   6.729
 3057POPC   C3A41009   1.127  10.565   7.000
 3057POPC   C4A41010   0.988  10.350   7.349
 3057POPC   C1B41011   0.977  10.974   6.306
 3057POPC   C2B41012   0.786  10.935   6.736
 3057POPC   C3B41013   0.859  10.981   7.192
 3057POPC   C4B41014   1.034  11.073   7.579
 3058POPC   NC341015  42.567  20.209   5.666
 3058POPC   PO441016  42.213  19.711   5.370
 3058POPC   GL141017  42.228  19.808   5.767
 3058POPC   GL241018  42.558  19.677   5.816
 3058POPC   C1A41019  42.266  19.880   6.212
 3058POPC   D2A41020  42.421  19.995   6.616
 3058POPC   C3A41021  42.222  19.775   6.943
 3058POPC   C4A41022  42.307  19.951   7.314
 3058POPC   C1B41023  42.749  19.449   6.154
 3058POPC   C2B41024  42.914  19.576   6.565
 3058POPC   C3B41025  42.761  19.732   6.960
 3058POPC   C4B41026  42.729  19.493   7.336
 3059POPC   NC341027  39.715  21.364   5.341
 3059POPC   PO441028  40.312  21.191   5.380
 3059POPC   GL141029  40.045  21.311   5.739
 3059POPC   GL241030  39.780  21.588   5.816
 3059POPC   C1A41031  39.967  21.204   6.164
 3059POPC   D2A41032  40.194  21.276   6.543
 3059POPC   C3A41033  39.944  21.259   6.915
 3059POPC   C4A41034  40.099  21.236   7.326
 3059POPC   C1B41035  39.921  21.719   6.233
 3059POPC   C2B41036  40.273  21.789   6.545
 3059POPC   C3B41037  40.240  21.676   6.982
 3059POPC   C4B41038  39.854  21.663   7.230
 3060POPC   NC341039  13.847  17.621   5.385
 3060POPC   PO441040  13.315  17.874   5.394
 3060POPC   GL141041  13.219  17.612   5.775
 3060POPC   GL241042  13.571  17.688   5.862
 3060POPC   C1A41043  13.352  17.376   6.189
 3060POPC   D2A41044  13.635  17.454   6.575
 3060POPC   C3A41045  13.511  17.444   7.031
 3060POPC   C4A41046  13.370  17.187   7.397
 3060POPC   C1B41047  13.427  17.879   6.277
 3060POPC   C2B41048  13.500  17.938   6.747
 3060POPC   C3B41049  13.608  17.968   7.200
 3060POPC   C4B41050  13.716  17.976   7.664
 3061POPC   NC341051  21.650   7.782   5.460
 3061POPC   PO441052  21.364   8.380   5.328
 3061POPC   GL141053  21.470   8.228   5.710
 3061POPC   GL241054  21.211   7.949   5.701
 3061POPC   C1A41055  21.602   8.343   6.139
 3061POPC   D2A41056  21.476   8.479   6.563
 3061POPC   C3A41057  21.662   8.198   6.868
 3061POPC   C4A41058  21.473   8.140   7.295
 3061POPC   C1B41059  21.112   8.148   6.086
 3061POPC   C2B41060  21.226   8.021   6.491
 3061POPC   C3B41061  21.161   8.132   6.890
 3061POPC   C4B41062  20.913   8.093   7.235
 3062POPC   NC341063  25.942  30.932   5.439
 3062POPC   PO441064  25.933  30.279   5.196
 3062POPC   GL141065  25.968  30.433   5.640
 3062POPC   GL241066  26.270  30.655   5.769
 3062POPC   C1A41067  25.840  30.498   6.084
 3062POPC   D2A41068  25.807  30.671   6.526
 3062POPC   C3A41069  26.085  30.518   6.882
 3062POPC   C4A41070  26.272  30.571   7.324
 3062POPC   C1B41071  26.226  30.842   6.215
 3062POPC   C2B41072  26.193  30.992   6.673
 3062POPC   C3B41073  26.138  31.024   7.149
 3062POPC   C4B41074  26.282  31.037   7.633
 3063POPC   NC341075  35.202  32.623   5.477
 3063POPC   PO441076  35.079  33.296   5.305
 3063POPC   GL141077  35.342  33.092   5.672
 3063POPC   GL241078  35.085  33.023   5.909
 3063POPC   C1A41079  35.531  32.843   6.068
 3063POPC   D2A41080  35.539  32.809   6.557
 3063POPC   C3A41081  35.484  32.843   7.022
 3063POPC   C4A41082  35.562  32.567   7.399
 3063POPC   C1B41083  35.196  33.170   6.346
 3063POPC   C2B41084  34.947  33.291   6.699
 3063POPC   C3B41085  34.849  33.129   7.111
 3063POPC   C4B41086  35.034  33.101   7.547
 3064POPC   NC341087  27.551  39.799   5.509
 3064POPC   PO441088  27.630  39.100   5.351
 3064POPC   GL141089  27.783  39.323   5.695
 3064POPC   GL241090  27.453  39.409   5.805
 3064POPC   C1A41091  27.789  39.340   6.160
 3064POPC   D2A41092  27.540  39.338   6.538
 3064POPC   C3A41093  27.723  39.274   6.939
 3064POPC   C4A41094  27.982  39.511   7.196
 3064POPC   C1B41095  27.399  39.677   6.162
 3064POPC   C2B41096  27.183  39.709   6.563
 3064POPC   C3B41097  27.223  39.461   6.946
 3064POPC   C4B41098  27.412  39.437   7.371
 3065POPC   NC341099   0.072  44.147   5.426
 3065POPC   PO441100   0.475  43.589   5.548
 3065POPC   GL141101   0.373  43.888   5.832
 3065POPC   GL241102   0.132  43.632   5.957
 3065POPC   C1A41103   0.535  44.175   6.168
 3065POPC   D2A41104   0.627  44.385   6.574
 3065POPC   C3A41105   0.567  44.128   6.966
 3065POPC   C4A41106   0.213  43.994   7.268
 3065POPC   C1B41107   0.464  43.662   6.281
 3065POPC   C2B41108   0.532  43.677   6.721
 3065POPC   C3B41109   0.402  43.566   7.121
 3065POPC   C4B41110   0.566  43.690   7.547
 3066POPC   NC341111   8.456  26.261   5.415
 3066POPC   PO441112   8.231  25.613   5.325
 3066POPC   GL141113   8.273  25.816   5.756
 3066POPC   GL241114   8.083  26.116   5.810
 3066POPC   C1A41115   8.500  25.933   6.173
 3066POPC   D2A41116   8.657  26.110   6.583
 3066POPC   C3A41117   8.498  26.002   6.999
 3066POPC   C4A41118   8.349  26.213   7.371
 3066POPC   C1B41119   8.010  26.013   6.236
 3066POPC   C2B41120   8.126  26.023   6.646
 3066POPC   C3B41121   7.933  26.106   7.035
 3066POPC   C4B41122   7.812  26.508   7.206
 3067POPC   NC341123   8.521  27.437   5.212
 3067POPC   PO441124   9.108  27.537   5.547
 3067POPC   GL141125   9.037  27.678   5.878
 3067POPC   GL241126   9.266  27.908   5.882
 3067POPC   C1A41127   8.940  27.471   6.213
 3067POPC   D2A41128   9.017  27.668   6.557
 3067POPC   C3A41129   9.029  27.412   6.859
 3067POPC   C4A41130   8.882  27.540   7.239
 3067POPC   C1B41131   9.415  27.681   6.248
 3067POPC   C2B41132   9.511  27.815   6.664
 3067POPC   C3B41133   9.217  27.891   6.984
 3067POPC   C4B41134   9.237  27.880   7.382
 3068POPC   NC341135  25.445  23.620   5.408
 3068POPC   PO441136  25.117  24.260   5.301
 3068POPC   GL141137  25.362  24.079   5.636
 3068POPC   GL241138  25.083  23.877   5.717
 3068POPC   C1A41139  25.504  23.814   6.046
 3068POPC   D2A41140  25.680  23.571   6.425
 3068POPC   C3A41141  25.585  23.693   6.893
 3068POPC   C4A41142  25.471  23.557   7.330
 3068POPC   C1B41143  24.991  23.768   6.144
 3068POPC   C2B41144  25.195  23.733   6.549
 3068POPC   C3B41145  25.035  23.687   6.978
 3068POPC   C4B41146  24.806  23.747   7.387
 3069POPC   NC341147  31.972  37.700   5.414
 3069POPC   PO441148  32.592  37.535   5.240
 3069POPC   GL141149  32.416  37.573   5.678
 3069POPC   GL241150  32.436  37.913   5.795
 3069POPC   C1A41151  32.376  37.523   6.156
 3069POPC   D2A41152  32.172  37.612   6.575
 3069POPC   C3A41153  32.368  37.719   6.959
 3069POPC   C4A41154  32.433  37.510   7.336
 3069POPC   C1B41155  32.231  38.038   6.203
 3069POPC   C2B41156  32.188  38.122   6.648
 3069POPC   C3B41157  31.933  37.969   6.960
 3069POPC   C4B41158  32.028  37.866   7.359
 3070POPC   NC341159  31.143  26.526   5.366
 3070POPC   PO441160  30.776  25.914   5.318
 3070POPC   GL141161  30.694  26.158   5.657
 3070POPC   GL241162  30.511  25.878   5.799
 3070POPC   C1A41163  30.729  26.291   6.078
 3070POPC   D2A41164  30.618  26.311   6.511
 3070POPC   C3A41165  30.723  26.001   6.808
 3070POPC   C4A41166  30.820  26.071   7.209
 3070POPC   C1B41167  30.390  25.924   6.231
 3070POPC   C2B41168  30.228  25.965   6.640
 3070POPC   C3B41169  30.339  25.699   6.960
 3070POPC   C4B41170  30.510  25.714   7.398
 3071POPC   NC341171  21.590  39.808   5.287
 3071POPC   PO441172  21.556  40.435   5.236
 3071POPC   GL141173  21.651  40.235   5.642
 3071POPC   GL241174  21.359  40.065   5.700
 3071POPC   C1A41175  21.697  40.106   6.112
 3071POPC   D2A41176  21.427  40.240   6.509
 3071POPC   C3A41177  21.559  40.209   6.986
 3071POPC   C4A41178  21.473  40.124   7.429
 3071POPC   C1B41179  21.243  39.890   6.102
 3071POPC   C2B41180  21.216  39.670   6.505
 3071POPC   C3B41181  21.218  39.759   6.958
 3071POPC   C4B41182  20.997  40.006   7.282
 3072POPC   NC341183  18.891  28.656   5.380
 3072POPC   PO441184  19.441  28.253   5.381
 3072POPC   GL141185  19.187  28.267   5.796
 3072POPC   GL241186  18.864  28.400   5.857
 3072POPC   C1A41187  19.133  28.281   6.269
 3072POPC   D2A41188  18.977  28.340   6.677
 3072POPC   C3A41189  19.286  28.434   6.986
 3072POPC   C4A41190  19.238  28.616   7.403
 3072POPC   C1B41191  18.674  28.581   6.251
 3072POPC   C2B41192  18.810  28.813   6.619
 3072POPC   C3B41193  18.804  28.710   7.044
 3072POPC   C4B41194  18.836  28.295   7.193
 3073POPC   NC341195  31.768  44.898   5.090
 3073POPC   PO441196  31.363  44.535   5.607
 3073POPC   GL141197  31.151  44.399   5.955
 3073POPC   GL241198  31.068  44.743   6.020
 3073POPC   C1A41199  31.216  44.379   6.416
 3073POPC   D2A41200  31.374  44.657   6.760
 3073POPC   C3A41201  31.416  44.584   7.187
 3073POPC   C4A41202  31.280  44.873   7.536
 3073POPC   C1B41203  31.423  44.854   6.255
 3073POPC   C2B41204  31.777  44.859   6.524
 3073POPC   C3B41205  31.762   0.032   6.964
 3073POPC   C4B41206  31.773  44.886   7.398
 3074POPC   NC341207   3.704  39.581   5.430
 3074POPC   PO441208   3.170  39.218   5.338
 3074POPC   GL141209   3.474  39.239   5.727
 3074POPC   GL241210   3.284  39.498   5.813
 3074POPC   C1A41211   3.713  39.231   6.165
 3074POPC   D2A41212   3.516  39.233   6.580
 3074POPC   C3A41213   3.686  39.122   6.985
 3074POPC   C4A41214   3.761  39.442   7.296
 3074POPC   C1B41215   3.398  39.636   6.228
 3074POPC   C2B41216   3.670  39.727   6.570
 3074POPC   C3B41217   3.468  39.656   6.957
 3074POPC   C4B41218   3.297  39.875   7.306
 3075POPC   NC341219  14.533   0.052   5.306
 3075POPC   PO441220  14.147   0.515   5.584
 3075POPC   GL141221  14.433   0.418   5.897
 3075POPC   GL241222  14.571   0.101   5.819
 3075POPC   C1A41223  14.305   0.558   6.312
 3075POPC   D2A41224  13.970   0.436   6.605
 3075POPC   C3A41225  14.073   0.580   7.001
 3075POPC   C4A41226  14.503   0.641   7.101
 3075POPC   C1B41227  14.490   0.074   6.281
 3075POPC   C2B41228  14.449   0.230   6.696
 3075POPC   C3B41229  14.322   0.164   7.101
 3075POPC   C4B41230  14.623   0.199   7.437
 3076POPC   NC341231  14.180  21.281   5.405
 3076POPC   PO441232  14.693  21.764   5.411
 3076POPC   GL141233  14.522  21.470   5.750
 3076POPC   GL241234  14.598  21.104   5.767
 3076POPC   C1A41235  14.375  21.362   6.188
 3076POPC   D2A41236  14.325  21.620   6.563
 3076POPC   C3A41237  14.102  21.565   6.944
 3076POPC   C4A41238  14.429  21.430   7.207
 3076POPC   C1B41239  14.703  20.962   6.212
 3076POPC   C2B41240  14.687  21.146   6.606
 3076POPC   C3B41241  14.301  21.111   6.825
 3076POPC   C4B41242  14.108  21.022   7.205
 3077POPC   NC341243  23.848  20.865   5.769
 3077POPC   PO441244  23.490  20.380   5.482
 3077POPC   GL141245  23.610  20.364   5.914
 3077POPC   GL241246  23.966  20.318   5.910
 3077POPC   C1A41247  23.686  20.549   6.339
 3077POPC   D2A41248  23.942  20.728   6.673
 3077POPC   C3A41249  23.731  20.794   7.076
 3077POPC   C4A41250  23.400  20.503   7.182
 3077POPC   C1B41251  24.071  20.228   6.338
 3077POPC   C2B41252  23.892  20.208   6.731
 3077POPC   C3B41253  24.102  20.425   7.051
 3077POPC   C4B41254  24.293  20.713   7.235
 3078POPC   NC341255  10.658   3.093   5.482
 3078POPC   PO441256  10.124   2.641   5.296
 3078POPC   GL141257  10.421   2.619   5.710
 3078POPC   GL241258  10.574   2.902   5.939
 3078POPC   C1A41259  10.273   2.559   6.155
 3078POPC   D2A41260  10.403   2.726   6.556
 3078POPC   C3A41261  10.247   2.563   6.943
 3078POPC   C4A41262  10.156   2.382   7.348
 3078POPC   C1B41263  10.852   3.016   6.261
 3078POPC   C2B41264  10.679   3.150   6.623
 3078POPC   C3B41265  10.537   3.024   6.981
 3078POPC   C4B41266  10.648   2.718   7.261
 3079POPC   NC341267  41.610  17.165   5.376
 3079POPC   PO441268  41.512  16.528   5.417
 3079POPC   GL141269  41.549  16.766   5.799
 3079POPC   GL241270  41.308  17.022   5.810
 3079POPC   C1A41271  41.803  16.679   6.195
 3079POPC   D2A41272  41.925  16.818   6.591
 3079POPC   C3A41273  41.681  16.703   6.934
 3079POPC   C4A41274  41.591  16.682   7.367
 3079POPC   C1B41275  41.568  17.137   6.168
 3079POPC   C2B41276  41.839  17.303   6.498
 3079POPC   C3B41277  41.875  17.190   6.946
 3079POPC   C4B41278  41.574  17.159   7.270
 3080POPC   NC341279  28.992  28.199   5.148
 3080POPC   PO441280  29.370  28.509   5.581
 3080POPC   GL141281  29.155  28.465   5.904
 3080POPC   GL241282  28.884  28.221   5.782
 3080POPC   C1A41283  29.329  28.536   6.318
 3080POPC   D2A41284  29.443  28.787   6.698
 3080POPC   C3A41285  29.347  28.544   7.067
 3080POPC   C4A41286  28.914  28.721   7.220
 3080POPC   C1B41287  28.898  28.250   6.267
 3080POPC   C2B41288  29.100  28.213   6.682
 3080POPC   C3B41289  28.946  28.242   7.112
 3080POPC   C4B41290  28.901  28.234   7.606
 3081POPC   NC341291  41.955  44.126   5.485
 3081POPC   PO441292  41.380  44.480   5.312
 3081POPC   GL141293  41.509  44.513   5.761
 3081POPC   GL241294  41.846  44.449   5.858
 3081POPC   C1A41295  41.471  44.752   6.147
 3081POPC   D2A41296  41.349  44.659   6.545
 3081POPC   C3A41297  41.466  44.866   6.894
 3081POPC   C4A41298  41.441  44.626   7.261
 3081POPC   C1B41299  41.721  44.315   6.279
 3081POPC   C2B41300  41.602  44.227   6.726
 3081POPC   C3B41301  41.649  44.175   7.185
 3081POPC   C4B41302  41.761  44.392   7.601
 3082POPC   NC341303   1.605  43.588   5.455
 3082POPC   PO441304   1.868  42.928   5.344
 3082POPC   GL141305   1.848  42.902   5.763
 3082POPC   GL241306   1.725  43.228   5.792
 3082POPC   C1A41307   1.881  42.944   6.210
 3082POPC   D2A41308   2.044  43.158   6.580
 3082POPC   C3A41309   2.029  42.949   6.976
 3082POPC   C4A41310   1.963  43.135   7.340
 3082POPC   C1B41311   1.870  43.482   6.124
 3082POPC   C2B41312   1.698  43.530   6.522
 3082POPC   C3B41313   1.644  43.316   6.954
 3082POPC   C4B41314   1.534  42.896   7.188
 3083POPC   NC341315  17.104  10.216   5.506
 3083POPC   PO441316  16.569  10.649   5.366
 3083POPC   GL141317  16.791  10.657   5.790
 3083POPC   GL241318  16.680  10.325   5.841
 3083POPC   C1A41319  16.957  10.818   6.245
 3083POPC   D2A41320  17.065  10.877   6.715
 3083POPC   C3A41321  16.783  10.861   7.099
 3083POPC   C4A41322  16.671  10.586   7.449
 3083POPC   C1B41323  17.015  10.299   6.158
 3083POPC   C2B41324  17.104  10.373   6.591
 3083POPC   C3B41325  16.916  10.354   6.991
 3083POPC   C4B41326  16.960  10.048   7.286
 3084POPC   NC341327  11.353  24.077   5.521
 3084POPC   PO441328  10.814  24.396   5.402
 3084POPC   GL141329  11.111  24.466   5.756
 3084POPC   GL241330  11.138  24.166   6.007
 3084POPC   C1A41331  11.187  24.661   6.159
 3084POPC   D2A41332  10.970  24.446   6.490
 3084POPC   C3A41333  11.165  24.438   6.906
 3084POPC   C4A41334  11.189  24.691   7.272
 3084POPC   C1B41335  11.287  24.019   6.445
 3084POPC   C2B41336  11.541  24.063   6.836
 3084POPC   C3B41337  11.591  24.230   7.254
 3084POPC   C4B41338  11.817  24.278   7.664
 3085POPC   NC341339  15.658   6.985   5.195
 3085POPC   PO441340  15.910   6.350   5.152
 3085POPC   GL141341  15.928   6.475   5.636
 3085POPC   GL241342  15.730   6.181   5.691
 3085POPC   C1A41343  15.881   6.564   6.142
 3085POPC   D2A41344  16.030   6.608   6.612
 3085POPC   C3A41345  15.923   6.912   6.945
 3085POPC   C4A41346  15.758   6.964   7.373
 3085POPC   C1B41347  15.615   6.074   6.099
 3085POPC   C2B41348  15.648   6.229   6.509
 3085POPC   C3B41349  15.853   6.211   6.903
 3085POPC   C4B41350  15.711   6.464   7.237
 3086POPC   NC341351   8.834   0.752   5.434
 3086POPC   PO441352   9.298   0.334   5.392
 3086POPC   GL141353   9.042   0.393   5.777
 3086POPC   GL241354   8.661   0.364   5.791
 3086POPC   C1A41355   9.023   0.733   6.094
 3086POPC   D2A41356   9.179   0.827   6.515
 3086POPC   C3A41357   9.134   0.433   6.734
 3086POPC   C4A41358   9.129   0.273   7.127
 3086POPC   C1B41359   8.823   0.285   6.232
 3086POPC   C2B41360   8.698   0.589   6.521
 3086POPC   C3B41361   8.657   0.577   6.958
 3086POPC   C4B41362   8.660   0.248   7.293
 3087POPC   NC341363   8.451  33.416   5.459
 3087POPC   PO441364   8.049  33.986   5.421
 3087POPC   GL141365   8.268  33.813   5.783
 3087POPC   GL241366   8.099  33.516   5.808
 3087POPC   C1A41367   8.417  33.812   6.246
 3087POPC   D2A41368   8.293  33.864   6.716
 3087POPC   C3A41369   8.496  33.829   7.146
 3087POPC   C4A41370   8.330  34.053   7.565
 3087POPC   C1B41371   7.951  33.558   6.200
 3087POPC   C2B41372   7.965  33.428   6.601
 3087POPC   C3B41373   8.145  33.447   6.992
 3087POPC   C4B41374   8.020  33.200   7.334
 3088POPC   NC341375   7.015   6.276   5.645
 3088POPC   PO441376   7.214   6.847   5.292
 3088POPC   GL141377   7.257   6.695   5.798
 3088POPC   GL241378   7.457   6.371   5.860
 3088POPC   C1A41379   7.352   6.675   6.268
 3088POPC   D2A41380   7.262   6.587   6.693
 3088POPC   C3A41381   7.500   6.588   7.010
 3088POPC   C4A41382   7.300   6.736   7.319
 3088POPC   C1B41383   7.715   6.276   6.182
 3088POPC   C2B41384   7.729   6.369   6.588
 3088POPC   C3B41385   7.943   6.348   6.956
 3088POPC   C4B41386   7.715   6.236   7.334
 3089POPC   NC341387  43.748  11.505   5.453
 3089POPC   PO441388  43.898  10.828   5.317
 3089POPC   GL141389  44.038  11.134   5.747
 3089POPC   GL241390  43.791  11.326   5.940
 3089POPC   C1A41391  44.206  11.384   6.185
 3089POPC   D2A41392  44.012  11.598   6.597
 3089POPC   C3A41393  44.146  11.426   7.018
 3089POPC   C4A41394  43.985  11.337   7.461
 3089POPC   C1B41395  43.619  11.507   6.282
 3089POPC   C2B41396  43.550  11.380   6.711
 3089POPC   C3B41397  43.672  11.587   7.102
 3089POPC   C4B41398  43.502  11.552   7.541
 3090POPC   NC341399  29.872  34.298   5.472
 3090POPC   PO441400  30.225  34.731   5.843
 3090POPC   GL141401  29.860  34.633   6.022
 3090POPC   GL241402  29.702  34.931   5.915
 3090POPC   C1A41403  29.770  34.432   6.422
 3090POPC   D2A41404  29.572  34.549   6.809
 3090POPC   C3A41405  29.903  34.584   7.107
 3090POPC   C4A41406  30.147  34.217   7.213
 3090POPC   C1B41407  29.731  35.079   6.372
 3090POPC   C2B41408  29.573  35.087   6.839
 3090POPC   C3B41409  29.479  34.835   7.237
 3090POPC   C4B41410  29.674  34.831   7.673
 3091POPC   NC341411   6.962  22.866   5.299
 3091POPC   PO441412   6.454  23.265   5.374
 3091POPC   GL141413   6.348  23.000   5.741
 3091POPC   GL241414   6.683  22.805   5.773
 3091POPC   C1A41415   6.281  23.014   6.214
 3091POPC   D2A41416   6.548  23.109   6.587
 3091POPC   C3A41417   6.471  22.944   7.018
 3091POPC   C4A41418   6.531  22.873   7.476
 3091POPC   C1B41419   6.718  22.752   6.247
 3091POPC   C2B41420   6.745  22.578   6.707
 3091POPC   C3B41421   6.997  22.604   7.130
 3091POPC   C4B41422   6.994  22.652   7.614
 3092POPC   NC341423  37.753  42.514   5.485
 3092POPC   PO441424  38.170  41.994   5.525
 3092POPC   GL141425  37.841  42.137   5.816
 3092POPC   GL241426  37.470  42.116   5.742
 3092POPC   C1A41427  37.823  42.377   6.214
 3092POPC   D2A41428  37.755  42.230   6.623
 3092POPC   C3A41429  37.709  42.484   6.976
 3092POPC   C4A41430  37.751  42.141   7.239
 3092POPC   C1B41431  37.327  42.288   6.155
 3092POPC   C2B41432  37.349  42.502   6.560
 3092POPC   C3B41433  37.274  42.228   6.969
 3092POPC   C4B41434  37.300  42.248   7.454
 3093POPC   NC341435  17.889  44.447   5.657
 3093POPC   PO441436  17.247  44.548   5.386
 3093POPC   GL141437  17.401  44.714   5.796
 3093POPC   GL241438  17.705  44.740   6.009
 3093POPC   C1A41439  17.278  44.606   6.232
 3093POPC   D2A41440  17.551  44.623   6.601
 3093POPC   C3A41441  17.351  44.716   6.988
 3093POPC   C4A41442  17.229  44.602   7.387
 3093POPC   C1B41443  17.820   0.037   6.320
 3093POPC   C2B41444  17.661   0.155   6.746
 3093POPC   C3B41445  17.767  44.947   7.159
 3093POPC   C4B41446  17.808  44.497   7.170
 3094POPC   NC341447  35.040  14.996   5.290
 3094POPC   PO441448  35.528  15.442   5.269
 3094POPC   GL141449  35.482  15.263   5.700
 3094POPC   GL241450  35.335  14.960   5.759
 3094POPC   C1A41451  35.263  15.295   6.153
 3094POPC   D2A41452  35.155  15.125   6.580
 3094POPC   C3A41453  35.220  15.253   7.012
 3094POPC   C4A41454  35.079  15.225   7.475
 3094POPC   C1B41455  35.711  15.067   6.109
 3094POPC   C2B41456  35.866  14.996   6.520
 3094POPC   C3B41457  35.700  15.068   6.924
 3094POPC   C4B41458  35.537  15.041   7.354
 3095POPC   NC341459  34.125  13.582   5.557
 3095POPC   PO441460  34.686  13.304   5.238
 3095POPC   GL141461  34.618  13.488   5.701
 3095POPC   GL241462  34.920  13.668   5.833
 3095POPC   C1A41463  34.445  13.612   6.131
 3095POPC   D2A41464  34.559  13.573   6.582
 3095POPC   C3A41465  34.372  13.880   6.823
 3095POPC   C4A41466  34.338  13.851   7.250
 3095POPC   C1B41467  34.897  13.357   6.200
 3095POPC   C2B41468  34.995  13.320   6.662
 3095POPC   C3B41469  34.759  13.380   7.046
 3095POPC   C4B41470  34.768  13.543   7.466
 3096POPC   NC341471  30.980  37.681   5.285
 3096POPC   PO441472  30.331  37.900   5.427
 3096POPC   GL141473  30.603  37.640   5.722
 3096POPC   GL241474  30.994  37.598   5.793
 3096POPC   C1A41475  30.700  37.726   6.175
 3096POPC   D2A41476  30.621  37.540   6.565
 3096POPC   C3A41477  30.637  37.813   6.935
 3096POPC   C4A41478  30.393  37.760   7.299
 3096POPC   C1B41479  31.258  37.633   6.182
 3096POPC   C2B41480  31.131  37.694   6.603
 3096POPC   C3B41481  30.988  37.426   6.923
 3096POPC   C4B41482  30.906  37.565   7.322
 3097POPC   NC341483  30.999  14.318   5.433
 3097POPC   PO441484  30.384  14.332   5.300
 3097POPC   GL141485  30.493  14.166   5.735
 3097POPC   GL241486  30.728  14.403   5.883
 3097POPC   C1A41487  30.551  14.050   6.206
 3097POPC   D2A41488  30.756  14.181   6.610
 3097POPC   C3A41489  30.548  14.265   7.007
 3097POPC   C4A41490  30.577  14.509   7.361
 3097POPC   C1B41491  30.970  14.508   6.278
 3097POPC   C2B41492  31.143  14.515   6.732
 3097POPC   C3B41493  31.077  14.459   7.191
 3097POPC   C4B41494  30.988  14.539   7.665
 3098POPC   NC341495   4.694  10.554   5.443
 3098POPC   PO441496   4.125  10.779   5.380
 3098POPC   GL141497   4.260  10.520   5.744
 3098POPC   GL241498   4.456  10.808   5.815
 3098POPC   C1A41499   4.312  10.370   6.199
 3098POPC   D2A41500   4.175  10.256   6.654
 3098POPC   C3A41501   4.414  10.397   7.020
 3098POPC   C4A41502   4.507  10.206   7.430
 3098POPC   C1B41503   4.179  10.880   6.149
 3098POPC   C2B41504   4.265  10.759   6.553
 3098POPC   C3B41505   4.039  10.822   6.897
 3098POPC   C4B41506   4.133  10.751   7.300
 3099POPC   NC341507  19.974  43.670   5.272
 3099POPC   PO441508  19.522  44.122   5.411
 3099POPC   GL141509  19.674  43.799   5.733
 3099POPC   GL241510  20.052  43.690   5.776
 3099POPC   C1A41511  19.766  43.873   6.168
 3099POPC   D2A41512  19.971  44.090   6.507
 3099POPC   C3A41513  19.825  43.915   6.887
 3099POPC   C4A41514  19.624  43.701   7.226
 3099POPC   C1B41515  20.278  43.886   6.125
 3099POPC   C2B41516  20.457  43.919   6.539
 3099POPC   C3B41517  20.317  43.757   6.910
 3099POPC   C4B41518  20.116  43.781   7.299
 3100POPC   NC341519  42.987  28.673   5.421
 3100POPC   PO441520  42.831  27.990   5.386
 3100POPC   GL141521  43.024  28.067   5.787
 3100POPC   GL241522  43.149  28.429   5.841
 3100POPC   C1A41523  43.341  28.063   6.142
 3100POPC   D2A41524  43.395  28.452   6.394
 3100POPC   C3A41525  43.319  28.411   6.839
 3100POPC   C4A41526  43.337  28.169   7.220
 3100POPC   C1B41527  42.920  28.338   6.216
 3100POPC   C2B41528  42.974  28.087   6.568
 3100POPC   C3B41529  42.876  28.145   7.002
 3100POPC   C4B41530  42.981  28.540   7.208
 3101POPC   NC341531  39.243   3.050   5.511
 3101POPC   PO441532  38.817   2.536   5.310
 3101POPC   GL141533  39.194   2.535   5.599
 3101POPC   GL241534  39.029   2.564   5.864
 3101POPC   C1A41535  39.509   2.629   6.015
 3101POPC   D2A41536  39.642   2.696   6.497
 3101POPC   C3A41537  39.490   2.750   6.952
 3101POPC   C4A41538  39.211   2.537   7.269
 3101POPC   C1B41539  39.107   2.909   6.160
 3101POPC   C2B41540  38.920   2.966   6.538
 3101POPC   C3B41541  38.958   2.843   6.944
 3101POPC   C4B41542  38.975   3.021   7.322
 3102POPC   NC341543  44.407  17.917   5.320
 3102POPC   PO441544  44.599  18.614   5.352
 3102POPC   GL141545  44.617  18.491   5.800
 3102POPC   GL241546  44.707  18.149   5.693
 3102POPC   C1A41547  44.387  18.448   6.229
 3102POPC   D2A41548  44.184  18.441   6.663
 3102POPC   C3A41549  44.470  18.450   7.022
 3102POPC   C4A41550  44.526  18.520   7.495
 3102POPC   C1B41551  44.411  17.984   5.992
 3102POPC   C2B41552  44.389  17.972   6.449
 3102POPC   C3B41553  44.362  17.972   6.911
 3102POPC   C4B41554  44.574  18.056   7.315
 3103POPC   NC341555  19.395  23.114   5.398
 3103POPC   PO441556  19.991  23.342   5.468
 3103POPC   GL141557  19.950  22.981   5.737
 3103POPC   GL241558  19.636  22.762   5.697
 3103POPC   C1A41559  19.875  23.027   6.153
 3103POPC   D2A41560  20.008  23.227   6.521
 3103POPC   C3A41561  19.981  23.018   6.910
 3103POPC   C4A41562  19.738  23.156   7.280
 3103POPC   C1B41563  19.437  22.765   6.120
 3103POPC   C2B41564  19.613  22.816   6.560
 3103POPC   C3B41565  19.506  22.793   6.997
 3103POPC   C4B41566  19.492  22.652   7.392
 3104POPC   NC341567   4.242   0.682   5.631
 3104POPC   PO441568   4.202   1.191   5.127
 3104POPC   GL141569   4.327   1.214   5.586
 3104POPC   GL241570   4.062   1.330   5.839
 3104POPC   C1A41571   4.560   1.283   5.989
 3104POPC   D2A41572   4.697   1.233   6.432
 3104POPC   C3A41573   4.414   1.225   6.792
 3104POPC   C4A41574   4.579   1.333   7.202
 3104POPC   C1B41575   4.169   1.068   6.233
 3104POPC   C2B41576   3.881   0.866   6.554
 3104POPC   C3B41577   3.824   0.986   6.985
 3104POPC   C4B41578   4.178   1.026   7.250
 3105POPC   NC341579  18.351   1.451   5.347
 3105POPC   PO441580  18.386   0.783   5.351
 3105POPC   GL141581  18.215   0.846   5.766
 3105POPC   GL241582  18.271   1.204   5.784
 3105POPC   C1A41583  18.128   0.966   6.213
 3105POPC   D2A41584  18.309   1.200   6.574
 3105POPC   C3A41585  18.099   1.160   6.986
 3105POPC   C4A41586  18.388   1.174   7.276
 3105POPC   C1B41587  18.189   1.476   6.141
 3105POPC   C2B41588  18.137   1.718   6.479
 3105POPC   C3B41589  18.059   1.668   6.893
 3105POPC   C4B41590  18.091   1.579   7.306
 3106POPC   NC341591   3.855  42.217   5.313
 3106POPC   PO441592   3.343  42.512   5.074
 3106POPC   GL141593   3.495  42.497   5.586
 3106POPC   GL241594   3.897  42.553   5.697
 3106POPC   C1A41595   3.587  42.367   6.057
 3106POPC   D2A41596   3.866  42.132   6.374
 3106POPC   C3A41597   3.695  42.029   6.801
 3106POPC   C4A41598   3.648  42.184   7.224
 3106POPC   C1B41599   3.991  42.715   6.112
 3106POPC   C2B41600   3.772  42.590   6.507
 3106POPC   C3B41601   3.579  42.583   6.897
 3106POPC   C4B41602   3.825  42.692   7.245
 3107POPC   NC341603  40.165  23.370   5.048
 3107POPC   PO441604  40.145  23.000   5.645
 3107POPC   GL141605  39.857  22.944   5.919
 3107POPC   GL241606  39.701  22.620   5.823
 3107POPC   C1A41607  39.983  23.035   6.319
 3107POPC   D2A41608  40.284  22.935   6.597
 3107POPC   C3A41609  40.065  23.055   6.921
 3107POPC   C4A41610  40.077  22.972   7.317
 3107POPC   C1B41611  39.665  22.637   6.266
 3107POPC   C2B41612  39.849  22.649   6.642
 3107POPC   C3B41613  39.883  22.597   7.037
 3107POPC   C4B41614  39.543  22.849   7.150
 3108POPC   NC341615   6.655  12.285   5.423
 3108POPC   PO441616   6.228  11.689   5.542
 3108POPC   GL141617   6.472  11.985   5.790
 3108POPC   GL241618   6.394  12.372   5.847
 3108POPC   C1A41619   6.496  11.884   6.224
 3108POPC   D2A41620   6.913  11.797   6.496
 3108POPC   C3A41621   6.787  11.791   6.962
 3108POPC   C4A41622   6.498  12.107   7.148
 3108POPC   C1B41623   6.674  12.349   6.214
 3108POPC   C2B41624   6.583  12.160   6.630
 3108POPC   C3B41625   6.919  12.266   6.824
 3108POPC   C4B41626   6.983  12.280   7.229
 3109POPC   NC341627   2.920   6.032   5.232
 3109POPC   PO441628   2.566   5.573   5.142
 3109POPC   GL141629   2.837   5.847   5.674
 3109POPC   GL241630   2.708   6.171   5.740
 3109POPC   C1A41631   2.755   5.775   6.171
 3109POPC   D2A41632   2.399   5.752   6.490
 3109POPC   C3A41633   2.518   5.833   6.932
 3109POPC   C4A41634   2.885   5.705   7.173
 3109POPC   C1B41635   2.856   6.267   6.187
 3109POPC   C2B41636   2.697   6.191   6.576
 3109POPC   C3B41637   2.893   6.232   6.968
 3109POPC   C4B41638   3.012   6.186   7.389
 3110POPC   NC341639   9.565   7.356   5.328
 3110POPC   PO441640  10.153   7.514   5.549
 3110POPC   GL141641   9.769   7.472   5.785
 3110POPC   GL241642   9.627   7.137   5.817
 3110POPC   C1A41643   9.547   7.525   6.164
 3110POPC   D2A41644   9.735   7.511   6.580
 3110POPC   C3A41645   9.633   7.286   6.967
 3110POPC   C4A41646   9.820   7.497   7.304
 3110POPC   C1B41647   9.953   7.157   6.182
 3110POPC   C2B41648  10.152   7.019   6.609
 3110POPC   C3B41649  10.108   7.095   7.080
 3110POPC   C4B41650  10.058   7.143   7.550
 3111POPC   NC341651  41.543  24.117   5.713
 3111POPC   PO441652  41.413  23.605   5.221
 3111POPC   GL141653  41.458  23.595   5.635
 3111POPC   GL241654  41.804  23.624   5.688
 3111POPC   C1A41655  41.465  23.506   6.079
 3111POPC   D2A41656  41.504  23.727   6.463
 3111POPC   C3A41657  41.659  23.453   6.791
 3111POPC   C4A41658  41.515  23.440   7.242
 3111POPC   C1B41659  41.928  23.760   6.131
 3111POPC   C2B41660  41.959  23.919   6.575
 3111POPC   C3B41661  41.726  23.920   6.979
 3111POPC   C4B41662  42.044  24.014   7.227
 3112POPC   NC341663  34.136   5.140   5.407
 3112POPC   PO441664  33.519   4.957   5.428
 3112POPC   GL141665  33.731   5.187   5.799
 3112POPC   GL241666  34.081   5.267   5.877
 3112POPC   C1A41667  33.749   5.247   6.242
 3112POPC   D2A41668  33.896   5.421   6.579
 3112POPC   C3A41669  33.699   5.322   6.928
 3112POPC   C4A41670  33.708   5.034   7.224
 3112POPC   C1B41671  34.262   5.148   6.248
 3112POPC   C2B41672  34.233   5.042   6.645
 3112POPC   C3B41673  34.098   4.808   6.953
 3112POPC   C4B41674  34.243   5.060   7.280
 3113POPC   NC341675  42.536   6.713   5.208
 3113POPC   PO441676  42.754   6.181   5.542
 3113POPC   GL141677  42.431   6.402   5.788
 3113POPC   GL241678  42.407   6.764   5.739
 3113POPC   C1A41679  42.250   6.477   6.209
 3113POPC   D2A41680  42.035   6.430   6.649
 3113POPC   C3A41681  42.371   6.454   6.966
 3113POPC   C4A41682  42.688   6.293   7.257
 3113POPC   C1B41683  42.243   6.988   6.106
 3113POPC   C2B41684  41.981   6.921   6.477
 3113POPC   C3B41685  42.095   6.897   6.910
 3113POPC   C4B41686  42.434   6.884   7.222
 3114POPC   NC341687  25.349  39.806   5.406
 3114POPC   PO441688  24.870  40.346   5.502
 3114POPC   GL141689  25.139  40.099   5.777
 3114POPC   GL241690  24.972  39.758   5.759
 3114POPC   C1A41691  25.405  40.017   6.151
 3114POPC   D2A41692  25.586  40.098   6.585
 3114POPC   C3A41693  25.291  40.103   6.924
 3114POPC   C4A41694  25.545  40.142   7.287
 3114POPC   C1B41695  25.086  39.579   6.154
 3114POPC   C2B41696  25.326  39.657   6.541
 3114POPC   C3B41697  25.464  39.643   6.963
 3114POPC   C4B41698  25.159  39.764   7.305
 3115POPC   NC341699  15.447   0.412   5.494
 3115POPC   PO441700  14.798   0.450   5.392
 3115POPC   GL141701  14.981   0.416   5.830
 3115POPC   GL241702  15.288   0.217   5.926
 3115POPC   C1A41703  14.903   0.399   6.291
 3115POPC   D2A41704  14.830   0.602   6.698
 3115POPC   C3A41705  14.950   0.387   7.089
 3115POPC   C4A41706  15.059   0.473   7.536
 3115POPC   C1B41707  15.352   0.140   6.351
 3115POPC   C2B41708  15.326   0.352   6.741
 3115POPC   C3B41709  15.459   0.381   7.203
 3115POPC   C4B41710  15.497   0.178   7.638
 3116POPC   NC341711  11.558  44.944   5.394
 3116POPC   PO441712  10.901  44.675   5.274
 3116POPC   GL141713  11.149  44.740   5.701
 3116POPC   GL241714  11.474  44.852   5.879
 3116POPC   C1A41715  11.110  44.609   6.154
 3116POPC   D2A41716  11.281  44.698   6.582
 3116POPC   C3A41717  11.072  44.511   6.961
 3116POPC   C4A41718  11.091  44.732   7.353
 3116POPC   C1B41719  11.613  44.554   6.193
 3116POPC   C2B41720  11.790  44.497   6.596
 3116POPC   C3B41721  11.579  44.543   6.976
 3116POPC   C4B41722  11.518  44.472   7.386
 3117POPC   NC341723  27.225  23.141   5.333
 3117POPC   PO441724  27.825  22.807   5.389
 3117POPC   GL141725  27.637  23.013   5.796
 3117POPC   GL241726  27.274  23.088   5.860
 3117POPC   C1A41727  27.631  22.988   6.268
 3117POPC   D2A41728  27.732  22.920   6.706
 3117POPC   C3A41729  27.721  22.586   7.051
 3117POPC   C4A41730  27.710  22.749   7.500
 3117POPC   C1B41731  27.162  22.788   6.168
 3117POPC   C2B41732  27.285  22.682   6.577
 3117POPC   C3B41733  27.283  22.815   6.985
 3117POPC   C4B41734  27.145  22.564   7.325
 3118POPC   NC341735   3.993   3.675   5.454
 3118POPC   PO441736   4.484   3.252   5.401
 3118POPC   GL141737   4.391   3.536   5.766
 3118POPC   GL241738   4.392   3.922   5.721
 3118POPC   C1A41739   4.500   3.643   6.181
 3118POPC   D2A41740   4.703   3.465   6.531
 3118POPC   C3A41741   4.484   3.548   6.913
 3118POPC   C4A41742   4.283   3.340   7.271
 3118POPC   C1B41743   4.142   4.019   6.080
 3118POPC   C2B41744   4.105   3.894   6.506
 3118POPC   C3B41745   4.229   4.027   6.905
 3118POPC   C4B41746   4.302   3.850   7.309
 3119POPC   NC341747  10.789   8.197   5.306
 3119POPC   PO441748  10.161   8.459   5.496
 3119POPC   GL141749  10.413   8.291   5.844
 3119POPC   GL241750  10.687   8.048   5.783
 3119POPC   C1A41751  10.270   8.239   6.263
 3119POPC   D2A41752  10.446   8.297   6.641
 3119POPC   C3A41753  10.189   8.358   6.982
 3119POPC   C4A41754  10.302   8.511   7.397
 3119POPC   C1B41755  10.553   7.833   6.136
 3119POPC   C2B41756  10.657   7.819   6.555
 3119POPC   C3B41757  10.461   7.890   6.948
 3119POPC   C4B41758  10.652   8.224   7.169
 3120POPC   NC341759  44.606  40.529   5.225
 3120POPC   PO441760  44.331  40.275   5.700
 3120POPC   GL141761  44.403  40.719   5.701
 3120POPC   GL241762  44.753  40.784   5.678
 3120POPC   C1A41763  44.406  40.961   6.098
 3120POPC   D2A41764  44.575  40.754   6.493
 3120POPC   C3A41765  44.295  40.518   6.793
 3120POPC   C4A41766  44.470  40.580   7.189
 3120POPC   C1B41767  44.907  40.877   6.096
 3120POPC   C2B41768   0.090  40.889   6.527
 3120POPC   C3B41769  44.909  40.818   6.917
 3120POPC   C4B41770  44.828  40.989   7.302
 3121POPC   NC341771  33.264  33.919   5.573
 3121POPC   PO441772  32.680  33.568   5.427
 3121POPC   GL141773  32.657  33.718   5.835
 3121POPC   GL241774  32.999  33.596   5.877
 3121POPC   C1A41775  32.801  33.959   6.213
 3121POPC   D2A41776  32.696  34.224   6.543
 3121POPC   C3A41777  32.725  34.022   6.915
 3121POPC   C4A41778  32.815  34.079   7.320
 3121POPC   C1B41779  32.982  33.472   6.298
 3121POPC   C2B41780  33.062  33.725   6.631
 3121POPC   C3B41781  33.018  33.561   7.008
 3121POPC   C4B41782  32.805  33.566   7.347
 3122POPC   NC341783   5.244  26.989   5.296
 3122POPC   PO441784   4.863  26.428   5.378
 3122POPC   GL141785   5.031  26.742   5.720
 3122POPC   GL241786   5.365  26.943   5.777
 3122POPC   C1A41787   5.097  26.766   6.174
 3122POPC   D2A41788   5.087  26.581   6.568
 3122POPC   C3A41789   5.030  26.816   6.931
 3122POPC   C4A41790   5.144  26.688   7.308
 3122POPC   C1B41791   5.349  27.234   6.129
 3122POPC   C2B41792   5.235  27.108   6.543
 3122POPC   C3B41793   5.402  27.311   6.895
 3122POPC   C4B41794   5.304  27.154   7.233
 3123POPC   NC341795  35.075  11.384   5.141
 3123POPC   PO441796  34.431  11.384   5.098
 3123POPC   GL141797  34.479  11.444   5.556
 3123POPC   GL241798  34.807  11.613   5.524
 3123POPC   C1A41799  34.483  11.317   6.010
 3123POPC   D2A41800  34.560  11.074   6.388
 3123POPC   C3A41801  34.609  11.193   6.802
 3123POPC   C4A41802  34.429  11.198   7.190
 3123POPC   C1B41803  34.875  11.673   5.972
 3123POPC   C2B41804  34.766  11.546   6.423
 3123POPC   C3B41805  34.842  11.640   6.852
 3123POPC   C4B41806  34.657  11.639   7.273
 3124POPC   NC341807  26.998   1.492   5.439
 3124POPC   PO441808  26.548   1.115   5.664
 3124POPC   GL141809  26.873   1.207   5.920
 3124POPC   GL241810  27.161   1.095   5.785
 3124POPC   C1A41811  26.926   1.196   6.363
 3124POPC   D2A41812  26.615   1.068   6.634
 3124POPC   C3A41813  26.670   1.239   7.023
 3124POPC   C4A41814  26.999   1.508   7.030
 3124POPC   C1B41815  27.234   0.846   6.149
 3124POPC   C2B41816  27.091   0.753   6.584
 3124POPC   C3B41817  27.148   0.993   6.954
 3124POPC   C4B41818  27.104   0.861   7.376
 3125POPC   NC341819  27.217  29.234   5.425
 3125POPC   PO441820  27.894  29.035   5.397
 3125POPC   GL141821  27.666  29.131   5.778
 3125POPC   GL241822  27.329  28.955   5.833
 3125POPC   C1A41823  27.696  28.958   6.195
 3125POPC   D2A41824  27.723  28.663   6.498
 3125POPC   C3A41825  27.825  28.882   6.853
 3125POPC   C4A41826  27.644  29.135   7.193
 3125POPC   C1B41827  27.198  29.046   6.252
 3125POPC   C2B41828  27.353  29.014   6.677
 3125POPC   C3B41829  27.387  28.650   6.952
 3125POPC   C4B41830  27.469  28.649   7.368
 3126POPC   NC341831  43.727  34.119   5.239
 3126POPC   PO441832  43.783  33.445   5.397
 3126POPC   GL141833  43.713  33.533   5.788
 3126POPC   GL241834  43.837  33.834   5.781
 3126POPC   C1A41835  43.577  33.645   6.174
 3126POPC   D2A41836  43.785  33.687   6.543
 3126POPC   C3A41837  43.587  33.673   6.918
 3126POPC   C4A41838  43.660  33.753   7.301
 3126POPC   C1B41839  44.101  33.632   6.122
 3126POPC   C2B41840  44.206  33.426   6.531
 3126POPC   C3B41841  44.159  33.687   6.915
 3126POPC   C4B41842  44.129  33.592   7.362
 3127POPC   NC341843   3.888  17.016   5.511
 3127POPC   PO441844   3.267  16.848   5.182
 3127POPC   GL141845   3.311  16.735   5.682
 3127POPC   GL241846   3.623  16.695   5.798
 3127POPC   C1A41847   3.357  16.927   6.185
 3127POPC   D2A41848   3.689  16.925   6.526
 3127POPC   C3A41849   3.525  16.809   6.929
 3127POPC   C4A41850   3.546  16.701   7.378
 3127POPC   C1B41851   3.648  16.524   6.212
 3127POPC   C2B41852   3.469  16.295   6.562
 3127POPC   C3B41853   3.497  16.303   7.016
 3127POPC   C4B41854   3.847  16.312   7.328
 3128POPC   NC341855  30.503   6.545   5.408
 3128POPC   PO441856  31.168   6.501   5.230
 3128POPC   GL141857  30.875   6.319   5.698
 3128POPC   GL241858  30.557   6.418   5.890
 3128POPC   C1A41859  30.940   6.494   6.201
 3128POPC   D2A41860  31.110   6.643   6.572
 3128POPC   C3A41861  30.827   6.750   6.897
 3128POPC   C4A41862  30.972   6.694   7.304
 3128POPC   C1B41863  30.489   6.268   6.325
 3128POPC   C2B41864  30.498   6.351   6.764
 3128POPC   C3B41865  30.456   6.535   7.171
 3128POPC   C4B41866  30.518   6.608   7.581
 3129POPC   NC341867  34.892  24.313   5.298
 3129POPC   PO441868  34.366  24.643   5.327
 3129POPC   GL141869  34.423  24.537   5.740
 3129POPC   GL241870  34.689  24.272   5.766
 3129POPC   C1A41871  34.386  24.687   6.166
 3129POPC   D2A41872  34.285  24.411   6.497
 3129POPC   C3A41873  34.425  24.420   6.895
 3129POPC   C4A41874  34.281  24.249   7.288
 3129POPC   C1B41875  34.636  24.225   6.182
 3129POPC   C2B41876  34.832  24.394   6.537
 3129POPC   C3B41877  35.044  24.369   6.917
 3129POPC   C4B41878  34.797  24.428   7.243
 3130POPC   NC341879  32.434  34.048   5.459
 3130POPC   PO441880  32.209  34.736   5.455
 3130POPC   GL141881  32.291  34.477   5.819
 3130POPC   GL241882  31.961  34.329   5.817
 3130POPC   C1A41883  32.392  34.533   6.278
 3130POPC   D2A41884  32.174  34.344   6.667
 3130POPC   C3A41885  32.355  34.377   7.092
 3130POPC   C4A41886  32.680  34.701   7.122
 3130POPC   C1B41887  31.899  34.520   6.230
 3130POPC   C2B41888  32.025  34.841   6.559
 3130POPC   C3B41889  32.028  34.853   7.014
 3130POPC   C4B41890  31.830  34.562   7.336
 3131POPC   NC341891  34.094  34.902   5.448
 3131POPC   PO441892  33.832  35.611   5.450
 3131POPC   GL141893  33.617  35.330   5.757
 3131POPC   GL241894  33.736  34.977   5.814
 3131POPC   C1A41895  33.627  35.365   6.212
 3131POPC   D2A41896  33.774  35.601   6.574
 3131POPC   C3A41897  33.629  35.394   6.943
 3131POPC   C4A41898  33.533  35.416   7.385
 3131POPC   C1B41899  34.045  35.054   6.128
 3131POPC   C2B41900  33.996  35.136   6.532
 3131POPC   C3B41901  34.126  34.995   6.898
 3131POPC   C4B41902  33.956  35.145   7.262
 3132POPC   NC341903   4.008  31.002   5.077
 3132POPC   PO441904   4.161  30.448   5.479
 3132POPC   GL141905   4.370  30.652   5.795
 3132POPC   GL241906   4.550  30.378   5.817
 3132POPC   C1A41907   4.419  30.762   6.231
 3132POPC   D2A41908   4.141  30.745   6.601
 3132POPC   C3A41909   4.180  30.949   7.016
 3132POPC   C4A41910   4.125  31.150   7.430
 3132POPC   C1B41911   4.755  30.389   6.174
 3132POPC   C2B41912   4.678  30.510   6.604
 3132POPC   C3B41913   4.417  30.489   6.961
 3132POPC   C4B41914   4.524  30.403   7.365
 3133POPC   NC341915  32.437   4.723   5.409
 3133POPC   PO441916  32.357   4.035   5.462
 3133POPC   GL141917  32.258   4.170   5.840
 3133POPC   GL241918  32.149   4.494   5.782
 3133POPC   C1A41919  32.371   4.214   6.255
 3133POPC   D2A41920  32.651   4.032   6.544
 3133POPC   C3A41921  32.351   3.948   6.854
 3133POPC   C4A41922  32.375   4.121   7.246
 3133POPC   C1B41923  32.103   4.670   6.177
 3133POPC   C2B41924  31.926   4.530   6.558
 3133POPC   C3B41925  32.152   4.424   6.894
 3133POPC   C4B41926  32.332   4.665   7.236
 3134POPC   NC341927  23.029  21.534   5.327
 3134POPC   PO441928  22.747  20.914   5.270
 3134POPC   GL141929  22.905  21.135   5.696
 3134POPC   GL241930  23.078  21.491   5.816
 3134POPC   C1A41931  22.918  21.166   6.160
 3134POPC   D2A41932  23.030  21.146   6.585
 3134POPC   C3A41933  22.796  21.331   6.912
 3134POPC   C4A41934  22.936  21.398   7.321
 3134POPC   C1B41935  22.959  21.701   6.197
 3134POPC   C2B41936  23.097  21.681   6.623
 3134POPC   C3B41937  22.981  21.805   7.020
 3134POPC   C4B41938  23.228  21.805   7.396
 3135POPC   NC341939   1.169  24.621   5.329
 3135POPC   PO441940   1.510  24.198   5.649
 3135POPC   GL141941   1.299  24.469   5.873
 3135POPC   GL241942   0.987  24.340   5.860
 3135POPC   C1A41943   1.226  24.445   6.324
 3135POPC   D2A41944   1.269  24.764   6.635
 3135POPC   C3A41945   1.347  24.666   7.082
 3135POPC   C4A41946   1.560  24.299   7.223
 3135POPC   C1B41947   0.789  24.148   6.236
 3135POPC   C2B41948   0.751  24.065   6.682
 3135POPC   C3B41949   0.695  24.147   7.124
 3135POPC   C4B41950   1.048  24.349   7.338
 3136POPC   NC341951   3.487  20.954   5.588
 3136POPC   PO441952   3.533  21.609   5.464
 3136POPC   GL141953   3.623  21.385   5.835
 3136POPC   GL241954   3.272  21.289   5.916
 3136POPC   C1A41955   3.606  21.103   6.235
 3136POPC   D2A41956   3.367  21.216   6.607
 3136POPC   C3A41957   3.681  21.284   6.914
 3136POPC   C4A41958   3.756  21.556   7.228
 3136POPC   C1B41959   3.458  21.594   6.248
 3136POPC   C2B41960   3.457  21.736   6.665
 3136POPC   C3B41961   3.269  21.599   7.070
 3136POPC   C4B41962   3.333  21.640   7.530
 3137POPC   NC341963  35.185  12.372   5.290
 3137POPC   PO441964  35.313  11.740   5.309
 3137POPC   GL141965  35.122  12.012   5.654
 3137POPC   GL241966  35.430  12.165   5.746
 3137POPC   C1A41967  35.101  12.106   6.115
 3137POPC   D2A41968  35.211  11.818   6.456
 3137POPC   C3A41969  35.162  12.035   6.845
 3137POPC   C4A41970  35.092  11.913   7.266
 3137POPC   C1B41971  35.615  12.044   6.186
 3137POPC   C2B41972  35.633  12.131   6.643
 3137POPC   C3B41973  35.607  12.047   7.109
 3137POPC   C4B41974  35.435  12.199   7.530
 3138POPC   NC341975   9.515   2.285   5.531
 3138POPC   PO441976   9.951   1.807   5.516
 3138POPC   GL141977   9.694   1.914   5.853
 3138POPC   GL241978   9.970   2.142   5.947
 3138POPC   C1A41979   9.568   2.114   6.262
 3138POPC   D2A41980   9.946   2.261   6.543
 3138POPC   C3A41981   9.835   2.180   6.979
 3138POPC   C4A41982   9.395   2.128   7.110
 3138POPC   C1B41983   9.948   1.788   6.285
 3138POPC   C2B41984   9.793   1.754   6.682
 3138POPC   C3B41985   9.973   1.647   7.083
 3138POPC   C4B41986   9.970   1.923   7.431
 3139POPC   NC341987   8.307  41.784   5.412
 3139POPC   PO441988   7.739  41.415   5.332
 3139POPC   GL141989   7.949  41.509   5.789
 3139POPC   GL241990   8.280  41.408   5.764
 3139POPC   C1A41991   8.119  41.455   6.290
 3139POPC   D2A41992   8.329  41.647   6.714
 3139POPC   C3A41993   8.135  41.747   7.142
 3139POPC   C4A41994   7.956  41.815   7.604
 3139POPC   C1B41995   8.523  41.202   6.080
 3139POPC   C2B41996   8.635  41.269   6.502
 3139POPC   C3B41997   8.575  41.197   6.958
 3139POPC   C4B41998   8.408  41.358   7.341
 3140POPC   NC341999  18.705  20.526   5.433
 3140POPC   PO442000  19.248  20.937   5.588
 3140POPC   GL142001  19.221  20.597   5.871
 3140POPC   GL242002  18.885  20.517   5.904
 3140POPC   C1A42003  19.209  20.665   6.320
 3140POPC   D2A42004  19.010  20.920   6.655
 3140POPC   C3A42005  18.981  20.758   7.073
 3140POPC   C4A42006  19.191  20.394   7.156
 3140POPC   C1B42007  18.769  20.383   6.297
 3140POPC   C2B42008  18.907  20.390   6.720
 3140POPC   C3B42009  18.673  20.353   7.136
 3140POPC   C4B42010  18.501  20.238   7.564
 3141POPC   NC342011  31.115  12.735   5.515
 3141POPC   PO442012  30.505  12.585   5.227
 3141POPC   GL142013  30.501  12.855   5.666
 3141POPC   GL242014  30.848  12.972   5.855
 3141POPC   C1A42015  30.461  12.838   6.146
 3141POPC   D2A42016  30.779  12.922   6.472
 3141POPC   C3A42017  30.632  12.935   6.892
 3141POPC   C4A42018  30.899  13.086   7.201
 3141POPC   C1B42019  30.964  12.588   6.130
 3141POPC   C2B42020  31.052  12.479   6.570
 3141POPC   C3B42021  31.117  12.673   6.978
 3141POPC   C4B42022  30.935  12.614   7.377
 3142POPC   NC342023  18.500   2.099   5.399
 3142POPC   PO442024  17.944   2.342   5.211
 3142POPC   GL142025  18.092   2.029   5.659
 3142POPC   GL242026  18.393   1.753   5.755
 3142POPC   C1A42027  18.222   2.061   6.098
 3142POPC   D2A42028  18.045   2.241   6.461
 3142POPC   C3A42029  18.243   2.119   6.831
 3142POPC   C4A42030  18.209   2.097   7.248
 3142POPC   C1B42031  18.628   1.759   6.181
 3142POPC   C2B42032  18.598   1.780   6.652
 3142POPC   C3B42033  18.537   1.705   7.085
 3142POPC   C4B42034  18.494   1.801   7.562
 3143POPC   NC342035  13.287  26.848   5.563
 3143POPC   PO442036  13.836  26.573   5.395
 3143POPC   GL142037  13.761  26.922   5.728
 3143POPC   GL242038  13.603  26.686   5.920
 3143POPC   C1A42039  13.797  27.103   6.185
 3143POPC   D2A42040  13.881  27.013   6.658
 3143POPC   C3A42041  13.532  26.960   7.012
 3143POPC   C4A42042  13.361  26.965   7.467
 3143POPC   C1B42043  13.492  26.679   6.345
 3143POPC   C2B42044  13.767  26.517   6.635
 3143POPC   C3B42045  13.723  26.447   7.043
 3143POPC   C4B42046  13.324  26.529   7.211
 3144POPC   NC342047  42.657  10.241   5.086
 3144POPC   PO442048  43.157  10.192   5.530
 3144POPC   GL142049  43.209   9.950   5.881
 3144POPC   GL242050  43.186   9.599   5.788
 3144POPC   C1A42051  43.045  10.036   6.288
 3144POPC   D2A42052  42.881   9.877   6.643
 3144POPC   C3A42053  43.018   9.921   7.008
 3144POPC   C4A42054  42.719   9.833   7.215
 3144POPC   C1B42055  43.224   9.523   6.232
 3144POPC   C2B42056  43.013   9.390   6.615
 3144POPC   C3B42057  43.108   9.419   7.042
 3144POPC   C4B42058  43.174   9.418   7.465
 3145POPC   NC342059  22.118   4.619   5.386
 3145POPC   PO442060  22.109   5.319   5.363
 3145POPC   GL142061  22.255   5.085   5.726
 3145POPC   GL242062  21.939   4.907   5.774
 3145POPC   C1A42063  22.404   5.275   6.118
 3145POPC   D2A42064  22.189   5.384   6.490
 3145POPC   C3A42065  22.380   5.495   6.862
 3145POPC   C4A42066  22.453   5.385   7.293
 3145POPC   C1B42067  22.058   4.918   6.212
 3145POPC   C2B42068  21.943   4.956   6.642
 3145POPC   C3B42069  22.146   5.030   7.027
 3145POPC   C4B42070  21.938   4.829   7.335
 3146POPC   NC342071  25.244  38.781   5.381
 3146POPC   PO442072  25.135  39.386   5.414
 3146POPC   GL142073  25.391  39.391   5.772
 3146POPC   GL242074  25.233  39.064   5.842
 3146POPC   C1A42075  25.498  39.284   6.214
 3146POPC   D2A42076  25.207  39.152   6.545
 3146POPC   C3A42077  25.402  39.110   6.980
 3146POPC   C4A42078  25.544  39.361   7.364
 3146POPC   C1B42079  24.843  39.116   6.118
 3146POPC   C2B42080  24.639  39.045   6.519
 3146POPC   C3B42081  24.880  38.990   6.912
 3146POPC   C4B42082  24.999  39.274   7.236
 3147POPC   NC342083   8.051  22.861   5.223
 3147POPC   PO442084   8.736  22.873   5.372
 3147POPC   GL142085   8.350  23.004   5.628
 3147POPC   GL242086   8.432  22.762   5.880
 3147POPC   C1A42087   8.012  23.027   5.994
 3147POPC   D2A42088   8.117  22.874   6.432
 3147POPC   C3A42089   7.938  22.913   6.859
 3147POPC   C4A42090   7.920  22.785   7.301
 3147POPC   C1B42091   8.472  23.187   6.109
 3147POPC   C2B42092   8.409  23.290   6.520
 3147POPC   C3B42093   8.502  23.070   6.871
 3147POPC   C4B42094   8.262  23.153   7.191
 3148POPC   NC342095   2.206  43.248   5.263
 3148POPC   PO442096   2.849  43.080   5.223
 3148POPC   GL142097   2.922  43.068   5.688
 3148POPC   GL242098   3.127  42.838   5.859
 3148POPC   C1A42099   2.635  43.056   6.047
 3148POPC   D2A42100   2.546  43.298   6.430
 3148POPC   C3A42101   2.508  43.112   6.848
 3148POPC   C4A42102   2.467  43.228   7.266
 3148POPC   C1B42103   3.094  43.177   6.215
 3148POPC   C2B42104   3.002  43.178   6.686
 3148POPC   C3B42105   2.992  43.302   7.133
 3148POPC   C4B42106   3.109  43.363   7.586
 3149POPC   NC342107  28.257  26.279   5.459
 3149POPC   PO442108  28.805  25.917   5.579
 3149POPC   GL142109  28.522  26.036   5.903
 3149POPC   GL242110  28.224  25.886   5.817
 3149POPC   C1A42111  28.537  26.027   6.357
 3149POPC   D2A42112  28.454  26.239   6.771
 3149POPC   C3A42113  28.542  26.090   7.195
 3149POPC   C4A42114  28.720  26.375   7.531
 3149POPC   C1B42115  28.085  25.739   6.201
 3149POPC   C2B42116  28.169  25.826   6.635
 3149POPC   C3B42117  28.358  25.648   6.989
 3149POPC   C4B42118  28.275  25.715   7.439
 3150POPC   NC342119  29.776   4.990   5.166
 3150POPC   PO442120  30.100   5.524   5.281
 3150POPC   GL142121  29.944   5.400   5.722
 3150POPC   GL242122  29.718   5.099   5.727
 3150POPC   C1A42123  29.834   5.296   6.176
 3150POPC   D2A42124  29.662   5.117   6.573
 3150POPC   C3A42125  29.864   5.281   6.942
 3150POPC   C4A42126  30.230   5.196   7.219
 3150POPC   C1B42127  29.523   4.851   6.124
 3150POPC   C2B42128  29.377   4.699   6.565
 3150POPC   C3B42129  29.475   4.824   6.976
 3150POPC   C4B42130  29.801   4.923   7.286
 3151POPC   NC342131  22.655  40.027   5.532
 3151POPC   PO442132  21.987  40.033   5.294
 3151POPC   GL142133  22.084  39.961   5.727
 3151POPC   GL242134  21.794  39.730   5.767
 3151POPC   C1A42135  22.220  40.149   6.129
 3151POPC   D2A42136  22.478  40.045   6.492
 3151POPC   C3A42137  22.276  40.184   6.872
 3151POPC   C4A42138  22.405  40.189   7.289
 3151POPC   C1B42139  21.998  39.676   6.193
 3151POPC   C2B42140  22.211  39.620   6.632
 3151POPC   C3B42141  22.202  39.721   7.117
 3151POPC   C4B42142  22.026  39.455   7.481
 3152POPC   NC342143  18.852   9.629   5.363
 3152POPC   PO442144  19.251  10.144   5.347
 3152POPC   GL142145  18.942  10.026   5.704
 3152POPC   GL242146  19.074   9.690   5.807
 3152POPC   C1A42147  18.799   9.920   6.160
 3152POPC   D2A42148  18.859   9.609   6.506
 3152POPC   C3A42149  19.018   9.730   6.893
 3152POPC   C4A42150  18.768  10.007   7.116
 3152POPC   C1B42151  19.260   9.613   6.174
 3152POPC   C2B42152  19.394   9.508   6.572
 3152POPC   C3B42153  19.361   9.350   6.971
 3152POPC   C4B42154  19.411   9.459   7.393
 3153POPC   NC342155  41.937  40.941   5.404
 3153POPC   PO442156  41.729  40.339   5.359
 3153POPC   GL142157  41.700  40.641   5.749
 3153POPC   GL242158  41.634  41.011   5.796
 3153POPC   C1A42159  41.674  40.666   6.206
 3153POPC   D2A42160  41.844  40.569   6.640
 3153POPC   C3A42161  41.590  40.653   6.997
 3153POPC   C4A42162  41.231  40.599   7.290
 3153POPC   C1B42163  41.741  41.194   6.185
 3153POPC   C2B42164  41.670  41.073   6.607
 3153POPC   C3B42165  41.673  41.209   7.034
 3153POPC   C4B42166  41.778  41.071   7.434
 3154POPC   NC342167  42.499  26.694   5.371
 3154POPC   PO442168  42.151  27.257   5.396
 3154POPC   GL142169  42.163  27.046   5.782
 3154POPC   GL242170  42.484  26.840   5.856
 3154POPC   C1A42171  42.126  26.932   6.210
 3154POPC   D2A42172  42.304  26.715   6.551
 3154POPC   C3A42173  42.228  26.928   6.923
 3154POPC   C4A42174  42.465  26.976   7.287
 3154POPC   C1B42175  42.601  26.525   6.164
 3154POPC   C2B42176  42.760  26.456   6.599
 3154POPC   C3B42177  42.618  26.576   6.999
 3154POPC   C4B42178  42.590  26.501   7.462
 3155POPC   NC342179  35.782  24.592   5.195
 3155POPC   PO442180  36.321  24.297   5.425
 3155POPC   GL142181  36.376  24.371   5.813
 3155POPC   GL242182  36.089  24.422   5.990
 3155POPC   C1A42183  36.541  24.613   6.143
 3155POPC   D2A42184  36.364  24.474   6.539
 3155POPC   C3A42185  36.419  24.643   6.958
 3155POPC   C4A42186  36.332  24.370   7.323
 3155POPC   C1B42187  35.734  24.293   6.216
 3155POPC   C2B42188  35.796  24.150   6.601
 3155POPC   C3B42189  36.027  24.264   6.928
 3155POPC   C4B42190  35.840  24.202   7.343
 3156POPC   NC342191   7.076  41.835   5.478
 3156POPC   PO442192   6.615  41.392   5.280
 3156POPC   GL142193   6.607  41.300   5.700
 3156POPC   GL242194   6.776  41.591   5.841
 3156POPC   C1A42195   6.689  41.156   6.111
 3156POPC   D2A42196   6.659  41.394   6.470
 3156POPC   C3A42197   6.743  41.195   6.854
 3156POPC   C4A42198   6.865  41.321   7.246
 3156POPC   C1B42199   6.966  41.913   6.157
 3156POPC   C2B42200   7.016  41.804   6.569
 3156POPC   C3B42201   6.743  41.699   6.874
 3156POPC   C4B42202   6.674  41.835   7.233
 3157POPC   NC342203  36.754   3.364   5.051
 3157POPC   PO442204  37.079   2.834   5.322
 3157POPC   GL142205  36.977   2.882   5.766
 3157POPC   GL242206  36.771   2.587   5.835
 3157POPC   C1A42207  36.843   3.049   6.201
 3157POPC   D2A42208  36.971   3.264   6.614
 3157POPC   C3A42209  36.888   3.054   7.019
 3157POPC   C4A42210  36.594   2.759   7.202
 3157POPC   C1B42211  36.968   2.540   6.223
 3157POPC   C2B42212  37.029   2.728   6.632
 3157POPC   C3B42213  36.994   2.526   7.037
 3157POPC   C4B42214  37.014   2.675   7.482
 3158POPC   NC342215  28.885  14.802   5.361
 3158POPC   PO442216  28.750  14.146   5.510
 3158POPC   GL142217  29.031  14.395   5.702
 3158POPC   GL242218  28.797  14.634   5.836
 3158POPC   C1A42219  29.306  14.258   6.030
 3158POPC   D2A42220  29.376  14.418   6.424
 3158POPC   C3A42221  29.422  14.296   6.820
 3158POPC   C4A42222  29.415  14.623   7.064
 3158POPC   C1B42223  28.870  14.435   6.232
 3158POPC   C2B42224  28.937  14.338   6.659
 3158POPC   C3B42225  28.886  14.485   7.057
 3158POPC   C4B42226  28.837  14.290   7.452
 3159POPC   NC342227   9.513  16.387   5.326
 3159POPC   PO442228   9.559  17.019   5.375
 3159POPC   GL142229   9.644  16.748   5.760
 3159POPC   GL242230   9.937  16.507   5.681
 3159POPC   C1A42231   9.619  16.865   6.228
 3159POPC   D2A42232   9.546  17.143   6.608
 3159POPC   C3A42233   9.454  17.011   7.048
 3159POPC   C4A42234   9.585  17.054   7.473
 3159POPC   C1B42235   9.937  16.433   6.123
 3159POPC   C2B42236   9.720  16.437   6.492
 3159POPC   C3B42237   9.783  16.678   6.855
 3159POPC   C4B42238   9.808  16.537   7.243
 3160POPC   NC342239  16.302   6.573   5.102
 3160POPC   PO442240  16.821   6.582   5.537
 3160POPC   GL142241  16.737   6.768   5.921
 3160POPC   GL242242  16.380   6.808   5.866
 3160POPC   C1A42243  16.856   6.608   6.327
 3160POPC   D2A42244  17.098   6.375   6.612
 3160POPC   C3A42245  16.878   6.418   6.987
 3160POPC   C4A42246  16.837   6.787   7.187
 3160POPC   C1B42247  16.386   6.830   6.311
 3160POPC   C2B42248  16.524   6.746   6.744
 3160POPC   C3B42249  16.338   6.701   7.172
 3160POPC   C4B42250  16.370   6.781   7.639
 3161POPC   NC342251  43.801  19.583   5.286
 3161POPC   PO442252  43.594  18.963   5.201
 3161POPC   GL142253  43.542  18.983   5.682
 3161POPC   GL242254  43.512  19.331   5.806
 3161POPC   C1A42255  43.686  18.991   6.150
 3161POPC   D2A42256  43.691  18.965   6.624
 3161POPC   C3A42257  44.042  19.078   6.908
 3161POPC   C4A42258  44.219  18.835   7.243
 3161POPC   C1B42259  43.717  19.551   6.183
 3161POPC   C2B42260  43.763  19.716   6.613
 3161POPC   C3B42261  43.745  19.514   7.015
 3161POPC   C4B42262  43.582  19.111   7.197
 3162POPC   NC342263  14.542  10.150   5.427
 3162POPC   PO442264  13.960   9.853   5.290
 3162POPC   GL142265  14.200   9.688   5.677
 3162POPC   GL242266  14.601   9.665   5.717
 3162POPC   C1A42267  14.259   9.781   6.133
 3162POPC   D2A42268  14.426   9.511   6.487
 3162POPC   C3A42269  14.240   9.599   6.919
 3162POPC   C4A42270  14.375   9.500   7.351
 3162POPC   C1B42271  14.755   9.806   6.154
 3162POPC   C2B42272  14.599   9.981   6.550
 3162POPC   C3B42273  14.553  10.019   6.991
 3162POPC   C4B42274  14.882  10.028   7.241
 3163POPC   NC342275   9.117  41.883   5.480
 3163POPC   PO442276   8.638  41.402   5.375
 3163POPC   GL142277   8.723  41.646   5.717
 3163POPC   GL242278   8.997  41.459   5.777
 3163POPC   C1A42279   8.751  41.672   6.172
 3163POPC   D2A42280   9.093  41.666   6.467
 3163POPC   C3A42281   8.869  41.592   6.819
 3163POPC   C4A42282   8.788  41.632   7.211
 3163POPC   C1B42283   9.047  41.245   6.178
 3163POPC   C2B42284   9.115  41.175   6.639
 3163POPC   C3B42285   9.179  41.267   7.070
 3163POPC   C4B42286   8.938  41.186   7.427
 3164POPC   NC342287  17.472   5.556   5.550
 3164POPC   PO442288  17.411   6.153   5.447
 3164POPC   GL142289  17.492   6.030   5.854
 3164POPC   GL242290  17.801   5.850   5.857
 3164POPC   C1A42291  17.225   6.061   6.204
 3164POPC   D2A42292  17.292   5.892   6.617
 3164POPC   C3A42293  17.267   6.093   7.017
 3164POPC   C4A42294  17.309   5.968   7.445
 3164POPC   C1B42295  17.612   5.666   6.258
 3164POPC   C2B42296  17.618   5.518   6.729
 3164POPC   C3B42297  17.663   5.763   7.137
 3164POPC   C4B42298  17.663   5.623   7.589
 3165POPC   NC342299  14.078   0.044   5.611
 3165POPC   PO442300  14.615  44.633   5.529
 3165POPC   GL142301  14.308  44.650   5.846
 3165POPC   GL242302  14.522  44.635   6.047
 3165POPC   C1A42303  14.083  44.757   6.278
 3165POPC   D2A42304  13.983  44.937   6.717
 3165POPC   C3A42305  14.019  44.732   7.138
 3165POPC   C4A42306  14.158  44.928   7.541
 3165POPC   C1B42307  14.641  44.520   6.422
 3165POPC   C2B42308  14.438  44.710   6.760
 3165POPC   C3B42309  14.521  44.726   7.176
 3165POPC   C4B42310  14.706  44.423   7.289
 3166POPC   NC342311  10.678  23.976   5.229
 3166POPC   PO442312  10.293  24.505   5.025
 3166POPC   GL142313  10.327  24.351   5.544
 3166POPC   GL242314  10.462  24.635   5.808
 3166POPC   C1A42315  10.545  24.170   5.995
 3166POPC   D2A42316  10.760  23.962   6.401
 3166POPC   C3A42317  10.718  24.164   6.847
 3166POPC   C4A42318  10.440  24.430   7.124
 3166POPC   C1B42319  10.602  24.809   6.266
 3166POPC   C2B42320  10.636  24.755   6.752
 3166POPC   C3B42321  10.730  24.916   7.186
 3166POPC   C4B42322  10.649  25.052   7.687
 3167POPC   NC342323  40.114  10.056   5.491
 3167POPC   PO442324  40.394   9.515   5.557
 3167POPC   GL142325  40.245   9.748   5.934
 3167POPC   GL242326  39.957   9.983   5.973
 3167POPC   C1A42327  40.273   9.704   6.390
 3167POPC   D2A42328  40.245   9.896   6.809
 3167POPC   C3A42329  40.210   9.591   7.121
 3167POPC   C4A42330  40.061   9.614   7.517
 3167POPC   C1B42331  40.022  10.145   6.393
 3167POPC   C2B42332  39.861  10.240   6.797
 3167POPC   C3B42333  39.863   9.997   7.195
 3167POPC   C4B42334  39.665  10.033   7.590
 3168POPC   NC342335   1.808   7.410   5.425
 3168POPC   PO442336   1.201   7.623   5.144
 3168POPC   GL142337   1.266   7.531   5.625
 3168POPC   GL242338   1.530   7.678   5.795
 3168POPC   C1A42339   1.109   7.340   6.028
 3168POPC   D2A42340   1.294   7.213   6.427
 3168POPC   C3A42341   1.173   7.252   6.884
 3168POPC   C4A42342   1.110   6.964   7.211
 3168POPC   C1B42343   1.386   7.724   6.249
 3168POPC   C2B42344   1.484   7.619   6.703
 3168POPC   C3B42345   1.323   7.677   7.135
 3168POPC   C4B42346   0.991   7.659   7.471
 3169POPC   NC342347   6.311  11.235   5.523
 3169POPC   PO442348   5.681  11.011   5.531
 3169POPC   GL142349   5.750  11.045   5.940
 3169POPC   GL242350   5.927  11.343   5.876
 3169POPC   C1A42351   5.888  10.992   6.375
 3169POPC   D2A42352   6.152  11.170   6.695
 3169POPC   C3A42353   6.020  11.119   7.102
 3169POPC   C4A42354   6.093  10.999   7.523
 3169POPC   C1B42355   6.143  11.443   6.238
 3169POPC   C2B42356   6.085  11.755   6.550
 3169POPC   C3B42357   6.225  11.713   6.982
 3169POPC   C4B42358   6.237  11.599   7.456
 3170POPC   NC342359  44.053   2.225   5.681
 3170POPC   PO442360  43.631   2.547   5.227
 3170POPC   GL142361  43.692   2.651   5.691
 3170POPC   GL242362  44.007   2.787   5.775
 3170POPC   C1A42363  43.760   2.574   6.165
 3170POPC   D2A42364  43.889   2.769   6.548
 3170POPC   C3A42365  43.700   2.621   6.960
 3170POPC   C4A42366  43.864   2.661   7.377
 3170POPC   C1B42367  44.083   3.065   6.117
 3170POPC   C2B42368  44.271   3.119   6.538
 3170POPC   C3B42369  44.053   3.045   6.948
 3170POPC   C4B42370  44.167   3.076   7.355
 3171POPC   NC342371  36.016  22.382   5.094
 3171POPC   PO442372  36.021  22.980   5.358
 3171POPC   GL142373  35.981  22.993   5.808
 3171POPC   GL242374  35.828  22.684   5.813
 3171POPC   C1A42375  36.258  22.853   6.201
 3171POPC   D2A42376  36.511  22.836   6.606
 3171POPC   C3A42377  36.304  22.899   7.027
 3171POPC   C4A42378  36.315  23.002   7.499
 3171POPC   C1B42379  35.753  22.848   6.239
 3171POPC   C2B42380  35.957  23.062   6.572
 3171POPC   C3B42381  35.743  22.950   6.923
 3171POPC   C4B42382  35.859  22.848   7.318
 3172POPC   NC342383  26.574   6.795   5.454
 3172POPC   PO442384  27.069   6.432   5.247
 3172POPC   GL142385  27.054   6.552   5.726
 3172POPC   GL242386  26.714   6.655   5.916
 3172POPC   C1A42387  27.103   6.567   6.198
 3172POPC   D2A42388  26.981   6.939   6.458
 3172POPC   C3A42389  26.871   6.768   6.853
 3172POPC   C4A42390  27.189   6.759   7.200
 3172POPC   C1B42391  26.596   6.621   6.371
 3172POPC   C2B42392  26.381   6.320   6.641
 3172POPC   C3B42393  26.436   6.262   7.059
 3172POPC   C4B42394  26.557   6.622   7.304
 3173POPC   NC342395  20.775  20.002   5.536
 3173POPC   PO442396  20.331  19.474   5.339
 3173POPC   GL142397  20.524  19.568   5.748
 3173POPC   GL242398  20.340  19.864   5.867
 3173POPC   C1A42399  20.648  19.669   6.199
 3173POPC   D2A42400  20.496  19.943   6.540
 3173POPC   C3A42401  20.550  19.710   6.916
 3173POPC   C4A42402  20.723  19.894   7.297
 3173POPC   C1B42403  20.125  20.086   6.207
 3173POPC   C2B42404  20.034  20.167   6.668
 3173POPC   C3B42405  20.289  20.122   7.074
 3173POPC   C4B42406  20.302  20.029   7.561
 3174POPC   NC342407  30.856  10.332   5.378
 3174POPC   PO442408  31.084  10.968   5.485
 3174POPC   GL142409  31.012  10.809   5.865
 3174POPC   GL242410  30.892  10.476   5.856
 3174POPC   C1A42411  30.753  10.809   6.236
 3174POPC   D2A42412  30.512  10.619   6.562
 3174POPC   C3A42413  30.598  10.633   6.984
 3174POPC   C4A42414  30.848  10.882   7.275
 3174POPC   C1B42415  30.661  10.259   6.160
 3174POPC   C2B42416  30.506  10.083   6.532
 3174POPC   C3B42417  30.214  10.279   6.801
 3174POPC   C4B42418  30.292  10.276   7.210
 3175POPC   NC342419   3.329  20.396   5.199
 3175POPC   PO442420   3.832  20.656   5.524
 3175POPC   GL142421   3.572  20.487   5.847
 3175POPC   GL242422   3.263  20.396   5.718
 3175POPC   C1A42423   3.631  20.578   6.300
 3175POPC   D2A42424   3.362  20.710   6.641
 3175POPC   C3A42425   3.473  20.838   7.047
 3175POPC   C4A42426   3.536  20.680   7.471
 3175POPC   C1B42427   3.170  20.372   6.199
 3175POPC   C2B42428   3.353  20.209   6.622
 3175POPC   C3B42429   3.408  20.332   7.086
 3175POPC   C4B42430   3.068  20.331   7.440
 3176POPC   NC342431  32.255  24.644   5.309
 3176POPC   PO442432  32.434  24.173   5.637
 3176POPC   GL142433  32.515  24.522   5.843
 3176POPC   GL242434  32.162  24.630   5.827
 3176POPC   C1A42435  32.432  24.580   6.265
 3176POPC   D2A42436  32.062  24.734   6.524
 3176POPC   C3A42437  32.068  24.516   6.921
 3176POPC   C4A42438  32.487  24.367   7.089
 3176POPC   C1B42439  32.004  24.335   6.157
 3176POPC   C2B42440  31.969  24.038   6.503
 3176POPC   C3B42441  32.039  24.001   6.956
 3176POPC   C4B42442  31.842  24.163   7.322
 3177POPC   NC342443   9.899  23.448   5.568
 3177POPC   PO442444  10.441  23.545   5.099
 3177POPC   GL142445  10.445  23.598   5.545
 3177POPC   GL242446  10.257  23.853   5.718
 3177POPC   C1A42447  10.680  23.658   5.952
 3177POPC   D2A42448  10.608  23.453   6.385
 3177POPC   C3A42449  10.594  23.658   6.816
 3177POPC   C4A42450  10.701  23.538   7.279
 3177POPC   C1B42451  10.199  23.627   6.121
 3177POPC   C2B42452  10.072  23.722   6.545
 3177POPC   C3B42453  10.219  24.028   6.830
 3177POPC   C4B42454  10.348  23.903   7.226
 3178POPC   NC342455  25.459  21.912   5.632
 3178POPC   PO442456  25.207  22.445   5.314
 3178POPC   GL142457  25.222  22.369   5.769
 3178POPC   GL242458  25.589  22.441   5.790
 3178POPC   C1A42459  25.139  22.123   6.192
 3178POPC   D2A42460  25.060  22.285   6.626
 3178POPC   C3A42461  24.923  22.057   7.002
 3178POPC   C4A42462  25.259  21.950   7.283
 3178POPC   C1B42463  25.653  22.217   6.172
 3178POPC   C2B42464  25.620  21.928   6.498
 3178POPC   C3B42465  25.582  22.016   6.913
 3178POPC   C4B42466  25.659  22.247   7.287
 3179POPC   NC342467   4.926   3.252   5.495
 3179POPC   PO442468   5.528   3.372   5.591
 3179POPC   GL142469   5.165   3.531   5.856
 3179POPC   GL242470   4.860   3.291   6.003
 3179POPC   C1A42471   5.065   3.707   6.246
 3179POPC   D2A42472   5.289   3.552   6.589
 3179POPC   C3A42473   5.038   3.546   6.931
 3179POPC   C4A42474   4.840   3.543   7.303
 3179POPC   C1B42475   5.248   3.165   6.202
 3179POPC   C2B42476   5.537   3.094   6.522
 3179POPC   C3B42477   5.538   3.226   6.943
 3179POPC   C4B42478   5.179   3.093   7.182
 3180POPC   NC342479  17.529  35.271   5.118
 3180POPC   PO442480  17.272  35.688   5.393
 3180POPC   GL142481  17.541  35.590   5.787
 3180POPC   GL242482  17.563  35.219   5.846
 3180POPC   C1A42483  17.710  35.530   6.245
 3180POPC   D2A42484  17.609  35.322   6.641
 3180POPC   C3A42485  17.488  35.451   7.055
 3180POPC   C4A42486  17.176  35.688   7.325
 3180POPC   C1B42487  17.430  35.025   6.260
 3180POPC   C2B42488  17.168  35.052   6.673
 3180POPC   C3B42489  17.062  35.175   7.128
 3180POPC   C4B42490  17.339  35.209   7.509
 3181POPC   NC342491   2.539  41.585   5.445
 3181POPC   PO442492   3.085  41.157   5.332
 3181POPC   GL142493   2.851  41.361   5.768
 3181POPC   GL242494   2.716  41.731   5.893
 3181POPC   C1A42495   2.737  41.343   6.222
 3181POPC   D2A42496   2.763  41.538   6.629
 3181POPC   C3A42497   2.661  41.329   7.023
 3181POPC   C4A42498   2.733  41.523   7.455
 3181POPC   C1B42499   2.409  41.725   6.253
 3181POPC   C2B42500   2.377  41.865   6.674
 3181POPC   C3B42501   2.615  41.861   7.045
 3181POPC   C4B42502   2.335  41.851   7.375
 3182POPC   NC342503  19.320   1.335   5.269
 3182POPC   PO442504  18.749   1.715   5.355
 3182POPC   GL142505  18.772   1.393   5.695
 3182POPC   GL242506  19.074   1.160   5.728
 3182POPC   C1A42507  18.662   1.248   6.115
 3182POPC   D2A42508  18.857   1.374   6.500
 3182POPC   C3A42509  18.734   1.231   6.903
 3182POPC   C4A42510  18.851   0.878   7.183
 3182POPC   C1B42511  19.239   1.256   6.170
 3182POPC   C2B42512  19.344   1.273   6.650
 3182POPC   C3B42513  19.226   1.245   7.119
 3182POPC   C4B42514  19.515   1.245   7.489
 3183POPC   NC342515  20.828  17.352   5.476
 3183POPC   PO442516  20.417  17.833   5.725
 3183POPC   GL142517  20.762  17.609   5.916
 3183POPC   GL242518  20.535  17.348   5.885
 3183POPC   C1A42519  20.870  17.708   6.346
 3183POPC   D2A42520  20.577  17.909   6.619
 3183POPC   C3A42521  20.491  17.747   7.019
 3183POPC   C4A42522  20.784  17.706   7.357
 3183POPC   C1B42523  20.629  17.265   6.294
 3183POPC   C2B42524  20.680  17.348   6.690
 3183POPC   C3B42525  20.715  17.271   7.080
 3183POPC   C4B42526  20.446  17.227   7.416
 3184POPC   NC342527  35.888  40.660   5.290
 3184POPC   PO442528  36.471  41.003   5.422
 3184POPC   GL142529  36.191  41.030   5.782
 3184POPC   GL242530  35.827  40.964   5.756
 3184POPC   C1A42531  36.138  40.815   6.198
 3184POPC   D2A42532  36.358  40.680   6.582
 3184POPC   C3A42533  36.148  40.632   6.967
 3184POPC   C4A42534  36.244  40.733   7.392
 3184POPC   C1B42535  35.621  40.882   6.148
 3184POPC   C2B42536  35.752  40.977   6.551
 3184POPC   C3B42537  35.660  40.808   6.933
 3184POPC   C4B42538  35.750  40.609   7.329
 3185POPC   NC342539   9.114  17.876   5.378
 3185POPC   PO442540   8.659  17.438   5.268
 3185POPC   GL142541   8.828  17.468   5.731
 3185POPC   GL242542   9.195  17.575   5.782
 3185POPC   C1A42543   8.747  17.371   6.209
 3185POPC   D2A42544   8.443  17.409   6.581
 3185POPC   C3A42545   8.678  17.497   6.989
 3185POPC   C4A42546   9.124  17.519   7.150
 3185POPC   C1B42547   9.407  17.940   6.021
 3185POPC   C2B42548   9.339  17.985   6.449
 3185POPC   C3B42549   9.380  17.870   6.867
 3185POPC   C4B42550   9.283  18.020   7.255
 3186POPC   NC342551  15.473  42.013   5.113
 3186POPC   PO442552  15.177  42.450   5.592
 3186POPC   GL142553  15.344  42.671   5.926
 3186POPC   GL242554  15.655  42.565   5.826
 3186POPC   C1A42555  15.178  42.591   6.339
 3186POPC   D2A42556  15.048  42.202   6.588
 3186POPC   C3A42557  14.966  42.130   7.047
 3186POPC   C4A42558  14.996  42.501   7.214
 3186POPC   C1B42559  15.741  42.416   6.228
 3186POPC   C2B42560  15.564  42.420   6.617
 3186POPC   C3B42561  15.446  42.253   6.956
 3186POPC   C4B42562  15.483  42.283   7.367
 3187POPC   NC342563  21.402  24.301   5.471
 3187POPC   PO442564  21.738  24.919   5.320
 3187POPC   GL142565  21.664  24.766   5.733
 3187POPC   GL242566  21.349  24.873   5.855
 3187POPC   C1A42567  21.643  24.617   6.176
 3187POPC   D2A42568  21.379  24.538   6.552
 3187POPC   C3A42569  21.487  24.328   6.938
 3187POPC   C4A42570  21.745  24.584   7.163
 3187POPC   C1B42571  21.067  24.742   6.187
 3187POPC   C2B42572  20.929  24.774   6.612
 3187POPC   C3B42573  21.086  24.668   7.040
 3187POPC   C4B42574  20.913  24.760   7.449
 3188POPC   NC342575  42.680  19.754   5.297
 3188POPC   PO442576  43.368  19.992   5.364
 3188POPC   GL142577  43.171  19.721   5.671
 3188POPC   GL242578  42.991  19.975   5.822
 3188POPC   C1A42579  43.221  19.655   6.127
 3188POPC   D2A42580  43.301  19.923   6.466
 3188POPC   C3A42581  43.290  19.772   6.872
 3188POPC   C4A42582  43.180  19.707   7.282
 3188POPC   C1B42583  42.802  19.964   6.253
 3188POPC   C2B42584  42.909  20.171   6.668
 3188POPC   C3B42585  43.037  20.171   7.104
 3188POPC   C4B42586  42.798  20.000   7.444
 3189POPC   NC342587   2.495  20.859   5.499
 3189POPC   PO442588   3.146  20.802   5.320
 3189POPC   GL142589   3.018  20.841   5.754
 3189POPC   GL242590   2.794  20.566   5.812
 3189POPC   C1A42591   3.098  20.886   6.212
 3189POPC   D2A42592   2.864  20.648   6.544
 3189POPC   C3A42593   2.962  20.546   6.976
 3189POPC   C4A42594   3.050  20.817   7.350
 3189POPC   C1B42595   2.601  20.410   6.169
 3189POPC   C2B42596   2.359  20.594   6.526
 3189POPC   C3B42597   2.442  20.502   6.928
 3189POPC   C4B42598   2.534  20.348   7.341
 3190POPC   NC342599  21.914   8.542   5.363
 3190POPC   PO442600  22.241   7.901   5.308
 3190POPC   GL142601  22.128   8.033   5.728
 3190POPC   GL242602  22.039   8.360   5.834
 3190POPC   C1A42603  22.269   8.041   6.172
 3190POPC   D2A42604  22.158   8.188   6.584
 3190POPC   C3A42605  22.219   7.922   6.930
 3190POPC   C4A42606  21.878   7.869   7.201
 3190POPC   C1B42607  22.313   8.564   6.168
 3190POPC   C2B42608  22.588   8.457   6.518
 3190POPC   C3B42609  22.418   8.508   6.908
 3190POPC   C4B42610  22.076   8.351   7.155
 3191POPC   NC342611  22.118  18.607   5.411
 3191POPC   PO442612  21.891  17.987   5.488
 3191POPC   GL142613  22.129  18.241   5.829
 3191POPC   GL242614  22.368  18.537   5.865
 3191POPC   C1A42615  22.139  18.333   6.268
 3191POPC   D2A42616  21.944  18.316   6.659
 3191POPC   C3A42617  22.104  18.066   6.948
 3191POPC   C4A42618  22.306  18.091   7.320
 3191POPC   C1B42619  22.608  18.592   6.219
 3191POPC   C2B42620  22.568  18.342   6.552
 3191POPC   C3B42621  22.479  18.416   6.935
 3191POPC   C4B42622  22.435  18.581   7.294
 3192POPC   NC342623   7.261  44.325   5.510
 3192POPC   PO442624   7.563  43.668   5.471
 3192POPC   GL142625   7.365  43.856   5.819
 3192POPC   GL242626   7.091  43.644   5.795
 3192POPC   C1A42627   7.462  44.008   6.252
 3192POPC   D2A42628   7.528  43.786   6.658
 3192POPC   C3A42629   7.532  44.052   7.045
 3192POPC   C4A42630   7.316  44.063   7.445
 3192POPC   C1B42631   6.988  43.824   6.189
 3192POPC   C2B42632   6.984  43.726   6.616
 3192POPC   C3B42633   7.071  43.846   7.038
 3192POPC   C4B42634   6.824  43.977   7.401
 3193POPC   NC342635   6.044  26.453   5.023
 3193POPC   PO442636   5.773  26.107   5.637
 3193POPC   GL142637   5.779  26.363   5.989
 3193POPC   GL242638   5.428  26.438   5.944
 3193POPC   C1A42639   5.952  26.248   6.393
 3193POPC   D2A42640   5.849  26.217   6.835
 3193POPC   C3A42641   6.100  25.944   7.086
 3193POPC   C4A42642   6.165  26.113   7.482
 3193POPC   C1B42643   5.442  26.088   6.248
 3193POPC   C2B42644   5.352  26.127   6.642
 3193POPC   C3B42645   5.366  26.352   6.984
 3193POPC   C4B42646   5.535  26.120   7.275
 3194POPC   NC342647  42.564   4.309   5.379
 3194POPC   PO442648  41.939   4.151   5.524
 3194POPC   GL142649  42.159   4.244   5.841
 3194POPC   GL242650  42.284   4.543   5.753
 3194POPC   C1A42651  42.233   4.103   6.254
 3194POPC   D2A42652  42.588   4.192   6.544
 3194POPC   C3A42653  42.505   4.095   6.997
 3194POPC   C4A42654  42.171   4.117   7.301
 3194POPC   C1B42655  42.304   4.596   6.185
 3194POPC   C2B42656  42.188   4.504   6.589
 3194POPC   C3B42657  42.284   4.594   7.020
 3194POPC   C4B42658  42.529   4.488   7.399
 3195POPC   NC342659  40.697   6.287   5.546
 3195POPC   PO442660  41.329   6.582   5.515
 3195POPC   GL142661  41.135   6.373   5.812
 3195POPC   GL242662  40.910   6.669   5.854
 3195POPC   C1A42663  41.085   6.398   6.247
 3195POPC   D2A42664  41.032   6.684   6.565
 3195POPC   C3A42665  41.086   6.507   6.948
 3195POPC   C4A42666  40.871   6.397   7.353
 3195POPC   C1B42667  40.664   6.861   6.210
 3195POPC   C2B42668  40.590   6.898   6.672
 3195POPC   C3B42669  40.706   6.824   7.105
 3195POPC   C4B42670  40.482   6.675   7.447
 3196POPC   NC342671  27.146  18.804   5.524
 3196POPC   PO442672  26.451  18.955   5.470
 3196POPC   GL142673  26.535  19.125   5.873
 3196POPC   GL242674  26.919  19.134   5.851
 3196POPC   C1A42675  26.716  19.125   6.310
 3196POPC   D2A42676  27.090  18.875   6.456
 3196POPC   C3A42677  27.051  18.900   6.874
 3196POPC   C4A42678  26.665  19.085   7.063
 3196POPC   C1B42679  27.244  19.258   6.153
 3196POPC   C2B42680  27.274  19.375   6.589
 3196POPC   C3B42681  26.958  19.458   6.877
 3196POPC   C4B42682  26.894  19.509   7.314
 3197POPC   NC342683  30.345   1.834   5.550
 3197POPC   PO442684  31.022   1.725   5.433
 3197POPC   GL142685  30.823   1.947   5.791
 3197POPC   GL242686  30.791   2.314   5.740
 3197POPC   C1A42687  30.539   1.985   6.181
 3197POPC   D2A42688  30.292   2.201   6.511
 3197POPC   C3A42689  30.502   2.112   6.884
 3197POPC   C4A42690  30.808   1.781   7.001
 3197POPC   C1B42691  30.960   2.259   6.192
 3197POPC   C2B42692  30.951   2.089   6.626
 3197POPC   C3B42693  30.957   2.309   7.051
 3197POPC   C4B42694  31.241   2.619   7.234
 3198POPC   NC342695   5.751  11.719   5.560
 3198POPC   PO442696   6.228  12.143   5.259
 3198POPC   GL142697   5.967  12.144   5.703
 3198POPC   GL242698   6.022  11.858   5.969
 3198POPC   C1A42699   5.982  12.309   6.160
 3198POPC   D2A42700   6.128  12.403   6.581
 3198POPC   C3A42701   5.938  12.337   6.992
 3198POPC   C4A42702   5.983  12.044   7.308
 3198POPC   C1B42703   5.652  11.892   6.176
 3198POPC   C2B42704   5.459  11.842   6.544
 3198POPC   C3B42705   5.711  11.840   6.900
 3198POPC   C4B42706   5.800  11.554   7.215
 3199POPC   NC342707  29.561  11.082   5.584
 3199POPC   PO442708  30.022  11.449   5.634
 3199POPC   GL142709  30.033  11.382   6.017
 3199POPC   GL242710  30.220  11.035   5.979
 3199POPC   C1A42711  29.925  11.488   6.449
 3199POPC   D2A42712  30.035  11.366   6.872
 3199POPC   C3A42713  30.184  11.677   7.174
 3199POPC   C4A42714  29.954  11.887   7.522
 3199POPC   C1B42715  29.834  10.997   6.250
 3199POPC   C2B42716  29.628  11.082   6.647
 3199POPC   C3B42717  29.706  11.034   7.079
 3199POPC   C4B42718  30.086  11.133   7.355
 3200POPC   NC342719   8.888  30.776   5.552
 3200POPC   PO442720   9.475  30.672   5.324
 3200POPC   GL142721   9.184  30.402   5.729
 3200POPC   GL242722   8.785  30.316   5.702
 3200POPC   C1A42723   8.989  30.276   6.164
 3200POPC   D2A42724   8.922  30.395   6.599
 3200POPC   C3A42725   9.031  30.769   6.839
 3200POPC   C4A42726   8.948  30.581   7.228
 3200POPC   C1B42727   8.591  30.598   6.084
 3200POPC   C2B42728   8.580  30.787   6.487
 3200POPC   C3B42729   8.540  30.621   6.873
 3200POPC   C4B42730   8.489  30.780   7.238
 3201POPC   NC342731  36.233  17.564   5.448
 3201POPC   PO442732  35.642  17.940   5.386
 3201POPC   GL142733  35.838  17.699   5.795
 3201POPC   GL242734  35.933  17.351   5.891
 3201POPC   C1A42735  36.052  17.677   6.250
 3201POPC   D2A42736  36.277  17.444   6.567
 3201POPC   C3A42737  36.131  17.553   6.970
 3201POPC   C4A42738  36.335  17.617   7.379
 3201POPC   C1B42739  36.027  17.085   6.299
 3201POPC   C2B42740  36.079  17.040   6.806
 3201POPC   C3B42741  36.380  17.139   7.164
 3201POPC   C4B42742  36.382  17.211   7.658
 3202POPC   NC342743  29.859  36.528   5.455
 3202POPC   PO442744  30.147  37.040   5.549
 3202POPC   GL142745  29.961  36.833   5.858
 3202POPC   GL242746  29.647  37.006   5.796
 3202POPC   C1A42747  30.030  36.694   6.257
 3202POPC   D2A42748  29.891  36.983   6.552
 3202POPC   C3A42749  30.038  36.879   6.925
 3202POPC   C4A42750  30.038  36.732   7.324
 3202POPC   C1B42751  29.702  37.303   6.142
 3202POPC   C2B42752  29.569  37.458   6.552
 3202POPC   C3B42753  29.742  37.322   6.921
 3202POPC   C4B42754  29.631  37.260   7.348
 3203POPC   NC342755   7.997  20.165   5.511
 3203POPC   PO442756   8.229  19.556   5.410
 3203POPC   GL142757   8.096  19.720   5.776
 3203POPC   GL242758   7.797  19.640   5.927
 3203POPC   C1A42759   8.241  19.732   6.192
 3203POPC   D2A42760   8.231  20.043   6.507
 3203POPC   C3A42761   8.330  19.834   6.865
 3203POPC   C4A42762   8.327  19.964   7.263
 3203POPC   C1B42763   7.811  20.027   6.145
 3203POPC   C2B42764   7.747  20.212   6.536
 3203POPC   C3B42765   7.944  20.194   6.928
 3203POPC   C4B42766   7.842  20.184   7.346
 3204POPC   NC342767  36.051   0.003   5.218
 3204POPC   PO442768  35.817   0.643   5.373
 3204POPC   GL142769  35.964   0.325   5.692
 3204POPC   GL242770  36.329   0.231   5.702
 3204POPC   C1A42771  36.083   0.459   6.112
 3204POPC   D2A42772  36.222   0.382   6.515
 3204POPC   C3A42773  35.993   0.599   6.811
 3204POPC   C4A42774  35.937   0.500   7.203
 3204POPC   C1B42775  36.431   0.071   6.145
 3204POPC   C2B42776  36.654   0.126   6.547
 3204POPC   C3B42777  36.380  44.991   6.868
 3204POPC   C4B42778  36.104   0.033   7.224
 3205POPC   NC342779  44.042  34.917   5.322
 3205POPC   PO442780  44.165  35.637   5.358
 3205POPC   GL142781  43.881  35.590   5.792
 3205POPC   GL242782  43.490  35.576   5.752
 3205POPC   C1A42783  43.708  35.572   6.227
 3205POPC   D2A42784  43.901  35.414   6.581
 3205POPC   C3A42785  43.877  35.565   6.993
 3205POPC   C4A42786  44.074  35.374   7.347
 3205POPC   C1B42787  43.379  35.230   6.062
 3205POPC   C2B42788  43.599  35.027   6.426
 3205POPC   C3B42789  43.706  35.074   6.906
 3205POPC   C4B42790  43.609  35.148   7.399
 3206POPC   NC342791  38.268  21.545   5.413
 3206POPC   PO442792  38.660  21.115   5.618
 3206POPC   GL142793  38.441  21.311   5.902
 3206POPC   GL242794  38.187  21.025   5.899
 3206POPC   C1A42795  38.661  21.503   6.256
 3206POPC   D2A42796  38.650  21.316   6.642
 3206POPC   C3A42797  38.248  21.382   6.748
 3206POPC   C4A42798  38.063  21.470   7.103
 3206POPC   C1B42799  38.335  21.035   6.346
 3206POPC   C2B42800  38.258  20.862   6.775
 3206POPC   C3B42801  38.000  20.955   7.163
 3206POPC   C4B42802  38.126  21.207   7.564
 3207POPC   NC342803  12.027  18.187   5.400
 3207POPC   PO442804  12.595  18.560   5.293
 3207POPC   GL142805  12.284  18.514   5.672
 3207POPC   GL242806  12.256  18.137   5.842
 3207POPC   C1A42807  12.006  18.492   6.043
 3207POPC   D2A42808  12.146  18.349   6.445
 3207POPC   C3A42809  11.891  18.139   6.726
 3207POPC   C4A42810  11.907  18.198   7.173
 3207POPC   C1B42811  12.502  18.065   6.193
 3207POPC   C2B42812  12.524  17.999   6.609
 3207POPC   C3B42813  12.373  18.151   6.972
 3207POPC   C4B42814  12.324  17.972   7.403
 3208POPC   NC342815  33.206  29.252   5.445
 3208POPC   PO442816  32.555  29.270   5.568
 3208POPC   GL142817  32.848  29.303   5.864
 3208POPC   GL242818  33.044  28.989   5.849
 3208POPC   C1A42819  32.919  29.190   6.278
 3208POPC   D2A42820  32.954  29.003   6.634
 3208POPC   C3A42821  33.229  29.253   6.899
 3208POPC   C4A42822  33.121  29.319   7.289
 3208POPC   C1B42823  33.246  28.791   6.223
 3208POPC   C2B42824  33.473  28.959   6.566
 3208POPC   C3B42825  33.539  28.823   6.971
 3208POPC   C4B42826  33.602  29.071   7.311
 3209POPC   NC342827  12.521  26.968   5.564
 3209POPC   PO442828  11.972  26.606   5.502
 3209POPC   GL142829  12.100  26.808   5.858
 3209POPC   GL242830  12.038  27.156   5.808
 3209POPC   C1A42831  12.017  26.690   6.275
 3209POPC   D2A42832  11.906  26.391   6.562
 3209POPC   C3A42833  12.078  26.574   6.913
 3209POPC   C4A42834  11.922  26.689   7.284
 3209POPC   C1B42835  11.821  27.158   6.218
 3209POPC   C2B42836  11.875  27.023   6.669
 3209POPC   C3B42837  12.135  27.090   7.020
 3209POPC   C4B42838  12.402  26.851   7.278
 3210POPC   NC342839  40.963  39.508   5.347
 3210POPC   PO442840  40.395  39.213   5.615
 3210POPC   GL142841  40.712  39.199   5.918
 3210POPC   GL242842  40.947  39.432   5.854
 3210POPC   C1A42843  40.741  39.256   6.357
 3210POPC   D2A42844  40.657  38.958   6.671
 3210POPC   C3A42845  40.507  39.078   7.084
 3210POPC   C4A42846  40.827  39.062   7.377
 3210POPC   C1B42847  41.181  39.486   6.201
 3210POPC   C2B42848  41.206  39.370   6.607
 3210POPC   C3B42849  40.950  39.332   6.932
 3210POPC   C4B42850  41.200  39.403   7.268
 3211POPC   NC342851  38.703  16.650   5.422
 3211POPC   PO442852  38.162  16.993   5.504
 3211POPC   GL142853  38.263  16.903   5.911
 3211POPC   GL242854  38.419  16.588   5.870
 3211POPC   C1A42855  38.472  17.007   6.311
 3211POPC   D2A42856  38.557  16.699   6.627
 3211POPC   C3A42857  38.321  16.648   6.986
 3211POPC   C4A42858  38.390  16.945   7.299
 3211POPC   C1B42859  38.784  16.590   6.178
 3211POPC   C2B42860  38.969  16.395   6.544
 3211POPC   C3B42861  38.778  16.354   6.964
 3211POPC   C4B42862  38.715  16.569   7.320
 3212POPC   NC342863  38.403  12.555   5.267
 3212POPC   PO442864  38.831  13.123   5.303
 3212POPC   GL142865  38.532  12.870   5.672
 3212POPC   GL242866  38.598  12.589   5.935
 3212POPC   C1A42867  38.389  13.017   6.091
 3212POPC   D2A42868  38.594  13.000   6.507
 3212POPC   C3A42869  38.392  13.120   6.894
 3212POPC   C4A42870  38.434  13.287   7.298
 3212POPC   C1B42871  38.403  12.551   6.366
 3212POPC   C2B42872  38.448  12.615   6.842
 3212POPC   C3B42873  38.629  12.777   7.228
 3212POPC   C4B42874  38.872  12.600   7.567
 3213POPC   NC342875   1.229  28.735   5.646
 3213POPC   PO442876   1.419  29.394   5.331
 3213POPC   GL142877   1.343  29.313   5.766
 3213POPC   GL242878   0.998  29.208   5.766
 3213POPC   C1A42879   1.498  29.275   6.203
 3213POPC   D2A42880   1.386  29.031   6.571
 3213POPC   C3A42881   1.473  29.229   6.963
 3213POPC   C4A42882   1.567  28.963   7.286
 3213POPC   C1B42883   1.029  29.027   6.201
 3213POPC   C2B42884   0.904  29.152   6.627
 3213POPC   C3B42885   1.006  29.010   7.065
 3213POPC   C4B42886   1.107  29.214   7.447
 3214POPC   NC342887  32.097   1.420   5.517
 3214POPC   PO442888  32.566   1.069   5.324
 3214POPC   GL142889  32.495   1.076   5.789
 3214POPC   GL242890  32.156   0.989   5.812
 3214POPC   C1A42891  32.304   1.025   6.270
 3214POPC   D2A42892  32.377   0.787   6.642
 3214POPC   C3A42893  32.492   1.119   6.917
 3214POPC   C4A42894  32.603   1.247   7.316
 3214POPC   C1B42895  31.811   0.843   6.101
 3214POPC   C2B42896  31.803   0.765   6.545
 3214POPC   C3B42897  31.971   0.885   6.964
 3214POPC   C4B42898  32.338   0.743   7.223
 3215POPC   NC342899  26.664  17.260   5.515
 3215POPC   PO442900  26.993  17.861   5.348
 3215POPC   GL142901  26.850  17.756   5.789
 3215POPC   GL242902  26.969  17.450   5.866
 3215POPC   C1A42903  26.707  17.737   6.254
 3215POPC   D2A42904  26.885  17.876   6.672
 3215POPC   C3A42905  26.674  17.691   7.036
 3215POPC   C4A42906  26.824  17.726   7.485
 3215POPC   C1B42907  26.820  17.230   6.225
 3215POPC   C2B42908  26.654  17.326   6.623
 3215POPC   C3B42909  26.852  17.181   6.961
 3215POPC   C4B42910  26.779  17.260   7.331
 3216POPC   NC342911  44.201  29.848   5.335
 3216POPC   PO442912  43.570  29.947   5.483
 3216POPC   GL142913  43.865  29.751   5.806
 3216POPC   GL242914  44.170  29.531   5.736
 3216POPC   C1A42915  43.789  29.740   6.264
 3216POPC   D2A42916  43.939  29.933   6.657
 3216POPC   C3A42917  43.716  29.855   7.037
 3216POPC   C4A42918  43.400  30.110   7.253
 3216POPC   C1B42919  44.282  29.590   6.177
 3216POPC   C2B42920  44.111  29.449   6.565
 3216POPC   C3B42921  44.181  29.582   6.964
 3216POPC   C4B42922  44.238  29.988   7.148
 3217POPC   NC342923   4.443   0.788   5.152
 3217POPC   PO442924   3.991   0.322   5.454
 3217POPC   GL142925   4.299   0.198   5.812
 3217POPC   GL242926   4.533  44.969   5.708
 3217POPC   C1A42927   4.540   0.395   6.198
 3217POPC   D2A42928   4.504   0.766   6.506
 3217POPC   C3A42929   4.525   0.741   6.970
 3217POPC   C4A42930   4.160   0.532   7.139
 3217POPC   C1B42931   4.699  44.911   6.095
 3217POPC   C2B42932   4.901   0.081   6.449
 3217POPC   C3B42933   4.716   0.313   6.752
 3217POPC   C4B42934   4.500   0.162   7.104
 3218POPC   NC342935  31.760  34.776   5.579
 3218POPC   PO442936  31.311  34.303   5.591
 3218POPC   GL142937  31.464  34.380   5.967
 3218POPC   GL242938  31.423  34.728   5.941
 3218POPC   C1A42939  31.427  34.477   6.399
 3218POPC   D2A42940  31.689  34.505   6.770
 3218POPC   C3A42941  31.566  34.222   7.072
 3218POPC   C4A42942  31.493  34.241   7.556
 3218POPC   C1B42943  31.611  34.947   6.271
 3218POPC   C2B42944  31.395  34.908   6.677
 3218POPC   C3B42945  31.516  34.895   7.081
 3218POPC   C4B42946  31.356  35.081   7.401
 3219POPC   NC342947   4.363  30.096   5.248
 3219POPC   PO442948   4.023  29.663   5.522
 3219POPC   GL142949   4.269  29.701   5.898
 3219POPC   GL242950   4.564  29.873   5.823
 3219POPC   C1A42951   4.480  29.650   6.310
 3219POPC   D2A42952   4.719  29.566   6.674
 3219POPC   C3A42953   4.424  29.579   7.004
 3219POPC   C4A42954   4.188  29.551   7.368
 3219POPC   C1B42955   4.331  30.116   6.199
 3219POPC   C2B42956   4.350  30.039   6.654
 3219POPC   C3B42957   4.665  30.039   6.951
 3219POPC   C4B42958   4.914  30.027   7.270
 3220POPC   NC342959   6.901   6.524   5.165
 3220POPC   PO442960   6.338   6.506   5.565
 3220POPC   GL142961   6.668   6.573   5.863
 3220POPC   GL242962   6.796   6.852   5.664
 3220POPC   C1A42963   6.887   6.421   6.280
 3220POPC   D2A42964   6.856   6.275   6.736
 3220POPC   C3A42965   6.864   6.524   7.102
 3220POPC   C4A42966   6.502   6.582   7.376
 3220POPC   C1B42967   6.906   6.937   6.129
 3220POPC   C2B42968   6.842   6.831   6.588
 3220POPC   C3B42969   7.017   6.994   6.990
 3220POPC   C4B42970   6.842   6.967   7.395
 3221POPC   NC342971   7.044  24.282   5.366
 3221POPC   PO442972   7.642  24.344   5.229
 3221POPC   GL142973   7.419  24.572   5.618
 3221POPC   GL242974   7.309  24.274   5.827
 3221POPC   C1A42975   7.187  24.694   6.052
 3221POPC   D2A42976   7.365  24.786   6.474
 3221POPC   C3A42977   7.263  24.841   6.920
 3221POPC   C4A42978   7.564  24.868   7.261
 3221POPC   C1B42979   7.437  24.303   6.277
 3221POPC   C2B42980   7.596  24.324   6.704
 3221POPC   C3B42981   7.496  24.373   7.143
 3221POPC   C4B42982   7.343  24.090   7.478
 3222POPC   NC342983  38.061  34.932   5.376
 3222POPC   PO442984  38.455  34.380   5.289
 3222POPC   GL142985  38.454  34.588   5.641
 3222POPC   GL242986  38.352  34.283   5.822
 3222POPC   C1A42987  38.371  34.760   6.031
 3222POPC   D2A42988  38.571  34.746   6.422
 3222POPC   C3A42989  38.348  34.533   6.779
 3222POPC   C4A42990  38.421  34.650   7.221
 3222POPC   C1B42991  38.691  34.339   6.142
 3222POPC   C2B42992  38.814  34.327   6.613
 3222POPC   C3B42993  38.685  34.238   7.043
 3222POPC   C4B42994  38.272  34.129   7.140
 3223POPC   NC342995   9.479  13.313   5.509
 3223POPC   PO442996   9.882  13.733   5.413
 3223POPC   GL142997   9.508  13.759   5.750
 3223POPC   GL242998   9.366  13.439   5.983
 3223POPC   C1A42999   9.515  13.896   6.180
 3223POPC   D2A43000   9.772  13.814   6.563
 3223POPC   C3A43001   9.690  13.580   6.942
 3223POPC   C4A43002   9.839  13.209   7.172
 3223POPC   C1B43003   9.421  13.390   6.438
 3223POPC   C2B43004   9.236  13.369   6.849
 3223POPC   C3B43005   9.347  13.256   7.251
 3223POPC   C4B43006   9.514  13.183   7.700
 3224POPC   NC343007  21.698   5.506   5.577
 3224POPC   PO443008  22.127   6.127   5.423
 3224POPC   GL143009  22.236   5.962   5.843
 3224POPC   GL243010  22.133   5.607   5.848
 3224POPC   C1A43011  22.261   5.869   6.297
 3224POPC   D2A43012  22.002   5.839   6.672
 3224POPC   C3A43013  22.116   6.143   6.960
 3224POPC   C4A43014  22.503   6.102   7.201
 3224POPC   C1B43015  21.815   5.620   6.209
 3224POPC   C2B43016  21.683   5.409   6.602
 3224POPC   C3B43017  21.857   5.461   7.000
 3224POPC   C4B43018  22.086   5.723   7.224
 3225POPC   NC343019   8.603   7.449   5.388
 3225POPC   PO443020   9.192   7.102   5.395
 3225POPC   GL143021   9.142   7.323   5.814
 3225POPC   GL243022   8.804   7.432   5.855
 3225POPC   C1A43023   8.960   7.168   6.250
 3225POPC   D2A43024   8.707   7.367   6.576
 3225POPC   C3A43025   8.835   7.229   7.005
 3225POPC   C4A43026   9.075   7.388   7.366
 3225POPC   C1B43027   8.988   7.660   6.196
 3225POPC   C2B43028   9.211   7.530   6.541
 3225POPC   C3B43029   9.220   7.594   6.936
 3225POPC   C4B43030   9.427   7.808   7.233
 3226POPC   NC343031   9.841  22.690   5.533
 3226POPC   PO443032   9.707  23.217   5.212
 3226POPC   GL143033   9.609  23.062   5.754
 3226POPC   GL243034   9.940  23.081   5.923
 3226POPC   C1A43035   9.658  22.812   6.222
 3226POPC   D2A43036   9.859  22.867   6.673
 3226POPC   C3A43037   9.594  22.753   7.020
 3226POPC   C4A43038   9.402  23.116   7.209
 3226POPC   C1B43039   9.959  23.236   6.341
 3226POPC   C2B43040  10.232  23.253   6.689
 3226POPC   C3B43041  10.243  23.416   7.085
 3226POPC   C4B43042  10.243  23.385   7.529
 3227POPC   NC343043  38.376   2.661   5.601
 3227POPC   PO443044  38.483   2.049   5.305
 3227POPC   GL143045  38.251   2.140   5.682
 3227POPC   GL243046  38.109   1.804   5.751
 3227POPC   C1A43047  38.201   2.129   6.140
 3227POPC   D2A43048  38.483   2.075   6.469
 3227POPC   C3A43049  38.330   2.127   6.870
 3227POPC   C4A43050  38.281   2.359   7.214
 3227POPC   C1B43051  38.449   1.682   6.043
 3227POPC   C2B43052  38.601   1.560   6.453
 3227POPC   C3B43053  38.637   1.702   6.862
 3227POPC   C4B43054  38.615   1.943   7.257
 3228POPC   NC343055  20.713  27.576   5.316
 3228POPC   PO443056  20.074  27.723   5.594
 3228POPC   GL143057  20.385  27.553   5.899
 3228POPC   GL243058  20.731  27.540   5.815
 3228POPC   C1A43059  20.581  27.610   6.318
 3228POPC   D2A43060  20.584  27.877   6.672
 3228POPC   C3A43061  20.406  27.725   7.041
 3228POPC   C4A43062  20.420  27.634   7.480
 3228POPC   C1B43063  20.923  27.286   6.112
 3228POPC   C2B43064  20.878  27.234   6.525
 3228POPC   C3B43065  20.792  27.414   6.922
 3228POPC   C4B43066  20.947  27.836   7.052
 3229POPC   NC343067   6.080   4.017   5.206
 3229POPC   PO443068   5.873   4.704   5.146
 3229POPC   GL143069   5.784   4.452   5.647
 3229POPC   GL243070   6.002   4.193   5.732
 3229POPC   C1A43071   5.697   4.342   6.109
 3229POPC   D2A43072   5.959   4.348   6.502
 3229POPC   C3A43073   5.900   4.469   6.922
 3229POPC   C4A43074   5.598   4.277   7.216
 3229POPC   C1B43075   6.139   4.012   6.170
 3229POPC   C2B43076   6.192   3.906   6.634
 3229POPC   C3B43077   6.014   3.998   7.060
 3229POPC   C4B43078   6.105   3.920   7.480
 3230POPC   NC343079  40.850  36.585   5.450
 3230POPC   PO443080  40.742  37.249   5.536
 3230POPC   GL143081  40.785  36.926   5.844
 3230POPC   GL243082  40.467  36.775   5.865
 3230POPC   C1A43083  40.811  36.674   6.248
 3230POPC   D2A43084  41.043  36.596   6.656
 3230POPC   C3A43085  40.870  36.844   7.021
 3230POPC   C4A43086  40.870  37.234   7.277
 3230POPC   C1B43087  40.511  37.107   6.232
 3230POPC   C2B43088  40.354  37.085   6.673
 3230POPC   C3B43089  40.425  37.105   7.120
 3230POPC   C4B43090  40.618  36.859   7.510
 3231POPC   NC343091  28.964  10.870   5.179
 3231POPC   PO443092  29.513  10.591   5.460
 3231POPC   GL143093  29.128  10.491   5.752
 3231POPC   GL243094  28.882  10.779   5.684
 3231POPC   C1A43095  29.205  10.351   6.209
 3231POPC   D2A43096  29.389  10.627   6.572
 3231POPC   C3A43097  29.449  10.495   7.023
 3231POPC   C4A43098  29.174  10.244   7.315
 3231POPC   C1B43099  28.915  10.775   6.142
 3231POPC   C2B43100  28.886  10.547   6.550
 3231POPC   C3B43101  28.955  10.614   6.986
 3231POPC   C4B43102  28.892  10.647   7.427
 3232POPC   NC343103  37.464  14.767   5.555
 3232POPC   PO443104  37.643  14.130   5.570
 3232POPC   GL143105  37.655  14.414   5.873
 3232POPC   GL243106  37.968  14.575   5.776
 3232POPC   C1A43107  37.486  14.340   6.273
 3232POPC   D2A43108  37.318  14.373   6.678
 3232POPC   C3A43109  37.621  14.298   6.981
 3232POPC   C4A43110  37.840  14.558   7.285
 3232POPC   C1B43111  38.030  14.354   6.193
 3232POPC   C2B43112  38.004  14.246   6.620
 3232POPC   C3B43113  38.086  14.107   7.033
 3232POPC   C4B43114  38.034  14.148   7.513
 3233POPC   NC343115  40.289   1.753   5.157
 3233POPC   PO443116  40.925   1.965   5.259
 3233POPC   GL143117  40.967   2.043   5.803
 3233POPC   GL243118  41.197   1.836   6.091
 3233POPC   C1A43119  40.837   2.190   6.249
 3233POPC   D2A43120  41.041   2.002   6.607
 3233POPC   C3A43121  40.865   1.936   7.022
 3233POPC   C4A43122  40.847   2.089   7.447
 3233POPC   C1B43123  40.788   1.693   6.172
 3233POPC   C2B43124  40.533   1.765   6.485
 3233POPC   C3B43125  40.505   1.608   6.872
 3233POPC   C4B43126  40.418   1.834   7.274
 3234POPC   NC343127   7.077  36.232   5.252
 3234POPC   PO443128   6.739  35.727   5.395
 3234POPC   GL143129   6.871  36.038   5.728
 3234POPC   GL243130   6.895  35.779   5.936
 3234POPC   C1A43131   6.828  36.223   6.174
 3234POPC   D2A43132   6.572  36.273   6.536
 3234POPC   C3A43133   6.784  36.289   6.935
 3234POPC   C4A43134   7.000  35.976   7.183
 3234POPC   C1B43135   6.465  35.862   6.147
 3234POPC   C2B43136   6.285  35.850   6.546
 3234POPC   C3B43137   6.518  35.839   6.901
 3234POPC   C4B43138   6.492  36.009   7.272
 3235POPC   NC343139  31.502   0.632   5.358
 3235POPC   PO443140  31.364  44.971   5.300
 3235POPC   GL143141  31.396   0.256   5.714
 3235POPC   GL243142  31.137   0.550   5.744
 3235POPC   C1A43143  31.658   0.340   6.120
 3235POPC   D2A43144  31.506   0.306   6.560
 3235POPC   C3A43145  31.590   0.520   6.958
 3235POPC   C4A43146  31.400   0.358   7.350
 3235POPC   C1B43147  31.222   0.606   6.197
 3235POPC   C2B43148  31.276   0.787   6.622
 3235POPC   C3B43149  31.126   0.741   7.057
 3235POPC   C4B43150  31.105   0.756   7.543
 3236POPC   NC343151  25.157  19.628   5.482
 3236POPC   PO443152  25.409  20.217   5.408
 3236POPC   GL143153  25.259  20.146   5.802
 3236POPC   GL243154  25.435  19.863   5.832
 3236POPC   C1A43155  25.156  20.196   6.239
 3236POPC   D2A43156  25.156  19.893   6.535
 3236POPC   C3A43157  25.371  19.939   6.920
 3236POPC   C4A43158  25.185  19.712   7.242
 3236POPC   C1B43159  25.518  19.758   6.199
 3236POPC   C2B43160  25.705  19.782   6.570
 3236POPC   C3B43161  25.693  19.525   6.921
 3236POPC   C4B43162  25.631  19.516   7.355
 3237POPC   NC343163   3.199  33.495   5.397
 3237POPC   PO443164   2.641  33.537   5.370
 3237POPC   GL143165   2.765  33.796   5.766
 3237POPC   GL243166   2.592  34.099   5.912
 3237POPC   C1A43167   2.730  33.756   6.263
 3237POPC   D2A43168   2.433  33.721   6.659
 3237POPC   C3A43169   2.606  33.695   7.112
 3237POPC   C4A43170   2.831  33.717   7.540
 3237POPC   C1B43171   2.501  34.202   6.383
 3237POPC   C2B43172   2.632  34.160   6.834
 3237POPC   C3B43173   2.762  34.162   7.273
 3237POPC   C4B43174   2.681  34.384   7.667
 3238POPC   NC343175  17.819   4.356   5.497
 3238POPC   PO443176  17.275   4.451   5.141
 3238POPC   GL143177  17.343   4.475   5.660
 3238POPC   GL243178  17.411   4.132   5.739
 3238POPC   C1A43179  17.504   4.567   6.145
 3238POPC   D2A43180  17.342   4.500   6.605
 3238POPC   C3A43181  17.481   4.632   7.051
 3238POPC   C4A43182  17.426   4.599   7.536
 3238POPC   C1B43183  17.588   4.004   6.115
 3238POPC   C2B43184  17.781   4.143   6.466
 3238POPC   C3B43185  17.665   4.191   6.867
 3238POPC   C4B43186  17.566   4.174   7.271
 3239POPC   NC343187  26.228   4.829   5.458
 3239POPC   PO443188  26.205   4.090   5.388
 3239POPC   GL143189  26.264   4.365   5.691
 3239POPC   GL243190  25.918   4.467   5.678
 3239POPC   C1A43191  26.329   4.447   6.129
 3239POPC   D2A43192  26.251   4.224   6.516
 3239POPC   C3A43193  26.316   4.424   6.910
 3239POPC   C4A43194  26.140   4.263   7.255
 3239POPC   C1B43195  25.839   4.583   6.124
 3239POPC   C2B43196  25.895   4.606   6.587
 3239POPC   C3B43197  25.785   4.280   6.889
 3239POPC   C4B43198  25.554   4.194   7.273
 3240POPC   NC343199   6.010  23.173   5.303
 3240POPC   PO443200   5.580  22.842   5.136
 3240POPC   GL143201   5.776  22.820   5.597
 3240POPC   GL243202   5.721  23.140   5.735
 3240POPC   C1A43203   5.830  22.776   6.094
 3240POPC   D2A43204   5.656  22.645   6.529
 3240POPC   C3A43205   5.755  22.858   6.945
 3240POPC   C4A43206   6.055  22.831   7.304
 3240POPC   C1B43207   5.868  23.314   6.103
 3240POPC   C2B43208   5.857  23.137   6.501
 3240POPC   C3B43209   5.779  23.378   6.848
 3240POPC   C4B43210   5.870  23.310   7.252
 3241POPC   NC343211  35.141  44.573   5.400
 3241POPC   PO443212  35.840  44.580   5.265
 3241POPC   GL143213  35.588  44.582   5.684
 3241POPC   GL243214  35.384  44.310   5.862
 3241POPC   C1A43215  35.411  44.775   6.063
 3241POPC   D2A43216  35.237  44.840   6.472
 3241POPC   C3A43217  35.424  44.650   6.836
 3241POPC   C4A43218  35.266  44.580   7.236
 3241POPC   C1B43219  35.366  44.312   6.336
 3241POPC   C2B43220  35.177  44.198   6.765
 3241POPC   C3B43221  35.118  44.083   7.235
 3241POPC   C4B43222  35.040  44.281   7.630
 3242POPC   NC343223  28.253   5.378   5.381
 3242POPC   PO443224  28.307   4.740   5.510
 3242POPC   GL143225  28.189   5.075   5.820
 3242POPC   GL243226  28.389   5.371   5.877
 3242POPC   C1A43227  28.080   5.016   6.235
 3242POPC   D2A43228  28.266   4.795   6.575
 3242POPC   C3A43229  28.350   4.894   7.003
 3242POPC   C4A43230  28.456   5.070   7.401
 3242POPC   C1B43231  28.192   5.526   6.238
 3242POPC   C2B43232  28.168   5.348   6.640
 3242POPC   C3B43233  28.346   5.411   7.023
 3242POPC   C4B43234  28.040   5.498   7.273
 3243POPC   NC343235  15.482  28.052   5.065
 3243POPC   PO443236  15.377  27.509   5.424
 3243POPC   GL143237  15.190  27.602   5.802
 3243POPC   GL243238  15.241  27.292   5.951
 3243POPC   C1A43239  15.211  27.769   6.194
 3243POPC   D2A43240  15.326  27.635   6.589
 3243POPC   C3A43241  15.144  27.873   6.882
 3243POPC   C4A43242  15.111  27.883   7.299
 3243POPC   C1B43243  14.847  27.418   6.191
 3243POPC   C2B43244  14.760  27.602   6.630
 3243POPC   C3B43245  14.882  27.456   7.090
 3243POPC   C4B43246  15.144  27.199   7.434
 3244POPC   NC343247  12.457   8.081   5.133
 3244POPC   PO443248  13.073   7.974   5.381
 3244POPC   GL143249  12.819   8.122   5.742
 3244POPC   GL243250  12.573   8.373   5.647
 3244POPC   C1A43251  12.761   8.019   6.197
 3244POPC   D2A43252  13.083   8.009   6.531
 3244POPC   C3A43253  12.800   8.019   6.899
 3244POPC   C4A43254  12.629   8.045   7.318
 3244POPC   C1B43255  12.733   8.515   6.084
 3244POPC   C2B43256  12.826   8.445   6.562
 3244POPC   C3B43257  12.781   8.505   7.041
 3244POPC   C4B43258  12.637   8.521   7.488
 3245POPC   NC343259  13.288  26.414   5.240
 3245POPC   PO443260  12.903  26.927   5.328
 3245POPC   GL143261  12.872  26.733   5.822
 3245POPC   GL243262  13.142  26.447   5.859
 3245POPC   C1A43263  12.531  26.782   6.189
 3245POPC   D2A43264  12.377  26.888   6.601
 3245POPC   C3A43265  12.707  26.929   6.885
 3245POPC   C4A43266  12.913  26.853   7.277
 3245POPC   C1B43267  12.825  26.380   6.173
 3245POPC   C2B43268  12.903  26.573   6.550
 3245POPC   C3B43269  12.879  26.432   6.953
 3245POPC   C4B43270  12.811  26.337   7.351
 3246POPC   NC343271  33.808   8.434   5.226
 3246POPC   PO443272  33.605   7.873   5.512
 3246POPC   GL143273  33.624   8.269   5.765
 3246POPC   GL243274  33.948   8.371   5.750
 3246POPC   C1A43275  33.681   8.492   6.163
 3246POPC   D2A43276  33.516   8.499   6.560
 3246POPC   C3A43277  33.707   8.294   6.919
 3246POPC   C4A43278  33.867   8.283   7.328
 3246POPC   C1B43279  33.912   8.040   6.152
 3246POPC   C2B43280  33.917   7.913   6.629
 3246POPC   C3B43281  33.927   7.822   7.104
 3246POPC   C4B43282  34.041   7.870   7.569
 3247POPC   NC343283  20.400   2.945   5.367
 3247POPC   PO443284  20.876   2.478   5.361
 3247POPC   GL143285  20.677   2.679   5.707
 3247POPC   GL243286  20.523   2.403   5.897
 3247POPC   C1A43287  20.542   2.904   6.072
 3247POPC   D2A43288  20.323   2.754   6.442
 3247POPC   C3A43289  20.386   2.834   6.884
 3247POPC   C4A43290  20.364   2.725   7.326
 3247POPC   C1B43291  20.868   2.537   6.187
 3247POPC   C2B43292  20.818   2.827   6.538
 3247POPC   C3B43293  20.848   2.629   6.945
 3247POPC   C4B43294  21.005   2.534   7.336
 3248POPC   NC343295  28.964   9.341   5.244
 3248POPC   PO443296  29.258   8.812   5.335
 3248POPC   GL143297  29.255   8.996   5.743
 3248POPC   GL243298  29.324   8.668   5.835
 3248POPC   C1A43299  29.073   9.273   6.105
 3248POPC   D2A43300  28.919   9.380   6.552
 3248POPC   C3A43301  29.059   9.097   6.903
 3248POPC   C4A43302  29.270   9.209   7.281
 3248POPC   C1B43303  29.554   8.591   6.183
 3248POPC   C2B43304  29.414   8.685   6.573
 3248POPC   C3B43305  29.549   8.576   6.961
 3248POPC   C4B43306  29.249   8.685   7.259
 3249POPC   NC343307   6.488  22.028   5.326
 3249POPC   PO443308   6.992  22.424   5.441
 3249POPC   GL143309   6.774  22.284   5.817
 3249POPC   GL243310   6.784  21.924   5.828
 3249POPC   C1A43311   6.880  22.279   6.277
 3249POPC   D2A43312   7.006  22.033   6.652
 3249POPC   C3A43313   6.786  22.107   7.041
 3249POPC   C4A43314   6.509  22.438   7.201
 3249POPC   C1B43315   6.589  21.864   6.273
 3249POPC   C2B43316   6.458  22.127   6.638
 3249POPC   C3B43317   6.274  21.994   7.053
 3249POPC   C4B43318   6.463  21.970   7.477
 3250POPC   NC343319   3.131  14.187   5.455
 3250POPC   PO443320   2.545  14.455   5.287
 3250POPC   GL143321   2.740  14.408   5.686
 3250POPC   GL243322   2.994  14.628   5.761
 3250POPC   C1A43323   2.855  14.245   6.123
 3250POPC   D2A43324   2.612  14.357   6.478
 3250POPC   C3A43325   2.806  14.297   6.816
 3250POPC   C4A43326   2.755  14.299   7.200
 3250POPC   C1B43327   2.664  14.717   6.086
 3250POPC   C2B43328   2.594  14.866   6.520
 3250POPC   C3B43329   2.490  14.684   6.940
 3250POPC   C4B43330   2.643  14.767   7.317
 3251POPC   NC343331  36.317  38.037   5.426
 3251POPC   PO443332  36.148  37.372   5.441
 3251POPC   GL143333  36.013  37.617   5.807
 3251POPC   GL243334  36.338  37.716   5.831
 3251POPC   C1A43335  35.916  37.637   6.278
 3251POPC   D2A43336  35.722  37.450   6.648
 3251POPC   C3A43337  35.889  37.729   6.907
 3251POPC   C4A43338  36.005  37.813   7.318
 3251POPC   C1B43339  36.273  37.976   6.166
 3251POPC   C2B43340  36.280  37.845   6.589
 3251POPC   C3B43341  36.349  37.980   6.989
 3251POPC   C4B43342  36.504  37.769   7.350
 3252POPC   NC343343   2.232   1.812   5.408
 3252POPC   PO443344   1.761   2.307   5.234
 3252POPC   GL143345   1.710   2.199   5.698
 3252POPC   GL243346   1.834   1.859   5.758
 3252POPC   C1A43347   1.794   2.218   6.150
 3252POPC   D2A43348   2.188   2.145   6.387
 3252POPC   C3A43349   2.102   2.111   6.819
 3252POPC   C4A43350   2.091   2.112   7.290
 3252POPC   C1B43351   2.004   1.726   6.169
 3252POPC   C2B43352   1.834   1.714   6.613
 3252POPC   C3B43353   1.965   1.676   7.074
 3252POPC   C4B43354   1.866   1.666   7.549
 3253POPC   NC343355  27.596  30.979   5.371
 3253POPC   PO443356  27.447  30.328   5.413
 3253POPC   GL143357  27.629  30.559   5.776
 3253POPC   GL243358  27.749  30.913   5.855
 3253POPC   C1A43359  27.533  30.631   6.208
 3253POPC   D2A43360  27.736  30.504   6.555
 3253POPC   C3A43361  27.547  30.557   6.947
 3253POPC   C4A43362  27.415  30.451   7.366
 3253POPC   C1B43363  27.896  30.996   6.312
 3253POPC   C2B43364  27.891  30.952   6.775
 3253POPC   C3B43365  27.847  30.832   7.241
 3253POPC   C4B43366  28.028  30.995   7.639
 3254POPC   NC343367  41.581  16.070   5.394
 3254POPC   PO443368  41.109  15.611   5.627
 3254POPC   GL143369  41.451  15.868   5.880
 3254POPC   GL243370  41.492  16.252   5.867
 3254POPC   C1A43371  41.662  15.708   6.262
 3254POPC   D2A43372  41.558  15.509   6.676
 3254POPC   C3A43373  41.701  15.689   7.050
 3254POPC   C4A43374  41.371  15.872   7.228
 3254POPC   C1B43375  41.564  16.230   6.307
 3254POPC   C2B43376  41.291  16.366   6.655
 3254POPC   C3B43377  41.340  16.342   7.068
 3254POPC   C4B43378  41.797  16.235   7.152
 3255POPC   NC343379   7.215  43.364   5.357
 3255POPC   PO443380   7.378  42.690   5.369
 3255POPC   GL143381   7.375  42.913   5.784
 3255POPC   GL243382   7.466  43.271   5.793
 3255POPC   C1A43383   7.434  42.982   6.236
 3255POPC   D2A43384   7.298  43.240   6.610
 3255POPC   C3A43385   7.366  43.033   7.028
 3255POPC   C4A43386   7.162  43.028   7.429
 3255POPC   C1B43387   7.483  43.488   6.179
 3255POPC   C2B43388   7.773  43.320   6.496
 3255POPC   C3B43389   7.874  43.207   6.948
 3255POPC   C4B43390   7.672  43.265   7.371
 3256POPC   NC343391  21.292  35.860   5.450
 3256POPC   PO443392  21.788  36.316   5.351
 3256POPC   GL143393  21.653  36.220   5.766
 3256POPC   GL243394  21.314  36.270   5.836
 3256POPC   C1A43395  21.705  35.947   6.153
 3256POPC   D2A43396  21.486  35.925   6.570
 3256POPC   C3A43397  21.598  36.086   6.981
 3256POPC   C4A43398  21.264  36.054   7.264
 3256POPC   C1B43399  21.417  36.360   6.277
 3256POPC   C2B43400  21.510  36.515   6.702
 3256POPC   C3B43401  21.417  36.537   7.152
 3256POPC   C4B43402  21.182  36.478   7.518
 3257POPC   NC343403   3.768  10.451   5.304
 3257POPC   PO443404   3.235  10.833   5.279
 3257POPC   GL143405   3.375  10.668   5.649
 3257POPC   GL243406   3.130  10.837   5.844
 3257POPC   C1A43407   3.544  10.429   6.008
 3257POPC   D2A43408   3.804  10.542   6.384
 3257POPC   C3A43409   3.699  10.424   6.819
 3257POPC   C4A43410   3.916  10.305   7.193
 3257POPC   C1B43411   3.279  10.778   6.259
 3257POPC   C2B43412   3.229  10.577   6.659
 3257POPC   C3B43413   3.278  10.562   7.124
 3257POPC   C4B43414   3.306  10.680   7.565
 3258POPC   NC343415  24.770  22.304   5.392
 3258POPC   PO443416  24.327  21.828   5.454
 3258POPC   GL143417  24.175  22.141   5.784
 3258POPC   GL243418  24.413  22.405   5.755
 3258POPC   C1A43419  24.347  22.211   6.213
 3258POPC   D2A43420  24.568  22.050   6.586
 3258POPC   C3A43421  24.374  22.155   6.977
 3258POPC   C4A43422  24.313  22.018   7.392
 3258POPC   C1B43423  24.769  22.463   6.079
 3258POPC   C2B43424  24.807  22.697   6.454
 3258POPC   C3B43425  24.680  22.551   6.868
 3258POPC   C4B43426  24.648  22.420   7.310
 3259POPC   NC343427  24.872  18.027   5.493
 3259POPC   PO443428  24.196  18.087   5.287
 3259POPC   GL143429  24.397  18.025   5.720
 3259POPC   GL243430  24.600  18.325   5.809
 3259POPC   C1A43431  24.416  18.101   6.213
 3259POPC   D2A43432  24.188  18.370   6.529
 3259POPC   C3A43433  24.335  18.238   6.917
 3259POPC   C4A43434  24.671  18.065   7.152
 3259POPC   C1B43435  24.810  18.529   6.171
 3259POPC   C2B43436  24.700  18.490   6.614
 3259POPC   C3B43437  24.769  18.563   7.065
 3259POPC   C4B43438  24.742  18.484   7.518
 3260POPC   NC343439  16.501   5.169   5.454
 3260POPC   PO443440  17.130   5.257   5.545
 3260POPC   GL143441  16.802   5.272   5.871
 3260POPC   GL243442  16.547   4.984   5.922
 3260POPC   C1A43443  16.681   5.256   6.308
 3260POPC   D2A43444  16.442   5.270   6.662
 3260POPC   C3A43445  16.715   5.215   7.008
 3260POPC   C4A43446  16.734   5.186   7.445
 3260POPC   C1B43447  16.491   4.742   6.317
 3260POPC   C2B43448  16.504   4.766   6.782
 3260POPC   C3B43449  16.631   4.763   7.231
 3260POPC   C4B43450  16.446   4.846   7.697
 3261POPC   NC343451  15.041  44.502   5.408
 3261POPC   PO443452  15.575  44.903   5.600
 3261POPC   GL143453  15.345  44.559   5.868
 3261POPC   GL243454  14.979  44.488   5.899
 3261POPC   C1A43455  15.223  44.503   6.330
 3261POPC   D2A43456  15.446  44.720   6.616
 3261POPC   C3A43457  15.419  44.910   6.981
 3261POPC   C4A43458  15.480  44.747   7.353
 3261POPC   C1B43459  14.952  44.890   6.115
 3261POPC   C2B43460  14.920  44.945   6.560
 3261POPC   C3B43461  14.965  44.673   6.901
 3261POPC   C4B43462  14.995  44.893   7.287
 3262POPC   NC343463  40.153   4.000   5.353
 3262POPC   PO443464  39.779   4.505   5.135
 3262POPC   GL143465  40.017   4.377   5.635
 3262POPC   GL243466  39.844   4.076   5.777
 3262POPC   C1A43467  40.273   4.392   6.055
 3262POPC   D2A43468  40.314   4.634   6.477
 3262POPC   C3A43469  40.335   4.483   6.929
 3262POPC   C4A43470  40.089   4.449   7.313
 3262POPC   C1B43471  39.873   4.101   6.219
 3262POPC   C2B43472  39.957   4.254   6.642
 3262POPC   C3B43473  39.818   4.130   7.026
 3262POPC   C4B43474  39.745   4.112   7.494
 3263POPC   NC343475   9.906  24.568   5.255
 3263POPC   PO443476   9.878  23.907   5.399
 3263POPC   GL143477   9.830  24.280   5.713
 3263POPC   GL243478   9.936  24.631   5.752
 3263POPC   C1A43479   9.619  24.457   6.116
 3263POPC   D2A43480   9.480  24.626   6.525
 3263POPC   C3A43481   9.700  24.492   6.888
 3263POPC   C4A43482   9.643  24.606   7.283
 3263POPC   C1B43483  10.081  24.765   6.156
 3263POPC   C2B43484  10.106  24.634   6.589
 3263POPC   C3B43485  10.089  24.817   7.007
 3263POPC   C4B43486  10.136  24.709   7.460
 3264POPC   NC343487  30.594  19.537   5.264
 3264POPC   PO443488  30.904  19.981   5.549
 3264POPC   GL143489  30.702  19.747   5.861
 3264POPC   GL243490  30.369  19.609   5.804
 3264POPC   C1A43491  30.867  19.668   6.289
 3264POPC   D2A43492  30.828  19.797   6.733
 3264POPC   C3A43493  30.628  19.520   7.026
 3264POPC   C4A43494  30.650  19.389   7.475
 3264POPC   C1B43495  30.334  19.907   6.187
 3264POPC   C2B43496  30.306  19.873   6.645
 3264POPC   C3B43497  30.467  20.031   7.018
 3264POPC   C4B43498  30.445  19.857   7.404
 3265POPC   NC343499  11.107  42.471   5.290
 3265POPC   PO443500  11.764  42.234   5.173
 3265POPC   GL143501  11.455  42.330   5.638
 3265POPC   GL243502  11.117  42.177   5.759
 3265POPC   C1A43503  11.471  42.470   6.101
 3265POPC   D2A43504  11.193  42.639   6.440
 3265POPC   C3A43505  11.134  42.522   6.889
 3265POPC   C4A43506  11.003  42.359   7.314
 3265POPC   C1B43507  11.272  42.002   6.177
 3265POPC   C2B43508  11.393  42.175   6.589
 3265POPC   C3B43509  11.298  42.053   6.995
 3265POPC   C4B43510  11.417  41.931   7.373
 3266POPC   NC343511   0.267  28.603   5.378
 3266POPC   PO443512   0.703  28.055   5.296
 3266POPC   GL143513   0.620  28.344   5.673
 3266POPC   GL243514   0.343  28.585   5.860
 3266POPC   C1A43515   0.589  28.208   6.090
 3266POPC   D2A43516   0.620  28.011   6.466
 3266POPC   C3A43517   0.548  28.306   6.767
 3266POPC   C4A43518   0.446  28.294   7.189
 3266POPC   C1B43519   0.610  28.716   6.194
 3266POPC   C2B43520   0.526  28.830   6.605
 3266POPC   C3B43521   0.553  28.765   7.026
 3266POPC   C4B43522   0.166  28.877   7.138
 3267POPC   NC343523   7.791  31.019   5.488
 3267POPC   PO443524   8.419  30.728   5.461
 3267POPC   GL143525   8.145  30.806   5.812
 3267POPC   GL243526   7.867  30.575   5.851
 3267POPC   C1A43527   8.112  31.149   6.139
 3267POPC   D2A43528   8.314  31.231   6.539
 3267POPC   C3A43529   8.152  30.985   6.870
 3267POPC   C4A43530   7.973  30.784   7.233
 3267POPC   C1B43531   8.087  30.626   6.298
 3267POPC   C2B43532   8.052  30.500   6.758
 3267POPC   C3B43533   8.207  30.350   7.168
 3267POPC   C4B43534   8.051  30.404   7.579
 3268POPC   NC343535   4.432   7.296   5.316
 3268POPC   PO443536   3.894   7.682   5.310
 3268POPC   GL143537   4.126   7.471   5.701
 3268POPC   GL243538   4.487   7.642   5.715
 3268POPC   C1A43539   4.223   7.588   6.166
 3268POPC   D2A43540   4.103   7.665   6.605
 3268POPC   C3A43541   4.272   7.447   6.977
 3268POPC   C4A43542   4.102   7.184   7.336
 3268POPC   C1B43543   4.655   7.829   6.122
 3268POPC   C2B43544   4.649   7.666   6.599
 3268POPC   C3B43545   4.707   7.686   7.079
 3268POPC   C4B43546   4.439   7.537   7.461
 3269POPC   NC343547  35.707  37.248   5.349
 3269POPC   PO443548  35.203  36.848   5.568
 3269POPC   GL143549  35.382  36.950   5.966
 3269POPC   GL243550  35.724  37.034   5.877
 3269POPC   C1A43551  35.445  36.927   6.410
 3269POPC   D2A43552  35.472  36.593   6.726
 3269POPC   C3A43553  35.179  36.651   7.058
 3269POPC   C4A43554  35.059  36.942   7.386
 3269POPC   C1B43555  35.912  37.107   6.302
 3269POPC   C2B43556  35.875  36.956   6.723
 3269POPC   C3B43557  35.677  37.015   7.132
 3269POPC   C4B43558  35.494  37.143   7.549
 3270POPC   NC343559  19.936  39.191   5.467
 3270POPC   PO443560  19.848  39.773   5.104
 3270POPC   GL143561  19.585  39.558   5.578
 3270POPC   GL243562  19.531  39.231   5.781
 3270POPC   C1A43563  19.589  39.594   6.088
 3270POPC   D2A43564  19.629  39.563   6.546
 3270POPC   C3A43565  19.606  39.233   6.840
 3270POPC   C4A43566  19.861  39.293   7.206
 3270POPC   C1B43567  19.684  38.962   6.122
 3270POPC   C2B43568  19.989  38.777   6.420
 3270POPC   C3B43569  20.120  39.003   6.772
 3270POPC   C4B43570  20.217  38.941   7.189
 3271POPC   NC343571   0.929  28.457   5.203
 3271POPC   PO443572   1.383  28.283   5.569
 3271POPC   GL143573   1.282  28.303   5.988
 3271POPC   GL243574   1.548  28.535   6.022
 3271POPC   C1A43575   0.998  28.377   6.348
 3271POPC   D2A43576   0.984  28.634   6.717
 3271POPC   C3A43577   0.947  28.386   7.101
 3271POPC   C4A43578   1.225  28.037   7.234
 3271POPC   C1B43579   1.483  28.515   6.439
 3271POPC   C2B43580   1.331  28.251   6.744
 3271POPC   C3B43581   1.443  28.503   7.041
 3271POPC   C4B43582   1.603  28.388   7.404
 3272POPC   NC343583   5.138  12.367   5.498
 3272POPC   PO443584   5.017  13.030   5.548
 3272POPC   GL143585   5.208  12.742   5.846
 3272POPC   GL243586   4.920  12.539   5.960
 3272POPC   C1A43587   5.287  12.738   6.295
 3272POPC   D2A43588   5.024  12.845   6.660
 3272POPC   C3A43589   5.173  12.961   7.050
 3272POPC   C4A43590   5.417  12.651   7.309
 3272POPC   C1B43591   4.778  12.910   6.183
 3272POPC   C2B43592   4.605  13.100   6.539
 3272POPC   C3B43593   4.603  12.993   6.971
 3272POPC   C4B43594   4.734  13.184   7.362
 3273POPC   NC343595  34.209  30.707   5.525
 3273POPC   PO443596  33.780  31.099   5.121
 3273POPC   GL143597  33.725  30.876   5.609
 3273POPC   GL243598  33.676  30.532   5.711
 3273POPC   C1A43599  33.774  30.921   6.078
 3273POPC   D2A43600  33.893  30.885   6.559
 3273POPC   C3A43601  33.558  30.900   6.907
 3273POPC   C4A43602  33.576  30.805   7.371
 3273POPC   C1B43603  33.938  30.447   6.111
 3273POPC   C2B43604  34.046  30.387   6.576
 3273POPC   C3B43605  33.856  30.470   6.999
 3273POPC   C4B43606  33.967  30.494   7.433
 3274POPC   NC343607   2.960  29.618   5.466
 3274POPC   PO443608   2.735  30.213   5.299
 3274POPC   GL143609   2.817  30.030   5.758
 3274POPC   GL243610   2.667  29.694   5.867
 3274POPC   C1A43611   2.956  29.912   6.221
 3274POPC   D2A43612   2.728  30.064   6.598
 3274POPC   C3A43613   2.964  30.139   6.947
 3274POPC   C4A43614   2.833  30.031   7.308
 3274POPC   C1B43615   2.441  29.406   6.156
 3274POPC   C2B43616   2.580  29.526   6.553
 3274POPC   C3B43617   2.880  29.627   6.851
 3274POPC   C4B43618   2.775  29.473   7.227
 3275POPC   NC343619  19.394  21.344   5.382
 3275POPC   PO443620  18.800  21.664   5.206
 3275POPC   GL143621  18.870  21.441   5.629
 3275POPC   GL243622  19.191  21.416   5.827
 3275POPC   C1A43623  18.772  21.472   6.104
 3275POPC   D2A43624  18.652  21.316   6.547
 3275POPC   C3A43625  18.788  21.474   6.975
 3275POPC   C4A43626  18.764  21.189   7.310
 3275POPC   C1B43627  19.167  21.193   6.230
 3275POPC   C2B43628  19.170  21.413   6.630
 3275POPC   C3B43629  19.211  21.203   7.040
 3275POPC   C4B43630  19.563  21.098   7.299
 3276POPC   NC343631  23.302  27.359   5.482
 3276POPC   PO443632  22.691  27.508   5.436
 3276POPC   GL143633  22.924  27.387   5.845
 3276POPC   GL243634  23.272  27.228   5.965
 3276POPC   C1A43635  22.907  27.527   6.285
 3276POPC   D2A43636  22.792  27.404   6.727
 3276POPC   C3A43637  22.709  27.752   6.991
 3276POPC   C4A43638  22.769  27.797   7.447
 3276POPC   C1B43639  23.458  27.526   6.212
 3276POPC   C2B43640  23.320  27.677   6.568
 3276POPC   C3B43641  23.315  27.732   6.972
 3276POPC   C4B43642  23.062  27.470   7.186
 3277POPC   NC343643  29.472  38.225   5.291
 3277POPC   PO443644  30.044  38.621   5.336
 3277POPC   GL143645  29.830  38.410   5.652
 3277POPC   GL243646  30.136  38.457   5.835
 3277POPC   C1A43647  29.736  38.360   6.111
 3277POPC   D2A43648  29.682  38.618   6.474
 3277POPC   C3A43649  29.889  38.499   6.851
 3277POPC   C4A43650  29.889  38.202   7.204
 3277POPC   C1B43651  30.233  38.717   6.156
 3277POPC   C2B43652  30.148  38.902   6.529
 3277POPC   C3B43653  30.325  38.778   6.878
 3277POPC   C4B43654  30.148  38.692   7.259
 3278POPC   NC343655   6.845  25.999   5.307
 3278POPC   PO443656   6.169  26.075   5.272
 3278POPC   GL143657   6.493  26.007   5.673
 3278POPC   GL243658   6.856  25.865   5.779
 3278POPC   C1A43659   6.539  26.075   6.133
 3278POPC   D2A43660   6.378  25.935   6.548
 3278POPC   C3A43661   6.542  26.189   6.886
 3278POPC   C4A43662   6.638  26.083   7.297
 3278POPC   C1B43663   7.031  25.873   6.185
 3278POPC   C2B43664   6.901  25.938   6.610
 3278POPC   C3B43665   7.069  25.907   7.029
 3278POPC   C4B43666   6.959  25.664   7.373
 3279POPC   NC343667  29.898   7.216   5.310
 3279POPC   PO443668  30.397   7.733   5.269
 3279POPC   GL143669  30.100   7.588   5.657
 3279POPC   GL243670  29.978   7.237   5.798
 3279POPC   C1A43671  29.732   7.613   6.029
 3279POPC   D2A43672  29.483   7.654   6.454
 3279POPC   C3A43673  29.761   7.602   6.841
 3279POPC   C4A43674  29.958   7.745   7.257
 3279POPC   C1B43675  30.051   7.177   6.239
 3279POPC   C2B43676  30.185   7.356   6.639
 3279POPC   C3B43677  30.066   7.236   7.061
 3279POPC   C4B43678  29.633   7.134   7.228
 3280POPC   NC343679  33.997  26.700   5.479
 3280POPC   PO443680  33.337  26.568   5.571
 3280POPC   GL143681  33.597  26.698   5.872
 3280POPC   GL243682  33.815  27.003   5.863
 3280POPC   C1A43683  33.511  26.716   6.305
 3280POPC   D2A43684  33.538  26.963   6.656
 3280POPC   C3A43685  33.669  26.760   7.000
 3280POPC   C4A43686  33.730  27.082   7.326
 3280POPC   C1B43687  34.042  26.714   6.149
 3280POPC   C2B43688  33.958  26.635   6.579
 3280POPC   C3B43689  34.091  26.978   6.844
 3280POPC   C4B43690  34.256  26.984   7.237
 3281POPC   NC343691  39.930  15.680   5.432
 3281POPC   PO443692  40.403  16.180   5.471
 3281POPC   GL143693  40.185  15.994   5.811
 3281POPC   GL243694  40.201  16.374   5.908
 3281POPC   C1A43695  40.040  15.670   6.159
 3281POPC   D2A43696  39.797  15.532   6.565
 3281POPC   C3A43697  40.003  15.580   7.001
 3281POPC   C4A43698  40.162  15.979   7.161
 3281POPC   C1B43699  39.853  16.234   6.146
 3281POPC   C2B43700  39.921  16.032   6.523
 3281POPC   C3B43701  39.728  15.987   6.887
 3281POPC   C4B43702  39.677  16.314   7.159
 3282POPC   NC343703  19.103  13.651   5.324
 3282POPC   PO443704  19.084  14.269   5.565
 3282POPC   GL143705  18.872  14.392   5.907
 3282POPC   GL243706  19.149  14.610   6.018
 3282POPC   C1A43707  18.749  14.161   6.253
 3282POPC   D2A43708  19.064  14.129   6.590
 3282POPC   C3A43709  19.001  14.363   6.955
 3282POPC   C4A43710  18.782  14.675   7.233
 3282POPC   C1B43711  18.926  14.603   6.410
 3282POPC   C2B43712  18.951  14.852   6.755
 3282POPC   C3B43713  19.219  14.846   7.056
 3282POPC   C4B43714  19.317  14.472   7.310
 3283POPC   NC343715  42.069  11.046   5.605
 3283POPC   PO443716  42.521  11.471   5.350
 3283POPC   GL143717  42.423  11.329   5.806
 3283POPC   GL243718  42.107  11.482   5.957
 3283POPC   C1A43719  42.370  11.141   6.223
 3283POPC   D2A43720  42.179  11.219   6.577
 3283POPC   C3A43721  42.417  11.119   6.894
 3283POPC   C4A43722  42.295  11.391   7.199
 3283POPC   C1B43723  41.828  11.180   6.209
 3283POPC   C2B43724  41.728  10.985   6.611
 3283POPC   C3B43725  41.915  11.091   7.016
 3283POPC   C4B43726  41.799  11.508   7.242
 3284POPC   NC343727  11.084  29.478   5.329
 3284POPC   PO443728  11.176  28.810   5.260
 3284POPC   GL143729  11.027  29.057   5.655
 3284POPC   GL243730  11.350  29.206   5.771
 3284POPC   C1A43731  10.964  29.267   6.087
 3284POPC   D2A43732  10.869  29.380   6.505
 3284POPC   C3A43733  10.859  29.102   6.860
 3284POPC   C4A43734  11.073  29.137   7.237
 3284POPC   C1B43735  11.584  29.331   6.165
 3284POPC   C2B43736  11.771  29.355   6.586
 3284POPC   C3B43737  11.544  29.320   6.974
 3284POPC   C4B43738  11.415  29.575   7.300
 3285POPC   NC343739  30.767   4.628   5.464
 3285POPC   PO443740  30.347   4.115   5.586
 3285POPC   GL143741  30.763   4.083   5.796
 3285POPC   GL243742  30.914   4.376   5.861
 3285POPC   C1A43743  30.790   4.112   6.258
 3285POPC   D2A43744  30.578   3.960   6.631
 3285POPC   C3A43745  30.687   4.169   7.023
 3285POPC   C4A43746  30.985   4.131   7.350
 3285POPC   C1B43747  30.969   4.627   6.218
 3285POPC   C2B43748  31.067   4.525   6.621
 3285POPC   C3B43749  31.051   4.692   7.028
 3285POPC   C4B43750  30.774   4.607   7.350
 3286POPC   NC343751  44.045  23.174   5.477
 3286POPC   PO443752  44.077  22.539   5.694
 3286POPC   GL143753  43.804  22.904   5.849
 3286POPC   GL243754  43.570  23.140   6.078
 3286POPC   C1A43755  43.902  22.831   6.275
 3286POPC   D2A43756  43.842  22.528   6.572
 3286POPC   C3A43757  43.890  22.814   6.880
 3286POPC   C4A43758  43.945  22.875   7.329
 3286POPC   C1B43759  43.753  23.291   6.437
 3286POPC   C2B43760  43.841  23.413   6.818
 3286POPC   C3B43761  43.616  23.179   7.088
 3286POPC   C4B43762  43.578  23.178   7.517
 3287POPC   NC343763  41.798  20.042   5.471
 3287POPC   PO443764  41.253  19.945   5.218
 3287POPC   GL143765  41.358  19.894   5.720
 3287POPC   GL243766  41.659  19.684   5.801
 3287POPC   C1A43767  41.565  20.059   6.182
 3287POPC   D2A43768  41.898  20.143   6.583
 3287POPC   C3A43769  41.806  20.069   7.061
 3287POPC   C4A43770  41.341  20.016   7.071
 3287POPC   C1B43771  41.359  19.579   6.128
 3287POPC   C2B43772  41.436  19.477   6.553
 3287POPC   C3B43773  41.647  19.604   6.946
 3287POPC   C4B43774  41.470  19.583   7.368
 3288POPC   NC343775   3.074   6.514   5.654
 3288POPC   PO443776   2.674   6.647   5.110
 3288POPC   GL143777   2.585   6.694   5.605
 3288POPC   GL243778   2.831   6.939   5.766
 3288POPC   C1A43779   2.527   6.665   6.096
 3288POPC   D2A43780   2.347   6.617   6.547
 3288POPC   C3A43781   2.408   6.381   6.953
 3288POPC   C4A43782   2.569   6.561   7.352
 3288POPC   C1B43783   2.985   6.929   6.180
 3288POPC   C2B43784   2.856   6.690   6.511
 3288POPC   C3B43785   2.738   6.775   6.904
 3288POPC   C4B43786   3.038   6.668   7.185
 3289POPC   NC343787   6.107  39.240   5.465
 3289POPC   PO443788   5.427  39.212   5.333
 3289POPC   GL143789   5.663  39.190   5.739
 3289POPC   GL243790   5.748  39.552   5.722
 3289POPC   C1A43791   5.671  38.983   6.189
 3289POPC   D2A43792   5.911  38.837   6.584
 3289POPC   C3A43793   5.713  39.017   7.008
 3289POPC   C4A43794   5.855  39.084   7.462
 3289POPC   C1B43795   5.921  39.420   6.137
 3289POPC   C2B43796   5.795  39.337   6.588
 3289POPC   C3B43797   5.782  39.512   7.022
 3289POPC   C4B43798   5.528  39.471   7.419
 3290POPC   NC343799  18.915   3.640   5.619
 3290POPC   PO443800  19.269   3.173   5.509
 3290POPC   GL143801  18.957   3.189   5.853
 3290POPC   GL243802  18.609   3.082   5.773
 3290POPC   C1A43803  19.000   3.400   6.274
 3290POPC   D2A43804  19.135   3.283   6.686
 3290POPC   C3A43805  19.178   3.634   6.987
 3290POPC   C4A43806  19.551   3.814   7.199
 3290POPC   C1B43807  18.547   3.209   6.172
 3290POPC   C2B43808  18.490   3.360   6.566
 3290POPC   C3B43809  18.712   3.358   6.939
 3290POPC   C4B43810  18.845   3.464   7.357
 3291POPC   NC343811  31.185  25.784   5.548
 3291POPC   PO443812  31.588  26.399   5.503
 3291POPC   GL143813  31.423  26.245   5.807
 3291POPC   GL243814  31.727  26.234   5.988
 3291POPC   C1A43815  31.236  26.322   6.162
 3291POPC   D2A43816  31.077  26.074   6.461
 3291POPC   C3A43817  31.280  26.031   6.877
 3291POPC   C4A43818  31.320  26.181   7.312
 3291POPC   C1B43819  31.563  25.953   6.294
 3291POPC   C2B43820  31.666  25.724   6.656
 3291POPC   C3B43821  31.896  25.876   7.021
 3291POPC   C4B43822  31.838  26.056   7.462
 3292POPC   NC343823  13.647  37.801   5.334
 3292POPC   PO443824  14.045  37.306   5.575
 3292POPC   GL143825  13.889  37.671   5.793
 3292POPC   GL243826  13.496  37.709   5.817
 3292POPC   C1A43827  13.821  37.825   6.215
 3292POPC   D2A43828  13.687  37.627   6.604
 3292POPC   C3A43829  13.918  37.558   6.971
 3292POPC   C4A43830  13.728  37.575   7.366
 3292POPC   C1B43831  13.313  37.961   6.171
 3292POPC   C2B43832  13.464  38.075   6.603
 3292POPC   C3B43833  13.535  37.931   7.015
 3292POPC   C4B43834  13.410  37.994   7.450
 3293POPC   NC343835  32.837   3.484   5.011
 3293POPC   PO443836  33.248   3.631   5.531
 3293POPC   GL143837  32.980   3.407   5.780
 3293POPC   GL243838  33.256   3.270   5.909
 3293POPC   C1A43839  32.883   3.569   6.191
 3293POPC   D2A43840  33.083   3.707   6.581
 3293POPC   C3A43841  33.047   3.361   6.864
 3293POPC   C4A43842  32.750   3.258   7.220
 3293POPC   C1B43843  33.464   3.481   6.252
 3293POPC   C2B43844  33.555   3.497   6.697
 3293POPC   C3B43845  33.370   3.706   7.055
 3293POPC   C4B43846  33.124   3.684   7.414
 3294POPC   NC343847  24.861   5.826   5.512
 3294POPC   PO443848  25.193   6.340   5.392
 3294POPC   GL143849  25.287   6.023   5.754
 3294POPC   GL243850  25.360   5.654   5.776
 3294POPC   C1A43851  25.134   5.909   6.181
 3294POPC   D2A43852  25.043   5.653   6.542
 3294POPC   C3A43853  25.175   5.885   6.904
 3294POPC   C4A43854  25.147   6.138   7.268
 3294POPC   C1B43855  25.598   5.703   6.173
 3294POPC   C2B43856  25.592   5.855   6.579
 3294POPC   C3B43857  25.641   5.686   6.986
 3294POPC   C4B43858  25.401   5.677   7.349
 3295POPC   NC343859  38.265  24.704   5.388
 3295POPC   PO443860  38.803  24.232   5.487
 3295POPC   GL143861  38.571  24.481   5.798
 3295POPC   GL243862  38.422  24.192   5.921
 3295POPC   C1A43863  38.373  24.634   6.207
 3295POPC   D2A43864  38.575  24.626   6.637
 3295POPC   C3A43865  38.412  24.442   7.018
 3295POPC   C4A43866  38.427  24.541   7.459
 3295POPC   C1B43867  38.686  24.236   6.306
 3295POPC   C2B43868  38.642  24.092   6.751
 3295POPC   C3B43869  38.739  24.139   7.258
 3295POPC   C4B43870  38.888  24.132   7.734
 3296POPC   NC343871  18.242  27.989   5.407
 3296POPC   PO443872  17.944  27.487   5.257
 3296POPC   GL143873  18.183  27.574   5.701
 3296POPC   GL243874  18.546  27.700   5.740
 3296POPC   C1A43875  18.214  27.716   6.143
 3296POPC   D2A43876  18.127  27.846   6.580
 3296POPC   C3A43877  18.341  27.711   6.954
 3296POPC   C4A43878  18.171  27.930   7.265
 3296POPC   C1B43879  18.603  27.393   6.072
 3296POPC   C2B43880  18.328  27.260   6.388
 3296POPC   C3B43881  18.274  27.226   6.823
 3296POPC   C4B43882  18.454  27.203   7.207
 3297POPC   NC343883   5.174  39.596   5.412
 3297POPC   PO443884   4.718  39.137   5.492
 3297POPC   GL143885   4.850  39.441   5.834
 3297POPC   GL243886   5.219  39.400   5.874
 3297POPC   C1A43887   4.965  39.509   6.301
 3297POPC   D2A43888   5.281  39.291   6.549
 3297POPC   C3A43889   5.254  39.266   7.008
 3297POPC   C4A43890   4.940  39.141   7.353
 3297POPC   C1B43891   5.455  39.656   6.158
 3297POPC   C2B43892   5.398  39.792   6.561
 3297POPC   C3B43893   5.045  39.729   6.809
 3297POPC   C4B43894   4.984  39.620   7.242
 3298POPC   NC343895  19.178  30.938   5.166
 3298POPC   PO443896  18.820  30.527   5.329
 3298POPC   GL143897  18.833  30.524   5.788
 3298POPC   GL243898  19.180  30.649   5.848
 3298POPC   C1A43899  18.841  30.732   6.228
 3298POPC   D2A43900  18.968  30.909   6.636
 3298POPC   C3A43901  19.082  30.612   6.959
 3298POPC   C4A43902  19.065  30.426   7.340
 3298POPC   C1B43903  19.349  30.828   6.280
 3298POPC   C2B43904  19.483  30.832   6.746
 3298POPC   C3B43905  19.528  30.651   7.207
 3298POPC   C4B43906  19.421  30.668   7.668
 3299POPC   NC343907  16.961  43.322   5.184
 3299POPC   PO443908  16.541  42.944   5.441
 3299POPC   GL143909  16.812  43.008   5.730
 3299POPC   GL243910  16.958  43.337   5.705
 3299POPC   C1A43911  16.697  43.006   6.140
 3299POPC   D2A43912  16.741  43.191   6.498
 3299POPC   C3A43913  16.743  43.071   6.895
 3299POPC   C4A43914  16.717  42.911   7.288
 3299POPC   C1B43915  16.809  43.549   6.074
 3299POPC   C2B43916  16.575  43.655   6.417
 3299POPC   C3B43917  16.593  43.580   6.866
 3299POPC   C4B43918  16.316  43.734   7.196
 3300POPC   NC343919  10.747  16.803   5.428
 3300POPC   PO443920  10.427  16.258   5.707
 3300POPC   GL143921  10.509  16.686   5.873
 3300POPC   GL243922  10.233  16.942   5.841
 3300POPC   C1A43923  10.805  16.977   6.106
 3300POPC   D2A43924  10.806  17.129   6.523
 3300POPC   C3A43925  10.568  16.882   6.799
 3300POPC   C4A43926  10.746  16.900   7.200
 3300POPC   C1B43927  10.345  16.938   6.290
 3300POPC   C2B43928  10.178  16.661   6.535
 3300POPC   C3B43929  10.240  16.431   6.877
 3300POPC   C4B43930  10.285  16.687   7.203
 3301POPC   NC343931  37.169  26.847   5.091
 3301POPC   PO443932  36.644  26.616   5.386
 3301POPC   GL143933  36.805  26.852   5.771
 3301POPC   GL243934  37.152  26.890   5.763
 3301POPC   C1A43935  36.962  26.699   6.198
 3301POPC   D2A43936  36.881  26.507   6.592
 3301POPC   C3A43937  37.173  26.665   6.876
 3301POPC   C4A43938  37.136  26.777   7.312
 3301POPC   C1B43939  37.230  27.133   6.143
 3301POPC   C2B43940  37.109  27.074   6.570
 3301POPC   C3B43941  37.252  27.173   7.005
 3301POPC   C4B43942  37.360  27.205   7.492
 3302POPC   NC343943  24.069  24.937   5.516
 3302POPC   PO443944  24.384  24.294   5.366
 3302POPC   GL143945  24.280  24.479   5.757
 3302POPC   GL243946  24.505  24.751   5.803
 3302POPC   C1A43947  24.256  24.472   6.219
 3302POPC   D2A43948  24.352  24.286   6.627
 3302POPC   C3A43949  24.264  24.519   7.007
 3302POPC   C4A43950  24.334  24.554   7.483
 3302POPC   C1B43951  24.676  24.745   6.228
 3302POPC   C2B43952  24.628  24.726   6.695
 3302POPC   C3B43953  24.715  24.701   7.154
 3302POPC   C4B43954  24.867  24.732   7.602
 3303POPC   NC343955  34.834  40.007   5.388
 3303POPC   PO443956  34.311  39.748   5.292
 3303POPC   GL143957  34.450  39.917   5.727
 3303POPC   GL243958  34.738  40.142   5.847
 3303POPC   C1A43959  34.399  40.029   6.185
 3303POPC   D2A43960  34.474  39.908   6.605
 3303POPC   C3A43961  34.404  40.135   6.975
 3303POPC   C4A43962  34.481  39.791   7.253
 3303POPC   C1B43963  34.859  40.333   6.235
 3303POPC   C2B43964  34.904  40.199   6.651
 3303POPC   C3B43965  34.894  40.158   7.087
 3303POPC   C4B43966  35.004  39.804   7.283
 3304POPC   NC343967  13.717  20.885   5.456
 3304POPC   PO443968  13.279  20.514   5.103
 3304POPC   GL143969  13.372  20.450   5.595
 3304POPC   GL243970  13.143  20.308   5.868
 3304POPC   C1A43971  13.618  20.447   6.029
 3304POPC   D2A43972  13.758  20.748   6.370
 3304POPC   C3A43973  13.850  20.722   6.809
 3304POPC   C4A43974  13.643  20.756   7.203
 3304POPC   C1B43975  13.184  20.378   6.318
 3304POPC   C2B43976  13.533  20.317   6.558
 3304POPC   C3B43977  13.566  20.301   6.978
 3304POPC   C4B43978  13.679  20.092   7.327
 3305POPC   NC343979  32.717  25.435   5.306
 3305POPC   PO443980  32.102  25.062   5.241
 3305POPC   GL143981  32.099  25.143   5.717
 3305POPC   GL243982  32.124  25.510   5.809
 3305POPC   C1A43983  32.288  25.074   6.167
 3305POPC   D2A43984  32.557  24.949   6.564
 3305POPC   C3A43985  32.379  24.927   6.955
 3305POPC   C4A43986  32.068  25.073   7.192
 3305POPC   C1B43987  32.456  25.576   6.132
 3305POPC   C2B43988  32.481  25.436   6.559
 3305POPC   C3B43989  32.299  25.501   6.972
 3305POPC   C4B43990  32.487  25.525   7.383
 3306POPC   NC343991  37.919  16.537   5.596
 3306POPC   PO443992  37.399  16.986   5.391
 3306POPC   GL143993  37.439  16.883   5.825
 3306POPC   GL243994  37.769  17.036   5.843
 3306POPC   C1A43995  37.588  16.740   6.252
 3306POPC   D2A43996  37.530  16.795   6.711
 3306POPC   C3A43997  37.767  16.502   6.978
 3306POPC   C4A43998  37.956  16.556   7.366
 3306POPC   C1B43999  37.732  17.230   6.266
 3306POPC   C2B44000  37.972  17.016   6.591
 3306POPC   C3B44001  37.932  16.979   7.058
 3306POPC   C4B44002  37.976  17.040   7.548
 3307POPC   NC344003  31.183  38.441   5.625
 3307POPC   PO444004  31.610  38.726   5.123
 3307POPC   GL144005  31.682  38.531   5.565
 3307POPC   GL244006  31.821  38.796   5.725
 3307POPC   C1A44007  31.637  38.461   6.073
 3307POPC   D2A44008  31.744  38.321   6.524
 3307POPC   C3A44009  31.540  38.524   6.861
 3307POPC   C4A44010  31.238  38.429   7.155
 3307POPC   C1B44011  31.786  39.006   6.111
 3307POPC   C2B44012  31.728  38.849   6.500
 3307POPC   C3B44013  31.736  38.994   6.917
 3307POPC   C4B44014  31.665  38.791   7.288
 3308POPC   NC344015   6.868   3.909   5.705
 3308POPC   PO444016   6.482   4.261   5.264
 3308POPC   GL144017   6.529   4.320   5.735
 3308POPC   GL244018   6.873   4.439   5.770
 3308POPC   C1A44019   6.610   4.283   6.201
 3308POPC   D2A44020   6.695   4.087   6.608
 3308POPC   C3A44021   6.452   4.247   6.964
 3308POPC   C4A44022   6.526   4.182   7.411
 3308POPC   C1B44023   7.000   4.694   6.164
 3308POPC   C2B44024   7.054   4.524   6.598
 3308POPC   C3B44025   7.001   4.293   6.990
 3308POPC   C4B44026   6.765   4.586   7.197
 3309POPC   NC344027   3.333   2.870   5.360
 3309POPC   PO444028   3.825   2.520   5.406
 3309POPC   GL144029   3.563   2.700   5.776
 3309POPC   GL244030   3.551   3.080   5.768
 3309POPC   C1A44031   3.354   2.813   6.180
 3309POPC   D2A44032   3.439   2.694   6.609
 3309POPC   C3A44033   3.251   2.845   6.990
 3309POPC   C4A44034   3.447   2.587   7.276
 3309POPC   C1B44035   3.836   3.018   6.117
 3309POPC   C2B44036   3.761   3.130   6.534
 3309POPC   C3B44037   3.742   2.973   6.932
 3309POPC   C4B44038   3.771   2.987   7.339
 3310POPC   NC344039  32.936  28.365   5.071
 3310POPC   PO444040  32.953  28.522   5.692
 3310POPC   GL144041  32.794  28.242   6.009
 3310POPC   GL244042  32.664  27.892   5.920
 3310POPC   C1A44043  32.989  28.278   6.412
 3310POPC   D2A44044  33.189  28.543   6.692
 3310POPC   C3A44045  33.273  28.370   7.073
 3310POPC   C4A44046  33.002  28.198   7.393
 3310POPC   C1B44047  32.675  27.876   6.386
 3310POPC   C2B44048  32.825  27.986   6.829
 3310POPC   C3B44049  32.553  28.027   7.196
 3310POPC   C4B44050  32.575  27.996   7.647
 3311POPC   NC344051  30.173  40.677   5.437
 3311POPC   PO444052  29.773  41.174   5.331
 3311POPC   GL144053  29.755  40.924   5.735
 3311POPC   GL244054  29.475  40.695   5.822
 3311POPC   C1A44055  29.909  40.644   6.104
 3311POPC   D2A44056  29.845  40.491   6.546
 3311POPC   C3A44057  29.879  40.664   6.978
 3311POPC   C4A44058  30.114  40.451   7.304
 3311POPC   C1B44059  29.507  40.936   6.210
 3311POPC   C2B44060  29.672  40.980   6.606
 3311POPC   C3B44061  29.709  41.183   6.987
 3311POPC   C4B44062  29.712  41.116   7.443
 3312POPC   NC344063  28.946   2.793   5.286
 3312POPC   PO444064  28.744   2.268   5.671
 3312POPC   GL144065  29.159   2.552   5.713
 3312POPC   GL244066  29.164   2.900   5.787
 3312POPC   C1A44067  29.406   2.621   6.117
 3312POPC   D2A44068  29.123   2.672   6.487
 3312POPC   C3A44069  29.179   2.448   6.871
 3312POPC   C4A44070  29.342   2.597   7.262
 3312POPC   C1B44071  29.271   3.101   6.204
 3312POPC   C2B44072  29.128   3.162   6.641
 3312POPC   C3B44073  28.994   2.905   6.998
 3312POPC   C4B44074  28.836   2.571   7.269
 3313POPC   NC344075  28.343  28.857   5.317
 3313POPC   PO444076  28.749  29.292   5.554
 3313POPC   GL144077  28.553  28.985   5.776
 3313POPC   GL244078  28.219  29.101   5.774
 3313POPC   C1A44079  28.577  28.897   6.201
 3313POPC   D2A44080  28.759  28.747   6.583
 3313POPC   C3A44081  28.551  29.004   6.880
 3313POPC   C4A44082  28.436  28.941   7.281
 3313POPC   C1B44083  28.095  29.300   6.147
 3313POPC   C2B44084  28.138  29.164   6.565
 3313POPC   C3B44085  28.125  29.269   7.007
 3313POPC   C4B44086  28.464  29.474   7.205
 3314POPC   NC344087  28.294   7.127   5.122
 3314POPC   PO444088  28.607   6.631   5.452
 3314POPC   GL144089  28.463   6.572   5.854
 3314POPC   GL244090  28.121   6.577   5.764
 3314POPC   C1A44091  28.540   6.663   6.295
 3314POPC   D2A44092  28.462   6.600   6.735
 3314POPC   C3A44093  28.233   6.912   6.990
 3314POPC   C4A44094  28.254   6.959   7.455
 3314POPC   C1B44095  28.041   6.694   6.213
 3314POPC   C2B44096  27.916   6.591   6.663
 3314POPC   C3B44097  28.063   6.458   7.079
 3314POPC   C4B44098  27.923   6.598   7.484
 3315POPC   NC344099  13.348   5.033   5.418
 3315POPC   PO444100  14.008   5.277   5.551
 3315POPC   GL144101  13.700   5.047   5.786
 3315POPC   GL244102  13.465   5.286   5.844
 3315POPC   C1A44103  13.455   4.815   6.133
 3315POPC   D2A44104  13.527   4.680   6.579
 3315POPC   C3A44105  13.856   4.865   6.840
 3315POPC   C4A44106  13.782   5.194   7.130
 3315POPC   C1B44107  13.771   5.216   6.239
 3315POPC   C2B44108  13.626   5.279   6.641
 3315POPC   C3B44109  13.405   5.539   6.929
 3315POPC   C4B44110  13.407   5.448   7.379
 3316POPC   NC344111  23.825  18.353   5.401
 3316POPC   PO444112  23.187  18.334   5.276
 3316POPC   GL144113  23.404  18.247   5.725
 3316POPC   GL244114  23.732  18.048   5.822
 3316POPC   C1A44115  23.584  18.431   6.148
 3316POPC   D2A44116  23.454  18.403   6.607
 3316POPC   C3A44117  23.796  18.268   6.907
 3316POPC   C4A44118  23.904  18.542   7.265
 3316POPC   C1B44119  23.418  17.939   6.161
 3316POPC   C2B44120  23.498  17.898   6.591
 3316POPC   C3B44121  23.364  17.985   6.985
 3316POPC   C4B44122  23.346  18.348   7.157
 3317POPC   NC344123   5.369  17.694   5.369
 3317POPC   PO444124   4.717  17.493   5.424
 3317POPC   GL144125   4.918  17.638   5.837
 3317POPC   GL244126   5.270  17.578   5.856
 3317POPC   C1A44127   5.056  17.618   6.311
 3317POPC   D2A44128   5.455  17.641   6.601
 3317POPC   C3A44129   5.299  17.564   7.023
 3317POPC   C4A44130   4.872  17.388   7.125
 3317POPC   C1B44131   5.314  17.194   6.106
 3317POPC   C2B44132   5.583  17.048   6.400
 3317POPC   C3B44133   5.402  17.123   6.764
 3317POPC   C4B44134   5.245  16.990   7.140
 3318POPC   NC344135  35.893   3.471   5.467
 3318POPC   PO444136  36.554   3.691   5.299
 3318POPC   GL144137  36.284   3.765   5.710
 3318POPC   GL244138  35.909   3.752   5.887
 3318POPC   C1A44139  36.306   3.678   6.176
 3318POPC   D2A44140  36.014   3.528   6.502
 3318POPC   C3A44141  36.214   3.550   6.889
 3318POPC   C4A44142  36.289   3.755   7.247
 3318POPC   C1B44143  35.804   3.294   6.103
 3318POPC   C2B44144  35.896   3.035   6.506
 3318POPC   C3B44145  35.822   3.198   6.912
 3318POPC   C4B44146  35.951   3.358   7.311
 3319POPC   NC344147  22.787   1.708   5.464
 3319POPC   PO444148  22.868   0.972   5.192
 3319POPC   GL144149  22.832   1.041   5.663
 3319POPC   GL244150  23.159   1.062   5.859
 3319POPC   C1A44151  22.710   0.901   6.097
 3319POPC   D2A44152  22.694   0.741   6.534
 3319POPC   C3A44153  22.725   0.977   6.939
 3319POPC   C4A44154  22.655   1.405   7.095
 3319POPC   C1B44155  22.944   1.379   6.157
 3319POPC   C2B44156  22.945   1.604   6.569
 3319POPC   C3B44157  23.092   1.634   7.004
 3319POPC   C4B44158  23.146   1.255   7.256
 3320POPC   NC344159  16.258  36.552   5.693
 3320POPC   PO444160  15.756  36.583   5.199
 3320POPC   GL144161  15.816  36.253   5.574
 3320POPC   GL244162  16.139  36.070   5.716
 3320POPC   C1A44163  15.685  36.146   6.020
 3320POPC   D2A44164  15.582  36.253   6.477
 3320POPC   C3A44165  15.720  36.015   6.828
 3320POPC   C4A44166  15.934  36.201   7.156
 3320POPC   C1B44167  16.173  36.152   6.206
 3320POPC   C2B44168  16.171  36.191   6.667
 3320POPC   C3B44169  16.350  35.967   7.033
 3320POPC   C4B44170  16.307  35.899   7.479
 3321POPC   NC344171   7.855  14.546   5.134
 3321POPC   PO444172   8.400  14.285   5.430
 3321POPC   GL144173   8.244  14.360   5.860
 3321POPC   GL244174   7.907  14.222   5.994
 3321POPC   C1A44175   8.217  14.591   6.234
 3321POPC   D2A44176   8.114  14.314   6.549
 3321POPC   C3A44177   8.161  14.579   6.878
 3321POPC   C4A44178   8.312  14.488   7.263
 3321POPC   C1B44179   7.725  14.553   6.300
 3321POPC   C2B44180   7.671  14.528   6.719
 3321POPC   C3B44181   7.814  14.221   6.999
 3321POPC   C4B44182   7.818  14.538   7.259
 3322POPC   NC344183  22.710  29.814   5.378
 3322POPC   PO444184  23.382  29.833   5.249
 3322POPC   GL144185  23.241  29.820   5.722
 3322POPC   GL244186  22.891  29.723   5.833
 3322POPC   C1A44187  23.127  30.147   6.064
 3322POPC   D2A44188  23.235  30.272   6.494
 3322POPC   C3A44189  23.118  29.938   6.761
 3322POPC   C4A44190  23.068  29.842   7.198
 3322POPC   C1B44191  22.902  29.551   6.217
 3322POPC   C2B44192  22.695  29.703   6.559
 3322POPC   C3B44193  22.719  29.552   6.953
 3322POPC   C4B44194  22.621  29.574   7.354
 3323POPC   NC344195  35.720  19.262   5.147
 3323POPC   PO444196  35.309  18.866   5.565
 3323POPC   GL144197  35.077  19.036   5.934
 3323POPC   GL244198  35.221  19.361   5.945
 3323POPC   C1A44199  35.072  19.130   6.388
 3323POPC   D2A44200  35.272  19.429   6.666
 3323POPC   C3A44201  35.103  19.381   7.092
 3323POPC   C4A44202  35.091  18.943   7.241
 3323POPC   C1B44203  35.527  19.069   6.196
 3323POPC   C2B44204  35.701  19.060   6.621
 3323POPC   C3B44205  35.616  18.995   7.075
 3323POPC   C4B44206  35.543  18.722   7.441
 3324POPC   NC344207  33.654   3.871   5.425
 3324POPC   PO444208  33.954   3.233   5.373
 3324POPC   GL144209  33.781   3.459   5.728
 3324POPC   GL244210  33.777   3.210   5.934
 3324POPC   C1A44211  33.923   3.698   6.125
 3324POPC   D2A44212  33.903   3.883   6.564
 3324POPC   C3A44213  33.913   3.687   7.012
 3324POPC   C4A44214  33.679   3.515   7.411
 3324POPC   C1B44215  34.032   3.205   6.295
 3324POPC   C2B44216  34.099   3.326   6.716
 3324POPC   C3B44217  34.029   3.188   7.169
 3324POPC   C4B44218  34.106   3.298   7.636
 3325POPC   NC344219  39.677  44.243   5.476
 3325POPC   PO444220  38.986  44.190   5.327
 3325POPC   GL144221  39.159  44.028   5.735
 3325POPC   GL244222  39.446  43.791   5.674
 3325POPC   C1A44223  38.997  43.881   6.151
 3325POPC   D2A44224  39.152  43.684   6.549
 3325POPC   C3A44225  39.018  43.828   6.961
 3325POPC   C4A44226  39.164  43.940   7.362
 3325POPC   C1B44227  39.496  43.741   6.113
 3325POPC   C2B44228  39.536  44.019   6.457
 3325POPC   C3B44229  39.473  44.073   6.894
 3325POPC   C4B44230  39.599  43.736   7.185
 3326POPC   NC344231  19.339  29.509   5.067
 3326POPC   PO444232  18.971  29.117   5.379
 3326POPC   GL144233  19.123  29.105   5.746
 3326POPC   GL244234  19.233  28.769   5.743
 3326POPC   C1A44235  19.143  29.326   6.122
 3326POPC   D2A44236  19.134  29.194   6.535
 3326POPC   C3A44237  18.872  29.251   6.887
 3326POPC   C4A44238  19.047  29.519   7.174
 3326POPC   C1B44239  19.119  28.805   6.172
 3326POPC   C2B44240  19.310  28.719   6.573
 3326POPC   C3B44241  19.255  28.940   6.974
 3326POPC   C4B44242  19.004  29.058   7.380
 3327POPC   NC344243  35.110  38.115   5.528
 3327POPC   PO444244  35.324  37.503   5.270
 3327POPC   GL144245  35.377  37.400   5.714
 3327POPC   GL244246  35.079  37.371   5.882
 3327POPC   C1A44247  35.489  37.427   6.166
 3327POPC   D2A44248  35.432  37.829   6.460
 3327POPC   C3A44249  35.361  37.753   6.926
 3327POPC   C4A44250  35.588  37.534   7.257
 3327POPC   C1B44251  35.013  37.574   6.254
 3327POPC   C2B44252  35.207  37.375   6.598
 3327POPC   C3B44253  35.234  37.222   6.988
 3327POPC   C4B44254  35.097  37.453   7.340
 3328POPC   NC344255   8.436  20.822   5.316
 3328POPC   PO444256   7.755  20.570   5.371
 3328POPC   GL144257   7.958  20.621   5.785
 3328POPC   GL244258   8.279  20.593   5.744
 3328POPC   C1A44259   8.104  20.469   6.207
 3328POPC   D2A44260   8.125  20.590   6.628
 3328POPC   C3A44261   8.416  20.394   6.905
 3328POPC   C4A44262   8.302  20.475   7.305
 3328POPC   C1B44263   8.481  20.837   6.063
 3328POPC   C2B44264   8.591  20.739   6.491
 3328POPC   C3B44265   8.480  20.918   6.891
 3328POPC   C4B44266   8.669  20.850   7.262
 3329POPC   NC344267  14.273  31.801   5.360
 3329POPC   PO444268  14.470  31.145   5.573
 3329POPC   GL144269  14.251  31.306   5.935
 3329POPC   GL244270  14.233  31.662   5.846
 3329POPC   C1A44271  14.248  31.157   6.385
 3329POPC   D2A44272  14.578  31.088   6.733
 3329POPC   C3A44273  14.710  31.435   7.045
 3329POPC   C4A44274  14.629  31.485   7.542
 3329POPC   C1B44275  13.958  31.671   6.195
 3329POPC   C2B44276  13.957  31.522   6.598
 3329POPC   C3B44277  14.194  31.402   6.950
 3329POPC   C4B44278  14.142  31.507   7.378
 3330POPC   NC344279  37.280  37.693   5.026
 3330POPC   PO444280  37.766  37.408   5.377
 3330POPC   GL144281  37.758  37.402   5.819
 3330POPC   GL244282  37.673  37.745   5.822
 3330POPC   C1A44283  37.869  37.492   6.262
 3330POPC   D2A44284  37.636  37.657   6.635
 3330POPC   C3A44285  37.668  37.376   6.996
 3330POPC   C4A44286  37.965  37.286   7.347
 3330POPC   C1B44287  37.542  37.953   6.195
 3330POPC   C2B44288  37.698  38.174   6.558
 3330POPC   C3B44289  37.803  38.018   6.964
 3330POPC   C4B44290  37.521  37.926   7.310
 3331POPC   NC344291  33.875  13.972   5.256
 3331POPC   PO444292  33.792  13.294   5.423
 3331POPC   GL144293  33.712  13.394   5.827
 3331POPC   GL244294  33.673  13.730   5.786
 3331POPC   C1A44295  33.824  13.280   6.243
 3331POPC   D2A44296  34.080  13.434   6.566
 3331POPC   C3A44297  33.969  13.564   6.998
 3331POPC   C4A44298  33.798  13.466   7.397
 3331POPC   C1B44299  33.907  13.755   6.169
 3331POPC   C2B44300  33.803  13.859   6.614
 3331POPC   C3B44301  33.598  13.881   7.048
 3331POPC   C4B44302  33.325  13.559   7.261
 3332POPC   NC344303   7.729   6.267   5.448
 3332POPC   PO444304   7.262   5.889   5.577
 3332POPC   GL144305   7.392   5.676   5.869
 3332POPC   GL244306   7.711   5.866   5.870
 3332POPC   C1A44307   7.375   5.797   6.281
 3332POPC   D2A44308   7.283   6.132   6.486
 3332POPC   C3A44309   7.404   6.073   6.908
 3332POPC   C4A44310   7.222   5.728   7.142
 3332POPC   C1B44311   7.769   5.497   6.157
 3332POPC   C2B44312   7.614   5.365   6.523
 3332POPC   C3B44313   7.628   5.464   6.935
 3332POPC   C4B44314   7.754   5.744   7.205
 3333POPC   NC344315  31.730  12.595   5.376
 3333POPC   PO444316  31.241  13.177   5.477
 3333POPC   GL144317  31.402  13.053   5.846
 3333POPC   GL244318  31.522  12.711   5.823
 3333POPC   C1A44319  31.561  12.957   6.246
 3333POPC   D2A44320  31.319  12.911   6.559
 3333POPC   C3A44321  31.564  12.948   6.889
 3333POPC   C4A44322  31.410  13.078   7.244
 3333POPC   C1B44323  31.559  12.457   6.205
 3333POPC   C2B44324  31.687  12.523   6.633
 3333POPC   C3B44325  31.573  12.454   7.073
 3333POPC   C4B44326  31.431  12.630   7.462
 3334POPC   NC344327  36.927  25.613   5.320
 3334POPC   PO444328  37.070  24.960   5.412
 3334POPC   GL144329  36.777  25.033   5.725
 3334POPC   GL244330  36.899  25.371   5.774
 3334POPC   C1A44331  36.631  25.132   6.128
 3334POPC   D2A44332  36.742  25.381   6.485
 3334POPC   C3A44333  36.686  25.276   6.914
 3334POPC   C4A44334  36.810  24.974   7.206
 3334POPC   C1B44335  37.161  25.491   6.148
 3334POPC   C2B44336  37.155  25.660   6.582
 3334POPC   C3B44337  37.165  25.503   7.003
 3334POPC   C4B44338  36.903  25.507   7.361
 3335POPC   NC344339  31.202   6.917   5.450
 3335POPC   PO444340  31.085   7.613   5.374
 3335POPC   GL144341  31.266   7.466   5.777
 3335POPC   GL244342  31.525   7.170   5.810
 3335POPC   C1A44343  31.275   7.456   6.228
 3335POPC   D2A44344  31.485   7.641   6.574
 3335POPC   C3A44345  31.392   7.469   6.970
 3335POPC   C4A44346  31.680   7.179   7.220
 3335POPC   C1B44347  31.760   7.270   6.229
 3335POPC   C2B44348  31.889   7.324   6.684
 3335POPC   C3B44349  31.875   7.607   7.036
 3335POPC   C4B44350  31.737   7.632   7.477
 3336POPC   NC344351   5.096  28.879   5.348
 3336POPC   PO444352   5.347  29.539   5.395
 3336POPC   GL144353   5.388  29.346   5.794
 3336POPC   GL244354   5.098  29.105   5.877
 3336POPC   C1A44355   5.433  29.224   6.232
 3336POPC   D2A44356   5.033  29.187   6.421
 3336POPC   C3A44357   5.024  29.115   6.839
 3336POPC   C4A44358   4.838  29.055   7.240
 3336POPC   C1B44359   5.204  28.754   6.200
 3336POPC   C2B44360   5.343  28.721   6.640
 3336POPC   C3B44361   5.211  28.718   7.091
 3336POPC   C4B44362   5.266  28.687   7.546
 3337POPC   NC344363  26.755  31.501   5.230
 3337POPC   PO444364  26.390  31.103   5.492
 3337POPC   GL144365  26.666  31.032   5.913
 3337POPC   GL244366  27.027  31.062   5.840
 3337POPC   C1A44367  26.919  31.244   6.310
 3337POPC   D2A44368  27.236  31.423   6.642
 3337POPC   C3A44369  27.070  31.794   6.883
 3337POPC   C4A44370  26.846  31.829   7.301
 3337POPC   C1B44371  27.071  30.788   6.155
 3337POPC   C2B44372  26.920  30.772   6.545
 3337POPC   C3B44373  27.016  30.978   6.929
 3337POPC   C4B44374  26.975  31.356   7.126
 3338POPC   NC344375  16.353  13.881   5.319
 3338POPC   PO444376  15.911  13.357   5.312
 3338POPC   GL144377  15.924  13.514   5.740
 3338POPC   GL244378  16.256  13.530   5.740
 3338POPC   C1A44379  15.797  13.555   6.208
 3338POPC   D2A44380  15.774  13.385   6.642
 3338POPC   C3A44381  15.830  13.614   7.036
 3338POPC   C4A44382  15.719  13.481   7.479
 3338POPC   C1B44383  16.288  13.635   6.201
 3338POPC   C2B44384  16.213  13.612   6.657
 3338POPC   C3B44385  16.338  13.730   7.091
 3338POPC   C4B44386  16.217  13.515   7.469
 3339POPC   NC344387  11.889   2.218   5.254
 3339POPC   PO444388  12.324   1.757   5.303
 3339POPC   GL144389  12.041   1.881   5.634
 3339POPC   GL244390  12.125   2.243   5.700
 3339POPC   C1A44391  11.944   1.917   6.086
 3339POPC   D2A44392  11.669   1.790   6.471
 3339POPC   C3A44393  11.836   1.940   6.893
 3339POPC   C4A44394  12.136   1.899   7.264
 3339POPC   C1B44395  12.381   2.248   6.058
 3339POPC   C2B44396  12.300   2.092   6.438
 3339POPC   C3B44397  12.363   1.956   6.818
 3339POPC   C4B44398  12.555   2.213   7.063
 3340POPC   NC344399   5.314  32.312   5.536
 3340POPC   PO444400   4.672  32.086   5.392
 3340POPC   GL144401   4.948  32.217   5.860
 3340POPC   GL244402   5.231  31.987   5.953
 3340POPC   C1A44403   5.235  32.488   6.191
 3340POPC   D2A44404   5.346  32.584   6.645
 3340POPC   C3A44405   5.133  32.324   6.885
 3340POPC   C4A44406   5.103  32.201   7.295
 3340POPC   C1B44407   5.032  32.062   6.379
 3340POPC   C2B44408   4.685  32.144   6.657
 3340POPC   C3B44409   4.626  31.959   7.056
 3340POPC   C4B44410   4.791  31.895   7.518
 3341POPC   NC344411  27.654  31.776   5.467
 3341POPC   PO444412  27.130  31.249   5.347
 3341POPC   GL144413  27.435  31.326   5.738
 3341POPC   GL244414  27.716  31.497   5.908
 3341POPC   C1A44415  27.430  31.176   6.196
 3341POPC   D2A44416  27.412  30.933   6.604
 3341POPC   C3A44417  27.483  31.164   7.033
 3341POPC   C4A44418  27.434  31.601   7.182
 3341POPC   C1B44419  27.688  31.649   6.345
 3341POPC   C2B44420  27.771  31.580   6.778
 3341POPC   C3B44421  27.927  31.771   7.181
 3341POPC   C4B44422  27.772  31.870   7.604
 3342POPC   NC344423  42.926  43.252   5.412
 3342POPC   PO444424  43.568  43.003   5.411
 3342POPC   GL144425  43.363  43.090   5.811
 3342POPC   GL244426  43.137  43.369   5.856
 3342POPC   C1A44427  43.344  43.170   6.273
 3342POPC   D2A44428  43.601  43.178   6.636
 3342POPC   C3A44429  43.476  42.897   6.947
 3342POPC   C4A44430  43.144  43.064   7.210
 3342POPC   C1B44431  42.786  43.108   6.076
 3342POPC   C2B44432  42.596  43.043   6.503
 3342POPC   C3B44433  42.739  42.935   6.916
 3342POPC   C4B44434  42.754  42.746   7.337
 3343POPC   NC344435  26.472  24.944   5.383
 3343POPC   PO444436  27.115  25.364   5.548
 3343POPC   GL144437  26.851  25.413   5.895
 3343POPC   GL244438  26.532  25.361   5.783
 3343POPC   C1A44439  26.903  25.430   6.339
 3343POPC   D2A44440  27.123  25.202   6.668
 3343POPC   C3A44441  26.995  25.181   7.117
 3343POPC   C4A44442  27.027  25.489   7.475
 3343POPC   C1B44443  26.442  25.194   6.184
 3343POPC   C2B44444  26.568  25.137   6.619
 3343POPC   C3B44445  26.395  25.275   7.009
 3343POPC   C4B44446  26.568  25.177   7.421
 3344POPC   NC344447  40.670  34.258   5.680
 3344POPC   PO444448  41.124  34.660   5.351
 3344POPC   GL144449  41.017  34.629   5.779
 3344POPC   GL244450  41.154  34.275   5.864
 3344POPC   C1A44451  40.959  34.888   6.165
 3344POPC   D2A44452  40.779  34.877   6.569
 3344POPC   C3A44453  40.889  34.628   6.904
 3344POPC   C4A44454  40.854  34.814   7.272
 3344POPC   C1B44455  40.915  34.389   6.255
 3344POPC   C2B44456  40.588  34.361   6.566
 3344POPC   C3B44457  40.589  34.189   7.007
 3344POPC   C4B44458  40.931  34.284   7.302
 3345POPC   NC344459  17.778  42.781   5.327
 3345POPC   PO444460  17.375  42.235   5.406
 3345POPC   GL144461  17.443  42.466   5.731
 3345POPC   GL244462  17.781  42.383   5.712
 3345POPC   C1A44463  17.287  42.364   6.125
 3345POPC   D2A44464  17.407  42.165   6.474
 3345POPC   C3A44465  17.301  42.335   6.834
 3345POPC   C4A44466  17.371  42.266   7.223
 3345POPC   C1B44467  17.819  42.197   6.132
 3345POPC   C2B44468  17.901  42.334   6.563
 3345POPC   C3B44469  17.851  42.249   7.009
 3345POPC   C4B44470  17.802  42.553   7.361
 3346POPC   NC344471   0.750  22.568   5.589
 3346POPC   PO444472   0.613  21.998   5.155
 3346POPC   GL144473   0.485  22.112   5.600
 3346POPC   GL244474   0.728  22.159   5.882
 3346POPC   C1A44475   0.259  22.288   6.000
 3346POPC   D2A44476   0.130  22.270   6.480
 3346POPC   C3A44477   0.317  22.170   6.894
 3346POPC   C4A44478   0.385  22.295   7.331
 3346POPC   C1B44479   0.669  22.400   6.259
 3346POPC   C2B44480   0.767  22.222   6.628
 3346POPC   C3B44481   0.766  22.400   7.020
 3346POPC   C4B44482   0.888  22.281   7.429
 3347POPC   NC344483  27.343  24.689   5.356
 3347POPC   PO444484  26.654  24.497   5.398
 3347POPC   GL144485  26.563  24.525   5.851
 3347POPC   GL244486  26.475  24.186   5.917
 3347POPC   C1A44487  26.670  24.739   6.282
 3347POPC   D2A44488  26.890  24.746   6.712
 3347POPC   C3A44489  26.596  24.809   7.057
 3347POPC   C4A44490  26.613  24.669   7.512
 3347POPC   C1B44491  26.633  24.230   6.305
 3347POPC   C2B44492  26.496  24.418   6.681
 3347POPC   C3B44493  26.657  24.312   7.104
 3347POPC   C4B44494  27.058  24.114   7.321
 3348POPC   NC344495  22.313  27.251   5.373
 3348POPC   PO444496  22.418  26.548   5.380
 3348POPC   GL144497  22.159  26.696   5.724
 3348POPC   GL244498  22.047  27.054   5.754
 3348POPC   C1A44499  22.094  26.729   6.176
 3348POPC   D2A44500  22.048  26.501   6.562
 3348POPC   C3A44501  22.301  26.564   6.892
 3348POPC   C4A44502  22.283  26.780   7.256
 3348POPC   C1B44503  21.787  27.140   6.115
 3348POPC   C2B44504  21.748  26.941   6.509
 3348POPC   C3B44505  21.962  26.968   6.900
 3348POPC   C4B44506  21.808  26.978   7.321
 3349POPC   NC344507  39.753  33.412   5.252
 3349POPC   PO444508  40.234  33.157   5.085
 3349POPC   GL144509  40.113  33.208   5.584
 3349POPC   GL244510  40.004  33.484   5.813
 3349POPC   C1A44511  40.254  33.074   6.022
 3349POPC   D2A44512  40.489  33.069   6.421
 3349POPC   C3A44513  40.241  32.917   6.770
 3349POPC   C4A44514  40.030  33.096   7.120
 3349POPC   C1B44515  39.878  33.338   6.283
 3349POPC   C2B44516  39.739  33.331   6.757
 3349POPC   C3B44517  39.661  33.459   7.218
 3349POPC   C4B44518  39.724  33.361   7.680
 3350POPC   NC344519  41.974  20.804   5.615
 3350POPC   PO444520  41.474  20.355   5.563
 3350POPC   GL144521  41.638  20.516   5.899
 3350POPC   GL244522  41.476  20.845   5.878
 3350POPC   C1A44523  41.587  20.601   6.323
 3350POPC   D2A44524  41.795  20.655   6.670
 3350POPC   C3A44525  41.566  20.467   6.904
 3350POPC   C4A44526  41.492  20.501   7.304
 3350POPC   C1B44527  41.271  21.018   6.265
 3350POPC   C2B44528  41.296  20.875   6.711
 3350POPC   C3B44529  41.596  20.952   7.045
 3350POPC   C4B44530  41.499  21.168   7.388
 3351POPC   NC344531  37.362  35.020   5.259
 3351POPC   PO444532  37.904  35.444   5.316
 3351POPC   GL144533  37.628  35.443   5.690
 3351POPC   GL244534  37.581  35.098   5.735
 3351POPC   C1A44535  37.585  35.424   6.157
 3351POPC   D2A44536  37.688  35.170   6.517
 3351POPC   C3A44537  37.862  35.374   6.872
 3351POPC   C4A44538  37.571  35.539   7.170
 3351POPC   C1B44539  37.946  35.054   6.045
 3351POPC   C2B44540  38.078  34.862   6.450
 3351POPC   C3B44541  37.953  34.859   6.874
 3351POPC   C4B44542  38.089  35.076   7.250
 3352POPC   NC344543   6.122  39.813   5.181
 3352POPC   PO444544   5.618  40.193   5.296
 3352POPC   GL144545   5.903  40.057   5.632
 3352POPC   GL244546   6.231  40.181   5.724
 3352POPC   C1A44547   5.881  39.939   6.057
 3352POPC   D2A44548   5.914  39.811   6.471
 3352POPC   C3A44549   5.778  40.006   6.831
 3352POPC   C4A44550   5.644  39.952   7.231
 3352POPC   C1B44551   6.334  40.166   6.161
 3352POPC   C2B44552   6.303  40.108   6.587
 3352POPC   C3B44553   6.361  39.872   6.960
 3352POPC   C4B44554   6.159  39.999   7.318
 3353POPC   NC344555  33.373  26.189   5.317
 3353POPC   PO444556  34.081  26.270   5.327
 3353POPC   GL144557  33.796  26.248   5.655
 3353POPC   GL244558  33.713  25.894   5.565
 3353POPC   C1A44559  33.756  26.285   6.140
 3353POPC   D2A44560  33.581  26.271   6.587
 3353POPC   C3A44561  33.870  26.245   6.921
 3353POPC   C4A44562  33.979  26.442   7.261
 3353POPC   C1B44563  33.700  25.795   6.015
 3353POPC   C2B44564  33.920  25.878   6.421
 3353POPC   C3B44565  34.138  25.740   6.768
 3353POPC   C4B44566  34.108  25.616   7.191
 3354POPC   NC344567  16.832  41.107   5.374
 3354POPC   PO444568  17.177  40.543   5.442
 3354POPC   GL144569  16.818  40.741   5.746
 3354POPC   GL244570  16.596  41.056   5.803
 3354POPC   C1A44571  16.689  40.664   6.187
 3354POPC   D2A44572  16.818  40.473   6.572
 3354POPC   C3A44573  16.769  40.711   6.908
 3354POPC   C4A44574  16.951  40.616   7.299
 3354POPC   C1B44575  16.370  41.102   6.159
 3354POPC   C2B44576  16.461  41.021   6.574
 3354POPC   C3B44577  16.293  40.939   6.971
 3354POPC   C4B44578  16.541  40.915   7.314
 3355POPC   NC344579  29.605  44.246   5.247
 3355POPC   PO444580  30.042  43.686   5.031
 3355POPC   GL144581  30.019  43.785   5.553
 3355POPC   GL244582  30.158  44.125   5.688
 3355POPC   C1A44583  30.170  43.717   6.038
 3355POPC   D2A44584  29.991  43.856   6.437
 3355POPC   C3A44585  30.089  43.780   6.854
 3355POPC   C4A44586  29.880  43.923   7.209
 3355POPC   C1B44587  29.831  44.101   6.006
 3355POPC   C2B44588  29.775  44.345   6.392
 3355POPC   C3B44589  29.763  44.274   6.838
 3355POPC   C4B44590  30.090  44.436   7.119
 3356POPC   NC344591  10.166  31.806   5.575
 3356POPC   PO444592   9.599  32.264   5.316
 3356POPC   GL144593   9.638  32.143   5.745
 3356POPC   GL244594   9.948  32.260   5.711
 3356POPC   C1A44595   9.804  32.245   6.187
 3356POPC   D2A44596  10.004  32.175   6.586
 3356POPC   C3A44597   9.769  32.241   6.914
 3356POPC   C4A44598   9.513  32.224   7.221
 3356POPC   C1B44599  10.075  32.621   5.945
 3356POPC   C2B44600  10.077  32.647   6.391
 3356POPC   C3B44601  10.091  32.638   6.855
 3356POPC   C4B44602   9.886  32.593   7.281
 3357POPC   NC344603   9.122   3.008   5.526
 3357POPC   PO444604   8.601   2.696   5.368
 3357POPC   GL144605   8.761   2.671   5.783
 3357POPC   GL244606   9.123   2.571   5.784
 3357POPC   C1A44607   8.731   2.815   6.212
 3357POPC   D2A44608   8.864   2.641   6.613
 3357POPC   C3A44609   8.808   2.878   6.981
 3357POPC   C4A44610   9.082   3.123   7.241
 3357POPC   C1B44611   9.130   2.434   6.206
 3357POPC   C2B44612   9.234   2.285   6.631
 3357POPC   C3B44613   9.291   2.609   6.944
 3357POPC   C4B44614   9.353   2.711   7.362
 3358POPC   NC344615  11.853  31.543   5.271
 3358POPC   PO444616  12.487  31.296   5.342
 3358POPC   GL144617  12.211  31.517   5.688
 3358POPC   GL244618  11.857  31.449   5.773
 3358POPC   C1A44619  12.095  31.693   6.144
 3358POPC   D2A44620  11.826  31.817   6.520
 3358POPC   C3A44621  12.027  31.733   6.921
 3358POPC   C4A44622  12.207  31.328   7.092
 3358POPC   C1B44623  11.671  31.401   6.179
 3358POPC   C2B44624  11.813  31.304   6.590
 3358POPC   C3B44625  11.701  31.342   6.999
 3358POPC   C4B44626  11.853  31.062   7.331
 3359POPC   NC344627  25.852  43.260   5.402
 3359POPC   PO444628  26.462  43.280   5.645
 3359POPC   GL144629  26.159  43.125   5.884
 3359POPC   GL244630  25.953  42.873   5.740
 3359POPC   C1A44631  26.198  42.972   6.298
 3359POPC   D2A44632  26.332  42.962   6.735
 3359POPC   C3A44633  26.026  42.977   7.077
 3359POPC   C4A44634  26.023  42.978   7.536
 3359POPC   C1B44635  25.680  43.001   6.091
 3359POPC   C2B44636  25.731  42.955   6.549
 3359POPC   C3B44637  25.538  43.050   6.954
 3359POPC   C4B44638  25.588  42.816   7.347
 3360POPC   NC344639  11.701   4.706   5.576
 3360POPC   PO444640  11.249   5.286   5.392
 3360POPC   GL144641  11.292   5.271   5.832
 3360POPC   GL244642  11.634   5.326   5.923
 3360POPC   C1A44643  11.149   5.285   6.250
 3360POPC   D2A44644  11.172   4.978   6.583
 3360POPC   C3A44645  11.195   5.230   6.927
 3360POPC   C4A44646  11.101   5.161   7.365
 3360POPC   C1B44647  11.631   5.029   6.294
 3360POPC   C2B44648  11.679   5.026   6.760
 3360POPC   C3B44649  11.573   5.041   7.217
 3360POPC   C4B44650  11.621   5.042   7.680
 3361POPC   NC344651  23.509   4.665   5.417
 3361POPC   PO444652  23.975   5.112   5.422
 3361POPC   GL144653  23.806   4.989   5.763
 3361POPC   GL244654  24.052   4.752   5.828
 3361POPC   C1A44655  23.685   5.150   6.172
 3361POPC   D2A44656  23.879   5.318   6.543
 3361POPC   C3A44657  23.763   5.181   6.954
 3361POPC   C4A44658  24.067   5.019   7.230
 3361POPC   C1B44659  23.674   4.623   6.088
 3361POPC   C2B44660  23.587   4.665   6.519
 3361POPC   C3B44661  23.745   4.656   6.932
 3361POPC   C4B44662  23.581   4.827   7.298
 3362POPC   NC344663  30.680   1.479   5.239
 3362POPC   PO444664  31.052   0.918   5.373
 3362POPC   GL144665  30.802   1.019   5.770
 3362POPC   GL244666  30.558   1.331   5.744
 3362POPC   C1A44667  30.866   1.009   6.236
 3362POPC   D2A44668  30.992   1.228   6.617
 3362POPC   C3A44669  30.754   1.159   7.008
 3362POPC   C4A44670  30.669   0.791   7.254
 3362POPC   C1B44671  30.364   1.481   6.147
 3362POPC   C2B44672  30.304   1.675   6.572
 3362POPC   C3B44673  30.345   1.547   7.026
 3362POPC   C4B44674  30.636   1.509   7.388
 3363POPC   NC344675  17.187  37.719   5.656
 3363POPC   PO444676  17.662  37.529   5.170
 3363POPC   GL144677  17.686  37.457   5.675
 3363POPC   GL244678  17.778  37.736   5.914
 3363POPC   C1A44679  17.527  37.350   6.144
 3363POPC   D2A44680  17.648  37.297   6.599
 3363POPC   C3A44681  17.571  37.632   6.916
 3363POPC   C4A44682  17.247  37.564   7.215
 3363POPC   C1B44683  17.445  37.873   6.232
 3363POPC   C2B44684  17.206  37.883   6.613
 3363POPC   C3B44685  17.247  38.054   7.031
 3363POPC   C4B44686  17.615  38.073   7.270
 3364POPC   NC344687  33.056  36.538   5.156
 3364POPC   PO444688  33.185  35.949   5.425
 3364POPC   GL144689  33.054  36.054   5.803
 3364POPC   GL244690  32.957  36.366   5.648
 3364POPC   C1A44691  32.886  35.934   6.207
 3364POPC   D2A44692  32.965  36.128   6.593
 3364POPC   C3A44693  32.748  36.042   6.948
 3364POPC   C4A44694  33.018  35.973   7.255
 3364POPC   C1B44695  32.958  36.436   6.126
 3364POPC   C2B44696  32.772  36.604   6.522
 3364POPC   C3B44697  32.855  36.541   6.949
 3364POPC   C4B44698  32.739  36.368   7.394
 3365POPC   NC344699  36.607  19.626   5.498
 3365POPC   PO444700  37.111  20.086   5.298
 3365POPC   GL144701  36.917  20.045   5.686
 3365POPC   GL244702  37.000  19.721   5.828
 3365POPC   C1A44703  36.825  20.125   6.118
 3365POPC   D2A44704  36.670  19.930   6.492
 3365POPC   C3A44705  36.898  19.890   6.864
 3365POPC   C4A44706  36.938  20.146   7.255
 3365POPC   C1B44707  36.728  19.573   6.150
 3365POPC   C2B44708  36.704  19.409   6.591
 3365POPC   C3B44709  36.907  19.392   7.004
 3365POPC   C4B44710  36.731  19.667   7.295
 3366POPC   NC344711   2.225   8.557   5.504
 3366POPC   PO444712   1.915   7.918   5.376
 3366POPC   GL144713   1.804   8.132   5.780
 3366POPC   GL244714   2.102   8.328   5.940
 3366POPC   C1A44715   1.883   7.966   6.201
 3366POPC   D2A44716   2.115   8.170   6.561
 3366POPC   C3A44717   1.927   8.147   6.994
 3366POPC   C4A44718   1.816   7.856   7.323
 3366POPC   C1B44719   1.976   8.600   6.284
 3366POPC   C2B44720   1.782   8.562   6.697
 3366POPC   C3B44721   2.198   8.568   6.893
 3366POPC   C4B44722   2.434   8.260   7.157
 3367POPC   NC344723   0.655   9.470   5.578
 3367POPC   PO444724   0.635  10.139   5.459
 3367POPC   GL144725   0.377   9.905   5.797
 3367POPC   GL244726   0.646   9.831   5.959
 3367POPC   C1A44727   0.170   9.696   6.212
 3367POPC   D2A44728  44.991   9.581   6.663
 3367POPC   C3A44729   0.262   9.761   7.013
 3367POPC   C4A44730   0.663  10.043   6.991
 3367POPC   C1B44731   0.680   9.496   6.242
 3367POPC   C2B44732   0.505   9.491   6.635
 3367POPC   C3B44733   0.713   9.528   7.015
 3367POPC   C4B44734   0.798   9.386   7.387
 3368POPC   NC344735  22.172  41.297   5.246
 3368POPC   PO444736  22.239  41.954   5.204
 3368POPC   GL144737  22.227  41.670   5.631
 3368POPC   GL244738  22.424  41.328   5.683
 3368POPC   C1A44739  22.164  41.719   6.106
 3368POPC   D2A44740  22.440  41.887   6.459
 3368POPC   C3A44741  22.397  41.734   6.901
 3368POPC   C4A44742  22.336  41.896   7.357
 3368POPC   C1B44743  22.144  41.216   6.022
 3368POPC   C2B44744  22.236  41.302   6.454
 3368POPC   C3B44745  22.096  41.267   6.876
 3368POPC   C4B44746  22.273  41.391   7.271
 3369POPC   NC344747  16.321   0.032   5.388
 3369POPC   PO444748  15.866   0.574   5.390
 3369POPC   GL144749  15.844   0.364   5.824
 3369POPC   GL244750  16.150   0.147   5.853
 3369POPC   C1A44751  15.677   0.519   6.249
 3369POPC   D2A44752  15.726   0.694   6.689
 3369POPC   C3A44753  15.939   0.470   7.030
 3369POPC   C4A44754  15.940   0.429   7.471
 3369POPC   C1B44755  16.113   0.237   6.281
 3369POPC   C2B44756  16.263   0.462   6.626
 3369POPC   C3B44757  16.419   0.278   6.990
 3369POPC   C4B44758  16.392   0.196   7.422
 3370POPC   NC344759  24.114  17.645   5.446
 3370POPC   PO444760  23.444  17.729   5.553
 3370POPC   GL144761  23.738  17.504   5.846
 3370POPC   GL244762  24.087  17.360   5.871
 3370POPC   C1A44763  23.839  17.661   6.264
 3370POPC   D2A44764  24.026  17.852   6.642
 3370POPC   C3A44765  23.796  17.624   6.936
 3370POPC   C4A44766  23.424  17.538   7.198
 3370POPC   C1B44767  24.143  17.265   6.271
 3370POPC   C2B44768  23.870  17.170   6.616
 3370POPC   C3B44769  23.702  17.130   7.051
 3370POPC   C4B44770  23.877  17.458   7.416
 3371POPC   NC344771  36.859  31.038   5.375
 3371POPC   PO444772  36.566  30.530   5.469
 3371POPC   GL144773  36.836  30.677   5.780
 3371POPC   GL244774  36.759  31.011   5.879
 3371POPC   C1A44775  36.860  30.632   6.241
 3371POPC   D2A44776  36.892  30.413   6.649
 3371POPC   C3A44777  36.969  30.695   6.980
 3371POPC   C4A44778  36.886  30.696   7.403
 3371POPC   C1B44779  36.531  31.029   6.283
 3371POPC   C2B44780  36.658  31.153   6.719
 3371POPC   C3B44781  36.599  31.023   7.138
 3371POPC   C4B44782  36.809  31.184   7.525
 3372POPC   NC344783  12.673  16.014   5.445
 3372POPC   PO444784  13.247  15.774   5.605
 3372POPC   GL144785  13.113  16.092   5.904
 3372POPC   GL244786  12.771  16.161   5.922
 3372POPC   C1A44787  13.131  16.203   6.306
 3372POPC   D2A44788  12.954  15.977   6.634
 3372POPC   C3A44789  13.154  15.910   7.031
 3372POPC   C4A44790  12.871  15.711   7.311
 3372POPC   C1B44791  12.516  16.210   6.276
 3372POPC   C2B44792  12.523  16.327   6.698
 3372POPC   C3B44793  12.678  16.127   7.051
 3372POPC   C4B44794  12.989  16.333   7.275
 3373POPC   NC344795   0.893  16.406   5.314
 3373POPC   PO444796   1.281  16.897   5.285
 3373POPC   GL144797   1.131  16.798   5.707
 3373POPC   GL244798   1.059  16.473   5.810
 3373POPC   C1A44799   1.036  16.882   6.157
 3373POPC   D2A44800   1.254  16.814   6.554
 3373POPC   C3A44801   1.101  16.901   6.974
 3373POPC   C4A44802   1.279  17.121   7.327
 3373POPC   C1B44803   1.187  16.387   6.244
 3373POPC   C2B44804   1.081  16.362   6.704
 3373POPC   C3B44805   1.142  16.406   7.135
 3373POPC   C4B44806   0.941  16.633   7.419
 3374POPC   NC344807  35.043  13.240   5.551
 3374POPC   PO444808  35.486  12.722   5.385
 3374POPC   GL144809  35.297  12.654   5.790
 3374POPC   GL244810  34.972  12.530   5.780
 3374POPC   C1A44811  35.405  12.521   6.239
 3374POPC   D2A44812  35.666  12.647   6.605
 3374POPC   C3A44813  35.512  12.679   7.026
 3374POPC   C4A44814  35.503  13.099   7.204
 3374POPC   C1B44815  34.976  12.810   6.159
 3374POPC   C2B44816  35.007  12.813   6.573
 3374POPC   C3B44817  35.008  12.793   6.992
 3374POPC   C4B44818  35.089  12.414   7.208
 3375POPC   NC344819   6.347  34.340   5.430
 3375POPC   PO444820   6.544  34.877   5.295
 3375POPC   GL144821   6.636  34.682   5.695
 3375POPC   GL244822   6.996  34.711   5.694
 3375POPC   C1A44823   6.627  34.477   6.124
 3375POPC   D2A44824   6.502  34.387   6.580
 3375POPC   C3A44825   6.641  34.402   6.962
 3375POPC   C4A44826   6.451  34.477   7.351
 3375POPC   C1B44827   6.927  34.905   6.078
 3375POPC   C2B44828   6.918  34.702   6.485
 3375POPC   C3B44829   6.891  34.878   6.877
 3375POPC   C4B44830   6.907  34.709   7.268
 3376POPC   NC344831  32.080  11.661   5.452
 3376POPC   PO444832  32.233  12.363   5.457
 3376POPC   GL144833  32.361  12.254   5.837
 3376POPC   GL244834  32.356  11.875   5.846
 3376POPC   C1A44835  32.184  12.213   6.203
 3376POPC   D2A44836  32.162  12.363   6.563
 3376POPC   C3A44837  32.402  12.185   6.795
 3376POPC   C4A44838  32.341  12.153   7.198
 3376POPC   C1B44839  32.119  11.613   6.146
 3376POPC   C2B44840  32.146  11.451   6.583
 3376POPC   C3B44841  32.119  11.626   7.023
 3376POPC   C4B44842  32.337  11.703   7.424
 3377POPC   NC344843  34.568  14.565   5.484
 3377POPC   PO444844  34.421  13.910   5.463
 3377POPC   GL144845  34.557  14.042   5.880
 3377POPC   GL244846  34.451  14.352   5.935
 3377POPC   C1A44847  34.599  14.041   6.366
 3377POPC   D2A44848  34.761  14.312   6.736
 3377POPC   C3A44849  34.535  14.295   7.113
 3377POPC   C4A44850  34.272  14.307   7.468
 3377POPC   C1B44851  34.486  14.537   6.332
 3377POPC   C2B44852  34.296  14.590   6.748
 3377POPC   C3B44853  34.377  14.764   7.165
 3377POPC   C4B44854  34.152  14.794   7.552
 3378POPC   NC344855  12.941  29.452   5.385
 3378POPC   PO444856  12.782  28.786   5.447
 3378POPC   GL144857  12.916  28.831   5.829
 3378POPC   GL244858  12.886  29.187   5.816
 3378POPC   C1A44859  12.764  28.805   6.246
 3378POPC   D2A44860  12.902  29.030   6.596
 3378POPC   C3A44861  12.854  28.895   7.034
 3378POPC   C4A44862  12.789  29.156   7.393
 3378POPC   C1B44863  12.692  29.320   6.180
 3378POPC   C2B44864  12.604  29.476   6.553
 3378POPC   C3B44865  12.713  29.394   6.938
 3378POPC   C4B44866  12.538  29.630   7.237
 3379POPC   NC344867  38.802  25.665   5.369
 3379POPC   PO444868  38.287  26.061   5.250
 3379POPC   GL144869  38.523  25.963   5.685
 3379POPC   GL244870  38.409  26.260   5.865
 3379POPC   C1A44871  38.550  25.878   6.170
 3379POPC   D2A44872  38.285  25.744   6.535
 3379POPC   C3A44873  38.405  25.871   6.960
 3379POPC   C4A44874  38.580  25.879   7.371
 3379POPC   C1B44875  38.192  26.232   6.302
 3379POPC   C2B44876  38.400  26.314   6.698
 3379POPC   C3B44877  38.545  26.323   7.128
 3379POPC   C4B44878  38.491  26.352   7.581
 3380POPC   NC344879   3.945  43.259   5.471
 3380POPC   PO444880   3.359  42.953   5.396
 3380POPC   GL144881   3.601  42.986   5.746
 3380POPC   GL244882   3.440  43.274   5.831
 3380POPC   C1A44883   3.529  42.911   6.199
 3380POPC   D2A44884   3.737  43.076   6.597
 3380POPC   C3A44885   3.458  43.109   6.933
 3380POPC   C4A44886   3.322  42.916   7.307
 3380POPC   C1B44887   3.764  43.361   6.151
 3380POPC   C2B44888   3.894  43.567   6.559
 3380POPC   C3B44889   3.824  43.472   6.975
 3380POPC   C4B44890   3.556  43.388   7.351
 3381POPC   NC344891   6.462   5.588   5.320
 3381POPC   PO444892   6.854   6.081   5.261
 3381POPC   GL144893   6.747   5.838   5.647
 3381POPC   GL244894   6.384   5.902   5.731
 3381POPC   C1A44895   6.868   5.719   6.060
 3381POPC   D2A44896   6.760   5.856   6.452
 3381POPC   C3A44897   6.782   5.777   6.886
 3381POPC   C4A44898   6.627   6.072   7.200
 3381POPC   C1B44899   6.345   5.664   6.148
 3381POPC   C2B44900   6.372   5.523   6.610
 3381POPC   C3B44901   6.330   5.621   7.074
 3381POPC   C4B44902   6.377   5.720   7.514
 3382POPC   NC344903  23.375   6.158   5.431
 3382POPC   PO444904  23.654   6.778   5.400
 3382POPC   GL144905  23.542   6.754   5.778
 3382POPC   GL244906  23.252   6.573   5.716
 3382POPC   C1A44907  23.682   6.590   6.154
 3382POPC   D2A44908  23.867   6.542   6.568
 3382POPC   C3A44909  23.704   6.775   6.895
 3382POPC   C4A44910  23.808   6.664   7.292
 3382POPC   C1B44911  23.172   6.542   6.141
 3382POPC   C2B44912  23.364   6.423   6.525
 3382POPC   C3B44913  23.421   6.350   6.931
 3382POPC   C4B44914  23.276   6.435   7.297
 3383POPC   NC344915  13.362  34.778   5.599
 3383POPC   PO444916  13.462  35.424   5.409
 3383POPC   GL144917  13.498  35.391   5.832
 3383POPC   GL244918  13.701  35.125   5.799
 3383POPC   C1A44919  13.534  35.455   6.294
 3383POPC   D2A44920  13.341  35.323   6.701
 3383POPC   C3A44921  13.549  35.506   7.090
 3383POPC   C4A44922  13.940  35.780   7.100
 3383POPC   C1B44923  13.934  35.113   6.163
 3383POPC   C2B44924  13.816  35.122   6.586
 3383POPC   C3B44925  13.967  35.246   6.959
 3383POPC   C4B44926  13.849  35.162   7.358
 3384POPC   NC344927  16.381   9.636   5.131
 3384POPC   PO444928  17.023   9.766   5.358
 3384POPC   GL144929  16.864   9.592   5.721
 3384POPC   GL244930  16.509   9.696   5.669
 3384POPC   C1A44931  16.986   9.606   6.146
 3384POPC   D2A44932  16.929   9.893   6.482
 3384POPC   C3A44933  17.105   9.766   6.842
 3384POPC   C4A44934  16.918   9.555   7.183
 3384POPC   C1B44935  16.540   9.885   6.097
 3384POPC   C2B44936  16.438   9.985   6.529
 3384POPC   C3B44937  16.604   9.907   6.928
 3384POPC   C4B44938  16.402   9.572   7.134
 3385POPC   NC344939  32.819  31.913   4.820
 3385POPC   PO444940  32.940  32.286   5.390
 3385POPC   GL144941  33.052  32.148   5.788
 3385POPC   GL244942  33.211  32.471   5.836
 3385POPC   C1A44943  33.003  31.969   6.210
 3385POPC   D2A44944  32.768  31.836   6.580
 3385POPC   C3A44945  32.941  31.744   6.974
 3385POPC   C4A44946  32.758  31.917   7.360
 3385POPC   C1B44947  33.094  32.483   6.254
 3385POPC   C2B44948  33.028  32.346   6.625
 3385POPC   C3B44949  32.945  32.644   6.926
 3385POPC   C4B44950  33.157  32.646   7.330
 3386POPC   NC344951  27.547  10.061   5.387
 3386POPC   PO444952  27.737   9.403   5.393
 3386POPC   GL144953  27.545   9.605   5.782
 3386POPC   GL244954  27.525   9.929   5.878
 3386POPC   C1A44955  27.717   9.554   6.183
 3386POPC   D2A44956  27.649   9.828   6.519
 3386POPC   C3A44957  27.745   9.665   6.917
 3386POPC   C4A44958  28.087   9.822   7.172
 3386POPC   C1B44959  27.243   9.803   6.206
 3386POPC   C2B44960  27.148   9.817   6.658
 3386POPC   C3B44961  27.301   9.910   7.078
 3386POPC   C4B44962  27.131  10.047   7.494
 3387POPC   NC344963  19.145   7.256   5.419
 3387POPC   PO444964  18.846   7.823   5.504
 3387POPC   GL144965  18.942   7.581   5.857
 3387POPC   GL244966  18.909   7.231   5.864
 3387POPC   C1A44967  19.019   7.487   6.305
 3387POPC   D2A44968  18.841   7.429   6.738
 3387POPC   C3A44969  19.093   7.597   7.047
 3387POPC   C4A44970  19.525   7.705   7.135
 3387POPC   C1B44971  19.161   7.001   6.160
 3387POPC   C2B44972  19.327   7.096   6.544
 3387POPC   C3B44973  19.328   6.924   6.955
 3387POPC   C4B44974  19.281   7.192   7.286
 3388POPC   NC344975  41.956  37.629   5.341
 3388POPC   PO444976  42.565  37.952   5.335
 3388POPC   GL144977  42.321  37.871   5.706
 3388POPC   GL244978  42.285  37.519   5.722
 3388POPC   C1A44979  42.366  37.859   6.169
 3388POPC   D2A44980  42.309  37.579   6.534
 3388POPC   C3A44981  42.185  37.720   6.922
 3388POPC   C4A44982  42.237  37.644   7.363
 3388POPC   C1B44983  42.657  37.502   5.962
 3388POPC   C2B44984  42.800  37.528   6.387
 3388POPC   C3B44985  42.732  37.496   6.834
 3388POPC   C4B44986  42.756  37.467   7.282
 3389POPC   NC344987  10.900   0.089   5.066
 3389POPC   PO444988  11.445   0.334   5.171
 3389POPC   GL144989  11.459   0.377   5.661
 3389POPC   GL244990  11.553   0.664   5.905
 3389POPC   C1A44991  11.277   0.271   6.086
 3389POPC   D2A44992  11.514   0.428   6.429
 3389POPC   C3A44993  11.409   0.308   6.860
 3389POPC   C4A44994  11.496   0.003   7.170
 3389POPC   C1B44995  11.155   0.775   6.150
 3389POPC   C2B44996  11.024   0.615   6.552
 3389POPC   C3B44997  11.085   0.662   7.007
 3389POPC   C4B44998  11.147   0.730   7.477
 3390POPC   NC344999  12.675  40.088   5.187
 3390POPC   PO445000  13.255  39.937   5.479
 3390POPC   GL145001  12.831  40.021   5.676
 3390POPC   GL245002  12.651  39.714   5.817
 3390POPC   C1A45003  12.685  40.200   6.061
 3390POPC   D2A45004  12.838  40.136   6.450
 3390POPC   C3A45005  12.661  39.966   6.769
 3390POPC   C4A45006  12.643  40.041   7.196
 3390POPC   C1B45007  13.017  39.798   6.119
 3390POPC   C2B45008  13.144  39.733   6.594
 3390POPC   C3B45009  12.997  39.681   7.063
 3390POPC   C4B45010  13.053  39.878   7.475
 3391POPC   NC345011  17.919  28.587   5.606
 3391POPC   PO445012  18.569  28.312   5.439
 3391POPC   GL145013  18.401  28.178   5.850
 3391POPC   GL245014  18.225  28.440   5.985
 3391POPC   C1A45015  18.474  28.121   6.278
 3391POPC   D2A45016  18.272  28.342   6.546
 3391POPC   C3A45017  18.386  28.274   6.948
 3391POPC   C4A45018  18.350  28.587   7.259
 3391POPC   C1B45019  17.934  28.152   6.190
 3391POPC   C2B45020  17.773  28.252   6.607
 3391POPC   C3B45021  17.855  28.272   7.046
 3391POPC   C4B45022  17.925  28.305   7.495
 3392POPC   NC345023  17.272  13.634   5.014
 3392POPC   PO445024  17.679  13.736   5.545
 3392POPC   GL145025  17.687  13.492   5.907
 3392POPC   GL245026  17.384  13.528   6.099
 3392POPC   C1A45027  17.826  13.465   6.313
 3392POPC   D2A45028  17.591  13.648   6.623
 3392POPC   C3A45029  17.865  13.495   6.914
 3392POPC   C4A45030  17.724  13.252   7.231
 3392POPC   C1B45031  17.239  13.880   6.256
 3392POPC   C2B45032  17.139  13.999   6.605
 3392POPC   C3B45033  17.256  14.017   6.975
 3392POPC   C4B45034  17.412  13.649   7.126
 3393POPC   NC345035  43.994  32.631   5.425
 3393POPC   PO445036  44.028  31.936   5.513
 3393POPC   GL145037  43.824  32.210   5.777
 3393POPC   GL245038  43.926  31.943   6.006
 3393POPC   C1A45039  43.602  32.247   6.189
 3393POPC   D2A45040  43.702  31.937   6.504
 3393POPC   C3A45041  43.676  32.148   6.875
 3393POPC   C4A45042  43.740  32.256   7.293
 3393POPC   C1B45043  44.089  32.367   6.197
 3393POPC   C2B45044  43.982  32.505   6.618
 3393POPC   C3B45045  44.141  32.377   7.005
 3393POPC   C4B45046  44.375  32.625   7.275
 3394POPC   NC345047  18.478  40.377   5.403
 3394POPC   PO445048  18.097  39.832   5.495
 3394POPC   GL145049  18.328  39.854   5.821
 3394POPC   GL245050  18.307  40.189   5.897
 3394POPC   C1A45051  18.190  39.746   6.218
 3394POPC   D2A45052  18.407  39.738   6.590
 3394POPC   C3A45053  18.298  40.049   6.902
 3394POPC   C4A45054  18.189  39.843   7.274
 3394POPC   C1B45055  18.573  40.441   6.174
 3394POPC   C2B45056  18.587  40.492   6.643
 3394POPC   C3B45057  18.731  40.284   7.066
 3394POPC   C4B45058  18.468  40.220   7.418
 3395POPC   NC345059   0.723   3.725   5.479
 3395POPC   PO445060   0.250   3.216   5.489
 3395POPC   GL145061   0.363   3.529   5.779
 3395POPC   GL245062   0.665   3.321   5.852
 3395POPC   C1A45063   0.356   3.720   6.197
 3395POPC   D2A45064   0.253   3.824   6.639
 3395POPC   C3A45065   0.503   3.593   6.960
 3395POPC   C4A45066   0.361   3.516   7.352
 3395POPC   C1B45067   0.357   3.183   6.167
 3395POPC   C2B45068   0.304   3.266   6.610
 3395POPC   C3B45069   0.332   3.073   7.032
 3395POPC   C4B45070   0.632   3.087   7.360
 3396POPC   NC345071   3.848  23.996   5.367
 3396POPC   PO445072   4.059  23.346   5.501
 3396POPC   GL145073   4.345  23.683   5.692
 3396POPC   GL245074   4.094  23.918   5.810
 3396POPC   C1A45075   4.552  23.870   6.094
 3396POPC   D2A45076   4.445  23.974   6.549
 3396POPC   C3A45077   4.705  23.967   6.916
 3396POPC   C4A45078   4.636  24.194   7.306
 3396POPC   C1B45079   4.053  23.942   6.221
 3396POPC   C2B45080   4.061  23.615   6.551
 3396POPC   C3B45081   4.329  23.576   6.871
 3396POPC   C4B45082   4.286  23.837   7.198
 3397POPC   NC345083  33.326  10.652   5.464
 3397POPC   PO445084  32.707  10.325   5.367
 3397POPC   GL145085  32.867  10.483   5.750
 3397POPC   GL245086  33.192  10.311   5.829
 3397POPC   C1A45087  32.812  10.575   6.198
 3397POPC   D2A45088  32.935  10.816   6.564
 3397POPC   C3A45089  32.856  10.658   6.984
 3397POPC   C4A45090  33.117  10.759   7.362
 3397POPC   C1B45091  33.425  10.312   6.216
 3397POPC   C2B45092  33.153  10.326   6.561
 3397POPC   C3B45093  33.043  10.165   6.928
 3397POPC   C4B45094  33.216   9.969   7.314
 3398POPC   NC345095  31.091  33.012   5.344
 3398POPC   PO445096  30.421  33.112   5.462
 3398POPC   GL145097  30.734  33.064   5.738
 3398POPC   GL245098  30.758  32.725   5.731
 3398POPC   C1A45099  30.703  33.050   6.185
 3398POPC   D2A45100  30.396  33.187   6.459
 3398POPC   C3A45101  30.466  33.077   6.878
 3398POPC   C4A45102  30.380  32.967   7.270
 3398POPC   C1B45103  30.993  32.622   6.141
 3398POPC   C2B45104  31.032  32.826   6.538
 3398POPC   C3B45105  30.872  32.736   6.936
 3398POPC   C4B45106  30.879  32.923   7.310
 3399POPC   NC345107  26.537  29.072   5.186
 3399POPC   PO445108  27.118  28.744   5.394
 3399POPC   GL145109  26.814  28.923   5.730
 3399POPC   GL245110  26.818  29.292   5.732
 3399POPC   C1A45111  26.687  29.014   6.201
 3399POPC   D2A45112  26.459  28.984   6.641
 3399POPC   C3A45113  26.703  28.924   7.029
 3399POPC   C4A45114  27.130  29.026   7.175
 3399POPC   C1B45115  26.624  29.514   6.069
 3399POPC   C2B45116  26.602  29.454   6.513
 3399POPC   C3B45117  26.890  29.393   6.871
 3399POPC   C4B45118  26.807  29.389   7.327
 3400POPC   NC345119  12.228  18.714   5.064
 3400POPC   PO445120  12.271  19.365   5.381
 3400POPC   GL145121  12.040  19.128   5.704
 3400POPC   GL245122  11.725  19.328   5.739
 3400POPC   C1A45123  12.118  18.956   6.146
 3400POPC   D2A45124  12.294  18.817   6.584
 3400POPC   C3A45125  12.070  18.710   6.978
 3400POPC   C4A45126  11.998  18.922   7.386
 3400POPC   C1B45127  11.849  19.383   6.172
 3400POPC   C2B45128  11.993  19.226   6.562
 3400POPC   C3B45129  12.006  19.337   6.962
 3400POPC   C4B45130  11.751  19.380   7.304
 3401POPC   NC345131  12.329  29.011   5.435
 3401POPC   PO445132  11.674  29.412   5.448
 3401POPC   GL145133  11.934  29.258   5.778
 3401POPC   GL245134  11.827  28.910   5.869
 3401POPC   C1A45135  12.142  29.298   6.188
 3401POPC   D2A45136  12.334  29.034   6.516
 3401POPC   C3A45137  12.240  29.213   6.912
 3401POPC   C4A45138  12.001  29.530   7.135
 3401POPC   C1B45139  11.839  28.891   6.334
 3401POPC   C2B45140  11.823  28.886   6.786
 3401POPC   C3B45141  11.875  29.037   7.217
 3401POPC   C4B45142  11.989  28.892   7.620
 3402POPC   NC345143  37.218   4.309   5.173
 3402POPC   PO445144  37.822   4.141   5.172
 3402POPC   GL145145  37.789   4.265   5.636
 3402POPC   GL245146  37.428   4.219   5.703
 3402POPC   C1A45147  37.839   4.161   6.120
 3402POPC   D2A45148  38.078   4.151   6.545
 3402POPC   C3A45149  37.931   4.182   7.034
 3402POPC   C4A45150  37.807   4.471   7.452
 3402POPC   C1B45151  37.387   4.417   6.146
 3402POPC   C2B45152  37.610   4.396   6.560
 3402POPC   C3B45153  37.567   4.549   6.986
 3402POPC   C4B45154  37.320   4.368   7.325
 3403POPC   NC345155  19.759  41.117   5.506
 3403POPC   PO445156  19.571  40.445   5.507
 3403POPC   GL145157  19.868  40.642   5.759
 3403POPC   GL245158  20.226  40.561   5.835
 3403POPC   C1A45159  19.789  40.787   6.148
 3403POPC   D2A45160  19.843  41.095   6.462
 3403POPC   C3A45161  19.723  40.905   6.811
 3403POPC   C4A45162  19.782  40.946   7.218
 3403POPC   C1B45163  20.291  40.778   6.274
 3403POPC   C2B45164  20.196  40.689   6.716
 3403POPC   C3B45165  20.060  40.554   7.135
 3403POPC   C4B45166  20.216  40.627   7.588
 3404POPC   NC345167   0.626  21.594   5.400
 3404POPC   PO445168   0.859  20.989   5.627
 3404POPC   GL145169   0.566  21.293   5.869
 3404POPC   GL245170   0.579  21.672   5.901
 3404POPC   C1A45171   0.446  21.393   6.322
 3404POPC   D2A45172   0.328  21.261   6.749
 3404POPC   C3A45173   0.601  21.267   7.120
 3404POPC   C4A45174   0.817  21.059   7.494
 3404POPC   C1B45175   0.472  21.911   6.289
 3404POPC   C2B45176   0.537  21.750   6.717
 3404POPC   C3B45177   0.246  21.653   7.063
 3404POPC   C4B45178   0.180  21.754   7.514
 3405POPC   NC345179  25.253  16.540   5.575
 3405POPC   PO445180  25.524  17.190   5.394
 3405POPC   GL145181  25.378  16.990   5.838
 3405POPC   GL245182  25.066  16.807   5.959
 3405POPC   C1A45183  25.510  16.677   6.199
 3405POPC   D2A45184  25.421  16.462   6.589
 3405POPC   C3A45185  25.528  16.571   6.992
 3405POPC   C4A45186  25.619  16.620   7.393
 3405POPC   C1B45187  25.143  16.994   6.353
 3405POPC   C2B45188  25.227  16.890   6.761
 3405POPC   C3B45189  25.061  16.694   7.164
 3405POPC   C4B45190  24.912  16.867   7.568
 3406POPC   NC345191  17.781  36.950   5.326
 3406POPC   PO445192  17.216  37.284   5.548
 3406POPC   GL145193  17.360  36.979   5.802
 3406POPC   GL245194  17.713  36.952   5.836
 3406POPC   C1A45195  17.316  36.797   6.223
 3406POPC   D2A45196  16.997  36.712   6.559
 3406POPC   C3A45197  17.231  36.826   6.933
 3406POPC   C4A45198  17.513  37.146   7.096
 3406POPC   C1B45199  17.815  36.919   6.281
 3406POPC   C2B45200  17.678  36.775   6.689
 3406POPC   C3B45201  17.815  36.751   7.117
 3406POPC   C4B45202  17.861  37.071   7.478
 3407POPC   NC345203  21.994  40.445   5.053
 3407POPC   PO445204  22.437  40.922   5.369
 3407POPC   GL145205  22.280  40.768   5.751
 3407POPC   GL245206  22.464  40.450   5.797
 3407POPC   C1A45207  22.122  40.714   6.176
 3407POPC   D2A45208  22.265  40.777   6.604
 3407POPC   C3A45209  22.027  40.655   6.976
 3407POPC   C4A45210  22.022  40.958   7.286
 3407POPC   C1B45211  22.596  40.514   6.243
 3407POPC   C2B45212  22.677  40.474   6.711
 3407POPC   C3B45213  22.521  40.641   7.107
 3407POPC   C4B45214  22.643  40.539   7.563
 3408POPC   NC345215   7.209   3.071   5.313
 3408POPC   PO445216   7.108   2.464   5.698
 3408POPC   GL145217   7.414   2.812   5.778
 3408POPC   GL245218   7.265   3.163   5.796
 3408POPC   C1A45219   7.692   2.778   6.171
 3408POPC   D2A45220   7.922   2.576   6.546
 3408POPC   C3A45221   7.746   2.685   6.940
 3408POPC   C4A45222   7.363   2.617   7.189
 3408POPC   C1B45223   7.244   3.036   6.199
 3408POPC   C2B45224   7.413   3.166   6.556
 3408POPC   C3B45225   7.283   3.042   6.924
 3408POPC   C4B45226   7.307   3.128   7.330
 3409POPC   NC345227  30.804  28.729   5.553
 3409POPC   PO445228  30.510  28.216   5.204
 3409POPC   GL145229  30.505  28.235   5.704
 3409POPC   GL245230  30.479  28.545   5.889
 3409POPC   C1A45231  30.544  28.060   6.149
 3409POPC   D2A45232  30.790  28.079   6.564
 3409POPC   C3A45233  30.950  28.396   6.870
 3409POPC   C4A45234  30.738  28.612   7.212
 3409POPC   C1B45235  30.295  28.498   6.289
 3409POPC   C2B45236  30.482  28.533   6.686
 3409POPC   C3B45237  30.470  28.214   6.979
 3409POPC   C4B45238  30.235  28.365   7.287
 3410POPC   NC345239  11.897  30.563   5.467
 3410POPC   PO445240  11.240  30.728   5.584
 3410POPC   GL145241  11.440  30.752   5.925
 3410POPC   GL245242  11.163  30.958   6.036
 3410POPC   C1A45243  11.648  30.901   6.250
 3410POPC   D2A45244  11.713  30.650   6.554
 3410POPC   C3A45245  11.663  30.860   6.886
 3410POPC   C4A45246  11.447  30.793   7.262
 3410POPC   C1B45247  11.211  30.663   6.384
 3410POPC   C2B45248  11.195  30.685   6.835
 3410POPC   C3B45249  11.052  30.481   7.211
 3410POPC   C4B45250  11.171  30.557   7.643
 3411POPC   NC345251  35.714  18.378   5.524
 3411POPC   PO445252  36.259  17.978   5.700
 3411POPC   GL145253  35.997  18.190   5.939
 3411POPC   GL245254  36.097  18.525   5.872
 3411POPC   C1A45255  36.074  18.197   6.378
 3411POPC   D2A45256  36.348  17.938   6.626
 3411POPC   C3A45257  36.365  17.999   7.057
 3411POPC   C4A45258  35.956  17.954   7.275
 3411POPC   C1B45259  36.410  18.569   6.217
 3411POPC   C2B45260  36.562  18.426   6.647
 3411POPC   C3B45261  36.419  18.492   7.066
 3411POPC   C4B45262  36.011  18.536   7.289
 3412POPC   NC345263   3.250  44.405   5.601
 3412POPC   PO445264   3.842  44.486   5.324
 3412POPC   GL145265   3.721  44.599   5.750
 3412POPC   GL245266   3.673  44.259   5.850
 3412POPC   C1A45267   3.585  44.682   6.193
 3412POPC   D2A45268   3.457  44.538   6.618
 3412POPC   C3A45269   3.487  44.860   6.942
 3412POPC   C4A45270   3.639   0.045   7.333
 3412POPC   C1B45271   3.413  44.194   6.215
 3412POPC   C2B45272   3.213  44.054   6.579
 3412POPC   C3B45273   3.385  44.153   6.967
 3412POPC   C4B45274   3.685  44.422   7.172
 3413POPC   NC345275  14.815   5.394   5.525
 3413POPC   PO445276  15.269   4.876   5.379
 3413POPC   GL145277  15.117   5.016   5.742
 3413POPC   GL245278  15.265   5.377   5.742
 3413POPC   C1A45279  15.199   4.761   6.117
 3413POPC   D2A45280  15.437   4.792   6.506
 3413POPC   C3A45281  15.160   4.864   6.849
 3413POPC   C4A45282  15.200   5.077   7.232
 3413POPC   C1B45283  15.341   5.244   6.152
 3413POPC   C2B45284  15.207   5.290   6.550
 3413POPC   C3B45285  15.489   5.288   6.867
 3413POPC   C4B45286  15.511   5.492   7.270
 3414POPC   NC345287  32.314   8.460   5.469
 3414POPC   PO445288  32.020   7.846   5.429
 3414POPC   GL145289  32.203   8.082   5.804
 3414POPC   GL245290  32.051   8.424   5.896
 3414POPC   C1A45291  32.203   8.043   6.247
 3414POPC   D2A45292  32.008   7.841   6.597
 3414POPC   C3A45293  32.076   8.083   6.977
 3414POPC   C4A45294  32.436   8.128   7.210
 3414POPC   C1B45295  32.354   8.542   6.211
 3414POPC   C2B45296  32.412   8.340   6.619
 3414POPC   C3B45297  32.483   8.568   6.985
 3414POPC   C4B45298  32.836   8.529   7.242
 3415POPC   NC345299  43.978  27.808   5.233
 3415POPC   PO445300  43.560  27.306   5.380
 3415POPC   GL145301  43.682  27.620   5.718
 3415POPC   GL245302  44.018  27.829   5.747
 3415POPC   C1A45303  43.749  27.702   6.166
 3415POPC   D2A45304  43.994  27.547   6.503
 3415POPC   C3A45305  43.719  27.563   6.841
 3415POPC   C4A45306  43.687  27.815   7.228
 3415POPC   C1B45307  44.232  27.907   6.161
 3415POPC   C2B45308  44.129  28.030   6.616
 3415POPC   C3B45309  44.140  27.810   7.017
 3415POPC   C4B45310  44.092  27.704   7.497
 3416POPC   NC345311  40.174   4.711   5.299
 3416POPC   PO445312  39.850   5.296   5.437
 3416POPC   GL145313  40.106   5.185   5.754
 3416POPC   GL245314  40.023   4.853   5.808
 3416POPC   C1A45315  40.261   5.137   6.179
 3416POPC   D2A45316  40.112   5.101   6.596
 3416POPC   C3A45317  40.183   5.325   7.001
 3416POPC   C4A45318  40.239   5.172   7.450
 3416POPC   C1B45319  39.855   4.649   6.205
 3416POPC   C2B45320  39.770   4.730   6.656
 3416POPC   C3B45321  39.984   4.849   7.029
 3416POPC   C4B45322  39.808   4.915   7.431
 3417POPC   NC345323   6.020  21.589   5.511
 3417POPC   PO445324   6.729  21.626   5.396
 3417POPC   GL145325   6.670  21.402   5.776
 3417POPC   GL245326   6.388  21.602   5.864
 3417POPC   C1A45327   6.841  21.429   6.213
 3417POPC   D2A45328   7.002  21.180   6.576
 3417POPC   C3A45329   6.902  21.347   6.978
 3417POPC   C4A45330   6.574  21.584   7.165
 3417POPC   C1B45331   6.330  21.321   6.209
 3417POPC   C2B45332   6.470  21.281   6.624
 3417POPC   C3B45333   6.240  21.205   7.007
 3417POPC   C4B45334   6.399  21.139   7.414
 3418POPC   NC345335  44.395  28.130   5.500
 3418POPC   PO445336  44.874  28.453   5.086
 3418POPC   GL145337  44.844  28.370   5.605
 3418POPC   GL245338   0.135  28.133   5.660
 3418POPC   C1A45339  44.576  28.296   6.068
 3418POPC   D2A45340  44.713  28.230   6.502
 3418POPC   C3A45341  44.541  28.149   6.904
 3418POPC   C4A45342  44.560  28.307   7.329
 3418POPC   C1B45343   0.071  28.244   6.105
 3418POPC   C2B45344   0.156  28.493   6.473
 3418POPC   C3B45345   0.030  28.399   6.910
 3418POPC   C4B45346  44.969  28.028   7.181
 3419POPC   NC345347   4.921  37.883   5.325
 3419POPC   PO445348   5.474  37.287   5.390
 3419POPC   GL145349   5.489  37.371   5.840
 3419POPC   GL245350   5.394  37.032   5.974
 3419POPC   C1A45351   5.363  37.682   6.215
 3419POPC   D2A45352   5.473  37.793   6.677
 3419POPC   C3A45353   5.337  37.634   7.088
 3419POPC   C4A45354   4.934  37.843   7.155
 3419POPC   C1B45355   5.216  37.203   6.357
 3419POPC   C2B45356   5.050  37.474   6.688
 3419POPC   C3B45357   4.920  37.316   7.095
 3419POPC   C4B45358   5.160  37.065   7.404
 3420POPC   NC345359  35.056  25.262   5.352
 3420POPC   PO445360  35.669  25.155   5.617
 3420POPC   GL145361  35.285  25.364   5.836
 3420POPC   GL245362  35.198  25.081   6.035
 3420POPC   C1A45363  35.015  25.500   6.240
 3420POPC   D2A45364  35.048  25.586   6.705
 3420POPC   C3A45365  35.217  25.347   7.037
 3420POPC   C4A45366  35.538  25.391   7.337
 3420POPC   C1B45367  35.524  25.330   6.292
 3420POPC   C2B45368  35.737  25.207   6.672
 3420POPC   C3B45369  35.555  24.972   7.010
 3420POPC   C4B45370  35.123  24.836   7.160
 3421POPC   NC345371  31.389  38.321   5.045
 3421POPC   PO445372  31.453  37.753   5.381
 3421POPC   GL145373  31.523  37.821   5.776
 3421POPC   GL245374  31.753  37.552   5.855
 3421POPC   C1A45375  31.716  37.943   6.165
 3421POPC   D2A45376  31.674  37.776   6.560
 3421POPC   C3A45377  31.438  38.021   6.862
 3421POPC   C4A45378  31.305  37.932   7.264
 3421POPC   C1B45379  31.873  37.371   6.235
 3421POPC   C2B45380  31.781  37.279   6.667
 3421POPC   C3B45381  31.495  37.513   6.975
 3421POPC   C4B45382  31.494  37.503   7.428
 3422POPC   NC345383  14.520   0.784   5.541
 3422POPC   PO445384  14.563   1.422   5.399
 3422POPC   GL145385  14.324   1.238   5.774
 3422POPC   GL245386  14.054   1.477   5.866
 3422POPC   C1A45387  14.497   1.049   6.192
 3422POPC   D2A45388  14.827   1.115   6.537
 3422POPC   C3A45389  14.642   1.227   6.939
 3422POPC   C4A45390  14.611   1.514   7.280
 3422POPC   C1B45391  13.991   1.197   6.223
 3422POPC   C2B45392  14.196   1.224   6.624
 3422POPC   C3B45393  14.164   1.481   6.995
 3422POPC   C4B45394  13.967   1.438   7.355
 3423POPC   NC345395  33.404   4.494   5.298
 3423POPC   PO445396  33.988   4.215   5.415
 3423POPC   GL145397  33.780   4.370   5.756
 3423POPC   GL245398  33.935   4.708   5.826
 3423POPC   C1A45399  33.619   4.195   6.154
 3423POPC   D2A45400  33.703   4.366   6.558
 3423POPC   C3A45401  33.586   4.137   6.909
 3423POPC   C4A45402  33.738   4.035   7.323
 3423POPC   C1B45403  33.986   4.725   6.286
 3423POPC   C2B45404  33.716   4.893   6.618
 3423POPC   C3B45405  33.508   4.663   6.930
 3423POPC   C4B45406  33.783   4.528   7.249
 3424POPC   NC345407   1.475  11.481   5.418
 3424POPC   PO445408   1.023  10.940   5.329
 3424POPC   GL145409   1.077  11.223   5.671
 3424POPC   GL245410   0.806  11.166   5.861
 3424POPC   C1A45411   1.383  11.211   6.024
 3424POPC   D2A45412   1.537  11.201   6.445
 3424POPC   C3A45413   1.296  11.062   6.805
 3424POPC   C4A45414   1.254  11.338   7.146
 3424POPC   C1B45415   0.982  11.503   6.151
 3424POPC   C2B45416   1.000  11.429   6.590
 3424POPC   C3B45417   0.755  11.417   6.953
 3424POPC   C4B45418   0.868  11.640   7.284
 3425POPC   NC345419   0.556  26.891   5.384
 3425POPC   PO445420   0.017  27.328   5.294
 3425POPC   GL145421   0.216  27.099   5.722
 3425POPC   GL245422   0.618  26.992   5.857
 3425POPC   C1A45423   0.210  26.891   6.145
 3425POPC   D2A45424   0.281  27.044   6.558
 3425POPC   C3A45425   0.269  26.841   6.963
 3425POPC   C4A45426   0.145  26.984   7.343
 3425POPC   C1B45427   0.702  26.796   6.252
 3425POPC   C2B45428   0.748  26.907   6.693
 3425POPC   C3B45429   0.760  26.735   7.110
 3425POPC   C4B45430   0.543  26.708   7.484
 3426POPC   NC345431  40.267  37.313   5.426
 3426POPC   PO445432  40.074  36.695   5.371
 3426POPC   GL145433  39.963  36.872   5.816
 3426POPC   GL245434  40.124  37.189   5.893
 3426POPC   C1A45435  40.074  36.835   6.268
 3426POPC   D2A45436  39.984  36.657   6.661
 3426POPC   C3A45437  40.270  36.649   7.009
 3426POPC   C4A45438  40.123  36.837   7.435
 3426POPC   C1B45439  39.787  37.254   6.198
 3426POPC   C2B45440  39.846  37.169   6.637
 3426POPC   C3B45441  39.813  37.000   7.044
 3426POPC   C4B45442  39.561  37.253   7.324
 3427POPC   NC345443  13.110  42.426   5.474
 3427POPC   PO445444  12.598  42.043   5.349
 3427POPC   GL145445  12.744  42.225   5.781
 3427POPC   GL245446  13.055  42.080   5.855
 3427POPC   C1A45447  12.887  42.385   6.256
 3427POPC   D2A45448  13.118  42.598   6.637
 3427POPC   C3A45449  13.007  42.448   7.062
 3427POPC   C4A45450  12.601  42.449   7.286
 3427POPC   C1B45451  13.209  41.996   6.253
 3427POPC   C2B45452  13.102  42.099   6.669
 3427POPC   C3B45453  13.193  41.936   7.073
 3427POPC   C4B45454  13.117  42.131   7.462
 3428POPC   NC345455  30.181  29.265   5.335
 3428POPC   PO445456  30.814  29.158   5.351
 3428POPC   GL145457  30.736  29.310   5.800
 3428POPC   GL245458  30.544  29.064   5.902
 3428POPC   C1A45459  30.810  29.229   6.297
 3428POPC   D2A45460  30.917  28.899   6.625
 3428POPC   C3A45461  30.847  29.077   7.024
 3428POPC   C4A45462  30.896  29.439   7.287
 3428POPC   C1B45463  30.302  29.006   6.260
 3428POPC   C2B45464  30.416  29.052   6.670
 3428POPC   C3B45465  30.347  28.925   7.078
 3428POPC   C4B45466  30.517  29.085   7.439
 3429POPC   NC345467  33.474  32.409   5.388
 3429POPC   PO445468  34.005  31.873   5.349
 3429POPC   GL145469  33.913  32.086   5.766
 3429POPC   GL245470  33.570  32.081   5.773
 3429POPC   C1A45471  33.964  32.058   6.247
 3429POPC   D2A45472  33.913  31.904   6.695
 3429POPC   C3A45473  33.872  32.246   7.005
 3429POPC   C4A45474  34.037  32.481   7.353
 3429POPC   C1B45475  33.480  32.175   6.184
 3429POPC   C2B45476  33.612  32.370   6.561
 3429POPC   C3B45477  33.430  32.483   6.934
 3429POPC   C4B45478  33.134  32.189   7.123
 3430POPC   NC345479  12.089  24.750   5.439
 3430POPC   PO445480  11.783  24.157   5.347
 3430POPC   GL145481  11.929  24.228   5.760
 3430POPC   GL245482  11.642  24.424   5.903
 3430POPC   C1A45483  12.176  24.455   6.087
 3430POPC   D2A45484  12.286  24.707   6.452
 3430POPC   C3A45485  12.353  24.516   6.870
 3430POPC   C4A45486  12.059  24.468   7.179
 3430POPC   C1B45487  11.760  24.834   6.150
 3430POPC   C2B45488  11.701  24.997   6.582
 3430POPC   C3B45489  11.622  24.747   6.962
 3430POPC   C4B45490  11.688  24.697   7.403
 3431POPC   NC345491  12.261   8.846   5.359
 3431POPC   PO445492  11.626   8.946   5.434
 3431POPC   GL145493  11.943   8.891   5.804
 3431POPC   GL245494  12.132   8.576   5.844
 3431POPC   C1A45495  12.024   8.889   6.290
 3431POPC   D2A45496  11.887   8.749   6.712
 3431POPC   C3A45497  11.891   9.051   7.046
 3431POPC   C4A45498  12.178   9.275   7.305
 3431POPC   C1B45499  12.265   8.445   6.284
 3431POPC   C2B45500  12.356   8.563   6.725
 3431POPC   C3B45501  12.313   8.745   7.139
 3431POPC   C4B45502  12.041   8.809   7.489
 3432POPC   NC345503  21.751   9.871   5.558
 3432POPC   PO445504  21.074   9.963   5.472
 3432POPC   GL145505  21.308   9.871   5.857
 3432POPC   GL245506  21.549   9.574   5.920
 3432POPC   C1A45507  21.396   9.956   6.295
 3432POPC   D2A45508  21.404   9.686   6.674
 3432POPC   C3A45509  21.128   9.813   7.037
 3432POPC   C4A45510  21.094   9.895   7.484
 3432POPC   C1B45511  21.834   9.740   6.243
 3432POPC   C2B45512  21.811   9.996   6.588
 3432POPC   C3B45513  21.499  10.149   6.866
 3432POPC   C4B45514  21.542  10.038   7.292
 3433POPC   NC345515   5.227  40.398   5.440
 3433POPC   PO445516   4.777  39.904   5.467
 3433POPC   GL145517   5.064  39.920   5.830
 3433POPC   GL245518   5.409  39.980   5.748
 3433POPC   C1A45519   5.017  40.020   6.275
 3433POPC   D2A45520   4.717  40.067   6.588
 3433POPC   C3A45521   4.849  40.260   6.942
 3433POPC   C4A45522   5.161  40.079   7.167
 3433POPC   C1B45523   5.472  40.203   6.172
 3433POPC   C2B45524   5.336  40.300   6.619
 3433POPC   C3B45525   5.493  40.411   7.030
 3433POPC   C4B45526   5.448  40.311   7.526
 3434POPC   NC345527  31.279   2.179   5.462
 3434POPC   PO445528  31.704   1.670   5.467
 3434POPC   GL145529  31.679   2.040   5.750
 3434POPC   GL245530  31.338   2.048   5.942
 3434POPC   C1A45531  31.767   2.091   6.189
 3434POPC   D2A45532  31.428   2.093   6.481
 3434POPC   C3A45533  31.415   2.104   6.924
 3434POPC   C4A45534  31.744   2.198   7.146
 3434POPC   C1B45535  31.152   1.738   6.262
 3434POPC   C2B45536  31.249   1.657   6.732
 3434POPC   C3B45537  31.275   1.692   7.214
 3434POPC   C4B45538  31.237   1.696   7.697
 3435POPC   NC345539  35.894  32.137   5.444
 3435POPC   PO445540  36.401  32.606   5.408
 3435POPC   GL145541  36.170  32.540   5.862
 3435POPC   GL245542  35.969  32.256   5.928
 3435POPC   C1A45543  35.928  32.588   6.302
 3435POPC   D2A45544  35.810  32.390   6.714
 3435POPC   C3A45545  36.005  32.438   7.127
 3435POPC   C4A45546  36.004  32.179   7.531
 3435POPC   C1B45547  35.911  32.048   6.331
 3435POPC   C2B45548  36.005  31.804   6.706
 3435POPC   C3B45549  36.119  31.865   7.135
 3435POPC   C4B45550  36.307  31.704   7.526
 3436POPC   NC345551  26.442   5.805   5.503
 3436POPC   PO445552  25.717   5.900   5.471
 3436POPC   GL145553  25.952   5.775   5.832
 3436POPC   GL245554  26.248   5.603   5.912
 3436POPC   C1A45555  26.043   5.975   6.241
 3436POPC   D2A45556  25.885   6.255   6.556
 3436POPC   C3A45557  25.995   6.054   6.943
 3436POPC   C4A45558  25.794   6.037   7.332
 3436POPC   C1B45559  26.059   5.456   6.281
 3436POPC   C2B45560  26.041   5.621   6.662
 3436POPC   C3B45561  26.260   5.578   7.024
 3436POPC   C4B45562  26.315   5.843   7.357
 3437POPC   NC345563   5.449   4.675   5.366
 3437POPC   PO445564   5.652   4.055   5.359
 3437POPC   GL145565   5.401   4.104   5.762
 3437POPC   GL245566   5.193   4.430   5.740
 3437POPC   C1A45567   5.209   4.212   6.196
 3437POPC   D2A45568   5.315   4.548   6.485
 3437POPC   C3A45569   5.220   4.369   6.885
 3437POPC   C4A45570   5.180   4.001   7.196
 3437POPC   C1B45571   4.952   4.654   6.087
 3437POPC   C2B45572   4.791   4.508   6.492
 3437POPC   C3B45573   4.712   4.508   6.923
 3437POPC   C4B45574   4.968   4.515   7.301
 3438POPC   NC345575   3.994  21.786   5.548
 3438POPC   PO445576   4.337  21.261   5.213
 3438POPC   GL145577   4.352  21.293   5.667
 3438POPC   GL245578   4.442  21.565   5.883
 3438POPC   C1A45579   4.078  21.174   5.999
 3438POPC   D2A45580   4.087  21.180   6.454
 3438POPC   C3A45581   4.405  21.452   6.665
 3438POPC   C4A45582   4.303  21.572   7.089
 3438POPC   C1B45583   4.547  21.253   6.205
 3438POPC   C2B45584   4.661  20.999   6.570
 3438POPC   C3B45585   4.774  21.118   6.980
 3438POPC   C4B45586   4.871  21.506   7.197
 3439POPC   NC345587  30.347  33.561   5.440
 3439POPC   PO445588  30.972  33.879   5.361
 3439POPC   GL145589  30.653  33.886   5.706
 3439POPC   GL245590  30.584  33.561   5.902
 3439POPC   C1A45591  30.545  34.115   6.077
 3439POPC   D2A45592  30.676  34.177   6.517
 3439POPC   C3A45593  30.479  34.016   6.862
 3439POPC   C4A45594  30.637  33.901   7.248
 3439POPC   C1B45595  30.677  33.679   6.345
 3439POPC   C2B45596  30.673  33.540   6.801
 3439POPC   C3B45597  30.650  33.402   7.247
 3439POPC   C4B45598  30.371  33.324   7.628
 3440POPC   NC345599   3.951  22.925   5.340
 3440POPC   PO445600   3.243  22.981   5.184
 3440POPC   GL145601   3.390  22.835   5.656
 3440POPC   GL245602   3.747  22.699   5.761
 3440POPC   C1A45603   3.503  23.035   6.090
 3440POPC   D2A45604   3.650  23.186   6.521
 3440POPC   C3A45605   3.338  23.159   6.857
 3440POPC   C4A45606   3.439  23.094   7.258
 3440POPC   C1B45607   3.737  22.558   6.200
 3440POPC   C2B45608   3.871  22.708   6.602
 3440POPC   C3B45609   3.945  22.882   7.010
 3440POPC   C4B45610   4.060  22.750   7.439
 3441POPC   NC345611   0.144  16.215   5.635
 3441POPC   PO445612  44.538  16.114   5.318
 3441POPC   GL145613  44.595  15.895   5.709
 3441POPC   GL245614  44.885  15.776   5.689
 3441POPC   C1A45615  44.504  15.935   6.156
 3441POPC   D2A45616  44.676  16.070   6.520
 3441POPC   C3A45617  44.401  15.963   6.847
 3441POPC   C4A45618  44.506  15.778   7.231
 3441POPC   C1B45619  44.976  15.768   6.156
 3441POPC   C2B45620   0.000  15.560   6.545
 3441POPC   C3B45621  44.917  15.822   6.889
 3441POPC   C4B45622   0.023  15.823   7.278
 3442POPC   NC345623  31.263  11.756   5.654
 3442POPC   PO445624  31.281  12.385   5.283
 3442POPC   GL145625  31.250  12.273   5.746
 3442POPC   GL245626  31.611  12.201   5.734
 3442POPC   C1A45627  31.183  12.111   6.209
 3442POPC   D2A45628  31.397  12.100   6.625
 3442POPC   C3A45629  31.131  12.155   6.988
 3442POPC   C4A45630  31.250  12.182   7.390
 3442POPC   C1B45631  31.731  11.973   6.104
 3442POPC   C2B45632  31.884  11.910   6.528
 3442POPC   C3B45633  31.903  12.099   6.927
 3442POPC   C4B45634  31.888  12.025   7.382
 3443POPC   NC345635   3.205  31.283   5.351
 3443POPC   PO445636   3.936  31.411   5.328
 3443POPC   GL145637   3.736  31.358   5.755
 3443POPC   GL245638   3.377  31.288   5.830
 3443POPC   C1A45639   3.815  31.440   6.187
 3443POPC   D2A45640   3.759  31.768   6.502
 3443POPC   C3A45641   3.639  31.619   6.878
 3443POPC   C4A45642   3.345  31.531   7.206
 3443POPC   C1B45643   3.446  31.092   6.226
 3443POPC   C2B45644   3.640  30.893   6.577
 3443POPC   C3B45645   3.506  31.109   6.949
 3443POPC   C4B45646   3.448  31.064   7.384
 3444POPC   NC345647  42.667  44.878   5.439
 3444POPC   PO445648  42.370  44.321   5.460
 3444POPC   GL145649  42.391  44.632   5.790
 3444POPC   GL245650  42.129  44.889   5.766
 3444POPC   C1A45651  42.492  44.895   6.137
 3444POPC   D2A45652  42.400  44.661   6.502
 3444POPC   C3A45653  42.375  44.851   6.876
 3444POPC   C4A45654  42.478  44.655   7.265
 3444POPC   C1B45655  41.991  44.786   6.210
 3444POPC   C2B45656  41.889  44.653   6.643
 3444POPC   C3B45657  41.934  44.619   7.087
 3444POPC   C4B45658  42.028  44.819   7.484
 3445POPC   NC345659  35.753  34.133   5.544
 3445POPC   PO445660  36.456  34.264   5.466
 3445POPC   GL145661  36.206  34.114   5.827
 3445POPC   GL245662  36.065  33.810   5.862
 3445POPC   C1A45663  36.025  34.099   6.272
 3445POPC   D2A45664  35.795  34.260   6.627
 3445POPC   C3A45665  35.861  33.979   6.936
 3445POPC   C4A45666  36.252  33.912   7.126
 3445POPC   C1B45667  36.104  33.548   6.207
 3445POPC   C2B45668  35.932  33.612   6.594
 3445POPC   C3B45669  35.994  33.458   7.009
 3445POPC   C4B45670  36.293  33.461   7.364
 3446POPC   NC345671   3.778  40.307   5.563
 3446POPC   PO445672   3.354  39.885   5.461
 3446POPC   GL145673   3.585  39.919   5.832
 3446POPC   GL245674   3.802  39.658   5.928
 3446POPC   C1A45675   3.592  40.128   6.208
 3446POPC   D2A45676   3.547  40.353   6.543
 3446POPC   C3A45677   3.599  40.147   6.897
 3446POPC   C4A45678   3.530  40.331   7.231
 3446POPC   C1B45679   4.038  39.893   6.228
 3446POPC   C2B45680   4.044  40.093   6.632
 3446POPC   C3B45681   4.014  39.844   7.013
 3446POPC   C4B45682   3.797  39.943   7.387
 3447POPC   NC345683  20.409   0.231   5.623
 3447POPC   PO445684  20.780  44.759   5.228
 3447POPC   GL145685  20.666  44.732   5.683
 3447POPC   GL245686  20.372  44.510   5.746
 3447POPC   C1A45687  20.607  44.751   6.154
 3447POPC   D2A45688  20.832  44.697   6.560
 3447POPC   C3A45689  20.714  44.541   6.985
 3447POPC   C4A45690  20.387  44.669   7.279
 3447POPC   C1B45691  20.220  44.388   6.169
 3447POPC   C2B45692  20.374  44.418   6.606
 3447POPC   C3B45693  20.227  44.252   7.014
 3447POPC   C4B45694  20.096  44.264   7.461
 3448POPC   NC345695  37.332  41.346   5.354
 3448POPC   PO445696  37.938  41.254   5.385
 3448POPC   GL145697  37.822  41.597   5.720
 3448POPC   GL245698  37.474  41.601   5.754
 3448POPC   C1A45699  37.675  41.816   6.157
 3448POPC   D2A45700  37.375  41.899   6.489
 3448POPC   C3A45701  37.575  41.814   6.880
 3448POPC   C4A45702  37.380  41.775   7.274
 3448POPC   C1B45703  37.368  41.372   6.105
 3448POPC   C2B45704  37.210  41.407   6.500
 3448POPC   C3B45705  37.341  41.362   6.920
 3448POPC   C4B45706  37.088  41.373   7.297
 3449POPC   NC345707   6.081  16.996   5.446
 3449POPC   PO445708   5.630  16.499   5.346
 3449POPC   GL145709   5.745  16.715   5.737
 3449POPC   GL245710   5.672  17.050   5.799
 3449POPC   C1A45711   5.781  16.608   6.187
 3449POPC   D2A45712   5.545  16.552   6.585
 3449POPC   C3A45713   5.689  16.735   6.944
 3449POPC   C4A45714   5.930  16.585   7.273
 3449POPC   C1B45715   6.022  17.055   6.114
 3449POPC   C2B45716   6.069  16.894   6.562
 3449POPC   C3B45717   6.153  16.979   7.020
 3449POPC   C4B45718   6.076  17.031   7.500
 3450POPC   NC345719  24.528  44.154   5.264
 3450POPC   PO445720  24.484  43.485   5.445
 3450POPC   GL145721  24.592  43.813   5.699
 3450POPC   GL245722  24.209  43.892   5.603
 3450POPC   C1A45723  24.757  43.972   6.130
 3450POPC   D2A45724  24.617  43.816   6.559
 3450POPC   C3A45725  24.769  43.948   6.976
 3450POPC   C4A45726  24.511  43.830   7.333
 3450POPC   C1B45727  24.283  44.102   5.966
 3450POPC   C2B45728  24.258  44.157   6.396
 3450POPC   C3B45729  24.126  43.919   6.772
 3450POPC   C4B45730  24.117  44.087   7.175
 3451POPC   NC345731  30.257   9.551   5.553
 3451POPC   PO445732  29.812   9.983   5.407
 3451POPC   GL145733  29.878   9.830   5.820
 3451POPC   GL245734  29.763   9.478   5.781
 3451POPC   C1A45735  30.113   9.962   6.198
 3451POPC   D2A45736  30.078   9.801   6.611
 3451POPC   C3A45737  30.305   9.823   6.990
 3451POPC   C4A45738  30.056   9.848   7.347
 3451POPC   C1B45739  29.973   9.465   6.188
 3451POPC   C2B45740  29.959   9.300   6.592
 3451POPC   C3B45741  29.919   9.477   6.987
 3451POPC   C4B45742  29.751   9.442   7.362
 3452POPC   NC345743  15.243  32.012   5.425
 3452POPC   PO445744  15.209  32.589   5.791
 3452POPC   GL145745  15.013  32.204   5.853
 3452POPC   GL245746  15.286  31.992   5.956
 3452POPC   C1A45747  14.813  32.028   6.200
 3452POPC   D2A45748  14.790  32.008   6.651
 3452POPC   C3A45749  15.095  32.186   6.944
 3452POPC   C4A45750  15.375  32.044   7.272
 3452POPC   C1B45751  15.262  32.168   6.401
 3452POPC   C2B45752  15.484  32.424   6.719
 3452POPC   C3B45753  15.541  32.510   7.142
 3452POPC   C4B45754  15.661  32.386   7.527
 3453POPC   NC345755  24.903   5.107   5.427
 3453POPC   PO445756  25.681   4.941   5.427
 3453POPC   GL145757  25.330   5.132   5.728
 3453POPC   GL245758  25.046   4.946   5.873
 3453POPC   C1A45759  25.304   5.288   6.186
 3453POPC   D2A45760  25.484   5.373   6.601
 3453POPC   C3A45761  25.215   5.378   6.961
 3453POPC   C4A45762  25.414   5.156   7.251
 3453POPC   C1B45763  24.855   5.059   6.266
 3453POPC   C2B45764  25.093   5.037   6.609
 3453POPC   C3B45765  25.035   4.883   6.999
 3453POPC   C4B45766  25.022   4.898   7.438
 3454POPC   NC345767   6.397  24.343   5.426
 3454POPC   PO445768   6.867  24.805   5.482
 3454POPC   GL145769   6.622  24.638   5.785
 3454POPC   GL245770   6.769  24.313   5.810
 3454POPC   C1A45771   6.439  24.538   6.169
 3454POPC   D2A45772   6.527  24.422   6.587
 3454POPC   C3A45773   6.257  24.581   6.864
 3454POPC   C4A45774   6.448  24.660   7.218
 3454POPC   C1B45775   6.906  24.291   6.239
 3454POPC   C2B45776   7.065  24.404   6.661
 3454POPC   C3B45777   6.914  24.452   7.079
 3454POPC   C4B45778   6.806  24.301   7.486
 3455POPC   NC345779  40.621  32.947   5.003
 3455POPC   PO445780  41.049  32.803   5.545
 3455POPC   GL145781  40.872  33.045   5.897
 3455POPC   GL245782  40.631  33.345   5.842
 3455POPC   C1A45783  40.979  32.953   6.297
 3455POPC   D2A45784  40.860  32.765   6.659
 3455POPC   C3A45785  41.113  32.873   6.990
 3455POPC   C4A45786  40.973  32.978   7.371
 3455POPC   C1B45787  40.815  33.426   6.247
 3455POPC   C2B45788  40.926  33.321   6.666
 3455POPC   C3B45789  40.657  33.145   6.969
 3455POPC   C4B45790  40.496  33.221   7.362
 3456POPC   NC345791  19.526  36.469   5.398
 3456POPC   PO445792  20.250  36.229   5.339
 3456POPC   GL145793  19.908  36.237   5.688
 3456POPC   GL245794  19.663  36.463   5.894
 3456POPC   C1A45795  19.906  36.075   6.142
 3456POPC   D2A45796  19.736  35.970   6.557
 3456POPC   C3A45797  19.990  36.011   6.924
 3456POPC   C4A45798  20.027  36.309   7.238
 3456POPC   C1B45799  19.623  36.485   6.382
 3456POPC   C2B45800  19.669  36.415   6.856
 3456POPC   C3B45801  19.535  36.059   7.151
 3456POPC   C4B45802  19.369  35.915   7.576
 3457POPC   NC345803  14.191  28.997   5.375
 3457POPC   PO445804  14.844  29.294   5.323
 3457POPC   GL145805  14.563  29.231   5.658
 3457POPC   GL245806  14.614  29.508   5.849
 3457POPC   C1A45807  14.542  29.038   6.084
 3457POPC   D2A45808  14.680  28.941   6.513
 3457POPC   C3A45809  14.383  28.991   6.856
 3457POPC   C4A45810  14.534  29.007   7.296
 3457POPC   C1B45811  14.458  29.561   6.258
 3457POPC   C2B45812  14.595  29.438   6.636
 3457POPC   C3B45813  14.481  29.457   7.025
 3457POPC   C4B45814  14.819  29.462   7.255
 3458POPC   NC345815  17.896  20.611   5.057
 3458POPC   PO445816  17.368  20.636   5.483
 3458POPC   GL145817  17.333  20.745   5.947
 3458POPC   GL245818  17.578  20.991   6.096
 3458POPC   C1A45819  17.464  20.506   6.315
 3458POPC   D2A45820  17.453  20.561   6.764
 3458POPC   C3A45821  17.655  20.342   7.058
 3458POPC   C4A45822  17.737  20.392   7.478
 3458POPC   C1B45823  17.301  20.975   6.458
 3458POPC   C2B45824  17.163  20.953   6.878
 3458POPC   C3B45825  17.377  20.785   7.241
 3458POPC   C4B45826  17.286  20.712   7.685
 3459POPC   NC345827  30.533  36.811   5.490
 3459POPC   PO445828  30.965  37.228   5.426
 3459POPC   GL145829  30.734  37.139   5.824
 3459POPC   GL245830  30.854  36.795   5.896
 3459POPC   C1A45831  30.423  37.042   6.168
 3459POPC   D2A45832  30.421  37.043   6.628
 3459POPC   C3A45833  30.517  36.909   7.085
 3459POPC   C4A45834  30.733  37.017   7.468
 3459POPC   C1B45835  30.914  36.964   6.308
 3459POPC   C2B45836  30.914  36.936   6.771
 3459POPC   C3B45837  30.985  36.676   7.147
 3459POPC   C4B45838  30.994  36.590   7.630
 3460POPC   NC345839   4.755  30.596   5.416
 3460POPC   PO445840   5.331  30.494   5.486
 3460POPC   GL145841   5.159  30.676   5.879
 3460POPC   GL245842   4.842  30.827   5.870
 3460POPC   C1A45843   5.090  30.719   6.335
 3460POPC   D2A45844   5.229  30.466   6.627
 3460POPC   C3A45845   4.978  30.467   7.034
 3460POPC   C4A45846   5.192  30.377   7.460
 3460POPC   C1B45847   4.792  31.113   6.217
 3460POPC   C2B45848   4.605  31.079   6.639
 3460POPC   C3B45849   4.714  30.928   7.059
 3460POPC   C4B45850   4.875  30.754   7.461
 3461POPC   NC345851   0.363  17.037   5.374
 3461POPC   PO445852   0.427  16.377   5.299
 3461POPC   GL145853   0.552  16.541   5.733
 3461POPC   GL245854   0.642  16.911   5.802
 3461POPC   C1A45855   0.689  16.406   6.166
 3461POPC   D2A45856   0.576  16.355   6.611
 3461POPC   C3A45857   0.651  16.591   6.997
 3461POPC   C4A45858   0.442  16.619   7.432
 3461POPC   C1B45859   0.524  16.873   6.253
 3461POPC   C2B45860   0.281  16.791   6.607
 3461POPC   C3B45861   0.375  17.032   6.953
 3461POPC   C4B45862   0.210  17.054   7.358
 3462POPC   NC345863  23.229  38.187   5.373
 3462POPC   PO445864  23.498  37.525   5.429
 3462POPC   GL145865  23.511  37.821   5.790
 3462POPC   GL245866  23.228  38.021   5.851
 3462POPC   C1A45867  23.798  37.824   6.162
 3462POPC   D2A45868  23.884  37.527   6.508
 3462POPC   C3A45869  23.996  37.694   6.908
 3462POPC   C4A45870  23.877  37.985   7.235
 3462POPC   C1B45871  23.308  37.989   6.290
 3462POPC   C2B45872  23.604  37.942   6.641
 3462POPC   C3B45873  23.489  37.745   7.030
 3462POPC   C4B45874  23.364  38.077   7.267
 3463POPC   NC345875  43.556  41.109   5.585
 3463POPC   PO445876  44.097  40.709   5.252
 3463POPC   GL145877  43.899  40.764   5.707
 3463POPC   GL245878  43.571  40.631   5.780
 3463POPC   C1A45879  43.889  40.883   6.139
 3463POPC   D2A45880  44.093  40.923   6.524
 3463POPC   C3A45881  43.916  40.958   6.920
 3463POPC   C4A45882  43.859  40.808   7.332
 3463POPC   C1B45883  43.644  40.448   6.211
 3463POPC   C2B45884  43.735  40.536   6.675
 3463POPC   C3B45885  43.559  40.385   7.086
 3463POPC   C4B45886  43.569  40.411   7.551
 3464POPC   NC345887  29.042   5.664   5.248
 3464POPC   PO445888  29.461   6.117   5.371
 3464POPC   GL145889  29.265   5.900   5.747
 3464POPC   GL245890  28.970   5.650   5.780
 3464POPC   C1A45891  29.124   5.936   6.192
 3464POPC   D2A45892  29.131   5.714   6.582
 3464POPC   C3A45893  29.176   5.908   6.983
 3464POPC   C4A45894  29.085   6.311   7.162
 3464POPC   C1B45895  28.838   5.487   6.217
 3464POPC   C2B45896  28.613   5.651   6.581
 3464POPC   C3B45897  28.842   5.517   6.948
 3464POPC   C4B45898  28.932   5.461   7.356
 3465POPC   NC345899  32.762  33.110   5.344
 3465POPC   PO445900  33.353  32.849   5.252
 3465POPC   GL145901  33.166  32.966   5.632
 3465POPC   GL245902  33.313  33.292   5.607
 3465POPC   C1A45903  32.904  32.890   6.026
 3465POPC   D2A45904  32.725  32.797   6.461
 3465POPC   C3A45905  32.805  33.122   6.799
 3465POPC   C4A45906  32.904  33.066   7.244
 3465POPC   C1B45907  33.326  33.178   6.067
 3465POPC   C2B45908  33.194  32.964   6.470
 3465POPC   C3B45909  33.320  33.000   6.919
 3465POPC   C4B45910  33.362  33.277   7.244
 3466POPC   NC345911  20.177  17.668   5.362
 3466POPC   PO445912  19.561  17.428   5.403
 3466POPC   GL145913  19.765  17.613   5.719
 3466POPC   GL245914  20.024  17.418   5.767
 3466POPC   C1A45915  19.683  17.611   6.158
 3466POPC   D2A45916  19.761  17.409   6.547
 3466POPC   C3A45917  19.793  17.648   6.937
 3466POPC   C4A45918  19.611  17.493   7.334
 3466POPC   C1B45919  20.136  17.372   6.174
 3466POPC   C2B45920  20.241  17.528   6.555
 3466POPC   C3B45921  20.206  17.346   6.953
 3466POPC   C4B45922  20.107  17.594   7.367
 3467POPC   NC345923  10.225  33.478   5.075
 3467POPC   PO445924  10.583  33.046   5.353
 3467POPC   GL145925  10.345  33.043   5.724
 3467POPC   GL245926  10.677  33.064   5.895
 3467POPC   C1A45927  10.246  33.064   6.163
 3467POPC   D2A45928  10.544  33.108   6.490
 3467POPC   C3A45929  10.369  33.069   6.884
 3467POPC   C4A45930  10.472  33.218   7.288
 3467POPC   C1B45931  10.580  32.678   6.172
 3467POPC   C2B45932  10.531  32.573   6.586
 3467POPC   C3B45933  10.618  32.575   6.998
 3467POPC   C4B45934  10.369  32.745   7.296
 3468POPC   NC345935  36.026  26.223   5.378
 3468POPC   PO445936  36.501  25.781   5.463
 3468POPC   GL145937  36.319  26.085   5.804
 3468POPC   GL245938  36.059  25.904   5.839
 3468POPC   C1A45939  36.037  26.371   6.097
 3468POPC   D2A45940  35.727  26.243   6.417
 3468POPC   C3A45941  35.945  26.140   6.808
 3468POPC   C4A45942  35.999  26.352   7.190
 3468POPC   C1B45943  36.129  25.917   6.291
 3468POPC   C2B45944  35.823  25.708   6.549
 3468POPC   C3B45945  35.844  25.605   6.984
 3468POPC   C4B45946  35.785  25.902   7.281
 3469POPC   NC345947  14.208  30.370   5.540
 3469POPC   PO445948  14.166  29.675   5.381
 3469POPC   GL145949  14.361  29.932   5.734
 3469POPC   GL245950  14.150  29.761   5.905
 3469POPC   C1A45951  14.440  30.145   6.148
 3469POPC   D2A45952  14.250  30.178   6.578
 3469POPC   C3A45953  14.386  30.257   7.004
 3469POPC   C4A45954  14.297  30.053   7.371
 3469POPC   C1B45955  14.002  29.822   6.284
 3469POPC   C2B45956  14.117  29.672   6.673
 3469POPC   C3B45957  14.021  29.687   7.092
 3469POPC   C4B45958  14.238  29.552   7.458
 3470POPC   NC345959  16.341  12.370   5.442
 3470POPC   PO445960  16.718  11.864   5.430
 3470POPC   GL145961  16.817  11.952   5.845
 3470POPC   GL245962  16.742  12.321   5.790
 3470POPC   C1A45963  16.663  11.829   6.271
 3470POPC   D2A45964  16.561  11.600   6.647
 3470POPC   C3A45965  16.440  11.843   7.003
 3470POPC   C4A45966  16.610  12.263   7.080
 3470POPC   C1B45967  16.888  12.293   6.219
 3470POPC   C2B45968  16.847  12.305   6.635
 3470POPC   C3B45969  16.946  11.933   6.889
 3470POPC   C4B45970  17.221  12.009   7.218
 3471POPC   NC345971  21.910  30.330   5.163
 3471POPC   PO445972  22.411  29.882   5.011
 3471POPC   GL145973  22.212  29.973   5.456
 3471POPC   GL245974  21.892  29.852   5.621
 3471POPC   C1A45975  22.280  29.949   5.944
 3471POPC   D2A45976  22.195  30.118   6.396
 3471POPC   C3A45977  22.273  29.915   6.828
 3471POPC   C4A45978  22.308  29.937   7.329
 3471POPC   C1B45979  21.826  29.740   6.079
 3471POPC   C2B45980  21.853  29.733   6.528
 3471POPC   C3B45981  21.688  30.000   6.827
 3471POPC   C4B45982  21.952  30.200   7.128
 3472POPC   NC345983  29.740  29.541   5.526
 3472POPC   PO445984  30.190  28.896   5.605
 3472POPC   GL145985  29.988  29.145   5.819
 3472POPC   GL245986  30.168  29.426   5.814
 3472POPC   C1A45987  29.843  29.219   6.185
 3472POPC   D2A45988  30.050  29.389   6.534
 3472POPC   C3A45989  29.959  29.200   6.878
 3472POPC   C4A45990  29.856  29.142   7.247
 3472POPC   C1B45991  30.389  29.499   6.162
 3472POPC   C2B45992  30.499  29.671   6.549
 3472POPC   C3B45993  30.543  29.493   6.913
 3472POPC   C4B45994  30.265  29.473   7.223
 3473POPC   NC345995  42.613  25.161   5.712
 3473POPC   PO445996  42.010  25.432   5.541
 3473POPC   GL145997  42.122  25.134   5.818
 3473POPC   GL245998  42.291  25.428   5.994
 3473POPC   C1A45999  42.161  24.969   6.234
 3473POPC   D2A46000  42.218  25.281   6.558
 3473POPC   C3A46001  42.335  25.223   6.964
 3473POPC   C4A46002  42.679  25.313   7.229
 3473POPC   C1B46003  41.900  25.440   6.173
 3473POPC   C2B46004  41.733  25.426   6.561
 3473POPC   C3B46005  41.896  25.498   6.974
 3473POPC   C4B46006  42.067  25.386   7.380
 3474POPC   NC346007   0.833  39.236   5.500
 3474POPC   PO446008   0.280  39.617   5.523
 3474POPC   GL146009   0.520  39.415   5.878
 3474POPC   GL246010   0.353  39.090   6.002
 3474POPC   C1A46011   0.590  39.409   6.326
 3474POPC   D2A46012   0.364  39.081   6.619
 3474POPC   C3A46013   0.552  39.038   7.070
 3474POPC   C4A46014   0.677  39.363   7.320
 3474POPC   C1B46015   0.111  39.446   6.207
 3474POPC   C2B46016   0.227  39.579   6.635
 3474POPC   C3B46017   0.174  39.362   6.997
 3474POPC   C4B46018   0.031  39.582   7.267
 3475POPC   NC346019  27.003  44.933   5.336
 3475POPC   PO446020  26.266  44.853   5.306
 3475POPC   GL146021  26.604  44.670   5.653
 3475POPC   GL246022  26.992  44.589   5.707
 3475POPC   C1A46023  26.695  44.609   6.132
 3475POPC   D2A46024  26.495  44.666   6.568
 3475POPC   C3A46025  26.532  44.323   6.858
 3475POPC   C4A46026  26.831  44.364   7.179
 3475POPC   C1B46027  27.176  44.814   6.083
 3475POPC   C2B46028  27.162  44.702   6.531
 3475POPC   C3B46029  26.908  44.802   6.896
 3475POPC   C4B46030  26.484  44.771   7.103
 3476POPC   NC346031  30.964  22.135   5.070
 3476POPC   PO446032  30.983  22.141   5.705
 3476POPC   GL146033  30.703  22.249   5.955
 3476POPC   GL246034  30.456  22.159   5.739
 3476POPC   C1A46035  30.755  22.204   6.374
 3476POPC   D2A46036  30.968  22.386   6.700
 3476POPC   C3A46037  31.031  22.199   7.114
 3476POPC   C4A46038  31.148  22.474   7.484
 3476POPC   C1B46039  30.356  21.913   6.115
 3476POPC   C2B46040  30.503  21.796   6.536
 3476POPC   C3B46041  30.428  21.977   6.917
 3476POPC   C4B46042  30.575  22.090   7.297
 3477POPC   NC346043  16.079   7.529   5.295
 3477POPC   PO446044  15.645   7.709   5.732
 3477POPC   GL146045  15.899   7.358   5.890
 3477POPC   GL246046  16.197   7.259   5.730
 3477POPC   C1A46047  15.879   7.082   6.267
 3477POPC   D2A46048  15.711   7.261   6.646
 3477POPC   C3A46049  15.952   7.455   6.982
 3477POPC   C4A46050  16.078   7.768   7.260
 3477POPC   C1B46051  16.331   7.345   6.180
 3477POPC   C2B46052  16.241   7.216   6.613
 3477POPC   C3B46053  16.397   7.162   7.008
 3477POPC   C4B46054  16.191   7.212   7.370
 3478POPC   NC346055  41.968  39.944   5.328
 3478POPC   PO446056  42.669  40.007   5.436
 3478POPC   GL146057  42.425  40.095   5.813
 3478POPC   GL246058  42.039  40.198   5.774
 3478POPC   C1A46059  42.417  39.981   6.262
 3478POPC   D2A46060  42.589  39.776   6.631
 3478POPC   C3A46061  42.526  39.996   6.985
 3478POPC   C4A46062  42.294  40.385   6.934
 3478POPC   C1B46063  42.050  39.757   5.964
 3478POPC   C2B46064  42.010  39.712   6.410
 3478POPC   C3B46065  42.114  39.677   6.831
 3478POPC   C4B46066  42.000  39.970   7.130
 3479POPC   NC346067   2.089  42.107   5.350
 3479POPC   PO446068   1.402  41.976   5.258
 3479POPC   GL146069   1.714  42.069   5.705
 3479POPC   GL246070   2.130  41.991   5.825
 3479POPC   C1A46071   1.823  42.385   6.086
 3479POPC   D2A46072   1.657  42.555   6.518
 3479POPC   C3A46073   1.820  42.468   6.959
 3479POPC   C4A46074   2.189  42.336   7.187
 3479POPC   C1B46075   1.935  41.905   6.202
 3479POPC   C2B46076   1.944  42.111   6.599
 3479POPC   C3B46077   1.933  41.940   7.011
 3479POPC   C4B46078   1.741  42.138   7.361
 3480POPC   NC346079  16.467  39.349   5.598
 3480POPC   PO446080  17.043  38.953   5.441
 3480POPC   GL146081  16.817  39.037   5.832
 3480POPC   GL246082  16.644  38.752   5.896
 3480POPC   C1A46083  16.627  39.200   6.249
 3480POPC   D2A46084  16.701  39.375   6.708
 3480POPC   C3A46085  16.572  39.349   7.190
 3480POPC   C4A46086  16.311  39.431   7.594
 3480POPC   C1B46087  16.904  38.736   6.254
 3480POPC   C2B46088  16.742  38.854   6.626
 3480POPC   C3B46089  16.843  38.956   7.015
 3480POPC   C4B46090  16.584  38.868   7.327
 3481POPC   NC346091  32.004  20.473   5.432
 3481POPC   PO446092  32.381  21.000   5.453
 3481POPC   GL146093  32.309  20.770   5.792
 3481POPC   GL246094  32.651  20.650   5.832
 3481POPC   C1A46095  32.115  20.836   6.209
 3481POPC   D2A46096  32.230  21.047   6.581
 3481POPC   C3A46097  32.138  20.885   7.001
 3481POPC   C4A46098  31.991  20.471   7.105
 3481POPC   C1B46099  32.463  20.466   6.213
 3481POPC   C2B46100  32.275  20.516   6.635
 3481POPC   C3B46101  32.487  20.494   7.039
 3481POPC   C4B46102  32.523  20.795   7.381
 3482POPC   NC346103   3.861  40.913   5.064
 3482POPC   PO446104   3.420  40.737   5.493
 3482POPC   GL146105   3.700  40.795   5.770
 3482POPC   GL246106   3.966  41.007   5.684
 3482POPC   C1A46107   3.636  40.942   6.170
 3482POPC   D2A46108   3.391  40.834   6.506
 3482POPC   C3A46109   3.542  40.747   6.904
 3482POPC   C4A46110   3.393  41.060   7.209
 3482POPC   C1B46111   4.081  40.706   6.081
 3482POPC   C2B46112   3.978  40.636   6.503
 3482POPC   C3B46113   4.117  40.795   6.896
 3482POPC   C4B46114   3.890  40.917   7.232
 3483POPC   NC346115   0.723   8.587   5.590
 3483POPC   PO446116   0.945   7.942   5.586
 3483POPC   GL146117   0.689   8.177   5.903
 3483POPC   GL246118   0.352   8.320   5.794
 3483POPC   C1A46119   0.373   8.012   6.204
 3483POPC   D2A46120   0.544   7.909   6.582
 3483POPC   C3A46121   0.319   8.034   6.892
 3483POPC   C4A46122   0.408   8.182   7.231
 3483POPC   C1B46123   0.116   8.496   6.126
 3483POPC   C2B46124   0.134   8.368   6.539
 3483POPC   C3B46125   0.303   8.563   6.897
 3483POPC   C4B46126   0.129   8.688   7.267
 3484POPC   NC346127  35.357   0.631   5.470
 3484POPC   PO446128  34.730   0.614   5.314
 3484POPC   GL146129  34.947   0.549   5.756
 3484POPC   GL246130  35.217   0.252   5.834
 3484POPC   C1A46131  35.221   0.625   6.178
 3484POPC   D2A46132  35.335   0.358   6.565
 3484POPC   C3A46133  35.474   0.549   6.940
 3484POPC   C4A46134  35.082   0.675   7.107
 3484POPC   C1B46135  35.608   0.249   6.161
 3484POPC   C2B46136  35.781   0.144   6.635
 3484POPC   C3B46137  35.615   0.077   7.084
 3484POPC   C4B46138  35.539  44.942   7.531
 3485POPC   NC346139   1.128  23.978   5.507
 3485POPC   PO446140   1.459  23.441   5.393
 3485POPC   GL146141   1.408  23.650   5.803
 3485POPC   GL246142   1.040  23.560   5.808
 3485POPC   C1A46143   1.241  23.881   6.185
 3485POPC   D2A46144   1.218  23.713   6.617
 3485POPC   C3A46145   1.155  23.932   7.012
 3485POPC   C4A46146   1.307  23.913   7.437
 3485POPC   C1B46147   1.101  23.379   6.212
 3485POPC   C2B46148   0.999  23.240   6.632
 3485POPC   C3B46149   1.195  23.370   7.008
 3485POPC   C4B46150   0.989  23.542   7.316
 3486POPC   NC346151  10.479  22.663   5.353
 3486POPC   PO446152  10.856  22.085   5.366
 3486POPC   GL146153  10.664  22.317   5.728
 3486POPC   GL246154  10.438  22.052   5.845
 3486POPC   C1A46155  10.590  22.403   6.186
 3486POPC   D2A46156  10.404  22.267   6.577
 3486POPC   C3A46157  10.536  22.398   6.962
 3486POPC   C4A46158  10.394  22.448   7.361
 3486POPC   C1B46159  10.380  21.812   6.267
 3486POPC   C2B46160  10.112  21.858   6.664
 3486POPC   C3B46161  10.189  22.024   7.106
 3486POPC   C4B46162  10.435  21.939   7.512
 3487POPC   NC346163  29.229  14.019   5.379
 3487POPC   PO446164  28.836  13.400   5.436
 3487POPC   GL146165  28.999  13.693   5.697
 3487POPC   GL246166  29.315  13.493   5.700
 3487POPC   C1A46167  28.938  13.893   6.103
 3487POPC   D2A46168  29.230  13.919   6.444
 3487POPC   C3A46169  29.030  13.842   6.816
 3487POPC   C4A46170  29.164  13.997   7.162
 3487POPC   C1B46171  29.149  13.411   6.101
 3487POPC   C2B46172  29.100  13.403   6.531
 3487POPC   C3B46173  29.322  13.390   6.907
 3487POPC   C4B46174  29.078  13.482   7.254
 3488POPC   NC346175  18.277  27.190   5.376
 3488POPC   PO446176  18.248  26.544   5.398
 3488POPC   GL146177  18.413  26.825   5.739
 3488POPC   GL246178  18.202  27.092   5.894
 3488POPC   C1A46179  18.449  26.764   6.199
 3488POPC   D2A46180  18.310  26.761   6.608
 3488POPC   C3A46181  18.558  26.744   6.959
 3488POPC   C4A46182  18.503  26.677   7.417
 3488POPC   C1B46183  17.946  26.940   6.274
 3488POPC   C2B46184  17.855  26.951   6.738
 3488POPC   C3B46185  18.037  26.869   7.159
 3488POPC   C4B46186  17.764  26.930   7.551
 3489POPC   NC346187  13.855  27.664   5.465
 3489POPC   PO446188  13.283  27.310   5.505
 3489POPC   GL146189  13.551  27.454   5.851
 3489POPC   GL246190  13.581  27.819   5.867
 3489POPC   C1A46191  13.547  27.562   6.299
 3489POPC   D2A46192  13.239  27.608   6.602
 3489POPC   C3A46193  13.349  27.725   7.006
 3489POPC   C4A46194  13.423  27.425   7.301
 3489POPC   C1B46195  13.958  27.849   6.154
 3489POPC   C2B46196  13.908  27.766   6.612
 3489POPC   C3B46197  13.842  27.864   7.061
 3489POPC   C4B46198  13.952  27.674   7.448
 3490POPC   NC346199  44.373  43.826   5.621
 3490POPC   PO446200  43.790  43.966   5.261
 3490POPC   GL146201  43.797  44.118   5.729
 3490POPC   GL246202  44.117  44.149   5.948
 3490POPC   C1A46203  43.688  43.929   6.139
 3490POPC   D2A46204  43.743  43.736   6.560
 3490POPC   C3A46205  43.797  43.970   6.955
 3490POPC   C4A46206  43.459  43.785   7.174
 3490POPC   C1B46207  44.169  43.800   6.292
 3490POPC   C2B46208  44.246  43.789   6.761
 3490POPC   C3B46209  44.342  43.598   7.177
 3490POPC   C4B46210  44.136  43.257   7.400
 3491POPC   NC346211  12.898   6.013   5.135
 3491POPC   PO446212  13.024   5.440   5.475
 3491POPC   GL146213  12.884   5.750   5.792
 3491POPC   GL246214  12.978   6.091   5.841
 3491POPC   C1A46215  13.037   5.731   6.219
 3491POPC   D2A46216  12.874   5.485   6.573
 3491POPC   C3A46217  12.885   5.731   6.925
 3491POPC   C4A46218  13.074   5.819   7.280
 3491POPC   C1B46219  12.678   6.099   6.247
 3491POPC   C2B46220  12.751   6.213   6.712
 3491POPC   C3B46221  12.992   6.297   7.121
 3491POPC   C4B46222  13.087   6.259   7.574
 3492POPC   NC346223   2.740   7.073   5.294
 3492POPC   PO446224   2.895   7.728   5.324
 3492POPC   GL146225   2.738   7.442   5.681
 3492POPC   GL246226   2.993   7.452   5.968
 3492POPC   C1A46227   2.576   7.214   6.094
 3492POPC   D2A46228   2.742   7.396   6.475
 3492POPC   C3A46229   2.665   7.308   6.905
 3492POPC   C4A46230   2.662   7.555   7.261
 3492POPC   C1B46231   3.248   7.372   6.364
 3492POPC   C2B46232   3.183   7.472   6.832
 3492POPC   C3B46233   3.098   7.306   7.254
 3492POPC   C4B46234   2.745   7.041   7.370
 3493POPC   NC346235  44.522  21.379   5.400
 3493POPC   PO446236   0.142  21.483   5.149
 3493POPC   GL146237  44.997  21.458   5.635
 3493POPC   GL246238  44.824  21.154   5.745
 3493POPC   C1A46239  44.712  21.529   6.055
 3493POPC   D2A46240  44.507  21.778   6.415
 3493POPC   C3A46241  44.447  21.620   6.834
 3493POPC   C4A46242  44.772  21.499   7.135
 3493POPC   C1B46243  44.752  21.042   6.180
 3493POPC   C2B46244  44.836  21.252   6.591
 3493POPC   C3B46245  44.920  21.025   6.997
 3493POPC   C4B46246  44.741  21.047   7.416
 3494POPC   NC346247  43.616  31.729   5.539
 3494POPC   PO446248  43.683  31.131   5.231
 3494POPC   GL146249  43.828  31.252   5.641
 3494POPC   GL246250  44.110  31.474   5.731
 3494POPC   C1A46251  43.688  31.291   6.066
 3494POPC   D2A46252  43.778  31.186   6.506
 3494POPC   C3A46253  43.636  31.492   6.824
 3494POPC   C4A46254  43.785  31.349   7.228
 3494POPC   C1B46255  44.120  31.519   6.207
 3494POPC   C2B46256  44.116  31.572   6.657
 3494POPC   C3B46257  44.024  31.776   7.053
 3494POPC   C4B46258  44.287  31.553   7.364
 3495POPC   NC346259  32.704  29.776   5.560
 3495POPC   PO446260  32.082  29.747   5.209
 3495POPC   GL146261  32.155  29.899   5.646
 3495POPC   GL246262  32.264  29.615   5.839
 3495POPC   C1A46263  32.027  29.983   6.101
 3495POPC   D2A46264  32.107  29.754   6.494
 3495POPC   C3A46265  32.153  29.957   6.899
 3495POPC   C4A46266  32.120  30.015   7.344
 3495POPC   C1B46267  32.531  29.684   6.206
 3495POPC   C2B46268  32.580  29.919   6.601
 3495POPC   C3B46269  32.606  29.790   7.039
 3495POPC   C4B46270  32.589  29.860   7.464
 3496POPC   NC346271   5.024  19.248   5.337
 3496POPC   PO446272   5.488  18.831   5.270
 3496POPC   GL146273   5.326  18.919   5.733
 3496POPC   GL246274   4.948  19.010   5.789
 3496POPC   C1A46275   5.244  19.035   6.210
 3496POPC   D2A46276   4.964  18.979   6.600
 3496POPC   C3A46277   5.245  19.059   6.959
 3496POPC   C4A46278   5.581  19.361   6.997
 3496POPC   C1B46279   4.817  19.320   6.134
 3496POPC   C2B46280   4.635  19.417   6.564
 3496POPC   C3B46281   4.729  19.316   7.017
 3496POPC   C4B46282   4.830  19.513   7.432
 3497POPC   NC346283   4.072  24.737   5.388
 3497POPC   PO446284   4.306  24.121   5.394
 3497POPC   GL146285   4.245  24.403   5.760
 3497POPC   GL246286   4.429  24.712   5.783
 3497POPC   C1A46287   4.340  24.386   6.209
 3497POPC   D2A46288   4.071  24.338   6.566
 3497POPC   C3A46289   4.291  24.347   6.948
 3497POPC   C4A46290   4.156  24.302   7.377
 3497POPC   C1B46291   4.126  24.855   6.087
 3497POPC   C2B46292   4.254  24.833   6.522
 3497POPC   C3B46293   4.577  24.798   6.830
 3497POPC   C4B46294   4.544  24.709   7.258
 3498POPC   NC346295  12.791  22.225   5.126
 3498POPC   PO446296  13.177  22.247   5.687
 3498POPC   GL146297  12.785  22.295   5.918
 3498POPC   GL246298  12.601  21.956   5.992
 3498POPC   C1A46299  12.700  22.478   6.330
 3498POPC   D2A46300  12.719  22.193   6.668
 3498POPC   C3A46301  12.735  22.357   7.063
 3498POPC   C4A46302  12.543  22.177   7.381
 3498POPC   C1B46303  12.946  21.969   6.271
 3498POPC   C2B46304  13.222  22.015   6.598
 3498POPC   C3B46305  13.105  22.017   7.029
 3498POPC   C4B46306  13.018  22.062   7.495
 3499POPC   NC346307  21.364  18.478   5.421
 3499POPC   PO446308  21.815  18.987   5.662
 3499POPC   GL146309  21.668  18.596   5.884
 3499POPC   GL246310  21.610  18.247   5.810
 3499POPC   C1A46311  21.351  18.404   6.205
 3499POPC   D2A46312  21.459  18.239   6.593
 3499POPC   C3A46313  21.323  18.517   6.916
 3499POPC   C4A46314  21.152  18.580   7.322
 3499POPC   C1B46315  21.749  18.004   6.190
 3499POPC   C2B46316  21.824  17.807   6.601
 3499POPC   C3B46317  21.603  17.929   6.986
 3499POPC   C4B46318  21.704  18.306   7.164
 3500POPC   NC346319  16.655   7.051   5.486
 3500POPC   PO446320  16.447   7.672   5.604
 3500POPC   GL146321  16.759   7.639   5.901
 3500POPC   GL246322  16.784   7.290   5.939
 3500POPC   C1A46323  16.925   7.651   6.303
 3500POPC   D2A46324  16.729   7.376   6.568
 3500POPC   C3A46325  16.506   7.619   6.857
 3500POPC   C4A46326  16.543   7.579   7.280
 3500POPC   C1B46327  17.053   7.090   6.255
 3500POPC   C2B46328  17.006   6.949   6.700
 3500POPC   C3B46329  16.908   7.261   7.044
 3500POPC   C4B46330  17.018   7.366   7.474
 3501POPC   NC346331  27.635  16.971   5.522
 3501POPC   PO446332  27.283  16.365   5.529
 3501POPC   GL146333  27.513  16.586   5.874
 3501POPC   GL246334  27.884  16.580   5.824
 3501POPC   C1A46335  27.512  16.557   6.318
 3501POPC   D2A46336  27.304  16.558   6.690
 3501POPC   C3A46337  27.413  16.882   6.969
 3501POPC   C4A46338  27.216  17.006   7.305
 3501POPC   C1B46339  27.983  16.731   6.254
 3501POPC   C2B46340  27.796  16.917   6.619
 3501POPC   C3B46341  27.924  16.983   7.052
 3501POPC   C4B46342  28.062  16.679   7.332
 3502POPC   NC346343   4.939   9.835   5.594
 3502POPC   PO446344   5.155  10.582   5.476
 3502POPC   GL146345   4.965  10.724   5.845
 3502POPC   GL246346   4.907  11.066   5.859
 3502POPC   C1A46347   4.731  10.715   6.243
 3502POPC   D2A46348   4.743  10.446   6.608
 3502POPC   C3A46349   5.107  10.487   6.889
 3502POPC   C4A46350   4.996  10.325   7.292
 3502POPC   C1B46351   5.275  10.993   6.140
 3502POPC   C2B46352   5.342  10.965   6.572
 3502POPC   C3B46353   5.045  10.993   6.910
 3502POPC   C4B46354   5.145  10.826   7.289
 3503POPC   NC346355  10.556  21.716   5.424
 3503POPC   PO446356  10.385  21.050   5.212
 3503POPC   GL146357  10.278  21.314   5.622
 3503POPC   GL246358  10.558  21.473   5.883
 3503POPC   C1A46359  10.150  21.259   6.061
 3503POPC   D2A46360  10.239  21.373   6.482
 3503POPC   C3A46361  10.609  21.446   6.711
 3503POPC   C4A46362  10.390  21.548   7.099
 3503POPC   C1B46363  10.851  21.795   6.058
 3503POPC   C2B46364  10.837  22.026   6.452
 3503POPC   C3B46365  10.694  21.921   6.882
 3503POPC   C4B46366  10.835  21.722   7.269
 3504POPC   NC346367  29.420  10.099   5.588
 3504POPC   PO446368  28.835   9.781   5.346
 3504POPC   GL146369  28.777   9.910   5.789
 3504POPC   GL246370  29.126   9.897   5.948
 3504POPC   C1A46371  28.747   9.802   6.255
 3504POPC   D2A46372  29.118   9.925   6.515
 3504POPC   C3A46373  29.029   9.922   6.943
 3504POPC   C4A46374  28.918   9.544   7.151
 3504POPC   C1B46375  29.467   9.672   6.174
 3504POPC   C2B46376  29.591   9.652   6.588
 3504POPC   C3B46377  29.412   9.580   6.958
 3504POPC   C4B46378  29.429   9.815   7.318
 3505POPC   NC346379  12.888  44.113   5.405
 3505POPC   PO446380  13.245  43.595   5.577
 3505POPC   GL146381  12.936  43.819   5.836
 3505POPC   GL246382  12.580  43.823   5.726
 3505POPC   C1A46383  12.883  43.735   6.261
 3505POPC   D2A46384  13.121  43.871   6.606
 3505POPC   C3A46385  12.907  43.751   6.955
 3505POPC   C4A46386  13.060  43.852   7.338
 3505POPC   C1B46387  12.468  44.009   6.090
 3505POPC   C2B46388  12.391  43.826   6.490
 3505POPC   C3B46389  12.429  44.025   6.893
 3505POPC   C4B46390  12.519  43.864   7.294
 3506POPC   NC346391   4.714  42.635   5.608
 3506POPC   PO446392   4.299  42.238   5.177
 3506POPC   GL146393   4.339  42.165   5.632
 3506POPC   GL246394   4.612  41.887   5.703
 3506POPC   C1A46395   4.292  42.256   6.085
 3506POPC   D2A46396   4.312  42.532   6.472
 3506POPC   C3A46397   4.099  42.376   6.854
 3506POPC   C4A46398   4.290  42.455   7.254
 3506POPC   C1B46399   4.773  41.974   6.133
 3506POPC   C2B46400   4.549  42.075   6.508
 3506POPC   C3B46401   4.524  42.093   6.952
 3506POPC   C4B46402   4.760  42.236   7.288
 3507POPC   NC346403   7.813  44.026   5.635
 3507POPC   PO446404   8.377  43.915   5.388
 3507POPC   GL146405   8.258  43.760   5.803
 3507POPC   GL246406   7.933  43.573   5.830
 3507POPC   C1A46407   8.391  43.939   6.207
 3507POPC   D2A46408   8.188  44.181   6.558
 3507POPC   C3A46409   8.309  44.015   6.970
 3507POPC   C4A46410   8.626  43.992   7.248
 3507POPC   C1B46411   7.911  43.769   6.256
 3507POPC   C2B46412   8.059  43.681   6.678
 3507POPC   C3B46413   7.900  43.714   7.096
 3507POPC   C4B46414   7.966  44.086   7.374
 3508POPC   NC346415  18.596  43.155   5.478
 3508POPC   PO446416  17.986  43.291   5.470
 3508POPC   GL146417  18.197  43.134   5.842
 3508POPC   GL246418  18.502  43.303   5.947
 3508POPC   C1A46419  18.317  42.914   6.245
 3508POPC   D2A46420  18.484  42.992   6.681
 3508POPC   C3A46421  18.160  43.065   7.021
 3508POPC   C4A46422  18.090  42.976   7.470
 3508POPC   C1B46423  18.272  43.431   6.283
 3508POPC   C2B46424  18.526  43.522   6.595
 3508POPC   C3B46425  18.574  43.388   7.022
 3508POPC   C4B46426  18.424  43.375   7.477
 3509POPC   NC346427  22.515   6.661   5.349
 3509POPC   PO446428  21.844   6.983   5.286
 3509POPC   GL146429  21.948   6.811   5.686
 3509POPC   GL246430  22.189   6.542   5.740
 3509POPC   C1A46431  21.848   6.780   6.117
 3509POPC   D2A46432  22.024   6.732   6.508
 3509POPC   C3A46433  21.887   6.958   6.835
 3509POPC   C4A46434  22.066   6.859   7.182
 3509POPC   C1B46435  22.156   6.363   6.165
 3509POPC   C2B46436  22.360   6.337   6.572
 3509POPC   C3B46437  22.422   6.571   6.957
 3509POPC   C4B46438  22.410   6.561   7.424
 3510POPC   NC346439  42.508  34.680   5.650
 3510POPC   PO446440  43.053  34.451   5.481
 3510POPC   GL146441  42.995  34.733   5.853
 3510POPC   GL246442  43.356  34.753   5.867
 3510POPC   C1A46443  42.718  34.810   6.257
 3510POPC   D2A46444  42.606  34.802   6.708
 3510POPC   C3A46445  42.886  34.543   6.976
 3510POPC   C4A46446  42.808  34.140   7.175
 3510POPC   C1B46447  43.397  34.549   6.279
 3510POPC   C2B46448  43.625  34.577   6.670
 3510POPC   C3B46449  43.490  34.653   7.081
 3510POPC   C4B46450  43.283  34.293   7.212
 3511POPC   NC346451  20.546  14.338   5.529
 3511POPC   PO446452  21.084  14.765   5.645
 3511POPC   GL146453  20.772  14.571   5.918
 3511POPC   GL246454  20.418  14.680   5.874
 3511POPC   C1A46455  20.564  14.238   6.174
 3511POPC   D2A46456  20.450  14.152   6.570
 3511POPC   C3A46457  20.704  14.367   6.898
 3511POPC   C4A46458  20.752  14.255   7.330
 3511POPC   C1B46459  20.269  14.625   6.280
 3511POPC   C2B46460  20.409  14.736   6.650
 3511POPC   C3B46461  20.171  14.746   6.984
 3511POPC   C4B46462  20.470  14.672   7.230
 3512POPC   NC346463  43.485  22.051   5.372
 3512POPC   PO446464  43.114  22.572   5.424
 3512POPC   GL146465  43.106  22.315   5.794
 3512POPC   GL246466  43.301  21.977   5.857
 3512POPC   C1A46467  43.075  22.307   6.238
 3512POPC   D2A46468  43.337  22.370   6.580
 3512POPC   C3A46469  43.144  22.300   6.956
 3512POPC   C4A46470  42.899  22.519   7.239
 3512POPC   C1B46471  43.271  21.819   6.306
 3512POPC   C2B46472  43.033  21.853   6.725
 3512POPC   C3B46473  42.963  21.892   7.214
 3512POPC   C4B46474  43.173  21.761   7.615
 3513POPC   NC346475  21.854  25.328   5.114
 3513POPC   PO446476  21.351  25.492   5.519
 3513POPC   GL146477  21.389  25.395   5.923
 3513POPC   GL246478  21.687  25.260   5.949
 3513POPC   C1A46479  21.338  25.164   6.319
 3513POPC   D2A46480  21.336  25.031   6.732
 3513POPC   C3A46481  21.229  25.188   7.103
 3513POPC   C4A46482  21.418  24.922   7.380
 3513POPC   C1B46483  21.693  25.539   6.321
 3513POPC   C2B46484  21.541  25.514   6.732
 3513POPC   C3B46485  21.610  25.532   7.162
 3513POPC   C4B46486  21.814  25.585   7.539
 3514POPC   NC346487   3.102   8.930   5.677
 3514POPC   PO446488   3.664   9.210   5.436
 3514POPC   GL146489   3.732   9.165   5.879
 3514POPC   GL246490   3.647   8.839   5.916
 3514POPC   C1A46491   3.563   9.409   6.245
 3514POPC   D2A46492   3.399   9.330   6.655
 3514POPC   C3A46493   3.730   9.187   6.963
 3514POPC   C4A46494   3.731   9.057   7.416
 3514POPC   C1B46495   3.391   8.922   6.295
 3514POPC   C2B46496   3.450   8.816   6.732
 3514POPC   C3B46497   3.389   8.759   7.161
 3514POPC   C4B46498   3.615   8.559   7.528
 3515POPC   NC346499  39.163  15.431   5.403
 3515POPC   PO446500  39.561  14.904   5.355
 3515POPC   GL146501  39.321  15.054   5.740
 3515POPC   GL246502  38.938  15.074   5.742
 3515POPC   C1A46503  39.207  15.048   6.186
 3515POPC   D2A46504  39.310  15.215   6.589
 3515POPC   C3A46505  39.263  14.922   6.969
 3515POPC   C4A46506  39.254  14.998   7.430
 3515POPC   C1B46507  38.754  15.320   6.093
 3515POPC   C2B46508  38.852  15.438   6.520
 3515POPC   C3B46509  38.960  15.337   6.950
 3515POPC   C4B46510  38.810  15.223   7.344
 3516POPC   NC346511   0.681   2.984   5.452
 3516POPC   PO446512   0.156   2.523   5.482
 3516POPC   GL146513   0.365   2.761   5.800
 3516POPC   GL246514   0.725   2.664   5.861
 3516POPC   C1A46515   0.342   2.634   6.219
 3516POPC   D2A46516   0.251   2.295   6.514
 3516POPC   C3A46517   0.445   2.419   6.904
 3516POPC   C4A46518   0.374   2.628   7.319
 3516POPC   C1B46519   0.784   2.905   6.228
 3516POPC   C2B46520   0.660   2.850   6.681
 3516POPC   C3B46521   0.855   2.721   7.100
 3516POPC   C4B46522   0.812   2.651   7.602
 3517POPC   NC346523  23.641  15.873   5.096
 3517POPC   PO446524  23.997  16.329   5.376
 3517POPC   GL146525  23.808  16.057   5.683
 3517POPC   GL246526  23.431  16.018   5.705
 3517POPC   C1A46527  23.939  15.924   6.107
 3517POPC   D2A46528  23.867  16.104   6.516
 3517POPC   C3A46529  23.833  15.920   6.929
 3517POPC   C4A46530  23.784  16.097   7.325
 3517POPC   C1B46531  23.266  15.968   6.148
 3517POPC   C2B46532  23.401  15.880   6.602
 3517POPC   C3B46533  23.432  15.635   6.992
 3517POPC   C4B46534  23.507  15.686   7.460
 3518POPC   NC346535  39.095  22.911   5.227
 3518POPC   PO446536  39.789  23.114   5.141
 3518POPC   GL146537  39.501  23.047   5.564
 3518POPC   GL246538  39.495  23.325   5.825
 3518POPC   C1A46539  39.293  22.878   6.005
 3518POPC   D2A46540  39.289  22.848   6.534
 3518POPC   C3A46541  39.079  22.629   6.923
 3518POPC   C4A46542  38.794  22.644   7.301
 3518POPC   C1B46543  39.508  23.250   6.280
 3518POPC   C2B46544  39.617  23.225   6.735
 3518POPC   C3B46545  39.322  23.318   7.081
 3518POPC   C4B46546  38.874  23.282   7.148
 3519POPC   NC346547  33.684  44.759   5.095
 3519POPC   PO446548  33.804  44.296   5.504
 3519POPC   GL146549  33.682  44.586   5.801
 3519POPC   GL246550  33.772  44.910   5.785
 3519POPC   C1A46551  33.804  44.514   6.223
 3519POPC   D2A46552  33.664  44.406   6.632
 3519POPC   C3A46553  33.911  44.544   6.920
 3519POPC   C4A46554  33.827  44.384   7.293
 3519POPC   C1B46555  33.628   0.001   6.204
 3519POPC   C2B46556  33.681  44.912   6.631
 3519POPC   C3B46557  33.554  44.876   7.054
 3519POPC   C4B46558  33.810   0.009   7.378
 3520POPC   NC346559  27.928   8.964   5.415
 3520POPC   PO446560  28.574   9.158   5.411
 3520POPC   GL146561  28.422   8.890   5.756
 3520POPC   GL246562  28.778   8.799   5.867
 3520POPC   C1A46563  28.148   8.768   6.112
 3520POPC   D2A46564  28.218   8.955   6.526
 3520POPC   C3A46565  28.222   8.808   6.946
 3520POPC   C4A46566  28.067   9.074   7.283
 3520POPC   C1B46567  28.661   8.957   6.268
 3520POPC   C2B46568  28.696   8.792   6.692
 3520POPC   C3B46569  28.732   8.674   7.125
 3520POPC   C4B46570  28.844   8.792   7.560
 3521POPC   NC346571  14.951  34.774   5.397
 3521POPC   PO446572  15.356  34.238   5.404
 3521POPC   GL146573  15.188  34.464   5.795
 3521POPC   GL246574  15.004  34.782   5.899
 3521POPC   C1A46575  15.301  34.568   6.249
 3521POPC   D2A46576  15.379  34.870   6.582
 3521POPC   C3A46577  15.294  34.753   7.028
 3521POPC   C4A46578  15.520  34.646   7.395
 3521POPC   C1B46579  14.918  34.939   6.331
 3521POPC   C2B46580  14.917  34.993   6.784
 3521POPC   C3B46581  14.770  34.696   7.101
 3521POPC   C4B46582  14.841  34.245   7.102
 3522POPC   NC346583   7.718  21.066   5.352
 3522POPC   PO446584   7.138  20.723   5.287
 3522POPC   GL146585   7.331  20.611   5.702
 3522POPC   GL246586   7.505  20.829   5.804
 3522POPC   C1A46587   7.105  20.612   6.120
 3522POPC   D2A46588   7.093  20.444   6.558
 3522POPC   C3A46589   7.141  20.757   6.849
 3522POPC   C4A46590   7.404  20.772   7.199
 3522POPC   C1B46591   7.605  20.622   6.227
 3522POPC   C2B46592   7.626  20.673   6.707
 3522POPC   C3B46593   7.885  20.676   7.093
 3522POPC   C4B46594   7.771  20.635   7.543
 3523POPC   NC346595  36.448  34.805   5.412
 3523POPC   PO446596  35.806  34.573   5.455
 3523POPC   GL146597  35.923  34.526   5.889
 3523POPC   GL246598  36.305  34.614   5.891
 3523POPC   C1A46599  36.002  34.667   6.315
 3523POPC   D2A46600  36.376  34.842   6.564
 3523POPC   C3A46601  36.240  34.774   6.979
 3523POPC   C4A46602  35.970  34.443   7.110
 3523POPC   C1B46603  36.435  34.394   6.290
 3523POPC   C2B46604  36.322  34.307   6.721
 3523POPC   C3B46605  36.508  34.343   7.140
 3523POPC   C4B46606  36.733  34.006   7.417
 3524POPC   NC346607  18.760  37.105   5.484
 3524POPC   PO446608  18.210  36.780   5.406
 3524POPC   GL146609  18.170  37.165   5.660
 3524POPC   GL246610  18.463  37.141   5.893
 3524POPC   C1A46611  18.032  37.328   6.066
 3524POPC   D2A46612  18.159  37.309   6.495
 3524POPC   C3A46613  18.049  37.174   6.924
 3524POPC   C4A46614  18.454  37.121   7.139
 3524POPC   C1B46615  18.639  37.162   6.315
 3524POPC   C2B46616  18.804  37.040   6.713
 3524POPC   C3B46617  18.811  36.759   7.078
 3524POPC   C4B46618  18.743  36.786   7.520
 3525POPC   NC346619  41.788   4.607   5.451
 3525POPC   PO446620  41.236   4.228   5.292
 3525POPC   GL146621  41.463   4.304   5.710
 3525POPC   GL246622  41.428   4.647   5.812
 3525POPC   C1A46623  41.724   4.280   6.115
 3525POPC   D2A46624  41.687   4.395   6.536
 3525POPC   C3A46625  41.878   4.299   6.921
 3525POPC   C4A46626  41.797   4.467   7.339
 3525POPC   C1B46627  41.260   4.554   6.214
 3525POPC   C2B46628  41.208   4.499   6.653
 3525POPC   C3B46629  41.377   4.328   6.995
 3525POPC   C4B46630  41.310   4.618   7.249
 3526POPC   NC346631   7.846  13.620   5.511
 3526POPC   PO446632   8.318  13.292   5.508
 3526POPC   GL146633   8.201  13.537   5.883
 3526POPC   GL246634   8.255  13.862   5.764
 3526POPC   C1A46635   7.986  13.760   6.229
 3526POPC   D2A46636   7.977  13.824   6.659
 3526POPC   C3A46637   8.306  13.569   6.854
 3526POPC   C4A46638   8.331  13.356   7.226
 3526POPC   C1B46639   8.478  13.879   6.178
 3526POPC   C2B46640   8.567  13.997   6.604
 3526POPC   C3B46641   8.321  14.065   6.976
 3526POPC   C4B46642   8.409  13.848   7.351
 3527POPC   NC346643   6.286  23.748   5.311
 3527POPC   PO446644   5.665  23.477   5.359
 3527POPC   GL146645   5.894  23.673   5.703
 3527POPC   GL246646   6.154  23.484   5.719
 3527POPC   C1A46647   5.945  23.838   6.142
 3527POPC   D2A46648   5.818  23.821   6.591
 3527POPC   C3A46649   5.974  23.811   7.064
 3527POPC   C4A46650   5.952  23.820   7.533
 3527POPC   C1B46651   6.365  23.524   6.077
 3527POPC   C2B46652   6.207  23.509   6.473
 3527POPC   C3B46653   6.294  23.440   6.890
 3527POPC   C4B46654   6.324  23.524   7.297
 3528POPC   NC346655   6.653  31.991   5.425
 3528POPC   PO446656   6.466  32.628   5.537
 3528POPC   GL146657   6.482  32.281   5.826
 3528POPC   GL246658   6.830  32.172   5.864
 3528POPC   C1A46659   6.527  32.239   6.264
 3528POPC   D2A46660   6.842  32.470   6.526
 3528POPC   C3A46661   6.757  32.427   6.971
 3528POPC   C4A46662   6.644  32.188   7.361
 3528POPC   C1B46663   6.988  31.989   6.263
 3528POPC   C2B46664   6.781  31.989   6.667
 3528POPC   C3B46665   6.576  31.847   6.999
 3528POPC   C4B46666   6.720  31.663   7.355
 3529POPC   NC346667  32.446  39.666   5.454
 3529POPC   PO446668  31.936  40.106   5.453
 3529POPC   GL146669  32.066  39.905   5.798
 3529POPC   GL246670  31.954  39.571   5.746
 3529POPC   C1A46671  32.219  40.083   6.185
 3529POPC   D2A46672  32.123  40.245   6.591
 3529POPC   C3A46673  32.354  40.191   6.949
 3529POPC   C4A46674  32.460  40.446   7.276
 3529POPC   C1B46675  32.096  39.570   6.195
 3529POPC   C2B46676  31.979  39.747   6.594
 3529POPC   C3B46677  32.147  39.720   7.036
 3529POPC   C4B46678  32.189  39.725   7.510
 3530POPC   NC346679  33.409  22.596   5.567
 3530POPC   PO446680  33.892  22.206   5.273
 3530POPC   GL146681  33.740  22.168   5.718
 3530POPC   GL246682  34.043  22.237   5.885
 3530POPC   C1A46683  33.680  22.046   6.187
 3530POPC   D2A46684  33.651  22.243   6.623
 3530POPC   C3A46685  33.707  21.966   6.974
 3530POPC   C4A46686  33.962  21.953   7.338
 3530POPC   C1B46687  33.991  22.456   6.293
 3530POPC   C2B46688  34.137  22.318   6.692
 3530POPC   C3B46689  34.013  22.406   7.097
 3530POPC   C4B46690  34.351  22.652   7.173
 3531POPC   NC346691  19.117   2.105   5.375
 3531POPC   PO446692  19.637   1.668   5.307
 3531POPC   GL146693  19.259   1.660   5.655
 3531POPC   GL246694  18.946   1.882   5.791
 3531POPC   C1A46695  19.307   1.753   6.114
 3531POPC   D2A46696  19.062   1.885   6.457
 3531POPC   C3A46697  19.076   1.687   6.878
 3531POPC   C4A46698  19.193   1.900   7.259
 3531POPC   C1B46699  18.956   2.270   6.060
 3531POPC   C2B46700  19.023   2.403   6.501
 3531POPC   C3B46701  18.859   2.164   6.859
 3531POPC   C4B46702  18.736   2.134   7.269
 3532POPC   NC346703  11.618  36.176   5.310
 3532POPC   PO446704  11.000  35.956   5.314
 3532POPC   GL146705  11.201  36.102   5.727
 3532POPC   GL246706  11.530  36.028   5.813
 3532POPC   C1A46707  11.188  36.130   6.198
 3532POPC   D2A46708  11.148  35.977   6.639
 3532POPC   C3A46709  11.167  36.300   6.971
 3532POPC   C4A46710  11.414  36.282   7.359
 3532POPC   C1B46711  11.670  35.823   6.189
 3532POPC   C2B46712  11.716  35.963   6.614
 3532POPC   C3B46713  11.535  35.927   7.010
 3532POPC   C4B46714  11.185  35.846   7.249
 3533POPC   NC346715  26.108  16.141   5.477
 3533POPC   PO446716  26.082  15.485   5.506
 3533POPC   GL146717  26.195  15.808   5.857
 3533POPC   GL246718  25.900  16.015   5.925
 3533POPC   C1A46719  26.283  16.089   6.266
 3533POPC   D2A46720  26.366  16.214   6.739
 3533POPC   C3A46721  26.230  16.006   7.141
 3533POPC   C4A46722  26.404  15.639   7.356
 3533POPC   C1B46723  25.722  16.147   6.322
 3533POPC   C2B46724  25.729  16.093   6.773
 3533POPC   C3B46725  25.655  16.120   7.211
 3533POPC   C4B46726  25.576  16.129   7.652
 3534POPC   NC346727  37.066  16.638   5.439
 3534POPC   PO446728  36.721  17.101   5.563
 3534POPC   GL146729  36.908  16.863   5.914
 3534POPC   GL246730  36.973  16.494   5.913
 3534POPC   C1A46731  36.770  16.837   6.354
 3534POPC   D2A46732  36.587  17.019   6.708
 3534POPC   C3A46733  36.803  16.840   7.042
 3534POPC   C4A46734  36.796  16.391   7.145
 3534POPC   C1B46735  37.139  16.498   6.299
 3534POPC   C2B46736  37.064  16.546   6.710
 3534POPC   C3B46737  37.262  16.566   7.085
 3534POPC   C4B46738  37.126  16.601   7.517
 3535POPC   NC346739  25.189  26.010   5.434
 3535POPC   PO446740  25.455  26.504   5.283
 3535POPC   GL146741  25.515  26.288   5.727
 3535POPC   GL246742  25.553  25.908   5.775
 3535POPC   C1A46743  25.247  26.189   6.108
 3535POPC   D2A46744  25.053  26.086   6.516
 3535POPC   C3A46745  25.195  26.227   6.883
 3535POPC   C4A46746  25.230  26.349   7.281
 3535POPC   C1B46747  25.485  25.716   6.163
 3535POPC   C2B46748  25.513  25.844   6.576
 3535POPC   C3B46749  25.635  25.726   6.955
 3535POPC   C4B46750  25.383  25.882   7.250
 3536POPC   NC346751  22.026  26.297   5.296
 3536POPC   PO446752  22.326  25.706   5.507
 3536POPC   GL146753  22.212  26.084   5.748
 3536POPC   GL246754  21.887  26.261   5.778
 3536POPC   C1A46755  22.227  26.224   6.169
 3536POPC   D2A46756  22.448  26.162   6.554
 3536POPC   C3A46757  22.209  26.075   6.898
 3536POPC   C4A46758  22.272  26.243   7.288
 3536POPC   C1B46759  21.740  26.019   6.110
 3536POPC   C2B46760  21.865  26.014   6.511
 3536POPC   C3B46761  21.702  25.979   6.906
 3536POPC   C4B46762  21.783  26.022   7.293
 3537POPC   NC346763  28.376   2.091   5.448
 3537POPC   PO446764  28.209   1.432   5.554
 3537POPC   GL146765  28.170   1.776   5.857
 3537POPC   GL246766  28.486   1.935   5.948
 3537POPC   C1A46767  28.168   1.867   6.338
 3537POPC   D2A46768  28.436   1.907   6.715
 3537POPC   C3A46769  28.254   2.190   7.043
 3537POPC   C4A46770  28.096   2.037   7.448
 3537POPC   C1B46771  28.790   1.821   6.289
 3537POPC   C2B46772  28.968   2.009   6.668
 3537POPC   C3B46773  28.774   2.116   7.057
 3537POPC   C4B46774  28.502   1.796   7.253
 3538POPC   NC346775  18.425   2.801   5.384
 3538POPC   PO446776  17.867   2.471   5.717
 3538POPC   GL146777  18.180   2.741   5.833
 3538POPC   GL246778  18.424   2.459   5.763
 3538POPC   C1A46779  18.139   2.916   6.258
 3538POPC   D2A46780  18.114   2.743   6.669
 3538POPC   C3A46781  18.302   3.007   6.953
 3538POPC   C4A46782  18.645   2.961   7.211
 3538POPC   C1B46783  18.435   2.499   6.197
 3538POPC   C2B46784  18.533   2.444   6.586
 3538POPC   C3B46785  18.492   2.518   7.011
 3538POPC   C4B46786  18.203   2.638   7.308
 3539POPC   NC346787  18.103  43.727   5.333
 3539POPC   PO446788  18.742  43.523   5.228
 3539POPC   GL146789  18.490  43.704   5.640
 3539POPC   GL246790  18.130  43.663   5.841
 3539POPC   C1A46791  18.524  43.827   6.086
 3539POPC   D2A46792  18.556  44.048   6.443
 3539POPC   C3A46793  18.285  43.917   6.788
 3539POPC   C4A46794  18.401  43.836   7.206
 3539POPC   C1B46795  18.028  43.936   6.265
 3539POPC   C2B46796  17.851  44.171   6.673
 3539POPC   C3B46797  17.871  43.981   7.094
 3539POPC   C4B46798  17.996  43.545   7.177
 3540POPC   NC346799  26.624  38.020   5.368
 3540POPC   PO446800  27.038  37.463   5.426
 3540POPC   GL146801  27.042  37.708   5.810
 3540POPC   GL246802  26.725  37.847   5.848
 3540POPC   C1A46803  26.994  37.585   6.239
 3540POPC   D2A46804  26.687  37.602   6.575
 3540POPC   C3A46805  26.886  37.531   6.963
 3540POPC   C4A46806  26.889  37.364   7.388
 3540POPC   C1B46807  26.838  38.061   6.228
 3540POPC   C2B46808  27.054  37.961   6.604
 3540POPC   C3B46809  27.001  38.029   7.029
 3540POPC   C4B46810  26.747  37.845   7.345
 3541POPC   NC346811  27.763  25.492   5.508
 3541POPC   PO446812  27.655  24.942   5.066
 3541POPC   GL146813  27.537  25.054   5.625
 3541POPC   GL246814  27.749  25.090   5.912
 3541POPC   C1A46815  27.326  25.075   6.146
 3541POPC   D2A46816  27.613  25.044   6.578
 3541POPC   C3A46817  27.520  25.247   7.001
 3541POPC   C4A46818  27.454  25.242   7.461
 3541POPC   C1B46819  27.677  25.440   6.260
 3541POPC   C2B46820  27.685  25.651   6.712
 3541POPC   C3B46821  27.853  25.588   7.170
 3541POPC   C4B46822  27.919  25.403   7.617
 3542POPC   NC346823  43.740   4.860   5.200
 3542POPC   PO446824  44.297   4.904   5.577
 3542POPC   GL146825  44.131   5.091   5.892
 3542POPC   GL246826  43.898   4.785   5.910
 3542POPC   C1A46827  44.110   5.221   6.312
 3542POPC   D2A46828  44.251   4.951   6.632
 3542POPC   C3A46829  44.082   5.042   7.009
 3542POPC   C4A46830  43.817   5.166   7.302
 3542POPC   C1B46831  43.820   4.805   6.348
 3542POPC   C2B46832  43.690   5.091   6.672
 3542POPC   C3B46833  43.456   5.394   6.920
 3542POPC   C4B46834  43.339   5.335   7.332
 3543POPC   NC346835  10.868  26.300   5.510
 3543POPC   PO446836  10.260  25.977   5.396
 3543POPC   GL146837  10.388  26.139   5.791
 3543POPC   GL246838  10.678  25.896   5.767
 3543POPC   C1A46839  10.367  26.313   6.231
 3543POPC   D2A46840  10.600  26.361   6.603
 3543POPC   C3A46841  10.379  26.415   6.976
 3543POPC   C4A46842  10.674  26.311   7.246
 3543POPC   C1B46843  10.465  25.717   6.092
 3543POPC   C2B46844  10.493  25.660   6.523
 3543POPC   C3B46845  10.544  25.910   6.873
 3543POPC   C4B46846  10.499  25.808   7.265
 3544POPC   NC346847  33.756  36.995   5.482
 3544POPC   PO446848  34.389  37.159   5.357
 3544POPC   GL146849  34.146  37.120   5.829
 3544POPC   GL246850  34.014  36.806   5.890
 3544POPC   C1A46851  34.062  37.061   6.323
 3544POPC   D2A46852  34.046  36.642   6.593
 3544POPC   C3A46853  33.959  36.742   7.011
 3544POPC   C4A46854  33.770  37.121   7.141
 3544POPC   C1B46855  33.691  36.725   6.223
 3544POPC   C2B46856  33.613  36.948   6.620
 3544POPC   C3B46857  33.361  36.891   6.980
 3544POPC   C4B46858  33.576  36.702   7.364
 3545POPC   NC346859  28.083  10.618   5.414
 3545POPC   PO446860  27.528  10.516   5.295
 3545POPC   GL146861  27.677  10.408   5.750
 3545POPC   GL246862  28.000  10.323   5.835
 3545POPC   C1A46863  27.627  10.276   6.232
 3545POPC   D2A46864  27.407  10.258   6.668
 3545POPC   C3A46865  27.524  10.396   7.110
 3545POPC   C4A46866  27.504  10.418   7.590
 3545POPC   C1B46867  28.145  10.314   6.230
 3545POPC   C2B46868  28.076  10.427   6.658
 3545POPC   C3B46869  28.030  10.574   7.089
 3545POPC   C4B46870  27.932  10.260   7.382
 3546POPC   NC346871  42.460  30.014   5.436
 3546POPC   PO446872  42.410  29.398   5.269
 3546POPC   GL146873  42.499  29.621   5.752
 3546POPC   GL246874  42.241  29.851   5.864
 3546POPC   C1A46875  42.419  29.545   6.242
 3546POPC   D2A46876  42.211  29.789   6.614
 3546POPC   C3A46877  42.171  29.677   7.078
 3546POPC   C4A46878  42.491  29.670   7.394
 3546POPC   C1B46879  42.632  29.981   6.129
 3546POPC   C2B46880  42.676  30.023   6.551
 3546POPC   C3B46881  42.572  29.989   6.978
 3546POPC   C4B46882  42.401  30.238   7.291
 3547POPC   NC346883  42.967   7.310   5.461
 3547POPC   PO446884  43.535   7.749   5.408
 3547POPC   GL146885  43.217   7.701   5.771
 3547POPC   GL246886  43.005   7.391   5.941
 3547POPC   C1A46887  43.307   7.658   6.228
 3547POPC   D2A46888  43.092   7.505   6.555
 3547POPC   C3A46889  43.230   7.354   6.910
 3547POPC   C4A46890  43.194   7.540   7.292
 3547POPC   C1B46891  42.725   7.260   6.293
 3547POPC   C2B46892  42.776   7.143   6.749
 3547POPC   C3B46893  42.816   7.208   7.211
 3547POPC   C4B46894  42.948   7.216   7.686
 3548POPC   NC346895  41.050  17.866   5.427
 3548POPC   PO446896  41.614  18.232   5.390
 3548POPC   GL146897  41.558  18.341   5.791
 3548POPC   GL246898  41.211  18.429   5.830
 3548POPC   C1A46899  41.724  18.273   6.190
 3548POPC   D2A46900  41.698  18.463   6.587
 3548POPC   C3A46901  41.665  18.177   6.880
 3548POPC   C4A46902  42.013  18.016   7.109
 3548POPC   C1B46903  41.291  18.563   6.249
 3548POPC   C2B46904  41.221  18.652   6.679
 3548POPC   C3B46905  41.477  18.628   7.043
 3548POPC   C4B46906  41.385  18.516   7.458
 3549POPC   NC346907  11.627  26.993   5.540
 3549POPC   PO446908  11.265  26.507   5.341
 3549POPC   GL146909  11.282  26.676   5.751
 3549POPC   GL246910  11.592  26.695   5.962
 3549POPC   C1A46911  11.094  26.767   6.129
 3549POPC   D2A46912  10.982  26.685   6.535
 3549POPC   C3A46913  11.087  26.472   6.912
 3549POPC   C4A46914  11.078  26.804   7.219
 3549POPC   C1B46915  11.512  26.760   6.420
 3549POPC   C2B46916  11.404  26.916   6.839
 3549POPC   C3B46917  11.640  27.086   7.217
 3549POPC   C4B46918  11.731  27.232   7.676
 3550POPC   NC346919  21.489  13.074   5.273
 3550POPC   PO446920  21.034  12.496   5.292
 3550POPC   GL146921  21.229  12.757   5.594
 3550POPC   GL246922  21.004  13.080   5.595
 3550POPC   C1A46923  21.279  12.710   6.054
 3550POPC   D2A46924  21.297  12.557   6.497
 3550POPC   C3A46925  21.479  12.761   6.861
 3550POPC   C4A46926  21.575  12.630   7.266
 3550POPC   C1B46927  20.950  13.106   6.075
 3550POPC   C2B46928  21.200  13.090   6.476
 3550POPC   C3B46929  21.101  13.094   6.924
 3550POPC   C4B46930  21.258  13.010   7.335
 3551POPC   NC346931  30.658   7.363   5.350
 3551POPC   PO446932  30.811   6.800   5.651
 3551POPC   GL146933  30.836   7.181   5.797
 3551POPC   GL246934  30.479   7.224   5.806
 3551POPC   C1A46935  30.795   7.287   6.207
 3551POPC   D2A46936  30.913   7.129   6.563
 3551POPC   C3A46937  30.643   7.257   6.849
 3551POPC   C4A46938  30.866   7.475   7.103
 3551POPC   C1B46939  30.357   7.555   6.104
 3551POPC   C2B46940  30.434   7.773   6.474
 3551POPC   C3B46941  30.461   7.768   6.928
 3551POPC   C4B46942  30.404   7.519   7.324
 3552POPC   NC346943  30.045  14.025   5.373
 3552POPC   PO446944  29.443  14.486   5.367
 3552POPC   GL146945  29.703  14.282   5.696
 3552POPC   GL246946  30.053  14.419   5.720
 3552POPC   C1A46947  29.777  14.439   6.142
 3552POPC   D2A46948  29.826  14.596   6.591
 3552POPC   C3A46949  29.906  14.458   7.023
 3552POPC   C4A46950  29.747  14.511   7.452
 3552POPC   C1B46951  30.275  14.471   6.153
 3552POPC   C2B46952  30.225  14.242   6.574
 3552POPC   C3B46953  30.105  14.001   6.961
 3552POPC   C4B46954  30.179  14.188   7.410
 3553POPC   NC346955  43.237  27.705   5.416
 3553POPC   PO446956  42.842  27.184   5.296
 3553POPC   GL146957  42.867  27.479   5.676
 3553POPC   GL246958  42.586  27.337   5.774
 3553POPC   C1A46959  43.009  27.655   6.087
 3553POPC   D2A46960  43.325  27.638   6.453
 3553POPC   C3A46961  43.260  27.796   6.878
 3553POPC   C4A46962  43.243  27.623   7.294
 3553POPC   C1B46963  42.741  27.200   6.173
 3553POPC   C2B46964  42.844  27.460   6.531
 3553POPC   C3B46965  42.968  27.392   6.939
 3553POPC   C4B46966  42.845  27.305   7.369
 3554POPC   NC346967  23.414   2.268   5.171
 3554POPC   PO446968  23.310   1.580   5.213
 3554POPC   GL146969  23.511   1.898   5.491
 3554POPC   GL246970  23.772   1.749   5.656
 3554POPC   C1A46971  23.547   2.158   5.896
 3554POPC   D2A46972  23.755   2.099   6.311
 3554POPC   C3A46973  23.718   2.269   6.727
 3554POPC   C4A46974  23.896   2.297   7.119
 3554POPC   C1B46975  23.874   1.638   6.084
 3554POPC   C2B46976  24.101   1.756   6.458
 3554POPC   C3B46977  23.968   1.828   6.875
 3554POPC   C4B46978  24.138   1.880   7.297
 3555POPC   NC346979  24.199   3.795   5.627
 3555POPC   PO446980  24.880   3.604   5.476
 3555POPC   GL146981  24.556   3.452   5.760
 3555POPC   GL246982  24.274   3.241   5.618
 3555POPC   C1A46983  24.525   3.596   6.182
 3555POPC   D2A46984  24.704   3.746   6.570
 3555POPC   C3A46985  24.531   3.543   6.911
 3555POPC   C4A46986  24.403   3.637   7.337
 3555POPC   C1B46987  24.253   3.155   6.065
 3555POPC   C2B46988  24.401   3.222   6.499
 3555POPC   C3B46989  24.192   3.166   6.883
 3555POPC   C4B46990  24.463   3.136   7.240
 3556POPC   NC346991  16.376  29.116   5.199
 3556POPC   PO446992  15.709  29.194   5.388
 3556POPC   GL146993  16.089  29.134   5.678
 3556POPC   GL246994  15.822  29.219   5.915
 3556POPC   C1A46995  16.246  28.976   6.095
 3556POPC   D2A46996  16.260  28.853   6.529
 3556POPC   C3A46997  16.256  29.104   6.913
 3556POPC   C4A46998  15.896  29.302   7.193
 3556POPC   C1B46999  15.769  29.028   6.318
 3556POPC   C2B47000  15.801  29.020   6.756
 3556POPC   C3B47001  15.873  28.811   7.154
 3556POPC   C4B47002  15.655  28.977   7.563
 3557POPC   NC347003   0.174  24.654   5.244
 3557POPC   PO447004   0.818  24.302   5.374
 3557POPC   GL147005   0.537  24.527   5.665
 3557POPC   GL247006   0.614  24.864   5.797
 3557POPC   C1A47007   0.408  24.477   6.102
 3557POPC   D2A47008   0.190  24.631   6.457
 3557POPC   C3A47009   0.369  24.484   6.853
 3557POPC   C4A47010   0.274  24.439   7.260
 3557POPC   C1B47011   0.859  24.748   6.121
 3557POPC   C2B47012   0.739  24.594   6.501
 3557POPC   C3B47013   0.868  24.577   6.898
 3557POPC   C4B47014   0.686  24.753   7.238
 3558POPC   NC347015  42.588  17.359   5.453
 3558POPC   PO447016  41.953  17.421   5.500
 3558POPC   GL147017  42.084  17.426   5.941
 3558POPC   GL247018  42.404  17.563   5.891
 3558POPC   C1A47019  42.188  17.646   6.357
 3558POPC   D2A47020  42.125  17.614   6.813
 3558POPC   C3A47021  42.337  17.640   7.209
 3558POPC   C4A47022  42.261  17.209   7.295
 3558POPC   C1B47023  42.628  17.443   6.241
 3558POPC   C2B47024  42.641  17.578   6.664
 3558POPC   C3B47025  42.664  17.325   7.019
 3558POPC   C4B47026  42.868  17.628   7.277
 3559POPC   NC347027   5.982  32.727   5.520
 3559POPC   PO447028   5.696  32.045   5.456
 3559POPC   GL147029   5.966  32.159   5.841
 3559POPC   GL247030   6.182  31.878   5.940
 3559POPC   C1A47031   5.988  32.378   6.271
 3559POPC   D2A47032   5.860  32.460   6.735
 3559POPC   C3A47033   5.603  32.199   7.044
 3559POPC   C4A47034   5.582  32.234   7.515
 3559POPC   C1B47035   6.031  31.871   6.365
 3559POPC   C2B47036   6.258  32.093   6.670
 3559POPC   C3B47037   6.260  32.309   7.038
 3559POPC   C4B47038   6.028  32.081   7.312
 3560POPC   NC347039  31.139   4.734   5.009
 3560POPC   PO447040  30.612   5.043   5.323
 3560POPC   GL147041  30.855   5.057   5.759
 3560POPC   GL247042  31.153   4.820   5.788
 3560POPC   C1A47043  30.701   5.062   6.220
 3560POPC   D2A47044  30.511   5.208   6.620
 3560POPC   C3A47045  30.668   5.061   7.023
 3560POPC   C4A47046  30.746   5.421   7.311
 3560POPC   C1B47047  31.202   5.112   6.167
 3560POPC   C2B47048  31.067   5.166   6.608
 3560POPC   C3B47049  31.132   5.222   7.050
 3560POPC   C4B47050  31.077   4.998   7.469
 3561POPC   NC347051  44.897  38.319   5.253
 3561POPC   PO447052  44.407  38.360   5.645
 3561POPC   GL147053  44.684  38.392   5.947
 3561POPC   GL247054  44.787  38.710   5.844
 3561POPC   C1A47055  44.607  38.578   6.337
 3561POPC   D2A47056  44.381  38.761   6.667
 3561POPC   C3A47057  44.614  38.599   7.011
 3561POPC   C4A47058  44.498  38.180   7.135
 3561POPC   C1B47059   0.107  38.622   6.179
 3561POPC   C2B47060   0.155  38.591   6.635
 3561POPC   C3B47061   0.129  38.760   7.058
 3561POPC   C4B47062  44.964  38.599   7.449
 3562POPC   NC347063  10.047  43.320   5.210
 3562POPC   PO447064   9.517  42.966   5.294
 3562POPC   GL147065   9.643  43.029   5.739
 3562POPC   GL247066   9.927  42.834   5.780
 3562POPC   C1A47067   9.806  43.217   6.156
 3562POPC   D2A47068   9.696  43.476   6.550
 3562POPC   C3A47069   9.610  43.277   6.981
 3562POPC   C4A47070   9.878  43.094   7.400
 3562POPC   C1B47071  10.058  42.770   6.217
 3562POPC   C2B47072   9.897  42.978   6.585
 3562POPC   C3B47073   9.828  42.815   6.980
 3562POPC   C4B47074   9.694  42.589   7.315
 3563POPC   NC347075  20.900  21.716   5.086
 3563POPC   PO447076  21.234  21.260   5.387
 3563POPC   GL147077  21.367  21.428   5.790
 3563POPC   GL247078  21.248  21.196   6.027
 3563POPC   C1A47079  21.503  21.637   6.187
 3563POPC   D2A47080  21.619  21.614   6.622
 3563POPC   C3A47081  21.453  21.769   7.009
 3563POPC   C4A47082  21.633  21.764   7.419
 3563POPC   C1B47083  21.705  21.078   6.109
 3563POPC   C2B47084  21.959  21.015   6.502
 3563POPC   C3B47085  21.684  21.100   6.841
 3563POPC   C4B47086  21.459  21.284   7.208
 3564POPC   NC347087  37.119  36.493   5.576
 3564POPC   PO447088  37.080  35.838   5.525
 3564POPC   GL147089  36.830  36.118   5.817
 3564POPC   GL247090  36.533  36.326   5.707
 3564POPC   C1A47091  36.940  36.144   6.277
 3564POPC   D2A47092  37.088  35.751   6.516
 3564POPC   C3A47093  37.268  35.851   6.913
 3564POPC   C4A47094  37.074  36.098   7.207
 3564POPC   C1B47095  36.431  36.264   6.145
 3564POPC   C2B47096  36.486  36.399   6.565
 3564POPC   C3B47097  36.546  36.339   7.000
 3564POPC   C4B47098  36.586  35.912   7.196
 3565POPC   NC347099  33.987  39.479   5.491
 3565POPC   PO447100  33.395  39.093   5.366
 3565POPC   GL147101  33.696  39.108   5.717
 3565POPC   GL247102  33.611  39.452   5.869
 3565POPC   C1A47103  33.846  38.865   6.098
 3565POPC   D2A47104  33.925  38.936   6.555
 3565POPC   C3A47105  33.702  38.881   6.959
 3565POPC   C4A47106  33.803  39.141   7.324
 3565POPC   C1B47107  33.586  39.276   6.304
 3565POPC   C2B47108  33.598  39.464   6.737
 3565POPC   C3B47109  33.533  39.572   7.196
 3565POPC   C4B47110  33.508  39.439   7.652
 3566POPC   NC347111  39.509   5.603   5.435
 3566POPC   PO447112  40.001   5.973   5.170
 3566POPC   GL147113  39.958   5.815   5.642
 3566POPC   GL247114  40.244   5.975   5.825
 3566POPC   C1A47115  39.984   5.605   6.089
 3566POPC   D2A47116  40.005   5.607   6.593
 3566POPC   C3A47117  40.040   5.800   7.067
 3566POPC   C4A47118  40.166   5.673   7.540
 3566POPC   C1B47119  40.217   6.041   6.303
 3566POPC   C2B47120  40.235   6.155   6.756
 3566POPC   C3B47121  39.981   6.320   7.094
 3566POPC   C4B47122  40.016   6.502   7.501
 3567POPC   NC347123  33.102  38.909   5.059
 3567POPC   PO447124  32.742  39.292   5.474
 3567POPC   GL147125  32.908  39.170   5.869
 3567POPC   GL247126  33.222  39.109   5.875
 3567POPC   C1A47127  32.932  39.021   6.287
 3567POPC   D2A47128  33.133  39.223   6.591
 3567POPC   C3A47129  33.267  39.139   6.964
 3567POPC   C4A47130  33.283  39.075   7.345
 3567POPC   C1B47131  33.162  39.507   6.157
 3567POPC   C2B47132  32.993  39.692   6.515
 3567POPC   C3B47133  33.121  39.628   6.909
 3567POPC   C4B47134  33.008  39.513   7.299
 3568POPC   NC347135  17.269   9.384   5.446
 3568POPC   PO447136  17.710   9.847   5.616
 3568POPC   GL147137  17.407   9.691   5.856
 3568POPC   GL247138  17.637   9.389   5.847
 3568POPC   C1A47139  17.401   9.888   6.277
 3568POPC   D2A47140  17.725  10.049   6.539
 3568POPC   C3A47141  17.719   9.930   6.949
 3568POPC   C4A47142  17.410   9.770   7.246
 3568POPC   C1B47143  17.469   9.366   6.265
 3568POPC   C2B47144  17.559   9.507   6.687
 3568POPC   C3B47145  17.771   9.434   7.083
 3568POPC   C4B47146  17.685   9.480   7.556
 3569POPC   NC347147  12.490  16.693   5.455
 3569POPC   PO447148  11.912  16.456   5.504
 3569POPC   GL147149  12.026  16.788   5.824
 3569POPC   GL247150  11.781  17.057   5.894
 3569POPC   C1A47151  12.014  16.839   6.298
 3569POPC   D2A47152  11.815  16.678   6.663
 3569POPC   C3A47153  12.083  16.763   7.000
 3569POPC   C4A47154  11.964  16.744   7.429
 3569POPC   C1B47155  11.877  17.329   6.292
 3569POPC   C2B47156  11.952  17.192   6.733
 3569POPC   C3B47157  12.034  17.235   7.181
 3569POPC   C4B47158  11.949  17.204   7.616
 3570POPC   NC347159  32.651  44.479   5.300
 3570POPC   PO447160  33.307  44.683   5.352
 3570POPC   GL147161  33.153  44.574   5.756
 3570POPC   GL247162  33.248  44.873   5.903
 3570POPC   C1A47163  32.818  44.679   6.107
 3570POPC   D2A47164  32.709  44.574   6.552
 3570POPC   C3A47165  32.841  44.802   6.952
 3570POPC   C4A47166  33.105  44.831   7.306
 3570POPC   C1B47167  33.306  44.584   6.252
 3570POPC   C2B47168  33.236  44.667   6.677
 3570POPC   C3B47169  33.316  44.410   7.042
 3570POPC   C4B47170  33.371  44.294   7.480
 3571POPC   NC347171  26.213   2.974   5.515
 3571POPC   PO447172  26.775   2.888   5.123
 3571POPC   GL147173  26.690   2.987   5.668
 3571POPC   GL247174  26.846   3.218   5.851
 3571POPC   C1A47175  26.812   2.802   6.163
 3571POPC   D2A47176  27.075   2.577   6.526
 3571POPC   C3A47177  26.975   2.541   6.991
 3571POPC   C4A47178  26.633   2.358   7.258
 3571POPC   C1B47179  27.048   3.244   6.232
 3571POPC   C2B47180  27.093   3.101   6.645
 3571POPC   C3B47181  26.818   3.019   6.981
 3571POPC   C4B47182  26.972   2.950   7.382
 3572POPC   NC347183  15.503  12.126   5.478
 3572POPC   PO447184  14.870  12.016   5.463
 3572POPC   GL147185  15.174  12.078   5.873
 3572POPC   GL247186  15.536  12.204   5.981
 3572POPC   C1A47187  15.201  12.096   6.355
 3572POPC   D2A47188  15.065  12.301   6.755
 3572POPC   C3A47189  15.231  12.062   7.101
 3572POPC   C4A47190  15.487  11.654   7.135
 3572POPC   C1B47191  15.498  12.507   6.330
 3572POPC   C2B47192  15.559  12.427   6.782
 3572POPC   C3B47193  15.659  12.306   7.190
 3572POPC   C4B47194  15.432  12.371   7.582
 3573POPC   NC347195  29.108   4.724   5.582
 3573POPC   PO447196  29.380   5.368   5.363
 3573POPC   GL147197  29.225   5.203   5.781
 3573POPC   GL247198  28.862   5.136   5.841
 3573POPC   C1A47199  29.308   5.308   6.211
 3573POPC   D2A47200  29.142   5.183   6.606
 3573POPC   C3A47201  29.342   5.360   6.952
 3573POPC   C4A47202  29.347   5.159   7.343
 3573POPC   C1B47203  28.578   5.060   6.232
 3573POPC   C2B47204  28.638   5.149   6.676
 3573POPC   C3B47205  28.875   5.019   7.095
 3573POPC   C4B47206  28.915   5.016   7.614
 3574POPC   NC347207  25.753  17.650   5.385
 3574POPC   PO447208  26.299  17.791   5.682
 3574POPC   GL147209  26.009  17.480   5.852
 3574POPC   GL247210  26.239  17.164   5.811
 3574POPC   C1A47211  25.850  17.562   6.296
 3574POPC   D2A47212  26.064  17.660   6.707
 3574POPC   C3A47213  25.875  17.675   7.115
 3574POPC   C4A47214  25.490  17.547   7.314
 3574POPC   C1B47215  26.305  17.318   6.236
 3574POPC   C2B47216  26.176  17.156   6.629
 3574POPC   C3B47217  26.296  17.315   7.052
 3574POPC   C4B47218  26.348  17.557   7.421
 3575POPC   NC347219  34.975  10.716   5.470
 3575POPC   PO447220  34.447  10.242   5.443
 3575POPC   GL147221  34.566  10.504   5.790
 3575POPC   GL247222  34.905  10.406   5.876
 3575POPC   C1A47223  34.309  10.708   6.151
 3575POPC   D2A47224  34.131  10.804   6.570
 3575POPC   C3A47225  34.349  10.741   6.978
 3575POPC   C4A47226  34.521  10.700   7.392
 3575POPC   C1B47227  34.838  10.685   6.227
 3575POPC   C2B47228  34.762  10.700   6.682
 3575POPC   C3B47229  34.766  10.413   7.027
 3575POPC   C4B47230  34.978  10.243   7.376
 3576POPC   NC347231   3.750  32.661   5.432
 3576POPC   PO447232   3.639  33.345   5.391
 3576POPC   GL147233   3.872  33.122   5.730
 3576POPC   GL247234   3.925  33.450   5.867
 3576POPC   C1A47235   3.869  32.776   6.081
 3576POPC   D2A47236   3.780  32.649   6.517
 3576POPC   C3A47237   3.942  32.778   6.919
 3576POPC   C4A47238   3.724  33.052   7.223
 3576POPC   C1B47239   3.688  33.248   6.226
 3576POPC   C2B47240   3.653  33.169   6.690
 3576POPC   C3B47241   3.675  33.507   7.009
 3576POPC   C4B47242   3.884  33.529   7.407
 3577POPC   NC347243  28.940   2.004   5.348
 3577POPC   PO447244  29.686   1.961   5.536
 3577POPC   GL147245  29.282   2.067   5.739
 3577POPC   GL247246  29.024   1.859   5.829
 3577POPC   C1A47247  29.117   2.209   6.177
 3577POPC   D2A47248  29.403   2.219   6.463
 3577POPC   C3A47249  29.460   2.012   6.839
 3577POPC   C4A47250  29.274   2.077   7.219
 3577POPC   C1B47251  29.405   1.786   6.153
 3577POPC   C2B47252  29.456   1.575   6.560
 3577POPC   C3B47253  29.386   1.542   7.011
 3577POPC   C4B47254  28.960   1.646   7.093
 3578POPC   NC347255   4.663  11.842   5.433
 3578POPC   PO447256   5.369  11.950   5.388
 3578POPC   GL147257   5.309  11.984   5.814
 3578POPC   GL247258   4.954  12.044   5.841
 3578POPC   C1A47259   5.262  12.223   6.205
 3578POPC   D2A47260   5.130  12.326   6.633
 3578POPC   C3A47261   5.221  12.011   6.971
 3578POPC   C4A47262   5.477  11.912   7.347
 3578POPC   C1B47263   4.744  12.120   6.248
 3578POPC   C2B47264   4.707  12.041   6.695
 3578POPC   C3B47265   4.747  12.039   7.154
 3578POPC   C4B47266   5.108  12.239   7.434
 3579POPC   NC347267  43.620  37.372   5.295
 3579POPC   PO447268  44.265  37.400   5.404
 3579POPC   GL147269  44.012  37.632   5.715
 3579POPC   GL247270  43.648  37.743   5.656
 3579POPC   C1A47271  43.853  37.557   6.156
 3579POPC   D2A47272  43.683  37.628   6.578
 3579POPC   C3A47273  44.004  37.684   6.898
 3579POPC   C4A47274  44.212  37.337   7.134
 3579POPC   C1B47275  43.486  37.922   6.045
 3579POPC   C2B47276  43.661  38.129   6.439
 3579POPC   C3B47277  43.570  38.021   6.885
 3579POPC   C4B47278  43.821  37.999   7.252
 3580POPC   NC347279  42.997  17.910   5.469
 3580POPC   PO447280  43.321  18.479   5.458
 3580POPC   GL147281  43.074  18.324   5.759
 3580POPC   GL247282  42.793  18.468   5.634
 3580POPC   C1A47283  43.114  18.134   6.159
 3580POPC   D2A47284  43.207  18.181   6.575
 3580POPC   C3A47285  42.955  17.959   6.856
 3580POPC   C4A47286  43.098  18.095   7.236
 3580POPC   C1B47287  42.791  18.529   6.121
 3580POPC   C2B47288  42.723  18.405   6.542
 3580POPC   C3B47289  42.901  18.483   6.922
 3580POPC   C4B47290  42.779  18.511   7.313
 3581POPC   NC347291   9.297  44.873   5.321
 3581POPC   PO447292   8.787  44.480   5.483
 3581POPC   GL147293   8.681  44.570   5.922
 3581POPC   GL247294   8.887  44.887   5.905
 3581POPC   C1A47295   8.668  44.665   6.397
 3581POPC   D2A47296   8.893  44.950   6.704
 3581POPC   C3A47297   8.931  44.805   7.138
 3581POPC   C4A47298   8.930  44.447   7.404
 3581POPC   C1B47299   9.139  44.605   6.167
 3581POPC   C2B47300   9.161  44.457   6.608
 3581POPC   C3B47301   9.308  44.397   7.050
 3581POPC   C4B47302   9.398  44.684   7.391
 3582POPC   NC347303  36.353  41.533   5.435
 3582POPC   PO447304  35.740  41.622   5.135
 3582POPC   GL147305  35.809  41.471   5.624
 3582POPC   GL247306  36.102  41.582   5.852
 3582POPC   C1A47307  35.723  41.379   6.095
 3582POPC   D2A47308  35.783  41.498   6.531
 3582POPC   C3A47309  36.180  41.699   6.678
 3582POPC   C4A47310  36.361  41.738   7.110
 3582POPC   C1B47311  36.253  41.335   6.200
 3582POPC   C2B47312  36.214  41.183   6.609
 3582POPC   C3B47313  35.964  41.269   6.965
 3582POPC   C4B47314  36.274  41.211   7.230
 3583POPC   NC347315  43.571  33.139   5.116
 3583POPC   PO447316  42.947  33.101   5.368
 3583POPC   GL147317  43.033  33.006   5.808
 3583POPC   GL247318  42.869  32.703   5.826
 3583POPC   C1A47319  43.256  33.243   6.172
 3583POPC   D2A47320  43.376  33.366   6.577
 3583POPC   C3A47321  43.138  33.352   6.977
 3583POPC   C4A47322  43.263  33.288   7.422
 3583POPC   C1B47323  42.944  32.868   6.274
 3583POPC   C2B47324  43.125  32.912   6.692
 3583POPC   C3B47325  43.142  32.859   7.135
 3583POPC   C4B47326  42.925  32.722   7.493
 3584POPC   NC347327  19.108  17.468   5.339
 3584POPC   PO447328  19.305  16.832   5.361
 3584POPC   GL147329  19.373  17.114   5.766
 3584POPC   GL247330  19.271  17.487   5.826
 3584POPC   C1A47331  19.279  17.213   6.239
 3584POPC   D2A47332  19.283  17.571   6.508
 3584POPC   C3A47333  19.307  17.459   6.922
 3584POPC   C4A47334  19.095  17.325   7.277
 3584POPC   C1B47335  18.928  17.617   6.135
 3584POPC   C2B47336  18.815  17.770   6.587
 3584POPC   C3B47337  18.886  17.761   7.042
 3584POPC   C4B47338  19.051  18.063   7.354
 3585POPC   NC347339   2.044  22.570   5.471
 3585POPC   PO447340   2.010  21.912   5.516
 3585POPC   GL147341   2.027  22.205   5.855
 3585POPC   GL247342   1.720  22.321   6.045
 3585POPC   C1A47343   2.163  22.157   6.267
 3585POPC   D2A47344   1.986  22.038   6.646
 3585POPC   C3A47345   2.105  22.315   6.958
 3585POPC   C4A47346   1.747  22.468   7.192
 3585POPC   C1B47347   1.552  22.043   6.368
 3585POPC   C2B47348   1.501  22.073   6.816
 3585POPC   C3B47349   1.788  21.954   7.134
 3585POPC   C4B47350   2.205  21.810   7.061
 3586POPC   NC347351  37.003  12.161   5.283
 3586POPC   PO447352  36.370  11.854   5.428
 3586POPC   GL147353  36.628  11.769   5.816
 3586POPC   GL247354  37.026  11.780   5.779
 3586POPC   C1A47355  36.751  11.978   6.199
 3586POPC   D2A47356  36.926  11.888   6.598
 3586POPC   C3A47357  36.685  11.974   6.968
 3586POPC   C4A47358  36.609  12.262   7.308
 3586POPC   C1B47359  37.315  11.749   6.183
 3586POPC   C2B47360  37.424  11.786   6.655
 3586POPC   C3B47361  37.232  12.026   7.036
 3586POPC   C4B47362  37.070  12.096   7.476
 3587POPC   NC347363  32.004  24.033   5.565
 3587POPC   PO447364  32.359  23.517   5.425
 3587POPC   GL147365  32.283  23.698   5.856
 3587POPC   GL247366  31.990  23.830   6.013
 3587POPC   C1A47367  32.414  23.914   6.250
 3587POPC   D2A47368  32.378  23.703   6.634
 3587POPC   C3A47369  32.540  23.859   6.968
 3587POPC   C4A47370  32.517  23.715   7.333
 3587POPC   C1B47371  32.053  23.506   6.285
 3587POPC   C2B47372  31.896  23.565   6.688
 3587POPC   C3B47373  32.100  23.512   7.078
 3587POPC   C4B47374  32.044  23.697   7.474
 3588POPC   NC347375  19.629   2.943   5.686
 3588POPC   PO447376  20.140   2.517   5.466
 3588POPC   GL147377  20.064   2.689   5.881
 3588POPC   GL247378  19.760   2.505   5.896
 3588POPC   C1A47379  19.852   2.812   6.301
 3588POPC   D2A47380  19.959   3.103   6.681
 3588POPC   C3A47381  19.968   2.994   7.138
 3588POPC   C4A47382  20.030   3.009   7.615
 3588POPC   C1B47383  19.431   2.488   6.203
 3588POPC   C2B47384  19.526   2.408   6.630
 3588POPC   C3B47385  19.840   2.572   6.902
 3588POPC   C4B47386  19.739   2.614   7.363
 3589POPC   NC347387   1.320   2.219   5.368
 3589POPC   PO447388   1.387   1.542   5.418
 3589POPC   GL147389   1.306   1.838   5.761
 3589POPC   GL247390   0.987   2.076   5.742
 3589POPC   C1A47391   1.488   1.789   6.188
 3589POPC   D2A47392   1.328   1.849   6.612
 3589POPC   C3A47393   1.581   2.026   6.957
 3589POPC   C4A47394   1.229   1.972   7.194
 3589POPC   C1B47395   1.184   2.200   6.161
 3589POPC   C2B47396   1.451   2.326   6.546
 3589POPC   C3B47397   1.281   2.460   6.957
 3589POPC   C4B47398   1.215   2.426   7.412
 3590POPC   NC347399  20.135  20.771   5.308
 3590POPC   PO447400  20.344  20.198   5.504
 3590POPC   GL147401  20.625  20.413   5.791
 3590POPC   GL247402  20.603  20.799   5.724
 3590POPC   C1A47403  20.781  20.261   6.196
 3590POPC   D2A47404  21.046  20.414   6.519
 3590POPC   C3A47405  20.866  20.470   6.919
 3590POPC   C4A47406  20.756  20.866   7.200
 3590POPC   C1B47407  20.537  20.729   6.178
 3590POPC   C2B47408  20.426  20.492   6.547
 3590POPC   C3B47409  20.388  20.612   6.986
 3590POPC   C4B47410  20.587  20.421   7.386
 3591POPC   NC347411  10.702  35.643   5.132
 3591POPC   PO447412  10.497  35.453   5.669
 3591POPC   GL147413  10.441  35.269   6.025
 3591POPC   GL247414  10.179  35.022   5.989
 3591POPC   C1A47415  10.702  35.258   6.367
 3591POPC   D2A47416  10.647  35.173   6.776
 3591POPC   C3A47417  10.656  35.438   7.132
 3591POPC   C4A47418  10.736  35.219   7.546
 3591POPC   C1B47419  10.229  35.014   6.410
 3591POPC   C2B47420  10.029  35.019   6.791
 3591POPC   C3B47421  10.233  35.153   7.128
 3591POPC   C4B47422  10.227  35.579   7.369
 3592POPC   NC347423  14.119  19.493   5.369
 3592POPC   PO447424  14.531  19.948   5.263
 3592POPC   GL147425  14.323  19.961   5.707
 3592POPC   GL247426  14.160  19.626   5.859
 3592POPC   C1A47427  14.068  20.064   6.098
 3592POPC   D2A47428  14.103  19.869   6.506
 3592POPC   C3A47429  14.057  20.126   6.867
 3592POPC   C4A47430  14.135  19.915   7.233
 3592POPC   C1B47431  14.494  19.725   6.170
 3592POPC   C2B47432  14.625  19.706   6.614
 3592POPC   C3B47433  14.554  19.661   7.072
 3592POPC   C4B47434  14.705  19.387   7.420
 3593POPC   NC347435  41.189  26.725   5.593
 3593POPC   PO447436  40.600  26.694   5.534
 3593POPC   GL147437  40.823  26.815   5.919
 3593POPC   GL247438  40.896  27.135   5.784
 3593POPC   C1A47439  40.748  26.912   6.345
 3593POPC   D2A47440  40.745  26.633   6.681
 3593POPC   C3A47441  40.623  26.837   7.029
 3593POPC   C4A47442  40.977  26.776   7.196
 3593POPC   C1B47443  41.164  27.171   6.128
 3593POPC   C2B47444  41.275  27.288   6.525
 3593POPC   C3B47445  41.109  27.227   6.950
 3593POPC   C4B47446  41.357  27.075   7.283
 3594POPC   NC347447  43.229  38.850   5.523
 3594POPC   PO447448  42.950  39.385   5.134
 3594POPC   GL147449  43.066  39.338   5.632
 3594POPC   GL247450  43.380  39.191   5.859
 3594POPC   C1A47451  42.934  39.304   6.083
 3594POPC   D2A47452  43.132  39.303   6.494
 3594POPC   C3A47453  42.987  39.159   6.912
 3594POPC   C4A47454  42.972  39.180   7.379
 3594POPC   C1B47455  43.627  39.228   6.259
 3594POPC   C2B47456  43.589  39.432   6.675
 3594POPC   C3B47457  43.434  39.322   7.079
 3594POPC   C4B47458  43.389  39.493   7.488
 3595POPC   NC347459   9.702  36.665   5.452
 3595POPC   PO447460  10.075  37.107   5.172
 3595POPC   GL147461   9.950  37.076   5.632
 3595POPC   GL247462   9.928  36.741   5.889
 3595POPC   C1A47463   9.788  37.188   6.039
 3595POPC   D2A47464   9.905  37.033   6.448
 3595POPC   C3A47465   9.777  37.216   6.845
 3595POPC   C4A47466   9.538  37.030   7.200
 3595POPC   C1B47467   9.632  36.647   6.227
 3595POPC   C2B47468   9.487  36.801   6.650
 3595POPC   C3B47469   9.820  36.706   6.932
 3595POPC   C4B47470   9.735  36.486   7.281
 3596POPC   NC347471  33.235   2.379   5.193
 3596POPC   PO447472  33.029   3.075   5.165
 3596POPC   GL147473  33.004   2.914   5.623
 3596POPC   GL247474  33.014   2.556   5.730
 3596POPC   C1A47475  32.937   2.910   6.092
 3596POPC   D2A47476  32.866   2.660   6.490
 3596POPC   C3A47477  33.011   2.838   6.907
 3596POPC   C4A47478  32.766   2.709   7.257
 3596POPC   C1B47479  33.244   2.456   6.140
 3596POPC   C2B47480  33.362   2.554   6.580
 3596POPC   C3B47481  33.416   2.521   7.017
 3596POPC   C4B47482  33.292   2.732   7.385
 3597POPC   NC347483  10.843  30.977   5.575
 3597POPC   PO447484  10.302  30.559   5.380
 3597POPC   GL147485  10.476  30.697   5.804
 3597POPC   GL247486  10.842  30.560   5.861
 3597POPC   C1A47487  10.560  30.694   6.263
 3597POPC   D2A47488  10.813  30.937   6.573
 3597POPC   C3A47489  10.723  30.846   6.996
 3597POPC   C4A47490  10.332  30.727   7.149
 3597POPC   C1B47491  10.892  30.304   6.211
 3597POPC   C2B47492  10.830  30.404   6.648
 3597POPC   C3B47493  10.625  30.328   7.013
 3597POPC   C4B47494  10.718  30.045   7.336
 3598POPC   NC347495  37.263  18.900   5.503
 3598POPC   PO447496  37.706  19.284   5.242
 3598POPC   GL147497  37.655  19.229   5.688
 3598POPC   GL247498  37.373  19.381   5.734
 3598POPC   C1A47499  37.595  19.101   6.155
 3598POPC   D2A47500  37.840  18.885   6.478
 3598POPC   C3A47501  37.646  18.928   6.865
 3598POPC   C4A47502  37.735  18.880   7.281
 3598POPC   C1B47503  37.449  19.589   6.112
 3598POPC   C2B47504  37.653  19.558   6.535
 3598POPC   C3B47505  37.489  19.414   6.928
 3598POPC   C4B47506  37.635  19.399   7.337
 3599POPC   NC347507  37.470  35.733   5.288
 3599POPC   PO447508  37.665  36.413   5.391
 3599POPC   GL147509  37.656  36.331   5.789
 3599POPC   GL247510  37.788  35.985   5.732
 3599POPC   C1A47511  37.513  36.433   6.201
 3599POPC   D2A47512  37.473  36.154   6.536
 3599POPC   C3A47513  37.458  36.340   6.925
 3599POPC   C4A47514  37.589  36.144   7.261
 3599POPC   C1B47515  37.929  36.083   6.153
 3599POPC   C2B47516  37.881  35.795   6.494
 3599POPC   C3B47517  37.861  35.894   6.915
 3599POPC   C4B47518  38.067  35.678   7.260
 3600POPC   NC347519  23.368   0.556   5.732
 3600POPC   PO447520  23.678   0.264   5.145
 3600POPC   GL147521  23.756   0.231   5.614
 3600POPC   GL247522  23.737  44.929   5.747
 3600POPC   C1A47523  23.814   0.316   6.099
 3600POPC   D2A47524  23.836   0.633   6.426
 3600POPC   C3A47525  23.596   0.581   6.797
 3600POPC   C4A47526  23.687   0.440   7.173
 3600POPC   C1B47527  23.664  44.857   6.166
 3600POPC   C2B47528  23.620   0.099   6.544
 3600POPC   C3B47529  23.779  44.992   6.929
 3600POPC   C4B47530  23.591  44.934   7.302
 3601POPC   NC347531   8.216  43.420   5.389
 3601POPC   PO447532   8.047  42.795   5.405
 3601POPC   GL147533   8.166  43.077   5.765
 3601POPC   GL247534   7.924  43.116   6.037
 3601POPC   C1A47535   8.399  42.955   6.144
 3601POPC   D2A47536   8.176  43.022   6.510
 3601POPC   C3A47537   8.190  42.808   6.843
 3601POPC   C4A47538   8.313  42.816   7.256
 3601POPC   C1B47539   8.278  43.427   6.220
 3601POPC   C2B47540   8.505  43.416   6.651
 3601POPC   C3B47541   8.372  43.484   7.110
 3601POPC   C4B47542   8.118  43.527   7.512
 3602POPC   NC347543  18.922  19.001   5.352
 3602POPC   PO447544  19.473  19.389   5.593
 3602POPC   GL147545  19.138  19.213   5.847
 3602POPC   GL247546  19.077  18.856   5.831
 3602POPC   C1A47547  18.996  19.143   6.301
 3602POPC   D2A47548  19.244  19.250   6.691
 3602POPC   C3A47549  19.120  19.063   7.111
 3602POPC   C4A47550  19.354  18.912   7.473
 3602POPC   C1B47551  19.147  18.667   6.260
 3602POPC   C2B47552  18.968  18.771   6.707
 3602POPC   C3B47553  18.764  18.713   7.156
 3602POPC   C4B47554  18.950  18.525   7.546
 3603POPC   NC347555  28.353  15.242   5.431
 3603POPC   PO447556  28.366  15.874   5.257
 3603POPC   GL147557  28.363  15.645   5.746
 3603POPC   GL247558  28.615  15.422   5.918
 3603POPC   C1A47559  28.166  15.389   6.149
 3603POPC   D2A47560  28.301  15.143   6.491
 3603POPC   C3A47561  28.368  15.379   6.877
 3603POPC   C4A47562  28.215  15.278   7.285
 3603POPC   C1B47563  28.726  15.009   6.181
 3603POPC   C2B47564  28.607  14.739   6.551
 3603POPC   C3B47565  28.548  14.910   6.930
 3603POPC   C4B47566  28.700  14.917   7.315
 3604POPC   NC347567  44.055   7.924   5.445
 3604POPC   PO447568  43.675   8.558   5.410
 3604POPC   GL147569  43.786   8.341   5.797
 3604POPC   GL247570  43.628   8.024   5.848
 3604POPC   C1A47571  44.007   8.434   6.191
 3604POPC   D2A47572  44.083   8.323   6.598
 3604POPC   C3A47573  43.761   8.335   6.878
 3604POPC   C4A47574  43.978   8.346   7.244
 3604POPC   C1B47575  43.658   8.081   6.309
 3604POPC   C2B47576  43.825   7.879   6.672
 3604POPC   C3B47577  43.940   7.853   7.099
 3604POPC   C4B47578  44.082   7.904   7.539
 3605POPC   NC347579  21.721  15.652   5.350
 3605POPC   PO447580  22.394  15.612   5.413
 3605POPC   GL147581  22.241  15.590   5.856
 3605POPC   GL247582  21.879  15.463   5.824
 3605POPC   C1A47583  22.204  15.399   6.282
 3605POPC   D2A47584  21.974  15.172   6.619
 3605POPC   C3A47585  22.240  15.115   7.002
 3605POPC   C4A47586  22.257  15.275   7.459
 3605POPC   C1B47587  21.707  15.494   6.235
 3605POPC   C2B47588  21.818  15.667   6.657
 3605POPC   C3B47589  21.880  15.476   7.063
 3605POPC   C4B47590  21.830  15.063   7.257
 3606POPC   NC347591  28.656  11.434   5.488
 3606POPC   PO447592  28.527  10.719   5.267
 3606POPC   GL147593  28.507  10.429   5.662
 3606POPC   GL247594  28.381  10.682   5.871
 3606POPC   C1A47595  28.670  10.312   6.098
 3606POPC   D2A47596  28.535  10.182   6.531
 3606POPC   C3A47597  28.505  10.374   6.961
 3606POPC   C4A47598  28.406  10.452   7.419
 3606POPC   C1B47599  28.439  10.712   6.340
 3606POPC   C2B47600  28.555  10.872   6.746
 3606POPC   C3B47601  28.497  10.886   7.178
 3606POPC   C4B47602  28.258  11.049   7.541
 3607POPC   NC347603  42.030   1.539   5.442
 3607POPC   PO447604  42.407   0.987   5.285
 3607POPC   GL147605  42.359   1.130   5.688
 3607POPC   GL247606  42.011   1.035   5.670
 3607POPC   C1A47607  42.589   1.026   6.112
 3607POPC   D2A47608  42.488   0.841   6.530
 3607POPC   C3A47609  42.585   1.102   6.891
 3607POPC   C4A47610  42.455   1.138   7.342
 3607POPC   C1B47611  42.098   1.122   6.130
 3607POPC   C2B47612  42.232   1.310   6.540
 3607POPC   C3B47613  42.093   1.188   6.984
 3607POPC   C4B47614  42.056   1.457   7.391
 3608POPC   NC347615  43.983  13.285   5.452
 3608POPC   PO447616  43.567  13.765   5.106
 3608POPC   GL147617  43.785  13.748   5.587
 3608POPC   GL247618  43.662  13.493   5.846
 3608POPC   C1A47619  43.901  13.951   6.053
 3608POPC   D2A47620  44.157  14.029   6.493
 3608POPC   C3A47621  44.050  13.989   6.981
 3608POPC   C4A47622  43.984  13.826   7.470
 3608POPC   C1B47623  43.877  13.479   6.239
 3608POPC   C2B47624  43.849  13.638   6.655
 3608POPC   C3B47625  43.846  13.538   7.083
 3608POPC   C4B47626  43.815  13.323   7.460
 3609POPC   NC347627  15.483  42.092   5.639
 3609POPC   PO447628  14.958  41.733   5.374
 3609POPC   GL147629  15.025  41.553   5.862
 3609POPC   GL247630  15.340  41.344   5.950
 3609POPC   C1A47631  14.910  41.554   6.343
 3609POPC   D2A47632  14.818  41.764   6.740
 3609POPC   C3A47633  15.003  41.599   7.122
 3609POPC   C4A47634  15.105  41.187   7.191
 3609POPC   C1B47635  15.398  41.703   6.262
 3609POPC   C2B47636  15.357  41.815   6.708
 3609POPC   C3B47637  15.482  41.773   7.130
 3609POPC   C4B47638  15.629  41.370   7.181
 3610POPC   NC347639  25.940   0.366   4.992
 3610POPC   PO447640  25.979   0.501   5.625
 3610POPC   GL147641  25.951   0.493   5.983
 3610POPC   GL247642  26.277   0.464   6.072
 3610POPC   C1A47643  25.797   0.563   6.353
 3610POPC   D2A47644  26.030   0.360   6.603
 3610POPC   C3A47645  25.796   0.492   6.931
 3610POPC   C4A47646  25.873   0.490   7.345
 3610POPC   C1B47647  26.256   0.805   6.339
 3610POPC   C2B47648  26.224   0.792   6.779
 3610POPC   C3B47649  26.300   0.433   7.052
 3610POPC   C4B47650  26.324   0.159   7.379
 3611POPC   NC347651  11.479  31.130   5.585
 3611POPC   PO447652  10.881  31.374   5.350
 3611POPC   GL147653  11.051  31.434   5.764
 3611POPC   GL247654  11.360  31.622   5.795
 3611POPC   C1A47655  11.098  31.418   6.213
 3611POPC   D2A47656  11.314  31.464   6.601
 3611POPC   C3A47657  11.203  31.216   6.985
 3611POPC   C4A47658  11.382  31.309   7.409
 3611POPC   C1B47659  11.408  31.838   6.211
 3611POPC   C2B47660  11.354  31.994   6.627
 3611POPC   C3B47661  11.403  31.758   7.017
 3611POPC   C4B47662  11.176  31.777   7.395
 3612POPC   NC347663  20.586  12.657   5.379
 3612POPC   PO447664  20.496  13.332   5.402
 3612POPC   GL147665  20.517  12.975   5.767
 3612POPC   GL247666  20.783  12.679   5.834
 3612POPC   C1A47667  20.476  12.811   6.205
 3612POPC   D2A47668  20.744  12.887   6.531
 3612POPC   C3A47669  20.596  13.031   6.898
 3612POPC   C4A47670  20.758  12.971   7.305
 3612POPC   C1B47671  20.854  12.418   6.184
 3612POPC   C2B47672  20.728  12.385   6.604
 3612POPC   C3B47673  20.766  12.551   7.004
 3612POPC   C4B47674  20.474  12.512   7.323
 3613POPC   NC347675  37.516  40.482   5.494
 3613POPC   PO447676  37.620  39.741   5.422
 3613POPC   GL147677  37.838  39.916   5.789
 3613POPC   GL247678  37.594  40.147   5.861
 3613POPC   C1A47679  37.768  39.818   6.217
 3613POPC   D2A47680  37.582  39.577   6.561
 3613POPC   C3A47681  37.724  39.679   7.000
 3613POPC   C4A47682  37.656  39.622   7.489
 3613POPC   C1B47683  37.847  40.325   6.211
 3613POPC   C2B47684  37.861  40.116   6.624
 3613POPC   C3B47685  37.768  40.189   7.041
 3613POPC   C4B47686  37.431  40.010   7.253
 3614POPC   NC347687  43.738  28.855   5.295
 3614POPC   PO447688  43.954  28.225   5.403
 3614POPC   GL147689  43.785  28.374   5.822
 3614POPC   GL247690  43.592  28.703   5.929
 3614POPC   C1A47691  43.824  28.213   6.241
 3614POPC   D2A47692  43.623  28.036   6.612
 3614POPC   C3A47693  43.805  28.234   6.982
 3614POPC   C4A47694  44.044  28.188   7.392
 3614POPC   C1B47695  43.994  28.701   6.207
 3614POPC   C2B47696  44.266  28.515   6.547
 3614POPC   C3B47697  44.218  28.530   7.031
 3614POPC   C4B47698  44.228  28.660   7.518
 3615POPC   NC347699  28.002  44.828   5.229
 3615POPC   PO447700  27.383  44.642   5.321
 3615POPC   GL147701  27.577  44.752   5.746
 3615POPC   GL247702  27.852   0.016   5.681
 3615POPC   C1A47703  27.614  44.545   6.202
 3615POPC   D2A47704  27.640  44.512   6.671
 3615POPC   C3A47705  27.307  44.393   6.925
 3615POPC   C4A47706  27.240  44.648   7.267
 3615POPC   C1B47707  28.006  44.848   6.064
 3615POPC   C2B47708  28.053  44.744   6.488
 3615POPC   C3B47709  27.991  44.836   6.935
 3615POPC   C4B47710  27.743  44.580   7.210
 3616POPC   NC347711  34.132  43.926   5.422
 3616POPC   PO447712  33.489  43.677   5.461
 3616POPC   GL147713  33.670  43.898   5.828
 3616POPC   GL247714  33.449  44.167   5.941
 3616POPC   C1A47715  34.022  44.058   6.116
 3616POPC   D2A47716  34.147  44.237   6.531
 3616POPC   C3A47717  33.965  44.033   6.838
 3616POPC   C4A47718  34.068  43.886   7.227
 3616POPC   C1B47719  33.551  44.047   6.319
 3616POPC   C2B47720  33.489  43.900   6.723
 3616POPC   C3B47721  33.561  43.940   7.146
 3616POPC   C4B47722  33.375  43.799   7.508
 3617POPC   NC347723  17.626   2.126   5.483
 3617POPC   PO447724  17.237   1.600   5.276
 3617POPC   GL147725  17.479   1.720   5.741
 3617POPC   GL247726  17.405   2.067   5.943
 3617POPC   C1A47727  17.784   1.818   6.114
 3617POPC   D2A47728  17.646   1.839   6.552
 3617POPC   C3A47729  17.717   2.131   6.855
 3617POPC   C4A47730  17.731   1.918   7.195
 3617POPC   C1B47731  17.224   1.760   6.255
 3617POPC   C2B47732  17.248   1.532   6.674
 3617POPC   C3B47733  17.257   1.768   7.077
 3617POPC   C4B47734  17.271   2.220   7.156
 3618POPC   NC347735  34.628  28.374   5.293
 3618POPC   PO447736  34.003  28.225   5.483
 3618POPC   GL147737  34.329  28.168   5.807
 3618POPC   GL247738  34.670  28.326   5.820
 3618POPC   C1A47739  34.441  28.086   6.248
 3618POPC   D2A47740  34.688  28.266   6.589
 3618POPC   C3A47741  34.530  28.208   6.977
 3618POPC   C4A47742  34.601  28.006   7.323
 3618POPC   C1B47743  34.943  28.461   6.197
 3618POPC   C2B47744  35.057  28.620   6.617
 3618POPC   C3B47745  34.752  28.683   6.933
 3618POPC   C4B47746  34.623  28.591   7.324
 3619POPC   NC347747  14.725  42.413   5.557
 3619POPC   PO447748  14.207  42.141   5.284
 3619POPC   GL147749  14.238  42.213   5.710
 3619POPC   GL247750  13.986  42.427   5.774
 3619POPC   C1A47751  14.358  42.344   6.126
 3619POPC   D2A47752  14.545  42.143   6.461
 3619POPC   C3A47753  14.581  42.398   6.804
 3619POPC   C4A47754  14.453  42.297   7.186
 3619POPC   C1B47755  13.904  42.561   6.210
 3619POPC   C2B47756  14.072  42.361   6.594
 3619POPC   C3B47757  13.983  42.421   7.024
 3619POPC   C4B47758  13.971  42.253   7.438
 3620POPC   NC347759  23.002   0.443   5.263
 3620POPC   PO447760  22.616  44.963   5.033
 3620POPC   GL147761  22.656   0.104   5.568
 3620POPC   GL247762  22.803   0.435   5.741
 3620POPC   C1A47763  22.633   0.077   6.092
 3620POPC   D2A47764  22.518   0.251   6.556
 3620POPC   C3A47765  22.781   0.430   6.920
 3620POPC   C4A47766  22.835   0.413   7.346
 3620POPC   C1B47767  22.951   0.445   6.202
 3620POPC   C2B47768  23.163   0.363   6.590
 3620POPC   C3B47769  23.253   0.206   7.004
 3620POPC   C4B47770  23.318   0.315   7.459
 3621POPC   NC347771  15.593  29.576   5.619
 3621POPC   PO447772  15.976  30.150   5.505
 3621POPC   GL147773  15.994  29.842   5.778
 3621POPC   GL247774  16.130  29.611   5.549
 3621POPC   C1A47775  15.875  29.785   6.227
 3621POPC   D2A47776  15.837  30.124   6.521
 3621POPC   C3A47777  15.580  30.015   6.859
 3621POPC   C4A47778  15.742  29.807   7.218
 3621POPC   C1B47779  16.232  29.482   6.023
 3621POPC   C2B47780  16.148  29.381   6.475
 3621POPC   C3B47781  16.115  29.618   6.887
 3621POPC   C4B47782  16.227  29.660   7.351
 3622POPC   NC347783  33.176  34.710   5.356
 3622POPC   PO447784  32.871  34.150   5.590
 3622POPC   GL147785  33.053  34.464   5.813
 3622POPC   GL247786  33.418  34.464   5.812
 3622POPC   C1A47787  32.916  34.588   6.210
 3622POPC   D2A47788  32.765  34.742   6.588
 3622POPC   C3A47789  33.129  34.727   6.826
 3622POPC   C4A47790  33.150  34.486   7.182
 3622POPC   C1B47791  33.285  34.209   6.204
 3622POPC   C2B47792  33.207  34.229   6.662
 3622POPC   C3B47793  33.250  34.008   7.060
 3622POPC   C4B47794  33.258  33.926   7.526
 3623POPC   NC347795  18.189  15.369   5.507
 3623POPC   PO447796  18.129  14.629   5.548
 3623POPC   GL147797  18.250  14.951   5.829
 3623POPC   GL247798  18.017  15.177   5.931
 3623POPC   C1A47799  18.470  15.121   6.184
 3623POPC   D2A47800  18.480  14.871   6.575
 3623POPC   C3A47801  18.506  15.065   7.005
 3623POPC   C4A47802  18.495  15.493   7.167
 3623POPC   C1B47803  18.026  14.944   6.331
 3623POPC   C2B47804  17.990  15.083   6.746
 3623POPC   C3B47805  18.005  15.078   7.172
 3623POPC   C4B47806  17.797  15.016   7.556
 3624POPC   NC347807  39.917  10.838   5.517
 3624POPC   PO447808  39.669  10.201   5.494
 3624POPC   GL147809  39.825  10.466   5.853
 3624POPC   GL247810  40.162  10.465   5.801
 3624POPC   C1A47811  40.000  10.628   6.260
 3624POPC   D2A47812  40.185  10.909   6.571
 3624POPC   C3A47813  40.020  10.776   6.966
 3624POPC   C4A47814  39.730  10.531   7.196
 3624POPC   C1B47815  40.430  10.203   6.069
 3624POPC   C2B47816  40.536  10.135   6.462
 3624POPC   C3B47817  40.334  10.416   6.722
 3624POPC   C4B47818  40.233  10.332   7.125
 3625POPC   NC347819  31.711  44.855   5.605
 3625POPC   PO447820  32.207  44.607   5.170
 3625POPC   GL147821  32.209  44.370   5.597
 3625POPC   GL247822  31.859  44.341   5.721
 3625POPC   C1A47823  32.314  44.433   6.065
 3625POPC   D2A47824  32.168  44.507   6.509
 3625POPC   C3A47825  32.342  44.689   6.903
 3625POPC   C4A47826  32.229  44.983   7.221
 3625POPC   C1B47827  31.722  44.410   6.169
 3625POPC   C2B47828  31.694  44.290   6.600
 3625POPC   C3B47829  31.852  44.540   6.915
 3625POPC   C4B47830  32.035  44.472   7.263
 3626POPC   NC347831   5.530   5.271   5.495
 3626POPC   PO447832   4.960   4.774   5.411
 3626POPC   GL147833   5.148   5.022   5.734
 3626POPC   GL247834   5.439   4.850   5.901
 3626POPC   C1A47835   5.024   5.212   6.128
 3626POPC   D2A47836   4.858   5.015   6.501
 3626POPC   C3A47837   5.074   4.889   6.882
 3626POPC   C4A47838   5.065   5.016   7.326
 3626POPC   C1B47839   5.530   5.194   6.195
 3626POPC   C2B47840   5.363   5.249   6.597
 3626POPC   C3B47841   5.526   5.288   7.016
 3626POPC   C4B47842   5.531   5.148   7.449
 3627POPC   NC347843  26.740  25.682   5.432
 3627POPC   PO447844  27.039  26.317   5.255
 3627POPC   GL147845  26.880  26.191   5.743
 3627POPC   GL247846  26.660  25.896   5.879
 3627POPC   C1A47847  26.971  26.109   6.225
 3627POPC   D2A47848  27.096  25.865   6.623
 3627POPC   C3A47849  26.977  26.081   7.011
 3627POPC   C4A47850  27.074  26.281   7.380
 3627POPC   C1B47851  26.463  25.710   6.246
 3627POPC   C2B47852  26.580  25.652   6.681
 3627POPC   C3B47853  26.707  25.658   7.115
 3627POPC   C4B47854  26.731  25.900   7.501
 3628POPC   NC347855  20.398  36.758   5.315
 3628POPC   PO447856  19.718  36.883   5.257
 3628POPC   GL147857  19.909  36.872   5.686
 3628POPC   GL247858  20.183  36.646   5.754
 3628POPC   C1A47859  19.922  37.020   6.134
 3628POPC   D2A47860  19.825  36.916   6.579
 3628POPC   C3A47861  19.906  37.190   6.946
 3628POPC   C4A47862  19.982  37.301   7.393
 3628POPC   C1B47863  20.088  36.549   6.166
 3628POPC   C2B47864  20.097  36.405   6.581
 3628POPC   C3B47865  20.115  36.689   6.928
 3628POPC   C4B47866  19.925  36.792   7.326
 3629POPC   NC347867  17.028  42.609   5.441
 3629POPC   PO447868  16.533  42.262   5.189
 3629POPC   GL147869  16.650  42.314   5.655
 3629POPC   GL247870  16.988  42.131   5.741
 3629POPC   C1A47871  16.785  42.506   6.085
 3629POPC   D2A47872  16.992  42.692   6.489
 3629POPC   C3A47873  16.822  42.562   6.921
 3629POPC   C4A47874  16.480  42.342   7.199
 3629POPC   C1B47875  16.864  41.996   6.166
 3629POPC   C2B47876  16.892  42.177   6.582
 3629POPC   C3B47877  16.916  42.074   7.056
 3629POPC   C4B47878  17.031  41.971   7.513
 3630POPC   NC347879  27.982  14.374   5.325
 3630POPC   PO447880  28.449  14.837   5.228
 3630POPC   GL147881  28.310  14.660   5.655
 3630POPC   GL247882  28.299  14.288   5.732
 3630POPC   C1A47883  28.328  14.646   6.131
 3630POPC   D2A47884  28.187  14.424   6.536
 3630POPC   C3A47885  28.355  14.447   6.949
 3630POPC   C4A47886  28.251  14.711   7.300
 3630POPC   C1B47887  28.460  14.143   6.154
 3630POPC   C2B47888  28.540  14.046   6.624
 3630POPC   C3B47889  28.570  14.010   7.106
 3630POPC   C4B47890  28.240  14.205   7.417
 3631POPC   NC347891   8.882  38.770   5.394
 3631POPC   PO447892   9.380  39.131   5.229
 3631POPC   GL147893   9.166  39.246   5.643
 3631POPC   GL247894   9.071  39.625   5.718
 3631POPC   C1A47895   9.178  39.086   6.081
 3631POPC   D2A47896   9.362  39.054   6.507
 3631POPC   C3A47897   9.113  39.189   6.872
 3631POPC   C4A47898   9.105  39.129   7.319
 3631POPC   C1B47899   8.789  39.423   6.024
 3631POPC   C2B47900   8.839  39.377   6.480
 3631POPC   C3B47901   8.675  39.534   6.898
 3631POPC   C4B47902   8.710  39.482   7.376
 3632POPC   NC347903  40.420  40.305   5.612
 3632POPC   PO447904  40.637  39.791   5.150
 3632POPC   GL147905  40.685  39.850   5.619
 3632POPC   GL247906  41.037  39.918   5.685
 3632POPC   C1A47907  40.614  39.753   6.081
 3632POPC   D2A47908  40.583  39.707   6.557
 3632POPC   C3A47909  40.576  40.009   6.911
 3632POPC   C4A47910  40.555  40.048   7.374
 3632POPC   C1B47911  41.074  39.978   6.148
 3632POPC   C2B47912  41.068  39.864   6.614
 3632POPC   C3B47913  41.065  39.876   7.084
 3632POPC   C4B47914  41.176  39.860   7.536
 3633POPC   NC347915   3.501   0.363   5.460
 3633POPC   PO447916   3.840   0.907   5.640
 3633POPC   GL147917   3.712   0.554   5.922
 3633POPC   GL247918   3.771   0.148   5.874
 3633POPC   C1A47919   3.434   0.694   6.296
 3633POPC   D2A47920   3.395   0.765   6.753
 3633POPC   C3A47921   3.660   0.504   7.045
 3633POPC   C4A47922   3.783   0.493   7.488
 3633POPC   C1B47923   3.421   0.177   6.164
 3633POPC   C2B47924   3.438   0.263   6.603
 3633POPC   C3B47925   3.205   0.323   6.962
 3633POPC   C4B47926   3.248   0.480   7.386
 3634POPC   NC347927  20.909  15.521   5.554
 3634POPC   PO447928  21.421  15.129   5.302
 3634POPC   GL147929  21.349  15.349   5.736
 3634POPC   GL247930  21.048  15.187   5.916
 3634POPC   C1A47931  21.213  15.599   6.151
 3634POPC   D2A47932  21.338  15.428   6.574
 3634POPC   C3A47933  21.245  15.546   6.973
 3634POPC   C4A47934  21.423  15.368   7.322
 3634POPC   C1B47935  21.384  15.089   6.182
 3634POPC   C2B47936  21.513  14.887   6.537
 3634POPC   C3B47937  21.420  15.030   6.924
 3634POPC   C4B47938  21.373  14.875   7.322
 3635POPC   NC347939  17.184  11.830   5.410
 3635POPC   PO447940  17.614  12.306   5.387
 3635POPC   GL147941  17.557  12.039   5.710
 3635POPC   GL247942  17.252  12.213   5.781
 3635POPC   C1A47943  17.802  11.884   6.059
 3635POPC   D2A47944  17.842  12.015   6.478
 3635POPC   C3A47945  17.616  11.771   6.772
 3635POPC   C4A47946  17.743  11.876   7.166
 3635POPC   C1B47947  17.274  11.948   6.140
 3635POPC   C2B47948  17.305  12.098   6.546
 3635POPC   C3B47949  17.582  12.287   6.852
 3635POPC   C4B47950  17.603  12.355   7.274
 3636POPC   NC347951  27.177  42.238   5.744
 3636POPC   PO447952  27.664  42.073   5.240
 3636POPC   GL147953  27.672  42.146   5.724
 3636POPC   GL247954  27.924  42.364   5.759
 3636POPC   C1A47955  27.656  42.284   6.191
 3636POPC   D2A47956  27.725  42.094   6.615
 3636POPC   C3A47957  27.368  42.073   6.887
 3636POPC   C4A47958  27.286  42.244   7.285
 3636POPC   C1B47959  28.058  42.662   6.033
 3636POPC   C2B47960  28.057  42.661   6.477
 3636POPC   C3B47961  27.820  42.546   6.847
 3636POPC   C4B47962  27.717  42.547   7.257
 3637POPC   NC347963  32.685  31.887   5.378
 3637POPC   PO447964  32.284  31.265   5.514
 3637POPC   GL147965  32.328  31.426   5.874
 3637POPC   GL247966  32.449  31.719   5.787
 3637POPC   C1A47967  32.127  31.529   6.229
 3637POPC   D2A47968  32.249  31.421   6.615
 3637POPC   C3A47969  31.976  31.530   6.953
 3637POPC   C4A47970  32.173  31.452   7.350
 3637POPC   C1B47971  32.464  31.913   6.178
 3637POPC   C2B47972  32.254  31.917   6.591
 3637POPC   C3B47973  32.410  31.777   6.974
 3637POPC   C4B47974  32.239  31.980   7.312
 3638POPC   NC347975  42.050  43.327   4.977
 3638POPC   PO447976  42.501  43.053   5.419
 3638POPC   GL147977  42.242  42.980   5.767
 3638POPC   GL247978  42.115  42.629   5.774
 3638POPC   C1A47979  42.248  43.240   6.150
 3638POPC   D2A47980  42.092  43.217   6.577
 3638POPC   C3A47981  42.393  43.335   6.900
 3638POPC   C4A47982  42.570  43.231   7.308
 3638POPC   C1B47983  42.318  42.728   6.199
 3638POPC   C2B47984  42.222  42.702   6.655
 3638POPC   C3B47985  42.271  42.872   7.095
 3638POPC   C4B47986  42.312  42.869   7.584
 3639POPC   NC347987  30.254  41.411   5.296
 3639POPC   PO447988  29.618  41.730   5.396
 3639POPC   GL147989  29.864  41.540   5.754
 3639POPC   GL247990  29.653  41.385   6.049
 3639POPC   C1A47991  30.042  41.664   6.162
 3639POPC   D2A47992  29.945  41.410   6.518
 3639POPC   C3A47993  30.008  41.608   6.867
 3639POPC   C4A47994  29.774  41.648   7.222
 3639POPC   C1B47995  30.043  41.139   6.097
 3639POPC   C2B47996  30.174  40.917   6.478
 3639POPC   C3B47997  30.195  41.089   6.871
 3639POPC   C4B47998  30.140  41.300   7.251
 3640POPC   NC347999  11.857   0.510   5.124
 3640POPC   PO448000  12.351   0.122   5.318
 3640POPC   GL148001  11.973   0.220   5.594
 3640POPC   GL248002  12.054   0.533   5.759
 3640POPC   C1A48003  11.808   0.223   6.047
 3640POPC   D2A48004  12.048   0.327   6.444
 3640POPC   C3A48005  11.888   0.540   6.786
 3640POPC   C4A48006  11.912   0.352   7.177
 3640POPC   C1B48007  12.009   0.740   6.172
 3640POPC   C2B48008  12.307   0.767   6.547
 3640POPC   C3B48009  12.384   0.605   6.964
 3640POPC   C4B48010  12.355   0.584   7.407
 3641POPC   NC348011  32.064   6.828   5.275
 3641POPC   PO448012  32.538   6.344   5.263
 3641POPC   GL148013  32.538   6.571   5.683
 3641POPC   GL248014  32.192   6.698   5.739
 3641POPC   C1A48015  32.455   6.580   6.141
 3641POPC   D2A48016  32.376   6.493   6.576
 3641POPC   C3A48017  32.502   6.658   6.985
 3641POPC   C4A48018  32.353   6.483   7.372
 3641POPC   C1B48019  31.946   6.810   6.090
 3641POPC   C2B48020  31.870   6.824   6.514
 3641POPC   C3B48021  31.883   6.495   6.787
 3641POPC   C4B48022  31.835   6.400   7.208
 3642POPC   NC348023  17.966   0.430   5.490
 3642POPC   PO448024  18.599   0.166   5.364
 3642POPC   GL148025  18.448   0.374   5.748
 3642POPC   GL248026  18.112   0.312   5.951
 3642POPC   C1A48027  18.499   0.604   6.139
 3642POPC   D2A48028  18.346   0.525   6.564
 3642POPC   C3A48029  18.400   0.750   6.963
 3642POPC   C4A48030  18.191   0.724   7.387
 3642POPC   C1B48031  18.373   0.096   6.242
 3642POPC   C2B48032  18.504   0.030   6.659
 3642POPC   C3B48033  18.321   0.234   7.000
 3642POPC   C4B48034  18.130   0.225   7.395
 3643POPC   NC348035  30.721  32.085   5.399
 3643POPC   PO448036  31.267  32.578   5.443
 3643POPC   GL148037  31.002  32.275   5.766
 3643POPC   GL248038  30.620  32.244   5.872
 3643POPC   C1A48039  30.991  32.114   6.207
 3643POPC   D2A48040  30.836  32.342   6.578
 3643POPC   C3A48041  30.743  32.166   6.980
 3643POPC   C4A48042  30.952  32.048   7.340
 3643POPC   C1B48043  30.490  32.569   6.153
 3643POPC   C2B48044  30.435  32.663   6.580
 3643POPC   C3B48045  30.407  32.538   7.006
 3643POPC   C4B48046  30.637  32.448   7.416
 3644POPC   NC348047  26.953  41.360   5.574
 3644POPC   PO448048  26.636  41.862   5.279
 3644POPC   GL148049  26.627  41.739   5.779
 3644POPC   GL248050  26.968  41.748   5.944
 3644POPC   C1A48051  26.645  41.605   6.281
 3644POPC   D2A48052  26.580  41.364   6.665
 3644POPC   C3A48053  26.618  41.530   7.090
 3644POPC   C4A48054  26.431  41.669   7.480
 3644POPC   C1B48055  27.117  41.886   6.343
 3644POPC   C2B48056  26.948  41.783   6.756
 3644POPC   C3B48057  27.028  41.798   7.216
 3644POPC   C4B48058  26.915  41.474   7.523
 3645POPC   NC348059  17.032  40.128   5.329
 3645POPC   PO448060  16.515  39.793   5.459
 3645POPC   GL148061  16.782  39.869   5.825
 3645POPC   GL248062  16.773  40.230   5.838
 3645POPC   C1A48063  16.813  39.703   6.268
 3645POPC   D2A48064  17.034  39.777   6.666
 3645POPC   C3A48065  16.788  39.786   7.038
 3645POPC   C4A48066  16.738  39.693   7.505
 3645POPC   C1B48067  16.563  40.168   6.254
 3645POPC   C2B48068  16.508  40.053   6.707
 3645POPC   C3B48069  16.583  40.259   7.136
 3645POPC   C4B48070  16.885  40.169   7.506
 3646POPC   NC348071   9.503   1.524   5.500
 3646POPC   PO448072   9.987   1.059   5.398
 3646POPC   GL148073   9.766   1.061   5.826
 3646POPC   GL248074   9.435   1.167   5.876
 3646POPC   C1A48075   9.643   0.947   6.282
 3646POPC   D2A48076   9.675   0.874   6.735
 3646POPC   C3A48077   9.709   1.151   7.138
 3646POPC   C4A48078   9.961   1.087   7.543
 3646POPC   C1B48079   9.513   1.449   6.244
 3646POPC   C2B48080   9.455   1.360   6.688
 3646POPC   C3B48081   9.458   1.599   7.067
 3646POPC   C4B48082   9.240   1.465   7.390
 3647POPC   NC348083  44.760  30.191   5.515
 3647POPC   PO448084  44.593  29.609   5.406
 3647POPC   GL148085  44.646  29.744   5.815
 3647POPC   GL248086  44.400  30.016   5.861
 3647POPC   C1A48087  44.747  29.842   6.245
 3647POPC   D2A48088  44.475  29.939   6.613
 3647POPC   C3A48089  44.681  29.776   6.973
 3647POPC   C4A48090  44.750  29.827   7.396
 3647POPC   C1B48091  44.595  30.318   6.189
 3647POPC   C2B48092  44.806  30.362   6.587
 3647POPC   C3B48093  44.667  30.293   7.005
 3647POPC   C4B48094  44.840  30.351   7.379
 3648POPC   NC348095  20.114   7.643   5.579
 3648POPC   PO448096  19.552   7.428   5.317
 3648POPC   GL148097  19.699   7.390   5.743
 3648POPC   GL248098  19.409   7.338   5.872
 3648POPC   C1A48099  19.807   7.516   6.219
 3648POPC   D2A48100  19.749   7.740   6.647
 3648POPC   C3A48101  20.025   7.658   7.006
 3648POPC   C4A48102  20.212   7.497   7.329
 3648POPC   C1B48103  19.675   7.021   6.107
 3648POPC   C2B48104  19.878   7.081   6.492
 3648POPC   C3B48105  19.702   7.272   6.868
 3648POPC   C4B48106  19.775   7.257   7.300
 3649POPC   NC348107  17.114  44.112   5.387
 3649POPC   PO448108  17.763  43.925   5.587
 3649POPC   GL148109  17.353  43.903   5.803
 3649POPC   GL248110  17.259  44.236   5.863
 3649POPC   C1A48111  17.298  43.753   6.219
 3649POPC   D2A48112  17.610  43.706   6.569
 3649POPC   C3A48113  17.443  43.697   6.990
 3649POPC   C4A48114  17.540  43.693   7.411
 3649POPC   C1B48115  17.558  44.192   6.217
 3649POPC   C2B48116  17.330  44.131   6.602
 3649POPC   C3B48117  17.393  44.214   7.026
 3649POPC   C4B48118  17.202  44.100   7.397
 3650POPC   NC348119  16.991  36.941   5.324
 3650POPC   PO448120  16.279  36.830   5.318
 3650POPC   GL148121  16.638  36.909   5.682
 3650POPC   GL248122  16.449  36.975   5.927
 3650POPC   C1A48123  16.893  37.059   6.111
 3650POPC   D2A48124  16.771  37.186   6.564
 3650POPC   C3A48125  16.723  36.932   6.977
 3650POPC   C4A48126  16.986  36.929   7.356
 3650POPC   C1B48127  16.508  36.791   6.331
 3650POPC   C2B48128  16.388  36.639   6.728
 3650POPC   C3B48129  16.433  36.474   7.147
 3650POPC   C4B48130  16.507  36.827   7.482
 3651POPC   NC348131  22.099  28.552   5.325
 3651POPC   PO448132  21.999  27.890   5.316
 3651POPC   GL148133  22.071  28.155   5.707
 3651POPC   GL248134  21.928  28.516   5.831
 3651POPC   C1A48135  21.948  28.076   6.140
 3651POPC   D2A48136  21.679  28.118   6.527
 3651POPC   C3A48137  21.897  27.936   6.888
 3651POPC   C4A48138  22.031  28.159   7.242
 3651POPC   C1B48139  21.933  28.546   6.308
 3651POPC   C2B48140  22.000  28.466   6.769
 3651POPC   C3B48141  22.274  28.610   7.092
 3651POPC   C4B48142  22.510  28.729   7.428
 3652POPC   NC348143  37.644  44.221   5.471
 3652POPC   PO448144  37.744  44.827   5.218
 3652POPC   GL148145  37.736  44.701   5.651
 3652POPC   GL248146  37.614   0.015   5.731
 3652POPC   C1A48147  37.901  44.662   6.077
 3652POPC   D2A48148  37.821  44.354   6.397
 3652POPC   C3A48149  37.782  44.451   6.827
 3652POPC   C4A48150  37.689  44.522   7.238
 3652POPC   C1B48151  37.502  44.941   6.189
 3652POPC   C2B48152  37.588  44.870   6.614
 3652POPC   C3B48153  37.392  44.903   7.013
 3652POPC   C4B48154  37.138   0.084   7.337
 3653POPC   NC348155  17.256   6.574   5.319
 3653POPC   PO448156  17.734   7.024   5.268
 3653POPC   GL148157  17.694   6.723   5.678
 3653POPC   GL248158  17.831   6.368   5.649
 3653POPC   C1A48159  17.479   6.571   6.101
 3653POPC   D2A48160  17.499   6.709   6.569
 3653POPC   C3A48161  17.334   6.679   7.000
 3653POPC   C4A48162  17.340   6.945   7.393
 3653POPC   C1B48163  17.916   6.279   6.084
 3653POPC   C2B48164  17.653   6.209   6.437
 3653POPC   C3B48165  17.723   6.242   6.871
 3653POPC   C4B48166  17.609   6.367   7.288
 3654POPC   NC348167  22.849  18.680   5.311
 3654POPC   PO448168  23.183  19.311   5.488
 3654POPC   GL148169  23.066  19.104   5.850
 3654POPC   GL248170  22.804  18.845   5.807
 3654POPC   C1A48171  23.043  18.924   6.269
 3654POPC   D2A48172  22.863  18.781   6.652
 3654POPC   C3A48173  23.033  19.090   6.982
 3654POPC   C4A48174  23.439  19.309   7.117
 3654POPC   C1B48175  22.620  19.166   6.097
 3654POPC   C2B48176  22.492  19.166   6.540
 3654POPC   C3B48177  22.506  18.969   6.969
 3654POPC   C4B48178  22.654  19.009   7.405
 3655POPC   NC348179  26.828  38.715   5.480
 3655POPC   PO448180  27.035  38.140   5.543
 3655POPC   GL148181  26.917  38.411   5.879
 3655POPC   GL248182  26.574  38.491   5.858
 3655POPC   C1A48183  26.920  38.579   6.312
 3655POPC   D2A48184  27.049  38.454   6.736
 3655POPC   C3A48185  26.940  38.561   7.148
 3655POPC   C4A48186  27.139  38.692   7.544
 3655POPC   C1B48187  26.413  38.404   6.243
 3655POPC   C2B48188  26.587  38.272   6.622
 3655POPC   C3B48189  26.483  38.033   6.943
 3655POPC   C4B48190  26.393  38.216   7.330
 3656POPC   NC348191  21.456  20.730   5.199
 3656POPC   PO448192  21.141  20.274   5.524
 3656POPC   GL148193  21.480  20.423   5.725
 3656POPC   GL248194  21.407  20.774   5.745
 3656POPC   C1A48195  21.431  20.428   6.169
 3656POPC   D2A48196  21.498  20.702   6.524
 3656POPC   C3A48197  21.564  20.522   6.925
 3656POPC   C4A48198  21.602  20.782   7.230
 3656POPC   C1B48199  21.042  20.736   6.056
 3656POPC   C2B48200  21.015  20.951   6.482
 3656POPC   C3B48201  21.189  20.897   6.931
 3656POPC   C4B48202  21.159  20.575   7.313
 3657POPC   NC348203  42.845  13.816   5.180
 3657POPC   PO448204  42.239  13.643   5.045
 3657POPC   GL148205  42.249  13.495   5.576
 3657POPC   GL248206  41.997  13.700   5.798
 3657POPC   C1A48207  42.415  13.589   6.043
 3657POPC   D2A48208  42.332  13.656   6.486
 3657POPC   C3A48209  42.533  13.488   6.875
 3657POPC   C4A48210  42.526  13.549   7.304
 3657POPC   C1B48211  41.980  13.978   6.198
 3657POPC   C2B48212  42.086  14.076   6.660
 3657POPC   C3B48213  42.018  13.845   7.081
 3657POPC   C4B48214  42.218  13.896   7.501
 3658POPC   NC348215  41.577  15.490   5.554
 3658POPC   PO448216  41.580  14.890   5.261
 3658POPC   GL148217  41.519  14.959   5.688
 3658POPC   GL248218  41.226  15.155   5.828
 3658POPC   C1A48219  41.702  14.898   6.076
 3658POPC   D2A48220  41.784  15.135   6.427
 3658POPC   C3A48221  41.658  14.972   6.822
 3658POPC   C4A48222  41.787  15.093   7.223
 3658POPC   C1B48223  41.238  15.253   6.292
 3658POPC   C2B48224  41.174  15.137   6.742
 3658POPC   C3B48225  41.351  15.313   7.118
 3658POPC   C4B48226  41.538  15.443   7.496
 3659POPC   NC348227  32.978   1.703   5.436
 3659POPC   PO448228  32.728   2.389   5.327
 3659POPC   GL148229  32.683   2.162   5.754
 3659POPC   GL248230  33.009   2.024   5.819
 3659POPC   C1A48231  32.796   2.206   6.225
 3659POPC   D2A48232  32.991   2.037   6.590
 3659POPC   C3A48233  32.951   2.327   6.897
 3659POPC   C4A48234  32.719   2.179   7.239
 3659POPC   C1B48235  32.963   1.739   6.168
 3659POPC   C2B48236  33.157   1.525   6.520
 3659POPC   C3B48237  33.352   1.615   6.918
 3659POPC   C4B48238  33.170   1.945   7.130
 3660POPC   NC348239   9.091  40.254   5.626
 3660POPC   PO448240   8.592  39.913   5.489
 3660POPC   GL148241   8.695  40.010   5.902
 3660POPC   GL248242   8.698  40.379   5.982
 3660POPC   C1A48243   8.907  39.856   6.273
 3660POPC   D2A48244   8.817  40.030   6.687
 3660POPC   C3A48245   8.933  39.918   7.110
 3660POPC   C4A48246   8.667  40.185   7.365
 3660POPC   C1B48247   9.065  40.332   6.301
 3660POPC   C2B48248   9.260  40.275   6.753
 3660POPC   C3B48249   9.126  40.382   7.178
 3660POPC   C4B48250   9.068  40.355   7.622
 3661POPC   NC348251  39.200  13.428   5.350
 3661POPC   PO448252  39.184  14.078   5.186
 3661POPC   GL148253  39.157  13.830   5.647
 3661POPC   GL248254  39.492  13.646   5.759
 3661POPC   C1A48255  39.080  13.551   6.023
 3661POPC   D2A48256  39.043  13.636   6.476
 3661POPC   C3A48257  39.060  13.440   6.859
 3661POPC   C4A48258  39.330  13.540   7.205
 3661POPC   C1B48259  39.513  13.657   6.249
 3661POPC   C2B48260  39.520  13.653   6.713
 3661POPC   C3B48261  39.604  13.952   7.043
 3661POPC   C4B48262  39.428  13.959   7.477
 3662POPC   NC348263  13.012  23.198   5.189
 3662POPC   PO448264  12.745  23.811   5.419
 3662POPC   GL148265  12.724  23.941   5.867
 3662POPC   GL248266  12.855  23.610   5.905
 3662POPC   C1A48267  12.984  23.991   6.293
 3662POPC   D2A48268  12.859  24.014   6.767
 3662POPC   C3A48269  13.096  23.774   7.105
 3662POPC   C4A48270  13.135  23.903   7.558
 3662POPC   C1B48271  12.640  23.623   6.284
 3662POPC   C2B48272  12.810  23.449   6.655
 3662POPC   C3B48273  12.759  23.312   7.075
 3662POPC   C4B48274  12.841  23.485   7.486
 3663POPC   NC348275  11.500   3.832   5.410
 3663POPC   PO448276  10.886   3.495   5.407
 3663POPC   GL148277  11.228   3.447   5.714
 3663POPC   GL248278  11.132   3.793   5.757
 3663POPC   C1A48279  11.429   3.287   6.134
 3663POPC   D2A48280  11.678   3.203   6.535
 3663POPC   C3A48281  11.413   3.213   6.914
 3663POPC   C4A48282  11.324   3.551   7.199
 3663POPC   C1B48283  11.377   3.807   6.086
 3663POPC   C2B48284  11.400   3.827   6.476
 3663POPC   C3B48285  11.615   3.675   6.771
 3663POPC   C4B48286  11.650   3.938   7.070
 3664POPC   NC348287  40.073  44.422   5.018
 3664POPC   PO448288  39.911  43.824   5.427
 3664POPC   GL148289  39.941  43.891   5.831
 3664POPC   GL248290  40.142  44.178   5.781
 3664POPC   C1A48291  39.998  43.652   6.216
 3664POPC   D2A48292  40.276  43.701   6.564
 3664POPC   C3A48293  40.000  43.639   6.886
 3664POPC   C4A48294  40.079  43.525   7.315
 3664POPC   C1B48295  40.204  44.123   6.229
 3664POPC   C2B48296  39.989  44.166   6.611
 3664POPC   C3B48297  39.964  44.117   7.041
 3664POPC   C4B48298  40.285  44.161   7.303
 3665POPC   NC348299  11.548  33.733   5.424
 3665POPC   PO448300  10.942  33.524   5.495
 3665POPC   GL148301  11.230  33.749   5.817
 3665POPC   GL248302  11.073  34.056   5.974
 3665POPC   C1A48303  11.391  33.788   6.267
 3665POPC   D2A48304  11.260  34.133   6.551
 3665POPC   C3A48305  11.121  34.003   6.974
 3665POPC   C4A48306  11.235  33.683   7.260
 3665POPC   C1B48307  10.875  33.686   6.182
 3665POPC   C2B48308  10.682  33.620   6.598
 3665POPC   C3B48309  10.818  33.501   7.025
 3665POPC   C4B48310  10.887  33.397   7.484
 3666POPC   NC348311  11.461  14.251   5.420
 3666POPC   PO448312  11.227  14.732   5.420
 3666POPC   GL148313  11.171  14.499   5.803
 3666POPC   GL248314  11.469  14.331   5.934
 3666POPC   C1A48315  11.118  14.522   6.267
 3666POPC   D2A48316  11.234  14.699   6.678
 3666POPC   C3A48317  11.334  14.532   7.114
 3666POPC   C4A48318  11.373  14.391   7.546
 3666POPC   C1B48319  11.591  14.348   6.381
 3666POPC   C2B48320  11.499  14.173   6.786
 3666POPC   C3B48321  11.694  14.149   7.209
 3666POPC   C4B48322  11.646  13.938   7.641
 3667POPC   NC348323  14.977   8.564   5.387
 3667POPC   PO448324  15.382   9.171   5.377
 3667POPC   GL148325  15.185   8.949   5.733
 3667POPC   GL248326  15.327   8.612   5.777
 3667POPC   C1A48327  15.338   8.984   6.179
 3667POPC   D2A48328  15.380   9.237   6.592
 3667POPC   C3A48329  15.191   9.126   7.002
 3667POPC   C4A48330  15.150   8.866   7.410
 3667POPC   C1B48331  15.013   8.596   6.122
 3667POPC   C2B48332  15.056   8.741   6.562
 3667POPC   C3B48333  15.203   8.606   6.971
 3667POPC   C4B48334  15.526   8.480   7.274
 3668POPC   NC348335  39.971  19.226   5.149
 3668POPC   PO448336  39.979  18.548   5.118
 3668POPC   GL148337  40.128  18.881   5.488
 3668POPC   GL248338  40.459  18.900   5.603
 3668POPC   C1A48339  40.030  19.199   5.848
 3668POPC   D2A48340  39.831  19.392   6.238
 3668POPC   C3A48341  39.944  19.290   6.685
 3668POPC   C4A48342  39.931  19.368   7.135
 3668POPC   C1B48343  40.330  18.848   6.041
 3668POPC   C2B48344  39.970  18.801   6.314
 3668POPC   C3B48345  39.860  18.748   6.745
 3668POPC   C4B48346  40.055  18.861   7.140
 3669POPC   NC348347  36.549  11.438   5.439
 3669POPC   PO448348  37.015  11.060   5.377
 3669POPC   GL148349  36.896  11.253   5.770
 3669POPC   GL248350  36.553  11.156   5.865
 3669POPC   C1A48351  36.869  11.470   6.163
 3669POPC   D2A48352  37.115  11.395   6.507
 3669POPC   C3A48353  36.968  11.460   6.891
 3669POPC   C4A48354  36.944  11.642   7.283
 3669POPC   C1B48355  36.733  10.987   6.252
 3669POPC   C2B48356  36.752  10.934   6.724
 3669POPC   C3B48357  36.904  11.020   7.166
 3669POPC   C4B48358  36.933  10.932   7.648
 3670POPC   NC348359  23.951  37.858   5.501
 3670POPC   PO448360  24.691  37.761   5.463
 3670POPC   GL148361  24.380  37.633   5.739
 3670POPC   GL248362  24.324  37.969   5.861
 3670POPC   C1A48363  24.291  37.594   6.191
 3670POPC   D2A48364  24.361  37.803   6.568
 3670POPC   C3A48365  24.552  37.626   6.927
 3670POPC   C4A48366  24.311  37.603   7.293
 3670POPC   C1B48367  24.650  38.065   6.234
 3670POPC   C2B48368  24.794  38.075   6.723
 3670POPC   C3B48369  24.906  37.907   7.160
 3670POPC   C4B48370  24.635  37.893   7.556
 3671POPC   NC348371  43.573  25.388   5.551
 3671POPC   PO448372  44.187  25.047   5.442
 3671POPC   GL148373  44.008  25.191   5.797
 3671POPC   GL248374  44.218  25.494   5.836
 3671POPC   C1A48375  43.827  25.008   6.188
 3671POPC   D2A48376  43.758  25.200   6.589
 3671POPC   C3A48377  43.721  25.093   7.007
 3671POPC   C4A48378  44.016  25.115   7.300
 3671POPC   C1B48379  43.869  25.532   6.149
 3671POPC   C2B48380  43.876  25.694   6.538
 3671POPC   C3B48381  44.049  25.545   6.936
 3671POPC   C4B48382  44.310  25.504   7.310
 3672POPC   NC348383  10.024  33.460   5.603
 3672POPC   PO448384   9.659  34.123   5.678
 3672POPC   GL148385   9.815  33.828   5.871
 3672POPC   GL248386   9.552  33.569   5.785
 3672POPC   C1A48387  10.010  33.884   6.237
 3672POPC   D2A48388   9.812  33.940   6.615
 3672POPC   C3A48389   9.963  33.937   7.023
 3672POPC   C4A48390   9.801  34.059   7.418
 3672POPC   C1B48391   9.430  33.676   6.204
 3672POPC   C2B48392   9.521  33.522   6.601
 3672POPC   C3B48393   9.488  33.706   6.991
 3672POPC   C4B48394   9.591  33.593   7.370
 3673POPC   NC348395  20.681   2.089   5.522
 3673POPC   PO448396  20.206   1.622   5.508
 3673POPC   GL148397  20.332   1.877   5.838
 3673POPC   GL248398  20.703   1.902   5.968
 3673POPC   C1A48399  20.314   1.775   6.247
 3673POPC   D2A48400  20.586   1.634   6.560
 3673POPC   C3A48401  20.539   1.805   6.951
 3673POPC   C4A48402  20.380   1.777   7.357
 3673POPC   C1B48403  20.752   2.071   6.352
 3673POPC   C2B48404  21.083   2.024   6.635
 3673POPC   C3B48405  20.993   2.123   7.042
 3673POPC   C4B48406  20.592   2.256   7.222
 3674POPC   NC348407  17.736  14.885   5.499
 3674POPC   PO448408  17.770  15.512   5.602
 3674POPC   GL148409  17.466  15.171   5.835
 3674POPC   GL248410  17.637  14.871   6.005
 3674POPC   C1A48411  17.247  14.999   6.270
 3674POPC   D2A48412  17.546  14.873   6.584
 3674POPC   C3A48413  17.523  14.981   7.025
 3674POPC   C4A48414  17.288  15.130   7.371
 3674POPC   C1B48415  17.667  15.286   6.285
 3674POPC   C2B48416  17.535  15.388   6.700
 3674POPC   C3B48417  17.670  15.461   7.134
 3674POPC   C4B48418  18.036  15.567   7.401
 3675POPC   NC348419  32.697  41.261   5.346
 3675POPC   PO448420  33.289  41.524   5.446
 3675POPC   GL148421  33.118  41.260   5.758
 3675POPC   GL248422  32.815  41.464   5.799
 3675POPC   C1A48423  32.981  41.164   6.195
 3675POPC   D2A48424  32.776  41.244   6.603
 3675POPC   C3A48425  33.097  41.206   6.927
 3675POPC   C4A48426  33.125  41.387   7.304
 3675POPC   C1B48427  32.856  41.683   6.170
 3675POPC   C2B48428  32.720  41.778   6.570
 3675POPC   C3B48429  32.751  41.620   6.997
 3675POPC   C4B48430  32.865  41.875   7.333
 3676POPC   NC348431  38.619   3.384   5.471
 3676POPC   PO448432  38.168   3.898   5.586
 3676POPC   GL148433  38.460   3.689   5.860
 3676POPC   GL248434  38.830   3.718   5.898
 3676POPC   C1A48435  38.399   3.684   6.271
 3676POPC   D2A48436  38.176   3.662   6.612
 3676POPC   C3A48437  38.424   3.708   6.944
 3676POPC   C4A48438  38.183   3.628   7.273
 3676POPC   C1B48439  38.762   3.341   6.171
 3676POPC   C2B48440  38.539   3.295   6.569
 3676POPC   C3B48441  38.667   3.262   6.974
 3676POPC   C4B48442  38.653   3.450   7.377
 3677POPC   NC348443  36.486  27.106   5.433
 3677POPC   PO448444  35.916  26.663   5.464
 3677POPC   GL148445  36.044  26.823   5.833
 3677POPC   GL248446  36.336  26.619   5.780
 3677POPC   C1A48447  36.047  26.946   6.294
 3677POPC   D2A48448  36.045  26.642   6.649
 3677POPC   C3A48449  36.133  26.817   7.050
 3677POPC   C4A48450  35.846  27.160   7.155
 3677POPC   C1B48451  36.466  26.723   6.164
 3677POPC   C2B48452  36.512  26.890   6.568
 3677POPC   C3B48453  36.729  26.942   6.938
 3677POPC   C4B48454  36.631  26.758   7.307
 3678POPC   NC348455  26.801  30.881   5.438
 3678POPC   PO448456  26.706  30.244   5.396
 3678POPC   GL148457  26.774  30.476   5.754
 3678POPC   GL248458  27.107  30.563   5.700
 3678POPC   C1A48459  26.636  30.537   6.172
 3678POPC   D2A48460  26.541  30.394   6.602
 3678POPC   C3A48461  26.556  30.723   6.908
 3678POPC   C4A48462  26.629  30.972   7.263
 3678POPC   C1B48463  27.140  30.286   6.067
 3678POPC   C2B48464  27.220  30.320   6.526
 3678POPC   C3B48465  27.052  30.473   6.930
 3678POPC   C4B48466  26.779  30.429   7.243
 3679POPC   NC348467  21.052   1.629   5.264
 3679POPC   PO448468  21.278   0.945   5.469
 3679POPC   GL148469  21.437   1.183   5.803
 3679POPC   GL248470  21.429   1.527   5.685
 3679POPC   C1A48471  21.361   1.214   6.226
 3679POPC   D2A48472  21.476   1.023   6.605
 3679POPC   C3A48473  21.164   1.063   6.916
 3679POPC   C4A48474  21.129   1.249   7.276
 3679POPC   C1B48475  21.567   1.656   6.102
 3679POPC   C2B48476  21.477   1.667   6.559
 3679POPC   C3B48477  21.525   1.423   6.945
 3679POPC   C4B48478  21.791   1.082   7.068
 3680POPC   NC348479  42.400   8.496   5.411
 3680POPC   PO448480  42.000   7.851   5.294
 3680POPC   GL148481  42.247   7.954   5.721
 3680POPC   GL248482  42.389   8.280   5.852
 3680POPC   C1A48483  42.312   7.963   6.214
 3680POPC   D2A48484  42.413   8.230   6.552
 3680POPC   C3A48485  42.363   7.981   6.888
 3680POPC   C4A48486  42.471   8.010   7.269
 3680POPC   C1B48487  42.713   8.357   6.155
 3680POPC   C2B48488  42.850   8.515   6.578
 3680POPC   C3B48489  42.741   8.376   7.025
 3680POPC   C4B48490  42.503   8.537   7.407
 3681POPC   NC348491  17.654   8.473   5.519
 3681POPC   PO448492  17.387   7.916   5.381
 3681POPC   GL148493  17.576   7.955   5.800
 3681POPC   GL248494  17.826   7.697   5.835
 3681POPC   C1A48495  17.506   8.074   6.246
 3681POPC   D2A48496  17.359   7.899   6.645
 3681POPC   C3A48497  17.266   8.212   6.960
 3681POPC   C4A48498  17.121   8.425   7.295
 3681POPC   C1B48499  17.926   7.757   6.284
 3681POPC   C2B48500  17.895   7.979   6.674
 3681POPC   C3B48501  17.677   7.934   7.073
 3681POPC   C4B48502  17.742   8.102   7.466
 3682POPC   NC348503  11.313  17.631   5.391
 3682POPC   PO448504  11.155  17.007   5.514
 3682POPC   GL148505  11.143  17.338   5.800
 3682POPC   GL248506  11.496  17.473   5.840
 3682POPC   C1A48507  11.182  17.330   6.230
 3682POPC   D2A48508  11.137  17.583   6.555
 3682POPC   C3A48509  11.032  17.398   6.914
 3682POPC   C4A48510  11.169  17.169   7.239
 3682POPC   C1B48511  11.533  17.709   6.219
 3682POPC   C2B48512  11.650  17.671   6.658
 3682POPC   C3B48513  11.583  17.519   7.077
 3682POPC   C4B48514  11.508  17.459   7.507
 3683POPC   NC348515  26.587  37.419   5.545
 3683POPC   PO448516  26.766  36.859   5.528
 3683POPC   GL148517  27.019  36.879   5.902
 3683POPC   GL248518  26.999  37.209   5.898
 3683POPC   C1A48519  27.141  36.904   6.335
 3683POPC   D2A48520  27.141  36.705   6.751
 3683POPC   C3A48521  26.998  36.923   7.118
 3683POPC   C4A48522  26.645  36.691   7.283
 3683POPC   C1B48523  26.709  37.163   6.249
 3683POPC   C2B48524  26.781  37.096   6.694
 3683POPC   C3B48525  26.534  37.163   7.091
 3683POPC   C4B48526  26.465  37.086   7.552
 3684POPC   NC348527  41.584  28.268   5.367
 3684POPC   PO448528  41.321  28.815   5.655
 3684POPC   GL148529  41.591  28.440   5.841
 3684POPC   GL248530  41.421  28.098   5.831
 3684POPC   C1A48531  41.691  28.221   6.245
 3684POPC   D2A48532  41.549  28.405   6.605
 3684POPC   C3A48533  41.499  28.258   6.998
 3684POPC   C4A48534  41.665  27.935   7.168
 3684POPC   C1B48535  41.187  28.356   6.144
 3684POPC   C2B48536  41.065  28.552   6.531
 3684POPC   C3B48537  41.248  28.712   6.909
 3684POPC   C4B48538  41.286  28.608   7.355
 3685POPC   NC348539  23.992   0.577   5.311
 3685POPC   PO448540  24.659   0.602   5.262
 3685POPC   GL148541  24.591   0.482   5.689
 3685POPC   GL248542  24.271   0.275   5.664
 3685POPC   C1A48543  24.779   0.517   6.130
 3685POPC   D2A48544  24.826   0.670   6.558
 3685POPC   C3A48545  24.623   0.404   6.915
 3685POPC   C4A48546  24.402   0.317   7.332
 3685POPC   C1B48547  24.289   0.424   6.096
 3685POPC   C2B48548  24.328   0.571   6.517
 3685POPC   C3B48549  24.120   0.508   6.917
 3685POPC   C4B48550  24.077   0.686   7.351
 3686POPC   NC348551   6.837  35.263   5.314
 3686POPC   PO448552   6.192  35.583   5.455
 3686POPC   GL148553   6.477  35.504   5.771
 3686POPC   GL248554   6.519  35.185   5.708
 3686POPC   C1A48555   6.683  35.390   6.164
 3686POPC   D2A48556   6.815  35.661   6.503
 3686POPC   C3A48557   6.805  35.426   6.915
 3686POPC   C4A48558   6.734  35.572   7.350
 3686POPC   C1B48559   6.412  34.970   6.073
 3686POPC   C2B48560   6.427  34.874   6.475
 3686POPC   C3B48561   6.384  34.868   6.923
 3686POPC   C4B48562   6.595  35.091   7.262
 3687POPC   NC348563  10.911  41.506   5.467
 3687POPC   PO448564  10.244  41.400   5.556
 3687POPC   GL148565  10.564  41.454   5.835
 3687POPC   GL248566  10.712  41.764   5.915
 3687POPC   C1A48567  10.694  41.281   6.182
 3687POPC   D2A48568  10.560  41.131   6.571
 3687POPC   C3A48569  10.683  41.358   6.936
 3687POPC   C4A48570  10.507  41.512   7.298
 3687POPC   C1B48571  10.375  41.681   6.273
 3687POPC   C2B48572  10.406  41.831   6.722
 3687POPC   C3B48573  10.814  41.852   6.957
 3687POPC   C4B48574  10.935  41.796   7.386
 3688POPC   NC348575   4.822  13.396   5.327
 3688POPC   PO448576   5.201  13.943   5.311
 3688POPC   GL148577   5.117  14.025   5.749
 3688POPC   GL248578   4.812  14.109   5.892
 3688POPC   C1A48579   5.266  13.882   6.152
 3688POPC   D2A48580   5.143  13.616   6.501
 3688POPC   C3A48581   5.177  13.785   6.913
 3688POPC   C4A48582   5.163  13.452   7.229
 3688POPC   C1B48583   4.796  13.690   6.094
 3688POPC   C2B48584   4.628  13.630   6.508
 3688POPC   C3B48585   4.751  13.506   6.910
 3688POPC   C4B48586   4.679  13.725   7.318
 3689POPC   NC348587   7.550   2.299   5.695
 3689POPC   PO448588   7.225   1.922   5.237
 3689POPC   GL148589   7.252   1.791   5.673
 3689POPC   GL248590   7.608   1.780   5.745
 3689POPC   C1A48591   7.257   1.710   6.132
 3689POPC   D2A48592   7.442   1.969   6.483
 3689POPC   C3A48593   7.307   2.138   6.919
 3689POPC   C4A48594   7.593   2.130   7.262
 3689POPC   C1B48595   7.821   1.657   6.135
 3689POPC   C2B48596   7.890   1.736   6.583
 3689POPC   C3B48597   7.577   1.708   6.914
 3689POPC   C4B48598   7.647   1.620   7.341
 3690POPC   NC348599  14.486  37.256   5.395
 3690POPC   PO448600  14.255  36.616   5.298
 3690POPC   GL148601  14.360  36.849   5.698
 3690POPC   GL248602  14.106  36.948   5.931
 3690POPC   C1A48603  14.633  36.898   6.060
 3690POPC   D2A48604  14.729  36.959   6.510
 3690POPC   C3A48605  14.538  36.875   6.905
 3690POPC   C4A48606  14.690  36.902   7.275
 3690POPC   C1B48607  14.215  36.747   6.323
 3690POPC   C2B48608  14.061  36.681   6.719
 3690POPC   C3B48609  14.060  36.835   7.121
 3690POPC   C4B48610  14.018  37.126   7.414
 3691POPC   NC348611  32.068  36.722   5.228
 3691POPC   PO448612  32.734  36.849   5.254
 3691POPC   GL148613  32.407  36.876   5.652
 3691POPC   GL248614  32.117  36.654   5.728
 3691POPC   C1A48615  32.227  36.986   6.118
 3691POPC   D2A48616  32.294  36.847   6.586
 3691POPC   C3A48617  32.271  37.176   6.914
 3691POPC   C4A48618  31.970  37.433   7.120
 3691POPC   C1B48619  31.856  36.604   6.096
 3691POPC   C2B48620  31.815  36.601   6.524
 3691POPC   C3B48621  31.865  36.821   6.908
 3691POPC   C4B48622  32.051  36.698   7.257
 3692POPC   NC348623  11.107  30.213   5.442
 3692POPC   PO448624  11.718  30.115   5.423
 3692POPC   GL148625  11.445  29.960   5.778
 3692POPC   GL248626  11.289  30.260   5.902
 3692POPC   C1A48627  11.278  29.787   6.203
 3692POPC   D2A48628  11.275  29.627   6.666
 3692POPC   C3A48629  11.133  29.931   7.012
 3692POPC   C4A48630  11.221  30.049   7.460
 3692POPC   C1B48631  11.544  30.270   6.243
 3692POPC   C2B48632  11.393  30.236   6.672
 3692POPC   C3B48633  11.506  30.310   7.110
 3692POPC   C4B48634  11.646  30.395   7.569
 3693POPC   NC348635  26.783   5.189   5.406
 3693POPC   PO448636  27.413   5.015   5.540
 3693POPC   GL148637  27.015   4.950   5.809
 3693POPC   GL248638  26.872   5.291   5.880
 3693POPC   C1A48639  26.729   4.798   6.143
 3693POPC   D2A48640  26.896   4.940   6.537
 3693POPC   C3A48641  26.814   4.801   6.962
 3693POPC   C4A48642  27.014   5.053   7.325
 3693POPC   C1B48643  26.547   5.279   6.149
 3693POPC   C2B48644  26.467   5.328   6.572
 3693POPC   C3B48645  26.720   5.302   6.910
 3693POPC   C4B48646  26.626   5.384   7.330
 3694POPC   NC348647   9.202   4.592   5.250
 3694POPC   PO448648   8.969   3.922   5.347
 3694POPC   GL148649   9.179   4.187   5.620
 3694POPC   GL248650   8.938   4.439   5.708
 3694POPC   C1A48651   9.319   4.168   6.073
 3694POPC   D2A48652   9.146   4.195   6.519
 3694POPC   C3A48653   9.399   4.302   6.884
 3694POPC   C4A48654   9.602   4.531   7.200
 3694POPC   C1B48655   8.808   4.231   6.124
 3694POPC   C2B48656   8.660   4.487   6.491
 3694POPC   C3B48657   8.786   4.604   6.921
 3694POPC   C4B48658   9.088   4.514   7.253
 3695POPC   NC348659   3.607  18.471   5.562
 3695POPC   PO448660   3.423  17.902   5.191
 3695POPC   GL148661   3.590  17.995   5.691
 3695POPC   GL248662   3.370  18.201   5.973
 3695POPC   C1A48663   3.837  18.165   6.118
 3695POPC   D2A48664   3.907  18.256   6.614
 3695POPC   C3A48665   3.741  18.201   7.076
 3695POPC   C4A48666   3.341  18.207   7.314
 3695POPC   C1B48667   3.503  18.497   6.302
 3695POPC   C2B48668   3.431  18.485   6.741
 3695POPC   C3B48669   3.521  18.655   7.125
 3695POPC   C4B48670   3.695  18.537   7.491
 3696POPC   NC348671   7.162  18.563   5.325
 3696POPC   PO448672   7.716  18.217   5.488
 3696POPC   GL148673   7.402  18.356   5.770
 3696POPC   GL248674   7.246  18.060   5.786
 3696POPC   C1A48675   7.378  18.275   6.237
 3696POPC   D2A48676   7.489  18.241   6.692
 3696POPC   C3A48677   7.418  18.450   7.069
 3696POPC   C4A48678   7.591  18.474   7.499
 3696POPC   C1B48679   7.005  17.913   6.112
 3696POPC   C2B48680   6.983  18.109   6.513
 3696POPC   C3B48681   7.078  18.000   6.919
 3696POPC   C4B48682   7.010  18.244   7.278
 3697POPC   NC348683   4.044  30.979   5.592
 3697POPC   PO448684   3.408  30.860   5.439
 3697POPC   GL148685   3.620  30.796   5.848
 3697POPC   GL248686   3.906  30.949   6.070
 3697POPC   C1A48687   3.477  30.534   6.197
 3697POPC   D2A48688   3.159  30.382   6.488
 3697POPC   C3A48689   3.332  30.523   6.833
 3697POPC   C4A48690   3.196  30.585   7.223
 3697POPC   C1B48691   3.984  30.521   6.150
 3697POPC   C2B48692   3.918  30.264   6.494
 3697POPC   C3B48693   3.901  30.354   6.910
 3697POPC   C4B48694   3.715  30.690   7.126
 3698POPC   NC348695  19.757  16.999   5.392
 3698POPC   PO448696  19.963  16.284   5.389
 3698POPC   GL148697  19.912  16.578   5.779
 3698POPC   GL248698  20.026  16.916   5.807
 3698POPC   C1A48699  19.953  16.620   6.248
 3698POPC   D2A48700  20.103  16.519   6.670
 3698POPC   C3A48701  19.854  16.631   7.055
 3698POPC   C4A48702  19.449  16.572   7.298
 3698POPC   C1B48703  19.745  17.062   6.127
 3698POPC   C2B48704  19.657  16.918   6.571
 3698POPC   C3B48705  19.716  17.124   6.968
 3698POPC   C4B48706  19.948  17.106   7.304
 3699POPC   NC348707   1.983  41.128   5.519
 3699POPC   PO448708   1.712  40.411   5.435
 3699POPC   GL148709   1.941  40.673   5.761
 3699POPC   GL248710   2.314  40.626   5.745
 3699POPC   C1A48711   1.835  40.887   6.157
 3699POPC   D2A48712   1.607  40.731   6.534
 3699POPC   C3A48713   1.762  40.842   6.945
 3699POPC   C4A48714   1.845  41.073   7.292
 3699POPC   C1B48715   2.360  40.748   6.198
 3699POPC   C2B48716   2.139  40.859   6.580
 3699POPC   C3B48717   2.268  40.973   7.002
 3699POPC   C4B48718   2.310  40.835   7.421
 3700POPC   NC348719  29.027  17.654   5.431
 3700POPC   PO448720  28.798  17.045   5.476
 3700POPC   GL148721  28.976  17.306   5.847
 3700POPC   GL248722  29.297  17.475   5.834
 3700POPC   C1A48723  29.078  17.436   6.307
 3700POPC   D2A48724  29.132  17.611   6.755
 3700POPC   C3A48725  29.135  17.327   7.114
 3700POPC   C4A48726  29.345  17.078   7.439
 3700POPC   C1B48727  29.425  17.795   6.156
 3700POPC   C2B48728  29.598  17.788   6.584
 3700POPC   C3B48729  29.542  17.856   7.019
 3700POPC   C4B48730  29.158  17.864   7.236
 3701POPC   NC348731  44.335  42.089   5.461
 3701POPC   PO448732  44.513  42.710   5.267
 3701POPC   GL148733  44.735  42.591   5.679
 3701POPC   GL248734  44.628  42.236   5.837
 3701POPC   C1A48735  44.652  42.647   6.144
 3701POPC   D2A48736  44.607  42.274   6.419
 3701POPC   C3A48737  44.655  42.223   6.867
 3701POPC   C4A48738  44.689  42.431   7.263
 3701POPC   C1B48739  44.281  42.031   6.101
 3701POPC   C2B48740  44.249  41.909   6.533
 3701POPC   C3B48741  44.434  41.779   6.918
 3701POPC   C4B48742  44.347  42.036   7.290
 3702POPC   NC348743   5.507  34.229   5.456
 3702POPC   PO448744   6.139  33.962   5.280
 3702POPC   GL148745   5.856  33.904   5.674
 3702POPC   GL248746   5.630  33.567   5.688
 3702POPC   C1A48747   5.949  34.002   6.117
 3702POPC   D2A48748   6.175  34.018   6.502
 3702POPC   C3A48749   6.070  33.811   6.864
 3702POPC   C4A48750   5.970  33.923   7.265
 3702POPC   C1B48751   5.578  33.671   6.101
 3702POPC   C2B48752   5.683  33.711   6.549
 3702POPC   C3B48753   5.577  33.695   7.019
 3702POPC   C4B48754   5.632  33.531   7.463
 3703POPC   NC348755   0.803  13.791   5.472
 3703POPC   PO448756   0.259  13.409   5.398
 3703POPC   GL148757   0.387  13.566   5.759
 3703POPC   GL248758   0.520  13.260   5.844
 3703POPC   C1A48759   0.409  13.774   6.154
 3703POPC   D2A48760   0.452  13.609   6.570
 3703POPC   C3A48761   0.238  13.846   6.897
 3703POPC   C4A48762   0.343  13.741   7.305
 3703POPC   C1B48763   0.824  13.479   6.099
 3703POPC   C2B48764   0.982  13.687   6.472
 3703POPC   C3B48765   0.869  13.588   6.895
 3703POPC   C4B48766   0.926  13.501   7.306
 3704POPC   NC348767  34.966  37.229   5.415
 3704POPC   PO448768  34.869  36.624   5.126
 3704POPC   GL148769  34.789  36.628   5.682
 3704POPC   GL248770  34.535  36.798   5.789
 3704POPC   C1A48771  34.928  36.688   6.175
 3704POPC   D2A48772  34.979  36.889   6.632
 3704POPC   C3A48773  34.692  36.832   7.025
 3704POPC   C4A48774  34.604  36.725   7.451
 3704POPC   C1B48775  34.408  36.719   6.209
 3704POPC   C2B48776  34.472  36.904   6.579
 3704POPC   C3B48777  34.269  37.138   6.891
 3704POPC   C4B48778  34.241  37.079   7.329
 3705POPC   NC348779  13.587  22.415   5.486
 3705POPC   PO448780  13.156  21.970   5.254
 3705POPC   GL148781  13.576  21.961   5.695
 3705POPC   GL248782  13.393  22.009   6.059
 3705POPC   C1A48783  13.861  22.132   6.121
 3705POPC   D2A48784  13.812  22.317   6.554
 3705POPC   C3A48785  13.610  22.142   6.916
 3705POPC   C4A48786  13.751  21.845   7.228
 3705POPC   C1B48787  13.212  22.409   6.290
 3705POPC   C2B48788  13.115  22.525   6.691
 3705POPC   C3B48789  13.138  22.683   7.088
 3705POPC   C4B48790  13.329  22.400   7.288
 3706POPC   NC348791  21.630  36.771   5.332
 3706POPC   PO448792  21.257  37.264   5.593
 3706POPC   GL148793  21.441  36.904   5.779
 3706POPC   GL248794  21.165  36.722   5.677
 3706POPC   C1A48795  21.562  36.843   6.196
 3706POPC   D2A48796  21.416  37.102   6.535
 3706POPC   C3A48797  21.629  36.996   6.921
 3706POPC   C4A48798  21.417  37.022   7.296
 3706POPC   C1B48799  21.047  36.871   6.101
 3706POPC   C2B48800  21.076  36.717   6.502
 3706POPC   C3B48801  21.120  36.859   6.895
 3706POPC   C4B48802  20.929  36.854   7.289
 3707POPC   NC348803   2.490  28.341   5.162
 3707POPC   PO448804   3.108  28.196   5.458
 3707POPC   GL148805   2.866  28.447   5.739
 3707POPC   GL248806   2.508  28.350   5.710
 3707POPC   C1A48807   2.989  28.669   6.122
 3707POPC   D2A48808   2.854  28.543   6.497
 3707POPC   C3A48809   2.742  28.676   6.886
 3707POPC   C4A48810   2.797  28.476   7.277
 3707POPC   C1B48811   2.558  28.265   6.173
 3707POPC   C2B48812   2.404  28.357   6.624
 3707POPC   C3B48813   2.368  28.327   7.081
 3707POPC   C4B48814   2.453  28.252   7.562
 3708POPC   NC348815  34.420   3.088   5.450
 3708POPC   PO448816  34.732   3.686   5.477
 3708POPC   GL148817  34.589   3.588   5.900
 3708POPC   GL248818  34.294   3.394   5.889
 3708POPC   C1A48819  34.425   3.778   6.308
 3708POPC   D2A48820  34.373   3.858   6.764
 3708POPC   C3A48821  34.787   3.834   7.013
 3708POPC   C4A48822  34.933   3.511   7.248
 3708POPC   C1B48823  34.542   3.240   6.281
 3708POPC   C2B48824  34.620   3.436   6.679
 3708POPC   C3B48825  34.447   3.457   7.092
 3708POPC   C4B48826  34.562   3.170   7.410
 3709POPC   NC348827  13.016   3.849   5.200
 3709POPC   PO448828  12.655   3.331   5.182
 3709POPC   GL148829  12.839   3.603   5.594
 3709POPC   GL248830  12.594   3.751   5.819
 3709POPC   C1A48831  13.036   3.614   6.034
 3709POPC   D2A48832  12.809   3.481   6.406
 3709POPC   C3A48833  12.991   3.407   6.810
 3709POPC   C4A48834  12.871   3.346   7.207
 3709POPC   C1B48835  12.647   3.955   6.203
 3709POPC   C2B48836  12.839   3.947   6.607
 3709POPC   C3B48837  12.680   3.831   7.011
 3709POPC   C4B48838  12.977   3.819   7.343
 3710POPC   NC348839   6.443   1.265   5.424
 3710POPC   PO448840   6.995   0.949   5.224
 3710POPC   GL148841   6.938   1.069   5.718
 3710POPC   GL248842   6.586   1.110   5.888
 3710POPC   C1A48843   6.988   1.210   6.155
 3710POPC   D2A48844   6.683   1.196   6.471
 3710POPC   C3A48845   6.814   1.204   6.901
 3710POPC   C4A48846   6.811   1.402   7.310
 3710POPC   C1B48847   6.254   0.933   6.150
 3710POPC   C2B48848   6.181   1.150   6.507
 3710POPC   C3B48849   6.320   1.309   6.889
 3710POPC   C4B48850   6.409   1.082   7.277
 3711POPC   NC348851  21.734  17.552   5.451
 3711POPC   PO448852  21.088  17.712   5.364
 3711POPC   GL148853  21.261  17.449   5.739
 3711POPC   GL248854  21.484  17.139   5.713
 3711POPC   C1A48855  21.359  17.643   6.146
 3711POPC   D2A48856  21.321  17.747   6.584
 3711POPC   C3A48857  21.005  17.713   6.873
 3711POPC   C4A48858  21.193  17.452   7.150
 3711POPC   C1B48859  21.680  17.243   6.097
 3711POPC   C2B48860  21.599  17.310   6.523
 3711POPC   C3B48861  21.688  17.437   6.929
 3711POPC   C4B48862  21.878  17.206   7.227
 3712POPC   NC348863  42.253  19.268   5.487
 3712POPC   PO448864  41.904  18.730   5.555
 3712POPC   GL148865  42.169  18.965   5.874
 3712POPC   GL248866  42.542  18.963   5.812
 3712POPC   C1A48867  42.234  19.343   6.146
 3712POPC   D2A48868  42.414  19.483   6.548
 3712POPC   C3A48869  42.444  19.293   6.961
 3712POPC   C4A48870  42.246  19.349   7.384
 3712POPC   C1B48871  42.550  18.955   6.264
 3712POPC   C2B48872  42.657  18.899   6.692
 3712POPC   C3B48873  42.433  18.786   7.064
 3712POPC   C4B48874  42.468  18.883   7.506
 3713POPC   NC348875  28.966  20.102   5.461
 3713POPC   PO448876  28.866  19.490   5.512
 3713POPC   GL148877  28.984  19.783   5.864
 3713POPC   GL248878  29.337  19.890   5.759
 3713POPC   C1A48879  28.921  19.689   6.304
 3713POPC   D2A48880  29.033  19.534   6.751
 3713POPC   C3A48881  28.973  19.778   7.107
 3713POPC   C4A48882  29.053  20.218   7.069
 3713POPC   C1B48883  29.434  19.734   6.182
 3713POPC   C2B48884  29.292  19.933   6.570
 3713POPC   C3B48885  29.457  19.787   6.943
 3713POPC   C4B48886  29.511  19.918   7.324
 3714POPC   NC348887  11.587  28.617   5.259
 3714POPC   PO448888  10.955  28.223   5.439
 3714POPC   GL148889  11.176  28.405   5.749
 3714POPC   GL248890  11.375  28.680   5.731
 3714POPC   C1A48891  11.142  28.357   6.171
 3714POPC   D2A48892  11.171  28.147   6.530
 3714POPC   C3A48893  11.113  28.360   6.883
 3714POPC   C4A48894  10.927  28.225   7.230
 3714POPC   C1B48895  11.337  28.872   6.150
 3714POPC   C2B48896  11.332  29.056   6.566
 3714POPC   C3B48897  11.352  28.828   6.960
 3714POPC   C4B48898  11.244  28.612   7.329
 3715POPC   NC348899  26.230  38.937   5.432
 3715POPC   PO448900  26.183  39.565   5.110
 3715POPC   GL148901  26.045  39.464   5.612
 3715POPC   GL248902  25.856  39.136   5.762
 3715POPC   C1A48903  26.027  39.573   6.116
 3715POPC   D2A48904  26.173  39.398   6.578
 3715POPC   C3A48905  25.936  39.371   7.022
 3715POPC   C4A48906  26.046  39.358   7.497
 3715POPC   C1B48907  25.956  39.072   6.221
 3715POPC   C2B48908  25.799  39.010   6.661
 3715POPC   C3B48909  25.846  38.874   7.118
 3715POPC   C4B48910  25.768  38.937   7.566
 3716POPC   NC348911   5.914  35.896   5.275
 3716POPC   PO448912   5.662  35.303   5.219
 3716POPC   GL148913   5.699  35.205   5.723
 3716POPC   GL248914   6.010  35.301   5.842
 3716POPC   C1A48915   5.666  35.385   6.215
 3716POPC   D2A48916   5.899  35.255   6.646
 3716POPC   C3A48917   5.744  35.397   7.070
 3716POPC   C4A48918   5.376  35.393   7.382
 3716POPC   C1B48919   6.182  35.415   6.231
 3716POPC   C2B48920   6.404  35.358   6.605
 3716POPC   C3B48921   6.266  35.384   7.005
 3716POPC   C4B48922   6.199  35.563   7.371
 3717POPC   NC348923  43.627  17.602   5.359
 3717POPC   PO448924  44.215  17.432   5.306
 3717POPC   GL148925  44.154  17.567   5.721
 3717POPC   GL248926  43.840  17.390   5.774
 3717POPC   C1A48927  44.020  17.672   6.166
 3717POPC   D2A48928  43.842  17.495   6.551
 3717POPC   C3A48929  44.063  17.560   6.961
 3717POPC   C4A48930  44.121  17.790   7.367
 3717POPC   C1B48931  43.599  17.244   6.110
 3717POPC   C2B48932  43.468  17.153   6.533
 3717POPC   C3B48933  43.619  17.274   6.975
 3717POPC   C4B48934  43.805  17.384   7.380
 3718POPC   NC348935  42.586  39.312   5.422
 3718POPC   PO448936  41.991  39.147   5.287
 3718POPC   GL148937  42.089  39.030   5.736
 3718POPC   GL248938  42.421  39.167   5.883
 3718POPC   C1A48939  41.998  39.021   6.185
 3718POPC   D2A48940  42.082  39.232   6.566
 3718POPC   C3A48941  42.114  39.155   6.989
 3718POPC   C4A48942  42.086  39.472   7.295
 3718POPC   C1B48943  42.449  39.428   6.261
 3718POPC   C2B48944  42.556  39.289   6.701
 3718POPC   C3B48945  42.567  39.454   7.127
 3718POPC   C4B48946  42.501  39.316   7.575
 3719POPC   NC348947  25.983   2.095   5.374
 3719POPC   PO448948  25.674   1.606   5.535
 3719POPC   GL148949  26.008   1.828   5.836
 3719POPC   GL248950  26.215   2.136   5.837
 3719POPC   C1A48951  26.262   1.836   6.248
 3719POPC   D2A48952  26.189   2.014   6.672
 3719POPC   C3A48953  25.893   1.783   6.944
 3719POPC   C4A48954  25.887   1.705   7.386
 3719POPC   C1B48955  25.902   2.227   6.178
 3719POPC   C2B48956  25.672   2.329   6.580
 3719POPC   C3B48957  25.804   2.298   6.987
 3719POPC   C4B48958  26.167   2.154   7.193
 3720POPC   NC348959  21.824  25.591   5.574
 3720POPC   PO448960  22.246  25.121   5.270
 3720POPC   GL148961  22.085  25.078   5.693
 3720POPC   GL248962  22.198  25.349   5.834
 3720POPC   C1A48963  22.066  25.031   6.189
 3720POPC   D2A48964  21.799  24.930   6.549
 3720POPC   C3A48965  21.802  25.090   6.974
 3720POPC   C4A48966  22.106  25.248   7.256
 3720POPC   C1B48967  22.140  25.697   6.132
 3720POPC   C2B48968  22.236  25.687   6.537
 3720POPC   C3B48969  22.047  25.594   6.897
 3720POPC   C4B48970  22.217  25.744   7.288
 3721POPC   NC348971   9.751   3.194   5.512
 3721POPC   PO448972   9.968   3.890   5.390
 3721POPC   GL148973   9.839   3.651   5.718
 3721POPC   GL248974   9.483   3.644   5.789
 3721POPC   C1A48975   9.869   3.524   6.138
 3721POPC   D2A48976   9.980   3.658   6.524
 3721POPC   C3A48977   9.788   3.502   6.880
 3721POPC   C4A48978   9.922   3.597   7.283
 3721POPC   C1B48979   9.426   3.267   6.077
 3721POPC   C2B48980   9.587   3.230   6.492
 3721POPC   C3B48981   9.463   3.092   6.889
 3721POPC   C4B48982   9.631   3.141   7.286
 3722POPC   NC348983  29.217  32.794   5.290
 3722POPC   PO448984  29.029  33.462   5.290
 3722POPC   GL148985  29.214  33.215   5.676
 3722POPC   GL248986  29.114  32.864   5.773
 3722POPC   C1A48987  29.415  33.293   6.130
 3722POPC   D2A48988  29.469  33.055   6.558
 3722POPC   C3A48989  29.267  33.196   6.985
 3722POPC   C4A48990  29.167  33.060   7.412
 3722POPC   C1B48991  29.056  32.917   6.206
 3722POPC   C2B48992  28.973  32.993   6.633
 3722POPC   C3B48993  29.048  32.734   6.972
 3722POPC   C4B48994  28.647  32.619   7.017
 3723POPC   NC348995   3.387  19.415   5.318
 3723POPC   PO448996   3.688  18.788   5.224
 3723POPC   GL148997   3.515  18.984   5.596
 3723POPC   GL248998   3.694  19.249   5.749
 3723POPC   C1A48999   3.382  18.945   6.040
 3723POPC   D2A49000   3.463  18.978   6.499
 3723POPC   C3A49001   3.212  18.962   6.869
 3723POPC   C4A49002   3.346  19.098   7.275
 3723POPC   C1B49003   3.834  19.152   6.179
 3723POPC   C2B49004   3.998  19.266   6.577
 3723POPC   C3B49005   3.888  19.400   6.936
 3723POPC   C4B49006   3.841  19.070   7.216
 3724POPC   NC349007  22.093  33.987   5.186
 3724POPC   PO449008  22.202  33.380   5.278
 3724POPC   GL149009  22.111  33.638   5.669
 3724POPC   GL249010  22.030  34.000   5.715
 3724POPC   C1A49011  22.378  33.800   6.020
 3724POPC   D2A49012  22.303  33.859   6.443
 3724POPC   C3A49013  22.442  33.635   6.816
 3724POPC   C4A49014  22.321  33.332   7.130
 3724POPC   C1B49015  21.862  33.893   6.137
 3724POPC   C2B49016  21.861  34.079   6.567
 3724POPC   C3B49017  22.045  33.966   6.953
 3724POPC   C4B49018  21.872  33.879   7.385
 3725POPC   NC349019  40.871  15.373   5.306
 3725POPC   PO449020  40.551  14.885   5.221
 3725POPC   GL149021  40.539  15.017   5.700
 3725POPC   GL249022  40.683  15.329   5.786
 3725POPC   C1A49023  40.728  15.033   6.177
 3725POPC   D2A49024  40.775  14.784   6.561
 3725POPC   C3A49025  40.689  15.034   6.915
 3725POPC   C4A49026  40.931  15.072   7.253
 3725POPC   C1B49027  40.636  15.557   6.182
 3725POPC   C2B49028  40.827  15.477   6.557
 3725POPC   C3B49029  41.041  15.639   6.889
 3725POPC   C4B49030  40.964  15.587   7.321
 3726POPC   NC349031  31.581  32.290   5.201
 3726POPC   PO449032  31.139  31.907   5.432
 3726POPC   GL149033  31.508  32.001   5.685
 3726POPC   GL249034  31.457  32.216   5.950
 3726POPC   C1A49035  31.751  31.845   6.081
 3726POPC   D2A49036  31.768  31.752   6.535
 3726POPC   C3A49037  31.656  32.047   6.878
 3726POPC   C4A49038  31.684  32.399   7.182
 3726POPC   C1B49039  31.511  32.220   6.380
 3726POPC   C2B49040  31.442  32.524   6.706
 3726POPC   C3B49041  31.211  32.365   7.007
 3726POPC   C4B49042  31.155  32.495   7.394
 3727POPC   NC349043   7.085   5.503   5.408
 3727POPC   PO449044   7.520   4.947   5.366
 3727POPC   GL149045   7.401   5.171   5.723
 3727POPC   GL249046   7.063   5.120   5.805
 3727POPC   C1A49047   7.536   5.023   6.122
 3727POPC   D2A49048   7.386   4.913   6.536
 3727POPC   C3A49049   7.719   4.963   6.863
 3727POPC   C4A49050   7.584   4.994   7.307
 3727POPC   C1B49051   7.168   5.339   6.212
 3727POPC   C2B49052   7.132   5.472   6.655
 3727POPC   C3B49053   7.187   5.212   7.040
 3727POPC   C4B49054   7.244   5.343   7.486
 3728POPC   NC349055   8.469  15.458   5.293
 3728POPC   PO449056   8.018  14.935   5.352
 3728POPC   GL149057   8.243  15.047   5.704
 3728POPC   GL249058   8.156  15.392   5.724
 3728POPC   C1A49059   8.247  15.104   6.150
 3728POPC   D2A49060   8.513  15.011   6.487
 3728POPC   C3A49061   8.274  15.090   6.812
 3728POPC   C4A49062   8.129  14.963   7.219
 3728POPC   C1B49063   8.476  15.534   5.994
 3728POPC   C2B49064   8.434  15.541   6.455
 3728POPC   C3B49065   8.471  15.615   6.893
 3728POPC   C4B49066   8.581  15.281   7.152
 3729POPC   NC349067  35.103  27.701   5.303
 3729POPC   PO449068  35.777  27.514   5.504
 3729POPC   GL149069  35.437  27.653   5.724
 3729POPC   GL249070  35.145  27.430   5.754
 3729POPC   C1A49071  35.382  27.734   6.125
 3729POPC   D2A49072  35.364  27.521   6.483
 3729POPC   C3A49073  35.331  27.680   6.866
 3729POPC   C4A49074  35.405  27.416   7.185
 3729POPC   C1B49075  34.970  27.356   6.185
 3729POPC   C2B49076  34.924  27.330   6.639
 3729POPC   C3B49077  34.930  27.315   7.062
 3729POPC   C4B49078  34.986  27.247   7.510
 3730POPC   NC349079   7.910  27.928   5.168
 3730POPC   PO449080   8.005  27.330   5.271
 3730POPC   GL149081   8.180  27.536   5.665
 3730POPC   GL249082   8.562  27.561   5.700
 3730POPC   C1A49083   8.079  27.600   6.138
 3730POPC   D2A49084   8.056  27.384   6.568
 3730POPC   C3A49085   7.903  27.577   6.972
 3730POPC   C4A49086   7.868  27.931   7.269
 3730POPC   C1B49087   8.582  27.796   6.089
 3730POPC   C2B49088   8.628  27.989   6.501
 3730POPC   C3B49089   8.631  27.804   6.881
 3730POPC   C4B49090   8.353  27.724   7.215
 3731POPC   NC349091  37.425  13.047   5.475
 3731POPC   PO449092  37.952  12.654   5.394
 3731POPC   GL149093  37.983  12.942   5.768
 3731POPC   GL249094  38.084  12.629   5.941
 3731POPC   C1A49095  37.685  13.165   6.100
 3731POPC   D2A49096  37.407  12.938   6.404
 3731POPC   C3A49097  37.415  12.965   6.834
 3731POPC   C4A49098  37.577  12.671   7.130
 3731POPC   C1B49099  37.975  12.834   6.345
 3731POPC   C2B49100  37.852  13.198   6.606
 3731POPC   C3B49101  37.890  13.103   7.026
 3731POPC   C4B49102  38.118  12.870   7.328
 3732POPC   NC349103   8.266  17.490   5.015
 3732POPC   PO449104   7.951  17.245   5.466
 3732POPC   GL149105   8.022  17.311   5.891
 3732POPC   GL249106   8.332  17.496   5.948
 3732POPC   C1A49107   7.901  17.186   6.314
 3732POPC   D2A49108   7.876  17.410   6.717
 3732POPC   C3A49109   8.150  17.294   7.046
 3732POPC   C4A49110   8.366  17.483   7.403
 3732POPC   C1B49111   8.017  17.694   6.219
 3732POPC   C2B49112   7.972  17.934   6.576
 3732POPC   C3B49113   8.160  17.805   6.954
 3732POPC   C4B49114   7.917  17.691   7.291
 3733POPC   NC349115  28.159  20.390   5.598
 3733POPC   PO449116  28.604  20.102   5.146
 3733POPC   GL149117  28.541  19.963   5.674
 3733POPC   GL249118  28.274  19.946   5.840
 3733POPC   C1A49119  28.638  20.093   6.170
 3733POPC   D2A49120  28.787  20.034   6.645
 3733POPC   C3A49121  28.548  20.037   7.024
 3733POPC   C4A49122  28.315  19.677   7.167
 3733POPC   C1B49123  28.124  20.050   6.223
 3733POPC   C2B49124  28.282  20.167   6.611
 3733POPC   C3B49125  28.027  20.037   6.949
 3733POPC   C4B49126  27.804  19.809   7.255
 3734POPC   NC349127  20.414  18.257   5.567
 3734POPC   PO449128  20.909  18.663   5.388
 3734POPC   GL149129  20.781  18.492   5.811
 3734POPC   GL249130  20.419  18.622   5.919
 3734POPC   C1A49131  20.778  18.313   6.260
 3734POPC   D2A49132  20.970  18.210   6.673
 3734POPC   C3A49133  20.751  18.176   7.061
 3734POPC   C4A49134  20.753  18.329   7.464
 3734POPC   C1B49135  20.301  18.502   6.323
 3734POPC   C2B49136  20.393  18.419   6.776
 3734POPC   C3B49137  20.325  18.494   7.249
 3734POPC   C4B49138  20.269  18.644   7.704
 3735POPC   NC349139  29.858   6.377   5.368
 3735POPC   PO449140  30.303   6.990   5.342
 3735POPC   GL149141  30.164   6.757   5.726
 3735POPC   GL249142  29.812   6.695   5.837
 3735POPC   C1A49143  30.204   6.675   6.189
 3735POPC   D2A49144  30.310   6.828   6.641
 3735POPC   C3A49145  29.996   6.685   6.954
 3735POPC   C4A49146  29.649   6.626   7.235
 3735POPC   C1B49147  29.581   6.307   6.028
 3735POPC   C2B49148  29.536   6.118   6.458
 3735POPC   C3B49149  29.548   6.251   6.886
 3735POPC   C4B49150  29.583   6.122   7.289
 3736POPC   NC349151   6.379   3.028   5.576
 3736POPC   PO449152   6.810   2.926   5.101
 3736POPC   GL149153   6.848   2.887   5.633
 3736POPC   GL249154   6.608   2.590   5.757
 3736POPC   C1A49155   6.744   2.927   6.133
 3736POPC   D2A49156   6.861   3.104   6.586
 3736POPC   C3A49157   6.796   2.884   7.018
 3736POPC   C4A49158   6.787   2.597   7.392
 3736POPC   C1B49159   6.313   2.558   6.143
 3736POPC   C2B49160   6.268   2.609   6.604
 3736POPC   C3B49161   6.476   2.461   7.002
 3736POPC   C4B49162   6.335   2.376   7.433
 3737POPC   NC349163  31.980  26.138   5.536
 3737POPC   PO449164  32.627  25.874   5.453
 3737POPC   GL149165  32.382  25.964   5.802
 3737POPC   GL249166  32.450  26.258   5.903
 3737POPC   C1A49167  32.107  25.957   6.189
 3737POPC   D2A49168  31.955  26.154   6.571
 3737POPC   C3A49169  32.216  26.279   6.946
 3737POPC   C4A49170  32.328  26.028   7.301
 3737POPC   C1B49171  32.602  26.065   6.272
 3737POPC   C2B49172  32.440  25.922   6.652
 3737POPC   C3B49173  32.689  25.845   7.006
 3737POPC   C4B49174  32.860  26.196   7.233
 3738POPC   NC349175   1.307  21.043   5.516
 3738POPC   PO449176   1.152  20.402   5.329
 3738POPC   GL149177   1.215  20.556   5.728
 3738POPC   GL249178   0.987  20.310   5.905
 3738POPC   C1A49179   1.403  20.529   6.145
 3738POPC   D2A49180   1.254  20.373   6.563
 3738POPC   C3A49181   1.352  20.599   6.954
 3738POPC   C4A49182   1.565  20.476   7.337
 3738POPC   C1B49183   0.919  20.663   6.199
 3738POPC   C2B49184   1.002  20.842   6.603
 3738POPC   C3B49185   0.889  20.833   7.040
 3738POPC   C4B49186   1.061  20.566   7.403
 3739POPC   NC349187  43.700  41.772   5.362
 3739POPC   PO449188  44.017  41.225   5.543
 3739POPC   GL149189  43.787  41.465   5.881
 3739POPC   GL249190  43.813  41.844   5.847
 3739POPC   C1A49191  43.804  41.348   6.336
 3739POPC   D2A49192  44.168  41.418   6.623
 3739POPC   C3A49193  44.069  41.428   7.051
 3739POPC   C4A49194  43.720  41.299   7.314
 3739POPC   C1B49195  43.796  41.849   6.276
 3739POPC   C2B49196  43.726  41.730   6.696
 3739POPC   C3B49197  43.946  41.930   7.000
 3739POPC   C4B49198  43.951  41.749   7.432
 3740POPC   NC349199  32.083  21.469   5.471
 3740POPC   PO449200  32.783  21.400   5.680
 3740POPC   GL149201  32.407  21.462   5.880
 3740POPC   GL249202  32.638  21.673   6.085
 3740POPC   C1A49203  32.200  21.505   6.290
 3740POPC   D2A49204  32.387  21.712   6.633
 3740POPC   C3A49205  32.142  21.546   6.960
 3740POPC   C4A49206  31.873  21.820   7.184
 3740POPC   C1B49207  32.638  21.259   6.309
 3740POPC   C2B49208  32.637  21.273   6.765
 3740POPC   C3B49209  32.496  21.258   7.190
 3740POPC   C4B49210  32.575  21.222   7.651
 3741POPC   NC349211   3.955  13.789   5.634
 3741POPC   PO449212   3.500  13.353   5.467
 3741POPC   GL149213   3.464  13.597   5.816
 3741POPC   GL249214   3.196  13.813   5.782
 3741POPC   C1A49215   3.465  13.531   6.266
 3741POPC   D2A49216   3.591  13.755   6.650
 3741POPC   C3A49217   3.824  13.550   6.978
 3741POPC   C4A49218   3.614  13.266   7.246
 3741POPC   C1B49219   3.405  14.034   6.133
 3741POPC   C2B49220   3.203  14.124   6.553
 3741POPC   C3B49221   3.231  14.091   7.029
 3741POPC   C4B49222   3.664  14.001   7.159
 3742POPC   NC349223  29.748  30.289   5.544
 3742POPC   PO449224  30.141  29.758   5.395
 3742POPC   GL149225  30.029  29.919   5.769
 3742POPC   GL249226  30.203  30.234   5.761
 3742POPC   C1A49227  29.917  29.731   6.164
 3742POPC   D2A49228  29.997  29.890   6.564
 3742POPC   C3A49229  29.890  29.699   6.951
 3742POPC   C4A49230  29.798  29.611   7.375
 3742POPC   C1B49231  29.928  30.235   6.168
 3742POPC   C2B49232  29.943  30.397   6.572
 3742POPC   C3B49233  29.764  30.216   6.915
 3742POPC   C4B49234  29.852  30.110   7.330
 3743POPC   NC349235  37.824  18.062   5.427
 3743POPC   PO449236  37.678  18.714   5.635
 3743POPC   GL149237  37.855  18.343   5.853
 3743POPC   GL249238  37.568  18.092   5.870
 3743POPC   C1A49239  37.851  18.233   6.291
 3743POPC   D2A49240  37.614  18.459   6.598
 3743POPC   C3A49241  37.853  18.473   6.950
 3743POPC   C4A49242  37.730  18.358   7.316
 3743POPC   C1B49243  37.331  18.194   6.241
 3743POPC   C2B49244  37.328  18.058   6.663
 3743POPC   C3B49245  37.574  18.002   6.987
 3743POPC   C4B49246  37.622  17.868   7.404
 3744POPC   NC349247  32.988  11.595   5.337
 3744POPC   PO449248  32.997  10.982   5.541
 3744POPC   GL149249  33.046  11.343   5.823
 3744POPC   GL249250  32.769  11.563   5.877
 3744POPC   C1A49251  33.027  11.380   6.283
 3744POPC   D2A49252  33.018  11.519   6.701
 3744POPC   C3A49253  33.089  11.167   6.963
 3744POPC   C4A49254  33.166  11.277   7.409
 3744POPC   C1B49255  32.613  11.696   6.313
 3744POPC   C2B49256  32.555  11.708   6.766
 3744POPC   C3B49257  32.617  11.427   7.084
 3744POPC   C4B49258  32.719  11.055   7.276
 3745POPC   NC349259  36.124  36.455   5.419
 3745POPC   PO449260  36.310  35.897   5.481
 3745POPC   GL149261  36.077  36.068   5.828
 3745POPC   GL249262  35.992  36.438   5.905
 3745POPC   C1A49263  35.953  36.038   6.244
 3745POPC   D2A49264  35.854  35.924   6.651
 3745POPC   C3A49265  36.232  35.955   6.805
 3745POPC   C4A49266  36.121  36.109   7.160
 3745POPC   C1B49267  35.861  36.569   6.322
 3745POPC   C2B49268  35.985  36.441   6.736
 3745POPC   C3B49269  35.804  36.505   7.135
 3745POPC   C4B49270  35.826  36.256   7.527
 3746POPC   NC349271  27.482  39.973   4.958
 3746POPC   PO449272  27.805  40.217   5.526
 3746POPC   GL149273  27.630  40.070   5.908
 3746POPC   GL249274  27.315  40.244   5.750
 3746POPC   C1A49275  27.856  39.876   6.253
 3746POPC   D2A49276  27.989  39.692   6.638
 3746POPC   C3A49277  27.642  39.775   6.896
 3746POPC   C4A49278  27.634  39.906   7.322
 3746POPC   C1B49279  27.388  40.412   6.155
 3746POPC   C2B49280  27.477  40.145   6.495
 3746POPC   C3B49281  27.368  40.200   6.912
 3746POPC   C4B49282  27.569  40.413   7.239
 3747POPC   NC349283  14.784  24.928   5.183
 3747POPC   PO449284  14.249  24.777   5.190
 3747POPC   GL149285  14.141  24.620   5.688
 3747POPC   GL249286  14.110  24.273   5.817
 3747POPC   C1A49287  14.251  24.605   6.212
 3747POPC   D2A49288  14.478  24.374   6.609
 3747POPC   C3A49289  14.473  24.426   7.089
 3747POPC   C4A49290  14.452  24.747   7.417
 3747POPC   C1B49291  14.192  24.097   6.255
 3747POPC   C2B49292  14.076  24.035   6.702
 3747POPC   C3B49293  14.035  24.187   7.122
 3747POPC   C4B49294  14.338  24.116   7.496
 3748POPC   NC349295  40.812  17.348   5.186
 3748POPC   PO449296  40.750  17.723   5.752
 3748POPC   GL149297  40.689  17.401   5.938
 3748POPC   GL249298  40.812  17.150   5.714
 3748POPC   C1A49299  40.598  17.451   6.371
 3748POPC   D2A49300  40.875  17.651   6.695
 3748POPC   C3A49301  40.746  17.700   7.132
 3748POPC   C4A49302  40.374  17.547   7.413
 3748POPC   C1B49303  40.889  16.993   6.166
 3748POPC   C2B49304  40.885  17.117   6.631
 3748POPC   C3B49305  40.751  17.170   7.071
 3748POPC   C4B49306  41.057  17.147   7.408
 3749POPC   NC349307  40.368  33.976   5.179
 3749POPC   PO449308  39.760  33.872   5.295
 3749POPC   GL149309  40.084  33.985   5.634
 3749POPC   GL249310  40.393  33.820   5.794
 3749POPC   C1A49311  40.001  33.961   6.095
 3749POPC   D2A49312  39.955  33.792   6.516
 3749POPC   C3A49313  40.054  34.001   6.899
 3749POPC   C4A49314  39.698  34.112   7.175
 3749POPC   C1B49315  40.328  33.563   6.220
 3749POPC   C2B49316  40.243  33.424   6.705
 3749POPC   C3B49317  40.163  33.580   7.169
 3749POPC   C4B49318  40.214  33.539   7.633
 3750POPC   NC349319  17.031   0.717   5.277
 3750POPC   PO449320  16.740   0.128   5.194
 3750POPC   GL149321  16.695   0.252   5.690
 3750POPC   GL249322  17.043   0.370   5.797
 3750POPC   C1A49323  16.611   0.483   6.142
 3750POPC   D2A49324  16.786   0.428   6.605
 3750POPC   C3A49325  16.635   0.743   6.919
 3750POPC   C4A49326  16.379   0.712   7.298
 3750POPC   C1B49327  17.117   0.543   6.212
 3750POPC   C2B49328  17.326   0.533   6.613
 3750POPC   C3B49329  17.151   0.669   7.014
 3750POPC   C4B49330  16.829   0.423   7.258
 3751POPC   NC349331  24.275   2.257   5.380
 3751POPC   PO449332  24.757   1.801   5.481
 3751POPC   GL149333  24.702   2.164   5.763
 3751POPC   GL249334  25.071   2.240   5.764
 3751POPC   C1A49335  24.446   2.149   6.169
 3751POPC   D2A49336  24.211   2.263   6.551
 3751POPC   C3A49337  24.374   2.161   6.951
 3751POPC   C4A49338  24.334   2.352   7.373
 3751POPC   C1B49339  24.972   2.056   6.188
 3751POPC   C2B49340  24.752   2.071   6.581
 3751POPC   C3B49341  24.812   1.908   6.970
 3751POPC   C4B49342  24.780   2.098   7.357
 3752POPC   NC349343  31.862   5.387   5.379
 3752POPC   PO449344  31.537   4.872   5.165
 3752POPC   GL149345  31.585   5.022   5.629
 3752POPC   GL249346  31.407   5.270   5.720
 3752POPC   C1A49347  31.679   4.950   6.077
 3752POPC   D2A49348  31.476   4.706   6.364
 3752POPC   C3A49349  31.490   4.812   6.783
 3752POPC   C4A49350  31.512   4.936   7.207
 3752POPC   C1B49351  31.662   5.440   6.076
 3752POPC   C2B49352  31.594   5.256   6.495
 3752POPC   C3B49353  31.554   5.440   6.889
 3752POPC   C4B49354  31.487   5.469   7.313
 3753POPC   NC349355  10.864  19.133   5.370
 3753POPC   PO449356  10.225  18.793   5.344
 3753POPC   GL149357  10.446  18.978   5.759
 3753POPC   GL249358  10.784  19.190   5.863
 3753POPC   C1A49359  10.466  18.993   6.198
 3753POPC   D2A49360  10.825  18.910   6.438
 3753POPC   C3A49361  10.671  18.828   6.824
 3753POPC   C4A49362  10.649  18.905   7.242
 3753POPC   C1B49363  10.770  19.411   6.267
 3753POPC   C2B49364  10.539  19.299   6.640
 3753POPC   C3B49365  10.538  19.374   7.075
 3753POPC   C4B49366  10.869  19.421   7.306
 3754POPC   NC349367  41.767  13.345   5.486
 3754POPC   PO449368  41.092  13.331   5.782
 3754POPC   GL149369  41.473  13.521   5.885
 3754POPC   GL249370  41.498  13.864   5.786
 3754POPC   C1A49371  41.757  13.507   6.226
 3754POPC   D2A49372  41.804  13.640   6.639
 3754POPC   C3A49373  41.754  13.402   7.037
 3754POPC   C4A49374  41.647  13.662   7.402
 3754POPC   C1B49375  41.443  13.919   6.244
 3754POPC   C2B49376  41.402  13.965   6.701
 3754POPC   C3B49377  41.524  14.076   7.124
 3754POPC   C4B49378  41.707  14.134   7.530
 3755POPC   NC349379  34.503   0.233   5.418
 3755POPC   PO449380  34.276   0.849   5.720
 3755POPC   GL149381  34.439   0.425   5.887
 3755POPC   GL249382  34.297   0.036   5.839
 3755POPC   C1A49383  34.746   0.438   6.206
 3755POPC   D2A49384  34.875   0.549   6.627
 3755POPC   C3A49385  34.747   0.317   6.990
 3755POPC   C4A49386  34.559   0.648   7.183
 3755POPC   C1B49387  34.584  44.957   6.166
 3755POPC   C2B49388  34.541   0.134   6.554
 3755POPC   C3B49389  34.267   0.365   6.803
 3755POPC   C4B49390  34.253   0.231   7.209
 3756POPC   NC349391  22.323  43.928   5.468
 3756POPC   PO449392  21.710  44.107   5.207
 3756POPC   GL149393  21.866  43.978   5.704
 3756POPC   GL249394  22.109  44.175   5.862
 3756POPC   C1A49395  22.143  43.710   6.078
 3756POPC   D2A49396  22.404  43.695   6.468
 3756POPC   C3A49397  22.272  43.706   6.925
 3756POPC   C4A49398  22.243  44.086   7.220
 3756POPC   C1B49399  22.034  44.153   6.271
 3756POPC   C2B49400  21.916  43.890   6.594
 3756POPC   C3B49401  21.810  43.903   7.022
 3756POPC   C4B49402  21.862  43.908   7.508
 3757POPC   NC349403   8.353  40.320   5.512
 3757POPC   PO449404   7.922  39.842   5.344
 3757POPC   GL149405   8.117  39.872   5.724
 3757POPC   GL249406   7.959  40.157   5.802
 3757POPC   C1A49407   8.323  39.655   6.067
 3757POPC   D2A49408   8.445  39.760   6.464
 3757POPC   C3A49409   8.180  39.731   6.825
 3757POPC   C4A49410   8.319  39.817   7.241
 3757POPC   C1B49411   8.254  40.162   6.168
 3757POPC   C2B49412   8.319  40.235   6.626
 3757POPC   C3B49413   8.057  40.244   7.009
 3757POPC   C4B49414   7.905  40.491   7.375
 3758POPC   NC349415  24.469  18.709   5.501
 3758POPC   PO449416  24.884  19.251   5.469
 3758POPC   GL149417  24.732  19.008   5.808
 3758POPC   GL249418  24.385  19.152   5.769
 3758POPC   C1A49419  24.468  18.906   6.195
 3758POPC   D2A49420  24.518  19.029   6.611
 3758POPC   C3A49421  24.317  18.767   6.891
 3758POPC   C4A49422  24.363  18.761   7.316
 3758POPC   C1B49423  24.590  19.403   6.084
 3758POPC   C2B49424  24.654  19.528   6.520
 3758POPC   C3B49425  24.476  19.464   6.940
 3758POPC   C4B49426  24.403  19.293   7.364
 3759POPC   NC349427   6.854  16.622   5.490
 3759POPC   PO449428   6.463  17.278   5.453
 3759POPC   GL149429   6.518  16.937   5.752
 3759POPC   GL249430   6.864  16.927   5.901
 3759POPC   C1A49431   6.421  16.690   6.125
 3759POPC   D2A49432   6.591  16.676   6.542
 3759POPC   C3A49433   6.367  16.488   6.870
 3759POPC   C4A49434   6.457  16.619   7.256
 3759POPC   C1B49435   6.937  16.558   6.178
 3759POPC   C2B49436   7.104  16.585   6.597
 3759POPC   C3B49437   6.891  16.483   6.976
 3759POPC   C4B49438   7.067  16.190   7.260
 3760POPC   NC349439  19.415   8.729   5.430
 3760POPC   PO449440  19.292   9.372   5.458
 3760POPC   GL149441  19.097   9.021   5.731
 3760POPC   GL249442  18.795   9.175   5.683
 3760POPC   C1A49443  19.007   8.784   6.156
 3760POPC   D2A49444  19.148   8.566   6.558
 3760POPC   C3A49445  18.911   8.638   6.970
 3760POPC   C4A49446  18.747   8.804   7.362
 3760POPC   C1B49447  18.881   9.277   6.119
 3760POPC   C2B49448  19.038   9.121   6.542
 3760POPC   C3B49449  18.868   9.147   6.943
 3760POPC   C4B49450  18.900   9.416   7.275
 3761POPC   NC349451  22.881  40.852   5.271
 3761POPC   PO449452  23.099  40.232   5.428
 3761POPC   GL149453  22.983  40.545   5.798
 3761POPC   GL249454  22.793  40.885   5.772
 3761POPC   C1A49455  23.044  40.769   6.217
 3761POPC   D2A49456  23.168  40.654   6.647
 3761POPC   C3A49457  23.017  40.766   7.076
 3761POPC   C4A49458  23.081  40.793   7.549
 3761POPC   C1B49459  22.608  41.038   6.158
 3761POPC   C2B49460  22.736  40.972   6.588
 3761POPC   C3B49461  22.635  41.149   6.968
 3761POPC   C4B49462  22.649  41.037   7.391
 3762POPC   NC349463   2.766  27.887   5.542
 3762POPC   PO449464   2.933  27.218   5.573
 3762POPC   GL149465   2.736  27.467   5.837
 3762POPC   GL249466   3.034  27.623   5.930
 3762POPC   C1A49467   2.599  27.632   6.223
 3762POPC   D2A49468   2.843  27.513   6.574
 3762POPC   C3A49469   2.719  27.510   7.011
 3762POPC   C4A49470   3.070  27.545   7.329
 3762POPC   C1B49471   3.036  27.998   6.185
 3762POPC   C2B49472   2.876  28.048   6.608
 3762POPC   C3B49473   2.792  28.010   7.053
 3762POPC   C4B49474   2.432  27.819   7.297
 3763POPC   NC349475  36.646  15.158   5.606
 3763POPC   PO449476  37.065  15.537   5.309
 3763POPC   GL149477  37.100  15.427   5.733
 3763POPC   GL249478  37.135  15.087   5.881
 3763POPC   C1A49479  37.066  15.509   6.159
 3763POPC   D2A49480  37.167  15.296   6.544
 3763POPC   C3A49481  37.092  15.487   6.929
 3763POPC   C4A49482  36.948  15.418   7.353
 3763POPC   C1B49483  36.805  15.044   6.225
 3763POPC   C2B49484  36.729  15.046   6.658
 3763POPC   C3B49485  36.785  15.033   7.076
 3763POPC   C4B49486  36.951  14.931   7.474
 3764POPC   NC349487  40.264   5.530   5.359
 3764POPC   PO449488  40.894   5.842   5.529
 3764POPC   GL149489  40.732   5.791   5.907
 3764POPC   GL249490  40.489   5.520   5.849
 3764POPC   C1A49491  40.796   5.974   6.311
 3764POPC   D2A49492  40.718   6.267   6.620
 3764POPC   C3A49493  40.792   6.060   6.978
 3764POPC   C4A49494  41.164   6.043   7.175
 3764POPC   C1B49495  40.454   5.599   6.298
 3764POPC   C2B49496  40.488   5.706   6.742
 3764POPC   C3B49497  40.525   5.685   7.186
 3764POPC   C4B49498  40.375   6.115   7.353
 3765POPC   NC349499  26.765  42.924   5.634
 3765POPC   PO449500  26.996  43.497   5.349
 3765POPC   GL149501  26.951  43.373   5.801
 3765POPC   GL249502  27.204  43.134   5.763
 3765POPC   C1A49503  26.723  43.259   6.236
 3765POPC   D2A49504  26.640  43.433   6.643
 3765POPC   C3A49505  26.549  43.307   7.070
 3765POPC   C4A49506  26.480  42.925   7.286
 3765POPC   C1B49507  27.166  43.002   6.181
 3765POPC   C2B49508  27.289  43.137   6.600
 3765POPC   C3B49509  27.089  43.346   6.955
 3765POPC   C4B49510  26.962  43.081   7.287
 3766POPC   NC349511   7.148   1.430   5.326
 3766POPC   PO449512   7.771   1.405   5.447
 3766POPC   GL149513   7.453   1.283   5.783
 3766POPC   GL249514   7.430   0.914   5.787
 3766POPC   C1A49515   7.480   1.250   6.259
 3766POPC   D2A49516   7.183   1.430   6.599
 3766POPC   C3A49517   7.272   1.331   7.049
 3766POPC   C4A49518   7.592   1.128   7.235
 3766POPC   C1B49519   7.222   0.754   6.159
 3766POPC   C2B49520   7.097   0.872   6.568
 3766POPC   C3B49521   7.280   0.805   6.949
 3766POPC   C4B49522   7.146   0.900   7.353
 3767POPC   NC349523   8.802  14.677   5.311
 3767POPC   PO449524   9.121  14.092   5.389
 3767POPC   GL149525   8.983  14.358   5.722
 3767POPC   GL249526   8.697  14.576   5.791
 3767POPC   C1A49527   9.116  14.499   6.114
 3767POPC   D2A49528   9.026  14.298   6.506
 3767POPC   C3A49529   9.169  14.478   6.875
 3767POPC   C4A49530   9.219  14.342   7.286
 3767POPC   C1B49531   8.646  14.356   6.185
 3767POPC   C2B49532   8.590  14.504   6.627
 3767POPC   C3B49533   8.729  14.355   7.046
 3767POPC   C4B49534   8.772  14.642   7.408
 3768POPC   NC349535  35.728   4.462   5.392
 3768POPC   PO449536  35.258   4.713   5.110
 3768POPC   GL149537  35.366   4.451   5.702
 3768POPC   GL249538  35.509   4.112   5.727
 3768POPC   C1A49539  35.146   4.364   6.105
 3768POPC   D2A49540  35.238   4.208   6.515
 3768POPC   C3A49541  35.110   4.353   6.953
 3768POPC   C4A49542  35.279   4.490   7.381
 3768POPC   C1B49543  35.632   4.146   6.167
 3768POPC   C2B49544  35.728   4.248   6.599
 3768POPC   C3B49545  35.630   4.364   7.035
 3768POPC   C4B49546  35.726   4.270   7.503
 3769POPC   NC349547  19.357   5.378   5.577
 3769POPC   PO449548  18.780   4.991   5.390
 3769POPC   GL149549  19.030   4.874   5.796
 3769POPC   GL249550  19.262   5.087   5.964
 3769POPC   C1A49551  19.303   4.658   6.192
 3769POPC   D2A49552  19.418   4.859   6.607
 3769POPC   C3A49553  19.074   5.088   6.829
 3769POPC   C4A49554  18.902   5.100   7.252
 3769POPC   C1B49555  18.972   5.400   6.100
 3769POPC   C2B49556  19.131   5.683   6.417
 3769POPC   C3B49557  19.271   5.576   6.809
 3769POPC   C4B49558  19.014   5.571   7.131
 3770POPC   NC349559  14.922   9.248   5.320
 3770POPC   PO449560  14.983   9.931   5.391
 3770POPC   GL149561  15.097   9.822   5.791
 3770POPC   GL249562  15.116   9.471   5.760
 3770POPC   C1A49563  15.360   9.810   6.136
 3770POPC   D2A49564  15.544  10.037   6.454
 3770POPC   C3A49565  15.481   9.841   6.822
 3770POPC   C4A49566  15.203   9.664   7.106
 3770POPC   C1B49567  15.052   9.404   6.208
 3770POPC   C2B49568  14.994   9.629   6.605
 3770POPC   C3B49569  14.742   9.531   6.967
 3770POPC   C4B49570  14.759   9.190   7.265
 3771POPC   NC349571  14.284  34.711   5.277
 3771POPC   PO449572  14.792  34.330   5.384
 3771POPC   GL149573  14.560  34.494   5.733
 3771POPC   GL249574  14.220  34.342   5.656
 3771POPC   C1A49575  14.674  34.494   6.187
 3771POPC   D2A49576  14.582  34.667   6.588
 3771POPC   C3A49577  14.401  34.411   6.851
 3771POPC   C4A49578  14.303  34.385   7.257
 3771POPC   C1B49579  14.157  34.492   6.077
 3771POPC   C2B49580  14.100  34.699   6.441
 3771POPC   C3B49581  14.010  34.739   6.874
 3771POPC   C4B49582  13.862  34.664   7.290
 3772POPC   NC349583  31.698  13.479   5.487
 3772POPC   PO449584  31.197  13.909   5.463
 3772POPC   GL149585  31.234  13.564   5.813
 3772POPC   GL249586  31.541  13.631   5.954
 3772POPC   C1A49587  31.238  13.361   6.253
 3772POPC   D2A49588  31.611  13.362   6.539
 3772POPC   C3A49589  31.603  13.464   6.954
 3772POPC   C4A49590  31.187  13.519   7.137
 3772POPC   C1B49591  31.484  13.826   6.354
 3772POPC   C2B49592  31.422  13.903   6.780
 3772POPC   C3B49593  31.487  13.949   7.206
 3772POPC   C4B49594  31.400  14.243   7.543
 3773POPC   NC349595   7.345  34.411   5.441
 3773POPC   PO449596   7.401  34.988   5.516
 3773POPC   GL149597   7.495  34.814   5.883
 3773POPC   GL249598   7.397  34.461   5.957
 3773POPC   C1A49599   7.403  34.883   6.302
 3773POPC   D2A49600   7.381  34.753   6.725
 3773POPC   C3A49601   7.148  34.402   6.889
 3773POPC   C4A49602   7.307  34.417   7.307
 3773POPC   C1B49603   7.588  34.379   6.375
 3773POPC   C2B49604   7.649  34.317   6.839
 3773POPC   C3B49605   7.763  34.628   7.172
 3773POPC   C4B49606   7.614  34.837   7.583
 3774POPC   NC349607  16.827   8.930   5.356
 3774POPC   PO449608  16.503   8.504   5.499
 3774POPC   GL149609  16.706   8.716   5.837
 3774POPC   GL249610  16.706   9.106   5.848
 3774POPC   C1A49611  16.744   8.673   6.272
 3774POPC   D2A49612  16.487   8.883   6.571
 3774POPC   C3A49613  16.302   8.731   6.962
 3774POPC   C4A49614  16.433   8.894   7.382
 3774POPC   C1B49615  16.549   9.354   6.230
 3774POPC   C2B49616  16.673   9.438   6.666
 3774POPC   C3B49617  16.646   9.149   7.002
 3774POPC   C4B49618  16.928   8.881   7.191
 3775POPC   NC349619  44.495   6.778   5.296
 3775POPC   PO449620   0.087   6.456   5.534
 3775POPC   GL149621  44.764   6.394   5.874
 3775POPC   GL249622  44.440   6.566   5.794
 3775POPC   C1A49623  44.883   6.370   6.313
 3775POPC   D2A49624   0.001   6.673   6.611
 3775POPC   C3A49625  44.708   6.604   6.894
 3775POPC   C4A49626  44.465   6.328   7.144
 3775POPC   C1B49627  44.586   6.786   6.169
 3775POPC   C2B49628  44.473   7.036   6.532
 3775POPC   C3B49629  44.354   7.019   6.951
 3775POPC   C4B49630  44.543   6.857   7.277
 3776POPC   NC349631  44.208  38.767   5.572
 3776POPC   PO449632  44.428  39.345   5.343
 3776POPC   GL149633  44.530  39.215   5.749
 3776POPC   GL249634  44.900  39.210   5.797
 3776POPC   C1A49635  44.590  39.458   6.102
 3776POPC   D2A49636  44.448  39.405   6.486
 3776POPC   C3A49637  44.694  39.464   6.809
 3776POPC   C4A49638  44.535  39.578   7.146
 3776POPC   C1B49639  44.810  39.036   6.243
 3776POPC   C2B49640  44.836  38.994   6.693
 3776POPC   C3B49641  44.719  39.079   7.138
 3776POPC   C4B49642   0.000  39.102   7.446
 3777POPC   NC349643  23.977  20.171   5.422
 3777POPC   PO449644  23.958  19.497   5.447
 3777POPC   GL149645  23.767  19.813   5.743
 3777POPC   GL249646  23.396  19.746   5.746
 3777POPC   C1A49647  23.738  19.849   6.204
 3777POPC   D2A49648  23.669  19.574   6.581
 3777POPC   C3A49649  23.835  19.706   6.979
 3777POPC   C4A49650  23.823  20.104   7.277
 3777POPC   C1B49651  23.242  20.018   6.089
 3777POPC   C2B49652  23.327  20.214   6.518
 3777POPC   C3B49653  23.448  20.049   6.939
 3777POPC   C4B49654  23.489  19.744   7.349
 3778POPC   NC349655  21.577  19.415   5.644
 3778POPC   PO449656  21.625  18.803   5.219
 3778POPC   GL149657  21.308  18.932   5.651
 3778POPC   GL249658  21.143  19.228   5.849
 3778POPC   C1A49659  21.371  18.913   6.160
 3778POPC   D2A49660  21.655  18.740   6.500
 3778POPC   C3A49661  21.613  18.948   6.902
 3778POPC   C4A49662  21.610  18.786   7.295
 3778POPC   C1B49663  21.015  19.297   6.305
 3778POPC   C2B49664  21.196  19.161   6.712
 3778POPC   C3B49665  21.160  19.080   7.179
 3778POPC   C4B49666  21.017  19.193   7.619
 3779POPC   NC349667   1.512  16.408   5.171
 3779POPC   PO449668   2.029  16.713   5.281
 3779POPC   GL149669   1.910  16.594   5.731
 3779POPC   GL249670   1.564  16.466   5.705
 3779POPC   C1A49671   2.038  16.620   6.195
 3779POPC   D2A49672   2.238  16.435   6.562
 3779POPC   C3A49673   2.097  16.664   6.913
 3779POPC   C4A49674   2.157  16.530   7.333
 3779POPC   C1B49675   1.531  16.752   6.085
 3779POPC   C2B49676   1.730  16.986   6.439
 3779POPC   C3B49677   1.644  16.956   6.881
 3779POPC   C4B49678   1.774  16.871   7.294
 3780POPC   NC349679  26.673   4.007   5.383
 3780POPC   PO449680  26.710   4.713   5.435
 3780POPC   GL149681  26.788   4.388   5.757
 3780POPC   GL249682  27.107   4.209   5.781
 3780POPC   C1A49683  26.772   4.223   6.175
 3780POPC   D2A49684  26.718   4.437   6.556
 3780POPC   C3A49685  26.818   4.237   6.940
 3780POPC   C4A49686  26.684   4.166   7.345
 3780POPC   C1B49687  27.164   4.527   6.151
 3780POPC   C2B49688  27.215   4.357   6.560
 3780POPC   C3B49689  27.247   4.504   6.964
 3780POPC   C4B49690  27.016   4.544   7.356
 3781POPC   NC349691  34.177  24.150   5.401
 3781POPC   PO449692  33.798  24.732   5.295
 3781POPC   GL149693  33.888  24.526   5.682
 3781POPC   GL249694  33.551  24.423   5.840
 3781POPC   C1A49695  33.993  24.360   6.075
 3781POPC   D2A49696  33.823  24.180   6.454
 3781POPC   C3A49697  33.881  24.465   6.795
 3781POPC   C4A49698  33.721  24.403   7.205
 3781POPC   C1B49699  33.380  24.429   6.295
 3781POPC   C2B49700  33.376  24.428   6.769
 3781POPC   C3B49701  33.333  24.752   7.099
 3781POPC   C4B49702  33.472  24.689   7.531
 3782POPC   NC349703  24.629  26.447   5.449
 3782POPC   PO449704  24.776  25.773   5.351
 3782POPC   GL149705  24.766  26.030   5.738
 3782POPC   GL249706  24.410  26.095   5.789
 3782POPC   C1A49707  24.721  26.202   6.165
 3782POPC   D2A49708  24.488  26.069   6.562
 3782POPC   C3A49709  24.703  26.156   6.920
 3782POPC   C4A49710  24.839  26.012   7.307
 3782POPC   C1B49711  24.229  26.289   6.171
 3782POPC   C2B49712  24.306  26.553   6.552
 3782POPC   C3B49713  24.256  26.383   6.983
 3782POPC   C4B49714  24.321  26.042   7.253
 3783POPC   NC349715   7.819  35.081   5.367
 3783POPC   PO449716   7.233  35.402   5.094
 3783POPC   GL149717   7.204  35.457   5.629
 3783POPC   GL249718   7.582  35.384   5.778
 3783POPC   C1A49719   7.190  35.376   6.101
 3783POPC   D2A49720   7.035  35.198   6.493
 3783POPC   C3A49721   7.296  35.250   6.840
 3783POPC   C4A49722   7.224  35.485   7.198
 3783POPC   C1B49723   7.652  35.622   6.169
 3783POPC   C2B49724   7.522  35.697   6.622
 3783POPC   C3B49725   7.723  35.519   7.012
 3783POPC   C4B49726   7.849  35.133   7.232
 3784POPC   NC349727  24.366   4.807   5.404
 3784POPC   PO449728  24.643   5.478   5.268
 3784POPC   GL149729  24.399   5.288   5.632
 3784POPC   GL249730  24.550   5.030   5.824
 3784POPC   C1A49731  24.189   5.310   6.046
 3784POPC   D2A49732  24.357   5.511   6.430
 3784POPC   C3A49733  24.661   5.300   6.735
 3784POPC   C4A49734  24.582   5.078   7.138
 3784POPC   C1B49735  24.384   4.850   6.210
 3784POPC   C2B49736  24.293   4.917   6.650
 3784POPC   C3B49737  24.344   4.628   6.981
 3784POPC   C4B49738  24.596   4.594   7.333
 3785POPC   NC349739  11.051  27.773   5.299
 3785POPC   PO449740  11.582  27.453   5.559
 3785POPC   GL149741  11.201  27.477   5.802
 3785POPC   GL249742  11.104  27.866   5.799
 3785POPC   C1A49743  11.283  27.266   6.235
 3785POPC   D2A49744  11.571  27.448   6.571
 3785POPC   C3A49745  11.371  27.423   6.954
 3785POPC   C4A49746  10.914  27.348   7.075
 3785POPC   C1B49747  11.274  27.784   6.194
 3785POPC   C2B49748  11.068  27.632   6.557
 3785POPC   C3B49749  11.106  27.838   6.929
 3785POPC   C4B49750  11.413  27.921   7.174
 3786POPC   NC349751  12.248  23.064   5.084
 3786POPC   PO449752  11.753  22.659   5.390
 3786POPC   GL149753  11.959  22.779   5.755
 3786POPC   GL249754  12.083  23.114   5.670
 3786POPC   C1A49755  12.131  22.715   6.177
 3786POPC   D2A49756  12.241  22.640   6.602
 3786POPC   C3A49757  12.275  23.026   6.889
 3786POPC   C4A49758  12.139  23.013   7.312
 3786POPC   C1B49759  11.804  23.176   6.059
 3786POPC   C2B49760  11.896  23.061   6.487
 3786POPC   C3B49761  11.778  22.961   6.894
 3786POPC   C4B49762  11.669  23.207   7.248
 3787POPC   NC349763  35.474  21.058   5.490
 3787POPC   PO449764  35.256  21.707   5.462
 3787POPC   GL149765  35.458  21.522   5.776
 3787POPC   GL249766  35.174  21.340   5.824
 3787POPC   C1A49767  35.525  21.374   6.208
 3787POPC   D2A49768  35.642  21.267   6.627
 3787POPC   C3A49769  35.518  21.438   7.017
 3787POPC   C4A49770  35.600  21.410   7.446
 3787POPC   C1B49771  35.024  21.250   6.222
 3787POPC   C2B49772  35.124  21.353   6.650
 3787POPC   C3B49773  34.928  21.299   7.055
 3787POPC   C4B49774  34.863  21.285   7.524
 3788POPC   NC349775  33.621  36.009   5.584
 3788POPC   PO449776  34.045  36.467   5.511
 3788POPC   GL149777  33.808  36.346   5.905
 3788POPC   GL249778  33.432  36.420   5.881
 3788POPC   C1A49779  33.897  36.216   6.334
 3788POPC   D2A49780  34.114  35.977   6.658
 3788POPC   C3A49781  34.044  35.995   7.060
 3788POPC   C4A49782  33.814  36.292   7.217
 3788POPC   C1B49783  33.384  36.135   6.256
 3788POPC   C2B49784  33.539  36.056   6.706
 3788POPC   C3B49785  33.523  35.878   7.127
 3788POPC   C4B49786  33.808  35.826   7.488
 3789POPC   NC349787  40.280  23.444   5.644
 3789POPC   PO449788  39.746  23.915   5.585
 3789POPC   GL149789  39.881  23.664   5.921
 3789POPC   GL249790  40.170  23.844   5.966
 3789POPC   C1A49791  39.905  23.541   6.378
 3789POPC   D2A49792  40.191  23.514   6.710
 3789POPC   C3A49793  40.168  23.515   7.139
 3789POPC   C4A49794  39.792  23.386   7.242
 3789POPC   C1B49795  39.911  24.030   6.310
 3789POPC   C2B49796  40.045  24.082   6.721
 3789POPC   C3B49797  40.055  24.017   7.139
 3789POPC   C4B49798  40.212  24.148   7.532
 3790POPC   NC349799  38.241  25.496   5.724
 3790POPC   PO449800  38.786  25.204   5.376
 3790POPC   GL149801  38.782  24.974   5.802
 3790POPC   GL249802  38.444  25.056   5.903
 3790POPC   C1A49803  38.753  24.985   6.293
 3790POPC   D2A49804  38.458  25.132   6.659
 3790POPC   C3A49805  38.430  24.947   7.056
 3790POPC   C4A49806  38.330  25.068   7.451
 3790POPC   C1B49807  38.149  25.122   6.257
 3790POPC   C2B49808  37.932  25.304   6.602
 3790POPC   C3B49809  38.130  25.458   6.946
 3790POPC   C4B49810  38.161  25.570   7.368
 3791POPC   NC349811  21.630  27.699   5.098
 3791POPC   PO449812  21.676  28.358   5.415
 3791POPC   GL149813  21.409  28.401   5.773
 3791POPC   GL249814  21.183  28.679   5.808
 3791POPC   C1A49815  21.281  28.255   6.191
 3791POPC   D2A49816  20.978  28.178   6.530
 3791POPC   C3A49817  21.187  28.272   6.924
 3791POPC   C4A49818  21.589  28.329   7.065
 3791POPC   C1B49819  21.473  28.737   6.187
 3791POPC   C2B49820  21.610  28.772   6.626
 3791POPC   C3B49821  21.453  28.825   7.022
 3791POPC   C4B49822  21.339  28.617   7.437
 3792POPC   NC349823   1.964   5.746   5.252
 3792POPC   PO449824   2.472   5.537   5.651
 3792POPC   GL149825   2.086   5.799   5.769
 3792POPC   GL249826   1.705   5.778   5.690
 3792POPC   C1A49827   1.921   5.906   6.186
 3792POPC   D2A49828   2.089   6.173   6.532
 3792POPC   C3A49829   2.010   6.033   6.951
 3792POPC   C4A49830   2.067   5.688   7.220
 3792POPC   C1B49831   1.477   5.641   6.057
 3792POPC   C2B49832   1.546   5.683   6.488
 3792POPC   C3B49833   1.762   5.536   6.828
 3792POPC   C4B49834   1.588   5.477   7.216
 3793POPC   NC349835  21.122   2.917   5.396
 3793POPC   PO449836  21.762   2.745   5.398
 3793POPC   GL149837  21.490   2.749   5.779
 3793POPC   GL249838  21.177   2.562   5.785
 3793POPC   C1A49839  21.443   2.582   6.222
 3793POPC   D2A49840  21.216   2.516   6.609
 3793POPC   C3A49841  21.420   2.488   7.025
 3793POPC   C4A49842  21.373   2.856   7.298
 3793POPC   C1B49843  21.084   2.984   6.053
 3793POPC   C2B49844  21.106   3.249   6.464
 3793POPC   C3B49845  21.071   3.120   6.915
 3793POPC   C4B49846  20.798   3.020   7.262
 3794POPC   NC349847   8.403   6.640   5.437
 3794POPC   PO449848   7.674   6.704   5.530
 3794POPC   GL149849   8.000   6.570   5.763
 3794POPC   GL249850   8.097   6.930   5.793
 3794POPC   C1A49851   8.217   6.429   6.127
 3794POPC   D2A49852   8.169   6.612   6.528
 3794POPC   C3A49853   8.445   6.652   6.853
 3794POPC   C4A49854   8.357   6.525   7.263
 3794POPC   C1B49855   7.832   6.823   6.175
 3794POPC   C2B49856   7.753   6.873   6.612
 3794POPC   C3B49857   7.976   6.853   6.993
 3794POPC   C4B49858   7.864   6.743   7.398
 3795POPC   NC349859  25.498   7.355   5.392
 3795POPC   PO449860  24.948   7.696   5.359
 3795POPC   GL149861  25.151   7.385   5.766
 3795POPC   GL249862  25.494   7.184   5.857
 3795POPC   C1A49863  25.002   7.276   6.212
 3795POPC   D2A49864  24.937   7.526   6.615
 3795POPC   C3A49865  24.945   7.262   6.951
 3795POPC   C4A49866  25.157   7.286   7.345
 3795POPC   C1B49867  25.515   7.290   6.268
 3795POPC   C2B49868  25.347   7.195   6.645
 3795POPC   C3B49869  25.495   7.390   6.994
 3795POPC   C4B49870  25.624   7.492   7.401
 3796POPC   NC349871  23.790  28.496   5.160
 3796POPC   PO449872  23.582  27.959   5.482
 3796POPC   GL149873  23.772  28.232   5.788
 3796POPC   GL249874  24.088  28.190   5.786
 3796POPC   C1A49875  23.570  28.375   6.174
 3796POPC   D2A49876  23.528  28.573   6.581
 3796POPC   C3A49877  23.412  28.475   6.969
 3796POPC   C4A49878  23.530  28.609   7.319
 3796POPC   C1B49879  24.034  28.571   6.087
 3796POPC   C2B49880  24.030  28.535   6.533
 3796POPC   C3B49881  23.937  28.654   6.971
 3796POPC   C4B49882  24.026  28.655   7.439
 3797POPC   NC349883  34.983   5.064   5.077
 3797POPC   PO449884  35.505   4.935   5.548
 3797POPC   GL149885  35.456   4.869   5.963
 3797POPC   GL249886  35.090   4.887   6.019
 3797POPC   C1A49887  35.427   4.692   6.368
 3797POPC   D2A49888  35.055   4.704   6.567
 3797POPC   C3A49889  35.101   4.893   6.970
 3797POPC   C4A49890  35.508   4.871   7.145
 3797POPC   C1B49891  35.222   5.169   6.355
 3797POPC   C2B49892  35.193   5.362   6.761
 3797POPC   C3B49893  35.207   5.390   7.206
 3797POPC   C4B49894  35.186   5.479   7.662
 3798POPC   NC349895  29.034  28.833   5.550
 3798POPC   PO449896  29.717  29.108   5.383
 3798POPC   GL149897  29.492  28.991   5.775
 3798POPC   GL249898  29.268  29.280   5.758
 3798POPC   C1A49899  29.352  29.044   6.227
 3798POPC   D2A49900  29.529  29.316   6.569
 3798POPC   C3A49901  29.465  29.359   6.995
 3798POPC   C4A49902  29.363  29.002   7.263
 3798POPC   C1B49903  29.061  29.487   6.126
 3798POPC   C2B49904  28.870  29.284   6.489
 3798POPC   C3B49905  29.044  29.102   6.863
 3798POPC   C4B49906  28.893  29.224   7.275
 3799POPC   NC349907  20.158  40.197   5.454
 3799POPC   PO449908  20.811  39.813   5.313
 3799POPC   GL149909  20.838  39.999   5.731
 3799POPC   GL249910  20.495  40.086   5.800
 3799POPC   C1A49911  20.753  39.879   6.179
 3799POPC   D2A49912  20.672  39.607   6.510
 3799POPC   C3A49913  20.691  39.841   6.891
 3799POPC   C4A49914  20.524  39.771   7.289
 3799POPC   C1B49915  20.488  40.311   6.190
 3799POPC   C2B49916  20.437  40.231   6.649
 3799POPC   C3B49917  20.432  40.231   7.125
 3799POPC   C4B49918  20.300  40.128   7.570
 3800POPC   NC349919  13.530   2.283   5.362
 3800POPC   PO449920  13.201   1.613   5.442
 3800POPC   GL149921  13.508   1.862   5.675
 3800POPC   GL249922  13.312   2.142   5.797
 3800POPC   C1A49923  13.820   1.910   6.017
 3800POPC   D2A49924  13.889   1.667   6.428
 3800POPC   C3A49925  13.924   1.917   6.809
 3800POPC   C4A49926  13.820   1.911   7.240
 3800POPC   C1B49927  13.367   2.003   6.209
 3800POPC   C2B49928  13.312   2.182   6.608
 3800POPC   C3B49929  13.414   2.101   7.006
 3800POPC   C4B49930  13.343   1.731   7.177
 3801POPC   NC349931   3.774   2.185   5.077
 3801POPC   PO449932   3.253   2.415   5.415
 3801POPC   GL149933   3.412   2.197   5.731
 3801POPC   GL249934   3.543   1.861   5.707
 3801POPC   C1A49935   3.345   2.104   6.145
 3801POPC   D2A49936   3.251   1.898   6.512
 3801POPC   C3A49937   3.351   2.201   6.838
 3801POPC   C4A49938   3.346   2.086   7.249
 3801POPC   C1B49939   3.696   1.720   6.139
 3801POPC   C2B49940   3.773   1.867   6.586
 3801POPC   C3B49941   3.803   2.008   7.032
 3801POPC   C4B49942   3.759   1.862   7.462
 3802POPC   NC349943   0.194   6.912   5.366
 3802POPC   PO449944   0.773   6.635   5.223
 3802POPC   GL149945   0.574   6.680   5.674
 3802POPC   GL249946   0.471   6.363   5.875
 3802POPC   C1A49947   0.521   6.982   6.052
 3802POPC   D2A49948   0.438   7.017   6.521
 3802POPC   C3A49949   0.724   6.978   6.859
 3802POPC   C4A49950   0.668   6.685   7.197
 3802POPC   C1B49951   0.399   6.534   6.288
 3802POPC   C2B49952   0.472   6.504   6.741
 3802POPC   C3B49953   0.242   6.407   7.108
 3802POPC   C4B49954   0.328   6.205   7.502
 3803POPC   NC349955   6.846  17.617   5.399
 3803POPC   PO449956   6.466  18.111   5.374
 3803POPC   GL149957   6.563  17.817   5.781
 3803POPC   GL249958   6.734  17.450   5.860
 3803POPC   C1A49959   6.523  17.690   6.241
 3803POPC   D2A49960   6.846  17.591   6.552
 3803POPC   C3A49961   6.707  17.557   6.985
 3803POPC   C4A49962   6.881  17.771   7.343
 3803POPC   C1B49963   6.540  17.189   6.204
 3803POPC   C2B49964   6.478  17.199   6.633
 3803POPC   C3B49965   6.667  16.994   6.962
 3803POPC   C4B49966   6.541  17.118   7.339
 3804POPC   NC349967  27.948  36.328   5.513
 3804POPC   PO449968  28.084  35.685   5.468
 3804POPC   GL149969  28.288  35.999   5.772
 3804POPC   GL249970  28.656  36.076   5.807
 3804POPC   C1A49971  28.228  36.260   6.177
 3804POPC   D2A49972  28.316  36.380   6.617
 3804POPC   C3A49973  28.158  36.124   6.995
 3804POPC   C4A49974  27.978  36.095   7.441
 3804POPC   C1B49975  28.732  36.339   6.199
 3804POPC   C2B49976  28.809  36.513   6.628
 3804POPC   C3B49977  28.663  36.300   6.997
 3804POPC   C4B49978  28.473  36.199   7.394
 3805POPC   NC349979  35.910  12.552   5.398
 3805POPC   PO449980  36.230  13.225   5.396
 3805POPC   GL149981  36.044  12.941   5.709
 3805POPC   GL249982  36.265  12.665   5.855
 3805POPC   C1A49983  35.958  12.913   6.176
 3805POPC   D2A49984  36.178  12.790   6.576
 3805POPC   C3A49985  35.961  12.928   6.938
 3805POPC   C4A49986  35.915  12.861   7.361
 3805POPC   C1B49987  36.467  12.457   6.271
 3805POPC   C2B49988  36.587  12.464   6.738
 3805POPC   C3B49989  36.380  12.660   7.104
 3805POPC   C4B49990  36.300  12.612   7.571
 3806POPC   NC349991  40.027  27.722   5.490
 3806POPC   PO449992  39.754  27.164   5.284
 3806POPC   GL149993  39.845  27.165   5.735
 3806POPC   GL249994  40.133  27.346   5.805
 3806POPC   C1A49995  39.819  27.304   6.194
 3806POPC   D2A49996  39.850  27.640   6.520
 3806POPC   C3A49997  39.734  27.512   6.953
 3806POPC   C4A49998  39.800  27.704   7.385
 3806POPC   C1B49999  40.244  27.636   6.146
 3806POPC   C2B50000  40.373  27.717   6.577
 3806POPC   C3B50001  40.213  27.671   7.011
 3806POPC   C4B50002  40.334  27.508   7.407
 3807POPC   NC350003  30.126  31.193   5.495
 3807POPC   PO450004  29.561  31.619   5.425
 3807POPC   GL150005  29.692  31.464   5.809
 3807POPC   GL250006  29.665  31.116   5.712
 3807POPC   C1A50007  30.066  31.539   6.086
 3807POPC   D2A50008  30.225  31.647   6.490
 3807POPC   C3A50009  30.016  31.644   6.859
 3807POPC   C4A50010  30.072  31.594   7.278
 3807POPC   C1B50011  29.817  31.074   6.126
 3807POPC   C2B50012  29.935  31.035   6.520
 3807POPC   C3B50013  30.178  31.149   6.847
 3807POPC   C4B50014  29.926  31.086   7.190
 3808POPC   NC350015   2.133  19.599   5.446
 3808POPC   PO450016   1.663  20.045   5.471
 3808POPC   GL150017   1.892  19.844   5.835
 3808POPC   GL250018   2.279  19.899   5.842
 3808POPC   C1A50019   2.015  19.725   6.253
 3808POPC   D2A50020   2.233  19.659   6.628
 3808POPC   C3A50021   1.901  19.711   6.919
 3808POPC   C4A50022   1.834  19.444   7.269
 3808POPC   C1B50023   2.147  20.194   6.188
 3808POPC   C2B50024   2.146  20.154   6.656
 3808POPC   C3B50025   2.072  20.147   7.120
 3808POPC   C4B50026   2.272  19.938   7.471
 3809POPC   NC350027  34.931  35.404   5.295
 3809POPC   PO450028  35.546  35.326   5.459
 3809POPC   GL150029  35.524  35.434   5.861
 3809POPC   GL250030  35.873  35.565   5.955
 3809POPC   C1A50031  35.147  35.454   6.146
 3809POPC   D2A50032  34.953  35.302   6.517
 3809POPC   C3A50033  35.085  35.468   6.908
 3809POPC   C4A50034  35.337  35.122   7.037
 3809POPC   C1B50035  35.588  35.672   6.296
 3809POPC   C2B50036  35.560  35.452   6.671
 3809POPC   C3B50037  35.601  35.545   7.098
 3809POPC   C4B50038  35.683  35.373   7.516
 3810POPC   NC350039  36.042   2.735   5.364
 3810POPC   PO450040  36.329   3.274   5.488
 3810POPC   GL150041  36.043   3.044   5.748
 3810POPC   GL250042  36.319   2.812   5.797
 3810POPC   C1A50043  35.953   2.729   6.110
 3810POPC   D2A50044  36.216   2.605   6.495
 3810POPC   C3A50045  36.029   2.696   6.913
 3810POPC   C4A50046  36.108   2.872   7.311
 3810POPC   C1B50047  36.316   3.140   6.150
 3810POPC   C2B50048  36.461   3.260   6.526
 3810POPC   C3B50049  36.371   3.085   6.903
 3810POPC   C4B50050  36.456   3.250   7.319
 3811POPC   NC350051  24.732  23.996   5.346
 3811POPC   PO450052  24.977  23.415   5.391
 3811POPC   GL150053  24.619  23.648   5.708
 3811POPC   GL250054  24.525  24.013   5.801
 3811POPC   C1A50055  24.485  23.656   6.174
 3811POPC   D2A50056  24.700  23.557   6.594
 3811POPC   C3A50057  24.473  23.606   7.006
 3811POPC   C4A50058  24.012  23.676   7.140
 3811POPC   C1B50059  24.699  24.200   6.186
 3811POPC   C2B50060  24.821  24.074   6.601
 3811POPC   C3B50061  24.717  24.153   7.027
 3811POPC   C4B50062  24.789  24.264   7.442
 3812POPC   NC350063  24.283  25.602   5.323
 3812POPC   PO450064  24.533  25.033   5.359
 3812POPC   GL150065  24.388  25.270   5.722
 3812POPC   GL250066  24.499  25.589   5.774
 3812POPC   C1A50067  24.410  25.203   6.164
 3812POPC   D2A50068  24.775  25.195   6.460
 3812POPC   C3A50069  24.700  25.198   6.902
 3812POPC   C4A50070  24.313  25.043   7.049
 3812POPC   C1B50071  24.465  25.727   6.179
 3812POPC   C2B50072  24.376  25.547   6.564
 3812POPC   C3B50073  24.529  25.677   6.934
 3812POPC   C4B50074  24.383  25.532   7.281
 3813POPC   NC350075   4.426   6.439   5.323
 3813POPC   PO450076   4.093   6.991   5.385
 3813POPC   GL150077   4.424   6.852   5.643
 3813POPC   GL250078   4.534   7.121   5.788
 3813POPC   C1A50079   4.490   6.662   6.071
 3813POPC   D2A50080   4.289   6.621   6.506
 3813POPC   C3A50081   4.483   6.315   6.802
 3813POPC   C4A50082   4.711   6.342   7.191
 3813POPC   C1B50083   4.214   7.092   6.089
 3813POPC   C2B50084   4.279   7.184   6.515
 3813POPC   C3B50085   4.151   6.958   6.874
 3813POPC   C4B50086   4.375   6.707   7.121
 3814POPC   NC350087   6.985  14.978   5.369
 3814POPC   PO450088   6.440  15.465   5.380
 3814POPC   GL150089   6.561  15.221   5.766
 3814POPC   GL250090   6.823  14.954   5.853
 3814POPC   C1A50091   6.665  15.403   6.189
 3814POPC   D2A50092   6.456  15.365   6.613
 3814POPC   C3A50093   6.606  15.429   7.035
 3814POPC   C4A50094   6.562  15.226   7.437
 3814POPC   C1B50095   6.883  14.963   6.305
 3814POPC   C2B50096   6.693  14.888   6.682
 3814POPC   C3B50097   6.735  14.846   7.100
 3814POPC   C4B50098   6.887  14.861   7.477
 3815POPC   NC350099  44.538  19.556   5.509
 3815POPC   PO450100  44.325  20.245   5.508
 3815POPC   GL150101  44.536  19.975   5.790
 3815POPC   GL250102  44.887  20.046   5.828
 3815POPC   C1A50103  44.469  19.644   6.150
 3815POPC   D2A50104  44.637  19.663   6.579
 3815POPC   C3A50105  44.326  19.574   6.893
 3815POPC   C4A50106  44.504  19.662   7.273
 3815POPC   C1B50107  44.692  20.077   6.248
 3815POPC   C2B50108  44.634  20.252   6.599
 3815POPC   C3B50109  44.590  20.052   6.937
 3815POPC   C4B50110  44.855  20.034   7.287
 3816POPC   NC350111  14.182  44.312   5.445
 3816POPC   PO450112  14.238  43.681   5.497
 3816POPC   GL150113  14.438  43.859   5.835
 3816POPC   GL250114  14.567  44.184   5.790
 3816POPC   C1A50115  14.665  43.893   6.222
 3816POPC   D2A50116  14.724  43.658   6.596
 3816POPC   C3A50117  14.430  43.706   6.932
 3816POPC   C4A50118  14.650  43.943   7.197
 3816POPC   C1B50119  14.262  44.224   6.160
 3816POPC   C2B50120  14.275  44.115   6.611
 3816POPC   C3B50121  14.272  44.284   7.051
 3816POPC   C4B50122  14.251  44.412   7.517
 3817POPC   NC350123   6.733  32.988   5.406
 3817POPC   PO450124   7.256  33.403   5.612
 3817POPC   GL150125   6.877  33.241   5.840
 3817POPC   GL250126   6.494  33.098   5.838
 3817POPC   C1A50127   6.704  33.295   6.245
 3817POPC   D2A50128   6.432  33.107   6.535
 3817POPC   C3A50129   6.710  32.936   6.835
 3817POPC   C4A50130   6.970  33.130   7.163
 3817POPC   C1B50131   6.559  32.760   6.179
 3817POPC   C2B50132   6.336  32.613   6.578
 3817POPC   C3B50133   6.231  32.835   6.963
 3817POPC   C4B50134   6.537  32.782   7.312
 3818POPC   NC350135   2.320  16.384   5.461
 3818POPC   PO450136   1.933  15.825   5.364
 3818POPC   GL150137   2.121  15.992   5.731
 3818POPC   GL250138   1.794  15.981   5.858
 3818POPC   C1A50139   2.187  16.109   6.165
 3818POPC   D2A50140   1.931  16.028   6.534
 3818POPC   C3A50141   2.076  16.125   6.959
 3818POPC   C4A50142   1.919  15.861   7.276
 3818POPC   C1B50143   1.684  16.274   6.165
 3818POPC   C2B50144   1.682  16.489   6.587
 3818POPC   C3B50145   1.657  16.424   7.052
 3818POPC   C4B50146   1.722  16.304   7.504
 3819POPC   NC350147  32.991  28.073   5.558
 3819POPC   PO450148  32.884  27.404   5.622
 3819POPC   GL150149  33.117  27.586   5.920
 3819POPC   GL250150  33.361  27.801   5.802
 3819POPC   C1A50151  33.159  27.402   6.305
 3819POPC   D2A50152  32.922  27.509   6.646
 3819POPC   C3A50153  32.990  27.423   7.044
 3819POPC   C4A50154  32.887  27.668   7.403
 3819POPC   C1B50155  33.422  27.841   6.267
 3819POPC   C2B50156  33.356  28.012   6.693
 3819POPC   C3B50157  33.249  27.847   7.109
 3819POPC   C4B50158  33.349  27.453   7.400
 3820POPC   NC350159  19.908  12.458   5.521
 3820POPC   PO450160  19.774  13.129   5.468
 3820POPC   GL150161  19.702  12.836   5.830
 3820POPC   GL250162  20.044  12.814   5.902
 3820POPC   C1A50163  19.588  12.883   6.273
 3820POPC   D2A50164  19.349  13.030   6.644
 3820POPC   C3A50165  19.664  13.028   6.958
 3820POPC   C4A50166  19.772  12.745   7.263
 3820POPC   C1B50167  20.007  12.547   6.260
 3820POPC   C2B50168  19.909  12.582   6.687
 3820POPC   C3B50169  20.189  12.737   6.961
 3820POPC   C4B50170  20.243  12.973   7.333
 3821POPC   NC350171  12.716   9.748   5.240
 3821POPC   PO450172  13.338   9.705   5.153
 3821POPC   GL150173  13.115   9.675   5.570
 3821POPC   GL250174  12.831   9.491   5.698
 3821POPC   C1A50175  13.127   9.803   6.035
 3821POPC   D2A50176  12.916   9.981   6.441
 3821POPC   C3A50177  12.922   9.847   6.917
 3821POPC   C4A50178  12.917   9.801   7.395
 3821POPC   C1B50179  12.684   9.562   6.167
 3821POPC   C2B50180  12.678   9.490   6.647
 3821POPC   C3B50181  12.666   9.411   7.148
 3821POPC   C4B50182  12.514   9.542   7.601
 3822POPC   NC350183  42.320  14.939   5.304
 3822POPC   PO450184  42.047  15.522   5.490
 3822POPC   GL150185  42.389  15.286   5.736
 3822POPC   GL250186  42.464  14.922   5.793
 3822POPC   C1A50187  42.582  15.417   6.128
 3822POPC   D2A50188  42.422  15.639   6.497
 3822POPC   C3A50189  42.542  15.462   6.872
 3822POPC   C4A50190  42.258  15.209   7.094
 3822POPC   C1B50191  42.224  15.005   6.165
 3822POPC   C2B50192  42.247  15.002   6.618
 3822POPC   C3B50193  42.095  14.752   6.967
 3822POPC   C4B50194  42.085  14.764   7.441
 3823POPC   NC350195  42.459   7.794   5.185
 3823POPC   PO450196  42.522   7.140   5.378
 3823POPC   GL150197  42.436   7.477   5.595
 3823POPC   GL250198  42.699   7.706   5.667
 3823POPC   C1A50199  42.355   7.504   6.019
 3823POPC   D2A50200  42.085   7.421   6.364
 3823POPC   C3A50201  42.295   7.338   6.728
 3823POPC   C4A50202  42.378   7.498   7.113
 3823POPC   C1B50203  42.784   7.804   6.121
 3823POPC   C2B50204  42.630   7.712   6.549
 3823POPC   C3B50205  42.818   7.711   6.984
 3823POPC   C4B50206  42.734   7.645   7.468
 3824POPC   NC350207  34.016  23.303   5.462
 3824POPC   PO450208  33.869  22.673   5.690
 3824POPC   GL150209  33.941  23.068   5.914
 3824POPC   GL250210  33.612  23.184   5.780
 3824POPC   C1A50211  34.000  23.184   6.370
 3824POPC   D2A50212  34.036  22.837   6.672
 3824POPC   C3A50213  33.668  22.730   6.891
 3824POPC   C4A50214  33.881  22.943   7.203
 3824POPC   C1B50215  33.523  22.990   6.199
 3824POPC   C2B50216  33.550  23.180   6.623
 3824POPC   C3B50217  33.455  23.417   6.982
 3824POPC   C4B50218  33.399  23.064   7.226
 3825POPC   NC350219  29.270  22.550   5.078
 3825POPC   PO450220  29.035  23.037   5.489
 3825POPC   GL150221  29.272  23.123   5.855
 3825POPC   GL250222  29.000  22.978   6.032
 3825POPC   C1A50223  29.425  23.075   6.285
 3825POPC   D2A50224  29.355  22.649   6.472
 3825POPC   C3A50225  29.130  22.639   6.881
 3825POPC   C4A50226  29.090  23.019   7.135
 3825POPC   C1B50227  28.667  22.980   6.321
 3825POPC   C2B50228  28.721  23.006   6.755
 3825POPC   C3B50229  28.650  22.783   7.108
 3825POPC   C4B50230  28.816  22.812   7.514
 3826POPC   NC350231  22.805  15.399   5.373
 3826POPC   PO450232  23.221  14.906   5.442
 3826POPC   GL150233  23.089  15.202   5.751
 3826POPC   GL250234  22.725  15.255   5.864
 3826POPC   C1A50235  23.160  15.336   6.142
 3826POPC   D2A50236  23.072  15.482   6.575
 3826POPC   C3A50237  23.145  15.219   6.947
 3826POPC   C4A50238  23.101  15.396   7.342
 3826POPC   C1B50239  22.685  15.201   6.323
 3826POPC   C2B50240  22.673  15.211   6.772
 3826POPC   C3B50241  22.699  15.097   7.232
 3826POPC   C4B50242  22.684  14.992   7.681
 3827POPC   NC350243   7.597  29.743   5.364
 3827POPC   PO450244   6.904  29.917   5.425
 3827POPC   GL150245   7.261  29.970   5.763
 3827POPC   GL250246   7.634  30.082   5.749
 3827POPC   C1A50247   7.404  30.040   6.210
 3827POPC   D2A50248   7.380  29.754   6.567
 3827POPC   C3A50249   7.451  29.885   7.003
 3827POPC   C4A50250   7.489  29.779   7.447
 3827POPC   C1B50251   7.754  29.702   6.052
 3827POPC   C2B50252   7.895  29.674   6.523
 3827POPC   C3B50253   7.820  29.511   6.991
 3827POPC   C4B50254   7.692  29.323   7.375
 3828POPC   NC350255  41.366  44.934   5.487
 3828POPC   PO450256  41.545   0.566   5.352
 3828POPC   GL150257  41.639   0.642   5.759
 3828POPC   GL250258  41.866   0.359   5.742
 3828POPC   C1A50259  41.340   0.564   6.111
 3828POPC   D2A50260  41.524   0.597   6.523
 3828POPC   C3A50261  41.490   0.415   6.922
 3828POPC   C4A50262  41.319   0.692   7.214
 3828POPC   C1B50263  41.693   0.207   6.128
 3828POPC   C2B50264  41.754   0.130   6.554
 3828POPC   C3B50265  41.920   0.132   6.987
 3828POPC   C4B50266  41.635   0.108   7.348
 3829POPC   NC350267  42.216  35.611   5.433
 3829POPC   PO450268  42.169  34.945   5.511
 3829POPC   GL150269  42.497  35.162   5.827
 3829POPC   GL250270  42.493  35.543   5.854
 3829POPC   C1A50271  42.378  35.236   6.277
 3829POPC   D2A50272  41.971  35.355   6.464
 3829POPC   C3A50273  41.847  35.315   6.886
 3829POPC   C4A50274  42.110  35.481   7.178
 3829POPC   C1B50275  42.560  35.708   6.252
 3829POPC   C2B50276  42.365  35.620   6.671
 3829POPC   C3B50277  42.524  35.734   7.037
 3829POPC   C4B50278  42.806  35.406   7.174
 3830POPC   NC350279  40.066  20.715   5.396
 3830POPC   PO450280  39.694  20.092   5.440
 3830POPC   GL150281  39.890  20.401   5.778
 3830POPC   GL250282  39.959  20.765   5.870
 3830POPC   C1A50283  40.168  20.351   6.157
 3830POPC   D2A50284  40.334  20.516   6.574
 3830POPC   C3A50285  40.331  20.266   6.984
 3830POPC   C4A50286  40.188  20.431   7.400
 3830POPC   C1B50287  39.785  20.718   6.249
 3830POPC   C2B50288  39.949  20.829   6.638
 3830POPC   C3B50289  40.193  20.805   7.011
 3830POPC   C4B50290  39.848  20.793   7.283
 3831POPC   NC350291  37.630  38.568   5.432
 3831POPC   PO450292  37.332  37.944   5.410
 3831POPC   GL150293  37.395  38.220   5.784
 3831POPC   GL250294  37.757  38.254   5.847
 3831POPC   C1A50295  37.410  38.454   6.229
 3831POPC   D2A50296  37.390  38.617   6.696
 3831POPC   C3A50297  37.633  38.486   7.054
 3831POPC   C4A50298  37.890  38.694   7.378
 3831POPC   C1B50299  37.942  38.490   6.187
 3831POPC   C2B50300  37.956  38.613   6.637
 3831POPC   C3B50301  38.137  38.454   7.026
 3831POPC   C4B50302  38.000  38.179   7.397
 3832POPC   NC350303  33.909  28.808   4.889
 3832POPC   PO450304  33.652  29.153   5.356
 3832POPC   GL150305  33.555  29.008   5.751
 3832POPC   GL250306  33.894  29.047   5.836
 3832POPC   C1A50307  33.472  29.228   6.120
 3832POPC   D2A50308  33.844  29.315   6.371
 3832POPC   C3A50309  33.795  29.278   6.839
 3832POPC   C4A50310  33.997  29.451   7.217
 3832POPC   C1B50311  33.804  28.834   6.209
 3832POPC   C2B50312  34.042  28.893   6.603
 3832POPC   C3B50313  34.245  29.054   6.981
 3832POPC   C4B50314  34.126  28.966   7.412
 3833POPC   NC350315  40.366  44.924   5.481
 3833POPC   PO450316  39.727  44.645   5.208
 3833POPC   GL150317  39.961  44.649   5.634
 3833POPC   GL250318  39.966  44.998   5.778
 3833POPC   C1A50319  40.043  44.583   6.077
 3833POPC   D2A50320  40.065  44.804   6.477
 3833POPC   C3A50321  40.207  44.589   6.835
 3833POPC   C4A50322  39.996  44.593   7.199
 3833POPC   C1B50323  39.785   0.137   6.167
 3833POPC   C2B50324  39.612   0.065   6.574
 3833POPC   C3B50325  39.854   0.027   6.943
 3833POPC   C4B50326  39.872   0.059   7.378
 3834POPC   NC350327  41.596  25.955   5.357
 3834POPC   PO450328  41.582  26.504   5.538
 3834POPC   GL150329  41.645  26.171   5.832
 3834POPC   GL250330  41.895  25.882   5.800
 3834POPC   C1A50331  41.372  26.193   6.186
 3834POPC   D2A50332  41.477  26.375   6.601
 3834POPC   C3A50333  41.568  26.157   6.979
 3834POPC   C4A50334  41.942  25.990   7.105
 3834POPC   C1B50335  41.804  25.928   6.265
 3834POPC   C2B50336  41.458  25.857   6.545
 3834POPC   C3B50337  41.264  25.765   6.886
 3834POPC   C4B50338  41.506  25.724   7.259
 3835POPC   NC350339  43.650  40.815   5.157
 3835POPC   PO450340  43.106  40.894   5.584
 3835POPC   GL150341  42.880  40.830   5.958
 3835POPC   GL250342  43.082  40.557   5.986
 3835POPC   C1A50343  42.954  40.783   6.438
 3835POPC   D2A50344  42.982  41.098   6.779
 3835POPC   C3A50345  42.945  40.963   7.184
 3835POPC   C4A50346  43.095  40.541   7.298
 3835POPC   C1B50347  43.372  40.889   6.187
 3835POPC   C2B50348  43.491  41.000   6.599
 3835POPC   C3B50349  43.420  40.876   7.026
 3835POPC   C4B50350  43.374  40.906   7.478
 3836POPC   NC350351  22.867  38.330   4.764
 3836POPC   PO450352  23.100  38.649   5.292
 3836POPC   GL150353  22.830  38.622   5.687
 3836POPC   GL250354  22.640  38.311   5.780
 3836POPC   C1A50355  22.761  38.626   6.156
 3836POPC   D2A50356  22.860  38.301   6.454
 3836POPC   C3A50357  22.900  38.439   6.892
 3836POPC   C4A50358  22.984  38.515   7.325
 3836POPC   C1B50359  22.419  38.222   6.216
 3836POPC   C2B50360  22.483  38.020   6.675
 3836POPC   C3B50361  22.453  38.141   7.121
 3836POPC   C4B50362  22.696  38.164   7.553
 3837POPC   NC350363   3.711   6.255   5.501
 3837POPC   PO450364   3.214   6.780   5.315
 3837POPC   GL150365   3.538   6.673   5.729
 3837POPC   GL250366   3.821   6.924   5.804
 3837POPC   C1A50367   3.429   6.433   6.166
 3837POPC   D2A50368   3.229   6.305   6.564
 3837POPC   C3A50369   3.434   6.440   6.929
 3837POPC   C4A50370   3.453   6.428   7.361
 3837POPC   C1B50371   3.917   6.627   6.131
 3837POPC   C2B50372   3.787   6.454   6.534
 3837POPC   C3B50373   3.961   6.458   6.933
 3837POPC   C4B50374   3.825   6.757   7.245
 3838POPC   NC350375  13.334   5.806   5.524
 3838POPC   PO450376  13.901   5.816   5.178
 3838POPC   GL150377  13.872   5.990   5.630
 3838POPC   GL250378  13.795   5.683   5.785
 3838POPC   C1A50379  13.755   6.115   6.091
 3838POPC   D2A50380  13.437   6.090   6.490
 3838POPC   C3A50381  13.442   6.056   6.989
 3838POPC   C4A50382  13.623   6.179   7.440
 3838POPC   C1B50383  13.557   5.664   6.173
 3838POPC   C2B50384  13.847   5.710   6.485
 3838POPC   C3B50385  13.971   5.624   6.891
 3838POPC   C4B50386  13.772   5.748   7.236
 3839POPC   NC350387  24.525   7.545   5.262
 3839POPC   PO450388  24.358   6.890   5.387
 3839POPC   GL150389  24.360   7.264   5.712
 3839POPC   GL250390  24.656   7.492   5.767
 3839POPC   C1A50391  24.310   7.281   6.170
 3839POPC   D2A50392  24.585   7.156   6.544
 3839POPC   C3A50393  24.411   7.195   6.984
 3839POPC   C4A50394  24.684   7.107   7.357
 3839POPC   C1B50395  24.654   7.644   6.202
 3839POPC   C2B50396  24.392   7.617   6.569
 3839POPC   C3B50397  24.535   7.673   6.953
 3839POPC   C4B50398  24.837   7.671   7.259
 3840POPC   NC350399  39.277  26.952   5.602
 3840POPC   PO450400  39.125  26.337   5.300
 3840POPC   GL150401  39.165  26.479   5.784
 3840POPC   GL250402  38.870  26.549   5.952
 3840POPC   C1A50403  39.255  26.718   6.263
 3840POPC   D2A50404  39.196  26.840   6.740
 3840POPC   C3A50405  39.549  26.833   7.098
 3840POPC   C4A50406  39.677  26.872   7.555
 3840POPC   C1B50407  38.820  26.981   6.202
 3840POPC   C2B50408  38.825  27.183   6.625
 3840POPC   C3B50409  38.938  27.170   7.085
 3840POPC   C4B50410  38.796  27.205   7.542
 3841POPC   NC350411   1.863   0.935   5.377
 3841POPC   PO450412   2.216   0.376   5.447
 3841POPC   GL150413   1.955   0.513   5.772
 3841POPC   GL250414   2.223   0.672   5.903
 3841POPC   C1A50415   1.642   0.417   6.098
 3841POPC   D2A50416   1.584   0.263   6.512
 3841POPC   C3A50417   1.860   0.274   6.853
 3841POPC   C4A50418   1.800   0.175   7.260
 3841POPC   C1B50419   2.333   0.275   6.134
 3841POPC   C2B50420   2.501   0.187   6.564
 3841POPC   C3B50421   2.356   0.134   7.001
 3841POPC   C4B50422   2.240   0.438   7.295
 3842POPC   NC350423  32.132  41.987   5.384
 3842POPC   PO450424  32.336  41.475   5.148
 3842POPC   GL150425  32.316  41.549   5.619
 3842POPC   GL250426  32.077  41.353   5.809
 3842POPC   C1A50427  32.337  41.785   6.029
 3842POPC   D2A50428  32.237  42.002   6.435
 3842POPC   C3A50429  32.280  41.698   6.793
 3842POPC   C4A50430  32.220  41.428   7.159
 3842POPC   C1B50431  32.319  41.269   6.201
 3842POPC   C2B50432  32.242  41.182   6.653
 3842POPC   C3B50433  31.884  41.109   6.921
 3842POPC   C4B50434  31.791  41.076   7.333
 3843POPC   NC350435  25.512  30.275   5.396
 3843POPC   PO450436  24.929  29.931   5.376
 3843POPC   GL150437  25.000  29.882   5.804
 3843POPC   GL250438  24.880  29.568   5.882
 3843POPC   C1A50439  25.204  29.968   6.203
 3843POPC   D2A50440  25.418  29.779   6.576
 3843POPC   C3A50441  25.354  29.944   7.018
 3843POPC   C4A50442  25.584  29.962   7.431
 3843POPC   C1B50443  25.037  29.501   6.318
 3843POPC   C2B50444  25.094  29.474   6.796
 3843POPC   C3B50445  25.010  29.494   7.243
 3843POPC   C4B50446  24.872  29.377   7.711
 3844POPC   NC350447  20.684  16.667   5.220
 3844POPC   PO450448  20.242  17.180   5.339
 3844POPC   GL150449  20.510  16.920   5.645
 3844POPC   GL250450  20.644  16.624   5.741
 3844POPC   C1A50451  20.408  16.857   6.118
 3844POPC   D2A50452  20.226  17.004   6.520
 3844POPC   C3A50453  20.433  16.874   6.894
 3844POPC   C4A50454  20.303  16.749   7.296
 3844POPC   C1B50455  20.827  16.571   6.139
 3844POPC   C2B50456  20.816  16.817   6.486
 3844POPC   C3B50457  20.907  16.676   6.866
 3844POPC   C4B50458  20.992  16.868   7.228
 3845POPC   NC350459  19.651  37.297   5.074
 3845POPC   PO450460  19.219  36.983   5.543
 3845POPC   GL150461  19.362  36.904   5.907
 3845POPC   GL250462  18.987  36.919   6.002
 3845POPC   C1A50463  19.400  37.022   6.312
 3845POPC   D2A50464  19.311  36.840   6.696
 3845POPC   C3A50465  19.210  37.089   7.018
 3845POPC   C4A50466  19.515  37.097   7.280
 3845POPC   C1B50467  19.130  36.571   6.269
 3845POPC   C2B50468  19.193  36.352   6.687
 3845POPC   C3B50469  19.249  36.512   7.132
 3845POPC   C4B50470  19.069  36.357   7.533
 3846POPC   NC350471   1.026  27.770   5.484
 3846POPC   PO450472   1.529  27.360   5.211
 3846POPC   GL150473   1.381  27.412   5.668
 3846POPC   GL250474   1.070  27.311   5.818
 3846POPC   C1A50475   1.458  27.563   6.117
 3846POPC   D2A50476   1.432  27.399   6.541
 3846POPC   C3A50477   1.314  27.628   6.906
 3846POPC   C4A50478   1.458  27.571   7.287
 3846POPC   C1B50479   0.944  27.634   6.134
 3846POPC   C2B50480   1.112  27.857   6.484
 3846POPC   C3B50481   0.888  27.909   6.880
 3846POPC   C4B50482   0.838  27.652   7.246
 3847POPC   NC350483  39.706  18.140   5.147
 3847POPC   PO450484  40.026  18.403   5.636
 3847POPC   GL150485  40.091  18.192   5.982
 3847POPC   GL250486  40.360  17.986   5.941
 3847POPC   C1A50487  39.924  18.266   6.387
 3847POPC   D2A50488  39.881  18.093   6.795
 3847POPC   C3A50489  39.898  18.390   7.096
 3847POPC   C4A50490  39.552  18.706   7.183
 3847POPC   C1B50491  40.303  17.903   6.391
 3847POPC   C2B50492  40.345  17.881   6.849
 3847POPC   C3B50493  40.115  17.955   7.248
 3847POPC   C4B50494  40.111  17.917   7.722
 3848POPC   NC350495   4.571  17.049   5.431
 3848POPC   PO450496   4.089  16.575   5.542
 3848POPC   GL150497   4.113  16.741   5.940
 3848POPC   GL250498   4.281  17.048   5.850
 3848POPC   C1A50499   4.143  16.619   6.379
 3848POPC   D2A50500   3.910  16.516   6.753
 3848POPC   C3A50501   4.001  16.761   7.150
 3848POPC   C4A50502   4.093  16.645   7.621
 3848POPC   C1B50503   4.089  17.209   6.199
 3848POPC   C2B50504   4.122  17.282   6.643
 3848POPC   C3B50505   4.374  17.072   6.949
 3848POPC   C4B50506   4.328  17.078   7.386
 3849POPC   NC350507  35.147  38.734   5.007
 3849POPC   PO450508  35.677  38.592   5.377
 3849POPC   GL150509  35.512  38.535   5.805
 3849POPC   GL250510  35.162  38.603   5.808
 3849POPC   C1A50511  35.357  38.415   6.239
 3849POPC   D2A50512  35.053  38.399   6.580
 3849POPC   C3A50513  35.177  38.240   6.992
 3849POPC   C4A50514  35.446  38.516   7.144
 3849POPC   C1B50515  34.872  38.736   6.145
 3849POPC   C2B50516  34.777  38.833   6.589
 3849POPC   C3B50517  35.021  38.839   6.947
 3849POPC   C4B50518  34.940  38.684   7.320
 3850POPC   NC350519  43.347  36.582   5.419
 3850POPC   PO450520  42.677  36.824   5.366
 3850POPC   GL150521  42.954  36.993   5.698
 3850POPC   GL250522  43.251  36.828   5.844
 3850POPC   C1A50523  42.949  37.120   6.122
 3850POPC   D2A50524  43.182  36.946   6.452
 3850POPC   C3A50525  42.943  37.019   6.822
 3850POPC   C4A50526  42.783  36.953   7.205
 3850POPC   C1B50527  43.389  36.539   6.179
 3850POPC   C2B50528  43.488  36.564   6.646
 3850POPC   C3B50529  43.431  36.937   6.941
 3850POPC   C4B50530  43.258  37.025   7.380
 3851POPC   NC350531   9.647  20.078   5.077
 3851POPC   PO450532   9.745  20.705   5.325
 3851POPC   GL150533   9.641  20.554   5.739
 3851POPC   GL250534   9.570  20.174   5.767
 3851POPC   C1A50535   9.448  20.576   6.128
 3851POPC   D2A50536   9.657  20.573   6.514
 3851POPC   C3A50537   9.497  20.581   6.907
 3851POPC   C4A50538   9.383  20.481   7.308
 3851POPC   C1B50539   9.808  20.195   6.192
 3851POPC   C2B50540   9.969  20.183   6.670
 3851POPC   C3B50541   9.820  20.194   7.144
 3851POPC   C4B50542   9.813  20.281   7.610
 3852POPC   NC350543  31.757  36.101   5.058
 3852POPC   PO450544  31.248  35.766   5.344
 3852POPC   GL150545  31.334  35.815   5.774
 3852POPC   GL250546  31.537  36.146   5.829
 3852POPC   C1A50547  31.279  35.821   6.205
 3852POPC   D2A50548  31.295  36.170   6.494
 3852POPC   C3A50549  31.060  36.179   6.884
 3852POPC   C4A50550  31.238  36.268   7.314
 3852POPC   C1B50551  31.841  36.102   6.168
 3852POPC   C2B50552  31.863  36.068   6.589
 3852POPC   C3B50553  31.903  36.283   6.936
 3852POPC   C4B50554  31.758  36.285   7.307
 3853POPC   NC350555  26.552  20.121   5.503
 3853POPC   PO450556  26.782  20.804   5.347
 3853POPC   GL150557  26.673  20.594   5.722
 3853POPC   GL250558  26.977  20.391   5.750
 3853POPC   C1A50559  26.787  20.681   6.152
 3853POPC   D2A50560  27.037  20.854   6.485
 3853POPC   C3A50561  26.829  20.751   6.831
 3853POPC   C4A50562  26.467  20.834   7.064
 3853POPC   C1B50563  26.946  20.153   6.137
 3853POPC   C2B50564  26.730  20.304   6.509
 3853POPC   C3B50565  26.540  20.327   6.902
 3853POPC   C4B50566  26.731  20.429   7.283
 3854POPC   NC350567  17.294  37.809   5.169
 3854POPC   PO450568  16.714  37.404   5.335
 3854POPC   GL150569  16.730  37.414   5.782
 3854POPC   GL250570  16.712  37.747   5.867
 3854POPC   C1A50571  16.463  37.421   6.187
 3854POPC   D2A50572  16.303  37.400   6.620
 3854POPC   C3A50573  16.566  37.431   7.011
 3854POPC   C4A50574  16.308  37.286   7.343
 3854POPC   C1B50575  16.943  37.593   6.236
 3854POPC   C2B50576  16.718  37.706   6.575
 3854POPC   C3B50577  16.768  37.944   6.905
 3854POPC   C4B50578  16.860  37.853   7.313
 3855POPC   NC350579  31.372  37.348   5.578
 3855POPC   PO450580  31.965  37.226   5.519
 3855POPC   GL150581  31.737  37.019   5.821
 3855POPC   GL250582  31.558  36.710   5.705
 3855POPC   C1A50583  31.508  37.015   6.200
 3855POPC   D2A50584  31.298  37.217   6.531
 3855POPC   C3A50585  31.389  37.026   6.913
 3855POPC   C4A50586  31.200  37.120   7.282
 3855POPC   C1B50587  31.309  36.554   6.090
 3855POPC   C2B50588  31.295  36.674   6.530
 3855POPC   C3B50589  31.446  36.509   6.904
 3855POPC   C4B50590  31.492  36.700   7.294
 3856POPC   NC350591   7.744  15.362   5.407
 3856POPC   PO450592   7.494  14.704   5.378
 3856POPC   GL150593   7.410  15.052   5.683
 3856POPC   GL250594   7.730  15.093   5.848
 3856POPC   C1A50595   7.275  15.283   6.092
 3856POPC   D2A50596   7.366  15.357   6.553
 3856POPC   C3A50597   7.074  15.228   6.869
 3856POPC   C4A50598   7.106  15.291   7.310
 3856POPC   C1B50599   7.738  15.091   6.298
 3856POPC   C2B50600   7.764  15.026   6.755
 3856POPC   C3B50601   7.617  15.044   7.164
 3856POPC   C4B50602   7.763  14.889   7.608
 3857POPC   NC350603  32.519  28.759   5.696
 3857POPC   PO450604  32.567  28.165   5.301
 3857POPC   GL150605  32.283  28.177   5.734
 3857POPC   GL250606  32.302  28.418   5.989
 3857POPC   C1A50607  32.132  28.005   6.194
 3857POPC   D2A50608  31.840  28.070   6.580
 3857POPC   C3A50609  31.998  28.418   6.814
 3857POPC   C4A50610  32.240  28.473   7.178
 3857POPC   C1B50611  32.324  28.634   6.377
 3857POPC   C2B50612  32.508  28.378   6.704
 3857POPC   C3B50613  32.760  28.487   7.039
 3857POPC   C4B50614  33.016  28.838   7.109
 3858POPC   NC350615   8.581  11.759   5.450
 3858POPC   PO450616   8.862  12.357   5.238
 3858POPC   GL150617   8.954  12.168   5.639
 3858POPC   GL250618   8.622  12.216   5.714
 3858POPC   C1A50619   8.954  12.276   6.131
 3858POPC   D2A50620   9.167  12.455   6.527
 3858POPC   C3A50621   9.143  12.122   6.834
 3858POPC   C4A50622   9.078  11.875   7.189
 3858POPC   C1B50623   8.533  11.979   6.115
 3858POPC   C2B50624   8.699  12.016   6.547
 3858POPC   C3B50625   8.623  11.856   6.980
 3858POPC   C4B50626   8.611  12.008   7.410
 3859POPC   NC350627  32.615   2.907   5.307
 3859POPC   PO450628  31.980   2.631   5.495
 3859POPC   GL150629  32.391   2.693   5.706
 3859POPC   GL250630  32.521   3.019   5.805
 3859POPC   C1A50631  32.524   2.595   6.094
 3859POPC   D2A50632  32.292   2.552   6.481
 3859POPC   C3A50633  32.458   2.475   6.893
 3859POPC   C4A50634  32.264   2.492   7.310
 3859POPC   C1B50635  32.199   2.982   6.169
 3859POPC   C2B50636  31.899   2.987   6.540
 3859POPC   C3B50637  31.966   3.079   6.991
 3859POPC   C4B50638  32.299   2.996   7.261
 3860POPC   NC350639  12.212  42.146   5.136
 3860POPC   PO450640  11.875  42.579   5.558
 3860POPC   GL150641  12.179  42.303   5.704
 3860POPC   GL250642  11.965  42.176   5.924
 3860POPC   C1A50643  12.398  42.329   6.128
 3860POPC   D2A50644  12.391  42.560   6.535
 3860POPC   C3A50645  12.251  42.324   6.898
 3860POPC   C4A50646  12.080  42.492   7.269
 3860POPC   C1B50647  11.787  42.092   6.279
 3860POPC   C2B50648  11.900  41.943   6.695
 3860POPC   C3B50649  11.812  42.101   7.107
 3860POPC   C4B50650  11.819  42.168   7.604
 3861POPC   NC350651   7.413  22.616   5.514
 3861POPC   PO450652   7.253  23.230   5.346
 3861POPC   GL150653   7.188  23.018   5.765
 3861POPC   GL250654   7.528  22.888   5.912
 3861POPC   C1A50655   7.176  22.963   6.242
 3861POPC   D2A50656   7.543  22.903   6.509
 3861POPC   C3A50657   7.442  23.041   6.935
 3861POPC   C4A50658   7.679  23.245   7.252
 3861POPC   C1B50659   7.365  22.498   6.195
 3861POPC   C2B50660   7.275  22.477   6.641
 3861POPC   C3B50661   7.541  22.562   6.987
 3861POPC   C4B50662   7.452  22.596   7.415
 3862POPC   NC350663  16.420  44.293   5.422
 3862POPC   PO450664  16.808  43.726   5.367
 3862POPC   GL150665  16.801  43.970   5.765
 3862POPC   GL250666  16.471  43.965   5.907
 3862POPC   C1A50667  16.900  44.071   6.201
 3862POPC   D2A50668  16.760  44.087   6.619
 3862POPC   C3A50669  16.968  43.916   6.961
 3862POPC   C4A50670  16.747  43.910   7.346
 3862POPC   C1B50671  16.347  44.221   6.288
 3862POPC   C2B50672  16.398  44.438   6.719
 3862POPC   C3B50673  16.374  44.250   7.140
 3862POPC   C4B50674  16.372  44.169   7.613
 3863POPC   NC350675  20.578   1.030   5.432
 3863POPC   PO450676  20.609   1.563   5.061
 3863POPC   GL150677  20.689   1.535   5.590
 3863POPC   GL250678  20.953   1.306   5.673
 3863POPC   C1A50679  20.673   1.414   6.079
 3863POPC   D2A50680  20.581   1.134   6.460
 3863POPC   C3A50681  20.655   1.279   6.933
 3863POPC   C4A50682  20.472   1.282   7.370
 3863POPC   C1B50683  20.938   0.978   6.030
 3863POPC   C2B50684  21.002   0.821   6.449
 3863POPC   C3B50685  20.731   0.788   6.804
 3863POPC   C4B50686  20.779   0.884   7.260
 3864POPC   NC350687  18.676   8.106   5.177
 3864POPC   PO450688  18.199   8.490   5.487
 3864POPC   GL150689  18.287   8.415   5.919
 3864POPC   GL250690  18.040   8.162   5.986
 3864POPC   C1A50691  18.134   8.578   6.337
 3864POPC   D2A50692  17.859   8.525   6.721
 3864POPC   C3A50693  18.102   8.470   7.122
 3864POPC   C4A50694  18.556   8.329   7.247
 3864POPC   C1B50695  18.328   8.084   6.352
 3864POPC   C2B50696  18.384   8.190   6.781
 3864POPC   C3B50697  18.173   7.982   7.129
 3864POPC   C4B50698  18.053   7.577   7.153
 3865POPC   NC350699  27.150   2.379   5.270
 3865POPC   PO450700  27.798   2.146   5.370
 3865POPC   GL150701  27.472   2.227   5.668
 3865POPC   GL250702  27.740   2.108   5.891
 3865POPC   C1A50703  27.267   2.064   6.074
 3865POPC   D2A50704  27.505   2.010   6.485
 3865POPC   C3A50705  27.416   2.256   6.863
 3865POPC   C4A50706  27.593   2.133   7.244
 3865POPC   C1B50707  27.717   1.720   6.117
 3865POPC   C2B50708  27.789   1.558   6.541
 3865POPC   C3B50709  28.013   1.661   6.956
 3865POPC   C4B50710  27.780   1.652   7.343
 3866POPC   NC350711  12.039   1.400   5.388
 3866POPC   PO450712  11.745   0.794   5.456
 3866POPC   GL150713  11.918   1.061   5.779
 3866POPC   GL250714  12.273   1.003   5.801
 3866POPC   C1A50715  11.865   1.407   6.110
 3866POPC   D2A50716  12.150   1.610   6.462
 3866POPC   C3A50717  12.101   1.505   6.909
 3866POPC   C4A50718  11.802   1.475   7.250
 3866POPC   C1B50719  12.299   1.164   6.212
 3866POPC   C2B50720  11.977   1.148   6.545
 3866POPC   C3B50721  11.860   1.062   6.928
 3866POPC   C4B50722  12.115   1.001   7.219
 3867POPC   NC350723   8.682   3.598   5.179
 3867POPC   PO450724   9.344   3.365   5.333
 3867POPC   GL150725   9.007   3.486   5.654
 3867POPC   GL250726   8.978   3.787   5.859
 3867POPC   C1A50727   8.883   3.310   6.081
 3867POPC   D2A50728   9.074   3.113   6.475
 3867POPC   C3A50729   9.028   3.399   6.823
 3867POPC   C4A50730   9.350   3.542   7.150
 3867POPC   C1B50731   9.208   3.692   6.253
 3867POPC   C2B50732   9.382   3.744   6.661
 3867POPC   C3B50733   9.083   3.905   6.953
 3867POPC   C4B50734   8.799   4.122   7.143
 3868POPC   NC350735  23.862  21.832   5.513
 3868POPC   PO450736  23.571  22.481   5.504
 3868POPC   GL150737  23.629  22.193   5.816
 3868POPC   GL250738  23.407  21.891   5.760
 3868POPC   C1A50739  23.823  22.282   6.208
 3868POPC   D2A50740  24.025  22.194   6.596
 3868POPC   C3A50741  23.872  22.228   6.991
 3868POPC   C4A50742  23.869  21.806   7.172
 3868POPC   C1B50743  23.467  21.894   6.195
 3868POPC   C2B50744  23.441  22.138   6.556
 3868POPC   C3B50745  23.420  22.027   6.967
 3868POPC   C4B50746  23.405  22.289   7.317
 3869POPC   NC350747  10.307   0.733   5.499
 3869POPC   PO450748  10.457   0.189   5.140
 3869POPC   GL150749  10.532   0.307   5.678
 3869POPC   GL250750  10.338   0.597   5.973
 3869POPC   C1A50751  10.777   0.440   6.084
 3869POPC   D2A50752  10.515   0.561   6.465
 3869POPC   C3A50753  10.650   0.442   6.868
 3869POPC   C4A50754  10.674   0.669   7.275
 3869POPC   C1B50755  10.327   0.177   6.173
 3869POPC   C2B50756  10.290   0.090   6.581
 3869POPC   C3B50757  10.134   0.358   6.861
 3869POPC   C4B50758  10.322   0.323   7.231
 3870POPC   NC350759   2.931   1.138   5.374
 3870POPC   PO450760   2.668   1.697   5.547
 3870POPC   GL150761   2.624   1.326   5.760
 3870POPC   GL250762   2.327   1.144   5.689
 3870POPC   C1A50763   2.836   1.127   6.080
 3870POPC   D2A50764   3.010   1.021   6.476
 3870POPC   C3A50765   2.926   1.368   6.747
 3870POPC   C4A50766   2.810   1.388   7.162
 3870POPC   C1B50767   2.255   1.228   6.115
 3870POPC   C2B50768   2.500   1.194   6.489
 3870POPC   C3B50769   2.390   1.221   6.930
 3870POPC   C4B50770   2.466   0.887   7.229
 3871POPC   NC350771  28.938  27.221   5.348
 3871POPC   PO450772  28.270  27.517   5.359
 3871POPC   GL150773  28.405  27.452   5.767
 3871POPC   GL250774  28.636  27.185   5.750
 3871POPC   C1A50775  28.253  27.692   6.126
 3871POPC   D2A50776  28.004  27.700   6.478
 3871POPC   C3A50777  28.294  27.663   6.784
 3871POPC   C4A50778  28.190  27.693   7.176
 3871POPC   C1B50779  28.679  27.362   6.207
 3871POPC   C2B50780  28.707  27.346   6.676
 3871POPC   C3B50781  28.589  27.375   7.115
 3871POPC   C4B50782  28.670  27.453   7.553
 3872POPC   NC350783  14.092  32.452   5.672
 3872POPC   PO450784  14.621  32.704   5.282
 3872POPC   GL150785  14.615  32.508   5.702
 3872POPC   GL250786  14.503  32.134   5.729
 3872POPC   C1A50787  14.604  32.517   6.179
 3872POPC   D2A50788  14.433  32.503   6.635
 3872POPC   C3A50789  14.583  32.279   7.015
 3872POPC   C4A50790  14.497  31.864   7.181
 3872POPC   C1B50791  14.308  32.076   6.160
 3872POPC   C2B50792  14.124  32.023   6.556
 3872POPC   C3B50793  14.040  31.892   6.967
 3872POPC   C4B50794  14.097  32.233   7.234
 3873POPC   NC350795   9.928  17.294   5.389
 3873POPC   PO450796   9.559  17.849   5.408
 3873POPC   GL150797   9.715  17.594   5.790
 3873POPC   GL250798   9.793  17.234   5.872
 3873POPC   C1A50799   9.527  17.497   6.216
 3873POPC   D2A50800   9.744  17.651   6.573
 3873POPC   C3A50801   9.680  17.476   7.000
 3873POPC   C4A50802   9.572  17.570   7.422
 3873POPC   C1B50803   9.961  17.252   6.303
 3873POPC   C2B50804  10.057  17.129   6.749
 3873POPC   C3B50805   9.998  17.123   7.198
 3873POPC   C4B50806   9.972  17.320   7.675
 3874POPC   NC350807  35.419  33.596   5.401
 3874POPC   PO450808  35.003  33.947   5.705
 3874POPC   GL150809  35.413  33.876   5.867
 3874POPC   GL250810  35.304  33.533   5.953
 3874POPC   C1A50811  35.532  34.209   6.170
 3874POPC   D2A50812  35.300  34.368   6.540
 3874POPC   C3A50813  35.322  33.980   6.790
 3874POPC   C4A50814  35.465  33.781   7.189
 3874POPC   C1B50815  35.415  33.678   6.380
 3874POPC   C2B50816  35.490  33.417   6.770
 3874POPC   C3B50817  35.319  33.308   7.172
 3874POPC   C4B50818  34.977  33.568   7.363
 3875POPC   NC350819  34.247  20.734   5.456
 3875POPC   PO450820  34.713  20.173   5.191
 3875POPC   GL150821  34.771  20.476   5.652
 3875POPC   GL250822  34.496  20.509   5.838
 3875POPC   C1A50823  34.831  20.714   6.151
 3875POPC   D2A50824  34.768  20.974   6.577
 3875POPC   C3A50825  34.875  20.788   6.943
 3875POPC   C4A50826  34.779  20.384   7.076
 3875POPC   C1B50827  34.486  20.341   6.250
 3875POPC   C2B50828  34.432  20.324   6.681
 3875POPC   C3B50829  34.318  20.154   7.090
 3875POPC   C4B50830  34.163  20.239   7.503
 3876POPC   NC350831  41.436  14.482   5.401
 3876POPC   PO450832  41.813  13.874   5.352
 3876POPC   GL150833  41.855  14.222   5.693
 3876POPC   GL250834  42.040  14.553   5.649
 3876POPC   C1A50835  41.619  14.378   6.099
 3876POPC   D2A50836  41.300  14.436   6.482
 3876POPC   C3A50837  41.263  14.624   6.939
 3876POPC   C4A50838  41.240  14.449   7.404
 3876POPC   C1B50839  42.111  14.503   6.096
 3876POPC   C2B50840  41.908  14.619   6.472
 3876POPC   C3B50841  41.728  14.425   6.808
 3876POPC   C4B50842  41.686  14.567   7.217
 3877POPC   NC350843   2.888   5.416   5.446
 3877POPC   PO450844   2.526   4.771   5.432
 3877POPC   GL150845   2.643   5.056   5.797
 3877POPC   GL250846   3.001   4.983   5.715
 3877POPC   C1A50847   2.593   5.281   6.260
 3877POPC   D2A50848   2.541   5.319   6.759
 3877POPC   C3A50849   2.826   5.130   7.069
 3877POPC   C4A50850   2.928   5.272   7.507
 3877POPC   C1B50851   3.076   5.179   6.121
 3877POPC   C2B50852   3.009   5.099   6.565
 3877POPC   C3B50853   3.304   4.887   6.855
 3877POPC   C4B50854   3.289   4.996   7.265
 3878POPC   NC350855  18.124  39.379   5.403
 3878POPC   PO450856  18.626  39.057   5.150
 3878POPC   GL150857  18.465  39.061   5.679
 3878POPC   GL250858  18.194  39.306   5.885
 3878POPC   C1A50859  18.453  39.017   6.195
 3878POPC   D2A50860  18.181  39.266   6.473
 3878POPC   C3A50861  18.132  39.075   6.894
 3878POPC   C4A50862  18.417  38.792   7.106
 3878POPC   C1B50863  18.593  39.473   6.031
 3878POPC   C2B50864  18.776  39.407   6.424
 3878POPC   C3B50865  18.603  39.288   6.821
 3878POPC   C4B50866  18.429  39.394   7.227
 3879POPC   NC350867  13.982  26.145   5.316
 3879POPC   PO450868  13.421  25.987   5.326
 3879POPC   GL150869  13.580  26.208   5.698
 3879POPC   GL250870  13.525  25.915   5.895
 3879POPC   C1A50871  13.732  26.261   6.176
 3879POPC   D2A50872  13.665  25.930   6.517
 3879POPC   C3A50873  13.685  25.924   6.988
 3879POPC   C4A50874  13.922  25.766   7.374
 3879POPC   C1B50875  13.327  25.646   6.229
 3879POPC   C2B50876  13.426  25.426   6.625
 3879POPC   C3B50877  13.318  25.499   7.050
 3879POPC   C4B50878  13.432  25.664   7.421
 3880POPC   NC350879   7.746   3.578   5.360
 3880POPC   PO450880   7.030   3.517   5.459
 3880POPC   GL150881   7.365   3.707   5.748
 3880POPC   GL250882   7.654   3.478   5.857
 3880POPC   C1A50883   7.530   3.849   6.190
 3880POPC   D2A50884   7.654   3.619   6.576
 3880POPC   C3A50885   7.400   3.536   6.950
 3880POPC   C4A50886   7.298   3.726   7.326
 3880POPC   C1B50887   7.819   3.265   6.227
 3880POPC   C2B50888   7.949   3.124   6.637
 3880POPC   C3B50889   7.771   3.219   7.038
 3880POPC   C4B50890   7.701   3.426   7.437
 3881POPC   NC350891  11.365  40.732   5.025
 3881POPC   PO450892  11.711  40.792   5.689
 3881POPC   GL150893  11.320  40.938   5.899
 3881POPC   GL250894  11.318  40.641   6.068
 3881POPC   C1A50895  11.092  41.004   6.305
 3881POPC   D2A50896  11.063  41.082   6.720
 3881POPC   C3A50897  11.202  40.716   6.962
 3881POPC   C4A50898  10.977  40.604   7.354
 3881POPC   C1B50899  11.513  40.697   6.485
 3881POPC   C2B50900  11.811  40.442   6.724
 3881POPC   C3B50901  11.702  40.225   7.118
 3881POPC   C4B50902  11.502  40.552   7.379
 3882POPC   NC350903  30.377  27.832   5.439
 3882POPC   PO450904  30.182  27.197   5.633
 3882POPC   GL150905  30.082  27.412   5.980
 3882POPC   GL250906  30.093  27.773   5.909
 3882POPC   C1A50907  30.047  27.538   6.396
 3882POPC   D2A50908  29.957  27.892   6.647
 3882POPC   C3A50909  29.936  27.688   7.032
 3882POPC   C4A50910  29.919  27.287   7.208
 3882POPC   C1B50911  29.639  27.674   6.080
 3882POPC   C2B50912  29.436  27.852   6.475
 3882POPC   C3B50913  29.429  27.870   6.924
 3882POPC   C4B50914  29.495  27.632   7.292
 3883POPC   NC350915  16.197  11.687   5.339
 3883POPC   PO450916  15.907  12.350   5.294
 3883POPC   GL150917  15.985  12.112   5.696
 3883POPC   GL250918  16.314  11.967   5.762
 3883POPC   C1A50919  15.948  11.950   6.109
 3883POPC   D2A50920  15.869  12.180   6.457
 3883POPC   C3A50921  15.748  11.951   6.799
 3883POPC   C4A50922  15.953  11.858   7.157
 3883POPC   C1B50923  16.366  12.244   6.136
 3883POPC   C2B50924  16.362  12.142   6.585
 3883POPC   C3B50925  16.114  12.311   6.929
 3883POPC   C4B50926  16.202  12.689   7.148
 3884POPC   NC350927  17.641  12.730   5.233
 3884POPC   PO450928  17.227  13.260   5.275
 3884POPC   GL150929  17.404  13.080   5.706
 3884POPC   GL250930  17.428  12.707   5.709
 3884POPC   C1A50931  17.530  13.053   6.177
 3884POPC   D2A50932  17.480  13.145   6.644
 3884POPC   C3A50933  17.588  12.818   6.960
 3884POPC   C4A50934  17.520  12.826   7.403
 3884POPC   C1B50935  17.202  12.668   6.114
 3884POPC   C2B50936  17.284  12.627   6.582
 3884POPC   C3B50937  17.141  12.533   7.026
 3884POPC   C4B50938  17.165  12.472   7.490
 3885POPC   NC350939   2.377   7.897   5.265
 3885POPC   PO450940   2.267   7.172   5.324
 3885POPC   GL150941   2.215   7.365   5.777
 3885POPC   GL250942   2.049   7.675   5.808
 3885POPC   C1A50943   2.265   7.575   6.249
 3885POPC   D2A50944   1.999   7.671   6.611
 3885POPC   C3A50945   2.239   7.736   6.980
 3885POPC   C4A50946   2.170   7.469   7.308
 3885POPC   C1B50947   1.797   7.422   6.141
 3885POPC   C2B50948   1.790   7.200   6.536
 3885POPC   C3B50949   1.801   7.272   6.971
 3885POPC   C4B50950   1.539   7.239   7.321
 3886POPC   NC350951  28.210  17.423   5.339
 3886POPC   PO450952  27.877  17.205   5.832
 3886POPC   GL150953  28.160  17.449   5.942
 3886POPC   GL250954  28.480  17.402   5.762
 3886POPC   C1A50955  28.151  17.482   6.377
 3886POPC   D2A50956  27.976  17.680   6.693
 3886POPC   C3A50957  28.050  17.499   7.075
 3886POPC   C4A50958  28.394  17.249   7.153
 3886POPC   C1B50959  28.615  17.576   6.136
 3886POPC   C2B50960  28.618  17.481   6.570
 3886POPC   C3B50961  28.497  17.704   6.918
 3886POPC   C4B50962  28.726  17.611   7.274
 3887POPC   NC350963   4.690  14.050   5.407
 3887POPC   PO450964   4.883  14.621   5.672
 3887POPC   GL150965   5.161  14.521   5.926
 3887POPC   GL250966   5.422  14.765   5.890
 3887POPC   C1A50967   5.075  14.334   6.300
 3887POPC   D2A50968   5.037  14.522   6.691
 3887POPC   C3A50969   5.059  14.268   7.067
 3887POPC   C4A50970   5.010  14.403   7.499
 3887POPC   C1B50971   5.415  14.731   6.319
 3887POPC   C2B50972   5.494  14.875   6.679
 3887POPC   C3B50973   5.429  14.630   7.024
 3887POPC   C4B50974   5.401  14.825   7.399
 3888POPC   NC350975  44.635  19.041   5.183
 3888POPC   PO450976  44.118  19.347   5.529
 3888POPC   GL150977  44.476  19.049   5.677
 3888POPC   GL250978  44.814  19.195   5.777
 3888POPC   C1A50979  44.523  18.950   6.123
 3888POPC   D2A50980  44.388  19.214   6.497
 3888POPC   C3A50981  44.649  19.185   6.873
 3888POPC   C4A50982  44.725  18.853   7.166
 3888POPC   C1B50983  44.865  19.332   6.240
 3888POPC   C2B50984   0.127  19.481   6.605
 3888POPC   C3B50985   0.032  19.569   7.062
 3888POPC   C4B50986  44.833  19.294   7.354
 3889POPC   NC350987  25.157  22.904   5.413
 3889POPC   PO450988  25.668  23.256   5.593
 3889POPC   GL150989  25.453  22.958   5.881
 3889POPC   GL250990  25.069  22.855   5.918
 3889POPC   C1A50991  25.323  23.107   6.294
 3889POPC   D2A50992  25.228  22.899   6.680
 3889POPC   C3A50993  25.305  23.175   7.025
 3889POPC   C4A50994  24.928  23.273   7.270
 3889POPC   C1B50995  25.311  22.599   6.239
 3889POPC   C2B50996  25.540  22.468   6.628
 3889POPC   C3B50997  25.459  22.649   7.061
 3889POPC   C4B50998  25.033  22.771   7.162
 3890POPC   NC350999  10.513   3.789   5.335
 3890POPC   PO451000  10.191   3.266   5.352
 3890POPC   GL151001  10.327   3.459   5.743
 3890POPC   GL251002  10.632   3.649   5.826
 3890POPC   C1A51003  10.382   3.390   6.197
 3890POPC   D2A51004  10.516   3.619   6.561
 3890POPC   C3A51005  10.313   3.535   6.924
 3890POPC   C4A51006  10.377   3.372   7.324
 3890POPC   C1B51007  10.926   3.531   6.173
 3890POPC   C2B51008  11.073   3.465   6.605
 3890POPC   C3B51009  10.841   3.469   7.001
 3890POPC   C4B51010  10.857   3.191   7.356
 3891POPC   NC351011  12.075   6.208   5.385
 3891POPC   PO451012  11.897   5.571   5.457
 3891POPC   GL151013  12.084   5.856   5.815
 3891POPC   GL251014  12.360   6.140   5.815
 3891POPC   C1A51015  12.241   5.835   6.276
 3891POPC   D2A51016  12.408   5.757   6.719
 3891POPC   C3A51017  12.123   5.729   7.088
 3891POPC   C4A51018  11.748   5.979   7.105
 3891POPC   C1B51019  12.002   6.267   6.118
 3891POPC   C2B51020  11.910   6.207   6.573
 3891POPC   C3B51021  12.182   6.224   6.939
 3891POPC   C4B51022  12.544   6.035   7.156
 3892POPC   NC351023   6.377  14.186   5.424
 3892POPC   PO451024   6.549  14.837   5.394
 3892POPC   GL151025   6.356  14.712   5.738
 3892POPC   GL251026   6.631  14.463   5.777
 3892POPC   C1A51027   6.434  14.733   6.175
 3892POPC   D2A51028   6.487  14.448   6.497
 3892POPC   C3A51029   6.366  14.533   6.907
 3892POPC   C4A51030   6.450  14.259   7.251
 3892POPC   C1B51031   6.875  14.473   6.140
 3892POPC   C2B51032   7.019  14.444   6.535
 3892POPC   C3B51033   6.831  14.348   6.898
 3892POPC   C4B51034   6.926  14.386   7.308
 3893POPC   NC351035  20.050   5.261   5.310
 3893POPC   PO451036  19.437   4.914   5.463
 3893POPC   GL151037  19.763   5.129   5.758
 3893POPC   GL251038  20.140   5.207   5.809
 3893POPC   C1A51039  19.773   5.148   6.217
 3893POPC   D2A51040  19.892   5.170   6.668
 3893POPC   C3A51041  19.591   5.200   7.003
 3893POPC   C4A51042  19.388   4.823   7.150
 3893POPC   C1B51043  20.293   5.340   6.228
 3893POPC   C2B51044  20.178   5.580   6.624
 3893POPC   C3B51045  20.146   5.410   7.083
 3893POPC   C4B51046  19.957   5.514   7.496
 3894POPC   NC351047  28.635  24.101   5.342
 3894POPC   PO451048  28.207  23.568   5.311
 3894POPC   GL151049  28.345  23.804   5.691
 3894POPC   GL251050  28.699  23.889   5.849
 3894POPC   C1A51051  28.197  23.832   6.116
 3894POPC   D2A51052  28.275  23.875   6.548
 3894POPC   C3A51053  28.111  23.819   6.934
 3894POPC   C4A51054  28.035  23.531   7.248
 3894POPC   C1B51055  28.733  23.914   6.327
 3894POPC   C2B51056  28.704  23.903   6.822
 3894POPC   C3B51057  28.544  23.730   7.239
 3894POPC   C4B51058  28.761  23.832   7.695
 3895POPC   NC351059  22.957  16.576   4.902
 3895POPC   PO451060  23.286  16.793   5.416
 3895POPC   GL151061  22.973  16.700   5.722
 3895POPC   GL251062  23.200  16.471   5.866
 3895POPC   C1A51063  22.767  16.814   6.123
 3895POPC   D2A51064  22.907  16.953   6.531
 3895POPC   C3A51065  22.793  16.799   6.955
 3895POPC   C4A51066  22.771  16.734   7.413
 3895POPC   C1B51067  23.299  16.805   6.117
 3895POPC   C2B51068  23.423  16.918   6.506
 3895POPC   C3B51069  23.300  16.759   6.848
 3895POPC   C4B51070  23.307  16.727   7.247
 3896POPC   NC351071   5.842  27.870   5.299
 3896POPC   PO451072   5.853  28.558   5.293
 3896POPC   GL151073   5.977  28.304   5.641
 3896POPC   GL251074   6.098  28.541   5.805
 3896POPC   C1A51075   5.873  28.190   6.108
 3896POPC   D2A51076   5.692  28.338   6.505
 3896POPC   C3A51077   5.852  28.282   6.920
 3896POPC   C4A51078   5.648  28.507   7.266
 3896POPC   C1B51079   6.264  28.770   6.149
 3896POPC   C2B51080   6.160  28.623   6.564
 3896POPC   C3B51081   6.012  28.766   6.955
 3896POPC   C4B51082   6.134  28.606   7.329
 3897POPC   NC351083  28.557  44.282   5.013
 3897POPC   PO451084  28.455  44.795   5.464
 3897POPC   GL151085  28.461  44.705   5.850
 3897POPC   GL251086  28.723  44.447   5.844
 3897POPC   C1A51087  28.495  44.922   6.250
 3897POPC   D2A51088  28.411   0.048   6.674
 3897POPC   C3A51089  28.544  44.848   7.079
 3897POPC   C4A51090  28.458  44.743   7.573
 3897POPC   C1B51091  28.551  44.420   6.244
 3897POPC   C2B51092  28.493  44.526   6.649
 3897POPC   C3B51093  28.711  44.354   6.956
 3897POPC   C4B51094  28.814  44.473   7.335
 3898POPC   NC351095  11.675  26.266   5.355
 3898POPC   PO451096  11.203  25.919   5.700
 3898POPC   GL151097  11.141  26.241   5.967
 3898POPC   GL251098  10.811  26.365   6.008
 3898POPC   C1A51099  11.291  26.287   6.368
 3898POPC   D2A51100  11.555  26.008   6.603
 3898POPC   C3A51101  11.466  26.063   7.031
 3898POPC   C4A51102  11.465  26.451   7.301
 3898POPC   C1B51103  10.827  26.012   6.301
 3898POPC   C2B51104  11.018  25.983   6.704
 3898POPC   C3B51105  10.983  25.934   7.140
 3898POPC   C4B51106  11.107  26.146   7.490
 3899POPC   NC351107  14.497  33.184   5.283
 3899POPC   PO451108  13.990  32.875   5.570
 3899POPC   GL151109  14.374  33.024   5.766
 3899POPC   GL251110  14.172  33.319   5.781
 3899POPC   C1A51111  14.522  33.177   6.186
 3899POPC   D2A51112  14.720  33.253   6.610
 3899POPC   C3A51113  14.635  32.918   6.901
 3899POPC   C4A51114  14.336  32.698   7.148
 3899POPC   C1B51115  14.010  33.228   6.210
 3899POPC   C2B51116  14.210  33.208   6.645
 3899POPC   C3B51117  14.087  33.140   7.082
 3899POPC   C4B51118  14.088  33.127   7.550
 3900POPC   NC351119  34.406   4.017   5.448
 3900POPC   PO451120  34.972   4.316   5.469
 3900POPC   GL151121  34.722   4.461   5.808
 3900POPC   GL251122  34.347   4.392   5.785
 3900POPC   C1A51123  34.632   4.288   6.216
 3900POPC   D2A51124  34.750   4.143   6.592
 3900POPC   C3A51125  34.587   4.288   6.975
 3900POPC   C4A51126  34.793   4.367   7.370
 3900POPC   C1B51127  34.131   4.218   6.141
 3900POPC   C2B51128  34.211   4.310   6.560
 3900POPC   C3B51129  34.081   4.231   6.962
 3900POPC   C4B51130  34.278   3.958   7.256
 3901POPC   NC351131  20.152   9.250   5.264
 3901POPC   PO451132  20.834   9.155   5.321
 3901POPC   GL151133  20.789   9.051   5.766
 3901POPC   GL251134  20.445   8.946   5.851
 3901POPC   C1A51135  20.832   9.037   6.229
 3901POPC   D2A51136  20.641   8.875   6.583
 3901POPC   C3A51137  20.606   9.067   6.967
 3901POPC   C4A51138  20.338   9.370   7.149
 3901POPC   C1B51139  20.351   8.662   6.207
 3901POPC   C2B51140  20.373   8.451   6.652
 3901POPC   C3B51141  20.320   8.554   7.122
 3901POPC   C4B51142  20.231   8.406   7.586
 3902POPC   NC351143  34.822  34.010   5.291
 3902POPC   PO451144  34.314  33.483   5.409
 3902POPC   GL151145  34.534  33.509   5.831
 3902POPC   GL251146  34.529  33.834   6.038
 3902POPC   C1A51147  34.804  33.447   6.194
 3902POPC   D2A51148  34.903  33.793   6.469
 3902POPC   C3A51149  34.856  33.757   6.905
 3902POPC   C4A51150  35.032  34.047   7.205
 3902POPC   C1B51151  34.246  34.108   6.306
 3902POPC   C2B51152  34.258  34.132   6.717
 3902POPC   C3B51153  34.468  34.046   7.070
 3902POPC   C4B51154  34.513  33.757   7.345
 3903POPC   NC351155   5.896   2.155   5.504
 3903POPC   PO451156   6.109   1.599   5.329
 3903POPC   GL151157   6.058   1.753   5.764
 3903POPC   GL251158   5.758   1.618   5.836
 3903POPC   C1A51159   5.878   1.981   6.169
 3903POPC   D2A51160   5.966   2.160   6.589
 3903POPC   C3A51161   5.703   2.140   6.930
 3903POPC   C4A51162   5.972   2.061   7.291
 3903POPC   C1B51163   5.492   1.643   6.153
 3903POPC   C2B51164   5.532   1.842   6.535
 3903POPC   C3B51165   5.451   1.650   6.899
 3903POPC   C4B51166   5.545   1.790   7.279
 3904POPC   NC351167  44.450  37.833   5.413
 3904POPC   PO451168   0.103  37.945   5.392
 3904POPC   GL151169  44.802  37.875   5.802
 3904POPC   GL251170  44.439  37.933   5.901
 3904POPC   C1A51171  44.609  37.543   6.143
 3904POPC   D2A51172  44.322  37.504   6.535
 3904POPC   C3A51173  44.516  37.703   6.927
 3904POPC   C4A51174  44.862  37.784   7.218
 3904POPC   C1B51175  44.595  38.031   6.316
 3904POPC   C2B51176  44.763  38.224   6.687
 3904POPC   C3B51177   0.015  38.256   7.074
 3904POPC   C4B51178   0.236  38.142   7.480
 3905POPC   NC351179   4.589  32.545   5.415
 3905POPC   PO451180   4.461  33.148   5.302
 3905POPC   GL151181   4.637  33.022   5.710
 3905POPC   GL251182   4.383  33.215   5.825
 3905POPC   C1A51183   4.682  33.013   6.194
 3905POPC   D2A51184   4.467  33.049   6.600
 3905POPC   C3A51185   4.537  32.935   6.997
 3905POPC   C4A51186   4.270  32.761   7.325
 3905POPC   C1B51187   4.186  33.150   6.196
 3905POPC   C2B51188   4.092  33.385   6.564
 3905POPC   C3B51189   4.122  33.251   6.973
 3905POPC   C4B51190   4.365  33.290   7.310
 3906POPC   NC351191  29.328  23.392   5.398
 3906POPC   PO451192  29.095  24.006   5.247
 3906POPC   GL151193  29.225  23.922   5.700
 3906POPC   GL251194  29.144  23.619   5.820
 3906POPC   C1A51195  29.222  24.008   6.157
 3906POPC   D2A51196  29.190  23.828   6.568
 3906POPC   C3A51197  29.292  24.015   6.956
 3906POPC   C4A51198  29.062  23.853   7.273
 3906POPC   C1B51199  29.038  23.462   6.217
 3906POPC   C2B51200  29.113  23.316   6.628
 3906POPC   C3B51201  28.899  23.456   6.983
 3906POPC   C4B51202  28.888  23.400   7.421
 3907POPC   NC351203  13.803  39.731   5.115
 3907POPC   PO451204  13.716  40.332   5.501
 3907POPC   GL151205  13.707  40.215   5.951
 3907POPC   GL251206  13.940  39.939   6.025
 3907POPC   C1A51207  13.421  40.104   6.290
 3907POPC   D2A51208  13.264  40.251   6.690
 3907POPC   C3A51209  13.403  39.990   7.005
 3907POPC   C4A51210  13.740  40.039   7.252
 3907POPC   C1B51211  13.910  39.657   6.311
 3907POPC   C2B51212  13.708  39.803   6.653
 3907POPC   C3B51213  13.855  39.626   7.000
 3907POPC   C4B51214  14.194  39.852   7.175
 3908POPC   NC351215  23.614  19.257   5.625
 3908POPC   PO451216  24.016  18.761   5.551
 3908POPC   GL151217  23.931  19.012   5.953
 3908POPC   GL251218  23.962  19.389   5.972
 3908POPC   C1A51219  23.748  19.010   6.371
 3908POPC   D2A51220  23.814  18.760   6.747
 3908POPC   C3A51221  23.513  18.813   7.074
 3908POPC   C4A51222  23.648  18.961   7.472
 3908POPC   C1B51223  24.164  19.318   6.343
 3908POPC   C2B51224  24.055  19.239   6.742
 3908POPC   C3B51225  23.985  19.101   7.127
 3908POPC   C4B51226  23.881  19.398   7.425
 3909POPC   NC351227   9.360  34.987   5.546
 3909POPC   PO451228   8.806  35.480   5.447
 3909POPC   GL151229   8.935  35.220   5.761
 3909POPC   GL251230   9.234  35.326   5.909
 3909POPC   C1A51231   8.834  35.271   6.195
 3909POPC   D2A51232   9.027  35.473   6.587
 3909POPC   C3A51233   9.002  35.140   6.896
 3909POPC   C4A51234   8.872  35.274   7.298
 3909POPC   C1B51235   9.318  35.150   6.323
 3909POPC   C2B51236   9.504  35.266   6.722
 3909POPC   C3B51237   9.342  35.452   7.103
 3909POPC   C4B51238   9.310  35.291   7.535
 3910POPC   NC351239  14.823  39.235   5.331
 3910POPC   PO451240  15.297  38.790   5.384
 3910POPC   GL151241  15.361  39.129   5.693
 3910POPC   GL251242  15.109  39.404   5.713
 3910POPC   C1A51243  15.380  39.226   6.129
 3910POPC   D2A51244  15.477  39.118   6.552
 3910POPC   C3A51245  15.334  39.321   6.912
 3910POPC   C4A51246  15.471  39.276   7.321
 3910POPC   C1B51247  14.895  39.500   6.090
 3910POPC   C2B51248  15.036  39.385   6.494
 3910POPC   C3B51249  14.844  39.452   6.904
 3910POPC   C4B51250  14.878  39.241   7.308
 3911POPC   NC351251   5.537   8.374   5.120
 3911POPC   PO451252   6.112   8.369   5.476
 3911POPC   GL151253   5.903   8.101   5.791
 3911POPC   GL251254   5.560   7.970   5.839
 3911POPC   C1A51255   5.902   7.948   6.220
 3911POPC   D2A51256   5.756   8.121   6.595
 3911POPC   C3A51257   6.077   8.088   6.893
 3911POPC   C4A51258   5.894   7.862   7.210
 3911POPC   C1B51259   5.647   8.387   6.129
 3911POPC   C2B51260   5.617   8.642   6.537
 3911POPC   C3B51261   5.780   8.521   6.946
 3911POPC   C4B51262   5.993   8.727   7.241
 3912POPC   NC351263  12.134  25.479   5.308
 3912POPC   PO451264  12.416  24.910   5.164
 3912POPC   GL151265  12.347  25.134   5.624
 3912POPC   GL251266  12.359  25.485   5.777
 3912POPC   C1A51267  12.240  25.082   6.085
 3912POPC   D2A51268  12.160  25.257   6.499
 3912POPC   C3A51269  12.129  24.986   6.872
 3912POPC   C4A51270  12.098  24.993   7.294
 3912POPC   C1B51271  12.032  25.560   6.075
 3912POPC   C2B51272  11.736  25.534   6.432
 3912POPC   C3B51273  11.800  25.430   6.872
 3912POPC   C4B51274  11.841  25.635   7.278
 3913POPC   NC351275  10.220   2.220   5.476
 3913POPC   PO451276  10.668   1.790   5.442
 3913POPC   GL151277  10.416   1.875   5.816
 3913POPC   GL251278  10.215   1.622   5.910
 3913POPC   C1A51279  10.379   2.056   6.246
 3913POPC   D2A51280  10.495   2.209   6.653
 3913POPC   C3A51281  10.349   2.033   7.040
 3913POPC   C4A51282  10.497   1.974   7.476
 3913POPC   C1B51283  10.485   1.556   6.251
 3913POPC   C2B51284  10.331   1.681   6.652
 3913POPC   C3B51285  10.491   1.546   7.042
 3913POPC   C4B51286  10.846   1.545   7.278
 3914POPC   NC351287  34.319  25.864   5.322
 3914POPC   PO451288  34.796  26.360   5.503
 3914POPC   GL151289  34.614  26.041   5.775
 3914POPC   GL251290  34.227  26.003   5.802
 3914POPC   C1A51291  34.827  25.970   6.169
 3914POPC   D2A51292  34.652  25.879   6.567
 3914POPC   C3A51293  34.865  26.001   6.962
 3914POPC   C4A51294  34.822  26.340   7.264
 3914POPC   C1B51295  34.320  26.142   6.211
 3914POPC   C2B51296  34.284  26.222   6.641
 3914POPC   C3B51297  34.358  26.065   7.092
 3914POPC   C4B51298  34.208  26.056   7.525
 3915POPC   NC351299  15.030   1.385   5.331
 3915POPC   PO451300  15.690   1.267   5.348
 3915POPC   GL151301  15.369   1.162   5.730
 3915POPC   GL251302  15.055   0.924   5.635
 3915POPC   C1A51303  15.293   1.291   6.217
 3915POPC   D2A51304  15.390   1.533   6.639
 3915POPC   C3A51305  15.173   1.343   7.021
 3915POPC   C4A51306  15.335   1.170   7.429
 3915POPC   C1B51307  15.004   0.869   6.090
 3915POPC   C2B51308  15.256   0.801   6.475
 3915POPC   C3B51309  15.261   0.824   6.943
 3915POPC   C4B51310  14.936   0.902   7.236
 3916POPC   NC351311  14.974  28.792   5.573
 3916POPC   PO451312  15.145  28.113   5.376
 3916POPC   GL151313  15.139  28.149   5.842
 3916POPC   GL251314  15.212  28.491   5.910
 3916POPC   C1A51315  15.048  28.228   6.295
 3916POPC   D2A51316  14.947  28.509   6.597
 3916POPC   C3A51317  15.101  28.369   6.944
 3916POPC   C4A51318  15.037  28.379   7.315
 3916POPC   C1B51319  15.371  28.654   6.324
 3916POPC   C2B51320  15.383  28.747   6.759
 3916POPC   C3B51321  15.382  28.732   7.189
 3916POPC   C4B51322  15.670  28.474   7.480
 3917POPC   NC351323   6.998  10.337   5.638
 3917POPC   PO451324   7.646  10.533   5.369
 3917POPC   GL151325   7.521  10.435   5.776
 3917POPC   GL251326   7.268  10.626   5.944
 3917POPC   C1A51327   7.706  10.525   6.201
 3917POPC   D2A51328   7.523  10.560   6.609
 3917POPC   C3A51329   7.619  10.267   6.940
 3917POPC   C4A51330   7.624  10.417   7.351
 3917POPC   C1B51331   7.137  10.785   6.305
 3917POPC   C2B51332   7.059  10.733   6.692
 3917POPC   C3B51333   7.217  10.559   7.051
 3917POPC   C4B51334   7.229  10.736   7.464
 3918POPC   NC351335  38.060  18.907   5.443
 3918POPC   PO451336  38.641  18.950   5.128
 3918POPC   GL151337  38.538  18.797   5.628
 3918POPC   GL251338  38.787  18.968   5.849
 3918POPC   C1A51339  38.267  18.904   6.085
 3918POPC   D2A51340  38.148  19.268   6.414
 3918POPC   C3A51341  38.108  19.179   6.917
 3918POPC   C4A51342  38.247  18.915   7.312
 3918POPC   C1B51343  38.669  19.191   6.255
 3918POPC   C2B51344  38.533  19.039   6.663
 3918POPC   C3B51345  38.664  19.168   7.080
 3918POPC   C4B51346  39.052  19.378   7.191
 3919POPC   NC351347  37.702  23.759   5.390
 3919POPC   PO451348  37.285  24.125   5.627
 3919POPC   GL151349  37.494  23.879   5.843
 3919POPC   GL251350  37.392  23.547   5.817
 3919POPC   C1A51351  37.521  23.820   6.240
 3919POPC   D2A51352  37.673  24.052   6.543
 3919POPC   C3A51353  37.506  23.893   6.894
 3919POPC   C4A51354  37.633  23.952   7.263
 3919POPC   C1B51355  37.773  23.403   6.065
 3919POPC   C2B51356  37.943  23.618   6.433
 3919POPC   C3B51357  37.911  23.579   6.859
 3919POPC   C4B51358  37.698  23.466   7.209
 3920POPC   NC351359  28.861  22.653   5.650
 3920POPC   PO451360  29.332  22.166   5.356
 3920POPC   GL151361  29.120  22.228   5.759
 3920POPC   GL251362  29.273  22.544   5.945
 3920POPC   C1A51363  28.915  22.175   6.174
 3920POPC   D2A51364  29.127  22.194   6.566
 3920POPC   C3A51365  28.903  22.121   6.893
 3920POPC   C4A51366  28.859  22.337   7.250
 3920POPC   C1B51367  29.446  22.180   6.157
 3920POPC   C2B51368  29.486  21.827   6.437
 3920POPC   C3B51369  29.420  21.843   6.878
 3920POPC   C4B51370  29.334  22.180   7.154
 3921POPC   NC351371  15.427   9.753   5.407
 3921POPC   PO451372  16.053   9.958   5.209
 3921POPC   GL151373  15.928   9.798   5.652
 3921POPC   GL251374  15.703  10.030   5.811
 3921POPC   C1A51375  15.837   9.599   6.102
 3921POPC   D2A51376  15.990   9.694   6.558
 3921POPC   C3A51377  15.885   9.603   7.008
 3921POPC   C4A51378  15.648   9.808   7.324
 3921POPC   C1B51379  15.990  10.079   6.175
 3921POPC   C2B51380  15.998  10.211   6.622
 3921POPC   C3B51381  16.127  10.056   7.037
 3921POPC   C4B51382  16.432  10.155   7.374
 3922POPC   NC351383  14.571  36.266   5.282
 3922POPC   PO451384  14.125  35.813   5.447
 3922POPC   GL151385  14.324  35.980   5.831
 3922POPC   GL251386  14.478  36.329   5.821
 3922POPC   C1A51387  14.495  35.924   6.280
 3922POPC   D2A51388  14.728  35.943   6.674
 3922POPC   C3A51389  14.479  36.036   7.033
 3922POPC   C4A51390  14.401  35.982   7.448
 3922POPC   C1B51391  14.646  36.418   6.264
 3922POPC   C2B51392  14.593  36.430   6.720
 3922POPC   C3B51393  14.847  36.368   7.133
 3922POPC   C4B51394  14.924  36.084   7.542
 3923POPC   NC351395   2.191  11.431   5.067
 3923POPC   PO451396   2.742  11.309   5.516
 3923POPC   GL151397   2.691  11.136   5.892
 3923POPC   GL251398   2.366  10.959   5.879
 3923POPC   C1A51399   2.944  11.191   6.250
 3923POPC   D2A51400   3.144  11.105   6.617
 3923POPC   C3A51401   2.965  11.340   6.901
 3923POPC   C4A51402   2.999  11.465   7.300
 3923POPC   C1B51403   2.297  11.312   6.174
 3923POPC   C2B51404   2.495  11.356   6.558
 3923POPC   C3B51405   2.449  11.193   6.960
 3923POPC   C4B51406   2.456  11.463   7.323
 3924POPC   NC351407  11.844  32.510   5.534
 3924POPC   PO451408  11.710  31.898   5.516
 3924POPC   GL151409  11.920  32.116   5.901
 3924POPC   GL251410  12.202  32.376   5.889
 3924POPC   C1A51411  12.146  32.173   6.345
 3924POPC   D2A51412  12.209  32.452   6.708
 3924POPC   C3A51413  12.208  32.270   7.128
 3924POPC   C4A51414  11.969  32.047   7.345
 3924POPC   C1B51415  11.999  32.650   6.231
 3924POPC   C2B51416  11.910  32.875   6.624
 3924POPC   C3B51417  11.890  32.676   7.063
 3924POPC   C4B51418  12.161  32.767   7.463
 3925POPC   NC351419  40.639  20.943   5.172
 3925POPC   PO451420  41.029  21.517   5.045
 3925POPC   GL151421  40.827  21.323   5.479
 3925POPC   GL251422  40.835  21.584   5.728
 3925POPC   C1A51423  40.660  21.171   5.949
 3925POPC   D2A51424  40.760  21.164   6.424
 3925POPC   C3A51425  40.604  21.311   6.852
 3925POPC   C4A51426  40.588  21.096   7.252
 3925POPC   C1B51427  40.747  21.659   6.198
 3925POPC   C2B51428  40.952  21.618   6.603
 3925POPC   C3B51429  40.887  21.744   7.040
 3925POPC   C4B51430  40.794  21.722   7.484
 3926POPC   NC351431   3.359   7.842   5.255
 3926POPC   PO451432   3.542   8.503   5.275
 3926POPC   GL151433   3.477   8.401   5.713
 3926POPC   GL251434   3.591   8.100   5.829
 3926POPC   C1A51435   3.450   8.424   6.186
 3926POPC   D2A51436   3.387   8.161   6.547
 3926POPC   C3A51437   3.544   8.325   6.929
 3926POPC   C4A51438   3.390   8.170   7.310
 3926POPC   C1B51439   3.754   7.911   6.236
 3926POPC   C2B51440   3.593   7.693   6.603
 3926POPC   C3B51441   3.580   7.780   7.042
 3926POPC   C4B51442   3.938   7.707   7.294
 3927POPC   NC351443  40.445  26.125   5.446
 3927POPC   PO451444  41.134  25.903   5.435
 3927POPC   GL151445  40.821  26.084   5.808
 3927POPC   GL251446  40.509  26.346   5.893
 3927POPC   C1A51447  40.661  25.895   6.212
 3927POPC   D2A51448  40.798  25.645   6.564
 3927POPC   C3A51449  40.762  25.856   6.964
 3927POPC   C4A51450  41.065  25.963   7.321
 3927POPC   C1B51451  40.791  26.389   6.229
 3927POPC   C2B51452  41.003  26.154   6.548
 3927POPC   C3B51453  41.072  26.304   6.932
 3927POPC   C4B51454  40.707  26.341   7.159
 3928POPC   NC351455   4.288  20.839   5.421
 3928POPC   PO451456   4.399  20.156   5.521
 3928POPC   GL151457   4.400  20.495   5.804
 3928POPC   GL251458   4.077  20.457   5.927
 3928POPC   C1A51459   4.377  20.761   6.194
 3928POPC   D2A51460   4.220  20.699   6.617
 3928POPC   C3A51461   4.242  21.032   6.923
 3928POPC   C4A51462   4.392  20.975   7.309
 3928POPC   C1B51463   4.067  20.284   6.342
 3928POPC   C2B51464   3.842  20.356   6.745
 3928POPC   C3B51465   3.945  20.640   7.081
 3928POPC   C4B51466   4.046  20.624   7.498
 3929POPC   NC351467   9.974  23.573   5.084
 3929POPC   PO451468   9.437  23.505   5.593
 3929POPC   GL151469   9.551  23.553   5.935
 3929POPC   GL251470   9.770  23.808   5.911
 3929POPC   C1A51471   9.462  23.346   6.263
 3929POPC   D2A51472   9.557  23.568   6.585
 3929POPC   C3A51473   9.756  23.369   6.884
 3929POPC   C4A51474   9.809  23.600   7.258
 3929POPC   C1B51475  10.002  24.100   6.156
 3929POPC   C2B51476   9.768  24.150   6.517
 3929POPC   C3B51477   9.729  23.961   6.910
 3929POPC   C4B51478   9.928  24.183   7.256
 3930POPC   NC351479  36.445  19.005   5.264
 3930POPC   PO451480  36.996  19.402   5.388
 3930POPC   GL151481  36.891  19.207   5.735
 3930POPC   GL251482  36.576  19.152   5.730
 3930POPC   C1A51483  37.065  19.192   6.125
 3930POPC   D2A51484  37.205  19.304   6.504
 3930POPC   C3A51485  37.146  18.990   6.793
 3930POPC   C4A51486  37.257  19.031   7.210
 3930POPC   C1B51487  36.527  19.110   6.158
 3930POPC   C2B51488  36.703  18.908   6.497
 3930POPC   C3B51489  36.647  18.945   6.922
 3930POPC   C4B51490  36.876  18.698   7.172
 3931POPC   NC351491  32.898  37.246   5.034
 3931POPC   PO451492  33.077  37.817   5.348
 3931POPC   GL151493  33.076  37.627   5.726
 3931POPC   GL251494  33.405  37.715   5.858
 3931POPC   C1A51495  32.893  37.605   6.149
 3931POPC   D2A51496  32.699  37.740   6.561
 3931POPC   C3A51497  32.850  37.577   7.002
 3931POPC   C4A51498  32.844  37.819   7.419
 3931POPC   C1B51499  33.235  38.008   6.197
 3931POPC   C2B51500  33.134  38.114   6.629
 3931POPC   C3B51501  33.181  37.957   7.035
 3931POPC   C4B51502  33.364  38.065   7.431
 3932POPC   NC351503  10.061  40.150   5.445
 3932POPC   PO451504   9.462  39.995   5.685
 3932POPC   GL151505   9.832  39.983   5.875
 3932POPC   GL251506   9.919  40.311   5.906
 3932POPC   C1A51507   9.987  39.848   6.253
 3932POPC   D2A51508   9.994  39.757   6.697
 3932POPC   C3A51509   9.658  39.912   6.992
 3932POPC   C4A51510   9.817  39.737   7.372
 3932POPC   C1B51511   9.598  40.272   6.224
 3932POPC   C2B51512   9.736  40.198   6.568
 3932POPC   C3B51513   9.761  40.471   6.857
 3932POPC   C4B51514   9.630  40.416   7.249
 3933POPC   NC351515  12.701  38.071   5.386
 3933POPC   PO451516  12.964  38.646   5.365
 3933POPC   GL151517  12.930  38.379   5.706
 3933POPC   GL251518  12.560  38.421   5.744
 3933POPC   C1A51519  12.950  38.416   6.125
 3933POPC   D2A51520  13.178  38.463   6.492
 3933POPC   C3A51521  13.057  38.263   6.890
 3933POPC   C4A51522  12.919  38.012   7.239
 3933POPC   C1B51523  12.466  38.274   6.180
 3933POPC   C2B51524  12.674  38.416   6.575
 3933POPC   C3B51525  12.556  38.366   7.022
 3933POPC   C4B51526  12.692  38.451   7.434
 3934POPC   NC351527  31.573  10.808   5.576
 3934POPC   PO451528  31.252  10.188   5.567
 3934POPC   GL151529  31.418  10.426   5.876
 3934POPC   GL251530  31.791  10.419   5.856
 3934POPC   C1A51531  31.217  10.510   6.255
 3934POPC   D2A51532  30.963  10.347   6.569
 3934POPC   C3A51533  31.088  10.550   6.912
 3934POPC   C4A51534  31.153  10.411   7.310
 3934POPC   C1B51535  31.729  10.666   6.249
 3934POPC   C2B51536  31.491  10.758   6.626
 3934POPC   C3B51537  31.568  10.628   7.048
 3934POPC   C4B51538  31.656  10.477   7.450
 3935POPC   NC351539  10.976  43.424   5.563
 3935POPC   PO451540  10.350  43.113   5.483
 3935POPC   GL151541  10.394  43.033   5.915
 3935POPC   GL251542  10.723  43.111   5.904
 3935POPC   C1A51543  10.379  43.160   6.343
 3935POPC   D2A51544  10.223  43.460   6.593
 3935POPC   C3A51545  10.106  43.265   6.948
 3935POPC   C4A51546  10.347  43.066   7.242
 3935POPC   C1B51547  10.873  43.001   6.275
 3935POPC   C2B51548  10.824  42.914   6.728
 3935POPC   C3B51549  10.808  42.858   7.174
 3935POPC   C4B51550  11.027  42.983   7.562
 3936POPC   NC351551  39.793  35.516   5.457
 3936POPC   PO451552  40.347  35.267   5.179
 3936POPC   GL151553  40.180  35.222   5.631
 3936POPC   GL251554  39.973  34.908   5.602
 3936POPC   C1A51555  40.093  35.471   6.061
 3936POPC   D2A51556  40.191  35.638   6.492
 3936POPC   C3A51557  40.019  35.509   6.905
 3936POPC   C4A51558  39.908  35.653   7.336
 3936POPC   C1B51559  40.050  34.971   6.061
 3936POPC   C2B51560  39.960  35.177   6.472
 3936POPC   C3B51561  39.985  34.996   6.889
 3936POPC   C4B51562  39.782  35.156   7.216
 3937POPC   NC351563  38.695   5.199   5.323
 3937POPC   PO451564  38.330   4.766   5.288
 3937POPC   GL151565  38.397   4.969   5.706
 3937POPC   GL251566  38.216   4.768   5.966
 3937POPC   C1A51567  38.628   5.137   6.091
 3937POPC   D2A51568  38.775   4.944   6.504
 3937POPC   C3A51569  38.554   4.870   6.911
 3937POPC   C4A51570  38.372   5.095   7.274
 3937POPC   C1B51571  38.216   4.988   6.395
 3937POPC   C2B51572  38.100   5.116   6.830
 3937POPC   C3B51573  37.868   4.945   7.193
 3937POPC   C4B51574  37.663   4.981   7.614
 3938POPC   NC351575  12.788   1.793   5.329
 3938POPC   PO451576  13.070   2.404   5.317
 3938POPC   GL151577  12.810   2.176   5.699
 3938POPC   GL251578  12.554   1.878   5.760
 3938POPC   C1A51579  12.859   2.034   6.154
 3938POPC   D2A51580  12.803   2.141   6.589
 3938POPC   C3A51581  12.934   1.919   6.968
 3938POPC   C4A51582  12.933   2.156   7.408
 3938POPC   C1B51583  12.541   1.622   6.130
 3938POPC   C2B51584  12.663   1.642   6.569
 3938POPC   C3B51585  12.593   1.533   7.015
 3938POPC   C4B51586  12.616   1.775   7.410
 3939POPC   NC351587  36.826  44.964   5.655
 3939POPC   PO451588  37.165   0.307   5.202
 3939POPC   GL151589  37.293   0.444   5.676
 3939POPC   GL251590  37.173   0.197   5.925
 3939POPC   C1A51591  37.360   0.590   6.160
 3939POPC   D2A51592  37.239   0.275   6.478
 3939POPC   C3A51593  37.021   0.283   6.873
 3939POPC   C4A51594  36.949   0.623   7.141
 3939POPC   C1B51595  36.847   0.417   6.159
 3939POPC   C2B51596  36.735   0.649   6.526
 3939POPC   C3B51597  36.507   0.602   6.879
 3939POPC   C4B51598  36.528   0.333   7.207
 3940POPC   NC351599  17.769  20.759   5.696
 3940POPC   PO451600  18.308  20.712   5.248
 3940POPC   GL151601  18.301  20.788   5.716
 3940POPC   GL251602  18.360  20.470   5.887
 3940POPC   C1A51603  18.375  20.919   6.182
 3940POPC   D2A51604  18.433  20.680   6.585
 3940POPC   C3A51605  18.495  20.875   6.984
 3940POPC   C4A51606  18.221  20.982   7.311
 3940POPC   C1B51607  18.034  20.538   6.241
 3940POPC   C2B51608  17.821  20.824   6.528
 3940POPC   C3B51609  17.849  20.835   6.990
 3940POPC   C4B51610  18.153  20.504   7.161
 3941POPC   NC351611   2.352   5.217   5.349
 3941POPC   PO451612   1.654   5.360   5.292
 3941POPC   GL151613   1.946   5.320   5.622
 3941POPC   GL251614   2.024   4.969   5.729
 3941POPC   C1A51615   1.926   5.379   6.064
 3941POPC   D2A51616   2.110   5.300   6.463
 3941POPC   C3A51617   1.972   5.064   6.808
 3941POPC   C4A51618   2.072   5.167   7.204
 3941POPC   C1B51619   2.243   4.909   6.132
 3941POPC   C2B51620   2.498   4.861   6.532
 3941POPC   C3B51621   2.387   4.787   6.980
 3941POPC   C4B51622   2.498   4.903   7.410
 3942POPC   NC351623  41.689  23.219   5.298
 3942POPC   PO451624  41.290  22.632   5.414
 3942POPC   GL151625  41.452  22.869   5.778
 3942POPC   GL251626  41.701  23.133   5.803
 3942POPC   C1A51627  41.224  23.042   6.148
 3942POPC   D2A51628  41.052  22.998   6.556
 3942POPC   C3A51629  41.316  23.083   6.900
 3942POPC   C4A51630  41.434  22.903   7.283
 3942POPC   C1B51631  41.711  22.928   6.228
 3942POPC   C2B51632  41.865  22.916   6.657
 3942POPC   C3B51633  41.906  22.641   7.010
 3942POPC   C4B51634  41.878  22.711   7.463
 3943POPC   NC351635   9.596  14.085   5.355
 3943POPC   PO451636   9.706  14.717   5.394
 3943POPC   GL151637   9.789  14.563   5.806
 3943POPC   GL251638   9.505  14.307   5.817
 3943POPC   C1A51639  10.058  14.562   6.221
 3943POPC   D2A51640   9.949  14.468   6.683
 3943POPC   C3A51641  10.028  14.749   7.074
 3943POPC   C4A51642  10.209  14.637   7.513
 3943POPC   C1B51643   9.583  14.415   6.252
 3943POPC   C2B51644   9.504  14.228   6.602
 3943POPC   C3B51645   9.602  14.157   6.995
 3943POPC   C4B51646   9.722  14.250   7.408
 3944POPC   NC351647  28.394   7.917   5.085
 3944POPC   PO451648  28.199   8.519   5.418
 3944POPC   GL151649  28.498   8.369   5.728
 3944POPC   GL251650  28.561   8.019   5.810
 3944POPC   C1A51651  28.525   8.446   6.151
 3944POPC   D2A51652  28.366   8.429   6.547
 3944POPC   C3A51653  28.607   8.202   6.825
 3944POPC   C4A51654  28.432   8.233   7.205
 3944POPC   C1B51655  28.155   8.107   6.036
 3944POPC   C2B51656  27.989   8.089   6.451
 3944POPC   C3B51657  28.168   7.917   6.822
 3944POPC   C4B51658  28.176   7.799   7.244
 3945POPC   NC351659   5.821  29.403   5.462
 3945POPC   PO451660   5.480  28.892   5.600
 3945POPC   GL151661   5.753  28.921   5.873
 3945POPC   GL251662   6.061  29.041   5.736
 3945POPC   C1A51663   5.748  28.791   6.269
 3945POPC   D2A51664   5.799  29.070   6.582
 3945POPC   C3A51665   5.591  29.083   6.956
 3945POPC   C4A51666   5.813  29.021   7.370
 3945POPC   C1B51667   6.022  29.289   6.136
 3945POPC   C2B51668   6.186  29.396   6.557
 3945POPC   C3B51669   6.060  29.306   6.975
 3945POPC   C4B51670   6.197  29.486   7.338
 3946POPC   NC351671  26.829  16.519   5.469
 3946POPC   PO451672  27.094  17.113   5.504
 3946POPC   GL151673  27.070  16.855   5.799
 3946POPC   GL251674  26.732  16.886   5.854
 3946POPC   C1A51675  27.053  16.739   6.215
 3946POPC   D2A51676  26.863  16.833   6.587
 3946POPC   C3A51677  26.812  16.483   6.874
 3946POPC   C4A51678  26.911  16.600   7.289
 3946POPC   C1B51679  26.453  16.833   6.173
 3946POPC   C2B51680  26.378  16.694   6.572
 3946POPC   C3B51681  26.458  16.836   6.971
 3946POPC   C4B51682  26.423  16.534   7.262
 3947POPC   NC351683  19.887  28.110   5.396
 3947POPC   PO451684  20.126  28.778   5.550
 3947POPC   GL151685  19.724  28.549   5.715
 3947POPC   GL251686  19.676  28.163   5.835
 3947POPC   C1A51687  19.557  28.550   6.127
 3947POPC   D2A51688  19.709  28.384   6.511
 3947POPC   C3A51689  19.744  28.662   6.870
 3947POPC   C4A51690  19.792  28.445   7.254
 3947POPC   C1B51691  20.019  28.229   6.101
 3947POPC   C2B51692  20.114  28.021   6.486
 3947POPC   C3B51693  20.153  28.171   6.909
 3947POPC   C4B51694  20.116  28.043   7.328
 3948POPC   NC351695  43.765  14.194   5.095
 3948POPC   PO451696  44.049  14.607   5.528
 3948POPC   GL151697  43.767  14.421   5.846
 3948POPC   GL251698  43.527  14.177   5.668
 3948POPC   C1A51699  43.946  14.463   6.271
 3948POPC   D2A51700  44.298  14.528   6.586
 3948POPC   C3A51701  44.064  14.504   6.967
 3948POPC   C4A51702  43.804  14.725   7.210
 3948POPC   C1B51703  43.418  14.094   6.109
 3948POPC   C2B51704  43.637  14.120   6.512
 3948POPC   C3B51705  43.538  14.041   6.940
 3948POPC   C4B51706  43.724  14.227   7.290
 3949POPC   NC351707  24.628   0.996   4.991
 3949POPC   PO451708  25.175   1.051   5.397
 3949POPC   GL151709  25.201   1.083   5.821
 3949POPC   GL251710  24.883   0.909   5.825
 3949POPC   C1A51711  25.376   1.146   6.255
 3949POPC   D2A51712  25.453   1.300   6.657
 3949POPC   C3A51713  25.312   1.145   7.053
 3949POPC   C4A51714  25.504   1.381   7.340
 3949POPC   C1B51715  24.861   1.182   6.187
 3949POPC   C2B51716  24.964   1.165   6.607
 3949POPC   C3B51717  24.836   1.341   6.950
 3949POPC   C4B51718  24.843   1.184   7.315
 3950POPC   NC351719  19.420  39.857   4.929
 3950POPC   PO451720  19.000  40.239   5.354
 3950POPC   GL151721  18.800  40.137   5.749
 3950POPC   GL251722  19.041  40.289   5.908
 3950POPC   C1A51723  18.715  39.950   6.187
 3950POPC   D2A51724  18.827  40.034   6.622
 3950POPC   C3A51725  18.752  39.764   6.974
 3950POPC   C4A51726  19.071  39.865   7.220
 3950POPC   C1B51727  19.175  40.272   6.313
 3950POPC   C2B51728  19.532  40.502   6.538
 3950POPC   C3B51729  19.540  40.475   7.020
 3950POPC   C4B51730  19.194  40.557   7.327
 3951POPC   NC351731  14.514  41.782   5.277
 3951POPC   PO451732  14.083  41.259   5.471
 3951POPC   GL151733  14.325  41.553   5.679
 3951POPC   GL251734  14.625  41.368   5.601
 3951POPC   C1A51735  14.366  41.813   6.050
 3951POPC   D2A51736  14.394  41.659   6.472
 3951POPC   C3A51737  14.332  41.885   6.870
 3951POPC   C4A51738  14.556  41.802   7.238
 3951POPC   C1B51739  14.543  41.332   6.068
 3951POPC   C2B51740  14.447  41.160   6.484
 3951POPC   C3B51741  14.534  41.360   6.886
 3951POPC   C4B51742  14.602  41.271   7.317
 3952POPC   NC351743   5.617  10.549   5.526
 3952POPC   PO451744   6.174  10.149   5.411
 3952POPC   GL151745   6.022  10.396   5.816
 3952POPC   GL251746   6.160  10.743   5.860
 3952POPC   C1A51747   5.747  10.536   6.178
 3952POPC   D2A51748   5.550  10.490   6.594
 3952POPC   C3A51749   5.677  10.760   6.917
 3952POPC   C4A51750   5.953  10.616   7.212
 3952POPC   C1B51751   6.249  10.583   6.299
 3952POPC   C2B51752   6.220  10.640   6.770
 3952POPC   C3B51753   6.418  10.784   7.182
 3952POPC   C4B51754   6.380  10.599   7.618
 3953POPC   NC351755   1.817  10.697   5.360
 3953POPC   PO451756   2.443  10.401   5.435
 3953POPC   GL151757   2.194  10.460   5.837
 3953POPC   GL251758   1.831  10.345   5.774
 3953POPC   C1A51759   2.315  10.568   6.307
 3953POPC   D2A51760   2.390  10.550   6.799
 3953POPC   C3A51761   2.102  10.739   7.049
 3953POPC   C4A51762   1.621  10.742   7.060
 3953POPC   C1B51763   1.938  10.243   6.216
 3953POPC   C2B51764   1.918  10.470   6.612
 3953POPC   C3B51765   1.881  10.289   7.011
 3953POPC   C4B51766   1.620  10.301   7.355
 3954POPC   NC351767  41.506  35.127   5.429
 3954POPC   PO451768  41.758  35.736   5.495
 3954POPC   GL151769  41.711  35.439   5.805
 3954POPC   GL251770  42.007  35.257   5.911
 3954POPC   C1A51771  41.531  35.340   6.200
 3954POPC   D2A51772  41.613  34.991   6.481
 3954POPC   C3A51773  41.441  34.974   6.912
 3954POPC   C4A51774  41.368  35.405   7.047
 3954POPC   C1B51775  42.049  35.694   6.094
 3954POPC   C2B51776  41.735  35.844   6.386
 3954POPC   C3B51777  41.843  35.826   6.831
 3954POPC   C4B51778  41.663  35.757   7.241
 3955POPC   NC351779   4.708  17.707   5.019
 3955POPC   PO451780   4.175  17.377   5.373
 3955POPC   GL151781   4.310  17.560   5.776
 3955POPC   GL251782   4.111  17.881   5.757
 3955POPC   C1A51783   4.529  17.623   6.206
 3955POPC   D2A51784   4.647  17.482   6.652
 3955POPC   C3A51785   4.370  17.576   7.022
 3955POPC   C4A51786   3.963  17.350   7.163
 3955POPC   C1B51787   4.029  17.716   6.174
 3955POPC   C2B51788   4.161  17.794   6.566
 3955POPC   C3B51789   3.902  17.766   6.885
 3955POPC   C4B51790   4.041  17.836   7.313
 3956POPC   NC351791  43.095  39.819   5.317
 3956POPC   PO451792  43.481  40.413   5.314
 3956POPC   GL151793  43.349  40.173   5.740
 3956POPC   GL251794  43.024  40.006   5.800
 3956POPC   C1A51795  43.233  40.166   6.231
 3956POPC   D2A51796  43.252  40.396   6.624
 3956POPC   C3A51797  43.090  40.162   6.965
 3956POPC   C4A51798  43.240  40.041   7.353
 3956POPC   C1B51799  42.893  39.799   6.200
 3956POPC   C2B51800  43.095  39.796   6.616
 3956POPC   C3B51801  43.036  39.657   7.055
 3956POPC   C4B51802  42.898  39.664   7.492
 3957POPC   NC351803  13.082  25.729   5.503
 3957POPC   PO451804  12.859  26.394   5.442
 3957POPC   GL151805  12.736  26.072   5.768
 3957POPC   GL251806  13.025  25.956   5.955
 3957POPC   C1A51807  12.604  25.916   6.214
 3957POPC   D2A51808  12.841  26.055   6.585
 3957POPC   C3A51809  12.791  25.870   6.966
 3957POPC   C4A51810  12.901  25.694   7.351
 3957POPC   C1B51811  13.258  26.170   6.302
 3957POPC   C2B51812  13.320  26.249   6.750
 3957POPC   C3B51813  13.219  26.048   7.157
 3957POPC   C4B51814  13.144  26.043   7.623
 3958POPC   NC351815  13.024  36.450   5.392
 3958POPC   PO451816  12.617  36.956   5.393
 3958POPC   GL151817  12.845  36.827   5.729
 3958POPC   GL251818  13.057  37.139   5.791
 3958POPC   C1A51819  13.010  36.737   6.130
 3958POPC   D2A51820  12.921  36.966   6.502
 3958POPC   C3A51821  12.886  36.709   6.863
 3958POPC   C4A51822  12.832  36.781   7.268
 3958POPC   C1B51823  13.285  37.186   6.194
 3958POPC   C2B51824  13.286  37.302   6.616
 3958POPC   C3B51825  13.074  37.166   6.978
 3958POPC   C4B51826  13.125  37.147   7.434
 3959POPC   NC351827  10.172  20.799   5.530
 3959POPC   PO451828  10.673  20.331   5.353
 3959POPC   GL151829  10.587  20.557   5.772
 3959POPC   GL251830  10.598  20.942   5.789
 3959POPC   C1A51831  10.680  20.412   6.222
 3959POPC   D2A51832  11.014  20.440   6.534
 3959POPC   C3A51833  10.827  20.429   6.940
 3959POPC   C4A51834  10.539  20.688   7.180
 3959POPC   C1B51835  10.393  20.831   6.204
 3959POPC   C2B51836  10.336  20.667   6.631
 3959POPC   C3B51837  10.354  21.040   6.881
 3959POPC   C4B51838  10.716  21.173   7.174
 3960POPC   NC351839  26.983   7.667   5.184
 3960POPC   PO451840  26.644   8.224   5.380
 3960POPC   GL151841  26.894   8.197   5.755
 3960POPC   GL251842  26.614   8.033   5.962
 3960POPC   C1A51843  27.090   8.179   6.171
 3960POPC   D2A51844  27.064   7.889   6.501
 3960POPC   C3A51845  26.813   7.987   6.903
 3960POPC   C4A51846  26.972   8.248   7.274
 3960POPC   C1B51847  26.685   8.472   6.124
 3960POPC   C2B51848  26.935   8.537   6.501
 3960POPC   C3B51849  26.782   8.517   6.879
 3960POPC   C4B51850  26.499   8.346   7.173
 3961POPC   NC351851  36.675  18.103   5.540
 3961POPC   PO451852  36.812  18.767   5.431
 3961POPC   GL151853  36.911  18.510   5.800
 3961POPC   GL251854  36.837  18.757   5.991
 3961POPC   C1A51855  36.824  18.261   6.219
 3961POPC   D2A51856  36.845  17.963   6.589
 3961POPC   C3A51857  36.889  18.155   7.010
 3961POPC   C4A51858  37.201  18.124   7.347
 3961POPC   C1B51859  37.146  18.702   6.298
 3961POPC   C2B51860  37.079  18.500   6.671
 3961POPC   C3B51861  37.330  18.514   7.032
 3961POPC   C4B51862  37.327  18.599   7.475
 3962POPC   NC351863  27.416   5.585   5.563
 3962POPC   PO451864  27.752   6.169   5.437
 3962POPC   GL151865  27.624   5.983   5.796
 3962POPC   GL251866  27.276   6.078   5.785
 3962POPC   C1A51867  27.592   5.773   6.190
 3962POPC   D2A51868  27.838   5.783   6.546
 3962POPC   C3A51869  27.654   5.616   6.914
 3962POPC   C4A51870  27.655   5.799   7.332
 3962POPC   C1B51871  27.168   6.053   6.232
 3962POPC   C2B51872  27.198   5.852   6.664
 3962POPC   C3B51873  27.265   5.969   7.092
 3962POPC   C4B51874  27.258   6.105   7.546
 3963POPC   NC351875  26.940  21.186   5.123
 3963POPC   PO451876  26.473  21.645   4.925
 3963POPC   GL151877  26.607  21.467   5.416
 3963POPC   GL251878  26.993  21.466   5.574
 3963POPC   C1A51879  26.640  21.269   5.884
 3963POPC   D2A51880  26.568  21.129   6.345
 3963POPC   C3A51881  26.693  21.239   6.777
 3963POPC   C4A51882  26.838  21.478   7.135
 3963POPC   C1B51883  27.103  21.404   6.064
 3963POPC   C2B51884  27.141  21.379   6.534
 3963POPC   C3B51885  27.190  21.149   6.947
 3963POPC   C4B51886  26.901  20.978   7.273
 3964POPC   NC351887  13.790  36.143   5.446
 3964POPC   PO451888  13.200  36.085   5.180
 3964POPC   GL151889  13.371  35.971   5.700
 3964POPC   GL251890  13.740  35.846   5.852
 3964POPC   C1A51891  13.462  36.084   6.203
 3964POPC   D2A51892  13.269  35.847   6.582
 3964POPC   C3A51893  13.213  35.887   7.027
 3964POPC   C4A51894  13.557  36.165   7.175
 3964POPC   C1B51895  13.992  36.112   6.187
 3964POPC   C2B51896  14.161  36.164   6.627
 3964POPC   C3B51897  14.023  36.289   7.064
 3964POPC   C4B51898  13.922  36.120   7.518
 3965POPC   NC351899  35.912   5.104   5.445
 3965POPC   PO451900  36.188   4.541   5.367
 3965POPC   GL151901  36.287   4.727   5.795
 3965POPC   GL251902  36.016   4.968   5.925
 3965POPC   C1A51903  36.384   4.795   6.264
 3965POPC   D2A51904  36.155   5.023   6.619
 3965POPC   C3A51905  36.389   5.185   7.002
 3965POPC   C4A51906  36.624   5.239   7.388
 3965POPC   C1B51907  35.756   5.115   6.274
 3965POPC   C2B51908  35.628   5.071   6.691
 3965POPC   C3B51909  35.887   5.181   7.057
 3965POPC   C4B51910  36.122   5.029   7.426
 3966POPC   NC351911   9.206   5.585   5.370
 3966POPC   PO451912   8.901   4.920   5.335
 3966POPC   GL151913   9.103   5.170   5.688
 3966POPC   GL251914   8.884   5.445   5.757
 3966POPC   C1A51915   9.171   5.145   6.147
 3966POPC   D2A51916   9.040   4.886   6.524
 3966POPC   C3A51917   9.246   4.852   6.892
 3966POPC   C4A51918   9.085   5.018   7.254
 3966POPC   C1B51919   8.869   5.569   6.177
 3966POPC   C2B51920   8.655   5.456   6.543
 3966POPC   C3B51921   8.811   5.267   6.904
 3966POPC   C4B51922   8.672   5.288   7.320
 3967POPC   NC351923  12.864  41.689   5.471
 3967POPC   PO451924  13.153  41.105   5.394
 3967POPC   GL151925  13.066  41.309   5.815
 3967POPC   GL251926  12.729  41.459   5.913
 3967POPC   C1A51927  13.117  41.487   6.252
 3967POPC   D2A51928  12.900  41.644   6.638
 3967POPC   C3A51929  13.012  41.465   7.039
 3967POPC   C4A51930  13.278  41.138   7.208
 3967POPC   C1B51931  12.735  41.857   6.179
 3967POPC   C2B51932  12.608  42.094   6.562
 3967POPC   C3B51933  12.680  42.024   6.997
 3967POPC   C4B51934  12.740  41.771   7.356
 3968POPC   NC351935   8.043  18.488   5.667
 3968POPC   PO451936   8.695  18.419   5.456
 3968POPC   GL151937   8.485  18.359   5.908
 3968POPC   GL251938   8.292  18.030   5.885
 3968POPC   C1A51939   8.169  18.345   6.290
 3968POPC   D2A51940   7.947  18.449   6.673
 3968POPC   C3A51941   7.911  18.248   7.090
 3968POPC   C4A51942   8.119  18.468   7.441
 3968POPC   C1B51943   8.461  17.926   6.302
 3968POPC   C2B51944   8.432  18.155   6.688
 3968POPC   C3B51945   8.434  18.242   7.092
 3968POPC   C4B51946   8.294  17.987   7.423
 3969POPC   NC351947   0.645  33.198   5.403
 3969POPC   PO451948   0.169  32.814   5.185
 3969POPC   GL151949   0.315  32.829   5.644
 3969POPC   GL251950   0.645  32.806   5.821
 3969POPC   C1A51951   0.257  32.953   6.114
 3969POPC   D2A51952   0.172  33.194   6.516
 3969POPC   C3A51953   0.308  33.025   6.946
 3969POPC   C4A51954   0.420  32.777   7.290
 3969POPC   C1B51955   0.721  32.694   6.300
 3969POPC   C2B51956   0.716  32.666   6.803
 3969POPC   C3B51957   0.929  32.824   7.200
 3969POPC   C4B51958   0.923  32.748   7.672
 3970POPC   NC351959  43.413  34.231   5.686
 3970POPC   PO451960  43.586  34.822   5.396
 3970POPC   GL151961  43.855  34.658   5.740
 3970POPC   GL251962  43.917  34.328   5.785
 3970POPC   C1A51963  43.893  34.637   6.205
 3970POPC   D2A51964  44.062  34.843   6.568
 3970POPC   C3A51965  44.052  34.599   6.943
 3970POPC   C4A51966  43.980  34.855   7.281
 3970POPC   C1B51967  43.835  34.119   6.213
 3970POPC   C2B51968  43.959  34.153   6.642
 3970POPC   C3B51969  43.745  34.176   7.015
 3970POPC   C4B51970  43.786  34.384   7.415
 3971POPC   NC351971  12.426  19.984   5.550
 3971POPC   PO451972  12.992  20.124   5.427
 3971POPC   GL151973  12.911  19.868   5.786
 3971POPC   GL251974  13.112  19.562   5.742
 3971POPC   C1A51975  12.788  20.033   6.226
 3971POPC   D2A51976  12.593  20.088   6.650
 3971POPC   C3A51977  12.761  19.981   7.087
 3971POPC   C4A51978  12.855  20.013   7.562
 3971POPC   C1B51979  12.875  19.526   6.151
 3971POPC   C2B51980  12.798  19.605   6.561
 3971POPC   C3B51981  12.955  19.516   6.951
 3971POPC   C4B51982  12.807  19.539   7.383
 3972POPC   NC351983  32.481  35.084   5.316
 3972POPC   PO451984  32.240  35.708   5.460
 3972POPC   GL151985  32.192  35.350   5.750
 3972POPC   GL251986  32.523  35.168   5.838
 3972POPC   C1A51987  32.134  35.225   6.193
 3972POPC   D2A51988  32.435  35.160   6.531
 3972POPC   C3A51989  32.242  35.321   6.856
 3972POPC   C4A51990  32.139  35.349   7.244
 3972POPC   C1B51991  32.611  35.491   6.179
 3972POPC   C2B51992  32.709  35.639   6.631
 3972POPC   C3B51993  32.621  35.565   7.090
 3972POPC   C4B51994  32.609  35.171   7.348
 3973POPC   NC351995  21.476  27.123   5.412
 3973POPC   PO451996  21.157  26.530   5.434
 3973POPC   GL151997  21.314  26.778   5.778
 3973POPC   GL251998  21.648  26.732   5.822
 3973POPC   C1A51999  21.322  26.929   6.190
 3973POPC   D2A52000  21.259  26.764   6.542
 3973POPC   C3A52001  21.470  26.838   6.929
 3973POPC   C4A52002  21.313  26.878   7.299
 3973POPC   C1B52003  21.633  26.506   6.226
 3973POPC   C2B52004  21.572  26.404   6.671
 3973POPC   C3B52005  21.832  26.479   7.055
 3973POPC   C4B52006  21.846  26.502   7.525
 3974POPC   NC352007  34.650  20.620   5.131
 3974POPC   PO452008  35.390  20.659   5.248
 3974POPC   GL152009  35.309  20.610   5.683
 3974POPC   GL252010  35.097  20.851   5.755
 3974POPC   C1A52011  35.253  20.383   6.065
 3974POPC   D2A52012  35.488  20.385   6.439
 3974POPC   C3A52013  35.317  20.427   6.851
 3974POPC   C4A52014  35.246  20.549   7.244
 3974POPC   C1B52015  35.370  20.878   6.123
 3974POPC   C2B52016  35.265  20.850   6.532
 3974POPC   C3B52017  35.353  20.962   6.930
 3974POPC   C4B52018  35.264  21.054   7.328
 3975POPC   NC352019   6.423  13.258   5.448
 3975POPC   PO452020   6.736  13.856   5.450
 3975POPC   GL152021   6.673  13.951   5.882
 3975POPC   GL252022   6.995  14.051   5.894
 3975POPC   C1A52023   6.568  13.942   6.352
 3975POPC   D2A52024   6.612  13.561   6.632
 3975POPC   C3A52025   6.531  13.571   7.110
 3975POPC   C4A52026   6.291  13.802   7.439
 3975POPC   C1B52027   7.028  13.779   6.273
 3975POPC   C2B52028   7.051  13.850   6.703
 3975POPC   C3B52029   6.960  13.881   7.139
 3975POPC   C4B52030   7.151  13.682   7.496
 3976POPC   NC352031  39.947  24.285   5.385
 3976POPC   PO452032  40.427  24.717   5.536
 3976POPC   GL152033  40.340  24.332   5.789
 3976POPC   GL252034  39.961  24.312   5.881
 3976POPC   C1A52035  40.312  24.338   6.246
 3976POPC   D2A52036  40.041  24.563   6.569
 3976POPC   C3A52037  40.178  24.504   7.012
 3976POPC   C4A52038  40.112  24.648   7.434
 3976POPC   C1B52039  39.674  24.468   6.183
 3976POPC   C2B52040  39.565  24.324   6.594
 3976POPC   C3B52041  39.679  24.387   7.002
 3976POPC   C4B52042  39.749  24.310   7.424
 3977POPC   NC352043  43.940  26.991   5.449
 3977POPC   PO452044  43.562  26.492   5.349
 3977POPC   GL152045  43.668  26.630   5.757
 3977POPC   GL252046  43.533  26.959   5.779
 3977POPC   C1A52047  43.871  26.666   6.176
 3977POPC   D2A52048  44.058  26.633   6.612
 3977POPC   C3A52049  43.792  26.558   6.999
 3977POPC   C4A52050  43.427  26.663   7.270
 3977POPC   C1B52051  43.766  27.173   6.122
 3977POPC   C2B52052  43.786  27.068   6.563
 3977POPC   C3B52053  43.973  27.058   6.961
 3977POPC   C4B52054  43.848  27.333   7.273
 3978POPC   NC352055  16.943   6.121   5.418
 3978POPC   PO452056  16.501   5.635   5.524
 3978POPC   GL152057  16.740   5.798   5.866
 3978POPC   GL252058  17.073   5.730   5.805
 3978POPC   C1A52059  16.694   5.898   6.310
 3978POPC   D2A52060  16.387   5.780   6.647
 3978POPC   C3A52061  16.543   5.694   7.059
 3978POPC   C4A52062  16.834   5.955   7.251
 3978POPC   C1B52063  17.085   5.561   6.227
 3978POPC   C2B52064  16.903   5.561   6.656
 3978POPC   C3B52065  17.143   5.585   7.017
 3978POPC   C4B52066  17.204   5.464   7.400
 3979POPC   NC352067  21.734  38.820   5.324
 3979POPC   PO452068  21.109  38.564   5.501
 3979POPC   GL152069  21.328  38.486   5.858
 3979POPC   GL252070  21.234  38.166   5.898
 3979POPC   C1A52071  21.386  38.456   6.302
 3979POPC   D2A52072  21.562  38.411   6.723
 3979POPC   C3A52073  21.528  38.670   7.106
 3979POPC   C4A52074  21.401  38.777   7.546
 3979POPC   C1B52075  21.182  37.986   6.286
 3979POPC   C2B52076  21.068  38.195   6.645
 3979POPC   C3B52077  21.187  38.263   7.042
 3979POPC   C4B52078  21.018  38.062   7.358
 3980POPC   NC352079  11.290   0.901   5.499
 3980POPC   PO452080  11.592   1.590   5.458
 3980POPC   GL152081  11.238   1.382   5.711
 3980POPC   GL252082  11.438   1.176   5.914
 3980POPC   C1A52083  11.007   1.317   6.132
 3980POPC   D2A52084  11.096   1.146   6.551
 3980POPC   C3A52085  11.461   1.374   6.766
 3980POPC   C4A52086  11.336   1.680   7.099
 3980POPC   C1B52087  11.566   0.999   6.313
 3980POPC   C2B52088  11.466   0.834   6.722
 3980POPC   C3B52089  11.559   0.734   7.155
 3980POPC   C4B52090  11.527   1.053   7.450
 3981POPC   NC352091  16.726   4.195   5.478
 3981POPC   PO452092  16.250   4.782   5.546
 3981POPC   GL152093  16.482   4.480   5.830
 3981POPC   GL252094  16.862   4.544   5.887
 3981POPC   C1A52095  16.619   4.223   6.193
 3981POPC   D2A52096  16.832   4.331   6.612
 3981POPC   C3A52097  16.586   4.308   7.025
 3981POPC   C4A52098  16.586   4.357   7.534
 3981POPC   C1B52099  17.122   4.227   6.162
 3981POPC   C2B52100  17.274   3.995   6.549
 3981POPC   C3B52101  17.161   4.119   6.970
 3981POPC   C4B52102  17.034   4.462   7.219
 3982POPC   NC352103  36.589  24.674   5.388
 3982POPC   PO452104  36.949  24.149   5.181
 3982POPC   GL152105  36.860  24.369   5.664
 3982POPC   GL252106  37.099  24.614   5.802
 3982POPC   C1A52107  36.935  24.299   6.156
 3982POPC   D2A52108  37.158  24.086   6.489
 3982POPC   C3A52109  37.104  24.221   6.897
 3982POPC   C4A52110  36.800  24.381   7.182
 3982POPC   C1B52111  37.112  24.906   6.123
 3982POPC   C2B52112  36.865  24.861   6.467
 3982POPC   C3B52113  36.899  24.685   6.790
 3982POPC   C4B52114  37.224  24.714   7.063
 3983POPC   NC352115  21.479  12.373   5.252
 3983POPC   PO452116  21.781  11.817   5.273
 3983POPC   GL152117  21.634  12.112   5.664
 3983POPC   GL252118  21.257  12.201   5.706
 3983POPC   C1A52119  21.530  12.236   6.135
 3983POPC   D2A52120  21.622  12.023   6.538
 3983POPC   C3A52121  21.595  12.216   6.951
 3983POPC   C4A52122  21.835  12.167   7.353
 3983POPC   C1B52123  21.345  11.787   5.968
 3983POPC   C2B52124  21.293  11.620   6.425
 3983POPC   C3B52125  21.364  11.674   6.866
 3983POPC   C4B52126  21.173  11.740   7.270
 3984POPC   NC352127   9.466   6.397   5.064
 3984POPC   PO452128   9.780   6.942   5.363
 3984POPC   GL152129   9.970   6.748   5.755
 3984POPC   GL252130   9.679   6.640   5.963
 3984POPC   C1A52131  10.134   6.648   6.200
 3984POPC   D2A52132  10.056   6.502   6.629
 3984POPC   C3A52133   9.764   6.762   6.862
 3984POPC   C4A52134   9.748   6.802   7.296
 3984POPC   C1B52135   9.346   6.506   6.277
 3984POPC   C2B52136   9.359   6.474   6.712
 3984POPC   C3B52137   9.534   6.328   7.062
 3984POPC   C4B52138   9.573   6.154   7.463
 3985POPC   NC352139  21.747  10.780   5.368
 3985POPC   PO452140  21.204  10.838   5.802
 3985POPC   GL152141  21.315  10.450   6.002
 3985POPC   GL252142  21.559  10.303   5.780
 3985POPC   C1A52143  21.462  10.464   6.449
 3985POPC   D2A52144  21.603  10.667   6.835
 3985POPC   C3A52145  21.267  10.560   7.087
 3985POPC   C4A52146  20.938  10.761   7.281
 3985POPC   C1B52147  21.828  10.287   6.162
 3985POPC   C2B52148  21.993  10.455   6.586
 3985POPC   C3B52149  21.956  10.290   7.023
 3985POPC   C4B52150  21.707  10.505   7.340
 3986POPC   NC352151  41.080  22.215   5.451
 3986POPC   PO452152  41.673  21.948   5.498
 3986POPC   GL152153  41.440  22.054   5.867
 3986POPC   GL252154  41.300  22.391   5.892
 3986POPC   C1A52155  41.613  22.024   6.286
 3986POPC   D2A52156  41.703  22.218   6.685
 3986POPC   C3A52157  41.658  21.928   7.049
 3986POPC   C4A52158  41.606  22.009   7.501
 3986POPC   C1B52159  41.422  22.506   6.321
 3986POPC   C2B52160  41.342  22.581   6.768
 3986POPC   C3B52161  41.481  22.404   7.169
 3986POPC   C4B52162  41.448  22.473   7.614
 3987POPC   NC352163  43.213  24.483   5.324
 3987POPC   PO452164  42.765  23.880   5.359
 3987POPC   GL152165  42.979  24.156   5.695
 3987POPC   GL252166  43.004  24.534   5.804
 3987POPC   C1A52167  43.243  24.145   6.098
 3987POPC   D2A52168  43.413  24.288   6.517
 3987POPC   C3A52169  43.143  24.432   6.854
 3987POPC   C4A52170  42.951  24.364   7.274
 3987POPC   C1B52171  43.398  24.615   6.084
 3987POPC   C2B52172  43.420  24.822   6.470
 3987POPC   C3B52173  43.257  24.961   6.848
 3987POPC   C4B52174  43.304  24.754   7.235
 3988POPC   NC352175  18.753  13.947   5.601
 3988POPC   PO452176  18.930  13.279   5.554
 3988POPC   GL152177  19.065  13.540   5.877
 3988POPC   GL252178  19.174  13.881   5.870
 3988POPC   C1A52179  18.960  13.712   6.310
 3988POPC   D2A52180  18.670  13.812   6.686
 3988POPC   C3A52181  18.906  13.631   7.036
 3988POPC   C4A52182  19.272  13.375   7.125
 3988POPC   C1B52183  19.469  14.098   6.129
 3988POPC   C2B52184  19.621  13.963   6.514
 3988POPC   C3B52185  19.363  13.793   6.816
 3988POPC   C4B52186  19.262  13.970   7.202
 3989POPC   NC352187  32.942  42.523   5.409
 3989POPC   PO452188  33.557  42.295   5.373
 3989POPC   GL152189  33.283  42.369   5.765
 3989POPC   GL252190  33.088  42.040   5.813
 3989POPC   C1A52191  33.167  42.378   6.230
 3989POPC   D2A52192  33.281  42.114   6.590
 3989POPC   C3A52193  33.339  42.258   7.033
 3989POPC   C4A52194  33.354  42.467   7.440
 3989POPC   C1B52195  32.716  42.167   6.085
 3989POPC   C2B52196  32.689  42.291   6.518
 3989POPC   C3B52197  32.861  42.162   6.900
 3989POPC   C4B52198  32.857  42.412   7.276
 3990POPC   NC352199  42.499  15.746   5.518
 3990POPC   PO452200  41.961  16.133   5.637
 3990POPC   GL152201  42.278  16.083   5.881
 3990POPC   GL252202  42.616  16.202   5.778
 3990POPC   C1A52203  42.128  16.006   6.287
 3990POPC   D2A52204  41.883  15.984   6.654
 3990POPC   C3A52205  42.179  15.850   6.937
 3990POPC   C4A52206  42.229  15.978   7.333
 3990POPC   C1B52207  42.666  15.981   6.190
 3990POPC   C2B52208  42.623  16.092   6.645
 3990POPC   C3B52209  42.675  15.914   7.077
 3990POPC   C4B52210  42.702  15.987   7.571
 3991POPC   NC352211   5.945   0.479   5.497
 3991POPC   PO452212   5.308   0.197   5.420
 3991POPC   GL152213   5.485   0.406   5.781
 3991POPC   GL252214   5.728   0.142   5.806
 3991POPC   C1A52215   5.749   0.534   6.159
 3991POPC   D2A52216   5.981   0.680   6.533
 3991POPC   C3A52217   5.836   0.528   6.939
 3991POPC   C4A52218   5.460   0.398   7.178
 3991POPC   C1B52219   5.984   0.052   6.152
 3991POPC   C2B52220   5.857   0.173   6.527
 3991POPC   C3B52221   5.665   0.037   6.877
 3991POPC   C4B52222   5.954   0.046   7.179
 3992POPC   NC352223  20.730  36.204   5.359
 3992POPC   PO452224  21.039  35.846   5.819
 3992POPC   GL152225  20.630  36.048   5.840
 3992POPC   GL252226  20.638  36.408   5.805
 3992POPC   C1A52227  20.418  36.176   6.203
 3992POPC   D2A52228  20.407  35.996   6.606
 3992POPC   C3A52229  20.464  36.188   7.000
 3992POPC   C4A52230  20.345  35.951   7.394
 3992POPC   C1B52231  20.909  36.365   6.174
 3992POPC   C2B52232  21.035  36.230   6.622
 3992POPC   C3B52233  20.936  36.383   7.047
 3992POPC   C4B52234  20.769  36.210   7.447
 3993POPC   NC352235  25.369  44.617   5.327
 3993POPC   PO452236  25.058   0.119   5.663
 3993POPC   GL152237  25.231  44.725   5.835
 3993POPC   GL252238  25.576  44.804   5.771
 3993POPC   C1A52239  25.145  44.382   6.167
 3993POPC   D2A52240  24.904  44.250   6.564
 3993POPC   C3A52241  24.960  44.476   6.981
 3993POPC   C4A52242  25.143  44.891   7.103
 3993POPC   C1B52243  25.687  44.515   6.084
 3993POPC   C2B52244  25.598  44.371   6.474
 3993POPC   C3B52245  25.556  44.649   6.806
 3993POPC   C4B52246  25.500  44.546   7.182
 3994POPC   NC352247  32.849  20.992   5.496
 3994POPC   PO452248  33.318  20.646   5.299
 3994POPC   GL152249  33.249  20.734   5.744
 3994POPC   GL252250  33.422  20.434   5.864
 3994POPC   C1A52251  33.027  20.792   6.170
 3994POPC   D2A52252  32.703  20.795   6.541
 3994POPC   C3A52253  32.828  20.862   6.975
 3994POPC   C4A52254  33.168  20.722   7.227
 3994POPC   C1B52255  33.479  20.531   6.330
 3994POPC   C2B52256  33.200  20.677   6.661
 3994POPC   C3B52257  32.984  20.373   6.914
 3994POPC   C4B52258  33.265  20.190   7.229
 3995POPC   NC352259  43.637   0.111   5.513
 3995POPC   PO452260  43.115  44.674   5.390
 3995POPC   GL152261  43.015  44.667   5.802
 3995POPC   GL252262  43.387  44.645   5.833
 3995POPC   C1A52263  42.845  44.536   6.193
 3995POPC   D2A52264  42.872  44.856   6.524
 3995POPC   C3A52265  42.901  44.728   6.941
 3995POPC   C4A52266  42.943  44.893   7.329
 3995POPC   C1B52267  43.310  44.768   6.246
 3995POPC   C2B52268  43.344  44.650   6.668
 3995POPC   C3B52269  43.422  44.834   7.082
 3995POPC   C4B52270  43.648  44.838   7.501
 3996POPC   NC352271  15.369  37.690   5.574
 3996POPC   PO452272  14.785  37.932   5.329
 3996POPC   GL152273  14.910  37.893   5.770
 3996POPC   GL252274  14.929  37.557   5.802
 3996POPC   C1A52275  15.160  37.910   6.172
 3996POPC   D2A52276  15.411  37.729   6.520
 3996POPC   C3A52277  15.229  37.662   6.940
 3996POPC   C4A52278  15.491  37.592   7.304
 3996POPC   C1B52279  14.771  37.567   6.224
 3996POPC   C2B52280  14.668  37.469   6.633
 3996POPC   C3B52281  14.845  37.299   6.977
 3996POPC   C4B52282  14.900  37.532   7.364
 3997POPC   NC352283   7.046   7.254   5.442
 3997POPC   PO452284   6.356   7.313   5.404
 3997POPC   GL152285   6.605   7.513   5.742
 3997POPC   GL252286   6.902   7.748   5.658
 3997POPC   C1A52287   6.630   7.397   6.178
 3997POPC   D2A52288   6.871   7.328   6.528
 3997POPC   C3A52289   6.588   7.200   6.858
 3997POPC   C4A52290   6.570   7.371   7.287
 3997POPC   C1B52291   7.018   7.698   6.106
 3997POPC   C2B52292   6.857   7.833   6.527
 3997POPC   C3B52293   6.756   7.669   6.903
 3997POPC   C4B52294   6.919   7.812   7.279
 3998POPC   NC352295  11.454  21.427   5.499
 3998POPC   PO452296  10.802  21.309   5.473
 3998POPC   GL152297  11.058  21.254   5.855
 3998POPC   GL252298  11.414  21.106   5.890
 3998POPC   C1A52299  11.014  21.351   6.299
 3998POPC   D2A52300  11.088  21.630   6.628
 3998POPC   C3A52301  11.134  21.417   7.009
 3998POPC   C4A52302  11.315  21.596   7.354
 3998POPC   C1B52303  11.532  21.392   6.227
 3998POPC   C2B52304  11.473  21.299   6.658
 3998POPC   C3B52305  11.648  21.340   7.079
 3998POPC   C4B52306  11.586  21.204   7.551
 3999POPC   NC352307  10.470  35.012   5.590
 3999POPC   PO452308  10.605  34.412   5.533
 3999POPC   GL152309  10.480  34.587   5.914
 3999POPC   GL252310  10.795  34.776   5.914
 3999POPC   C1A52311  10.332  34.515   6.351
 3999POPC   D2A52312  10.436  34.705   6.757
 3999POPC   C3A52313  10.439  34.437   7.052
 3999POPC   C4A52314  10.267  34.194   7.354
 3999POPC   C1B52315  10.784  34.733   6.354
 3999POPC   C2B52316  10.801  34.359   6.622
 3999POPC   C3B52317  10.933  34.492   7.010
 3999POPC   C4B52318  10.737  34.870   7.181
 4000POPC   NC352319   0.292  27.733   5.304
 4000POPC   PO452320   0.822  27.339   5.386
 4000POPC   GL152321   0.578  27.486   5.753
 4000POPC   GL252322   0.551  27.824   5.759
 4000POPC   C1A52323   0.543  27.333   6.208
 4000POPC   D2A52324   0.447  27.514   6.598
 4000POPC   C3A52325   0.556  27.277   6.993
 4000POPC   C4A52326   0.660  27.195   7.436
 4000POPC   C1B52327   0.295  27.790   6.151
 4000POPC   C2B52328   0.126  27.919   6.581
 4000POPC   C3B52329   0.378  27.835   6.970
 4000POPC   C4B52330   0.309  27.580   7.325
 4001POPC   NC352331   4.745  34.232   5.363
 4001POPC   PO452332   5.252  33.750   5.407
 4001POPC   GL152333   5.160  33.794   5.807
 4001POPC   GL252334   4.881  33.998   5.795
 4001POPC   C1A52335   5.172  33.943   6.223
 4001POPC   D2A52336   5.270  33.969   6.649
 4001POPC   C3A52337   5.075  33.644   6.880
 4001POPC   C4A52338   5.119  33.722   7.302
 4001POPC   C1B52339   4.670  33.993   6.198
 4001POPC   C2B52340   4.770  33.986   6.645
 4001POPC   C3B52341   4.950  34.127   7.046
 4001POPC   C4B52342   5.033  34.217   7.493
 4002POPC   NC352343  20.927  42.519   5.464
 4002POPC   PO452344  20.274  42.280   5.216
 4002POPC   GL152345  20.539  42.208   5.596
 4002POPC   GL252346  20.479  41.863   5.687
 4002POPC   C1A52347  20.629  42.445   6.037
 4002POPC   D2A52348  20.553  42.434   6.494
 4002POPC   C3A52349  20.793  42.303   6.851
 4002POPC   C4A52350  20.786  42.477   7.247
 4002POPC   C1B52351  20.344  42.036   6.109
 4002POPC   C2B52352  20.415  41.945   6.532
 4002POPC   C3B52353  20.299  41.977   6.921
 4002POPC   C4B52354  20.446  42.102   7.271
 4003POPC   NC352355  44.006  26.290   5.421
 4003POPC   PO452356  43.603  25.846   5.571
 4003POPC   GL152357  43.690  26.123   5.895
 4003POPC   GL252358  44.020  26.211   5.910
 4003POPC   C1A52359  43.818  26.193   6.355
 4003POPC   D2A52360  44.000  26.137   6.738
 4003POPC   C3A52361  43.695  25.917   6.958
 4003POPC   C4A52362  43.505  26.163   7.191
 4003POPC   C1B52363  44.222  25.908   6.204
 4003POPC   C2B52364  44.405  25.824   6.609
 4003POPC   C3B52365  44.357  25.944   7.039
 4003POPC   C4B52366  44.030  25.948   7.329
 4004POPC   NC352367  36.710  26.183   5.505
 4004POPC   PO452368  37.366  25.843   5.411
 4004POPC   GL152369  37.019  25.885   5.769
 4004POPC   GL252370  37.023  26.281   5.884
 4004POPC   C1A52371  36.714  25.743   6.108
 4004POPC   D2A52372  36.654  25.889   6.542
 4004POPC   C3A52373  36.826  25.910   6.973
 4004POPC   C4A52374  36.940  26.315   7.161
 4004POPC   C1B52375  36.662  26.252   6.159
 4004POPC   C2B52376  36.395  26.325   6.496
 4004POPC   C3B52377  36.466  26.441   6.921
 4004POPC   C4B52378  36.473  26.284   7.346
 4005POPC   NC352379   4.851  44.121   5.551
 4005POPC   PO452380   5.305  43.638   5.424
 4005POPC   GL152381   5.257  43.655   5.851
 4005POPC   GL252382   4.926  43.705   5.874
 4005POPC   C1A52383   5.256  43.759   6.295
 4005POPC   D2A52384   5.413  43.722   6.732
 4005POPC   C3A52385   5.327  44.063   7.000
 4005POPC   C4A52386   5.170  43.994   7.397
 4005POPC   C1B52387   4.749  43.612   6.268
 4005POPC   C2B52388   4.878  43.789   6.645
 4005POPC   C3B52389   4.929  43.730   7.034
 4005POPC   C4B52390   4.709  43.659   7.392
 4006POPC   NC352391  30.430  21.151   5.271
 4006POPC   PO452392  30.703  21.763   5.181
 4006POPC   GL152393  30.683  21.700   5.669
 4006POPC   GL252394  30.595  21.341   5.740
 4006POPC   C1A52395  30.827  21.690   6.143
 4006POPC   D2A52396  30.935  21.476   6.542
 4006POPC   C3A52397  30.830  21.681   6.954
 4006POPC   C4A52398  30.654  21.571   7.338
 4006POPC   C1B52399  30.846  21.179   6.080
 4006POPC   C2B52400  30.825  20.987   6.491
 4006POPC   C3B52401  30.720  21.149   6.897
 4006POPC   C4B52402  30.812  21.092   7.303
 4007POPC   NC352403   8.442   4.944   5.295
 4007POPC   PO452404   8.464   5.554   5.456
 4007POPC   GL152405   8.410   5.234   5.775
 4007POPC   GL252406   8.638   4.938   5.782
 4007POPC   C1A52407   8.265   5.329   6.190
 4007POPC   D2A52408   8.123   5.475   6.566
 4007POPC   C3A52409   8.305   5.399   6.955
 4007POPC   C4A52410   8.019   5.226   7.215
 4007POPC   C1B52411   8.666   5.033   6.222
 4007POPC   C2B52412   8.453   4.982   6.639
 4007POPC   C3B52413   8.414   4.901   7.097
 4007POPC   C4B52414   8.693   4.768   7.455
 4008POPC   NC352415   6.648   9.457   5.329
 4008POPC   PO452416   6.818  10.083   5.308
 4008POPC   GL152417   6.764   9.864   5.729
 4008POPC   GL252418   6.454   9.650   5.765
 4008POPC   C1A52419   6.841   9.964   6.188
 4008POPC   D2A52420   6.831   9.748   6.591
 4008POPC   C3A52421   6.601   9.888   6.924
 4008POPC   C4A52422   6.746   9.963   7.294
 4008POPC   C1B52423   6.599   9.523   6.188
 4008POPC   C2B52424   6.446   9.387   6.628
 4008POPC   C3B52425   6.556   9.412   7.096
 4008POPC   C4B52426   6.950   9.511   7.213
 4009POPC   NC352427  38.566   0.633   5.371
 4009POPC   PO452428  38.606   0.073   5.661
 4009POPC   GL152429  38.488   0.318   5.965
 4009POPC   GL252430  38.267   0.605   5.837
 4009POPC   C1A52431  38.684   0.269   6.379
 4009POPC   D2A52432  38.540   0.049   6.746
 4009POPC   C3A52433  38.564   0.313   7.098
 4009POPC   C4A52434  38.373   0.537   7.415
 4009POPC   C1B52435  38.397   0.701   6.264
 4009POPC   C2B52436  38.363   0.563   6.668
 4009POPC   C3B52437  38.385   0.821   6.995
 4009POPC   C4B52438  38.173   1.026   7.327
 4010POPC   NC352439  28.320   1.002   5.452
 4010POPC   PO452440  28.651   1.639   5.320
 4010POPC   GL152441  28.655   1.493   5.771
 4010POPC   GL252442  28.638   1.125   5.854
 4010POPC   C1A52443  28.443   1.460   6.181
 4010POPC   D2A52444  28.256   1.356   6.572
 4010POPC   C3A52445  28.518   1.390   6.927
 4010POPC   C4A52446  28.407   1.145   7.269
 4010POPC   C1B52447  28.364   0.943   6.224
 4010POPC   C2B52448  28.006   0.847   6.541
 4010POPC   C3B52449  28.066   0.803   7.002
 4010POPC   C4B52450  28.007   0.623   7.424
 4011POPC   NC352451  41.349  32.477   5.429
 4011POPC   PO452452  41.899  32.058   5.431
 4011POPC   GL152453  41.786  32.344   5.820
 4011POPC   GL252454  41.463  32.548   5.918
 4011POPC   C1A52455  41.664  32.249   6.302
 4011POPC   D2A52456  41.640  32.044   6.736
 4011POPC   C3A52457  41.827  32.255   7.079
 4011POPC   C4A52458  41.702  32.378   7.508
 4011POPC   C1B52459  41.399  32.679   6.338
 4011POPC   C2B52460  41.309  32.469   6.700
 4011POPC   C3B52461  41.338  32.406   7.129
 4011POPC   C4B52462  41.171  32.430   7.553
 4012POPC   NC352463  35.127  20.272   5.351
 4012POPC   PO452464  35.462  19.670   5.336
 4012POPC   GL152465  35.444  19.831   5.761
 4012POPC   GL252466  35.568  20.162   5.679
 4012POPC   C1A52467  35.408  19.751   6.240
 4012POPC   D2A52468  35.416  19.939   6.658
 4012POPC   C3A52469  35.497  19.709   7.033
 4012POPC   C4A52470  35.302  19.754   7.418
 4012POPC   C1B52471  35.791  20.049   6.067
 4012POPC   C2B52472  35.897  20.046   6.485
 4012POPC   C3B52473  35.814  20.264   6.853
 4012POPC   C4B52474  35.601  20.158   7.244
 4013POPC   NC352475  37.635   0.264   5.149
 4013POPC   PO452476  38.099   0.642   5.325
 4013POPC   GL152477  37.801   0.525   5.643
 4013POPC   GL252478  37.714   0.817   5.860
 4013POPC   C1A52479  37.824   0.332   6.067
 4013POPC   D2A52480  37.934   0.259   6.517
 4013POPC   C3A52481  37.595   0.343   6.831
 4013POPC   C4A52482  37.508   0.393   7.255
 4013POPC   C1B52483  37.902   0.789   6.278
 4013POPC   C2B52484  37.888   0.752   6.738
 4013POPC   C3B52485  37.982   0.524   7.116
 4013POPC   C4B52486  37.915   0.335   7.574
 4014POPC   NC352487  39.578  26.392   5.377
 4014POPC   PO452488  39.217  25.800   5.511
 4014POPC   GL152489  39.265  25.791   5.930
 4014POPC   GL252490  38.976  26.011   5.932
 4014POPC   C1A52491  39.148  25.754   6.371
 4014POPC   D2A52492  38.813  25.990   6.599
 4014POPC   C3A52493  38.933  25.998   7.008
 4014POPC   C4A52494  39.348  25.995   7.194
 4014POPC   C1B52495  39.208  26.228   6.237
 4014POPC   C2B52496  39.236  26.318   6.684
 4014POPC   C3B52497  39.136  26.480   7.098
 4014POPC   C4B52498  39.383  26.445   7.470
 4015POPC   NC352499  36.760  22.118   5.255
 4015POPC   PO452500  37.360  21.967   5.315
 4015POPC   GL152501  37.153  22.161   5.668
 4015POPC   GL252502  37.070  21.837   5.837
 4015POPC   C1A52503  36.981  22.252   6.117
 4015POPC   D2A52504  37.027  22.525   6.479
 4015POPC   C3A52505  36.798  22.416   6.823
 4015POPC   C4A52506  36.847  22.456   7.229
 4015POPC   C1B52507  37.110  21.734   6.281
 4015POPC   C2B52508  36.904  21.931   6.629
 4015POPC   C3B52509  36.944  21.941   7.088
 4015POPC   C4B52510  37.024  21.842   7.520
 4016POPC   NC352511  38.906  11.915   5.502
 4016POPC   PO452512  38.328  12.092   5.239
 4016POPC   GL152513  38.474  12.126   5.707
 4016POPC   GL252514  38.207  12.124   5.914
 4016POPC   C1A52515  38.646  12.146   6.177
 4016POPC   D2A52516  38.394  12.082   6.587
 4016POPC   C3A52517  38.652  12.158   6.956
 4016POPC   C4A52518  38.909  12.142   7.347
 4016POPC   C1B52519  38.352  11.744   6.144
 4016POPC   C2B52520  38.471  11.554   6.532
 4016POPC   C3B52521  38.280  11.668   6.906
 4016POPC   C4B52522  38.298  11.919   7.222
 4017POPC   NC352523  36.307  43.374   5.394
 4017POPC   PO452524  35.905  42.873   5.401
 4017POPC   GL152525  36.087  43.046   5.766
 4017POPC   GL252526  36.034  43.405   5.870
 4017POPC   C1A52527  36.091  42.953   6.194
 4017POPC   D2A52528  36.371  42.936   6.525
 4017POPC   C3A52529  36.148  42.961   6.876
 4017POPC   C4A52530  36.342  43.073   7.237
 4017POPC   C1B52531  36.471  43.331   6.057
 4017POPC   C2B52532  36.741  43.285   6.433
 4017POPC   C3B52533  36.525  43.361   6.843
 4017POPC   C4B52534  36.269  43.571   7.173
 4018POPC   NC352535  29.725  25.182   5.491
 4018POPC   PO452536  30.241  25.568   5.420
 4018POPC   GL152537  30.089  25.495   5.823
 4018POPC   GL252538  30.105  25.122   5.865
 4018POPC   C1A52539  30.149  25.458   6.277
 4018POPC   D2A52540  30.195  25.186   6.641
 4018POPC   C3A52541  29.966  25.348   6.970
 4018POPC   C4A52542  29.996  25.640   7.305
 4018POPC   C1B52543  29.901  24.965   6.249
 4018POPC   C2B52544  29.626  24.857   6.643
 4018POPC   C3B52545  29.703  24.933   7.105
 4018POPC   C4B52546  29.936  25.130   7.452
 4019POPC   NC352547   7.757  32.983   5.107
 4019POPC   PO452548   7.172  33.038   5.247
 4019POPC   GL152549   7.580  33.038   5.631
 4019POPC   GL252550   7.657  33.274   5.899
 4019POPC   C1A52551   7.425  32.872   6.074
 4019POPC   D2A52552   7.094  32.913   6.418
 4019POPC   C3A52553   7.180  32.731   6.845
 4019POPC   C4A52554   7.425  32.862   7.187
 4019POPC   C1B52555   7.518  33.301   6.319
 4019POPC   C2B52556   7.607  33.026   6.647
 4019POPC   C3B52557   7.648  33.278   7.008
 4019POPC   C4B52558   7.403  33.375   7.380
 4020POPC   NC352559  34.087  11.126   5.265
 4020POPC   PO452560  34.001  11.745   5.522
 4020POPC   GL152561  33.978  11.321   5.748
 4020POPC   GL252562  33.670  11.082   5.765
 4020POPC   C1A52563  34.012  11.158   6.172
 4020POPC   D2A52564  34.145  11.344   6.536
 4020POPC   C3A52565  33.991  11.177   6.906
 4020POPC   C4A52566  33.985  11.461   7.214
 4020POPC   C1B52567  33.536  11.386   6.101
 4020POPC   C2B52568  33.497  11.436   6.565
 4020POPC   C3B52569  33.517  11.421   7.024
 4020POPC   C4B52570  33.562  11.010   7.197
 4021POPC   NC352571  41.439  21.533   5.279
 4021POPC   PO452572  41.974  21.194   5.349
 4021POPC   GL152573  41.691  21.293   5.706
 4021POPC   GL252574  41.309  21.332   5.748
 4021POPC   C1A52575  41.720  21.348   6.155
 4021POPC   D2A52576  41.718  21.142   6.551
 4021POPC   C3A52577  42.071  21.095   6.844
 4021POPC   C4A52578  42.006  21.190   7.281
 4021POPC   C1B52579  41.271  21.611   6.120
 4021POPC   C2B52580  41.457  21.601   6.542
 4021POPC   C3B52581  41.343  21.413   6.935
 4021POPC   C4B52582  41.299  21.627   7.325
 4022POPC   NC352583   4.496  14.773   5.475
 4022POPC   PO452584   4.236  14.124   5.501
 4022POPC   GL152585   4.364  14.394   5.815
 4022POPC   GL252586   4.078  14.607   5.758
 4022POPC   C1A52587   4.566  14.386   6.232
 4022POPC   D2A52588   4.666  14.148   6.591
 4022POPC   C3A52589   4.559  14.344   6.988
 4022POPC   C4A52590   4.464  14.257   7.414
 4022POPC   C1B52591   4.178  14.709   6.197
 4022POPC   C2B52592   4.186  14.429   6.580
 4022POPC   C3B52593   4.041  14.352   7.001
 4022POPC   C4B52594   4.095  14.670   7.320
 4023POPC   NC352595  19.794  30.076   5.596
 4023POPC   PO452596  20.046  29.472   5.333
 4023POPC   GL152597  20.154  29.667   5.805
 4023POPC   GL252598  19.889  29.820   6.029
 4023POPC   C1A52599  20.246  29.677   6.344
 4023POPC   D2A52600  19.882  29.689   6.682
 4023POPC   C3A52601  19.913  29.730   7.161
 4023POPC   C4A52602  19.960  29.878   7.590
 4023POPC   C1B52603  19.569  29.577   6.286
 4023POPC   C2B52604  19.332  29.641   6.696
 4023POPC   C3B52605  19.413  29.857   7.086
 4023POPC   C4B52606  19.473  29.668   7.490
 4024POPC   NC352607   1.116  27.222   5.062
 4024POPC   PO452608   1.187  26.672   5.404
 4024POPC   GL152609   1.140  26.792   5.823
 4024POPC   GL252610   1.427  26.946   6.000
 4024POPC   C1A52611   1.146  26.511   6.162
 4024POPC   D2A52612   0.994  26.486   6.573
 4024POPC   C3A52613   1.215  26.756   6.863
 4024POPC   C4A52614   1.237  26.724   7.328
 4024POPC   C1B52615   1.079  27.129   6.282
 4024POPC   C2B52616   0.939  27.375   6.656
 4024POPC   C3B52617   1.062  27.204   7.089
 4024POPC   C4B52618   1.230  27.209   7.523
 4025POPC   NC352619  21.661  21.732   5.436
 4025POPC   PO452620  21.130  22.097   5.206
 4025POPC   GL152621  21.262  22.191   5.684
 4025POPC   GL252622  21.045  22.402   5.907
 4025POPC   C1A52623  21.558  22.325   6.048
 4025POPC   D2A52624  21.576  22.155   6.485
 4025POPC   C3A52625  21.501  22.420   6.829
 4025POPC   C4A52626  21.624  22.234   7.207
 4025POPC   C1B52627  21.172  22.028   6.176
 4025POPC   C2B52628  21.114  21.956   6.646
 4025POPC   C3B52629  21.133  22.163   7.080
 4025POPC   C4B52630  21.229  22.093   7.531
 4026POPC   NC352631  44.707  43.132   5.343
 4026POPC   PO452632  44.544  43.708   5.210
 4026POPC   GL152633  44.699  43.452   5.704
 4026POPC   GL252634  44.531  43.061   5.796
 4026POPC   C1A52635  44.756  43.331   6.152
 4026POPC   D2A52636  44.560  43.482   6.514
 4026POPC   C3A52637  44.641  43.254   6.890
 4026POPC   C4A52638   0.091  43.131   6.965
 4026POPC   C1B52639  44.253  43.036   6.140
 4026POPC   C2B52640  44.355  42.891   6.542
 4026POPC   C3B52641  44.573  42.739   6.872
 4026POPC   C4B52642  44.448  42.897   7.255
 4027POPC   NC352643  40.545  14.448   5.109
 4027POPC   PO452644  41.088  14.181   5.470
 4027POPC   GL152645  40.730  14.237   5.786
 4027POPC   GL252646  40.495  14.505   5.633
 4027POPC   C1A52647  40.724  14.278   6.263
 4027POPC   D2A52648  40.888  14.158   6.690
 4027POPC   C3A52649  40.809  14.426   7.061
 4027POPC   C4A52650  40.764  14.331   7.493
 4027POPC   C1B52651  40.413  14.647   6.069
 4027POPC   C2B52652  40.269  14.722   6.499
 4027POPC   C3B52653  40.376  14.629   6.925
 4027POPC   C4B52654  40.513  14.756   7.366
 4028POPC   NC352655  39.230  24.967   5.371
 4028POPC   PO452656  39.777  25.341   5.377
 4028POPC   GL152657  39.478  25.327   5.729
 4028POPC   GL252658  39.133  25.344   5.705
 4028POPC   C1A52659  39.331  25.313   6.163
 4028POPC   D2A52660  39.167  25.158   6.534
 4028POPC   C3A52661  39.423  25.262   6.854
 4028POPC   C4A52662  39.286  25.224   7.251
 4028POPC   C1B52663  38.845  25.463   6.029
 4028POPC   C2B52664  38.742  25.486   6.453
 4028POPC   C3B52665  38.915  25.496   6.860
 4028POPC   C4B52666  38.618  25.418   7.155
 4029POPC   NC352667  10.800   6.404   5.494
 4029POPC   PO452668  10.413   5.774   5.485
 4029POPC   GL152669  10.643   5.698   5.862
 4029POPC   GL252670  10.920   5.919   5.723
 4029POPC   C1A52671  10.480   5.682   6.277
 4029POPC   D2A52672  10.357   5.835   6.699
 4029POPC   C3A52673   9.989   6.036   6.835
 4029POPC   C4A52674  10.077   5.842   7.199
 4029POPC   C1B52675  10.879   6.038   6.176
 4029POPC   C2B52676  10.856   5.848   6.593
 4029POPC   C3B52677  10.781   5.914   7.046
 4029POPC   C4B52678  10.807   6.258   7.337
 4030POPC   NC352679  44.310  10.739   5.140
 4030POPC   PO452680  43.988  10.230   5.559
 4030POPC   GL152681  43.692  10.373   5.845
 4030POPC   GL252682  43.707  10.748   5.902
 4030POPC   C1A52683  43.813  10.397   6.272
 4030POPC   D2A52684  43.995  10.566   6.623
 4030POPC   C3A52685  43.828  10.313   6.921
 4030POPC   C4A52686  43.819  10.465   7.326
 4030POPC   C1B52687  43.958  10.924   6.238
 4030POPC   C2B52688  44.006  11.087   6.659
 4030POPC   C3B52689  43.890  10.963   7.092
 4030POPC   C4B52690  43.688  10.927   7.518
 4031POPC   NC352691   8.104   8.566   5.471
 4031POPC   PO452692   8.568   8.126   5.203
 4031POPC   GL152693   8.476   8.303   5.705
 4031POPC   GL252694   8.123   8.178   5.811
 4031POPC   C1A52695   8.435   8.123   6.196
 4031POPC   D2A52696   8.157   8.210   6.538
 4031POPC   C3A52697   8.363   8.229   6.927
 4031POPC   C4A52698   8.386   8.086   7.333
 4031POPC   C1B52699   8.043   7.809   6.113
 4031POPC   C2B52700   8.190   7.656   6.547
 4031POPC   C3B52701   8.239   7.716   7.017
 4031POPC   C4B52702   8.217   7.638   7.507
 4032POPC   NC352703  31.678  25.218   5.284
 4032POPC   PO452704  31.643  25.813   5.620
 4032POPC   GL152705  31.627  25.380   5.777
 4032POPC   GL252706  31.343  25.206   5.901
 4032POPC   C1A52707  31.763  25.222   6.182
 4032POPC   D2A52708  31.480  25.175   6.531
 4032POPC   C3A52709  31.650  24.980   6.869
 4032POPC   C4A52710  31.578  25.174   7.262
 4032POPC   C1B52711  31.301  25.522   6.186
 4032POPC   C2B52712  31.144  25.586   6.587
 4032POPC   C3B52713  31.321  25.503   6.962
 4032POPC   C4B52714  31.510  25.697   7.310
 4033POPC   NC352715   2.086   2.485   4.967
 4033POPC   PO452716   2.025   3.053   5.315
 4033POPC   GL152717   1.997   3.018   5.737
 4033POPC   GL252718   1.768   2.741   5.765
 4033POPC   C1A52719   2.196   3.173   6.116
 4033POPC   D2A52720   2.445   3.032   6.464
 4033POPC   C3A52721   2.210   2.973   6.816
 4033POPC   C4A52722   2.238   3.005   7.254
 4033POPC   C1B52723   1.989   2.704   6.174
 4033POPC   C2B52724   1.920   2.577   6.594
 4033POPC   C3B52725   2.020   2.565   7.032
 4033POPC   C4B52726   1.677   2.534   7.250
 4034POPC   NC352727  31.812  35.775   5.592
 4034POPC   PO452728  31.436  35.124   5.574
 4034POPC   GL152729  31.366  35.317   5.959
 4034POPC   GL252730  31.698  35.411   5.952
 4034POPC   C1A52731  31.341  35.341   6.413
 4034POPC   D2A52732  31.739  35.273   6.722
 4034POPC   C3A52733  31.626  35.435   7.141
 4034POPC   C4A52734  31.179  35.551   7.222
 4034POPC   C1B52735  31.753  35.618   6.324
 4034POPC   C2B52736  31.499  35.730   6.686
 4034POPC   C3B52737  31.501  35.948   7.026
 4034POPC   C4B52738  31.520  35.875   7.473
 4035POPC   NC352739  23.838  39.419   5.638
 4035POPC   PO452740  23.678  39.924   5.239
 4035POPC   GL152741  23.720  39.914   5.727
 4035POPC   GL252742  23.764  40.224   5.865
 4035POPC   C1A52743  23.871  39.840   6.206
 4035POPC   D2A52744  24.001  39.939   6.643
 4035POPC   C3A52745  23.794  39.845   7.046
 4035POPC   C4A52746  23.802  40.024   7.472
 4035POPC   C1B52747  23.962  40.373   6.259
 4035POPC   C2B52748  24.160  40.423   6.665
 4035POPC   C3B52749  24.028  40.306   7.075
 4035POPC   C4B52750  23.924  40.567   7.404
 4036POPC   NC352751   9.980   3.001   5.045
 4036POPC   PO452752   9.533   2.767   5.537
 4036POPC   GL152753   9.892   2.674   5.762
 4036POPC   GL252754  10.095   2.984   5.793
 4036POPC   C1A52755   9.756   2.569   6.151
 4036POPC   D2A52756   9.492   2.717   6.455
 4036POPC   C3A52757   9.802   2.745   6.728
 4036POPC   C4A52758   9.785   2.664   7.138
 4036POPC   C1B52759   9.990   3.023   6.216
 4036POPC   C2B52760  10.125   3.167   6.606
 4036POPC   C3B52761  10.046   3.095   7.018
 4036POPC   C4B52762  10.177   2.888   7.358
 4037POPC   NC352763   2.972  39.654   5.388
 4037POPC   PO452764   2.594  40.205   5.312
 4037POPC   GL152765   2.765  40.335   5.732
 4037POPC   GL252766   3.135  40.291   5.698
 4037POPC   C1A52767   2.653  40.334   6.187
 4037POPC   D2A52768   2.375  40.172   6.541
 4037POPC   C3A52769   2.569  40.080   6.967
 4037POPC   C4A52770   2.816  39.718   7.193
 4037POPC   C1B52771   3.096  40.052   6.114
 4037POPC   C2B52772   3.196  39.976   6.589
 4037POPC   C3B52773   3.071  40.206   6.992
 4037POPC   C4B52774   2.849  40.164   7.415
 4038POPC   NC352775  11.992  29.749   5.484
 4038POPC   PO452776  12.341  30.401   5.511
 4038POPC   GL152777  12.274  30.083   5.845
 4038POPC   GL252778  11.933  30.131   5.878
 4038POPC   C1A52779  12.306  29.794   6.243
 4038POPC   D2A52780  12.157  29.708   6.688
 4038POPC   C3A52781  12.237  29.998   7.076
 4038POPC   C4A52782  12.216  30.252   7.472
 4038POPC   C1B52783  11.809  29.797   6.125
 4038POPC   C2B52784  11.699  29.854   6.519
 4038POPC   C3B52785  11.658  29.844   6.938
 4038POPC   C4B52786  11.791  29.959   7.345
 4039POPC   NC352787   0.234  29.317   5.408
 4039POPC   PO452788   0.709  28.795   5.426
 4039POPC   GL152789   0.504  29.069   5.796
 4039POPC   GL252790   0.200  29.295   5.904
 4039POPC   C1A52791   0.600  29.294   6.203
 4039POPC   D2A52792   0.462  29.495   6.577
 4039POPC   C3A52793   0.535  29.273   6.948
 4039POPC   C4A52794   0.513  29.260   7.357
 4039POPC   C1B52795   0.177  28.996   6.232
 4039POPC   C2B52796   0.075  29.100   6.642
 4039POPC   C3B52797   0.054  29.423   6.930
 4039POPC   C4B52798   0.002  29.303   7.342
 4040POPC   NC352799   1.219  26.211   5.406
 4040POPC   PO452800   0.778  25.770   5.543
 4040POPC   GL152801   0.920  26.070   5.840
 4040POPC   GL252802   1.294  26.071   5.877
 4040POPC   C1A52803   0.910  26.065   6.282
 4040POPC   D2A52804   1.125  26.008   6.684
 4040POPC   C3A52805   1.070  26.276   7.043
 4040POPC   C4A52806   0.994  25.970   7.326
 4040POPC   C1B52807   1.430  26.012   6.261
 4040POPC   C2B52808   1.608  25.863   6.628
 4040POPC   C3B52809   1.501  25.967   7.056
 4040POPC   C4B52810   1.438  26.218   7.433
 4041POPC   NC352811   4.900  29.374   5.470
 4041POPC   PO452812   4.812  30.073   5.352
 4041POPC   GL152813   5.008  30.160   5.748
 4041POPC   GL252814   5.086  29.798   5.771
 4041POPC   C1A52815   5.197  30.159   6.158
 4041POPC   D2A52816   4.945  30.050   6.524
 4041POPC   C3A52817   5.230  30.034   6.875
 4041POPC   C4A52818   5.432  29.969   7.241
 4041POPC   C1B52819   4.981  29.653   6.182
 4041POPC   C2B52820   5.233  29.622   6.576
 4041POPC   C3B52821   5.228  29.539   7.020
 4041POPC   C4B52822   4.990  29.546   7.391
 4042POPC   NC352823  33.760  27.936   5.234
 4042POPC   PO452824  33.682  27.430   5.605
 4042POPC   GL152825  33.789  27.568   5.991
 4042POPC   GL252826  33.859  27.916   5.902
 4042POPC   C1A52827  33.672  27.395   6.388
 4042POPC   D2A52828  33.420  27.481   6.756
 4042POPC   C3A52829  33.701  27.655   7.023
 4042POPC   C4A52830  34.037  27.429   7.120
 4042POPC   C1B52831  33.924  28.054   6.341
 4042POPC   C2B52832  34.179  27.907   6.718
 4042POPC   C3B52833  34.125  27.918   7.178
 4042POPC   C4B52834  34.236  27.841   7.628
 4043POPC   NC352835  43.250   3.437   5.376
 4043POPC   PO452836  42.882   4.017   5.220
 4043POPC   GL152837  43.154   3.843   5.640
 4043POPC   GL252838  42.879   3.595   5.770
 4043POPC   C1A52839  43.316   3.572   6.025
 4043POPC   D2A52840  43.348   3.428   6.457
 4043POPC   C3A52841  43.102   3.346   6.830
 4043POPC   C4A52842  43.222   3.458   7.239
 4043POPC   C1B52843  42.857   3.612   6.259
 4043POPC   C2B52844  42.860   3.782   6.714
 4043POPC   C3B52845  42.771   3.661   7.165
 4043POPC   C4B52846  42.735   3.311   7.505
 4044POPC   NC352847  33.292  40.198   5.487
 4044POPC   PO452848  33.059  40.839   5.418
 4044POPC   GL152849  33.161  40.619   5.776
 4044POPC   GL252850  33.508  40.608   5.686
 4044POPC   C1A52851  32.979  40.524   6.189
 4044POPC   D2A52852  33.001  40.779   6.559
 4044POPC   C3A52853  32.831  40.767   6.955
 4044POPC   C4A52854  32.994  40.824   7.322
 4044POPC   C1B52855  33.516  40.491   6.122
 4044POPC   C2B52856  33.413  40.465   6.553
 4044POPC   C3B52857  33.321  40.593   6.977
 4044POPC   C4B52858  33.374  40.477   7.407
 4045POPC   NC352859  15.168  40.288   5.436
 4045POPC   PO452860  14.872  39.687   5.270
 4045POPC   GL152861  14.940  39.887   5.692
 4045POPC   GL252862  15.302  39.914   5.786
 4045POPC   C1A52863  14.931  40.043   6.126
 4045POPC   D2A52864  14.948  39.871   6.545
 4045POPC   C3A52865  15.097  39.974   6.980
 4045POPC   C4A52866  15.166  39.653   7.269
 4045POPC   C1B52867  15.342  39.739   6.220
 4045POPC   C2B52868  15.491  39.932   6.605
 4045POPC   C3B52869  15.582  39.792   7.022
 4045POPC   C4B52870  15.485  40.031   7.404
 4046POPC   NC352871  27.955  16.017   5.453
 4046POPC   PO452872  27.418  15.635   5.114
 4046POPC   GL152873  27.430  15.779   5.619
 4046POPC   GL252874  27.609  16.085   5.798
 4046POPC   C1A52875  27.440  15.767   6.120
 4046POPC   D2A52876  27.757  15.766   6.460
 4046POPC   C3A52877  27.561  15.802   6.868
 4046POPC   C4A52878  27.599  15.888   7.308
 4046POPC   C1B52879  27.836  16.198   6.184
 4046POPC   C2B52880  27.786  16.248   6.650
 4046POPC   C3B52881  27.857  16.263   7.103
 4046POPC   C4B52882  27.708  16.359   7.558
 4047POPC   NC352883  10.693  32.655   5.548
 4047POPC   PO452884  10.285  32.177   5.326
 4047POPC   GL152885  10.447  32.273   5.765
 4047POPC   GL252886  10.776  32.217   5.950
 4047POPC   C1A52887  10.327  32.216   6.185
 4047POPC   D2A52888  10.417  31.893   6.477
 4047POPC   C3A52889  10.477  32.101   6.849
 4047POPC   C4A52890  10.240  32.249   7.179
 4047POPC   C1B52891  10.903  31.881   6.318
 4047POPC   C2B52892  10.914  31.783   6.819
 4047POPC   C3B52893  10.696  31.877   7.257
 4047POPC   C4B52894  10.763  31.913   7.719
 4048POPC   NC352895  25.672  20.591   5.442
 4048POPC   PO452896  24.989  20.842   5.361
 4048POPC   GL152897  25.198  20.655   5.693
 4048POPC   GL252898  25.468  20.859   5.824
 4048POPC   C1A52899  25.013  20.677   6.103
 4048POPC   D2A52900  25.142  20.661   6.528
 4048POPC   C3A52901  25.043  20.330   6.784
 4048POPC   C4A52902  25.093  20.226   7.231
 4048POPC   C1B52903  25.540  20.516   6.124
 4048POPC   C2B52904  25.546  20.313   6.550
 4048POPC   C3B52905  25.502  20.462   6.983
 4048POPC   C4B52906  25.714  20.478   7.371
 4049POPC   NC352907  32.786  37.231   5.540
 4049POPC   PO452908  33.327  36.878   5.302
 4049POPC   GL152909  33.076  36.851   5.731
 4049POPC   GL252910  33.139  37.155   5.940
 4049POPC   C1A52911  32.726  36.886   6.087
 4049POPC   D2A52912  32.673  37.187   6.458
 4049POPC   C3A52913  32.779  37.047   6.897
 4049POPC   C4A52914  32.544  36.837   7.236
 4049POPC   C1B52915  33.191  36.861   6.314
 4049POPC   C2B52916  33.309  36.514   6.610
 4049POPC   C3B52917  33.306  36.384   7.070
 4049POPC   C4B52918  33.075  36.738   7.363
 4050POPC   NC352919   5.849  37.543   5.480
 4050POPC   PO452920   5.891  38.128   5.736
 4050POPC   GL152921   5.830  37.777   5.956
 4050POPC   GL252922   6.014  37.460   5.968
 4050POPC   C1A52923   5.850  37.824   6.353
 4050POPC   D2A52924   5.949  37.588   6.672
 4050POPC   C3A52925   5.896  37.810   7.015
 4050POPC   C4A52926   5.727  37.846   7.393
 4050POPC   C1B52927   5.704  37.329   6.294
 4050POPC   C2B52928   5.555  37.277   6.761
 4050POPC   C3B52929   5.860  37.275   7.134
 4050POPC   C4B52930   5.998  37.171   7.588
 4051POPC   NC352931   0.576  40.769   5.256
 4051POPC   PO452932  44.977  41.164   5.387
 4051POPC   GL152933   0.260  40.928   5.711
 4051POPC   GL252934   0.593  41.045   5.690
 4051POPC   C1A52935   0.394  40.724   6.141
 4051POPC   D2A52936   0.534  40.508   6.529
 4051POPC   C3A52937   0.445  40.722   6.914
 4051POPC   C4A52938   0.257  40.694   7.296
 4051POPC   C1B52939   0.749  41.084   6.113
 4051POPC   C2B52940   0.595  41.039   6.528
 4051POPC   C3B52941   0.767  41.134   6.935
 4051POPC   C4B52942   0.593  41.111   7.316
 4052POPC   NC352943  25.566   2.758   5.560
 4052POPC   PO452944  26.194   2.504   5.487
 4052POPC   GL152945  25.968   2.654   5.859
 4052POPC   GL252946  26.004   3.032   5.965
 4052POPC   C1A52947  25.762   2.726   6.263
 4052POPC   D2A52948  25.980   2.759   6.649
 4052POPC   C3A52949  25.771   2.811   7.031
 4052POPC   C4A52950  25.964   2.622   7.368
 4052POPC   C1B52951  26.308   2.834   6.230
 4052POPC   C2B52952  26.538   2.723   6.622
 4052POPC   C3B52953  26.357   2.748   7.031
 4052POPC   C4B52954  26.457   2.818   7.448
 4053POPC   NC352955  25.800   3.879   5.443
 4053POPC   PO452956  25.789   3.189   5.507
 4053POPC   GL152957  26.018   3.509   5.797
 4053POPC   GL252958  26.077   3.878   5.844
 4053POPC   C1A52959  25.992   3.586   6.268
 4053POPC   D2A52960  25.936   3.805   6.685
 4053POPC   C3A52961  25.991   3.553   7.061
 4053POPC   C4A52962  26.092   3.145   7.254
 4053POPC   C1B52963  26.383   3.902   6.115
 4053POPC   C2B52964  26.447   3.738   6.518
 4053POPC   C3B52965  26.425   3.901   6.923
 4053POPC   C4B52966  26.375   3.767   7.326
 4054POPC   NC352967   0.741  20.539   5.511
 4054POPC   PO452968   0.139  20.520   5.115
 4054POPC   GL152969   0.241  20.681   5.539
 4054POPC   GL252970   0.288  20.390   5.758
 4054POPC   C1A52971   0.293  20.844   6.004
 4054POPC   D2A52972   0.513  20.881   6.420
 4054POPC   C3A52973   0.400  20.757   6.835
 4054POPC   C4A52974   0.357  20.817   7.244
 4054POPC   C1B52975   0.517  20.340   6.184
 4054POPC   C2B52976   0.626  20.319   6.648
 4054POPC   C3B52977   0.674  20.387   7.114
 4054POPC   C4B52978   0.716  20.134   7.489
 4055POPC   NC352979  22.359  21.020   5.516
 4055POPC   PO452980  22.110  21.628   5.499
 4055POPC   GL152981  22.200  21.634   5.873
 4055POPC   GL252982  22.558  21.530   5.776
 4055POPC   C1A52983  22.020  21.493   6.298
 4055POPC   D2A52984  22.115  21.676   6.713
 4055POPC   C3A52985  21.912  21.506   7.059
 4055POPC   C4A52986  21.957  21.122   7.283
 4055POPC   C1B52987  22.435  21.270   6.116
 4055POPC   C2B52988  22.462  21.269   6.520
 4055POPC   C3B52989  22.279  21.187   6.891
 4055POPC   C4B52990  22.445  21.235   7.288
 4056POPC   NC352991   7.564  17.021   5.551
 4056POPC   PO452992   7.286  16.399   5.495
 4056POPC   GL152993   7.347  16.608   5.868
 4056POPC   GL252994   7.668  16.480   5.869
 4056POPC   C1A52995   7.282  16.924   6.209
 4056POPC   D2A52996   6.965  17.068   6.530
 4056POPC   C3A52997   7.171  16.973   6.945
 4056POPC   C4A52998   7.382  16.617   7.103
 4056POPC   C1B52999   7.718  16.654   6.283
 4056POPC   C2B53000   7.582  16.852   6.656
 4056POPC   C3B53001   7.708  17.013   7.062
 4056POPC   C4B53002   7.805  16.742   7.430
 4057POPC   NC353003  10.150  15.638   5.143
 4057POPC   PO453004  10.516  15.127   5.303
 4057POPC   GL153005  10.532  15.285   5.703
 4057POPC   GL253006  10.198  15.414   5.711
 4057POPC   C1A53007  10.440  15.230   6.149
 4057POPC   D2A53008  10.526  15.260   6.583
 4057POPC   C3A53009  10.561  14.989   6.917
 4057POPC   C4A53010  10.714  15.326   7.151
 4057POPC   C1B53011  10.020  15.531   6.131
 4057POPC   C2B53012  10.054  15.482   6.584
 4057POPC   C3B53013  10.194  15.346   6.993
 4057POPC   C4B53014   9.956  15.571   7.283
 4058POPC   NC353015  38.323  38.772   5.562
 4058POPC   PO453016  37.977  38.269   5.391
 4058POPC   GL153017  38.293  38.208   5.762
 4058POPC   GL253018  38.446  38.507   5.975
 4058POPC   C1A53019  38.518  38.049   6.151
 4058POPC   D2A53020  38.323  38.286   6.489
 4058POPC   C3A53021  38.426  38.091   6.860
 4058POPC   C4A53022  38.501  38.148   7.263
 4058POPC   C1B53023  38.773  38.758   6.191
 4058POPC   C2B53024  38.807  38.880   6.614
 4058POPC   C3B53025  38.630  38.621   6.933
 4058POPC   C4B53026  38.809  38.549   7.302
 4059POPC   NC353027  44.192  10.649   5.639
 4059POPC   PO453028  44.643  10.170   5.342
 4059POPC   GL153029  44.694  10.383   5.795
 4059POPC   GL253030   0.062  10.492   5.839
 4059POPC   C1A53031  44.470  10.436   6.246
 4059POPC   D2A53032  44.293  10.155   6.576
 4059POPC   C3A53033  44.330  10.227   7.014
 4059POPC   C4A53034  44.687  10.392   7.204
 4059POPC   C1B53035  44.953  10.624   6.276
 4059POPC   C2B53036  44.813  10.572   6.711
 4059POPC   C3B53037  44.936  10.796   7.078
 4059POPC   C4B53038  44.790  10.869   7.524
 4060POPC   NC353039  28.249   4.292   5.367
 4060POPC   PO453040  28.900   4.038   5.118
 4060POPC   GL153041  28.595   4.086   5.658
 4060POPC   GL253042  28.219   4.010   5.789
 4060POPC   C1A53043  28.423   4.298   6.121
 4060POPC   D2A53044  28.193   4.301   6.567
 4060POPC   C3A53045  28.489   4.410   6.916
 4060POPC   C4A53046  28.654   4.593   7.335
 4060POPC   C1B53047  28.021   3.955   6.218
 4060POPC   C2B53048  28.041   3.802   6.663
 4060POPC   C3B53049  28.094   4.099   7.035
 4060POPC   C4B53050  28.303   4.239   7.400
 4061POPC   NC353051  12.400  26.442   5.343
 4061POPC   PO453052  12.017  25.925   5.175
 4061POPC   GL153053  11.905  25.878   5.646
 4061POPC   GL253054  12.221  25.986   5.785
 4061POPC   C1A53055  11.830  26.038   6.112
 4061POPC   D2A53056  12.128  25.926   6.444
 4061POPC   C3A53057  11.988  25.922   6.862
 4061POPC   C4A53058  11.929  26.172   7.214
 4061POPC   C1B53059  12.304  26.312   6.096
 4061POPC   C2B53060  12.425  26.369   6.546
 4061POPC   C3B53061  12.414  26.204   6.986
 4061POPC   C4B53062  12.355  25.812   7.234
 4062POPC   NC353063  13.037  17.085   5.624
 4062POPC   PO453064  12.912  16.434   5.494
 4062POPC   GL153065  12.822  16.673   5.886
 4062POPC   GL253066  12.491  16.618   5.962
 4062POPC   C1A53067  12.807  16.639   6.364
 4062POPC   D2A53068  13.023  16.467   6.740
 4062POPC   C3A53069  13.135  16.763   7.004
 4062POPC   C4A53070  12.865  16.913   7.302
 4062POPC   C1B53071  12.452  17.013   6.117
 4062POPC   C2B53072  12.433  17.071   6.550
 4062POPC   C3B53073  12.612  16.813   6.867
 4062POPC   C4B53074  12.501  16.560   7.218
 4063POPC   NC353075   4.124  33.449   5.371
 4063POPC   PO453076   4.312  34.081   5.321
 4063POPC   GL153077   4.428  33.740   5.678
 4063POPC   GL253078   4.732  33.531   5.627
 4063POPC   C1A53079   4.315  33.635   6.135
 4063POPC   D2A53080   4.296  33.847   6.558
 4063POPC   C3A53081   4.139  33.760   6.995
 4063POPC   C4A53082   4.100  34.004   7.389
 4063POPC   C1B53083   4.809  33.504   6.052
 4063POPC   C2B53084   4.696  33.495   6.465
 4063POPC   C3B53085   4.568  33.500   6.872
 4063POPC   C4B53086   4.601  33.770   7.241
 4064POPC   NC353087   8.521  23.625   5.586
 4064POPC   PO453088   7.962  23.304   5.329
 4064POPC   GL153089   8.069  23.471   5.756
 4064POPC   GL253090   8.059  23.834   5.801
 4064POPC   C1A53091   8.026  23.512   6.216
 4064POPC   D2A53092   7.845  23.708   6.593
 4064POPC   C3A53093   7.983  23.467   6.892
 4064POPC   C4A53094   8.074  23.633   7.259
 4064POPC   C1B53095   8.070  24.026   6.242
 4064POPC   C2B53096   8.131  24.237   6.665
 4064POPC   C3B53097   8.306  24.061   7.052
 4064POPC   C4B53098   8.484  23.973   7.465
 4065POPC   NC353099  26.085  19.258   5.522
 4065POPC   PO453100  25.718  18.699   5.484
 4065POPC   GL153101  25.965  18.774   5.845
 4065POPC   GL253102  25.897  19.105   5.981
 4065POPC   C1A53103  26.253  18.758   6.169
 4065POPC   D2A53104  26.215  19.026   6.520
 4065POPC   C3A53105  26.202  18.842   6.923
 4065POPC   C4A53106  26.244  18.974   7.341
 4065POPC   C1B53107  25.751  18.821   6.322
 4065POPC   C2B53108  25.693  18.958   6.749
 4065POPC   C3B53109  25.772  19.062   7.174
 4065POPC   C4B53110  25.757  19.111   7.636
 4066POPC   NC353111  16.079   5.626   5.331
 4066POPC   PO453112  15.408   5.704   5.340
 4066POPC   GL153113  15.699   5.661   5.707
 4066POPC   GL253114  16.052   5.785   5.825
 4066POPC   C1A53115  15.712   5.578   6.137
 4066POPC   D2A53116  15.921   5.791   6.449
 4066POPC   C3A53117  15.817   5.684   6.859
 4066POPC   C4A53118  16.038   5.776   7.196
 4066POPC   C1B53119  16.169   6.122   6.147
 4066POPC   C2B53120  16.420   6.289   6.517
 4066POPC   C3B53121  16.408   6.205   6.971
 4066POPC   C4B53122  16.170   6.269   7.329
 4067POPC   NC353123  33.338  13.193   5.475
 4067POPC   PO453124  33.428  13.878   5.350
 4067POPC   GL153125  33.164  13.783   5.738
 4067POPC   GL253126  33.210  13.448   5.901
 4067POPC   C1A53127  32.803  13.720   6.077
 4067POPC   D2A53128  32.504  13.655   6.457
 4067POPC   C3A53129  32.787  13.548   6.783
 4067POPC   C4A53130  32.821  13.494   7.208
 4067POPC   C1B53131  33.379  13.690   6.254
 4067POPC   C2B53132  33.296  13.654   6.707
 4067POPC   C3B53133  33.083  13.922   7.020
 4067POPC   C4B53134  32.921  13.944   7.447
 4068POPC   NC353135  24.121  31.846   5.437
 4068POPC   PO453136  23.686  31.446   5.073
 4068POPC   GL153137  23.680  31.533   5.568
 4068POPC   GL253138  23.802  31.246   5.766
 4068POPC   C1A53139  23.583  31.567   6.061
 4068POPC   D2A53140  23.814  31.442   6.459
 4068POPC   C3A53141  23.578  31.494   6.829
 4068POPC   C4A53142  23.654  31.622   7.226
 4068POPC   C1B53143  23.719  31.035   6.164
 4068POPC   C2B53144  23.909  30.938   6.596
 4068POPC   C3B53145  23.944  31.102   7.021
 4068POPC   C4B53146  23.951  31.258   7.439
 4069POPC   NC353147  27.651  42.537   5.380
 4069POPC   PO453148  28.265  42.173   5.242
 4069POPC   GL153149  28.408  42.255   5.656
 4069POPC   GL253150  28.274  42.023   5.911
 4069POPC   C1A53151  28.537  42.449   6.063
 4069POPC   D2A53152  28.794  42.369   6.436
 4069POPC   C3A53153  28.696  42.399   6.871
 4069POPC   C4A53154  28.377  42.287   7.196
 4069POPC   C1B53155  28.144  42.180   6.288
 4069POPC   C2B53156  28.220  42.214   6.717
 4069POPC   C3B53157  28.057  41.950   7.038
 4069POPC   C4B53158  27.722  42.004   7.250
 4070POPC   NC353159  30.662  42.191   5.357
 4070POPC   PO453160  31.084  42.747   5.284
 4070POPC   GL153161  30.998  42.521   5.723
 4070POPC   GL253162  30.639  42.409   5.798
 4070POPC   C1A53163  30.937  42.350   6.205
 4070POPC   D2A53164  31.088  42.360   6.645
 4070POPC   C3A53165  30.819  42.309   7.029
 4070POPC   C4A53166  30.902  42.210   7.485
 4070POPC   C1B53167  30.470  42.596   6.160
 4070POPC   C2B53168  30.472  42.383   6.558
 4070POPC   C3B53169  30.249  42.463   6.912
 4070POPC   C4B53170  30.284  42.609   7.329
 4071POPC   NC353171   3.873  25.544   5.444
 4071POPC   PO453172   4.414  25.113   5.472
 4071POPC   GL153173   4.204  25.277   5.803
 4071POPC   GL253174   4.303  25.601   5.766
 4071POPC   C1A53175   4.316  25.322   6.245
 4071POPC   D2A53176   4.456  25.303   6.669
 4071POPC   C3A53177   4.249  25.132   7.021
 4071POPC   C4A53178   4.628  25.253   7.248
 4071POPC   C1B53179   4.059  25.750   6.090
 4071POPC   C2B53180   3.888  25.738   6.485
 4071POPC   C3B53181   4.082  25.634   6.868
 4071POPC   C4B53182   4.214  25.557   7.295
 4072POPC   NC353183  20.814  37.329   5.454
 4072POPC   PO453184  20.844  36.640   5.285
 4072POPC   GL153185  20.677  36.902   5.722
 4072POPC   GL253186  20.371  37.099   5.859
 4072POPC   C1A53187  20.556  36.757   6.177
 4072POPC   D2A53188  20.595  36.513   6.554
 4072POPC   C3A53189  20.614  36.749   6.892
 4072POPC   C4A53190  20.474  36.611   7.293
 4072POPC   C1B53191  20.676  37.260   6.130
 4072POPC   C2B53192  20.836  37.156   6.529
 4072POPC   C3B53193  20.773  37.239   6.954
 4072POPC   C4B53194  20.440  37.112   7.240
 4073POPC   NC353195  36.789  43.886   5.346
 4073POPC   PO453196  37.430  43.878   5.228
 4073POPC   GL153197  37.222  43.772   5.659
 4073POPC   GL253198  37.127  44.074   5.836
 4073POPC   C1A53199  36.991  43.639   6.078
 4073POPC   D2A53200  37.172  43.571   6.535
 4073POPC   C3A53201  37.061  43.770   6.969
 4073POPC   C4A53202  36.851  43.869   7.381
 4073POPC   C1B53203  37.098  44.060   6.323
 4073POPC   C2B53204  36.872  44.249   6.716
 4073POPC   C3B53205  36.786  44.343   7.213
 4073POPC   C4B53206  36.536  44.467   7.658
 4074POPC   NC353207  37.193   1.472   5.485
 4074POPC   PO453208  36.623   1.144   5.274
 4074POPC   GL153209  36.715   1.420   5.720
 4074POPC   GL253210  37.018   1.613   5.920
 4074POPC   C1A53211  36.622   1.466   6.187
 4074POPC   D2A53212  36.690   1.182   6.536
 4074POPC   C3A53213  36.661   1.382   6.926
 4074POPC   C4A53214  36.473   1.336   7.313
 4074POPC   C1B53215  37.124   1.270   6.177
 4074POPC   C2B53216  37.240   1.170   6.591
 4074POPC   C3B53217  37.224   1.308   6.975
 4074POPC   C4B53218  36.979   1.268   7.321
 4075POPC   NC353219  21.875  23.713   5.398
 4075POPC   PO453220  22.503  23.451   5.370
 4075POPC   GL153221  22.412  23.755   5.730
 4075POPC   GL253222  22.118  23.591   5.841
 4075POPC   C1A53223  22.226  24.014   6.125
 4075POPC   D2A53224  21.915  23.918   6.476
 4075POPC   C3A53225  22.026  23.821   6.906
 4075POPC   C4A53226  21.973  23.728   7.312
 4075POPC   C1B53227  22.483  23.338   6.040
 4075POPC   C2B53228  22.547  23.349   6.463
 4075POPC   C3B53229  22.315  23.417   6.826
 4075POPC   C4B53230  22.337  23.384   7.249
 4076POPC   NC353231  30.118  37.493   5.500
 4076POPC   PO453232  29.501  37.760   5.377
 4076POPC   GL153233  29.740  37.717   5.774
 4076POPC   GL253234  30.022  37.956   5.833
 4076POPC   C1A53235  29.686  37.836   6.203
 4076POPC   D2A53236  29.871  38.077   6.517
 4076POPC   C3A53237  29.931  37.825   6.845
 4076POPC   C4A53238  29.904  37.675   7.242
 4076POPC   C1B53239  30.181  37.667   6.139
 4076POPC   C2B53240  30.092  37.457   6.509
 4076POPC   C3B53241  30.255  37.431   6.916
 4076POPC   C4B53242  30.177  37.246   7.272
 4077POPC   NC353243  40.718  19.324   5.568
 4077POPC   PO453244  40.912  18.665   5.458
 4077POPC   GL153245  41.054  18.927   5.813
 4077POPC   GL253246  40.788  19.056   5.991
 4077POPC   C1A53247  41.221  19.078   6.244
 4077POPC   D2A53248  41.027  19.155   6.662
 4077POPC   C3A53249  41.053  18.937   7.088
 4077POPC   C4A53250  41.041  18.895   7.555
 4077POPC   C1B53251  40.815  18.747   6.336
 4077POPC   C2B53252  40.719  18.674   6.794
 4077POPC   C3B53253  40.566  18.855   7.212
 4077POPC   C4B53254  40.564  18.676   7.616
 4078POPC   NC353255  13.186   1.131   5.396
 4078POPC   PO453256  12.417   1.043   5.315
 4078POPC   GL153257  12.748   1.024   5.622
 4078POPC   GL253258  12.831   1.376   5.730
 4078POPC   C1A53259  12.782   0.957   6.080
 4078POPC   D2A53260  12.735   1.155   6.488
 4078POPC   C3A53261  12.803   0.956   6.877
 4078POPC   C4A53262  12.621   1.014   7.261
 4078POPC   C1B53263  13.052   1.535   6.125
 4078POPC   C2B53264  13.166   1.684   6.544
 4078POPC   C3B53265  13.097   1.404   6.844
 4078POPC   C4B53266  13.000   1.359   7.244
 4079POPC   NC353267  29.871  10.405   5.231
 4079POPC   PO453268  30.501  10.634   5.309
 4079POPC   GL153269  30.366  10.505   5.755
 4079POPC   GL253270  30.013  10.328   5.753
 4079POPC   C1A53271  30.195  10.487   6.197
 4079POPC   D2A53272  29.918  10.596   6.534
 4079POPC   C3A53273  30.106  10.801   6.861
 4079POPC   C4A53274  29.931  10.607   7.183
 4079POPC   C1B53275  29.719  10.283   6.139
 4079POPC   C2B53276  29.627  10.159   6.574
 4079POPC   C3B53277  29.767  10.074   6.998
 4079POPC   C4B53278  29.710  10.238   7.440
 4080POPC   NC353279  10.332  19.980   5.386
 4080POPC   PO453280  10.485  19.379   5.470
 4080POPC   GL153281  10.458  19.684   5.835
 4080POPC   GL253282  10.133  19.897   5.866
 4080POPC   C1A53283  10.787  19.912   6.114
 4080POPC   D2A53284  11.061  19.898   6.494
 4080POPC   C3A53285  10.834  19.708   6.817
 4080POPC   C4A53286  10.654  19.878   7.172
 4080POPC   C1B53287  10.304  20.020   6.268
 4080POPC   C2B53288  10.524  20.134   6.653
 4080POPC   C3B53289  10.331  20.252   7.055
 4080POPC   C4B53290  10.285  20.118   7.499
 4081POPC   NC353291  34.089  21.866   5.504
 4081POPC   PO453292  33.770  21.305   5.556
 4081POPC   GL153293  33.935  21.434   5.856
 4081POPC   GL253294  34.155  21.112   5.821
 4081POPC   C1A53295  33.689  21.540   6.242
 4081POPC   D2A53296  33.427  21.554   6.601
 4081POPC   C3A53297  33.627  21.456   6.975
 4081POPC   C4A53298  33.755  21.499   7.394
 4081POPC   C1B53299  34.030  21.178   6.261
 4081POPC   C2B53300  33.993  21.274   6.651
 4081POPC   C3B53301  34.006  21.132   7.063
 4081POPC   C4B53302  34.016  21.058   7.473
 4082POPC   NC353303  26.388  23.632   5.089
 4082POPC   PO453304  25.838  23.939   5.425
 4082POPC   GL153305  25.995  24.007   5.853
 4082POPC   GL253306  26.230  23.753   6.034
 4082POPC   C1A53307  25.907  24.052   6.254
 4082POPC   D2A53308  26.247  23.965   6.517
 4082POPC   C3A53309  26.105  23.904   6.898
 4082POPC   C4A53310  26.225  23.990   7.275
 4082POPC   C1B53311  26.234  23.464   6.377
 4082POPC   C2B53312  26.027  23.414   6.775
 4082POPC   C3B53313  26.075  23.474   7.235
 4082POPC   C4B53314  26.016  23.387   7.682
 4083POPC   NC353315  11.783  41.226   5.599
 4083POPC   PO453316  11.346  41.716   5.577
 4083POPC   GL153317  11.153  41.468   5.908
 4083POPC   GL253318  11.478  41.410   5.964
 4083POPC   C1A53319  11.152  41.511   6.349
 4083POPC   D2A53320  11.443  41.651   6.643
 4083POPC   C3A53321  11.246  41.531   7.039
 4083POPC   C4A53322  11.313  41.454   7.486
 4083POPC   C1B53323  11.566  41.174   6.314
 4083POPC   C2B53324  11.551  41.139   6.753
 4083POPC   C3B53325  11.496  41.083   7.175
 4083POPC   C4B53326  11.026  41.106   7.250
 4084POPC   NC353327  35.862  27.954   5.633
 4084POPC   PO453328  36.339  27.562   5.345
 4084POPC   GL153329  36.198  27.582   5.786
 4084POPC   GL253330  36.277  27.264   5.932
 4084POPC   C1A53331  35.914  27.633   6.195
 4084POPC   D2A53332  35.720  27.900   6.547
 4084POPC   C3A53333  35.852  27.697   6.948
 4084POPC   C4A53334  36.270  27.701   7.162
 4084POPC   C1B53335  36.438  27.604   6.222
 4084POPC   C2B53336  36.266  27.626   6.627
 4084POPC   C3B53337  36.261  27.274   6.864
 4084POPC   C4B53338  36.359  27.197   7.283
 4085POPC   NC353339  42.278  13.943   5.385
 4085POPC   PO453340  42.503  14.537   5.407
 4085POPC   GL153341  42.527  14.406   5.805
 4085POPC   GL253342  42.337  14.116   5.844
 4085POPC   C1A53343  42.594  14.623   6.203
 4085POPC   D2A53344  42.395  14.502   6.585
 4085POPC   C3A53345  42.523  14.501   7.014
 4085POPC   C4A53346  42.158  14.315   7.236
 4085POPC   C1B53347  42.482  14.111   6.238
 4085POPC   C2B53348  42.636  14.038   6.622
 4085POPC   C3B53349  42.495  13.987   7.007
 4085POPC   C4B53350  42.660  14.148   7.353
 4086POPC   NC353351  14.974  32.899   5.527
 4086POPC   PO453352  15.380  33.352   5.211
 4086POPC   GL153353  15.310  33.234   5.720
 4086POPC   GL253354  14.960  33.166   5.937
 4086POPC   C1A53355  15.375  33.183   6.212
 4086POPC   D2A53356  15.364  32.906   6.594
 4086POPC   C3A53357  15.420  33.099   6.997
 4086POPC   C4A53358  15.129  33.350   7.215
 4086POPC   C1B53359  14.936  32.898   6.301
 4086POPC   C2B53360  14.962  32.567   6.597
 4086POPC   C3B53361  15.091  32.694   6.995
 4086POPC   C4B53362  14.847  32.632   7.316
 4087POPC   NC353363  44.567  33.212   5.064
 4087POPC   PO453364  44.449  32.843   5.539
 4087POPC   GL153365  44.488  32.696   5.954
 4087POPC   GL253366  44.861  32.672   5.957
 4087POPC   C1A53367  44.267  32.849   6.344
 4087POPC   D2A53368  44.288  32.909   6.801
 4087POPC   C3A53369  44.521  33.296   6.934
 4087POPC   C4A53370  44.694  33.306   7.361
 4087POPC   C1B53371  44.788  32.713   6.390
 4087POPC   C2B53372  44.831  32.922   6.783
 4087POPC   C3B53373  44.862  32.827   7.222
 4087POPC   C4B53374   0.018  32.656   7.612
 4088POPC   NC353375  29.620  22.478   5.557
 4088POPC   PO453376  30.255  22.347   5.303
 4088POPC   GL153377  29.963  22.118   5.635
 4088POPC   GL253378  30.001  22.350   5.897
 4088POPC   C1A53379  29.836  21.871   6.034
 4088POPC   D2A53380  30.000  21.728   6.459
 4088POPC   C3A53381  29.929  21.870   6.884
 4088POPC   C4A53382  30.046  22.246   7.125
 4088POPC   C1B53383  29.927  22.265   6.343
 4088POPC   C2B53384  29.635  22.268   6.681
 4088POPC   C3B53385  29.638  22.558   6.996
 4088POPC   C4B53386  30.014  22.777   7.107
 4089POPC   NC353387  17.645  43.479   5.713
 4089POPC   PO453388  17.264  43.011   5.379
 4089POPC   GL153389  17.335  42.987   5.819
 4089POPC   GL253390  17.692  42.971   5.786
 4089POPC   C1A53391  17.184  43.230   6.214
 4089POPC   D2A53392  17.095  43.515   6.616
 4089POPC   C3A53393  17.239  43.227   6.935
 4089POPC   C4A53394  17.654  43.180   7.160
 4089POPC   C1B53395  17.704  42.700   6.116
 4089POPC   C2B53396  17.516  42.673   6.501
 4089POPC   C3B53397  17.594  42.729   6.930
 4089POPC   C4B53398  17.261  42.787   7.232
 4090POPC   NC353399  23.066  37.473   5.238
 4090POPC   PO453400  22.830  38.075   5.136
 4090POPC   GL153401  22.821  37.854   5.569
 4090POPC   GL253402  22.985  37.542   5.729
 4090POPC   C1A53403  22.788  37.903   6.050
 4090POPC   D2A53404  22.883  37.781   6.466
 4090POPC   C3A53405  23.108  37.984   6.773
 4090POPC   C4A53406  22.909  37.960   7.135
 4090POPC   C1B53407  23.184  37.510   6.129
 4090POPC   C2B53408  23.294  37.520   6.583
 4090POPC   C3B53409  23.049  37.480   6.985
 4090POPC   C4B53410  23.247  37.364   7.398
 4091POPC   NC353411  13.931  35.402   5.417
 4091POPC   PO453412  14.575  35.075   5.359
 4091POPC   GL153413  14.311  35.197   5.702
 4091POPC   GL253414  14.147  34.871   5.747
 4091POPC   C1A53415  14.312  35.466   6.100
 4091POPC   D2A53416  14.136  35.619   6.516
 4091POPC   C3A53417  14.365  35.567   6.900
 4091POPC   C4A53418  14.286  35.438   7.338
 4091POPC   C1B53419  14.432  34.945   6.118
 4091POPC   C2B53420  14.337  35.132   6.518
 4091POPC   C3B53421  14.443  35.068   6.916
 4091POPC   C4B53422  14.311  34.911   7.259
 4092POPC   NC353423  37.250  42.999   5.347
 4092POPC   PO453424  36.758  43.392   5.361
 4092POPC   GL153425  36.921  43.240   5.767
 4092POPC   GL253426  36.987  42.897   5.779
 4092POPC   C1A53427  37.216  43.193   6.138
 4092POPC   D2A53428  37.284  43.041   6.557
 4092POPC   C3A53429  37.019  43.227   6.880
 4092POPC   C4A53430  36.799  43.387   7.275
 4092POPC   C1B53431  37.013  42.714   6.190
 4092POPC   C2B53432  36.869  42.727   6.587
 4092POPC   C3B53433  37.096  42.717   6.946
 4092POPC   C4B53434  36.932  42.900   7.263
 4093POPC   NC353435  11.509  38.655   5.470
 4093POPC   PO453436  10.960  38.299   5.539
 4093POPC   GL153437  11.305  38.263   5.831
 4093POPC   GL253438  11.272  38.617   5.945
 4093POPC   C1A53439  11.480  38.313   6.268
 4093POPC   D2A53440  11.371  38.645   6.580
 4093POPC   C3A53441  11.224  38.417   6.942
 4093POPC   C4A53442  11.300  38.018   7.144
 4093POPC   C1B53443  11.647  38.829   6.152
 4093POPC   C2B53444  11.826  38.896   6.578
 4093POPC   C3B53445  11.659  38.812   7.005
 4093POPC   C4B53446  11.345  38.731   7.323
 4094POPC   NC353447  23.648   7.875   5.374
 4094POPC   PO453448  24.057   8.404   5.253
 4094POPC   GL153449  23.877   8.154   5.724
 4094POPC   GL253450  23.519   8.149   5.798
 4094POPC   C1A53451  23.826   8.262   6.231
 4094POPC   D2A53452  23.765   8.392   6.683
 4094POPC   C3A53453  24.038   8.248   7.001
 4094POPC   C4A53454  23.861   8.045   7.335
 4094POPC   C1B53455  23.363   8.061   6.209
 4094POPC   C2B53456  23.456   7.958   6.640
 4094POPC   C3B53457  23.347   8.180   7.019
 4094POPC   C4B53458  23.619   8.492   7.197
 4095POPC   NC353459   7.960  11.345   5.320
 4095POPC   PO453460   8.638  11.301   5.430
 4095POPC   GL153461   8.250  11.453   5.731
 4095POPC   GL253462   7.864  11.611   5.739
 4095POPC   C1A53463   8.270  11.522   6.165
 4095POPC   D2A53464   8.507  11.532   6.561
 4095POPC   C3A53465   8.259  11.489   6.935
 4095POPC   C4A53466   8.176  11.130   7.198
 4095POPC   C1B53467   7.756  11.494   6.126
 4095POPC   C2B53468   7.902  11.397   6.520
 4095POPC   C3B53469   7.777  11.304   6.910
 4095POPC   C4B53470   7.836  11.521   7.253
 4096POPC   NC353471   4.609   4.463   5.436
 4096POPC   PO453472   4.082   4.139   5.363
 4096POPC   GL153473   4.123   4.416   5.739
 4096POPC   GL253474   4.449   4.487   5.912
 4096POPC   C1A53475   4.044   4.518   6.198
 4096POPC   D2A53476   4.293   4.380   6.528
 4096POPC   C3A53477   4.202   4.557   6.935
 4096POPC   C4A53478   4.384   4.364   7.316
 4096POPC   C1B53479   4.646   4.149   6.151
 4096POPC   C2B53480   4.648   3.978   6.577
 4096POPC   C3B53481   4.716   4.001   7.027
 4096POPC   C4B53482   4.767   4.078   7.476
 4097POPC   NC353483  25.872   9.257   5.279
 4097POPC   PO453484  25.767   8.630   5.466
 4097POPC   GL153485  25.940   9.018   5.745
 4097POPC   GL253486  26.292   9.172   5.672
 4097POPC   C1A53487  26.007   9.088   6.212
 4097POPC   D2A53488  25.775   8.957   6.604
 4097POPC   C3A53489  25.892   9.068   7.043
 4097POPC   C4A53490  25.912   8.850   7.425
 4097POPC   C1B53491  26.455   9.308   6.086
 4097POPC   C2B53492  26.443   9.192   6.547
 4097POPC   C3B53493  26.364   9.311   7.018
 4097POPC   C4B53494  26.347   9.153   7.463
 4098POPC   NC353495  15.736  44.455   5.488
 4098POPC   PO453496  16.282  44.640   5.142
 4098POPC   GL153497  16.144  44.657   5.675
 4098POPC   GL253498  16.122  44.341   5.839
 4098POPC   C1A53499  16.137  44.710   6.163
 4098POPC   D2A53500  15.939  44.619   6.565
 4098POPC   C3A53501  16.022  44.937   6.877
 4098POPC   C4A53502  16.349  44.774   7.132
 4098POPC   C1B53503  15.795  44.274   6.173
 4098POPC   C2B53504  15.579  44.200   6.578
 4098POPC   C3B53505  15.556  44.376   6.980
 4098POPC   C4B53506  15.911  44.528   7.166
 4099POPC   NC353507  21.570  16.626   5.518
 4099POPC   PO453508  21.027  16.935   5.428
 4099POPC   GL153509  21.138  16.765   5.791
 4099POPC   GL253510  20.946  17.038   5.933
 4099POPC   C1A53511  21.347  16.565   6.149
 4099POPC   D2A53512  21.374  16.766   6.533
 4099POPC   C3A53513  21.390  16.517   6.881
 4099POPC   C4A53514  21.408  16.312   7.253
 4099POPC   C1B53515  21.138  17.203   6.289
 4099POPC   C2B53516  21.142  17.176   6.726
 4099POPC   C3B53517  21.418  17.019   7.009
 4099POPC   C4B53518  21.425  17.108   7.474
 4100POPC   NC353519  39.808  43.286   5.502
 4100POPC   PO453520  40.402  42.947   5.508
 4100POPC   GL153521  40.125  42.798   5.862
 4100POPC   GL253522  39.743  42.891   5.846
 4100POPC   C1A53523  39.989  42.834   6.304
 4100POPC   D2A53524  40.055  43.223   6.540
 4100POPC   C3A53525  40.297  43.226   6.913
 4100POPC   C4A53526  40.150  43.034   7.270
 4100POPC   C1B53527  39.630  43.235   6.195
 4100POPC   C2B53528  39.594  43.432   6.637
 4100POPC   C3B53529  39.698  43.243   7.074
 4100POPC   C4B53530  39.728  43.268   7.567
 4101POPC   NC353531  32.276   2.266   5.453
 4101POPC   PO453532  32.516   1.660   5.590
 4101POPC   GL153533  32.214   1.891   5.788
 4101POPC   GL253534  31.989   1.695   5.928
 4101POPC   C1A53535  32.274   2.141   6.144
 4101POPC   D2A53536  32.441   2.049   6.556
 4101POPC   C3A53537  32.145   2.045   6.872
 4101POPC   C4A53538  32.188   2.001   7.321
 4101POPC   C1B53539  32.259   1.619   6.262
 4101POPC   C2B53540  32.155   1.434   6.671
 4101POPC   C3B53541  32.283   1.569   7.075
 4101POPC   C4B53542  32.119   1.519   7.500
 4102POPC   NC353543  44.259  20.522   5.156
 4102POPC   PO453544  43.630  20.653   5.340
 4102POPC   GL153545  43.974  20.628   5.645
 4102POPC   GL253546  43.965  20.887   5.753
 4102POPC   C1A53547  44.032  20.491   6.096
 4102POPC   D2A53548  44.150  20.679   6.515
 4102POPC   C3A53549  43.977  20.454   6.849
 4102POPC   C4A53550  43.917  20.392   7.287
 4102POPC   C1B53551  43.914  21.004   6.142
 4102POPC   C2B53552  43.877  21.133   6.542
 4102POPC   C3B53553  43.939  20.940   6.938
 4102POPC   C4B53554  43.777  20.899   7.336
 4103POPC   NC353555  31.446  33.896   5.418
 4103POPC   PO453556  31.816  33.399   5.600
 4103POPC   GL153557  31.503  33.623   5.868
 4103POPC   GL253558  31.164  33.841   5.841
 4103POPC   C1A53559  31.459  33.834   6.259
 4103POPC   D2A53560  31.764  34.078   6.492
 4103POPC   C3A53561  31.883  33.863   6.859
 4103POPC   C4A53562  31.554  33.697   7.098
 4103POPC   C1B53563  31.060  34.139   6.182
 4103POPC   C2B53564  31.178  34.092   6.613
 4103POPC   C3B53565  31.080  33.817   6.917
 4103POPC   C4B53566  31.134  34.048   7.240
 4104POPC   NC353567  34.277  33.902   5.603
 4104POPC   PO453568  33.654  33.782   5.347
 4104POPC   GL153569  33.674  33.639   5.777
 4104POPC   GL253570  34.000  33.507   5.807
 4104POPC   C1A53571  33.491  33.651   6.198
 4104POPC   D2A53572  33.460  33.386   6.555
 4104POPC   C3A53573  33.535  33.618   6.879
 4104POPC   C4A53574  33.631  33.717   7.264
 4104POPC   C1B53575  34.048  33.666   6.192
 4104POPC   C2B53576  33.921  33.761   6.574
 4104POPC   C3B53577  34.066  33.735   6.989
 4104POPC   C4B53578  34.035  34.016   7.334
 4105POPC   NC353579   6.171  17.754   5.413
 4105POPC   PO453580   5.691  17.278   5.349
 4105POPC   GL153581   5.765  17.573   5.711
 4105POPC   GL253582   6.077  17.720   5.902
 4105POPC   C1A53583   5.712  17.515   6.161
 4105POPC   D2A53584   6.052  17.445   6.445
 4105POPC   C3A53585   5.878  17.385   6.839
 4105POPC   C4A53586   5.702  17.194   7.174
 4105POPC   C1B53587   6.090  17.971   6.286
 4105POPC   C2B53588   6.031  17.876   6.730
 4105POPC   C3B53589   5.761  17.850   7.071
 4105POPC   C4B53590   5.907  17.982   7.465
 4106POPC   NC353591  25.466  27.896   5.600
 4106POPC   PO453592  25.199  27.383   5.168
 4106POPC   GL153593  25.088  27.538   5.637
 4106POPC   GL253594  24.844  27.328   5.825
 4106POPC   C1A53595  25.148  27.644   6.129
 4106POPC   D2A53596  25.310  27.903   6.505
 4106POPC   C3A53597  25.264  27.735   6.951
 4106POPC   C4A53598  25.516  27.635   7.346
 4106POPC   C1B53599  24.987  27.159   6.185
 4106POPC   C2B53600  24.965  27.354   6.590
 4106POPC   C3B53601  24.888  27.167   6.984
 4106POPC   C4B53602  25.104  27.329   7.333
 4107POPC   NC353603  30.016  17.714   5.290
 4107POPC   PO453604  29.490  17.709   5.398
 4107POPC   GL153605  29.768  17.661   5.770
 4107POPC   GL253606  30.027  17.905   5.828
 4107POPC   C1A53607  29.753  17.415   6.184
 4107POPC   D2A53608  29.501  17.282   6.554
 4107POPC   C3A53609  29.622  17.353   6.976
 4107POPC   C4A53610  29.821  17.192   7.343
 4107POPC   C1B53611  30.031  17.825   6.309
 4107POPC   C2B53612  30.035  17.554   6.714
 4107POPC   C3B53613  30.000  17.642   7.176
 4107POPC   C4B53614  29.866  17.972   7.437
 4108POPC   NC353615  27.184   4.617   5.464
 4108POPC   PO453616  27.783   4.344   5.383
 4108POPC   GL153617  27.841   4.339   5.783
 4108POPC   GL253618  27.539   4.497   5.831
 4108POPC   C1A53619  27.924   4.510   6.180
 4108POPC   D2A53620  27.705   4.491   6.563
 4108POPC   C3A53621  27.920   4.598   6.922
 4108POPC   C4A53622  27.878   4.504   7.321
 4108POPC   C1B53623  27.518   4.147   6.137
 4108POPC   C2B53624  27.596   3.996   6.546
 4108POPC   C3B53625  27.585   4.127   6.976
 4108POPC   C4B53626  27.225   4.069   7.268
 4109POPC   NC353627  42.915  16.631   5.311
 4109POPC   PO453628  43.531  16.703   5.326
 4109POPC   GL153629  43.323  16.935   5.664
 4109POPC   GL253630  42.960  17.008   5.697
 4109POPC   C1A53631  43.314  16.811   6.101
 4109POPC   D2A53632  43.182  16.711   6.525
 4109POPC   C3A53633  43.330  16.852   6.922
 4109POPC   C4A53634  43.181  16.658   7.263
 4109POPC   C1B53635  42.772  16.850   6.108
 4109POPC   C2B53636  42.660  16.742   6.537
 4109POPC   C3B53637  42.830  16.855   6.917
 4109POPC   C4B53638  42.698  16.835   7.320
 4110POPC   NC353639  32.690   5.315   5.475
 4110POPC   PO453640  32.060   4.941   5.539
 4110POPC   GL153641  32.093   5.201   5.861
 4110POPC   GL253642  32.445   5.109   5.880
 4110POPC   C1A53643  32.088   5.177   6.308
 4110POPC   D2A53644  32.264   4.907   6.637
 4110POPC   C3A53645  31.976   4.903   6.956
 4110POPC   C4A53646  31.913   5.236   7.195
 4110POPC   C1B53647  32.573   5.332   6.240
 4110POPC   C2B53648  32.372   5.474   6.624
 4110POPC   C3B53649  32.397   5.279   7.024
 4110POPC   C4B53650  32.733   5.333   7.307
 4111POPC   NC353651   0.969   1.420   5.594
 4111POPC   PO453652   1.157   0.971   5.153
 4111POPC   GL153653   1.377   1.023   5.610
 4111POPC   GL253654   1.376   1.319   5.864
 4111POPC   C1A53655   1.413   0.883   6.087
 4111POPC   D2A53656   1.266   0.844   6.525
 4111POPC   C3A53657   1.402   0.968   6.962
 4111POPC   C4A53658   1.066   1.227   7.157
 4111POPC   C1B53659   1.221   1.346   6.277
 4111POPC   C2B53660   1.437   1.362   6.656
 4111POPC   C3B53661   1.471   1.523   7.066
 4111POPC   C4B53662   1.593   1.242   7.408
 4112POPC   NC353663  13.055  33.287   5.409
 4112POPC   PO453664  12.499  33.079   5.178
 4112POPC   GL153665  12.706  33.068   5.695
 4112POPC   GL253666  12.607  33.273   5.961
 4112POPC   C1A53667  12.777  32.794   6.070
 4112POPC   D2A53668  12.648  32.611   6.477
 4112POPC   C3A53669  12.903  32.698   6.830
 4112POPC   C4A53670  12.968  32.913   7.222
 4112POPC   C1B53671  12.725  33.362   6.403
 4112POPC   C2B53672  12.797  33.224   6.843
 4112POPC   C3B53673  12.792  33.402   7.281
 4112POPC   C4B53674  12.836  33.542   7.721
 4113POPC   NC353675  14.620  43.401   5.447
 4113POPC   PO453676  14.413  42.705   5.406
 4113POPC   GL153677  14.391  42.932   5.797
 4113POPC   GL253678  14.216  43.234   5.726
 4113POPC   C1A53679  14.339  42.887   6.252
 4113POPC   D2A53680  14.149  42.863   6.663
 4113POPC   C3A53681  14.338  42.806   7.061
 4113POPC   C4A53682  14.159  42.945   7.441
 4113POPC   C1B53683  14.440  43.407   6.096
 4113POPC   C2B53684  14.332  43.356   6.508
 4113POPC   C3B53685  14.566  43.212   6.827
 4113POPC   C4B53686  14.531  43.265   7.255
 4114POPC   NC353687  12.534  30.851   5.509
 4114POPC   PO453688  11.902  31.097   5.398
 4114POPC   GL153689  11.938  30.939   5.823
 4114POPC   GL253690  12.259  31.043   5.895
 4114POPC   C1A53691  12.017  30.572   6.119
 4114POPC   D2A53692  12.050  30.207   6.394
 4114POPC   C3A53693  11.916  30.269   6.811
 4114POPC   C4A53694  11.948  30.560   7.167
 4114POPC   C1B53695  12.159  31.013   6.336
 4114POPC   C2B53696  12.221  30.646   6.612
 4114POPC   C3B53697  12.426  30.531   6.982
 4114POPC   C4B53698  12.375  30.870   7.262
 4115POPC   NC353699   7.417  17.902   5.347
 4115POPC   PO453700   7.195  17.301   5.440
 4115POPC   GL153701   7.239  17.548   5.755
 4115POPC   GL253702   7.597  17.574   5.721
 4115POPC   C1A53703   7.172  17.429   6.177
 4115POPC   D2A53704   7.404  17.305   6.540
 4115POPC   C3A53705   7.228  17.477   6.908
 4115POPC   C4A53706   7.481  17.448   7.279
 4115POPC   C1B53707   7.534  17.798   6.102
 4115POPC   C2B53708   7.393  17.795   6.509
 4115POPC   C3B53709   7.601  17.814   6.918
 4115POPC   C4B53710   7.452  17.965   7.307
 4116POPC   NC353711  33.428   3.210   5.415
 4116POPC   PO453712  33.709   2.558   5.227
 4116POPC   GL153713  33.788   2.782   5.640
 4116POPC   GL253714  33.467   2.808   5.806
 4116POPC   C1A53715  33.854   2.750   6.128
 4116POPC   D2A53716  33.883   2.524   6.516
 4116POPC   C3A53717  33.904   2.668   6.952
 4116POPC   C4A53718  33.827   2.520   7.360
 4116POPC   C1B53719  33.422   2.953   6.255
 4116POPC   C2B53720  33.680   2.995   6.610
 4116POPC   C3B53721  33.546   3.049   7.017
 4116POPC   C4B53722  33.265   3.220   7.291
 4117POPC   NC353723   7.734  42.569   5.649
 4117POPC   PO453724   8.268  42.242   5.458
 4117POPC   GL153725   8.289  42.319   5.892
 4117POPC   GL253726   8.164  42.598   5.895
 4117POPC   C1A53727   8.358  42.486   6.348
 4117POPC   D2A53728   8.281  42.231   6.666
 4117POPC   C3A53729   8.136  42.364   7.042
 4117POPC   C4A53730   8.082  42.240   7.399
 4117POPC   C1B53731   7.892  42.656   6.253
 4117POPC   C2B53732   7.835  42.462   6.607
 4117POPC   C3B53733   7.699  42.672   6.919
 4117POPC   C4B53734   7.818  42.735   7.314
 4118POPC   NC353735  16.634   2.307   5.388
 4118POPC   PO453736  17.028   1.931   5.650
 4118POPC   GL153737  16.696   2.084   5.865
 4118POPC   GL253738  16.516   1.787   5.826
 4118POPC   C1A53739  16.750   2.089   6.297
 4118POPC   D2A53740  16.983   1.981   6.657
 4118POPC   C3A53741  16.780   1.936   7.014
 4118POPC   C4A53742  16.766   2.285   7.284
 4118POPC   C1B53743  16.289   1.872   6.198
 4118POPC   C2B53744  16.429   1.818   6.605
 4118POPC   C3B53745  16.315   1.707   7.002
 4118POPC   C4B53746  16.413   1.908   7.363
 4119POPC   NC353747  20.378   4.466   5.621
 4119POPC   PO453748  20.548   3.809   5.461
 4119POPC   GL153749  20.767   4.134   5.714
 4119POPC   GL253750  20.877   4.498   5.589
 4119POPC   C1A53751  20.652   4.146   6.148
 4119POPC   D2A53752  20.488   4.197   6.541
 4119POPC   C3A53753  20.808   4.171   6.839
 4119POPC   C4A53754  20.630   4.077   7.214
 4119POPC   C1B53755  20.932   4.546   6.028
 4119POPC   C2B53756  20.920   4.532   6.465
 4119POPC   C3B53757  20.630   4.644   6.793
 4119POPC   C4B53758  20.728   4.576   7.236
 4120POPC   NC353759  19.611   0.396   5.451
 4120POPC   PO453760  20.330   0.637   5.391
 4120POPC   GL153761  19.980   0.633   5.715
 4120POPC   GL253762  19.958   0.293   5.823
 4120POPC   C1A53763  19.759   0.586   6.153
 4120POPC   D2A53764  20.042   0.315   6.395
 4120POPC   C3A53765  20.062   0.301   6.840
 4120POPC   C4A53766  19.843   0.595   7.078
 4120POPC   C1B53767  19.649   0.094   6.072
 4120POPC   C2B53768  19.586   0.092   6.498
 4120POPC   C3B53769  19.439   0.297   6.844
 4120POPC   C4B53770  19.534   0.270   7.290
 4121POPC   NC353771  14.030  38.949   5.424
 4121POPC   PO453772  14.128  39.691   5.451
 4121POPC   GL153773  14.511  39.488   5.692
 4121POPC   GL253774  14.656  39.102   5.802
 4121POPC   C1A53775  14.390  39.374   6.132
 4121POPC   D2A53776  14.551  39.258   6.526
 4121POPC   C3A53777  14.324  39.442   6.855
 4121POPC   C4A53778  14.227  39.341   7.246
 4121POPC   C1B53779  14.466  38.853   6.194
 4121POPC   C2B53780  14.362  38.795   6.655
 4121POPC   C3B53781  14.528  38.998   7.026
 4121POPC   C4B53782  14.487  38.980   7.504
 4122POPC   NC353783   7.367  32.659   5.426
 4122POPC   PO453784   7.125  32.042   5.319
 4122POPC   GL153785   7.304  32.174   5.681
 4122POPC   GL253786   7.624  32.281   5.718
 4122POPC   C1A53787   7.240  32.395   6.063
 4122POPC   D2A53788   7.379  32.460   6.455
 4122POPC   C3A53789   7.264  32.145   6.739
 4122POPC   C4A53790   7.100  32.066   7.138
 4122POPC   C1B53791   7.758  32.499   6.104
 4122POPC   C2B53792   7.894  32.565   6.515
 4122POPC   C3B53793   7.668  32.546   6.865
 4122POPC   C4B53794   7.613  32.251   7.131
 4123POPC   NC353795  20.982  14.984   5.268
 4123POPC   PO453796  20.477  15.427   5.438
 4123POPC   GL153797  20.554  15.162   5.770
 4123POPC   GL253798  20.588  15.464   5.950
 4123POPC   C1A53799  20.661  14.996   6.212
 4123POPC   D2A53800  21.000  15.021   6.540
 4123POPC   C3A53801  20.914  14.867   6.951
 4123POPC   C4A53802  20.943  15.202   7.226
 4123POPC   C1B53803  20.395  15.442   6.324
 4123POPC   C2B53804  20.567  15.267   6.658
 4123POPC   C3B53805  20.485  15.147   7.026
 4123POPC   C4B53806  20.374  15.465   7.266
 4124POPC   NC353807  21.488   7.077   5.638
 4124POPC   PO453808  21.162   7.583   5.269
 4124POPC   GL153809  21.101   7.441   5.729
 4124POPC   GL253810  21.012   7.068   5.826
 4124POPC   C1A53811  21.269   7.622   6.141
 4124POPC   D2A53812  21.324   7.511   6.581
 4124POPC   C3A53813  21.471   7.689   6.956
 4124POPC   C4A53814  21.689   7.386   7.223
 4124POPC   C1B53815  20.989   7.181   6.283
 4124POPC   C2B53816  21.006   7.164   6.761
 4124POPC   C3B53817  21.186   7.259   7.188
 4124POPC   C4B53818  20.974   7.240   7.582
 4125POPC   NC353819  19.986   2.039   5.451
 4125POPC   PO453820  19.427   2.438   5.485
 4125POPC   GL153821  19.556   2.060   5.777
 4125POPC   GL253822  19.765   1.712   5.814
 4125POPC   C1A53823  19.695   2.065   6.243
 4125POPC   D2A53824  19.544   1.883   6.677
 4125POPC   C3A53825  19.661   2.129   7.074
 4125POPC   C4A53826  20.083   2.250   7.258
 4125POPC   C1B53827  19.810   1.586   6.281
 4125POPC   C2B53828  20.057   1.734   6.666
 4125POPC   C3B53829  19.984   1.773   7.059
 4125POPC   C4B53830  19.595   1.602   7.136
 4126POPC   NC353831   7.179  12.888   5.368
 4126POPC   PO453832   7.731  12.507   5.310
 4126POPC   GL153833   7.621  12.712   5.757
 4126POPC   GL253834   7.370  13.010   5.814
 4126POPC   C1A53835   7.534  12.821   6.236
 4126POPC   D2A53836   7.486  13.013   6.615
 4126POPC   C3A53837   7.550  12.757   6.979
 4126POPC   C4A53838   7.449  12.957   7.353
 4126POPC   C1B53839   7.039  12.806   6.078
 4126POPC   C2B53840   7.072  12.668   6.501
 4126POPC   C3B53841   7.059  12.833   6.901
 4126POPC   C4B53842   6.978  12.778   7.325
 4127POPC   NC353843  43.413   8.959   5.450
 4127POPC   PO453844  42.746   8.844   5.389
 4127POPC   GL153845  42.985   9.082   5.753
 4127POPC   GL253846  43.355   9.125   5.928
 4127POPC   C1A53847  42.936   9.091   6.203
 4127POPC   D2A53848  43.260   8.960   6.497
 4127POPC   C3A53849  43.105   8.924   6.893
 4127POPC   C4A53850  43.250   8.921   7.313
 4127POPC   C1B53851  43.642   9.237   6.300
 4127POPC   C2B53852  43.573   9.311   6.746
 4127POPC   C3B53853  43.596   9.283   7.193
 4127POPC   C4B53854  43.582   9.166   7.650
 4128POPC   NC353855  19.120  42.441   5.356
 4128POPC   PO453856  18.838  41.801   5.385
 4128POPC   GL153857  19.058  42.049   5.733
 4128POPC   GL253858  19.423  42.036   5.840
 4128POPC   C1A53859  18.987  42.290   6.111
 4128POPC   D2A53860  19.181  42.403   6.511
 4128POPC   C3A53861  19.081  42.374   6.963
 4128POPC   C4A53862  18.713  42.302   7.181
 4128POPC   C1B53863  19.329  41.926   6.286
 4128POPC   C2B53864  19.358  41.982   6.749
 4128POPC   C3B53865  19.401  42.006   7.187
 4128POPC   C4B53866  19.384  41.867   7.607
 4129POPC   NC353867  24.970  31.127   5.565
 4129POPC   PO453868  25.505  30.743   5.506
 4129POPC   GL153869  25.297  30.468   5.831
 4129POPC   GL253870  24.941  30.384   5.699
 4129POPC   C1A53871  25.356  30.436   6.293
 4129POPC   D2A53872  25.149  30.242   6.653
 4129POPC   C3A53873  25.374  30.451   6.998
 4129POPC   C4A53874  25.738  30.414   7.244
 4129POPC   C1B53875  24.858  30.401   6.146
 4129POPC   C2B53876  24.893  30.664   6.528
 4129POPC   C3B53877  24.879  30.580   6.981
 4129POPC   C4B53878  24.940  30.732   7.423
 4130POPC   NC353879  33.808  28.645   5.474
 4130POPC   PO453880  33.342  28.199   5.223
 4130POPC   GL153881  33.513  28.289   5.720
 4130POPC   GL253882  33.861  28.429   5.915
 4130POPC   C1A53883  33.477  28.338   6.210
 4130POPC   D2A53884  33.695  28.490   6.581
 4130POPC   C3A53885  33.787  28.220   6.913
 4130POPC   C4A53886  33.640  28.094   7.303
 4130POPC   C1B53887  34.195  28.516   6.197
 4130POPC   C2B53888  34.208  28.418   6.626
 4130POPC   C3B53889  34.171  28.552   7.050
 4130POPC   C4B53890  34.211  28.330   7.456
 4131POPC   NC353891  44.649  34.128   5.224
 4131POPC   PO453892  44.080  34.434   5.279
 4131POPC   GL153893  44.367  34.522   5.626
 4131POPC   GL253894  44.658  34.312   5.736
 4131POPC   C1A53895  44.381  34.616   6.073
 4131POPC   D2A53896  44.359  34.445   6.503
 4131POPC   C3A53897  44.559  34.659   6.880
 4131POPC   C4A53898  44.871  34.599   7.234
 4131POPC   C1B53899  44.770  34.314   6.218
 4131POPC   C2B53900  44.839  34.256   6.689
 4131POPC   C3B53901  44.978  34.104   7.123
 4131POPC   C4B53902   0.112  34.238   7.587
 4132POPC   NC353903  34.236  38.585   5.407
 4132POPC   PO453904  34.916  38.575   5.374
 4132POPC   GL153905  34.701  38.376   5.742
 4132POPC   GL253906  34.402  38.533   5.906
 4132POPC   C1A53907  34.784  38.229   6.169
 4132POPC   D2A53908  34.536  38.315   6.537
 4132POPC   C3A53909  34.700  38.389   6.952
 4132POPC   C4A53910  34.719  38.221   7.399
 4132POPC   C1B53911  34.358  38.768   6.313
 4132POPC   C2B53912  34.319  38.708   6.801
 4132POPC   C3B53913  34.363  38.578   7.267
 4132POPC   C4B53914  34.335  38.845   7.664
 4133POPC   NC353915  12.577  28.364   5.291
 4133POPC   PO453916  13.257  28.262   5.201
 4133POPC   GL153917  12.975  28.280   5.639
 4133POPC   GL253918  12.639  28.368   5.796
 4133POPC   C1A53919  13.064  28.406   6.084
 4133POPC   D2A53920  13.225  28.628   6.435
 4133POPC   C3A53921  13.043  28.459   6.802
 4133POPC   C4A53922  13.101  28.148   7.119
 4133POPC   C1B53923  12.580  28.117   6.181
 4133POPC   C2B53924  12.451  28.200   6.635
 4133POPC   C3B53925  12.617  28.323   7.060
 4133POPC   C4B53926  12.634  28.088   7.463
 4134POPC   NC353927  31.257  44.095   5.463
 4134POPC   PO453928  31.808  43.761   5.242
 4134POPC   GL153929  31.672  43.857   5.696
 4134POPC   GL253930  31.379  43.669   5.804
 4134POPC   C1A53931  31.603  43.904   6.189
 4134POPC   D2A53932  31.506  43.607   6.540
 4134POPC   C3A53933  31.516  43.742   6.984
 4134POPC   C4A53934  31.700  44.116   7.125
 4134POPC   C1B53935  31.104  43.879   6.142
 4134POPC   C2B53936  31.067  43.880   6.607
 4134POPC   C3B53937  31.173  44.159   6.968
 4134POPC   C4B53938  31.278  44.092   7.419
 4135POPC   NC353939  28.209   6.183   5.441
 4135POPC   PO453940  28.584   5.658   5.224
 4135POPC   GL153941  28.483   5.808   5.649
 4135POPC   GL253942  28.139   5.851   5.820
 4135POPC   C1A53943  28.575   5.875   6.078
 4135POPC   D2A53944  28.658   6.174   6.376
 4135POPC   C3A53945  28.690   6.115   6.822
 4135POPC   C4A53946  28.616   5.889   7.190
 4135POPC   C1B53947  28.184   6.193   6.127
 4135POPC   C2B53948  28.181   6.169   6.573
 4135POPC   C3B53949  28.178   5.890   6.916
 4135POPC   C4B53950  28.133   6.028   7.329
 4136POPC   NC353951  31.167  30.485   5.503
 4136POPC   PO453952  30.498  30.513   5.287
 4136POPC   GL153953  30.562  30.612   5.709
 4136POPC   GL253954  30.728  30.294   5.753
 4136POPC   C1A53955  30.657  30.902   6.067
 4136POPC   D2A53956  30.847  30.851   6.488
 4136POPC   C3A53957  30.628  30.865   6.900
 4136POPC   C4A53958  30.639  30.758   7.309
 4136POPC   C1B53959  30.713  30.407   6.192
 4136POPC   C2B53960  30.886  30.339   6.599
 4136POPC   C3B53961  30.690  30.359   6.984
 4136POPC   C4B53962  30.839  30.289   7.369
 4137POPC   NC353963  28.569  30.471   5.357
 4137POPC   PO453964  27.985  30.717   5.396
 4137POPC   GL153965  28.182  30.620   5.740
 4137POPC   GL253966  28.492  30.815   5.724
 4137POPC   C1A53967  28.031  30.540   6.138
 4137POPC   D2A53968  28.239  30.651   6.537
 4137POPC   C3A53969  28.095  30.501   6.933
 4137POPC   C4A53970  28.268  30.577   7.349
 4137POPC   C1B53971  28.399  30.929   6.134
 4137POPC   C2B53972  28.425  31.135   6.541
 4137POPC   C3B53973  28.384  30.940   6.944
 4137POPC   C4B53974  28.391  31.112   7.310
 4138POPC   NC353975  36.834   3.399   5.559
 4138POPC   PO453976  36.936   4.067   5.443
 4138POPC   GL153977  36.799   3.829   5.795
 4138POPC   GL253978  37.154   3.770   5.840
 4138POPC   C1A53979  36.810   3.591   6.206
 4138POPC   D2A53980  36.644   3.745   6.587
 4138POPC   C3A53981  36.718   3.553   6.972
 4138POPC   C4A53982  36.765   3.656   7.395
 4138POPC   C1B53983  37.186   3.946   6.265
 4138POPC   C2B53984  37.174   3.735   6.680
 4138POPC   C3B53985  37.221   3.480   7.073
 4138POPC   C4B53986  37.264   3.602   7.504
 4139POPC   NC353987  33.282   8.223   5.386
 4139POPC   PO453988  32.642   8.139   5.541
 4139POPC   GL153989  32.695   8.406   5.848
 4139POPC   GL253990  33.019   8.562   5.738
 4139POPC   C1A53991  32.718   8.138   6.219
 4139POPC   D2A53992  32.993   7.892   6.502
 4139POPC   C3A53993  32.769   8.016   6.854
 4139POPC   C4A53994  32.933   8.034   7.273
 4139POPC   C1B53995  33.171   8.397   6.122
 4139POPC   C2B53996  33.010   8.403   6.540
 4139POPC   C3B53997  33.187   8.286   6.895
 4139POPC   C4B53998  33.338   8.375   7.256
 4140POPC   NC353999  11.807  37.927   5.418
 4140POPC   PO454000  12.408  37.728   5.399
 4140POPC   GL154001  12.197  37.745   5.768
 4140POPC   GL254002  12.165  38.084   5.816
 4140POPC   C1A54003  12.317  37.742   6.200
 4140POPC   D2A54004  12.212  37.724   6.613
 4140POPC   C3A54005  11.894  37.497   6.797
 4140POPC   C4A54006  12.091  37.415   7.144
 4140POPC   C1B54007  11.827  37.942   6.102
 4140POPC   C2B54008  11.739  37.949   6.546
 4140POPC   C3B54009  11.921  37.976   6.953
 4140POPC   C4B54010  11.754  37.821   7.284
 4141POPC   NC354011  23.244  43.565   5.610
 4141POPC   PO454012  23.250  44.276   5.388
 4141POPC   GL154013  22.938  44.235   5.792
 4141POPC   GL254014  22.784  43.908   5.745
 4141POPC   C1A54015  22.647  44.125   6.192
 4141POPC   D2A54016  22.832  43.943   6.590
 4141POPC   C3A54017  22.701  43.974   7.025
 4141POPC   C4A54018  22.777  43.750   7.422
 4141POPC   C1B54019  22.801  43.632   6.132
 4141POPC   C2B54020  23.080  43.486   6.451
 4141POPC   C3B54021  23.120  43.593   6.884
 4141POPC   C4B54022  23.228  43.563   7.310
 4142POPC   NC354023  35.451  28.636   5.375
 4142POPC   PO454024  35.514  27.930   5.307
 4142POPC   GL154025  35.446  28.209   5.724
 4142POPC   GL254026  35.189  28.439   5.772
 4142POPC   C1A54027  35.419  28.222   6.218
 4142POPC   D2A54028  35.173  28.082   6.570
 4142POPC   C3A54029  35.203  28.175   7.003
 4142POPC   C4A54030  35.466  27.939   7.296
 4142POPC   C1B54031  35.494  28.670   6.028
 4142POPC   C2B54032  35.525  28.757   6.465
 4142POPC   C3B54033  35.579  28.447   6.759
 4142POPC   C4B54034  35.519  28.563   7.170
 4143POPC   NC354035   0.699  43.166   5.465
 4143POPC   PO454036   0.102  42.891   5.352
 4143POPC   GL154037   0.218  43.144   5.722
 4143POPC   GL254038   0.033  42.947   5.951
 4143POPC   C1A54039   0.507  43.165   6.117
 4143POPC   D2A54040   0.405  43.213   6.570
 4143POPC   C3A54041   0.617  43.133   7.003
 4143POPC   C4A54042   0.337  43.177   7.426
 4143POPC   C1B54043   0.257  42.738   6.313
 4143POPC   C2B54044   0.348  42.714   6.765
 4143POPC   C3B54045   0.404  42.715   7.216
 4143POPC   C4B54046   0.581  42.748   7.638
 4144POPC   NC354047  12.101  35.211   5.279
 4144POPC   PO454048  11.693  35.722   5.447
 4144POPC   GL154049  11.997  35.424   5.760
 4144POPC   GL254050  12.279  35.105   5.749
 4144POPC   C1A54051  12.180  35.476   6.204
 4144POPC   D2A54052  12.448  35.389   6.578
 4144POPC   C3A54053  12.354  35.520   6.999
 4144POPC   C4A54054  12.011  35.514   7.285
 4144POPC   C1B54055  12.120  34.963   6.133
 4144POPC   C2B54056  12.262  34.891   6.552
 4144POPC   C3B54057  12.089  35.081   6.909
 4144POPC   C4B54058  12.156  35.035   7.327
 4145POPC   NC354059  19.583  37.273   5.582
 4145POPC   PO454060  19.948  37.819   5.521
 4145POPC   GL154061  19.724  37.733   5.896
 4145POPC   GL254062  19.521  38.040   5.923
 4145POPC   C1A54063  19.694  37.454   6.284
 4145POPC   D2A54064  19.478  37.389   6.673
 4145POPC   C3A54065  19.525  37.769   6.907
 4145POPC   C4A54066  19.832  37.771   7.229
 4145POPC   C1B54067  19.641  37.956   6.371
 4145POPC   C2B54068  19.990  37.794   6.629
 4145POPC   C3B54069  20.222  37.995   6.980
 4145POPC   C4B54070  20.184  38.051   7.470
 4146POPC   NC354071  33.250  23.547   5.304
 4146POPC   PO454072  33.930  23.745   5.386
 4146POPC   GL154073  33.916  23.923   5.794
 4146POPC   GL254074  33.893  23.599   5.890
 4146POPC   C1A54075  34.198  23.904   6.184
 4146POPC   D2A54076  34.254  23.909   6.640
 4146POPC   C3A54077  33.922  23.983   6.938
 4146POPC   C4A54078  33.835  23.933   7.368
 4146POPC   C1B54079  33.622  23.500   6.208
 4146POPC   C2B54080  33.769  23.645   6.585
 4146POPC   C3B54081  33.963  23.445   6.924
 4146POPC   C4B54082  33.913  23.426   7.384
 4147POPC   NC354083  24.880  28.699   5.497
 4147POPC   PO454084  24.179  28.517   5.406
 4147POPC   GL154085  24.452  28.592   5.810
 4147POPC   GL254086  24.590  28.250   5.888
 4147POPC   C1A54087  24.556  28.575   6.306
 4147POPC   D2A54088  24.450  28.312   6.719
 4147POPC   C3A54089  24.607  28.522   7.092
 4147POPC   C4A54090  25.023  28.640   7.165
 4147POPC   C1B54091  24.289  28.161   6.243
 4147POPC   C2B54092  24.202  27.881   6.537
 4147POPC   C3B54093  24.246  27.865   6.971
 4147POPC   C4B54094  24.168  28.253   7.177
 4148POPC   NC354095   5.285  41.261   5.543
 4148POPC   PO454096   4.854  40.689   5.457
 4148POPC   GL154097   5.135  40.794   5.786
 4148POPC   GL254098   4.957  41.084   5.898
 4148POPC   C1A54099   5.194  40.635   6.211
 4148POPC   D2A54100   4.917  40.623   6.565
 4148POPC   C3A54101   5.091  40.707   6.959
 4148POPC   C4A54102   5.002  40.519   7.365
 4148POPC   C1B54103   5.302  41.128   6.198
 4148POPC   C2B54104   5.185  41.101   6.620
 4148POPC   C3B54105   5.349  41.142   7.027
 4148POPC   C4B54106   5.098  41.044   7.351
 4149POPC   NC354107  32.752  21.842   5.605
 4149POPC   PO454108  33.172  21.507   5.110
 4149POPC   GL154109  33.278  21.406   5.602
 4149POPC   GL254110  33.457  21.684   5.796
 4149POPC   C1A54111  33.289  21.252   6.084
 4149POPC   D2A54112  33.088  21.168   6.512
 4149POPC   C3A54113  33.229  21.160   6.926
 4149POPC   C4A54114  33.004  21.218   7.326
 4149POPC   C1B54115  33.178  21.760   6.177
 4149POPC   C2B54116  32.906  21.652   6.518
 4149POPC   C3B54117  32.973  21.609   6.946
 4149POPC   C4B54118  33.258  21.671   7.271
 4150POPC   NC354119   1.406  40.014   5.368
 4150POPC   PO454120   0.848  40.358   5.167
 4150POPC   GL154121   1.107  40.250   5.683
 4150POPC   GL254122   1.246  39.928   5.836
 4150POPC   C1A54123   1.366  40.322   6.122
 4150POPC   D2A54124   1.528  40.224   6.568
 4150POPC   C3A54125   1.280  40.118   6.933
 4150POPC   C4A54126   1.171  40.283   7.332
 4150POPC   C1B54127   1.281  39.768   6.271
 4150POPC   C2B54128   1.151  39.680   6.701
 4150POPC   C3B54129   1.396  39.644   7.097
 4150POPC   C4B54130   1.367  39.851   7.503
 4151POPC   NC354131  36.456  12.244   5.658
 4151POPC   PO454132  35.850  12.074   5.453
 4151POPC   GL154133  35.968  12.195   5.822
 4151POPC   GL254134  35.780  12.504   5.883
 4151POPC   C1A54135  36.190  11.982   6.177
 4151POPC   D2A54136  36.392  11.842   6.545
 4151POPC   C3A54137  36.088  11.809   6.840
 4151POPC   C4A54138  36.172  12.030   7.168
 4151POPC   C1B54139  35.956  12.417   6.268
 4151POPC   C2B54140  36.120  12.279   6.632
 4151POPC   C3B54141  35.946  12.425   6.982
 4151POPC   C4B54142  35.885  12.367   7.414
 4152POPC   NC354143   3.022   1.990   5.408
 4152POPC   PO454144   2.425   2.299   5.216
 4152POPC   GL154145   2.604   2.205   5.674
 4152POPC   GL254146   2.368   1.981   5.880
 4152POPC   C1A54147   2.807   2.123   6.122
 4152POPC   D2A54148   2.689   2.067   6.593
 4152POPC   C3A54149   2.960   1.870   6.935
 4152POPC   C4A54150   2.922   1.834   7.373
 4152POPC   C1B54151   2.513   1.687   6.217
 4152POPC   C2B54152   2.346   1.666   6.631
 4152POPC   C3B54153   2.468   1.817   7.026
 4152POPC   C4B54154   2.398   1.661   7.396
 4153POPC   NC354155  23.620  22.770   5.163
 4153POPC   PO454156  24.001  23.328   5.192
 4153POPC   GL154157  23.886  22.973   5.591
 4153POPC   GL254158  23.496  22.955   5.700
 4153POPC   C1A54159  23.846  22.830   6.066
 4153POPC   D2A54160  23.971  22.699   6.508
 4153POPC   C3A54161  23.824  22.779   6.940
 4153POPC   C4A54162  24.050  22.813   7.313
 4153POPC   C1B54163  23.357  23.002   6.174
 4153POPC   C2B54164  23.458  22.988   6.651
 4153POPC   C3B54165  23.357  22.939   7.138
 4153POPC   C4B54166  23.293  23.080   7.606
 4154POPC   NC354167  43.530  12.721   5.459
 4154POPC   PO454168  44.189  12.849   5.421
 4154POPC   GL154169  43.943  12.666   5.764
 4154POPC   GL254170  43.813  12.967   5.815
 4154POPC   C1A54171  43.790  12.547   6.199
 4154POPC   D2A54172  43.848  12.770   6.586
 4154POPC   C3A54173  43.659  12.607   6.950
 4154POPC   C4A54174  43.860  12.482   7.299
 4154POPC   C1B54175  43.620  13.042   6.160
 4154POPC   C2B54176  43.539  13.201   6.531
 4154POPC   C3B54177  43.621  13.117   6.938
 4154POPC   C4B54178  44.001  12.955   7.148
 4155POPC   NC354179   4.106  44.879   5.394
 4155POPC   PO454180   4.603  44.500   5.424
 4155POPC   GL154181   4.550  44.457   5.830
 4155POPC   GL254182   4.220  44.603   5.822
 4155POPC   C1A54183   4.478  44.490   6.258
 4155POPC   D2A54184   4.467  44.809   6.575
 4155POPC   C3A54185   4.582  44.679   6.974
 4155POPC   C4A54186   4.438  44.716   7.393
 4155POPC   C1B54187   4.107  44.862   6.179
 4155POPC   C2B54188   3.917  44.825   6.613
 4155POPC   C3B54189   4.022  44.819   7.080
 4155POPC   C4B54190   3.952  44.659   7.552
 4156POPC   NC354191   3.950   8.857   5.348
 4156POPC   PO454192   4.474   9.219   5.164
 4156POPC   GL154193   4.191   9.204   5.657
 4156POPC   GL254194   4.171   8.856   5.814
 4156POPC   C1A54195   4.385   9.200   6.139
 4156POPC   D2A54196   4.507   9.028   6.590
 4156POPC   C3A54197   4.303   8.979   7.010
 4156POPC   C4A54198   4.352   9.121   7.452
 4156POPC   C1B54199   4.170   8.768   6.260
 4156POPC   C2B54200   3.968   8.851   6.649
 4156POPC   C3B54201   3.893   8.688   7.078
 4156POPC   C4B54202   4.110   8.676   7.506
 4157POPC   NC354203  12.260  38.916   5.437
 4157POPC   PO454204  11.953  38.369   5.438
 4157POPC   GL154205  11.812  38.458   5.845
 4157POPC   GL254206  12.094  38.683   5.853
 4157POPC   C1A54207  11.981  38.423   6.272
 4157POPC   D2A54208  12.196  38.247   6.612
 4157POPC   C3A54209  12.025  38.478   6.921
 4157POPC   C4A54210  11.670  38.340   7.219
 4157POPC   C1B54211  12.470  38.769   6.099
 4157POPC   C2B54212  12.326  38.761   6.505
 4157POPC   C3B54213  12.453  38.849   6.894
 4157POPC   C4B54214  12.289  38.731   7.272
 4158POPC   NC354215  38.959  41.150   5.564
 4158POPC   PO454216  39.389  40.646   5.397
 4158POPC   GL154217  39.323  40.597   5.811
 4158POPC   GL254218  38.978  40.590   5.787
 4158POPC   C1A54219  39.325  40.828   6.200
 4158POPC   D2A54220  39.471  41.043   6.562
 4158POPC   C3A54221  39.411  40.845   6.959
 4158POPC   C4A54222  39.565  41.115   7.262
 4158POPC   C1B54223  38.816  40.785   6.180
 4158POPC   C2B54224  38.992  40.799   6.603
 4158POPC   C3B54225  38.890  40.941   7.006
 4158POPC   C4B54226  39.031  40.721   7.339
 4159POPC   NC354227  41.037  20.267   5.472
 4159POPC   PO454228  40.444  20.524   5.193
 4159POPC   GL154229  40.550  20.723   5.643
 4159POPC   GL254230  40.933  20.663   5.780
 4159POPC   C1A54231  40.571  20.681   6.125
 4159POPC   D2A54232  40.889  20.671   6.457
 4159POPC   C3A54233  40.718  20.791   6.840
 4159POPC   C4A54234  40.636  20.590   7.221
 4159POPC   C1B54235  41.133  20.375   6.126
 4159POPC   C2B54236  41.230  20.265   6.568
 4159POPC   C3B54237  41.073  20.438   6.977
 4159POPC   C4B54238  41.030  20.365   7.447
 4160POPC   NC354239  32.703  23.800   5.602
 4160POPC   PO454240  32.885  23.223   5.343
 4160POPC   GL154241  33.058  23.478   5.758
 4160POPC   GL254242  33.406  23.676   5.762
 4160POPC   C1A54243  33.095  23.645   6.171
 4160POPC   D2A54244  32.861  23.805   6.486
 4160POPC   C3A54245  33.000  23.634   6.828
 4160POPC   C4A54246  33.020  23.670   7.226
 4160POPC   C1B54247  33.490  23.973   6.102
 4160POPC   C2B54248  33.353  23.955   6.557
 4160POPC   C3B54249  33.412  23.954   7.024
 4160POPC   C4B54250  33.337  23.996   7.479
 4161POPC   NC354251  18.608  11.480   5.444
 4161POPC   PO454252  18.176  11.024   5.553
 4161POPC   GL154253  18.426  11.166   5.897
 4161POPC   GL254254  18.514  11.530   5.928
 4161POPC   C1A54255  18.200  11.237   6.265
 4161POPC   D2A54256  17.947  11.508   6.468
 4161POPC   C3A54257  17.946  11.394   6.876
 4161POPC   C4A54258  18.112  11.522   7.242
 4161POPC   C1B54259  18.635  11.461   6.324
 4161POPC   C2B54260  18.431  11.430   6.720
 4161POPC   C3B54261  18.594  11.566   7.102
 4161POPC   C4B54262  18.534  11.293   7.460
 4162POPC   NC354263  42.866  30.978   5.567
 4162POPC   PO454264  42.727  30.370   5.249
 4162POPC   GL154265  42.947  30.489   5.701
 4162POPC   GL254266  42.763  30.608   5.914
 4162POPC   C1A54267  43.207  30.651   6.117
 4162POPC   D2A54268  43.388  30.713   6.527
 4162POPC   C3A54269  43.177  30.602   6.902
 4162POPC   C4A54270  43.317  30.604   7.311
 4162POPC   C1B54271  42.699  30.513   6.306
 4162POPC   C2B54272  42.884  30.836   6.514
 4162POPC   C3B54273  42.919  31.029   6.883
 4162POPC   C4B54274  42.880  30.853   7.258
 4163POPC   NC354275   8.394  17.160   5.547
 4163POPC   PO454276   8.279  16.475   5.556
 4163POPC   GL154277   8.171  16.466   5.967
 4163POPC   GL254278   8.062  16.810   5.930
 4163POPC   C1A54279   8.210  16.556   6.395
 4163POPC   D2A54280   8.098  16.881   6.687
 4163POPC   C3A54281   8.146  16.665   7.080
 4163POPC   C4A54282   8.332  16.491   7.490
 4163POPC   C1B54283   8.385  16.995   6.180
 4163POPC   C2B54284   8.630  16.887   6.518
 4163POPC   C3B54285   8.539  16.999   6.909
 4163POPC   C4B54286   8.458  16.985   7.336
 4164POPC   NC354287  35.340  31.293   5.545
 4164POPC   PO454288  35.539  31.880   5.558
 4164POPC   GL154289  35.219  31.655   5.897
 4164POPC   GL254290  35.079  31.257   5.952
 4164POPC   C1A54291  35.286  31.800   6.330
 4164POPC   D2A54292  35.522  31.941   6.682
 4164POPC   C3A54293  35.606  31.641   7.009
 4164POPC   C4A54294  35.269  31.733   7.296
 4164POPC   C1B54295  35.221  31.283   6.341
 4164POPC   C2B54296  35.213  31.455   6.723
 4164POPC   C3B54297  35.311  31.223   7.032
 4164POPC   C4B54298  35.199  30.857   7.176
 4165POPC   NC354299  21.750   5.464   5.073
 4165POPC   PO454300  21.341   5.834   5.449
 4165POPC   GL154301  21.170   5.738   5.801
 4165POPC   GL254302  21.154   5.421   5.775
 4165POPC   C1A54303  21.320   5.890   6.172
 4165POPC   D2A54304  21.505   5.883   6.533
 4165POPC   C3A54305  21.382   6.095   6.858
 4165POPC   C4A54306  21.639   5.960   7.186
 4165POPC   C1B54307  21.343   5.396   6.188
 4165POPC   C2B54308  21.175   5.498   6.584
 4165POPC   C3B54309  21.301   5.576   6.991
 4165POPC   C4B54310  21.484   5.502   7.372
 4166POPC   NC354311  29.961  24.141   5.594
 4166POPC   PO454312  29.669  24.720   5.407
 4166POPC   GL154313  29.763  24.527   5.870
 4166POPC   GL254314  29.671  24.143   5.994
 4166POPC   C1A54315  29.855  24.479   6.338
 4166POPC   D2A54316  30.099  24.658   6.682
 4166POPC   C3A54317  29.896  24.460   7.011
 4166POPC   C4A54318  29.661  24.215   7.307
 4166POPC   C1B54319  30.112  24.063   6.217
 4166POPC   C2B54320  30.305  24.167   6.616
 4166POPC   C3B54321  30.176  24.039   7.035
 4166POPC   C4B54322  30.172  24.250   7.406
 4167POPC   NC354323  38.181  44.820   5.407
 4167POPC   PO454324  38.817  44.964   5.165
 4167POPC   GL154325  38.713  44.594   5.570
 4167POPC   GL254326  38.378  44.634   5.818
 4167POPC   C1A54327  38.784  44.468   6.034
 4167POPC   D2A54328  38.691  44.617   6.490
 4167POPC   C3A54329  38.585  44.491   6.932
 4167POPC   C4A54330  38.585  44.605   7.391
 4167POPC   C1B54331  38.340  44.872   6.219
 4167POPC   C2B54332  38.154  44.727   6.583
 4167POPC   C3B54333  38.158  44.761   7.020
 4167POPC   C4B54334  37.868   0.025   7.168
 4168POPC   NC354335  16.060  39.837   5.445
 4168POPC   PO454336  15.630  40.302   5.343
 4168POPC   GL154337  15.775  40.158   5.739
 4168POPC   GL254338  16.152  40.195   5.829
 4168POPC   C1A54339  15.799  39.944   6.128
 4168POPC   D2A54340  16.074  40.096   6.421
 4168POPC   C3A54341  15.994  40.008   6.828
 4168POPC   C4A54342  15.950  40.108   7.264
 4168POPC   C1B54343  16.289  39.796   6.064
 4168POPC   C2B54344  16.307  39.599   6.436
 4168POPC   C3B54345  16.250  39.567   6.857
 4168POPC   C4B54346  16.326  39.798   7.213
 4169POPC   NC354347  22.595  25.073   5.558
 4169POPC   PO454348  23.165  25.463   5.356
 4169POPC   GL154349  23.015  25.331   5.762
 4169POPC   GL254350  22.695  25.495   5.833
 4169POPC   C1A54351  22.998  25.386   6.227
 4169POPC   D2A54352  22.866  25.196   6.640
 4169POPC   C3A54353  23.058  25.386   7.029
 4169POPC   C4A54354  23.169  25.360   7.493
 4169POPC   C1B54355  22.494  25.353   6.252
 4169POPC   C2B54356  22.350  25.202   6.696
 4169POPC   C3B54357  22.588  25.135   7.099
 4169POPC   C4B54358  22.654  25.104   7.584
 4170POPC   NC354359  14.990  37.578   5.119
 4170POPC   PO454360  14.293  37.605   5.160
 4170POPC   GL154361  14.425  37.673   5.662
 4170POPC   GL254362  14.462  37.356   5.876
 4170POPC   C1A54363  14.332  37.791   6.102
 4170POPC   D2A54364  14.207  37.688   6.536
 4170POPC   C3A54365  14.384  37.797   6.947
 4170POPC   C4A54366  14.228  37.724   7.384
 4170POPC   C1B54367  14.339  37.262   6.276
 4170POPC   C2B54368  14.232  37.200   6.689
 4170POPC   C3B54369  14.360  37.308   7.105
 4170POPC   C4B54370  14.494  37.312   7.552
 4171POPC   NC354371  12.868  17.824   5.383
 4171POPC   PO454372  12.600  17.183   5.489
 4171POPC   GL154373  12.717  17.408   5.848
 4171POPC   GL254374  12.603  17.732   5.822
 4171POPC   C1A54375  12.866  17.255   6.262
 4171POPC   D2A54376  12.998  17.054   6.612
 4171POPC   C3A54377  13.031  17.270   6.989
 4171POPC   C4A54378  12.906  17.402   7.407
 4171POPC   C1B54379  12.924  17.750   6.188
 4171POPC   C2B54380  13.143  17.592   6.599
 4171POPC   C3B54381  13.102  17.766   7.026
 4171POPC   C4B54382  12.687  17.771   7.125
 4172POPC   NC354383  44.064   8.926   5.383
 4172POPC   PO454384  43.582   9.377   5.524
 4172POPC   GL154385  43.870   9.150   5.796
 4172POPC   GL254386  43.778   8.855   5.802
 4172POPC   C1A54387  44.107   9.028   6.169
 4172POPC   D2A54388  44.085   9.240   6.585
 4172POPC   C3A54389  44.042   9.058   6.981
 4172POPC   C4A54390  44.044   9.201   7.425
 4172POPC   C1B54391  43.631   8.752   6.162
 4172POPC   C2B54392  43.792   8.787   6.557
 4172POPC   C3B54393  43.595   8.815   6.929
 4172POPC   C4B54394  43.744   8.792   7.321
 4173POPC   NC354395  19.054  16.475   5.238
 4173POPC   PO454396  19.155  15.891   5.245
 4173POPC   GL154397  19.273  15.909   5.695
 4173POPC   GL254398  18.970  15.846   5.885
 4173POPC   C1A54399  19.389  15.961   6.178
 4173POPC   D2A54400  19.253  16.012   6.621
 4173POPC   C3A54401  19.307  15.761   6.995
 4173POPC   C4A54402  19.362  15.937   7.419
 4173POPC   C1B54403  18.902  15.757   6.344
 4173POPC   C2B54404  18.819  15.768   6.817
 4173POPC   C3B54405  18.618  16.006   7.164
 4173POPC   C4B54406  18.479  15.839   7.575
 4174POPC   NC354407  25.642   1.158   5.452
 4174POPC   PO454408  26.102   0.772   5.147
 4174POPC   GL154409  26.036   0.988   5.673
 4174POPC   GL254410  26.093   1.326   5.784
 4174POPC   C1A54411  25.840   0.994   6.085
 4174POPC   D2A54412  25.883   1.094   6.526
 4174POPC   C3A54413  25.806   1.010   6.981
 4174POPC   C4A54414  26.157   0.889   7.262
 4174POPC   C1B54415  26.292   1.317   6.230
 4174POPC   C2B54416  26.220   1.459   6.663
 4174POPC   C3B54417  26.178   1.374   7.095
 4174POPC   C4B54418  26.443   1.420   7.468
 4175POPC   NC354419  29.478  24.231   5.306
 4175POPC   PO454420  28.819  24.551   5.373
 4175POPC   GL154421  28.951  24.343   5.690
 4175POPC   GL254422  29.276  24.436   5.727
 4175POPC   C1A54423  28.874  24.365   6.109
 4175POPC   D2A54424  28.886  24.604   6.476
 4175POPC   C3A54425  28.930  24.385   6.853
 4175POPC   C4A54426  28.932  24.626   7.218
 4175POPC   C1B54427  29.348  24.551   6.165
 4175POPC   C2B54428  29.387  24.362   6.570
 4175POPC   C3B54429  29.392  24.534   6.993
 4175POPC   C4B54430  29.418  24.659   7.421
 4176POPC   NC354431  35.971  20.183   5.341
 4176POPC   PO454432  36.095  19.464   5.407
 4176POPC   GL154433  36.054  19.803   5.723
 4176POPC   GL254434  36.340  20.031   5.774
 4176POPC   C1A54435  36.231  19.763   6.200
 4176POPC   D2A54436  36.255  19.718   6.686
 4176POPC   C3A54437  36.011  19.857   7.088
 4176POPC   C4A54438  35.794  19.606   7.441
 4176POPC   C1B54439  36.347  20.248   6.211
 4176POPC   C2B54440  36.324  20.237   6.694
 4176POPC   C3B54441  36.469  20.067   7.079
 4176POPC   C4B54442  36.516  20.065   7.544
 4177POPC   NC354443  22.800   3.208   5.518
 4177POPC   PO454444  22.957   3.792   5.395
 4177POPC   GL154445  23.192   3.728   5.798
 4177POPC   GL254446  23.256   3.358   5.774
 4177POPC   C1A54447  23.066   3.799   6.268
 4177POPC   D2A54448  22.719   3.857   6.612
 4177POPC   C3A54449  22.712   3.754   7.100
 4177POPC   C4A54450  22.643   3.386   7.408
 4177POPC   C1B54451  23.038   3.289   6.126
 4177POPC   C2B54452  23.172   3.351   6.503
 4177POPC   C3B54453  23.013   3.463   6.831
 4177POPC   C4B54454  23.133   3.461   7.227
 4178POPC   NC354455  31.379   8.810   5.418
 4178POPC   PO454456  32.024   8.846   5.443
 4178POPC   GL154457  31.657   8.761   5.830
 4178POPC   GL254458  31.521   8.463   6.012
 4178POPC   C1A54459  31.415   8.950   6.209
 4178POPC   D2A54460  31.437   9.223   6.595
 4178POPC   C3A54461  31.398   9.054   7.016
 4178POPC   C4A54462  31.674   8.892   7.317
 4178POPC   C1B54463  31.825   8.672   6.343
 4178POPC   C2B54464  31.852   8.779   6.813
 4178POPC   C3B54465  32.015   8.549   7.191
 4178POPC   C4B54466  32.021   8.655   7.645
 4179POPC   NC354467  30.918  40.012   5.395
 4179POPC   PO454468  30.349  40.270   5.548
 4179POPC   GL154469  30.635  40.059   5.838
 4179POPC   GL254470  30.689  39.704   5.748
 4179POPC   C1A54471  30.777  40.042   6.279
 4179POPC   D2A54472  31.103  40.265   6.521
 4179POPC   C3A54473  30.923  40.288   6.932
 4179POPC   C4A54474  30.526  40.181   7.114
 4179POPC   C1B54475  30.427  39.672   6.121
 4179POPC   C2B54476  30.570  39.617   6.540
 4179POPC   C3B54477  30.794  39.766   6.900
 4179POPC   C4B54478  30.534  39.695   7.241
 4180POPC   NC354479   5.938  31.603   5.407
 4180POPC   PO454480   5.507  31.070   5.468
 4180POPC   GL154481   5.749  31.334   5.791
 4180POPC   GL254482   5.714  31.705   5.846
 4180POPC   C1A54483   6.017  31.403   6.146
 4180POPC   D2A54484   5.827  31.386   6.564
 4180POPC   C3A54485   5.952  31.192   6.926
 4180POPC   C4A54486   5.683  31.027   7.240
 4180POPC   C1B54487   5.552  31.671   6.241
 4180POPC   C2B54488   5.557  31.812   6.677
 4180POPC   C3B54489   5.783  31.682   7.054
 4180POPC   C4B54490   6.188  31.591   7.248
 4181POPC   NC354491  21.216  44.664   5.458
 4181POPC   PO454492  21.694   0.041   5.565
 4181POPC   GL154493  21.493  44.764   5.873
 4181POPC   GL254494  21.574  44.416   5.768
 4181POPC   C1A54495  21.283  44.776   6.287
 4181POPC   D2A54496  21.303  44.527   6.675
 4181POPC   C3A54497  21.355  44.673   7.092
 4181POPC   C4A54498  20.981  44.878   7.283
 4181POPC   C1B54499  21.576  44.360   6.227
 4181POPC   C2B54500  21.810  44.408   6.651
 4181POPC   C3B54501  21.825  44.401   7.105
 4181POPC   C4B54502  21.581  44.318   7.480
 4182POPC   NC354503   2.613   9.964   5.464
 4182POPC   PO454504   2.950   9.296   5.419
 4182POPC   GL154505   2.800   9.579   5.771
 4182POPC   GL254506   2.771   9.919   5.929
 4182POPC   C1A54507   2.538   9.546   6.156
 4182POPC   D2A54508   2.453   9.517   6.593
 4182POPC   C3A54509   2.660   9.724   6.910
 4182POPC   C4A54510   2.804   9.530   7.262
 4182POPC   C1B54511   2.485  10.084   6.227
 4182POPC   C2B54512   2.277  10.076   6.638
 4182POPC   C3B54513   2.350  10.101   7.062
 4182POPC   C4B54514   2.617  10.018   7.380
 4183POPC   NC354515  40.141  22.549   5.537
 4183POPC   PO454516  39.873  21.848   5.389
 4183POPC   GL154517  39.779  22.119   5.717
 4183POPC   GL254518  40.094  22.197   5.908
 4183POPC   C1A54519  39.652  22.152   6.143
 4183POPC   D2A54520  39.915  22.160   6.503
 4183POPC   C3A54521  39.817  22.104   6.931
 4183POPC   C4A54522  39.465  22.323   7.114
 4183POPC   C1B54523  40.169  22.524   6.233
 4183POPC   C2B54524  40.317  22.433   6.665
 4183POPC   C3B54525  40.404  22.627   7.054
 4183POPC   C4B54526  40.211  22.457   7.429
 4184POPC   NC354527  19.054  44.034   5.348
 4184POPC   PO454528  18.594  44.432   5.619
 4184POPC   GL154529  18.870  44.063   5.828
 4184POPC   GL254530  18.980  43.698   5.728
 4184POPC   C1A54531  19.252  43.971   6.101
 4184POPC   D2A54532  19.452  44.073   6.523
 4184POPC   C3A54533  19.286  43.959   6.924
 4184POPC   C4A54534  19.013  44.190   7.199
 4184POPC   C1B54535  18.945  43.551   6.154
 4184POPC   C2B54536  19.000  43.766   6.522
 4184POPC   C3B54537  18.793  43.854   6.882
 4184POPC   C4B54538  18.889  43.709   7.290
 4185POPC   NC354539  23.980  42.799   5.464
 4185POPC   PO454540  23.548  43.323   5.328
 4185POPC   GL154541  23.636  43.084   5.741
 4185POPC   GL254542  23.643  42.794   5.863
 4185POPC   C1A54543  23.472  43.102   6.229
 4185POPC   D2A54544  23.472  43.223   6.692
 4185POPC   C3A54545  23.811  43.168   6.981
 4185POPC   C4A54546  23.797  43.067   7.406
 4185POPC   C1B54547  23.773  42.661   6.276
 4185POPC   C2B54548  23.886  42.710   6.726
 4185POPC   C3B54549  23.988  42.677   7.167
 4185POPC   C4B54550  23.873  42.603   7.631
 4186POPC   NC354551  44.688   7.568   5.395
 4186POPC   PO454552  44.834   7.001   5.092
 4186POPC   GL154553  44.772   7.056   5.632
 4186POPC   GL254554  44.659   7.369   5.855
 4186POPC   C1A54555  45.000   7.070   6.075
 4186POPC   D2A54556  44.967   7.189   6.520
 4186POPC   C3A54557  44.714   7.416   6.807
 4186POPC   C4A54558  44.808   7.317   7.231
 4186POPC   C1B54559  44.870   7.615   6.213
 4186POPC   C2B54560  44.896   7.878   6.623
 4186POPC   C3B54561  44.895   7.820   7.106
 4186POPC   C4B54562  44.995   7.677   7.544
 4187POPC   NC354563  38.822  43.078   5.531
 4187POPC   PO454564  39.452  42.998   5.404
 4187POPC   GL154565  39.330  43.261   5.745
 4187POPC   GL254566  39.210  42.961   5.854
 4187POPC   C1A54567  39.109  43.354   6.151
 4187POPC   D2A54568  39.176  43.135   6.537
 4187POPC   C3A54569  39.159  43.331   6.955
 4187POPC   C4A54570  39.260  43.205   7.383
 4187POPC   C1B54571  38.967  42.808   6.143
 4187POPC   C2B54572  38.893  42.718   6.553
 4187POPC   C3B54573  38.805  42.951   6.915
 4187POPC   C4B54574  38.933  42.765   7.292
 4188POPC   NC354575  38.111  36.375   5.534
 4188POPC   PO454576  38.571  35.956   5.337
 4188POPC   GL154577  38.345  35.950   5.739
 4188POPC   GL254578  38.557  36.217   5.823
 4188POPC   C1A54579  38.414  35.907   6.220
 4188POPC   D2A54580  38.254  36.150   6.572
 4188POPC   C3A54581  38.350  36.030   6.989
 4188POPC   C4A54582  38.110  36.198   7.300
 4188POPC   C1B54583  38.351  36.456   6.149
 4188POPC   C2B54584  38.412  36.655   6.533
 4188POPC   C3B54585  38.325  36.542   6.926
 4188POPC   C4B54586  38.570  36.442   7.270
 4189POPC   NC354587  16.238   3.782   5.358
 4189POPC   PO454588  15.741   3.399   5.399
 4189POPC   GL154589  15.968   3.598   5.760
 4189POPC   GL254590  16.315   3.474   5.747
 4189POPC   C1A54591  15.902   3.689   6.213
 4189POPC   D2A54592  15.718   3.472   6.593
 4189POPC   C3A54593  15.803   3.670   6.998
 4189POPC   C4A54594  16.083   3.749   7.335
 4189POPC   C1B54595  16.280   3.346   6.147
 4189POPC   C2B54596  16.206   3.306   6.560
 4189POPC   C3B54597  16.299   3.543   6.915
 4189POPC   C4B54598  16.525   3.508   7.292
 4190POPC   NC354599  13.959  23.000   5.443
 4190POPC   PO454600  13.309  22.941   5.433
 4190POPC   GL154601  13.428  22.759   5.826
 4190POPC   GL254602  13.497  23.048   6.015
 4190POPC   C1A54603  13.653  22.586   6.146
 4190POPC   D2A54604  13.539  22.767   6.541
 4190POPC   C3A54605  13.675  22.648   6.950
 4190POPC   C4A54606  13.636  22.785   7.364
 4190POPC   C1B54607  13.906  23.009   6.257
 4190POPC   C2B54608  13.983  22.999   6.716
 4190POPC   C3B54609  13.941  23.141   7.151
 4190POPC   C4B54610  13.927  23.452   7.490
 4191POPC   NC354611  44.949   3.665   5.457
 4191POPC   PO454612  44.464   3.199   5.293
 4191POPC   GL154613  44.558   3.396   5.685
 4191POPC   GL254614  44.882   3.312   5.848
 4191POPC   C1A54615  44.420   3.456   6.122
 4191POPC   D2A54616  44.509   3.650   6.520
 4191POPC   C3A54617  44.413   3.459   6.917
 4191POPC   C4A54618  44.468   3.490   7.354
 4191POPC   C1B54619  44.918   3.436   6.286
 4191POPC   C2B54620  44.791   3.199   6.671
 4191POPC   C3B54621  44.869   3.279   7.110
 4191POPC   C4B54622  44.916   3.733   7.150
 4192POPC   NC354623  44.835  26.407   5.439
 4192POPC   PO454624  44.781  25.771   5.464
 4192POPC   GL154625  44.563  25.902   5.821
 4192POPC   GL254626  44.515  26.259   5.810
 4192POPC   C1A54627  44.723  26.036   6.230
 4192POPC   D2A54628  44.991  26.211   6.514
 4192POPC   C3A54629  44.895  25.996   6.869
 4192POPC   C4A54630  44.761  26.148   7.241
 4192POPC   C1B54631  44.366  26.417   6.220
 4192POPC   C2B54632  44.489  26.329   6.638
 4192POPC   C3B54633  44.319  26.456   7.034
 4192POPC   C4B54634  44.291  26.345   7.466
 4193POPC   NC354635   3.917  27.947   5.540
 4193POPC   PO454636   3.799  27.285   5.546
 4193POPC   GL154637   3.577  27.545   5.890
 4193POPC   GL254638   3.451  27.883   5.772
 4193POPC   C1A54639   3.368  27.592   6.338
 4193POPC   D2A54640   3.280  27.638   6.829
 4193POPC   C3A54641   3.510  27.355   7.126
 4193POPC   C4A54642   3.761  27.258   7.506
 4193POPC   C1B54643   3.654  28.019   6.167
 4193POPC   C2B54644   3.616  27.963   6.597
 4193POPC   C3B54645   3.805  27.886   6.981
 4193POPC   C4B54646   3.740  27.761   7.377
 4194POPC   NC354647   6.870   2.169   5.425
 4194POPC   PO454648   6.789   1.522   5.593
 4194POPC   GL154649   6.582   1.855   5.760
 4194POPC   GL254650   6.858   2.024   5.929
 4194POPC   C1A54651   6.377   2.019   6.140
 4194POPC   D2A54652   6.477   2.132   6.576
 4194POPC   C3A54653   6.410   1.946   7.003
 4194POPC   C4A54654   6.710   2.040   7.336
 4194POPC   C1B54655   6.737   1.669   6.235
 4194POPC   C2B54656   6.667   1.652   6.667
 4194POPC   C3B54657   6.951   1.753   6.962
 4194POPC   C4B54658   7.175   1.777   7.324
 4195POPC   NC354659  17.411  38.655   5.384
 4195POPC   PO454660  17.547  37.987   5.546
 4195POPC   GL154661  17.426  38.347   5.830
 4195POPC   GL254662  17.161  38.626   5.831
 4195POPC   C1A54663  17.379  38.396   6.285
 4195POPC   D2A54664  17.587  38.248   6.684
 4195POPC   C3A54665  17.477  38.511   7.055
 4195POPC   C4A54666  17.511  38.556   7.527
 4195POPC   C1B54667  17.497  38.854   6.060
 4195POPC   C2B54668  17.686  39.044   6.438
 4195POPC   C3B54669  17.617  39.008   6.878
 4195POPC   C4B54670  17.321  38.960   7.207
 4196POPC   NC354671  31.503  43.406   5.175
 4196POPC   PO454672  31.735  42.782   5.434
 4196POPC   GL154673  31.593  43.144   5.665
 4196POPC   GL254674  31.289  42.983   5.773
 4196POPC   C1A54675  31.595  43.302   6.104
 4196POPC   D2A54676  31.695  43.128   6.512
 4196POPC   C3A54677  31.492  43.216   6.909
 4196POPC   C4A54678  31.588  43.319   7.345
 4196POPC   C1B54679  31.092  43.315   6.061
 4196POPC   C2B54680  31.039  43.357   6.498
 4196POPC   C3B54681  30.966  43.186   6.897
 4196POPC   C4B54682  31.147  43.080   7.299
 4197POPC   NC354683  14.711   3.042   5.423
 4197POPC   PO454684  14.393   2.404   5.492
 4197POPC   GL154685  14.509   2.675   5.776
 4197POPC   GL254686  14.154   2.592   5.894
 4197POPC   C1A54687  14.741   2.686   6.162
 4197POPC   D2A54688  14.858   2.733   6.589
 4197POPC   C3A54689  14.499   2.629   6.860
 4197POPC   C4A54690  14.503   2.660   7.278
 4197POPC   C1B54691  14.115   2.767   6.285
 4197POPC   C2B54692  13.991   2.807   6.705
 4197POPC   C3B54693  14.017   2.823   7.147
 4197POPC   C4B54694  14.046   2.688   7.587
 4198POPC   NC354695  43.609   9.842   5.540
 4198POPC   PO454696  44.202   9.406   5.470
 4198POPC   GL154697  44.011   9.635   5.841
 4198POPC   GL254698  43.678   9.608   5.974
 4198POPC   C1A54699  44.057   9.889   6.210
 4198POPC   D2A54700  43.881   9.861   6.644
 4198POPC   C3A54701  43.967   9.579   6.983
 4198POPC   C4A54702  44.117   9.697   7.379
 4198POPC   C1B54703  43.548   9.931   6.254
 4198POPC   C2B54704  43.378   9.786   6.641
 4198POPC   C3B54705  43.508   9.809   7.037
 4198POPC   C4B54706  43.404  10.206   7.210
 4199POPC   NC354707   0.402  24.104   5.393
 4199POPC   PO454708   0.476  23.576   5.264
 4199POPC   GL154709   0.519  23.639   5.708
 4199POPC   GL254710   0.677  23.944   5.785
 4199POPC   C1A54711   0.621  23.569   6.148
 4199POPC   D2A54712   0.430  23.633   6.544
 4199POPC   C3A54713   0.687  23.596   6.895
 4199POPC   C4A54714   0.505  23.641   7.283
 4199POPC   C1B54715   0.306  23.972   6.088
 4199POPC   C2B54716   0.271  24.113   6.528
 4199POPC   C3B54717   0.207  24.000   7.016
 4199POPC   C4B54718   0.326  24.031   7.525
 4200POPC   NC354719  19.217  27.098   5.420
 4200POPC   PO454720  19.070  26.459   5.328
 4200POPC   GL154721  19.138  26.694   5.759
 4200POPC   GL254722  19.360  27.026   5.921
 4200POPC   C1A54723  18.880  26.952   6.033
 4200POPC   D2A54724  18.783  27.064   6.481
 4200POPC   C3A54725  19.037  26.951   6.821
 4200POPC   C4A54726  18.906  26.954   7.252
 4200POPC   C1B54727  19.286  26.824   6.348
 4200POPC   C2B54728  19.302  26.487   6.701
 4200POPC   C3B54729  19.266  26.593   7.109
 4200POPC   C4B54730  19.451  26.974   7.165
 4201POPC   NC354731  27.482  26.435   5.331
 4201POPC   PO454732  27.942  25.916   5.406
 4201POPC   GL154733  27.789  26.214   5.710
 4201POPC   GL254734  28.036  26.366   5.903
 4201POPC   C1A54735  27.483  26.216   6.051
 4201POPC   D2A54736  27.508  26.281   6.498
 4201POPC   C3A54737  27.497  26.102   6.937
 4201POPC   C4A54738  27.374  25.840   7.313
 4201POPC   C1B54739  28.012  26.229   6.309
 4201POPC   C2B54740  27.958  26.299   6.739
 4201POPC   C3B54741  28.039  26.069   7.088
 4201POPC   C4B54742  27.804  26.308   7.302
 4202POPC   NC354743  14.136   2.743   5.370
 4202POPC   PO454744  13.492   2.876   5.392
 4202POPC   GL154745  13.639   2.692   5.740
 4202POPC   GL254746  13.773   2.965   5.918
 4202POPC   C1A54747  13.678   2.407   6.066
 4202POPC   D2A54748  13.787   2.350   6.499
 4202POPC   C3A54749  13.563   2.567   6.858
 4202POPC   C4A54750  13.709   2.443   7.274
 4202POPC   C1B54751  13.585   2.841   6.324
 4202POPC   C2B54752  13.377   3.027   6.673
 4202POPC   C3B54753  13.305   2.977   7.089
 4202POPC   C4B54754  13.598   2.940   7.452
 4203POPC   NC354755  28.299  40.185   5.441
 4203POPC   PO454756  27.850  39.780   5.161
 4203POPC   GL154757  28.052  39.787   5.695
 4203POPC   GL254758  28.145  40.125   5.904
 4203POPC   C1A54759  28.327  39.735   6.139
 4203POPC   D2A54760  28.568  39.997   6.492
 4203POPC   C3A54761  28.534  40.135   6.949
 4203POPC   C4A54762  28.547  39.917   7.369
 4203POPC   C1B54763  28.162  40.322   6.320
 4203POPC   C2B54764  27.959  40.216   6.718
 4203POPC   C3B54765  28.075  40.007   7.113
 4203POPC   C4B54766  28.086  39.864   7.575
 4204POPC   NC354767  38.375  19.855   5.391
 4204POPC   PO454768  38.477  19.315   5.643
 4204POPC   GL154769  38.586  19.712   5.864
 4204POPC   GL254770  38.627  20.103   5.788
 4204POPC   C1A54771  38.468  19.683   6.292
 4204POPC   D2A54772  38.298  19.662   6.692
 4204POPC   C3A54773  38.549  19.690   7.034
 4204POPC   C4A54774  38.357  19.927   7.376
 4204POPC   C1B54775  38.512  20.182   6.228
 4204POPC   C2B54776  38.696  20.022   6.623
 4204POPC   C3B54777  38.676  20.182   7.051
 4204POPC   C4B54778  38.752  20.244   7.482
 4205POPC   NC354779   2.946  12.439   5.287
 4205POPC   PO454780   2.709  13.089   5.404
 4205POPC   GL154781   2.760  12.933   5.786
 4205POPC   GL254782   2.586  12.627   5.649
 4205POPC   C1A54783   2.715  12.987   6.251
 4205POPC   D2A54784   2.441  13.027   6.631
 4205POPC   C3A54785   2.660  13.140   7.025
 4205POPC   C4A54786   3.108  13.115   7.155
 4205POPC   C1B54787   2.700  12.517   6.066
 4205POPC   C2B54788   3.014  12.517   6.439
 4205POPC   C3B54789   3.000  12.671   6.888
 4205POPC   C4B54790   2.572  12.636   7.074
 4206POPC   NC354791  21.211  41.661   5.582
 4206POPC   PO454792  21.790  41.378   5.472
 4206POPC   GL154793  21.711  41.507   5.868
 4206POPC   GL254794  21.475  41.234   5.867
 4206POPC   C1A54795  21.684  41.629   6.309
 4206POPC   D2A54796  21.489  41.748   6.703
 4206POPC   C3A54797  21.721  41.648   7.072
 4206POPC   C4A54798  21.452  41.695   7.414
 4206POPC   C1B54799  21.651  41.121   6.263
 4206POPC   C2B54800  21.522  41.218   6.712
 4206POPC   C3B54801  21.211  41.422   7.015
 4206POPC   C4B54802  21.072  41.334   7.432
 4207POPC   NC354803   2.199  33.484   5.422
 4207POPC   PO454804   1.855  32.922   5.425
 4207POPC   GL154805   1.820  32.906   5.875
 4207POPC   GL254806   1.479  32.907   5.998
 4207POPC   C1A54807   1.840  32.713   6.317
 4207POPC   D2A54808   1.709  32.690   6.774
 4207POPC   C3A54809   2.037  32.822   7.062
 4207POPC   C4A54810   2.248  33.084   7.418
 4207POPC   C1B54811   1.530  33.092   6.449
 4207POPC   C2B54812   1.846  33.193   6.767
 4207POPC   C3B54813   1.800  33.238   7.224
 4207POPC   C4B54814   1.532  33.247   7.576
 4208POPC   NC354815   1.429   8.971   5.417
 4208POPC   PO454816   0.797   9.044   5.661
 4208POPC   GL154817   1.160   8.952   5.867
 4208POPC   GL254818   1.503   9.181   5.855
 4208POPC   C1A54819   1.105   8.646   6.195
 4208POPC   D2A54820   1.213   8.514   6.613
 4208POPC   C3A54821   0.997   8.831   6.852
 4208POPC   C4A54822   1.078   8.987   7.259
 4208POPC   C1B54823   1.572   8.892   6.157
 4208POPC   C2B54824   1.375   8.990   6.517
 4208POPC   C3B54825   1.476   9.023   6.928
 4208POPC   C4B54826   1.578   8.957   7.348
 4209POPC   NC354827  44.245  12.324   5.536
 4209POPC   PO454828  43.591  12.280   5.597
 4209POPC   GL154829  43.869  12.145   5.886
 4209POPC   GL254830  44.019  11.817   5.872
 4209POPC   C1A54831  43.780  12.015   6.317
 4209POPC   D2A54832  43.908  12.242   6.671
 4209POPC   C3A54833  43.693  12.103   7.008
 4209POPC   C4A54834  43.687  12.009   7.404
 4209POPC   C1B54835  44.261  12.099   6.191
 4209POPC   C2B54836  44.340  11.974   6.617
 4209POPC   C3B54837  44.180  11.933   7.046
 4209POPC   C4B54838  44.342  11.708   7.434
 4210POPC   NC354839  11.008  31.963   5.575
 4210POPC   PO454840  11.147  32.620   5.572
 4210POPC   GL154841  11.462  32.491   5.871
 4210POPC   GL254842  11.384  32.170   5.850
 4210POPC   C1A54843  11.634  32.315   6.267
 4210POPC   D2A54844  11.561  32.497   6.640
 4210POPC   C3A54845  11.750  32.208   6.888
 4210POPC   C4A54846  11.497  32.207   7.208
 4210POPC   C1B54847  11.141  32.349   6.254
 4210POPC   C2B54848  10.916  32.262   6.637
 4210POPC   C3B54849  11.008  32.242   7.050
 4210POPC   C4B54850  11.220  32.619   7.092
 4211POPC   NC354851  32.149  43.648   5.540
 4211POPC   PO454852  32.518  43.105   5.497
 4211POPC   GL154853  32.182  43.199   5.778
 4211POPC   GL254854  32.440  43.390   5.938
 4211POPC   C1A54855  31.996  42.971   6.109
 4211POPC   D2A54856  32.187  43.003   6.481
 4211POPC   C3A54857  31.978  42.921   6.877
 4211POPC   C4A54858  32.108  43.022   7.253
 4211POPC   C1B54859  32.572  43.000   6.123
 4211POPC   C2B54860  32.662  42.818   6.506
 4211POPC   C3B54861  32.514  42.930   6.898
 4211POPC   C4B54862  32.583  42.843   7.310
 4212POPC   NC354863  10.115  35.363   5.429
 4212POPC   PO454864   9.508  35.547   5.554
 4212POPC   GL154865   9.805  35.386   5.844
 4212POPC   GL254866   9.680  35.090   5.989
 4212POPC   C1A54867  10.022  35.470   6.237
 4212POPC   D2A54868  10.223  35.474   6.652
 4212POPC   C3A54869   9.893  35.507   6.977
 4212POPC   C4A54870   9.730  35.543   7.396
 4212POPC   C1B54871   9.723  34.860   6.407
 4212POPC   C2B54872   9.578  34.779   6.870
 4212POPC   C3B54873   9.703  35.059   7.258
 4212POPC   C4B54874   9.743  35.170   7.761
 4213POPC   NC354875  29.233  42.810   5.626
 4213POPC   PO454876  28.687  43.158   5.418
 4213POPC   GL154877  28.942  43.220   5.776
 4213POPC   GL254878  29.323  43.292   5.746
 4213POPC   C1A54879  28.898  43.072   6.203
 4213POPC   D2A54880  29.047  43.246   6.583
 4213POPC   C3A54881  28.833  43.047   6.929
 4213POPC   C4A54882  28.729  43.183   7.362
 4213POPC   C1B54883  29.401  43.113   6.170
 4213POPC   C2B54884  29.552  43.106   6.582
 4213POPC   C3B54885  29.373  43.136   6.975
 4213POPC   C4B54886  29.582  42.931   7.271
 4214POPC   NC354887   2.408  11.629   5.520
 4214POPC   PO454888   1.860  11.173   5.301
 4214POPC   GL154889   1.845  11.138   5.732
 4214POPC   GL254890   2.005  11.439   5.763
 4214POPC   C1A54891   1.911  10.963   6.150
 4214POPC   D2A54892   2.124  10.980   6.553
 4214POPC   C3A54893   1.856  11.140   6.846
 4214POPC   C4A54894   1.957  11.199   7.237
 4214POPC   C1B54895   1.797  11.547   6.127
 4214POPC   C2B54896   1.944  11.529   6.533
 4214POPC   C3B54897   1.867  11.640   6.968
 4214POPC   C4B54898   1.677  11.616   7.373
 4215POPC   NC354899  41.605   3.116   5.498
 4215POPC   PO454900  41.078   2.703   5.418
 4215POPC   GL154901  41.376   2.702   5.761
 4215POPC   GL254902  41.708   2.616   5.696
 4215POPC   C1A54903  41.367   2.830   6.189
 4215POPC   D2A54904  41.317   2.993   6.578
 4215POPC   C3A54905  41.372   2.809   6.978
 4215POPC   C4A54906  41.705   2.822   7.268
 4215POPC   C1B54907  41.799   2.554   6.161
 4215POPC   C2B54908  41.772   2.687   6.623
 4215POPC   C3B54909  41.715   2.396   7.000
 4215POPC   C4B54910  41.693   2.341   7.488
 4216POPC   NC354911  38.594  43.916   5.417
 4216POPC   PO454912  37.900  43.827   5.567
 4216POPC   GL154913  38.274  43.821   5.837
 4216POPC   GL254914  38.445  44.128   5.849
 4216POPC   C1A54915  38.477  43.686   6.214
 4216POPC   D2A54916  38.353  43.715   6.642
 4216POPC   C3A54917  38.525  43.937   7.005
 4216POPC   C4A54918  38.661  43.765   7.405
 4216POPC   C1B54919  38.314  44.315   6.240
 4216POPC   C2B54920  38.230  44.223   6.673
 4216POPC   C3B54921  38.142  44.247   7.118
 4216POPC   C4B54922  38.354  44.156   7.500
 4217POPC   NC354923  20.848  22.359   5.443
 4217POPC   PO454924  20.580  21.734   5.432
 4217POPC   GL154925  20.731  21.961   5.828
 4217POPC   GL254926  20.528  22.292   5.896
 4217POPC   C1A54927  20.699  22.024   6.304
 4217POPC   D2A54928  20.665  22.273   6.676
 4217POPC   C3A54929  20.674  21.990   7.031
 4217POPC   C4A54930  20.710  22.144   7.480
 4217POPC   C1B54931  20.235  22.211   6.284
 4217POPC   C2B54932  20.191  22.075   6.735
 4217POPC   C3B54933  20.281  22.267   7.150
 4217POPC   C4B54934  20.203  22.252   7.592
 4218POPC   NC354935  36.175   0.984   5.367
 4218POPC   PO454936  35.930   1.636   5.355
 4218POPC   GL154937  36.062   1.392   5.710
 4218POPC   GL254938  35.828   1.087   5.746
 4218POPC   C1A54939  36.198   1.180   6.098
 4218POPC   D2A54940  36.245   0.895   6.447
 4218POPC   C3A54941  36.248   1.062   6.858
 4218POPC   C4A54942  36.277   0.882   7.245
 4218POPC   C1B54943  35.767   0.899   6.185
 4218POPC   C2B54944  35.761   1.033   6.640
 4218POPC   C3B54945  35.776   0.996   7.104
 4218POPC   C4B54946  35.959   1.285   7.403
 4219POPC   NC354947   4.242  28.824   5.560
 4219POPC   PO454948   4.709  29.079   5.168
 4219POPC   GL154949   4.425  29.286   5.609
 4219POPC   GL254950   4.046  29.238   5.774
 4219POPC   C1A54951   4.437  29.202   6.090
 4219POPC   D2A54952   4.602  28.926   6.408
 4219POPC   C3A54953   4.504  29.050   6.832
 4219POPC   C4A54954   4.325  29.077   7.230
 4219POPC   C1B54955   3.921  29.224   6.201
 4219POPC   C2B54956   4.146  29.325   6.576
 4219POPC   C3B54957   3.968  29.313   6.971
 4219POPC   C4B54958   3.785  29.275   7.384
 4220POPC   NC354959  13.053  24.138   5.528
 4220POPC   PO454960  12.481  24.437   5.484
 4220POPC   GL154961  12.744  24.479   5.801
 4220POPC   GL254962  12.562  24.750   5.880
 4220POPC   C1A54963  12.696  24.395   6.232
 4220POPC   D2A54964  12.785  24.582   6.622
 4220POPC   C3A54965  13.083  24.517   6.882
 4220POPC   C4A54966  13.019  24.290   7.233
 4220POPC   C1B54967  12.710  24.904   6.249
 4220POPC   C2B54968  12.599  25.055   6.658
 4220POPC   C3B54969  12.721  24.870   7.065
 4220POPC   C4B54970  12.545  24.592   7.360
 4221POPC   NC354971  17.070  44.964   5.478
 4221POPC   PO454972  17.423   0.645   5.507
 4221POPC   GL154973  17.574   0.496   5.903
 4221POPC   GL254974  17.614   0.189   5.792
 4221POPC   C1A54975  17.805   0.551   6.300
 4221POPC   D2A54976  17.922   0.806   6.656
 4221POPC   C3A54977  17.921   0.538   6.993
 4221POPC   C4A54978  17.566   0.412   7.195
 4221POPC   C1B54979  17.345   0.101   6.142
 4221POPC   C2B54980  17.170   0.025   6.547
 4221POPC   C3B54981  17.169   0.174   6.971
 4221POPC   C4B54982  17.243   0.101   7.418
 4222POPC   NC354983   0.583   2.336   5.482
 4222POPC   PO454984   0.605   1.710   5.540
 4222POPC   GL154985   0.278   1.835   5.782
 4222POPC   GL254986   0.212   2.197   5.883
 4222POPC   C1A54987   0.368   1.743   6.204
 4222POPC   D2A54988   0.570   1.871   6.562
 4222POPC   C3A54989   0.332   1.768   6.907
 4222POPC   C4A54990   0.317   2.037   7.242
 4222POPC   C1B54991   0.610   2.203   6.119
 4222POPC   C2B54992   0.793   2.364   6.489
 4222POPC   C3B54993   0.883   2.153   6.868
 4222POPC   C4B54994   0.764   2.260   7.280
 4223POPC   NC354995  17.475   4.952   5.520
 4223POPC   PO454996  17.940   5.526   5.485
 4223POPC   GL154997  17.775   5.323   5.877
 4223POPC   GL254998  17.410   5.258   5.969
 4223POPC   C1A54999  17.797   5.042   6.215
 4223POPC   D2A55000  17.507   4.977   6.515
 4223POPC   C3A55001  17.743   5.022   6.883
 4223POPC   C4A55002  17.621   5.260   7.213
 4223POPC   C1B55003  17.108   4.944   6.151
 4223POPC   C2B55004  16.970   4.885   6.573
 4223POPC   C3B55005  17.198   5.064   6.918
 4223POPC   C4B55006  17.181   4.974   7.321
 4224POPC   NC355007  29.036  20.517   5.135
 4224POPC   PO455008  28.617  20.454   5.607
 4224POPC   GL155009  28.965  20.613   5.754
 4224POPC   GL255010  29.218  20.442   5.729
 4224POPC   C1A55011  29.114  20.702   6.157
 4224POPC   D2A55012  29.049  20.457   6.531
 4224POPC   C3A55013  29.151  20.687   6.876
 4224POPC   C4A55014  29.356  20.688   7.242
 4224POPC   C1B55015  29.317  20.233   6.133
 4224POPC   C2B55016  29.560  20.368   6.512
 4224POPC   C3B55017  29.547  20.313   6.946
 4224POPC   C4B55018  29.734  20.387   7.360
 4225POPC   NC355019  41.647  37.089   5.392
 4225POPC   PO455020  41.282  36.522   5.596
 4225POPC   GL155021  41.298  36.894   5.803
 4225POPC   GL255022  41.627  36.924   5.872
 4225POPC   C1A55023  41.297  36.813   6.248
 4225POPC   D2A55024  41.606  36.779   6.562
 4225POPC   C3A55025  41.539  37.056   6.877
 4225POPC   C4A55026  41.346  37.029   7.252
 4225POPC   C1B55027  41.638  37.182   6.239
 4225POPC   C2B55028  41.960  37.169   6.552
 4225POPC   C3B55029  42.013  36.887   6.887
 4225POPC   C4B55030  41.893  37.087   7.286
 4226POPC   NC355031  44.837  22.714   5.455
 4226POPC   PO455032  44.562  23.321   5.430
 4226POPC   GL155033  44.525  23.191   5.866
 4226POPC   GL255034  44.499  22.812   5.842
 4226POPC   C1A55035  44.841  23.029   6.193
 4226POPC   D2A55036  44.887  22.786   6.602
 4226POPC   C3A55037  44.847  23.030   6.990
 4226POPC   C4A55038  44.665  23.390   7.164
 4226POPC   C1B55039  44.406  22.789   6.294
 4226POPC   C2B55040  44.225  23.111   6.567
 4226POPC   C3B55041  44.258  23.147   6.985
 4226POPC   C4B55042  44.436  22.760   7.139
 4227POPC   NC355043  13.805   6.587   5.142
 4227POPC   PO455044  13.193   6.298   5.340
 4227POPC   GL155045  13.359   6.467   5.727
 4227POPC   GL255046  13.703   6.635   5.673
 4227POPC   C1A55047  13.439   6.505   6.156
 4227POPC   D2A55048  13.772   6.507   6.442
 4227POPC   C3A55049  13.730   6.452   6.884
 4227POPC   C4A55050  13.997   6.516   7.253
 4227POPC   C1B55051  13.722   6.904   6.051
 4227POPC   C2B55052  13.543   6.970   6.491
 4227POPC   C3B55053  13.586   6.922   6.995
 4227POPC   C4B55054  13.415   6.602   7.278
 4228POPC   NC355055  27.257  20.679   5.393
 4228POPC   PO455056  27.689  20.185   5.348
 4228POPC   GL155057  27.681  20.500   5.738
 4228POPC   GL255058  27.500  20.828   5.807
 4228POPC   C1A55059  27.809  20.677   6.181
 4228POPC   D2A55060  27.543  20.743   6.573
 4228POPC   C3A55061  27.759  20.794   6.958
 4228POPC   C4A55062  27.845  20.973   7.351
 4228POPC   C1B55063  27.297  20.565   6.122
 4228POPC   C2B55064  27.273  20.315   6.495
 4228POPC   C3B55065  27.100  20.344   6.902
 4228POPC   C4B55066  27.286  20.677   7.143
 4229POPC   NC355067   3.714   7.252   5.432
 4229POPC   PO455068   3.355   7.697   5.687
 4229POPC   GL155069   3.522   7.385   5.888
 4229POPC   GL255070   3.318   7.122   5.759
 4229POPC   C1A55071   3.778   7.361   6.225
 4229POPC   D2A55072   3.773   7.110   6.566
 4229POPC   C3A55073   3.778   7.321   6.940
 4229POPC   C4A55074   3.614   7.312   7.352
 4229POPC   C1B55075   3.483   6.944   6.166
 4229POPC   C2B55076   3.357   6.817   6.578
 4229POPC   C3B55077   3.408   6.967   7.013
 4229POPC   C4B55078   3.354   6.914   7.496
 4230POPC   NC355079  34.527  41.826   5.611
 4230POPC   PO455080  34.532  42.519   5.363
 4230POPC   GL155081  34.634  42.639   5.774
 4230POPC   GL255082  34.605  42.273   5.864
 4230POPC   C1A55083  34.610  42.591   6.251
 4230POPC   D2A55084  34.796  42.373   6.602
 4230POPC   C3A55085  34.679  42.589   6.976
 4230POPC   C4A55086  34.427  42.460   7.301
 4230POPC   C1B55087  34.457  42.061   6.247
 4230POPC   C2B55088  34.308  42.133   6.649
 4230POPC   C3B55089  34.541  42.077   6.992
 4230POPC   C4B55090  34.546  41.968   7.404
 4231POPC   NC355091   4.511  40.345   5.442
 4231POPC   PO455092   4.049  39.879   5.545
 4231POPC   GL155093   4.368  39.978   5.821
 4231POPC   GL255094   4.205  40.279   5.859
 4231POPC   C1A55095   4.543  39.793   6.199
 4231POPC   D2A55096   4.361  39.682   6.635
 4231POPC   C3A55097   4.569  39.855   7.038
 4231POPC   C4A55098   4.776  40.008   7.481
 4231POPC   C1B55099   4.359  40.294   6.274
 4231POPC   C2B55100   4.437  40.467   6.674
 4231POPC   C3B55101   4.309  40.296   7.045
 4231POPC   C4B55102   4.024  40.417   7.336
 4232POPC   NC355103   5.401  20.949   5.607
 4232POPC   PO455104   4.740  20.832   5.557
 4232POPC   GL155105   5.035  20.757   5.883
 4232POPC   GL255106   4.852  20.552   6.058
 4232POPC   C1A55107   5.292  20.689   6.260
 4232POPC   D2A55108   4.992  20.594   6.571
 4232POPC   C3A55109   5.126  20.664   6.973
 4232POPC   C4A55110   4.928  20.775   7.359
 4232POPC   C1B55111   4.601  20.294   6.278
 4232POPC   C2B55112   4.585  20.303   6.698
 4232POPC   C3B55113   4.610  20.624   6.960
 4232POPC   C4B55114   4.507  20.470   7.321
 4233POPC   NC355115  18.605  10.492   5.285
 4233POPC   PO455116  17.890  10.616   5.175
 4233POPC   GL155117  18.031  10.569   5.691
 4233POPC   GL255118  18.377  10.443   5.738
 4233POPC   C1A55119  18.209  10.737   6.133
 4233POPC   D2A55120  18.489  10.704   6.493
 4233POPC   C3A55121  18.286  10.848   6.890
 4233POPC   C4A55122  18.142  10.853   7.347
 4233POPC   C1B55123  18.422  10.281   6.159
 4233POPC   C2B55124  18.463  10.083   6.551
 4233POPC   C3B55125  18.451  10.348   6.908
 4233POPC   C4B55126  18.389  10.391   7.330
 4234POPC   NC355127  11.729  40.107   5.390
 4234POPC   PO455128  12.277  39.865   5.078
 4234POPC   GL155129  12.193  39.907   5.589
 4234POPC   GL255130  11.879  39.769   5.768
 4234POPC   C1A55131  12.206  40.076   6.060
 4234POPC   D2A55132  12.330  40.297   6.497
 4234POPC   C3A55133  12.196  40.158   6.947
 4234POPC   C4A55134  12.158  39.941   7.376
 4234POPC   C1B55135  11.778  39.876   6.224
 4234POPC   C2B55136  11.699  39.937   6.666
 4234POPC   C3B55137  11.862  39.721   7.030
 4234POPC   C4B55138  11.822  39.556   7.463
 4235POPC   NC355139   5.189   0.693   5.444
 4235POPC   PO455140   4.589   0.351   5.371
 4235POPC   GL155141   4.907   0.335   5.731
 4235POPC   GL255142   5.116   0.018   5.842
 4235POPC   C1A55143   5.067   0.430   6.136
 4235POPC   D2A55144   5.008   0.726   6.482
 4235POPC   C3A55145   5.116   0.618   6.880
 4235POPC   C4A55146   4.904   0.480   7.235
 4235POPC   C1B55147   5.425   0.082   6.198
 4235POPC   C2B55148   5.356   0.303   6.574
 4235POPC   C3B55149   5.139   0.086   6.939
 4235POPC   C4B55150   4.921  44.907   7.288
 4236POPC   NC355151   9.267  33.992   5.509
 4236POPC   PO455152   8.647  33.848   5.370
 4236POPC   GL155153   8.798  33.878   5.796
 4236POPC   GL255154   9.022  33.605   5.748
 4236POPC   C1A55155   8.951  33.902   6.239
 4236POPC   D2A55156   8.795  33.890   6.663
 4236POPC   C3A55157   9.028  34.000   7.053
 4236POPC   C4A55158   9.299  34.023   7.429
 4236POPC   C1B55159   8.855  33.428   6.102
 4236POPC   C2B55160   9.013  33.399   6.506
 4236POPC   C3B55161   8.910  33.463   6.920
 4236POPC   C4B55162   9.089  33.550   7.289
 4237POPC   NC355163  40.227  25.145   5.387
 4237POPC   PO455164  40.158  25.801   5.627
 4237POPC   GL155165  39.985  25.396   5.843
 4237POPC   GL255166  40.254  25.166   5.935
 4237POPC   C1A55167  39.757  25.018   6.089
 4237POPC   D2A55168  39.600  24.847   6.527
 4237POPC   C3A55169  39.840  24.918   6.923
 4237POPC   C4A55170  39.808  25.283   7.210
 4237POPC   C1B55171  40.259  25.564   6.245
 4237POPC   C2B55172  40.303  25.720   6.688
 4237POPC   C3B55173  40.272  25.564   7.126
 4237POPC   C4B55174  40.275  25.096   7.235
 4238POPC   NC355175  36.520  40.553   5.539
 4238POPC   PO455176  37.144  40.545   5.224
 4238POPC   GL155177  37.004  40.630   5.746
 4238POPC   GL255178  36.720  40.880   5.856
 4238POPC   C1A55179  37.110  40.927   6.158
 4238POPC   D2A55180  37.303  40.914   6.578
 4238POPC   C3A55181  37.081  40.939   6.982
 4238POPC   C4A55182  37.140  40.765   7.384
 4238POPC   C1B55183  36.729  40.585   6.224
 4238POPC   C2B55184  36.864  40.598   6.665
 4238POPC   C3B55185  36.673  40.656   7.093
 4238POPC   C4B55186  36.689  40.583   7.593
 4239POPC   NC355187  26.756  19.383   5.431
 4239POPC   PO455188  27.007  19.968   5.464
 4239POPC   GL155189  27.003  19.664   5.827
 4239POPC   GL255190  26.648  19.636   5.883
 4239POPC   C1A55191  26.913  19.629   6.309
 4239POPC   D2A55192  27.034  19.901   6.642
 4239POPC   C3A55193  26.845  19.949   7.082
 4239POPC   C4A55194  26.932  20.020   7.571
 4239POPC   C1B55195  26.495  19.921   6.210
 4239POPC   C2B55196  26.535  19.844   6.647
 4239POPC   C3B55197  26.313  19.877   7.016
 4239POPC   C4B55198  26.453  19.979   7.405
 4240POPC   NC355199  28.474  19.624   5.307
 4240POPC   PO455200  28.311  18.869   5.387
 4240POPC   GL155201  28.202  19.087   5.799
 4240POPC   GL255202  28.376  19.429   5.782
 4240POPC   C1A55203  28.297  19.110   6.278
 4240POPC   D2A55204  28.652  19.300   6.529
 4240POPC   C3A55205  28.641  19.290   6.991
 4240POPC   C4A55206  28.382  18.940   7.166
 4240POPC   C1B55207  28.409  19.617   6.200
 4240POPC   C2B55208  28.326  19.660   6.647
 4240POPC   C3B55209  28.150  19.302   6.877
 4240POPC   C4B55210  27.978  19.320   7.319
 4241POPC   NC355211  11.602  42.900   5.263
 4241POPC   PO455212  10.984  42.827   5.579
 4241POPC   GL155213  11.257  43.082   5.815
 4241POPC   GL255214  11.524  42.880   5.777
 4241POPC   C1A55215  11.246  43.328   6.190
 4241POPC   D2A55216  11.260  43.126   6.599
 4241POPC   C3A55217  11.098  43.320   6.996
 4241POPC   C4A55218  11.316  43.532   7.338
 4241POPC   C1B55219  11.605  42.971   6.211
 4241POPC   C2B55220  11.757  43.015   6.609
 4241POPC   C3B55221  11.592  43.235   6.953
 4241POPC   C4B55222  11.327  42.906   7.151
 4242POPC   NC355223   0.943  18.104   5.270
 4242POPC   PO455224   1.455  18.520   5.379
 4242POPC   GL155225   1.305  18.227   5.721
 4242POPC   GL255226   0.954  18.249   5.757
 4242POPC   C1A55227   1.385  18.164   6.181
 4242POPC   D2A55228   1.434  18.411   6.573
 4242POPC   C3A55229   1.427  18.213   6.985
 4242POPC   C4A55230   1.352  18.512   7.310
 4242POPC   C1B55231   0.878  18.105   6.156
 4242POPC   C2B55232   0.948  18.207   6.579
 4242POPC   C3B55233   0.942  18.332   7.005
 4242POPC   C4B55234   0.884  18.274   7.438
 4243POPC   NC355235  44.833  30.823   5.389
 4243POPC   PO455236  44.330  30.309   5.404
 4243POPC   GL155237  44.477  30.611   5.755
 4243POPC   GL255238  44.814  30.598   5.843
 4243POPC   C1A55239  44.564  30.867   6.188
 4243POPC   D2A55240  44.786  30.896   6.641
 4243POPC   C3A55241  44.583  30.857   7.085
 4243POPC   C4A55242  44.536  30.710   7.552
 4243POPC   C1B55243   0.055  30.694   6.243
 4243POPC   C2B55244   0.271  30.611   6.645
 4243POPC   C3B55245   0.052  30.652   7.025
 4243POPC   C4B55246  44.980  30.873   7.413
 4244POPC   NC355247  40.130  13.069   5.435
 4244POPC   PO455248  39.829  12.578   5.153
 4244POPC   GL155249  39.937  12.623   5.636
 4244POPC   GL255250  39.666  12.812   5.763
 4244POPC   C1A55251  40.084  12.843   6.085
 4244POPC   D2A55252  40.347  12.800   6.519
 4244POPC   C3A55253  40.298  12.769   6.988
 4244POPC   C4A55254  40.044  13.032   7.247
 4244POPC   C1B55255  39.551  12.666   6.190
 4244POPC   C2B55256  39.451  12.688   6.641
 4244POPC   C3B55257  39.760  12.687   6.989
 4244POPC   C4B55258  39.754  12.630   7.446
 4245POPC   NC355259  11.193  44.250   5.526
 4245POPC   PO455260  11.477  43.612   5.533
 4245POPC   GL155261  11.331  43.856   5.851
 4245POPC   GL255262  11.588  44.124   5.856
 4245POPC   C1A55263  11.131  43.813   6.246
 4245POPC   D2A55264  11.344  43.643   6.600
 4245POPC   C3A55265  11.087  43.822   6.875
 4245POPC   C4A55266  10.857  43.741   7.176
 4245POPC   C1B55267  11.568  44.055   6.285
 4245POPC   C2B55268  11.425  44.157   6.666
 4245POPC   C3B55269  11.507  44.038   7.077
 4245POPC   C4B55270  11.140  44.132   7.312
 4246POPC   NC355271  20.215   3.747   5.786
 4246POPC   PO455272  19.806   3.303   5.427
 4246POPC   GL155273  19.698   3.591   5.778
 4246POPC   GL255274  19.424   3.417   5.928
 4246POPC   C1A55275  19.733   3.778   6.225
 4246POPC   D2A55276  20.083   3.665   6.525
 4246POPC   C3A55277  20.000   3.735   6.959
 4246POPC   C4A55278  20.240   3.780   7.351
 4246POPC   C1B55279  19.675   3.293   6.277
 4246POPC   C2B55280  19.608   3.495   6.661
 4246POPC   C3B55281  19.603   3.340   7.043
 4246POPC   C4B55282  19.878   3.425   7.359
 4247POPC   NC355283  21.754   0.963   5.450
 4247POPC   PO455284  22.342   1.331   5.161
 4247POPC   GL155285  22.232   1.164   5.606
 4247POPC   GL255286  21.941   1.373   5.736
 4247POPC   C1A55287  22.342   1.261   6.065
 4247POPC   D2A55288  22.538   1.239   6.477
 4247POPC   C3A55289  22.249   1.206   6.820
 4247POPC   C4A55290  22.294   1.042   7.240
 4247POPC   C1B55291  22.070   1.698   6.057
 4247POPC   C2B55292  21.979   1.579   6.478
 4247POPC   C3B55293  21.946   1.704   6.902
 4247POPC   C4B55294  22.183   1.547   7.211
 4248POPC   NC355295  42.648   2.877   5.748
 4248POPC   PO455296  42.048   2.939   5.474
 4248POPC   GL155297  42.150   2.815   5.884
 4248POPC   GL255298  42.350   2.526   5.936
 4248POPC   C1A55299  42.235   2.818   6.328
 4248POPC   D2A55300  42.527   2.790   6.647
 4248POPC   C3A55301  42.236   2.722   6.932
 4248POPC   C4A55302  42.124   2.556   7.275
 4248POPC   C1B55303  42.593   2.417   6.295
 4248POPC   C2B55304  42.641   2.296   6.736
 4248POPC   C3B55305  42.593   2.406   7.172
 4248POPC   C4B55306  42.697   2.456   7.613
 4249POPC   NC355307  28.623  21.927   5.518
 4249POPC   PO455308  28.010  21.877   5.460
 4249POPC   GL155309  28.230  21.801   5.831
 4249POPC   GL255310  28.293  22.164   5.902
 4249POPC   C1A55311  28.514  21.795   6.177
 4249POPC   D2A55312  28.524  22.021   6.546
 4249POPC   C3A55313  28.507  21.817   6.940
 4249POPC   C4A55314  28.472  21.987   7.352
 4249POPC   C1B55315  28.489  22.478   6.203
 4249POPC   C2B55316  28.656  22.509   6.633
 4249POPC   C3B55317  28.406  22.351   6.992
 4249POPC   C4B55318  28.411  22.469   7.448
 4250POPC   NC355319  42.913   1.469   4.978
 4250POPC   PO455320  43.200   1.409   5.549
 4250POPC   GL155321  43.025   1.281   5.928
 4250POPC   GL255322  42.719   1.464   5.859
 4250POPC   C1A55323  43.117   1.112   6.360
 4250POPC   D2A55324  43.362   1.059   6.759
 4250POPC   C3A55325  43.066   1.147   7.088
 4250POPC   C4A55326  42.792   0.790   7.236
 4250POPC   C1B55327  42.770   1.514   6.320
 4250POPC   C2B55328  42.848   1.542   6.774
 4250POPC   C3B55329  42.835   1.581   7.245
 4250POPC   C4B55330  43.077   1.697   7.661
 4251POPC   NC355331  38.963   2.112   5.241
 4251POPC   PO455332  39.344   1.647   5.617
 4251POPC   GL155333  39.162   2.041   5.770
 4251POPC   GL255334  38.793   2.109   5.752
 4251POPC   C1A55335  39.312   2.193   6.198
 4251POPC   D2A55336  39.498   1.968   6.565
 4251POPC   C3A55337  39.465   2.202   6.951
 4251POPC   C4A55338  39.421   2.066   7.382
 4251POPC   C1B55339  38.879   1.937   6.194
 4251POPC   C2B55340  38.977   2.072   6.649
 4251POPC   C3B55341  39.084   1.871   7.050
 4251POPC   C4B55342  39.064   1.681   7.469
 4252POPC   NC355343   9.373  21.384   5.390
 4252POPC   PO455344   8.824  21.087   5.392
 4252POPC   GL155345   8.809  21.231   5.809
 4252POPC   GL255346   9.121  21.424   5.821
 4252POPC   C1A55347   8.834  21.391   6.238
 4252POPC   D2A55348   8.882  21.143   6.583
 4252POPC   C3A55349   8.823  21.345   6.947
 4252POPC   C4A55350   8.969  21.260   7.353
 4252POPC   C1B55351   9.375  21.443   6.197
 4252POPC   C2B55352   9.228  21.530   6.595
 4252POPC   C3B55353   9.340  21.414   6.988
 4252POPC   C4B55354   9.301  21.647   7.336
 4253POPC   NC355355  36.347  33.810   5.417
 4253POPC   PO455356  36.996  33.811   5.466
 4253POPC   GL155357  37.000  34.008   5.911
 4253POPC   GL255358  36.709  34.207   5.922
 4253POPC   C1A55359  36.902  34.066   6.388
 4253POPC   D2A55360  36.793  34.071   6.826
 4253POPC   C3A55361  37.103  33.892   7.101
 4253POPC   C4A55362  37.093  33.547   7.426
 4253POPC   C1B55363  36.490  33.884   6.176
 4253POPC   C2B55364  36.422  33.777   6.635
 4253POPC   C3B55365  36.659  33.609   7.036
 4253POPC   C4B55366  36.725  33.202   7.269
 4254POPC   NC355367  25.959  26.104   4.970
 4254POPC   PO455368  26.424  26.060   5.427
 4254POPC   GL155369  26.330  26.270   5.822
 4254POPC   GL255370  26.012  26.155   5.828
 4254POPC   C1A55371  26.257  26.197   6.282
 4254POPC   D2A55372  26.019  25.888   6.561
 4254POPC   C3A55373  26.186  25.800   6.975
 4254POPC   C4A55374  26.464  26.147   7.167
 4254POPC   C1B55375  25.749  26.149   6.192
 4254POPC   C2B55376  25.563  26.363   6.530
 4254POPC   C3B55377  25.685  26.239   6.928
 4254POPC   C4B55378  25.958  26.174   7.233
 4255POPC   NC355379  22.443  10.804   5.503
 4255POPC   PO455380  21.975  10.298   5.462
 4255POPC   GL155381  22.032  10.562   5.792
 4255POPC   GL255382  21.730  10.772   5.888
 4255POPC   C1A55383  22.298  10.538   6.188
 4255POPC   D2A55384  22.504  10.431   6.643
 4255POPC   C3A55385  22.323  10.631   7.013
 4255POPC   C4A55386  22.193  10.521   7.426
 4255POPC   C1B55387  21.869  10.908   6.302
 4255POPC   C2B55388  22.049  10.953   6.725
 4255POPC   C3B55389  21.939  10.930   7.179
 4255POPC   C4B55390  21.898  10.881   7.635
 4256POPC   NC355391   9.057  10.090   5.496
 4256POPC   PO455392   8.635   9.546   5.241
 4256POPC   GL155393   8.710   9.653   5.717
 4256POPC   GL255394   8.688   9.309   5.822
 4256POPC   C1A55395   8.904   9.819   6.176
 4256POPC   D2A55396   9.013  10.029   6.638
 4256POPC   C3A55397   9.096   9.792   7.063
 4256POPC   C4A55398   9.040   9.951   7.500
 4256POPC   C1B55399   8.505   9.495   6.191
 4256POPC   C2B55400   8.637   9.657   6.601
 4256POPC   C3B55401   8.679   9.508   7.012
 4256POPC   C4B55402   8.621   9.689   7.399
 4257POPC   NC355403  30.858  22.545   5.547
 4257POPC   PO455404  30.508  23.161   5.375
 4257POPC   GL155405  30.632  22.946   5.783
 4257POPC   GL255406  30.409  22.676   5.850
 4257POPC   C1A55407  30.787  22.755   6.215
 4257POPC   D2A55408  30.695  22.805   6.678
 4257POPC   C3A55409  30.935  22.742   7.062
 4257POPC   C4A55410  30.913  23.008   7.421
 4257POPC   C1B55411  30.291  22.940   6.242
 4257POPC   C2B55412  30.379  23.191   6.647
 4257POPC   C3B55413  30.450  23.071   7.124
 4257POPC   C4B55414  30.457  23.230   7.570
 4258POPC   NC355415  13.735   3.256   5.470
 4258POPC   PO455416  13.477   3.885   5.311
 4258POPC   GL155417  13.645   3.713   5.743
 4258POPC   GL255418  13.932   3.495   5.880
 4258POPC   C1A55419  13.662   3.789   6.224
 4258POPC   D2A55420  13.342   3.680   6.549
 4258POPC   C3A55421  13.485   3.461   6.938
 4258POPC   C4A55422  13.357   3.425   7.354
 4258POPC   C1B55423  13.993   3.286   6.310
 4258POPC   C2B55424  13.962   3.317   6.776
 4258POPC   C3B55425  13.910   3.324   7.242
 4258POPC   C4B55426  13.978   3.187   7.709
 4259POPC   NC355427  15.394   2.429   5.338
 4259POPC   PO455428  15.102   1.837   5.371
 4259POPC   GL155429  15.241   2.015   5.745
 4259POPC   GL255430  15.056   2.331   5.762
 4259POPC   C1A55431  15.212   1.812   6.177
 4259POPC   D2A55432  14.925   1.736   6.550
 4259POPC   C3A55433  15.075   1.858   6.968
 4259POPC   C4A55434  15.480   1.753   7.153
 4259POPC   C1B55435  15.334   2.308   6.147
 4259POPC   C2B55436  15.383   2.086   6.576
 4259POPC   C3B55437  15.446   2.267   6.998
 4259POPC   C4B55438  15.245   2.155   7.393
 4260POPC   NC355439  29.716   1.029   5.412
 4260POPC   PO455440  30.229   1.438   5.338
 4260POPC   GL155441  29.998   1.513   5.735
 4260POPC   GL255442  30.032   1.167   5.809
 4260POPC   C1A55443  29.858   1.462   6.192
 4260POPC   D2A55444  30.000   1.239   6.509
 4260POPC   C3A55445  29.885   1.483   6.825
 4260POPC   C4A55446  29.862   1.339   7.190
 4260POPC   C1B55447  29.860   0.892   6.131
 4260POPC   C2B55448  29.871   0.733   6.569
 4260POPC   C3B55449  30.012   0.903   6.949
 4260POPC   C4B55450  29.899   0.845   7.374
 4261POPC   NC355451  32.802  43.491   5.533
 4261POPC   PO455452  33.201  42.916   5.432
 4261POPC   GL155453  33.261  42.945   5.878
 4261POPC   GL255454  33.063  43.253   5.914
 4261POPC   C1A55455  33.182  42.894   6.342
 4261POPC   D2A55456  33.075  42.619   6.724
 4261POPC   C3A55457  33.189  42.837   7.108
 4261POPC   C4A55458  33.031  42.877   7.528
 4261POPC   C1B55459  32.897  43.339   6.329
 4261POPC   C2B55460  32.971  43.169   6.747
 4261POPC   C3B55461  32.844  43.259   7.165
 4261POPC   C4B55462  32.492  43.356   7.425
 4262POPC   NC355463   8.074  38.625   5.370
 4262POPC   PO455464   8.633  38.585   5.725
 4262POPC   GL155465   8.347  38.299   5.882
 4262POPC   GL255466   8.031  38.306   5.833
 4262POPC   C1A55467   8.207  38.079   6.261
 4262POPC   D2A55468   8.469  38.030   6.629
 4262POPC   C3A55469   8.466  38.420   6.858
 4262POPC   C4A55470   8.135  38.378   7.127
 4262POPC   C1B55471   8.091  38.600   6.196
 4262POPC   C2B55472   8.191  38.804   6.601
 4262POPC   C3B55473   8.026  38.866   7.049
 4262POPC   C4B55474   7.819  38.644   7.420
 4263POPC   NC355475  18.469  30.253   5.332
 4263POPC   PO455476  18.288  29.692   5.470
 4263POPC   GL155477  18.360  29.974   5.803
 4263POPC   GL255478  18.710  30.020   5.774
 4263POPC   C1A55479  18.209  29.930   6.252
 4263POPC   D2A55480  18.127  29.737   6.662
 4263POPC   C3A55481  18.183  29.962   7.067
 4263POPC   C4A55482  18.061  29.733   7.441
 4263POPC   C1B55483  18.704  29.800   6.200
 4263POPC   C2B55484  18.605  29.954   6.632
 4263POPC   C3B55485  18.806  30.056   7.042
 4263POPC   C4B55486  19.027  29.940   7.455
 4264POPC   NC355487  41.296  40.178   5.302
 4264POPC   PO455488  41.633  39.736   5.083
 4264POPC   GL155489  41.575  39.882   5.622
 4264POPC   GL255490  41.460  40.202   5.783
 4264POPC   C1A55491  41.567  39.842   6.103
 4264POPC   D2A55492  41.514  40.092   6.478
 4264POPC   C3A55493  41.549  39.785   6.821
 4264POPC   C4A55494  41.615  39.670   7.239
 4264POPC   C1B55495  41.196  40.471   6.054
 4264POPC   C2B55496  40.983  40.375   6.468
 4264POPC   C3B55497  41.211  40.318   6.861
 4264POPC   C4B55498  41.499  40.167   7.217
 4265POPC   NC355499  37.352  22.631   5.437
 4265POPC   PO455500  37.500  23.335   5.363
 4265POPC   GL155501  37.484  23.045   5.734
 4265POPC   GL255502  37.770  22.907   5.900
 4265POPC   C1A55503  37.389  23.091   6.193
 4265POPC   D2A55504  37.617  23.241   6.566
 4265POPC   C3A55505  37.701  23.016   6.945
 4265POPC   C4A55506  37.904  23.033   7.360
 4265POPC   C1B55507  37.902  22.858   6.339
 4265POPC   C2B55508  38.040  22.633   6.730
 4265POPC   C3B55509  37.832  22.554   7.141
 4265POPC   C4B55510  38.012  22.588   7.592
 4266POPC   NC355511  34.655  33.173   5.441
 4266POPC   PO455512  34.759  32.505   5.533
 4266POPC   GL155513  34.615  32.815   5.876
 4266POPC   GL255514  34.293  33.045   5.820
 4266POPC   C1A55515  34.701  32.939   6.332
 4266POPC   D2A55516  34.484  32.996   6.729
 4266POPC   C3A55517  34.519  32.730   7.122
 4266POPC   C4A55518  34.659  32.773   7.567
 4266POPC   C1B55519  34.327  33.257   6.244
 4266POPC   C2B55520  34.438  33.514   6.629
 4266POPC   C3B55521  34.388  33.350   7.074
 4266POPC   C4B55522  34.554  33.276   7.504
 4267POPC   NC355523  22.388  14.222   5.394
 4267POPC   PO455524  21.823  14.326   5.478
 4267POPC   GL155525  21.972  14.478   5.899
 4267POPC   GL255526  22.332  14.573   5.814
 4267POPC   C1A55527  21.912  14.592   6.381
 4267POPC   D2A55528  21.911  14.716   6.857
 4267POPC   C3A55529  21.984  14.375   7.171
 4267POPC   C4A55530  22.066  13.917   7.318
 4267POPC   C1B55531  22.269  14.892   6.149
 4267POPC   C2B55532  22.369  14.836   6.584
 4267POPC   C3B55533  22.435  14.640   7.001
 4267POPC   C4B55534  22.313  14.762   7.402
 4268POPC   NC355535  29.148  13.050   5.440
 4268POPC   PO455536  28.994  12.414   5.390
 4268POPC   GL155537  29.192  12.616   5.783
 4268POPC   GL255538  29.331  12.967   5.907
 4268POPC   C1A55539  29.054  12.692   6.239
 4268POPC   D2A55540  29.040  12.426   6.598
 4268POPC   C3A55541  29.183  12.451   7.009
 4268POPC   C4A55542  28.905  12.536   7.357
 4268POPC   C1B55543  29.432  13.035   6.355
 4268POPC   C2B55544  29.181  12.908   6.712
 4268POPC   C3B55545  29.142  12.958   7.144
 4268POPC   C4B55546  29.467  13.149   7.358
 4269POPC   NC355547  15.073  14.153   5.465
 4269POPC   PO455548  14.881  14.786   5.381
 4269POPC   GL155549  15.090  14.573   5.779
 4269POPC   GL255550  15.412  14.343   5.827
 4269POPC   C1A55551  15.120  14.531   6.264
 4269POPC   D2A55552  15.135  14.300   6.693
 4269POPC   C3A55553  15.041  14.540   7.111
 4269POPC   C4A55554  14.753  14.489   7.483
 4269POPC   C1B55555  15.618  14.392   6.245
 4269POPC   C2B55556  15.589  14.531   6.686
 4269POPC   C3B55557  15.489  14.292   7.072
 4269POPC   C4B55558  15.490  13.895   7.261
 4270POPC   NC355559  20.467  11.875   5.323
 4270POPC   PO455560  20.349  12.398   5.682
 4270POPC   GL155561  20.462  12.066   5.919
 4270POPC   GL255562  20.675  11.798   5.793
 4270POPC   C1A55563  20.437  12.026   6.348
 4270POPC   D2A55564  20.684  11.871   6.673
 4270POPC   C3A55565  20.459  12.105   6.967
 4270POPC   C4A55566  20.304  11.887   7.321
 4270POPC   C1B55567  20.899  11.892   6.177
 4270POPC   C2B55568  21.123  12.085   6.492
 4270POPC   C3B55569  21.085  12.145   6.925
 4270POPC   C4B55570  20.830  12.108   7.286
 4271POPC   NC355571  15.739  38.803   5.511
 4271POPC   PO455572  16.015  39.410   5.581
 4271POPC   GL155573  15.903  39.134   5.866
 4271POPC   GL255574  16.195  38.972   5.806
 4271POPC   C1A55575  15.887  39.270   6.260
 4271POPC   D2A55576  15.799  39.530   6.577
 4271POPC   C3A55577  15.835  39.274   6.918
 4271POPC   C4A55578  15.920  39.505   7.267
 4271POPC   C1B55579  16.216  38.857   6.223
 4271POPC   C2B55580  16.254  39.104   6.571
 4271POPC   C3B55581  16.304  39.031   6.925
 4271POPC   C4B55582  16.082  39.020   7.294
 4272POPC   NC355583  39.262  16.421   5.502
 4272POPC   PO455584  39.486  15.786   5.406
 4272POPC   GL155585  39.214  15.923   5.757
 4272POPC   GL255586  38.923  15.702   5.775
 4272POPC   C1A55587  39.276  16.133   6.183
 4272POPC   D2A55588  39.470  16.301   6.578
 4272POPC   C3A55589  39.241  16.136   6.948
 4272POPC   C4A55590  39.059  16.140   7.379
 4272POPC   C1B55591  39.209  15.581   6.149
 4272POPC   C2B55592  39.290  15.755   6.577
 4272POPC   C3B55593  39.388  15.621   7.002
 4272POPC   C4B55594  39.153  15.615   7.388
 4273POPC   NC355595  32.660  38.013   5.328
 4273POPC   PO455596  32.964  38.642   5.414
 4273POPC   GL155597  32.987  38.478   5.842
 4273POPC   GL255598  32.949  38.126   5.768
 4273POPC   C1A55599  33.047  38.502   6.300
 4273POPC   D2A55600  33.218  38.722   6.656
 4273POPC   C3A55601  33.017  38.698   7.070
 4273POPC   C4A55602  32.944  38.340   7.342
 4273POPC   C1B55603  32.734  38.114   6.163
 4273POPC   C2B55604  32.656  38.274   6.560
 4273POPC   C3B55605  32.692  38.124   6.951
 4273POPC   C4B55606  32.447  38.128   7.302
 4274POPC   NC355607  38.091  39.818   5.360
 4274POPC   PO455608  38.810  39.888   5.393
 4274POPC   GL155609  38.690  39.956   5.786
 4274POPC   GL255610  38.360  40.006   5.732
 4274POPC   C1A55611  38.684  39.739   6.166
 4274POPC   D2A55612  38.517  39.872   6.553
 4274POPC   C3A55613  38.706  39.874   6.948
 4274POPC   C4A55614  38.595  40.055   7.360
 4274POPC   C1B55615  38.271  40.070   6.143
 4274POPC   C2B55616  38.293  40.332   6.487
 4274POPC   C3B55617  38.285  40.167   6.919
 4274POPC   C4B55618  38.177  40.341   7.304
 4275POPC   NC355619  19.133  38.946   5.584
 4275POPC   PO455620  19.179  38.286   5.466
 4275POPC   GL155621  18.868  38.387   5.742
 4275POPC   GL255622  19.166  38.446   5.958
 4275POPC   C1A55623  18.712  38.597   6.106
 4275POPC   D2A55624  18.607  38.540   6.544
 4275POPC   C3A55625  18.935  38.530   6.852
 4275POPC   C4A55626  18.879  38.527   7.267
 4275POPC   C1B55627  19.139  38.400   6.397
 4275POPC   C2B55628  19.372  38.240   6.734
 4275POPC   C3B55629  19.381  38.411   7.143
 4275POPC   C4B55630  19.283  38.835   7.229
 4276POPC   NC355631  10.890   4.595   5.200
 4276POPC   PO455632  11.488   4.316   5.436
 4276POPC   GL155633  11.418   4.254   5.857
 4276POPC   GL255634  11.060   4.302   5.797
 4276POPC   C1A55635  11.243   4.288   6.307
 4276POPC   D2A55636  11.020   4.443   6.722
 4276POPC   C3A55637  11.207   4.726   7.054
 4276POPC   C4A55638  11.416   4.606   7.484
 4276POPC   C1B55639  10.836   4.043   6.089
 4276POPC   C2B55640  10.891   3.945   6.519
 4276POPC   C3B55641  11.108   3.919   6.900
 4276POPC   C4B55642  11.243   4.237   7.166
 4277POPC   NC355643  41.196   5.421   5.524
 4277POPC   PO455644  41.844   5.772   5.484
 4277POPC   GL155645  41.627   5.788   5.898
 4277POPC   GL255646  41.272   5.853   5.855
 4277POPC   C1A55647  41.472   6.052   6.265
 4277POPC   D2A55648  41.222   6.056   6.638
 4277POPC   C3A55649  41.487   5.794   6.899
 4277POPC   C4A55650  41.635   5.952   7.297
 4277POPC   C1B55651  41.136   5.598   6.221
 4277POPC   C2B55652  40.989   5.609   6.675
 4277POPC   C3B55653  41.031   5.559   7.127
 4277POPC   C4B55654  41.143   5.567   7.578
 4278POPC   NC355655  22.325   4.045   5.246
 4278POPC   PO455656  21.738   4.403   5.520
 4278POPC   GL155657  22.055   4.178   5.692
 4278POPC   GL255658  22.196   4.467   5.856
 4278POPC   C1A55659  22.226   3.999   6.078
 4278POPC   D2A55660  22.209   3.870   6.515
 4278POPC   C3A55661  22.352   4.063   6.915
 4278POPC   C4A55662  22.614   4.337   7.187
 4278POPC   C1B55663  21.939   4.429   6.188
 4278POPC   C2B55664  22.137   4.435   6.577
 4278POPC   C3B55665  22.083   4.482   7.001
 4278POPC   C4B55666  21.793   4.259   7.258
 4279POPC   NC355667  25.804  29.354   5.654
 4279POPC   PO455668  26.124  28.849   5.354
 4279POPC   GL155669  26.028  28.927   5.760
 4279POPC   GL255670  26.316  29.174   5.720
 4279POPC   C1A55671  25.803  28.894   6.183
 4279POPC   D2A55672  26.033  28.740   6.516
 4279POPC   C3A55673  26.008  28.874   6.922
 4279POPC   C4A55674  25.800  29.099   7.213
 4279POPC   C1B55675  26.223  29.184   6.156
 4279POPC   C2B55676  26.077  29.301   6.513
 4279POPC   C3B55677  26.072  29.389   6.897
 4279POPC   C4B55678  26.336  29.222   7.219
 4280POPC   NC355679  25.236  18.914   5.548
 4280POPC   PO455680  25.609  19.493   5.497
 4280POPC   GL155681  25.428  19.326   5.865
 4280POPC   GL255682  25.087  19.434   5.960
 4280POPC   C1A55683  25.459  19.260   6.317
 4280POPC   D2A55684  25.198  19.403   6.659
 4280POPC   C3A55685  25.296  19.205   7.031
 4280POPC   C4A55686  25.271  19.171   7.452
 4280POPC   C1B55687  24.967  19.082   6.268
 4280POPC   C2B55688  25.012  18.904   6.701
 4280POPC   C3B55689  24.796  19.069   7.082
 4280POPC   C4B55690  24.790  18.973   7.518
 4281POPC   NC355691  42.665  22.637   5.363
 4281POPC   PO455692  42.129  23.109   5.390
 4281POPC   GL155693  42.399  22.934   5.690
 4281POPC   GL255694  42.138  22.923   5.946
 4281POPC   C1A55695  42.552  22.691   6.063
 4281POPC   D2A55696  42.343  22.862   6.437
 4281POPC   C3A55697  42.452  22.781   6.867
 4281POPC   C4A55698  42.373  22.610   7.265
 4281POPC   C1B55699  42.073  23.277   6.262
 4281POPC   C2B55700  42.215  23.482   6.632
 4281POPC   C3B55701  42.107  23.505   7.060
 4281POPC   C4B55702  42.140  23.071   7.181
 4282POPC   NC355703  34.161  40.252   5.429
 4282POPC   PO455704  33.580  39.837   5.517
 4282POPC   GL155705  33.616  40.004   5.899
 4282POPC   GL255706  33.959  40.059   5.860
 4282POPC   C1A55707  33.653  39.829   6.328
 4282POPC   D2A55708  33.434  39.976   6.720
 4282POPC   C3A55709  33.621  40.138   7.111
 4282POPC   C4A55710  33.576  39.963   7.560
 4282POPC   C1B55711  33.956  40.277   6.252
 4282POPC   C2B55712  33.955  40.099   6.663
 4282POPC   C3B55713  34.003  39.822   7.013
 4282POPC   C4B55714  34.071  40.102   7.395
 4283POPC   NC355715  29.930   4.197   5.395
 4283POPC   PO455716  29.548   4.707   5.450
 4283POPC   GL155717  29.481   4.437   5.820
 4283POPC   GL255718  29.795   4.287   5.892
 4283POPC   C1A55719  29.417   4.293   6.265
 4283POPC   D2A55720  29.659   4.253   6.684
 4283POPC   C3A55721  29.882   4.464   7.066
 4283POPC   C4A55722  30.242   4.653   7.343
 4283POPC   C1B55723  29.828   3.938   6.182
 4283POPC   C2B55724  29.982   3.831   6.604
 4283POPC   C3B55725  29.781   3.848   6.980
 4283POPC   C4B55726  29.659   4.088   7.327
 4284POPC   NC355727   7.880  21.877   5.270
 4284POPC   PO455728   8.502  22.033   5.435
 4284POPC   GL155729   8.183  22.268   5.736
 4284POPC   GL255730   7.976  22.582   5.664
 4284POPC   C1A55731   8.185  22.195   6.215
 4284POPC   D2A55732   8.060  21.982   6.603
 4284POPC   C3A55733   8.388  21.983   6.940
 4284POPC   C4A55734   8.221  21.799   7.292
 4284POPC   C1B55735   7.856  22.554   6.103
 4284POPC   C2B55736   7.822  22.455   6.549
 4284POPC   C3B55737   8.014  22.373   6.959
 4284POPC   C4B55738   7.785  22.213   7.320
 4285POPC   NC355739  35.105  32.039   5.577
 4285POPC   PO455740  35.662  32.538   5.502
 4285POPC   GL155741  35.462  32.334   5.842
 4285POPC   GL255742  35.108  32.417   5.931
 4285POPC   C1A55743  35.468  32.306   6.283
 4285POPC   D2A55744  35.136  32.268   6.579
 4285POPC   C3A55745  35.341  32.352   6.945
 4285POPC   C4A55746  35.626  32.106   7.187
 4285POPC   C1B55747  35.111  32.672   6.298
 4285POPC   C2B55748  35.039  32.780   6.761
 4285POPC   C3B55749  35.056  32.677   7.236
 4285POPC   C4B55750  35.135  32.250   7.397
 4286POPC   NC355751  29.063   7.758   5.225
 4286POPC   PO455752  28.753   7.136   5.238
 4286POPC   GL155753  29.000   7.383   5.603
 4286POPC   GL255754  29.009   7.768   5.734
 4286POPC   C1A55755  29.190   7.426   6.053
 4286POPC   D2A55756  29.007   7.428   6.483
 4286POPC   C3A55757  29.230   7.276   6.853
 4286POPC   C4A55758  29.080   7.279   7.267
 4286POPC   C1B55759  28.913   7.857   6.195
 4286POPC   C2B55760  29.040   7.928   6.633
 4286POPC   C3B55761  29.081   7.751   7.040
 4286POPC   C4B55762  29.462   7.624   7.239
 4287POPC   NC355763  39.466  14.447   5.306
 4287POPC   PO455764  40.123  14.350   5.268
 4287POPC   GL155765  40.002  14.407   5.724
 4287POPC   GL255766  40.002  14.775   5.811
 4287POPC   C1A55767  40.148  14.215   6.155
 4287POPC   D2A55768  40.336  14.210   6.594
 4287POPC   C3A55769  40.062  14.235   6.962
 4287POPC   C4A55770  40.309  14.172   7.321
 4287POPC   C1B55771  39.880  14.658   6.175
 4287POPC   C2B55772  39.815  14.485   6.579
 4287POPC   C3B55773  39.746  14.671   6.971
 4287POPC   C4B55774  40.022  14.739   7.263
 4288POPC   NC355775  40.581  12.211   5.360
 4288POPC   PO455776  40.958  11.671   5.272
 4288POPC   GL155777  40.786  11.816   5.686
 4288POPC   GL255778  40.841  12.176   5.798
 4288POPC   C1A55779  40.595  11.823   6.106
 4288POPC   D2A55780  40.482  12.007   6.500
 4288POPC   C3A55781  40.798  11.979   6.814
 4288POPC   C4A55782  40.724  11.919   7.227
 4288POPC   C1B55783  40.697  12.363   6.192
 4288POPC   C2B55784  40.751  12.485   6.650
 4288POPC   C3B55785  40.729  12.437   7.123
 4288POPC   C4B55786  41.003  12.534   7.543
 4289POPC   NC355787   0.611   6.230   5.409
 4289POPC   PO455788   0.211   5.670   5.445
 4289POPC   GL155789   0.522   5.804   5.734
 4289POPC   GL255790   0.590   5.474   5.851
 4289POPC   C1A55791   0.554   5.948   6.163
 4289POPC   D2A55792   0.283   6.072   6.494
 4289POPC   C3A55793   0.378   5.951   6.915
 4289POPC   C4A55794   0.716   6.168   7.120
 4289POPC   C1B55795   0.267   5.519   6.141
 4289POPC   C2B55796   0.336   5.550   6.561
 4289POPC   C3B55797   0.385   5.406   6.965
 4289POPC   C4B55798   0.605   5.329   7.368
 4290POPC   NC355799  29.021  19.055   5.519
 4290POPC   PO455800  29.606  19.367   5.456
 4290POPC   GL155801  29.261  19.366   5.864
 4290POPC   GL255802  28.850  19.275   5.960
 4290POPC   C1A55803  29.163  19.256   6.330
 4290POPC   D2A55804  29.184  19.044   6.723
 4290POPC   C3A55805  29.375  19.278   7.060
 4290POPC   C4A55806  29.487  19.110   7.450
 4290POPC   C1B55807  28.789  18.902   6.260
 4290POPC   C2B55808  28.708  18.833   6.738
 4290POPC   C3B55809  28.896  18.882   7.181
 4290POPC   C4B55810  28.742  18.914   7.630
 4291POPC   NC355811  22.623  33.149   5.318
 4291POPC   PO455812  22.196  32.615   5.373
 4291POPC   GL155813  22.196  32.782   5.800
 4291POPC   GL255814  22.206  33.139   5.775
 4291POPC   C1A55815  22.220  32.926   6.245
 4291POPC   D2A55816  22.238  33.166   6.634
 4291POPC   C3A55817  22.267  32.861   6.956
 4291POPC   C4A55818  21.997  32.632   7.215
 4291POPC   C1B55819  22.080  33.410   6.158
 4291POPC   C2B55820  21.928  33.566   6.591
 4291POPC   C3B55821  21.836  33.480   7.042
 4291POPC   C4B55822  21.822  33.107   7.328
 4292POPC   NC355823  14.549  15.113   5.442
 4292POPC   PO455824  13.920  15.046   5.473
 4292POPC   GL155825  14.157  15.130   5.845
 4292POPC   GL255826  14.282  15.459   5.859
 4292POPC   C1A55827  14.283  15.080   6.279
 4292POPC   D2A55828  14.389  15.271   6.680
 4292POPC   C3A55829  14.445  15.095   7.100
 4292POPC   C4A55830  14.532  15.327   7.521
 4292POPC   C1B55831  13.999  15.509   6.216
 4292POPC   C2B55832  13.918  15.657   6.632
 4292POPC   C3B55833  14.063  15.474   7.031
 4292POPC   C4B55834  14.057  15.213   7.396
 4293POPC   NC355835  19.438   4.470   5.278
 4293POPC   PO455836  18.855   4.081   5.458
 4293POPC   GL155837  18.881   4.078   5.899
 4293POPC   GL255838  18.999   4.382   5.910
 4293POPC   C1A55839  18.845   4.186   6.346
 4293POPC   D2A55840  19.051   4.444   6.607
 4293POPC   C3A55841  19.048   4.210   6.956
 4293POPC   C4A55842  19.132   4.405   7.309
 4293POPC   C1B55843  18.780   4.683   6.209
 4293POPC   C2B55844  18.641   4.791   6.626
 4293POPC   C3B55845  18.820   4.673   7.026
 4293POPC   C4B55846  18.732   4.655   7.512
 4294POPC   NC355847  13.977   4.088   5.279
 4294POPC   PO455848  13.656   4.665   5.448
 4294POPC   GL155849  13.813   4.547   5.846
 4294POPC   GL255850  13.673   4.224   5.796
 4294POPC   C1A55851  13.941   4.711   6.278
 4294POPC   D2A55852  13.964   4.404   6.617
 4294POPC   C3A55853  13.778   4.394   7.040
 4294POPC   C4A55854  13.381   4.572   7.054
 4294POPC   C1B55855  13.570   4.312   6.227
 4294POPC   C2B55856  13.492   4.171   6.626
 4294POPC   C3B55857  13.726   3.909   6.862
 4294POPC   C4B55858  13.514   3.890   7.233
 4295POPC   NC355859  13.277  38.307   5.281
 4295POPC   PO455860  13.870  38.224   5.416
 4295POPC   GL155861  13.525  38.262   5.741
 4295POPC   GL255862  13.388  38.626   5.676
 4295POPC   C1A55863  13.664  38.340   6.183
 4295POPC   D2A55864  13.930  38.648   6.387
 4295POPC   C3A55865  13.891  38.589   6.813
 4295POPC   C4A55866  13.923  38.707   7.217
 4295POPC   C1B55867  13.362  38.748   6.104
 4295POPC   C2B55868  13.484  38.862   6.537
 4295POPC   C3B55869  13.461  38.847   6.974
 4295POPC   C4B55870  13.484  38.429   7.131
 4296POPC   NC355871  29.401  16.384   4.963
 4296POPC   PO455872  29.179  16.014   5.371
 4296POPC   GL155873  29.156  15.821   5.807
 4296POPC   GL255874  29.445  16.012   5.920
 4296POPC   C1A55875  29.161  15.706   6.273
 4296POPC   D2A55876  29.362  15.642   6.687
 4296POPC   C3A55877  29.089  15.632   7.025
 4296POPC   C4A55878  29.005  15.939   7.276
 4296POPC   C1B55879  29.190  16.205   6.262
 4296POPC   C2B55880  29.100  16.088   6.712
 4296POPC   C3B55881  29.370  16.222   7.068
 4296POPC   C4B55882  29.326  16.420   7.481
 4297POPC   NC355883  13.647  14.682   5.424
 4297POPC   PO455884  13.722  14.070   5.563
 4297POPC   GL155885  13.663  14.427   5.879
 4297POPC   GL255886  13.934  14.659   5.861
 4297POPC   C1A55887  13.557  14.559   6.318
 4297POPC   D2A55888  13.727  14.662   6.738
 4297POPC   C3A55889  13.567  14.431   7.118
 4297POPC   C4A55890  13.319  14.099   7.339
 4297POPC   C1B55891  14.070  14.618   6.322
 4297POPC   C2B55892  14.218  14.783   6.748
 4297POPC   C3B55893  14.009  14.741   7.179
 4297POPC   C4B55894  13.830  14.825   7.605
 4298POPC   NC355895  39.634   0.242   5.445
 4298POPC   PO455896  40.301   0.416   5.454
 4298POPC   GL155897  40.190   0.447   5.869
 4298POPC   GL255898  39.845   0.558   5.850
 4298POPC   C1A55899  40.332   0.561   6.263
 4298POPC   D2A55900  40.059   0.354   6.559
 4298POPC   C3A55901  40.077   0.494   6.962
 4298POPC   C4A55902  40.338   0.304   7.246
 4298POPC   C1B55903  39.715   0.647   6.297
 4298POPC   C2B55904  39.601   0.551   6.743
 4298POPC   C3B55905  39.619   0.470   7.201
 4298POPC   C4B55906  39.654   0.448   7.687
 4299POPC   NC355907  29.511  15.468   5.350
 4299POPC   PO455908  28.832  15.269   5.486
 4299POPC   GL155909  29.120  15.057   5.743
 4299POPC   GL255910  29.107  15.299   5.970
 4299POPC   C1A55911  29.222  14.799   6.106
 4299POPC   D2A55912  29.105  14.812   6.565
 4299POPC   C3A55913  28.963  15.179   6.777
 4299POPC   C4A55914  29.123  15.141   7.184
 4299POPC   C1B55915  29.303  15.233   6.370
 4299POPC   C2B55916  29.493  15.161   6.783
 4299POPC   C3B55917  29.530  15.435   7.173
 4299POPC   C4B55918  29.235  15.492   7.531
 4300POPC   NC355919  17.315  39.359   5.315
 4300POPC   PO455920  17.869  38.954   5.313
 4300POPC   GL155921  17.695  39.184   5.689
 4300POPC   GL255922  17.322  39.248   5.800
 4300POPC   C1A55923  17.726  39.426   6.084
 4300POPC   D2A55924  17.446  39.568   6.423
 4300POPC   C3A55925  17.612  39.617   6.825
 4300POPC   C4A55926  17.632  39.404   7.209
 4300POPC   C1B55927  17.139  39.212   6.208
 4300POPC   C2B55928  17.174  39.164   6.647
 4300POPC   C3B55929  17.130  39.397   7.023
 4300POPC   C4B55930  17.158  39.365   7.476
 4301POPC   NC355931   5.625  22.301   5.003
 4301POPC   PO455932   6.066  22.041   5.487
 4301POPC   GL155933   6.029  22.291   5.811
 4301POPC   GL255934   6.299  22.123   5.959
 4301POPC   C1A55935   5.809  22.254   6.184
 4301POPC   D2A55936   5.947  22.172   6.583
 4301POPC   C3A55937   5.656  22.040   6.898
 4301POPC   C4A55938   5.761  22.000   7.340
 4301POPC   C1B55939   6.290  22.469   6.257
 4301POPC   C2B55940   6.183  22.642   6.667
 4301POPC   C3B55941   6.002  22.414   7.037
 4301POPC   C4B55942   6.097  22.339   7.492
 4302POPC   NC355943  19.765   7.002   5.391
 4302POPC   PO455944  19.823   6.388   5.093
 4302POPC   GL155945  19.760   6.484   5.567
 4302POPC   GL255946  20.112   6.449   5.642
 4302POPC   C1A55947  19.600   6.500   6.043
 4302POPC   D2A55948  19.544   6.615   6.517
 4302POPC   C3A55949  19.840   6.750   6.862
 4302POPC   C4A55950  20.148   7.054   6.992
 4302POPC   C1B55951  20.085   6.684   6.038
 4302POPC   C2B55952  20.062   6.528   6.456
 4302POPC   C3B55953  20.304   6.505   6.825
 4302POPC   C4B55954  20.210   6.456   7.241
 4303POPC   NC355955   1.863  28.316   5.531
 4303POPC   PO455956   1.672  28.893   5.678
 4303POPC   GL155957   2.038  28.585   5.917
 4303POPC   GL255958   2.082  28.197   5.965
 4303POPC   C1A55959   2.004  28.511   6.355
 4303POPC   D2A55960   1.870  28.350   6.757
 4303POPC   C3A55961   1.951  28.613   7.126
 4303POPC   C4A55962   2.081  28.592   7.565
 4303POPC   C1B55963   1.715  28.074   6.216
 4303POPC   C2B55964   1.650  27.869   6.605
 4303POPC   C3B55965   1.693  27.972   7.053
 4303POPC   C4B55966   2.004  28.116   7.349
 4304POPC   NC355967   8.788  18.301   5.026
 4304POPC   PO455968   9.287  18.309   5.296
 4304POPC   GL155969   9.105  18.225   5.727
 4304POPC   GL255970   8.809  17.998   5.757
 4304POPC   C1A55971   9.098  18.348   6.126
 4304POPC   D2A55972   8.845  18.273   6.435
 4304POPC   C3A55973   8.904  18.521   6.769
 4304POPC   C4A55974   9.106  18.491   7.139
 4304POPC   C1B55975   8.932  17.842   6.136
 4304POPC   C2B55976   8.883  17.752   6.567
 4304POPC   C3B55977   8.886  18.015   6.912
 4304POPC   C4B55978   8.781  17.917   7.310
 4305POPC   NC355979  13.031  18.409   5.380
 4305POPC   PO455980  12.452  17.996   5.393
 4305POPC   GL155981  12.736  18.225   5.739
 4305POPC   GL255982  12.771  18.601   5.782
 4305POPC   C1A55983  12.959  18.285   6.157
 4305POPC   D2A55984  13.029  18.084   6.572
 4305POPC   C3A55985  12.966  18.258   6.978
 4305POPC   C4A55986  12.732  18.221   7.345
 4305POPC   C1B55987  12.533  18.596   6.162
 4305POPC   C2B55988  12.688  18.500   6.593
 4305POPC   C3B55989  12.602  18.610   7.032
 4305POPC   C4B55990  12.299  18.483   7.364
 4306POPC   NC355991  11.061  33.076   5.449
 4306POPC   PO455992  11.756  33.286   5.365
 4306POPC   GL155993  11.516  33.150   5.740
 4306POPC   GL255994  11.186  33.245   5.918
 4306POPC   C1A55995  11.566  32.917   6.137
 4306POPC   D2A55996  11.424  33.101   6.511
 4306POPC   C3A55997  11.511  33.009   6.931
 4306POPC   C4A55998  11.274  33.156   7.268
 4306POPC   C1B55999  11.060  32.875   6.184
 4306POPC   C2B56000  11.025  32.766   6.616
 4306POPC   C3B56001  10.884  32.999   6.969
 4306POPC   C4B56002  10.868  32.864   7.394
 4307POPC   NC356003  13.776  33.265   5.431
 4307POPC   PO456004  13.241  32.788   5.404
 4307POPC   GL156005  13.469  32.988   5.751
 4307POPC   GL256006  13.441  33.324   5.823
 4307POPC   C1A56007  13.571  32.893   6.200
 4307POPC   D2A56008  13.746  32.988   6.628
 4307POPC   C3A56009  13.823  32.707   7.002
 4307POPC   C4A56010  13.635  32.906   7.373
 4307POPC   C1B56011  13.122  33.197   6.104
 4307POPC   C2B56012  13.153  33.004   6.509
 4307POPC   C3B56013  13.334  33.111   6.922
 4307POPC   C4B56014  13.298  33.477   7.193
 4308POPC   NC356015  14.949  26.383   5.221
 4308POPC   PO456016  14.350  26.322   5.121
 4308POPC   GL156017  14.406  26.249   5.597
 4308POPC   GL256018  14.087  26.168   5.807
 4308POPC   C1A56019  14.469  26.385   6.064
 4308POPC   D2A56020  14.590  26.181   6.459
 4308POPC   C3A56021  14.582  26.317   6.897
 4308POPC   C4A56022  14.611  26.160   7.340
 4308POPC   C1B56023  14.153  26.001   6.238
 4308POPC   C2B56024  14.110  26.151   6.665
 4308POPC   C3B56025  14.143  26.132   7.094
 4308POPC   C4B56026  14.149  26.391   7.413
 4309POPC   NC356027  33.309  27.136   5.631
 4309POPC   PO456028  32.908  26.759   5.265
 4309POPC   GL156029  32.898  26.779   5.719
 4309POPC   GL256030  32.573  26.736   5.800
 4309POPC   C1A56031  33.040  26.870   6.147
 4309POPC   D2A56032  33.029  26.984   6.572
 4309POPC   C3A56033  33.148  26.691   6.901
 4309POPC   C4A56034  33.253  26.989   7.183
 4309POPC   C1B56035  32.533  26.913   6.174
 4309POPC   C2B56036  32.563  26.771   6.598
 4309POPC   C3B56037  32.726  27.003   6.981
 4309POPC   C4B56038  32.836  27.124   7.432
 4310POPC   NC356039  34.708  26.784   5.360
 4310POPC   PO456040  34.158  27.130   5.475
 4310POPC   GL156041  34.386  26.888   5.758
 4310POPC   GL256042  34.391  26.518   5.808
 4310POPC   C1A56043  34.565  26.954   6.121
 4310POPC   D2A56044  34.433  26.781   6.503
 4310POPC   C3A56045  34.610  26.982   6.840
 4310POPC   C4A56046  34.763  26.861   7.218
 4310POPC   C1B56047  34.721  26.468   6.186
 4310POPC   C2B56048  34.755  26.421   6.670
 4310POPC   C3B56049  34.421  26.550   7.004
 4310POPC   C4B56050  34.414  26.560   7.483
 4311POPC   NC356051  27.034  27.884   5.514
 4311POPC   PO456052  26.558  27.645   5.106
 4311POPC   GL156053  26.651  27.519   5.601
 4311POPC   GL256054  26.967  27.370   5.760
 4311POPC   C1A56055  26.590  27.606   6.091
 4311POPC   D2A56056  26.481  27.387   6.501
 4311POPC   C3A56057  26.465  27.545   6.938
 4311POPC   C4A56058  26.786  27.550   7.254
 4311POPC   C1B56059  27.111  27.583   6.143
 4311POPC   C2B56060  26.935  27.624   6.560
 4311POPC   C3B56061  27.171  27.601   6.942
 4311POPC   C4B56062  27.265  27.708   7.350
 4312POPC   NC356063  18.372   5.264   5.443
 4312POPC   PO456064  17.896   4.790   5.619
 4312POPC   GL156065  18.191   5.042   5.854
 4312POPC   GL256066  18.485   4.864   5.840
 4312POPC   C1A56067  18.470   5.258   6.173
 4312POPC   D2A56068  18.718   5.381   6.561
 4312POPC   C3A56069  18.523   5.220   6.936
 4312POPC   C4A56070  18.130   5.244   7.162
 4312POPC   C1B56071  18.242   4.749   6.248
 4312POPC   C2B56072  17.891   4.629   6.547
 4312POPC   C3B56073  18.006   4.540   6.974
 4312POPC   C4B56074  18.338   4.759   7.129
 4313POPC   NC356075  17.756  41.940   5.335
 4313POPC   PO456076  18.283  41.499   5.166
 4313POPC   GL156077  18.322  41.623   5.646
 4313POPC   GL256078  18.045  41.853   5.780
 4313POPC   C1A56079  18.424  41.467   6.073
 4313POPC   D2A56080  18.193  41.382   6.470
 4313POPC   C3A56081  18.334  41.516   6.881
 4313POPC   C4A56082  18.527  41.544   7.312
 4313POPC   C1B56083  17.850  41.684   6.180
 4313POPC   C2B56084  17.757  41.833   6.610
 4313POPC   C3B56085  17.866  41.711   7.022
 4313POPC   C4B56086  18.046  41.350   7.273
 4314POPC   NC356087  15.882  37.044   5.146
 4314POPC   PO456088  15.839  36.741   5.737
 4314POPC   GL156089  15.974  37.083   5.843
 4314POPC   GL256090  15.830  37.294   5.635
 4314POPC   C1A56091  16.079  37.064   6.278
 4314POPC   D2A56092  15.958  36.633   6.429
 4314POPC   C3A56093  15.851  36.608   6.855
 4314POPC   C4A56094  16.113  36.839   7.147
 4314POPC   C1B56095  15.741  37.449   6.073
 4314POPC   C2B56096  15.654  37.266   6.458
 4314POPC   C3B56097  15.892  37.133   6.795
 4314POPC   C4B56098  15.790  37.202   7.234
 4315POPC   NC356099   9.844  41.195   5.468
 4315POPC   PO456100  10.000  40.614   5.445
 4315POPC   GL156101   9.735  40.766   5.817
 4315POPC   GL256102   9.797  41.066   5.941
 4315POPC   C1A56103   9.741  40.738   6.321
 4315POPC   D2A56104   9.761  40.986   6.706
 4315POPC   C3A56105   9.793  40.892   7.160
 4315POPC   C4A56106  10.056  40.672   7.413
 4315POPC   C1B56107  10.092  41.235   6.227
 4315POPC   C2B56108  10.092  41.402   6.638
 4315POPC   C3B56109  10.196  41.197   7.004
 4315POPC   C4B56110  10.079  41.224   7.428
 4316POPC   NC356111  43.270   4.251   5.333
 4316POPC   PO456112  42.753   4.105   5.747
 4316POPC   GL156113  43.094   4.358   5.792
 4316POPC   GL256114  42.893   4.615   5.672
 4316POPC   C1A56115  43.319   4.418   6.166
 4316POPC   D2A56116  43.110   4.273   6.528
 4316POPC   C3A56117  43.327   4.326   6.894
 4316POPC   C4A56118  43.182   4.013   7.205
 4316POPC   C1B56119  42.831   4.602   6.160
 4316POPC   C2B56120  42.648   4.739   6.556
 4316POPC   C3B56121  42.788   4.526   6.898
 4316POPC   C4B56122  43.016   4.527   7.235
 4317POPC   NC356123  43.796  17.104   5.339
 4317POPC   PO456124  43.188  17.493   5.360
 4317POPC   GL156125  43.282  17.452   5.730
 4317POPC   GL256126  42.923  17.524   5.820
 4317POPC   C1A56127  43.333  17.679   6.072
 4317POPC   D2A56128  43.148  17.673   6.465
 4317POPC   C3A56129  43.450  17.762   6.805
 4317POPC   C4A56130  43.402  17.672   7.250
 4317POPC   C1B56131  43.079  17.249   6.146
 4317POPC   C2B56132  42.952  17.178   6.541
 4317POPC   C3B56133  43.133  17.359   6.883
 4317POPC   C4B56134  43.131  17.179   7.270
 4318POPC   NC356135  34.732   2.026   5.584
 4318POPC   PO456136  34.144   1.838   5.651
 4318POPC   GL156137  34.266   2.072   5.965
 4318POPC   GL256138  34.513   1.824   6.047
 4318POPC   C1A56139  34.393   2.204   6.373
 4318POPC   D2A56140  34.623   2.014   6.706
 4318POPC   C3A56141  34.581   2.212   7.051
 4318POPC   C4A56142  34.304   2.351   7.344
 4318POPC   C1B56143  34.888   1.966   6.258
 4318POPC   C2B56144  35.086   1.739   6.585
 4318POPC   C3B56145  34.874   1.609   6.920
 4318POPC   C4B56146  34.636   1.731   7.260
 4319POPC   NC356147  23.047  20.534   5.364
 4319POPC   PO456148  22.422  20.577   5.564
 4319POPC   GL156149  22.783  20.544   5.825
 4319POPC   GL256150  23.144  20.679   5.841
 4319POPC   C1A56151  22.911  20.393   6.222
 4319POPC   D2A56152  22.903  20.576   6.613
 4319POPC   C3A56153  22.900  20.354   6.974
 4319POPC   C4A56154  22.901  20.550   7.385
 4319POPC   C1B56155  23.248  20.790   6.266
 4319POPC   C2B56156  23.363  20.745   6.701
 4319POPC   C3B56157  23.098  20.896   7.035
 4319POPC   C4B56158  23.269  21.003   7.412
 4320POPC   NC356159  42.440  24.214   5.431
 4320POPC   PO456160  42.548  24.856   5.370
 4320POPC   GL156161  42.464  24.643   5.768
 4320POPC   GL256162  42.236  24.341   5.882
 4320POPC   C1A56163  42.550  24.635   6.191
 4320POPC   D2A56164  42.300  24.449   6.496
 4320POPC   C3A56165  42.301  24.724   6.854
 4320POPC   C4A56166  42.352  24.833   7.275
 4320POPC   C1B56167  42.629  24.157   6.070
 4320POPC   C2B56168  42.839  24.234   6.465
 4320POPC   C3B56169  42.649  24.343   6.859
 4320POPC   C4B56170  42.440  24.340   7.235
 4321POPC   NC356171   2.221   3.443   5.484
 4321POPC   PO456172   1.572   3.545   5.533
 4321POPC   GL156173   1.841   3.492   5.859
 4321POPC   GL256174   2.088   3.732   5.889
 4321POPC   C1A56175   1.870   3.519   6.297
 4321POPC   D2A56176   2.151   3.446   6.572
 4321POPC   C3A56177   2.009   3.458   6.978
 4321POPC   C4A56178   1.975   3.421   7.429
 4321POPC   C1B56179   2.307   3.929   6.234
 4321POPC   C2B56180   2.483   3.853   6.649
 4321POPC   C3B56181   2.287   3.880   7.042
 4321POPC   C4B56182   2.100   3.916   7.466
 4322POPC   NC356183  18.612  44.708   5.245
 4322POPC   PO456184  18.014  44.893   5.613
 4322POPC   GL156185  18.288  44.699   5.934
 4322POPC   GL256186  18.260  44.318   6.005
 4322POPC   C1A56187  18.539  44.598   6.338
 4322POPC   D2A56188  18.350  44.419   6.713
 4322POPC   C3A56189  18.546  44.299   7.056
 4322POPC   C4A56190  18.698  44.550   7.394
 4322POPC   C1B56191  18.011  44.536   6.345
 4322POPC   C2B56192  18.039  44.806   6.731
 4322POPC   C3B56193  18.271  44.745   7.126
 4322POPC   C4B56194  18.134  44.735   7.545
 4323POPC   NC356195  43.139   1.887   5.505
 4323POPC   PO456196  42.716   2.448   5.597
 4323POPC   GL156197  42.783   2.062   5.912
 4323POPC   GL256198  43.089   1.801   5.977
 4323POPC   C1A56199  42.902   2.022   6.371
 4323POPC   D2A56200  43.201   2.093   6.678
 4323POPC   C3A56201  42.957   1.999   6.987
 4323POPC   C4A56202  42.944   2.087   7.370
 4323POPC   C1B56203  43.388   1.819   6.286
 4323POPC   C2B56204  43.364   1.557   6.640
 4323POPC   C3B56205  43.343   1.656   7.062
 4323POPC   C4B56206  43.435   2.110   7.153
 4324POPC   NC356207  11.751  34.299   5.476
 4324POPC   PO456208  12.173  34.725   5.315
 4324POPC   GL156209  12.076  34.608   5.747
 4324POPC   GL256210  12.159  34.251   5.764
 4324POPC   C1A56211  11.961  34.464   6.179
 4324POPC   D2A56212  11.745  34.358   6.539
 4324POPC   C3A56213  11.950  34.578   6.873
 4324POPC   C4A56214  11.769  34.618   7.266
 4324POPC   C1B56215  12.314  34.094   6.157
 4324POPC   C2B56216  12.272  34.268   6.555
 4324POPC   C3B56217  12.064  34.089   6.872
 4324POPC   C4B56218  12.117  34.070   7.242
 4325POPC   NC356219   8.797   9.134   5.358
 4325POPC   PO456220   9.212   8.622   5.412
 4325POPC   GL156221   9.039   8.877   5.746
 4325POPC   GL256222   8.693   8.779   5.762
 4325POPC   C1A56223   9.136   8.808   6.174
 4325POPC   D2A56224   8.992   8.890   6.586
 4325POPC   C3A56225   9.199   8.727   6.953
 4325POPC   C4A56226   9.099   9.029   7.238
 4325POPC   C1B56227   8.632   8.978   6.186
 4325POPC   C2B56228   8.530   9.154   6.580
 4325POPC   C3B56229   8.626   8.989   6.964
 4325POPC   C4B56230   8.360   8.813   7.255
 4326POPC   NC356231  42.551  42.559   5.344
 4326POPC   PO456232  42.050  42.221   5.410
 4326POPC   GL156233  42.371  42.174   5.764
 4326POPC   GL256234  42.616  42.451   5.852
 4326POPC   C1A56235  42.336  42.238   6.242
 4326POPC   D2A56236  42.406  42.191   6.663
 4326POPC   C3A56237  42.547  42.443   6.983
 4326POPC   C4A56238  42.362  42.402   7.398
 4326POPC   C1B56239  42.808  42.098   6.109
 4326POPC   C2B56240  42.798  41.893   6.533
 4326POPC   C3B56241  42.721  41.947   7.000
 4326POPC   C4B56242  42.849  42.217   7.360
 4327POPC   NC356243  33.112  30.381   5.658
 4327POPC   PO456244  33.243  29.712   5.484
 4327POPC   GL156245  33.167  29.915   5.868
 4327POPC   GL256246  33.411  30.185   6.023
 4327POPC   C1A56247  33.051  29.675   6.201
 4327POPC   D2A56248  32.933  29.567   6.608
 4327POPC   C3A56249  33.071  29.880   6.865
 4327POPC   C4A56250  33.098  29.845   7.308
 4327POPC   C1B56251  33.068  30.189   6.337
 4327POPC   C2B56252  32.858  30.335   6.715
 4327POPC   C3B56253  32.876  30.274   7.162
 4327POPC   C4B56254  33.251  30.341   7.481
 4328POPC   NC356255  29.437  41.411   5.113
 4328POPC   PO456256  29.112  40.964   5.543
 4328POPC   GL156257  29.067  41.026   5.942
 4328POPC   GL256258  28.717  41.140   6.046
 4328POPC   C1A56259  29.029  40.791   6.311
 4328POPC   D2A56260  28.864  40.997   6.638
 4328POPC   C3A56261  29.212  41.074   6.864
 4328POPC   C4A56262  29.352  40.826   7.210
 4328POPC   C1B56263  28.529  40.767   6.266
 4328POPC   C2B56264  28.599  40.537   6.625
 4328POPC   C3B56265  28.800  40.615   7.003
 4328POPC   C4B56266  28.783  40.357   7.363
 4329POPC   NC356267   3.040  13.415   5.480
 4329POPC   PO456268   2.675  13.902   5.600
 4329POPC   GL156269   2.697  13.492   5.879
 4329POPC   GL256270   3.017  13.359   5.985
 4329POPC   C1A56271   2.616  13.472   6.351
 4329POPC   D2A56272   2.604  13.855   6.595
 4329POPC   C3A56273   2.768  13.827   7.004
 4329POPC   C4A56274   2.853  13.542   7.286
 4329POPC   C1B56275   3.003  13.748   6.237
 4329POPC   C2B56276   3.075  13.633   6.650
 4329POPC   C3B56277   3.288  13.589   7.028
 4329POPC   C4B56278   3.383  13.684   7.444
 4330POPC   NC356279   8.467  35.726   5.236
 4330POPC   PO456280   8.531  36.385   5.406
 4330POPC   GL156281   8.331  36.042   5.654
 4330POPC   GL256282   8.180  36.272   5.874
 4330POPC   C1A56283   8.144  35.790   6.032
 4330POPC   D2A56284   8.012  35.856   6.486
 4330POPC   C3A56285   8.201  35.813   6.918
 4330POPC   C4A56286   8.016  35.851   7.337
 4330POPC   C1B56287   8.179  36.347   6.322
 4330POPC   C2B56288   8.175  36.300   6.753
 4330POPC   C3B56289   8.157  36.298   7.163
 4330POPC   C4B56290   8.449  36.177   7.474
 4331POPC   NC356291  44.399  31.719   5.363
 4331POPC   PO456292  44.406  31.014   5.424
 4331POPC   GL156293  44.649  31.226   5.759
 4331POPC   GL256294  44.816  31.559   5.674
 4331POPC   C1A56295  44.631  31.443   6.174
 4331POPC   D2A56296  44.682  31.700   6.550
 4331POPC   C3A56297  44.654  31.510   6.965
 4331POPC   C4A56298  44.777  31.751   7.318
 4331POPC   C1B56299   0.123  31.453   6.018
 4331POPC   C2B56300   0.073  31.295   6.444
 4331POPC   C3B56301   0.160  31.455   6.851
 4331POPC   C4B56302   0.071  31.339   7.263
 4332POPC   NC356303  32.281  33.362   5.553
 4332POPC   PO456304  31.971  33.928   5.357
 4332POPC   GL156305  32.081  33.837   5.789
 4332POPC   GL256306  32.159  33.564   5.979
 4332POPC   C1A56307  32.267  34.032   6.163
 4332POPC   D2A56308  32.320  33.861   6.572
 4332POPC   C3A56309  32.510  33.555   6.836
 4332POPC   C4A56310  32.353  33.748   7.194
 4332POPC   C1B56311  31.919  33.628   6.299
 4332POPC   C2B56312  32.034  33.421   6.640
 4332POPC   C3B56313  32.043  33.371   7.023
 4332POPC   C4B56314  31.930  33.513   7.424
 4333POPC   NC356315  18.802   0.581   5.336
 4333POPC   PO456316  19.224   0.072   5.547
 4333POPC   GL156317  19.293   0.401   5.854
 4333POPC   GL256318  18.963   0.577   5.831
 4333POPC   C1A56319  19.265   0.444   6.300
 4333POPC   D2A56320  18.852   0.361   6.450
 4333POPC   C3A56321  18.797   0.429   6.871
 4333POPC   C4A56322  19.069   0.404   7.196
 4333POPC   C1B56323  18.951   0.837   6.198
 4333POPC   C2B56324  18.989   0.864   6.635
 4333POPC   C3B56325  19.297   0.777   6.924
 4333POPC   C4B56326  19.413   0.772   7.346
 4334POPC   NC356327  14.474  39.960   5.209
 4334POPC   PO456328  14.778  40.474   5.613
 4334POPC   GL156329  14.501  40.142   5.702
 4334POPC   GL256330  14.178  40.190   5.650
 4334POPC   C1A56331  14.448  39.878   6.047
 4334POPC   D2A56332  14.388  39.777   6.485
 4334POPC   C3A56333  14.587  39.924   6.886
 4334POPC   C4A56334  14.672  39.734   7.299
 4334POPC   C1B56335  14.184  40.374   6.075
 4334POPC   C2B56336  13.912  40.269   6.438
 4334POPC   C3B56337  13.976  40.302   6.879
 4334POPC   C4B56338  14.130  40.360   7.303
 4335POPC   NC356339   8.542  31.656   5.314
 4335POPC   PO456340   7.852  31.554   5.422
 4335POPC   GL156341   8.025  31.606   5.849
 4335POPC   GL256342   8.357  31.731   5.798
 4335POPC   C1A56343   8.006  31.698   6.302
 4335POPC   D2A56344   7.897  31.492   6.688
 4335POPC   C3A56345   8.203  31.484   6.998
 4335POPC   C4A56346   8.263  31.202   7.330
 4335POPC   C1B56347   8.485  31.568   6.205
 4335POPC   C2B56348   8.482  31.724   6.639
 4335POPC   C3B56349   8.699  31.656   7.052
 4335POPC   C4B56350   8.430  31.656   7.417
 4336POPC   NC356351   3.344  11.967   5.425
 4336POPC   PO456352   2.610  12.116   5.427
 4336POPC   GL156353   2.937  12.122   5.716
 4336POPC   GL256354   2.891  11.753   5.738
 4336POPC   C1A56355   2.921  12.077   6.154
 4336POPC   D2A56356   2.599  12.174   6.425
 4336POPC   C3A56357   2.767  12.228   6.800
 4336POPC   C4A56358   2.903  12.253   7.205
 4336POPC   C1B56359   2.712  11.628   6.153
 4336POPC   C2B56360   2.833  11.741   6.581
 4336POPC   C3B56361   2.708  11.785   7.024
 4336POPC   C4B56362   2.767  11.858   7.482
 4337POPC   NC356363  38.745   1.699   5.446
 4337POPC   PO456364  38.533   1.071   5.512
 4337POPC   GL156365  38.559   1.038   5.882
 4337POPC   GL256366  38.762   0.743   5.859
 4337POPC   C1A56367  38.321   1.206   6.208
 4337POPC   D2A56368  38.111   1.171   6.564
 4337POPC   C3A56369  38.288   1.315   6.905
 4337POPC   C4A56370  38.422   1.478   7.278
 4337POPC   C1B56371  38.846   0.926   6.267
 4337POPC   C2B56372  38.637   1.071   6.614
 4337POPC   C3B56373  38.784   1.163   7.026
 4337POPC   C4B56374  38.807   0.806   7.292
 4338POPC   NC356375   3.768  14.593   5.340
 4338POPC   PO456376   3.545  13.940   5.417
 4338POPC   GL156377   3.711  14.232   5.702
 4338POPC   GL256378   3.482  14.461   5.783
 4338POPC   C1A56379   3.855  14.317   6.127
 4338POPC   D2A56380   3.729  14.212   6.531
 4338POPC   C3A56381   3.531  14.429   6.826
 4338POPC   C4A56382   3.597  14.497   7.241
 4338POPC   C1B56383   3.294  14.527   6.204
 4338POPC   C2B56384   3.095  14.640   6.592
 4338POPC   C3B56385   3.118  14.638   7.066
 4338POPC   C4B56386   3.079  14.505   7.513
 4339POPC   NC356387  20.598  30.567   5.260
 4339POPC   PO456388  20.058  30.434   5.605
 4339POPC   GL156389  20.507  30.356   5.737
 4339POPC   GL256390  20.633  30.704   5.770
 4339POPC   C1A56391  20.744  30.375   6.142
 4339POPC   D2A56392  20.625  30.556   6.536
 4339POPC   C3A56393  20.518  30.376   6.943
 4339POPC   C4A56394  20.788  30.286   7.273
 4339POPC   C1B56395  20.751  30.933   6.157
 4339POPC   C2B56396  20.907  30.988   6.603
 4339POPC   C3B56397  20.924  31.112   7.060
 4339POPC   C4B56398  20.752  30.800   7.359
 4340POPC   NC356399  28.019  38.743   5.411
 4340POPC   PO456400  27.814  38.119   5.297
 4340POPC   GL156401  27.902  38.333   5.712
 4340POPC   GL256402  27.692  38.671   5.790
 4340POPC   C1A56403  27.746  38.279   6.141
 4340POPC   D2A56404  27.440  38.470   6.404
 4340POPC   C3A56405  27.533  38.469   6.859
 4340POPC   C4A56406  27.434  38.235   7.202
 4340POPC   C1B56407  27.908  38.798   6.177
 4340POPC   C2B56408  27.731  38.851   6.590
 4340POPC   C3B56409  27.879  38.797   7.004
 4340POPC   C4B56410  27.830  38.533   7.333
 4341POPC   NC356411  11.241  35.641   5.554
 4341POPC   PO456412  10.837  35.140   5.296
 4341POPC   GL156413  11.076  35.152   5.710
 4341POPC   GL256414  11.464  35.241   5.774
 4341POPC   C1A56415  11.171  35.047   6.163
 4341POPC   D2A56416  11.344  35.224   6.551
 4341POPC   C3A56417  11.106  35.482   6.838
 4341POPC   C4A56418  11.134  35.336   7.242
 4341POPC   C1B56419  11.698  35.302   6.176
 4341POPC   C2B56420  11.829  35.437   6.614
 4341POPC   C3B56421  11.595  35.430   7.020
 4341POPC   C4B56422  11.533  35.563   7.482
 4342POPC   NC356423  26.969  22.179   5.233
 4342POPC   PO456424  26.565  22.621   5.401
 4342POPC   GL156425  26.673  22.229   5.690
 4342POPC   GL256426  26.978  21.980   5.717
 4342POPC   C1A56427  26.608  22.039   6.114
 4342POPC   D2A56428  26.748  21.736   6.443
 4342POPC   C3A56429  26.862  21.969   6.812
 4342POPC   C4A56430  26.622  22.051   7.172
 4342POPC   C1B56431  27.102  22.231   6.081
 4342POPC   C2B56432  27.302  22.194   6.503
 4342POPC   C3B56433  27.314  22.257   6.937
 4342POPC   C4B56434  27.110  22.057   7.275
 4343POPC   NC356435  19.150  19.633   5.360
 4343POPC   PO456436  18.739  20.099   5.604
 4343POPC   GL156437  19.150  20.087   5.732
 4343POPC   GL256438  19.200  19.757   5.839
 4343POPC   C1A56439  19.234  20.163   6.172
 4343POPC   D2A56440  19.250  19.955   6.562
 4343POPC   C3A56441  19.087  19.963   6.961
 4343POPC   C4A56442  18.893  19.939   7.380
 4343POPC   C1B56443  19.209  19.588   6.231
 4343POPC   C2B56444  18.879  19.591   6.578
 4343POPC   C3B56445  18.914  19.507   7.026
 4343POPC   C4B56446  19.362  19.540   7.120
 4344POPC   NC356447  43.355   8.211   5.408
 4344POPC   PO456448  42.706   8.122   5.370
 4344POPC   GL156449  42.940   8.166   5.730
 4344POPC   GL256450  43.002   8.518   5.710
 4344POPC   C1A56451  43.182   8.133   6.114
 4344POPC   D2A56452  43.058   8.025   6.552
 4344POPC   C3A56453  43.309   7.911   6.934
 4344POPC   C4A56454  43.068   8.032   7.326
 4344POPC   C1B56455  43.145   8.634   6.115
 4344POPC   C2B56456  43.362   8.462   6.508
 4344POPC   C3B56457  43.245   8.426   6.941
 4344POPC   C4B56458  43.460   8.362   7.312
 4345POPC   NC356459  34.796  13.741   5.280
 4345POPC   PO456460  35.382  13.637   5.513
 4345POPC   GL156461  35.481  13.683   5.905
 4345POPC   GL256462  35.330  13.985   5.972
 4345POPC   C1A56463  35.717  13.827   6.265
 4345POPC   D2A56464  35.658  13.636   6.660
 4345POPC   C3A56465  35.556  13.771   7.044
 4345POPC   C4A56466  35.224  13.510   7.169
 4345POPC   C1B56467  35.180  13.763   6.322
 4345POPC   C2B56468  34.968  13.841   6.683
 4345POPC   C3B56469  34.848  13.886   7.093
 4345POPC   C4B56470  35.126  13.893   7.456
 4346POPC   NC356471  29.927  13.201   5.593
 4346POPC   PO456472  29.651  13.798   5.466
 4346POPC   GL156473  29.799  13.649   5.852
 4346POPC   GL256474  30.171  13.708   5.785
 4346POPC   C1A56475  29.702  13.562   6.322
 4346POPC   D2A56476  29.996  13.547   6.711
 4346POPC   C3A56477  29.846  13.420   7.143
 4346POPC   C4A56478  29.888  13.264   7.608
 4346POPC   C1B56479  30.040  14.001   6.126
 4346POPC   C2B56480  29.751  14.046   6.495
 4346POPC   C3B56481  29.596  13.830   6.868
 4346POPC   C4B56482  29.685  14.038   7.249
 4347POPC   NC356483   0.851  25.324   5.538
 4347POPC   PO456484   1.427  25.012   5.470
 4347POPC   GL156485   1.427  25.326   5.842
 4347POPC   GL256486   1.134  25.574   5.887
 4347POPC   C1A56487   1.468  25.507   6.262
 4347POPC   D2A56488   1.225  25.493   6.633
 4347POPC   C3A56489   1.453  25.427   7.001
 4347POPC   C4A56490   1.367  25.618   7.387
 4347POPC   C1B56491   1.041  25.226   6.194
 4347POPC   C2B56492   0.885  25.100   6.596
 4347POPC   C3B56493   1.054  25.058   6.990
 4347POPC   C4B56494   1.166  25.160   7.391
 4348POPC   NC356495   1.224  38.358   5.222
 4348POPC   PO456496   1.190  38.943   5.410
 4348POPC   GL156497   1.104  38.738   5.777
 4348POPC   GL256498   0.850  38.945   5.911
 4348POPC   C1A56499   1.246  38.785   6.223
 4348POPC   D2A56500   1.184  38.870   6.669
 4348POPC   C3A56501   1.291  38.705   7.094
 4348POPC   C4A56502   1.445  38.773   7.527
 4348POPC   C1B56503   0.743  38.903   6.328
 4348POPC   C2B56504   0.696  38.696   6.714
 4348POPC   C3B56505   0.772  38.580   7.138
 4348POPC   C4B56506   0.626  38.475   7.558
 4349POPC   NC356507  26.228  40.009   5.256
 4349POPC   PO456508  25.604  40.203   5.429
 4349POPC   GL156509  25.836  40.029   5.799
 4349POPC   GL256510  26.222  39.933   5.763
 4349POPC   C1A56511  25.853  40.281   6.190
 4349POPC   D2A56512  26.078  40.418   6.560
 4349POPC   C3A56513  25.982  40.213   6.952
 4349POPC   C4A56514  26.103  40.366   7.312
 4349POPC   C1B56515  26.304  40.049   6.192
 4349POPC   C2B56516  26.077  39.899   6.558
 4349POPC   C3B56517  26.253  39.752   6.969
 4349POPC   C4B56518  26.436  39.700   7.364
 4350POPC   NC356519  17.934   3.580   5.437
 4350POPC   PO456520  17.357   3.262   5.379
 4350POPC   GL156521  17.375   3.340   5.861
 4350POPC   GL256522  17.694   3.531   5.900
 4350POPC   C1A56523  17.172   3.293   6.292
 4350POPC   D2A56524  17.206   3.490   6.676
 4350POPC   C3A56525  17.421   3.378   7.025
 4350POPC   C4A56526  17.270   3.706   7.281
 4350POPC   C1B56527  17.618   3.532   6.346
 4350POPC   C2B56528  17.694   3.713   6.732
 4350POPC   C3B56529  17.782   3.720   7.155
 4350POPC   C4B56530  17.859   3.320   7.294
 4351POPC   NC356531  37.706  26.177   5.593
 4351POPC   PO456532  37.617  26.803   5.253
 4351POPC   GL156533  37.650  26.715   5.751
 4351POPC   GL256534  37.954  26.528   5.880
 4351POPC   C1A56535  37.488  26.698   6.218
 4351POPC   D2A56536  37.608  26.988   6.607
 4351POPC   C3A56537  37.649  26.829   7.048
 4351POPC   C4A56538  37.508  26.424   7.176
 4351POPC   C1B56539  37.973  26.800   6.236
 4351POPC   C2B56540  37.996  26.634   6.648
 4351POPC   C3B56541  38.056  26.497   7.071
 4351POPC   C4B56542  38.033  26.587   7.516
 4352POPC   NC356543  42.401   3.840   5.641
 4352POPC   PO456544  42.081   3.738   5.104
 4352POPC   GL156545  41.988   3.526   5.555
 4352POPC   GL256546  42.288   3.327   5.733
 4352POPC   C1A56547  41.975   3.613   6.057
 4352POPC   D2A56548  42.246   3.646   6.468
 4352POPC   C3A56549  42.160   3.390   6.816
 4352POPC   C4A56550  42.265   3.603   7.196
 4352POPC   C1B56551  42.444   3.285   6.184
 4352POPC   C2B56552  42.639   3.293   6.614
 4352POPC   C3B56553  42.548   3.146   7.052
 4352POPC   C4B56554  42.123   3.103   7.248
 4353POPC   NC356555  32.438  13.216   5.420
 4353POPC   PO456556  31.799  13.032   5.503
 4353POPC   GL156557  32.042  12.773   5.778
 4353POPC   GL256558  32.403  12.799   5.749
 4353POPC   C1A56559  32.047  12.740   6.227
 4353POPC   D2A56560  32.313  12.829   6.607
 4353POPC   C3A56561  32.056  12.760   6.973
 4353POPC   C4A56562  31.925  13.122   7.214
 4353POPC   C1B56563  32.558  12.646   6.166
 4353POPC   C2B56564  32.727  12.538   6.601
 4353POPC   C3B56565  32.558  12.635   7.034
 4353POPC   C4B56566  32.421  12.563   7.472
 4354POPC   NC356567  32.933   6.285   5.487
 4354POPC   PO456568  33.367   6.916   5.347
 4354POPC   GL156569  32.996   6.812   5.794
 4354POPC   GL256570  32.979   6.508   5.959
 4354POPC   C1A56571  32.858   6.848   6.288
 4354POPC   D2A56572  33.139   6.774   6.642
 4354POPC   C3A56573  33.003   6.760   7.021
 4354POPC   C4A56574  32.808   7.087   7.223
 4354POPC   C1B56575  33.295   6.257   6.212
 4354POPC   C2B56576  33.300   6.128   6.620
 4354POPC   C3B56577  33.338   6.347   6.994
 4354POPC   C4B56578  33.534   6.760   7.023
 4355POPC   NC356579  20.019  27.265   5.661
 4355POPC   PO456580  19.585  26.816   5.527
 4355POPC   GL156581  19.837  26.696   5.843
 4355POPC   GL256582  19.577  26.558   5.992
 4355POPC   C1A56583  20.016  26.843   6.253
 4355POPC   D2A56584  19.868  27.108   6.598
 4355POPC   C3A56585  19.955  27.038   7.020
 4355POPC   C4A56586  19.865  27.001   7.445
 4355POPC   C1B56587  19.692  26.487   6.391
 4355POPC   C2B56588  19.905  26.584   6.768
 4355POPC   C3B56589  19.757  26.541   7.195
 4355POPC   C4B56590  19.511  26.617   7.568
 4356POPC   NC356591  18.827  37.967   5.407
 4356POPC   PO456592  19.367  37.579   5.282
 4356POPC   GL156593  19.192  37.618   5.704
 4356POPC   GL256594  19.034  37.918   5.876
 4356POPC   C1A56595  19.200  37.495   6.131
 4356POPC   D2A56596  19.167  37.776   6.468
 4356POPC   C3A56597  19.009  37.571   6.823
 4356POPC   C4A56598  19.166  37.577   7.217
 4356POPC   C1B56599  18.782  38.106   6.229
 4356POPC   C2B56600  18.810  38.072   6.669
 4356POPC   C3B56601  19.012  38.047   7.056
 4356POPC   C4B56602  18.863  38.059   7.465
 4357POPC   NC356603  39.890  13.897   5.503
 4357POPC   PO456604  39.645  13.236   5.460
 4357POPC   GL156605  39.871  13.306   5.867
 4357POPC   GL256606  40.110  13.495   5.746
 4357POPC   C1A56607  40.006  13.671   6.189
 4357POPC   D2A56608  39.908  13.945   6.534
 4357POPC   C3A56609  40.078  13.737   6.883
 4357POPC   C4A56610  39.828  13.464   7.110
 4357POPC   C1B56611  40.364  13.300   6.081
 4357POPC   C2B56612  40.268  13.325   6.521
 4357POPC   C3B56613  40.383  13.304   6.958
 4357POPC   C4B56614  40.305  13.546   7.314
 4358POPC   NC356615  33.808   6.729   5.338
 4358POPC   PO456616  33.321   6.462   5.619
 4358POPC   GL156617  33.481   6.703   5.941
 4358POPC   GL256618  33.780   6.546   5.934
 4358POPC   C1A56619  33.549   6.654   6.405
 4358POPC   D2A56620  33.768   6.359   6.679
 4358POPC   C3A56621  33.856   6.389   7.108
 4358POPC   C4A56622  33.679   6.137   7.389
 4358POPC   C1B56623  34.029   6.625   6.320
 4358POPC   C2B56624  33.960   6.835   6.728
 4358POPC   C3B56625  34.059   6.864   7.188
 4358POPC   C4B56626  34.079   6.915   7.670
 4359POPC   NC356627  23.350  10.294   5.460
 4359POPC   PO456628  22.729  10.447   5.507
 4359POPC   GL156629  22.693  10.335   5.915
 4359POPC   GL256630  23.034  10.231   5.936
 4359POPC   C1A56631  22.821  10.582   6.282
 4359POPC   D2A56632  23.059  10.548   6.674
 4359POPC   C3A56633  22.820  10.580   7.052
 4359POPC   C4A56634  22.687  10.577   7.474
 4359POPC   C1B56635  23.323  10.312   6.271
 4359POPC   C2B56636  23.367  10.117   6.667
 4359POPC   C3B56637  23.381  10.076   7.110
 4359POPC   C4B56638  23.256  10.467   7.295
 4360POPC   NC356639  18.625   8.689   5.618
 4360POPC   PO456640  18.355   9.244   5.397
 4360POPC   GL156641  18.295   9.124   5.807
 4360POPC   GL256642  18.039   8.875   5.839
 4360POPC   C1A56643  18.461   8.969   6.197
 4360POPC   D2A56644  18.640   8.764   6.551
 4360POPC   C3A56645  18.419   8.824   6.941
 4360POPC   C4A56646  18.235   8.899   7.366
 4360POPC   C1B56647  17.978   9.186   6.207
 4360POPC   C2B56648  17.990   9.134   6.656
 4360POPC   C3B56649  17.857   8.937   7.023
 4360POPC   C4B56650  17.740   8.981   7.441
 4361POPC   NC356651  44.956  16.348   5.163
 4361POPC   PO456652   0.338  15.831   5.442
 4361POPC   GL156653   0.375  15.714   5.850
 4361POPC   GL256654   0.373  16.040   6.041
 4361POPC   C1A56655   0.455  15.610   6.285
 4361POPC   D2A56656   0.344  15.908   6.580
 4361POPC   C3A56657   0.427  15.722   6.942
 4361POPC   C4A56658   0.534  15.753   7.351
 4361POPC   C1B56659   0.118  16.299   6.329
 4361POPC   C2B56660   0.092  16.318   6.783
 4361POPC   C3B56661   0.324  16.204   7.142
 4361POPC   C4B56662   0.223  16.176   7.609
 4362POPC   NC356663  24.827   6.615   5.431
 4362POPC   PO456664  25.521   6.876   5.369
 4362POPC   GL156665  25.266   6.761   5.705
 4362POPC   GL256666  25.436   6.505   5.833
 4362POPC   C1A56667  25.247   6.827   6.172
 4362POPC   D2A56668  25.010   6.828   6.539
 4362POPC   C3A56669  25.175   6.641   6.929
 4362POPC   C4A56670  25.112   6.775   7.388
 4362POPC   C1B56671  25.538   6.254   6.172
 4362POPC   C2B56672  25.321   6.275   6.562
 4362POPC   C3B56673  25.531   6.272   6.948
 4362POPC   C4B56674  25.548   6.482   7.345
 4363POPC   NC356675  40.323  43.955   5.238
 4363POPC   PO456676  40.911  43.599   5.369
 4363POPC   GL156677  40.815  43.763   5.774
 4363POPC   GL256678  40.653  44.074   5.662
 4363POPC   C1A56679  40.944  43.731   6.233
 4363POPC   D2A56680  40.810  43.783   6.678
 4363POPC   C3A56681  40.945  43.599   7.082
 4363POPC   C4A56682  40.974  43.594   7.557
 4363POPC   C1B56683  40.712  44.189   6.105
 4363POPC   C2B56684  40.567  44.392   6.494
 4363POPC   C3B56685  40.458  44.125   6.831
 4363POPC   C4B56686  40.464  43.734   7.066
 4364POPC   NC356687  35.795  13.439   5.403
 4364POPC   PO456688  36.308  13.979   5.353
 4364POPC   GL156689  36.228  13.995   5.793
 4364POPC   GL256690  35.982  13.756   5.799
 4364POPC   C1A56691  36.363  13.854   6.200
 4364POPC   D2A56692  36.125  13.828   6.573
 4364POPC   C3A56693  36.300  13.848   6.969
 4364POPC   C4A56694  36.035  13.838   7.295
 4364POPC   C1B56695  36.068  13.435   6.114
 4364POPC   C2B56696  36.013  13.295   6.532
 4364POPC   C3B56697  36.078  13.410   6.944
 4364POPC   C4B56698  36.385  13.166   7.190
 4365POPC   NC356699   1.206   4.717   5.754
 4365POPC   PO456700   0.930   4.155   5.498
 4365POPC   GL156701   1.041   4.095   5.908
 4365POPC   GL256702   1.332   4.254   5.913
 4365POPC   C1A56703   1.205   4.025   6.347
 4365POPC   D2A56704   1.161   4.337   6.660
 4365POPC   C3A56705   1.023   4.220   7.059
 4365POPC   C4A56706   0.780   4.559   7.238
 4365POPC   C1B56707   1.526   4.434   6.269
 4365POPC   C2B56708   1.664   4.320   6.671
 4365POPC   C3B56709   1.679   4.559   7.052
 4365POPC   C4B56710   1.284   4.651   7.217
 4366POPC   NC356711  26.467  42.231   5.499
 4366POPC   PO456712  25.912  42.549   5.334
 4366POPC   GL156713  25.847  42.363   5.757
 4366POPC   GL256714  26.143  42.133   5.889
 4366POPC   C1A56715  25.960  42.531   6.166
 4366POPC   D2A56716  26.287  42.484   6.496
 4366POPC   C3A56717  26.053  42.508   6.872
 4366POPC   C4A56718  26.003  42.502   7.311
 4366POPC   C1B56719  26.212  41.889   6.287
 4366POPC   C2B56720  26.354  41.827   6.735
 4366POPC   C3B56721  26.268  42.028   7.132
 4366POPC   C4B56722  26.239  42.133   7.572
 4367POPC   NC356723   3.385  28.648   5.485
 4367POPC   PO456724   4.068  28.374   5.474
 4367POPC   GL156725   3.735  28.388   5.802
 4367POPC   GL256726   3.362  28.366   5.921
 4367POPC   C1A56727   3.748  28.592   6.198
 4367POPC   D2A56728   3.885  28.395   6.580
 4367POPC   C3A56729   3.596  28.361   6.943
 4367POPC   C4A56730   3.327  28.074   7.220
 4367POPC   C1B56731   3.337  28.385   6.407
 4367POPC   C2B56732   3.272  28.700   6.761
 4367POPC   C3B56733   3.263  28.640   7.242
 4367POPC   C4B56734   3.138  28.378   7.625
 4368POPC   NC356735   3.012  32.148   5.223
 4368POPC   PO456736   2.424  32.199   5.402
 4368POPC   GL156737   2.718  31.966   5.690
 4368POPC   GL256738   3.109  31.954   5.705
 4368POPC   C1A56739   2.582  31.977   6.123
 4368POPC   D2A56740   2.760  32.190   6.490
 4368POPC   C3A56741   2.723  32.058   6.902
 4368POPC   C4A56742   2.612  32.194   7.336
 4368POPC   C1B56743   3.122  32.157   6.123
 4368POPC   C2B56744   3.253  32.339   6.550
 4368POPC   C3B56745   3.067  32.446   6.964
 4368POPC   C4B56746   3.112  32.280   7.378
 4369POPC   NC356747  19.294  41.652   5.502
 4369POPC   PO456748  19.996  41.620   5.397
 4369POPC   GL156749  19.765  41.638   5.753
 4369POPC   GL256750  20.068  41.629   5.938
 4369POPC   C1A56751  19.579  41.474   6.137
 4369POPC   D2A56752  19.628  41.581   6.570
 4369POPC   C3A56753  19.573  41.377   6.948
 4369POPC   C4A56754  19.793  41.410   7.364
 4369POPC   C1B56755  19.851  41.917   6.208
 4369POPC   C2B56756  19.868  42.026   6.647
 4369POPC   C3B56757  19.836  41.803   7.046
 4369POPC   C4B56758  19.882  41.880   7.530
 4370POPC   NC356759   3.730  26.373   5.453
 4370POPC   PO456760   3.451  25.788   5.536
 4370POPC   GL156761   3.612  25.747   5.888
 4370POPC   GL256762   3.706  26.082   5.890
 4370POPC   C1A56763   3.414  25.820   6.269
 4370POPC   D2A56764   3.318  26.089   6.624
 4370POPC   C3A56765   3.638  25.956   6.870
 4370POPC   C4A56766   3.718  25.674   7.208
 4370POPC   C1B56767   3.563  26.311   6.233
 4370POPC   C2B56768   3.705  26.442   6.647
 4370POPC   C3B56769   3.498  26.394   7.055
 4370POPC   C4B56770   3.507  26.099   7.385
 4371POPC   NC356771  33.788  30.628   5.152
 4371POPC   PO456772  33.184  30.830   5.525
 4371POPC   GL156773  33.034  30.865   5.915
 4371POPC   GL256774  33.310  30.714   6.014
 4371POPC   C1A56775  32.894  30.710   6.313
 4371POPC   D2A56776  33.006  30.837   6.716
 4371POPC   C3A56777  32.665  30.749   6.950
 4371POPC   C4A56778  32.612  30.922   7.313
 4371POPC   C1B56779  33.403  30.810   6.399
 4371POPC   C2B56780  33.508  30.462   6.613
 4371POPC   C3B56781  33.326  30.441   6.994
 4371POPC   C4B56782  33.099  30.776   7.228
 4372POPC   NC356783  10.215  44.054   5.468
 4372POPC   PO456784  10.854  43.919   5.601
 4372POPC   GL156785  10.503  43.878   5.849
 4372POPC   GL256786  10.468  43.540   5.803
 4372POPC   C1A56787  10.448  43.992   6.286
 4372POPC   D2A56788  10.580  43.835   6.698
 4372POPC   C3A56789  10.551  44.110   7.036
 4372POPC   C4A56790  10.165  44.092   7.226
 4372POPC   C1B56791  10.694  43.537   6.187
 4372POPC   C2B56792  10.848  43.427   6.560
 4372POPC   C3B56793  10.609  43.355   6.916
 4372POPC   C4B56794  10.364  43.622   7.188
 4373POPC   NC356795  20.809   3.809   5.070
 4373POPC   PO456796  20.790   3.247   5.426
 4373POPC   GL156797  20.525   3.315   5.761
 4373POPC   GL256798  20.168   3.194   5.774
 4373POPC   C1A56799  20.703   3.397   6.155
 4373POPC   D2A56800  20.773   3.736   6.445
 4373POPC   C3A56801  20.538   3.744   6.819
 4373POPC   C4A56802  20.761   3.571   7.178
 4373POPC   C1B56803  20.189   3.233   6.222
 4373POPC   C2B56804  20.457   3.257   6.580
 4373POPC   C3B56805  20.315   3.332   6.978
 4373POPC   C4B56806  20.377   3.274   7.352
 4374POPC   NC356807   1.402   4.919   5.256
 4374POPC   PO456808   0.910   5.309   5.493
 4374POPC   GL156809   1.147   5.230   5.860
 4374POPC   GL256810   1.496   5.152   5.776
 4374POPC   C1A56811   1.284   5.225   6.308
 4374POPC   D2A56812   1.159   5.412   6.725
 4374POPC   C3A56813   0.937   5.118   7.019
 4374POPC   C4A56814   0.968   4.986   7.457
 4374POPC   C1B56815   1.705   4.917   6.148
 4374POPC   C2B56816   1.560   4.841   6.579
 4374POPC   C3B56817   1.467   5.053   6.958
 4374POPC   C4B56818   1.638   4.990   7.367
 4375POPC   NC356819   5.492  28.443   5.558
 4375POPC   PO456820   4.975  28.125   5.306
 4375POPC   GL156821   5.093  28.120   5.740
 4375POPC   GL256822   4.991  28.444   5.850
 4375POPC   C1A56823   5.327  28.215   6.143
 4375POPC   D2A56824   5.223  28.109   6.534
 4375POPC   C3A56825   5.349  28.260   6.902
 4375POPC   C4A56826   5.171  28.237   7.281
 4375POPC   C1B56827   4.822  28.363   6.314
 4375POPC   C2B56828   4.848  28.372   6.819
 4375POPC   C3B56829   4.610  28.596   7.186
 4375POPC   C4B56830   4.536  28.822   7.622
 4376POPC   NC356831  29.019   3.801   5.509
 4376POPC   PO456832  28.666   3.294   5.305
 4376POPC   GL156833  28.930   3.327   5.685
 4376POPC   GL256834  29.266   3.442   5.787
 4376POPC   C1A56835  28.902   3.453   6.136
 4376POPC   D2A56836  28.699   3.473   6.531
 4376POPC   C3A56837  28.938   3.566   6.921
 4376POPC   C4A56838  29.018   3.347   7.265
 4376POPC   C1B56839  29.289   3.808   6.111
 4376POPC   C2B56840  29.454   3.802   6.537
 4376POPC   C3B56841  29.437   3.509   6.869
 4376POPC   C4B56842  29.388   3.670   7.279
 4377POPC   NC356843   4.855   8.432   5.321
 4377POPC   PO456844   5.329   8.034   5.345
 4377POPC   GL156845   5.175   8.276   5.691
 4377POPC   GL256846   4.825   8.228   5.768
 4377POPC   C1A56847   5.142   8.402   6.126
 4377POPC   D2A56848   5.275   8.267   6.505
 4377POPC   C3A56849   5.261   8.481   6.903
 4377POPC   C4A56850   5.472   8.140   7.099
 4377POPC   C1B56851   4.643   8.378   6.142
 4377POPC   C2B56852   4.778   8.146   6.495
 4377POPC   C3B56853   4.980   8.049   6.862
 4377POPC   C4B56854   4.820   8.228   7.214
 4378POPC   NC356855  23.815  42.051   5.455
 4378POPC   PO456856  23.542  42.664   5.386
 4378POPC   GL156857  23.451  42.335   5.703
 4378POPC   GL256858  23.809  42.323   5.879
 4378POPC   C1A56859  23.359  42.142   6.103
 4378POPC   D2A56860  23.583  42.220   6.487
 4378POPC   C3A56861  23.423  42.191   6.892
 4378POPC   C4A56862  23.553  42.440   7.254
 4378POPC   C1B56863  23.829  41.944   6.103
 4378POPC   C2B56864  23.864  41.801   6.489
 4378POPC   C3B56865  23.914  42.020   6.876
 4378POPC   C4B56866  23.981  42.171   7.277
 4379POPC   NC356867  19.122  22.008   5.228
 4379POPC   PO456868  19.331  22.679   5.267
 4379POPC   GL156869  19.337  22.313   5.622
 4379POPC   GL256870  19.112  22.434   5.870
 4379POPC   C1A56871  19.248  21.939   5.976
 4379POPC   D2A56872  18.970  21.847   6.402
 4379POPC   C3A56873  19.136  21.895   6.860
 4379POPC   C4A56874  19.408  22.132   7.178
 4379POPC   C1B56875  19.230  22.332   6.311
 4379POPC   C2B56876  19.313  22.388   6.750
 4379POPC   C3B56877  19.058  22.508   7.148
 4379POPC   C4B56878  18.716  22.316   7.418
 4380POPC   NC356879  21.262   0.464   5.438
 4380POPC   PO456880  21.919   0.660   5.158
 4380POPC   GL156881  21.694   0.543   5.704
 4380POPC   GL256882  21.413   0.285   5.893
 4380POPC   C1A56883  21.403   0.716   6.114
 4380POPC   D2A56884  21.421   0.504   6.548
 4380POPC   C3A56885  21.167   0.571   6.912
 4380POPC   C4A56886  21.446   0.707   7.237
 4380POPC   C1B56887  21.093   0.259   6.246
 4380POPC   C2B56888  21.123   0.096   6.691
 4380POPC   C3B56889  21.425   0.169   7.022
 4380POPC   C4B56890  21.528   0.171   7.432
 4381POPC   NC356891  38.254   4.301   5.312
 4381POPC   PO456892  38.923   4.003   5.254
 4381POPC   GL156893  38.655   4.126   5.632
 4381POPC   GL256894  38.608   4.484   5.670
 4381POPC   C1A56895  38.567   4.138   6.111
 4381POPC   D2A56896  38.659   4.014   6.562
 4381POPC   C3A56897  38.445   4.221   6.885
 4381POPC   C4A56898  38.407   4.118   7.279
 4381POPC   C1B56899  38.682   4.630   6.096
 4381POPC   C2B56900  38.427   4.531   6.462
 4381POPC   C3B56901  38.104   4.609   6.788
 4381POPC   C4B56902  38.236   4.588   7.212
 4382POPC   NC356903  13.341  16.204   5.484
 4382POPC   PO456904  13.694  15.903   5.166
 4382POPC   GL156905  13.726  15.882   5.689
 4382POPC   GL256906  13.982  16.004   5.894
 4382POPC   C1A56907  13.596  15.842   6.185
 4382POPC   D2A56908  13.490  15.981   6.638
 4382POPC   C3A56909  13.662  15.809   7.067
 4382POPC   C4A56910  13.616  15.779   7.549
 4382POPC   C1B56911  13.647  16.325   6.077
 4382POPC   C2B56912  13.503  16.492   6.506
 4382POPC   C3B56913  13.502  16.403   6.956
 4382POPC   C4B56914  13.483  16.216   7.340
 4383POPC   NC356915   2.302  18.716   5.047
 4383POPC   PO456916   1.944  19.185   5.327
 4383POPC   GL156917   2.048  19.105   5.719
 4383POPC   GL256918   2.057  18.747   5.655
 4383POPC   C1A56919   2.014  19.221   6.148
 4383POPC   D2A56920   1.809  19.356   6.523
 4383POPC   C3A56921   2.019  19.207   6.862
 4383POPC   C4A56922   1.735  18.952   7.079
 4383POPC   C1B56923   2.156  18.727   6.091
 4383POPC   C2B56924   2.025  18.788   6.511
 4383POPC   C3B56925   2.199  18.733   6.905
 4383POPC   C4B56926   2.052  18.647   7.297
 4384POPC   NC356927   9.887  30.816   5.454
 4384POPC   PO456928   9.278  30.907   5.769
 4384POPC   GL156929   9.659  30.790   5.909
 4384POPC   GL256930   9.702  30.464   5.787
 4384POPC   C1A56931  10.015  30.662   6.149
 4384POPC   D2A56932  10.154  30.697   6.558
 4384POPC   C3A56933   9.909  30.601   6.887
 4384POPC   C4A56934   9.855  30.837   7.256
 4384POPC   C1B56935   9.492  30.374   6.192
 4384POPC   C2B56936   9.446  30.460   6.650
 4384POPC   C3B56937   9.446  30.564   7.102
 4384POPC   C4B56938   9.710  30.380   7.426
 4385POPC   NC356939  19.230  27.851   5.477
 4385POPC   PO456940  18.751  27.359   5.425
 4385POPC   GL156941  19.044  27.450   5.779
 4385POPC   GL256942  19.034  27.794   5.939
 4385POPC   C1A56943  19.104  27.376   6.221
 4385POPC   D2A56944  19.168  27.534   6.639
 4385POPC   C3A56945  18.839  27.417   6.931
 4385POPC   C4A56946  19.159  27.381   7.196
 4385POPC   C1B56947  18.855  27.813   6.347
 4385POPC   C2B56948  18.782  27.898   6.786
 4385POPC   C3B56949  19.116  27.877   7.085
 4385POPC   C4B56950  19.352  28.130   7.367
 4386POPC   NC356951  19.481  11.714   5.301
 4386POPC   PO456952  20.100  12.145   5.225
 4386POPC   GL156953  20.028  11.948   5.640
 4386POPC   GL256954  19.697  12.072   5.789
 4386POPC   C1A56955  20.023  11.834   6.095
 4386POPC   D2A56956  19.824  12.081   6.445
 4386POPC   C3A56957  19.966  12.037   6.856
 4386POPC   C4A56958  20.031  12.314   7.210
 4386POPC   C1B56959  19.543  12.379   6.126
 4386POPC   C2B56960  19.433  12.431   6.552
 4386POPC   C3B56961  19.561  12.344   6.995
 4386POPC   C4B56962  19.662  11.969   7.255
 4387POPC   NC356963   0.000  24.912   5.834
 4387POPC   PO456964   0.435  25.135   5.430
 4387POPC   GL156965   0.306  25.358   5.793
 4387POPC   GL256966   0.605  25.401   5.985
 4387POPC   C1A56967   0.143  25.448   6.225
 4387POPC   D2A56968   0.329  25.511   6.656
 4387POPC   C3A56969   0.099  25.317   6.994
 4387POPC   C4A56970   0.096  25.179   7.413
 4387POPC   C1B56971   0.474  25.049   6.290
 4387POPC   C2B56972   0.416  24.983   6.755
 4387POPC   C3B56973   0.591  25.244   7.074
 4387POPC   C4B56974   0.939  25.536   7.088
 4388POPC   NC356975   6.310  28.654   5.341
 4388POPC   PO456976   6.692  28.098   5.183
 4388POPC   GL156977   6.521  28.271   5.622
 4388POPC   GL256978   6.606  28.592   5.771
 4388POPC   C1A56979   6.399  28.246   6.100
 4388POPC   D2A56980   6.575  28.202   6.543
 4388POPC   C3A56981   6.363  28.290   6.953
 4388POPC   C4A56982   6.408  28.156   7.394
 4388POPC   C1B56983   6.883  28.416   6.073
 4388POPC   C2B56984   6.986  28.512   6.473
 4388POPC   C3B56985   6.765  28.590   6.842
 4388POPC   C4B56986   6.666  28.583   7.256
 4389POPC   NC356987   1.479  32.648   5.483
 4389POPC   PO456988   0.865  32.816   5.332
 4389POPC   GL156989   1.079  32.550   5.750
 4389POPC   GL256990   1.149  32.152   5.743
 4389POPC   C1A56991   1.222  32.453   6.172
 4389POPC   D2A56992   1.087  32.385   6.588
 4389POPC   C3A56993   1.292  32.483   7.009
 4389POPC   C4A56994   1.365  32.666   7.433
 4389POPC   C1B56995   1.114  31.868   6.099
 4389POPC   C2B56996   0.957  31.887   6.520
 4389POPC   C3B56997   1.024  32.038   6.949
 4389POPC   C4B56998   0.865  31.852   7.308
 4390POPC   NC356999   7.593  39.540   5.256
 4390POPC   PO457000   7.363  39.014   5.330
 4390POPC   GL157001   7.295  39.325   5.652
 4390POPC   GL257002   7.494  39.102   5.861
 4390POPC   C1A57003   7.312  39.495   6.086
 4390POPC   D2A57004   7.453  39.272   6.476
 4390POPC   C3A57005   7.343  39.443   6.872
 4390POPC   C4A57006   7.236  39.348   7.278
 4390POPC   C1B57007   7.801  39.013   6.234
 4390POPC   C2B57008   7.683  38.837   6.648
 4390POPC   C3B57009   7.517  38.962   7.051
 4390POPC   C4B57010   7.687  39.141   7.428
 4391POPC   NC357011  23.391  17.270   5.521
 4391POPC   PO457012  22.676  17.498   5.475
 4391POPC   GL157013  22.989  17.519   5.807
 4391POPC   GL257014  23.033  17.200   5.918
 4391POPC   C1A57015  22.957  17.632   6.268
 4391POPC   D2A57016  23.026  17.721   6.719
 4391POPC   C3A57017  22.923  17.626   7.148
 4391POPC   C4A57018  22.564  17.655   7.381
 4391POPC   C1B57019  23.391  17.343   6.192
 4391POPC   C2B57020  23.424  17.408   6.631
 4391POPC   C3B57021  23.147  17.234   6.893
 4391POPC   C4B57022  23.037  17.148   7.281
 4392POPC   NC357023  23.961   7.150   5.420
 4392POPC   PO457024  23.377   7.447   5.358
 4392POPC   GL157025  23.555   7.280   5.725
 4392POPC   GL257026  23.776   7.557   5.778
 4392POPC   C1A57027  23.743   7.209   6.157
 4392POPC   D2A57028  23.643   7.450   6.556
 4392POPC   C3A57029  23.450   7.258   6.900
 4392POPC   C4A57030  23.828   7.211   7.148
 4392POPC   C1B57031  23.802   7.760   6.173
 4392POPC   C2B57032  23.955   7.884   6.607
 4392POPC   C3B57033  24.021   7.696   6.992
 4392POPC   C4B57034  23.596   7.696   7.084
 4393POPC   NC357035  23.146  41.401   5.443
 4393POPC   PO457036  22.840  41.779   5.046
 4393POPC   GL157037  22.769  41.726   5.560
 4393POPC   GL257038  23.087  41.727   5.831
 4393POPC   C1A57039  22.650  41.612   6.034
 4393POPC   D2A57040  22.748  41.468   6.473
 4393POPC   C3A57041  22.967  41.546   6.873
 4393POPC   C4A57042  22.756  41.562   7.278
 4393POPC   C1B57043  23.068  41.305   6.080
 4393POPC   C2B57044  23.198  41.192   6.490
 4393POPC   C3B57045  23.337  41.123   6.885
 4393POPC   C4B57046  23.135  41.225   7.262
 4394POPC   NC357047  26.901  27.353   5.152
 4394POPC   PO457048  26.926  26.811   5.555
 4394POPC   GL157049  26.729  26.921   5.884
 4394POPC   GL257050  26.699  26.597   6.041
 4394POPC   C1A57051  26.834  27.124   6.238
 4394POPC   D2A57052  26.835  26.910   6.602
 4394POPC   C3A57053  26.803  27.173   6.911
 4394POPC   C4A57054  26.617  27.071   7.287
 4394POPC   C1B57055  27.128  26.618   6.286
 4394POPC   C2B57056  27.163  26.532   6.757
 4394POPC   C3B57057  26.914  26.681   7.104
 4394POPC   C4B57058  26.979  26.772   7.540
 4395POPC   NC357059   1.412  42.817   5.391
 4395POPC   PO457060   1.095  43.441   5.441
 4395POPC   GL157061   1.204  43.174   5.775
 4395POPC   GL257062   1.366  42.873   5.908
 4395POPC   C1A57063   1.378  43.295   6.185
 4395POPC   D2A57064   1.497  43.047   6.524
 4395POPC   C3A57065   1.203  43.004   6.815
 4395POPC   C4A57066   1.120  43.251   7.161
 4395POPC   C1B57067   1.016  42.914   6.184
 4395POPC   C2B57068   0.782  42.881   6.543
 4395POPC   C3B57069   0.836  42.670   6.930
 4395POPC   C4B57070   1.014  42.765   7.335
 4396POPC   NC357071  31.021  20.344   5.302
 4396POPC   PO457072  31.600  20.544   5.237
 4396POPC   GL157073  31.488  20.599   5.683
 4396POPC   GL257074  31.458  20.949   5.701
 4396POPC   C1A57075  31.644  20.601   6.169
 4396POPC   D2A57076  31.743  20.698   6.641
 4396POPC   C3A57077  31.493  20.431   6.979
 4396POPC   C4A57078  31.301  20.267   7.379
 4396POPC   C1B57079  31.297  20.961   6.139
 4396POPC   C2B57080  31.330  21.061   6.584
 4396POPC   C3B57081  31.433  20.928   7.009
 4396POPC   C4B57082  31.208  20.765   7.338
 4397POPC   NC357083  34.897  42.262   5.443
 4397POPC   PO457084  35.538  42.369   5.171
 4397POPC   GL157085  35.400  42.293   5.660
 4397POPC   GL257086  35.114  42.445   5.859
 4397POPC   C1A57087  35.495  42.266   6.155
 4397POPC   D2A57088  35.434  42.451   6.602
 4397POPC   C3A57089  35.557  42.280   7.026
 4397POPC   C4A57090  35.447  42.143   7.465
 4397POPC   C1B57091  35.119  42.681   6.248
 4397POPC   C2B57092  35.072  42.814   6.682
 4397POPC   C3B57093  35.173  42.623   7.075
 4397POPC   C4B57094  34.966  42.277   7.283
 4398POPC   NC357095  23.713   1.330   5.218
 4398POPC   PO457096  23.745   0.785   5.634
 4398POPC   GL157097  23.765   0.979   5.971
 4398POPC   GL257098  23.631   1.277   5.792
 4398POPC   C1A57099  23.994   1.185   6.303
 4398POPC   D2A57100  24.086   1.319   6.720
 4398POPC   C3A57101  23.969   1.007   6.959
 4398POPC   C4A57102  23.626   0.967   7.172
 4398POPC   C1B57103  23.478   1.301   6.216
 4398POPC   C2B57104  23.630   1.538   6.557
 4398POPC   C3B57105  23.595   1.443   6.973
 4398POPC   C4B57106  23.892   1.439   7.267
 4399POPC   NC357107  15.828   1.717   5.347
 4399POPC   PO457108  15.864   2.385   5.224
 4399POPC   GL157109  15.765   2.233   5.694
 4399POPC   GL257110  16.048   1.998   5.735
 4399POPC   C1A57111  15.773   2.033   6.164
 4399POPC   D2A57112  15.893   1.827   6.579
 4399POPC   C3A57113  15.906   2.004   7.007
 4399POPC   C4A57114  15.926   1.741   7.392
 4399POPC   C1B57115  16.225   2.334   5.988
 4399POPC   C2B57116  16.321   2.340   6.448
 4399POPC   C3B57117  16.361   2.232   6.899
 4399POPC   C4B57118  16.269   2.392   7.316
 4400POPC   NC357119   3.591  29.483   5.471
 4400POPC   PO457120   3.784  28.855   5.569
 4400POPC   GL157121   3.504  29.116   5.869
 4400POPC   GL257122   3.295  29.441   5.864
 4400POPC   C1A57123   3.430  29.004   6.319
 4400POPC   D2A57124   3.779  28.908   6.636
 4400POPC   C3A57125   3.659  28.900   7.073
 4400POPC   C4A57126   3.316  29.150   7.319
 4400POPC   C1B57127   3.398  29.525   6.269
 4400POPC   C2B57128   3.625  29.420   6.597
 4400POPC   C3B57129   3.484  29.475   6.983
 4400POPC   C4B57130   3.225  29.685   7.265
 4401POPC   NC357131  33.722  33.134   5.285
 4401POPC   PO457132  33.906  32.573   5.480
 4401POPC   GL157133  33.625  32.765   5.735
 4401POPC   GL257134  33.744  33.069   5.798
 4401POPC   C1A57135  33.548  32.717   6.169
 4401POPC   D2A57136  33.679  32.884   6.572
 4401POPC   C3A57137  33.853  32.785   6.964
 4401POPC   C4A57138  33.636  32.830   7.353
 4401POPC   C1B57139  33.816  33.221   6.220
 4401POPC   C2B57140  33.980  33.271   6.677
 4401POPC   C3B57141  33.865  33.287   7.119
 4401POPC   C4B57142  34.093  33.502   7.486
 4402POPC   NC357143  27.470  43.287   5.358
 4402POPC   PO457144  27.220  42.644   5.500
 4402POPC   GL157145  27.576  42.787   5.813
 4402POPC   GL257146  27.718  43.154   5.847
 4402POPC   C1A57147  27.648  42.875   6.259
 4402POPC   D2A57148  27.890  43.165   6.490
 4402POPC   C3A57149  27.795  43.132   6.916
 4402POPC   C4A57150  27.429  42.962   7.106
 4402POPC   C1B57151  27.547  43.412   6.202
 4402POPC   C2B57152  27.570  43.557   6.664
 4402POPC   C3B57153  27.535  43.540   7.133
 4402POPC   C4B57154  27.821  43.529   7.510
 4403POPC   NC357155  16.994   3.180   5.100
 4403POPC   PO457156  16.687   3.714   5.475
 4403POPC   GL157157  16.723   3.774   5.899
 4403POPC   GL257158  16.762   3.406   6.009
 4403POPC   C1A57159  16.869   3.774   6.320
 4403POPC   D2A57160  16.704   3.506   6.610
 4403POPC   C3A57161  16.828   3.731   6.949
 4403POPC   C4A57162  16.784   3.950   7.317
 4403POPC   C1B57163  16.691   3.069   6.332
 4403POPC   C2B57164  16.901   3.041   6.727
 4403POPC   C3B57165  16.937   3.258   7.118
 4403POPC   C4B57166  17.219   3.207   7.474
 4404POPC   NC357167  44.499  14.668   5.582
 4404POPC   PO457168   0.006  14.251   5.415
 4404POPC   GL157169  44.944  14.524   5.784
 4404POPC   GL257170   0.121  14.841   5.774
 4404POPC   C1A57171  44.713  14.442   6.200
 4404POPC   D2A57172  44.730  14.119   6.541
 4404POPC   C3A57173  44.873  14.232   6.943
 4404POPC   C4A57174  44.547  14.468   7.112
 4404POPC   C1B57175   0.209  14.619   6.196
 4404POPC   C2B57176   0.016  14.584   6.600
 4404POPC   C3B57177   0.036  14.725   7.037
 4404POPC   C4B57178  44.901  14.546   7.449
 4405POPC   NC357179   0.626   4.487   5.369
 4405POPC   PO457180   0.309   3.951   5.418
 4405POPC   GL157181   0.521   4.062   5.829
 4405POPC   GL257182   0.633   4.421   5.871
 4405POPC   C1A57183   0.675   4.127   6.274
 4405POPC   D2A57184   0.765   3.976   6.667
 4405POPC   C3A57185   0.515   4.092   7.030
 4405POPC   C4A57186   0.264   3.987   7.450
 4405POPC   C1B57187   0.369   4.539   6.248
 4405POPC   C2B57188   0.084   4.351   6.583
 4405POPC   C3B57189   0.015   4.225   7.005
 4405POPC   C4B57190   0.285   4.456   7.268
 4406POPC   NC357191  36.454  14.390   5.545
 4406POPC   PO457192  36.978  14.838   5.465
 4406POPC   GL157193  36.822  14.665   5.824
 4406POPC   GL257194  37.143  14.577   5.977
 4406POPC   C1A57195  36.667  14.532   6.215
 4406POPC   D2A57196  36.849  14.552   6.593
 4406POPC   C3A57197  36.762  14.474   7.018
 4406POPC   C4A57198  36.725  14.030   7.185
 4406POPC   C1B57199  37.239  14.811   6.370
 4406POPC   C2B57200  37.187  14.848   6.831
 4406POPC   C3B57201  37.254  14.589   7.220
 4406POPC   C4B57202  37.269  14.588   7.692
 4407POPC   NC357203  17.390   1.250   5.535
 4407POPC   PO457204  17.951   1.566   5.521
 4407POPC   GL157205  17.779   1.332   5.875
 4407POPC   GL257206  17.724   0.983   5.864
 4407POPC   C1A57207  17.589   1.389   6.267
 4407POPC   D2A57208  17.813   1.337   6.607
 4407POPC   C3A57209  17.629   1.422   7.027
 4407POPC   C4A57210  17.622   1.514   7.475
 4407POPC   C1B57211  17.454   0.914   6.249
 4407POPC   C2B57212  17.449   1.015   6.698
 4407POPC   C3B57213  17.614   0.923   7.095
 4407POPC   C4B57214  17.414   1.035   7.442
 4408POPC   NC357215  35.136   3.893   5.411
 4408POPC   PO457216  35.459   3.277   5.452
 4408POPC   GL157217  35.441   3.593   5.742
 4408POPC   GL257218  35.107   3.599   5.816
 4408POPC   C1A57219  35.450   3.659   6.199
 4408POPC   D2A57220  35.474   3.334   6.512
 4408POPC   C3A57221  35.291   3.383   6.901
 4408POPC   C4A57222  35.435   3.469   7.276
 4408POPC   C1B57223  34.958   3.850   6.167
 4408POPC   C2B57224  35.062   3.717   6.578
 4408POPC   C3B57225  35.349   3.884   6.893
 4408POPC   C4B57226  35.355   3.981   7.308
 4409POPC   NC357227  20.148   8.376   5.444
 4409POPC   PO457228  19.742   7.904   5.685
 4409POPC   GL157229  19.881   8.264   5.887
 4409POPC   GL257230  19.764   8.579   5.802
 4409POPC   C1A57231  20.035   8.260   6.280
 4409POPC   D2A57232  20.200   7.969   6.540
 4409POPC   C3A57233  20.035   8.148   6.902
 4409POPC   C4A57234  19.893   8.101   7.309
 4409POPC   C1B57235  19.767   8.698   6.225
 4409POPC   C2B57236  19.716   8.511   6.645
 4409POPC   C3B57237  19.794   8.557   7.096
 4409POPC   C4B57238  19.739   8.566   7.549
 4410POPC   NC357239  27.110  30.014   5.396
 4410POPC   PO457240  26.601  29.546   5.320
 4410POPC   GL157241  26.707  29.817   5.663
 4410POPC   GL257242  27.039  29.768   5.835
 4410POPC   C1A57243  26.634  30.036   6.053
 4410POPC   D2A57244  26.827  29.920   6.434
 4410POPC   C3A57245  26.815  30.032   6.846
 4410POPC   C4A57246  26.850  29.917   7.263
 4410POPC   C1B57247  27.281  29.822   6.220
 4410POPC   C2B57248  27.306  29.816   6.682
 4410POPC   C3B57249  27.307  30.049   7.064
 4410POPC   C4B57250  27.297  29.945   7.502
 4411POPC   NC357251  10.834  33.986   5.530
 4411POPC   PO457252  10.146  33.840   5.369
 4411POPC   GL157253  10.363  33.878   5.755
 4411POPC   GL257254  10.515  33.554   5.745
 4411POPC   C1A57255  10.505  34.054   6.173
 4411POPC   D2A57256  10.344  34.048   6.621
 4411POPC   C3A57257  10.608  33.976   6.981
 4411POPC   C4A57258  10.549  33.761   7.380
 4411POPC   C1B57259  10.384  33.543   6.166
 4411POPC   C2B57260  10.171  33.517   6.554
 4411POPC   C3B57261  10.298  33.572   6.966
 4411POPC   C4B57262  10.082  33.520   7.376
 4412POPC   NC357263  34.311  41.026   5.625
 4412POPC   PO457264  34.642  40.467   5.433
 4412POPC   GL157265  34.681  40.655   5.816
 4412POPC   GL257266  34.847  40.954   5.756
 4412POPC   C1A57267  34.432  40.617   6.181
 4412POPC   D2A57268  34.446  40.835   6.573
 4412POPC   C3A57269  34.331  40.663   6.963
 4412POPC   C4A57270  34.644  40.584   7.262
 4412POPC   C1B57271  34.721  41.091   6.208
 4412POPC   C2B57272  34.794  41.208   6.669
 4412POPC   C3B57273  34.669  41.089   7.121
 4412POPC   C4B57274  34.875  40.964   7.543
 4413POPC   NC357275  34.680  29.108   5.450
 4413POPC   PO457276  34.220  28.677   5.193
 4413POPC   GL157277  34.320  28.747   5.715
 4413POPC   GL257278  34.685  28.839   5.893
 4413POPC   C1A57279  34.303  29.017   6.158
 4413POPC   D2A57280  34.626  28.948   6.513
 4413POPC   C3A57281  34.728  29.200   6.919
 4413POPC   C4A57282  34.662  29.112   7.380
 4413POPC   C1B57283  34.757  29.281   6.135
 4413POPC   C2B57284  34.809  29.602   6.481
 4413POPC   C3B57285  34.922  29.696   6.914
 4413POPC   C4B57286  35.058  29.445   7.249
 4414POPC   NC357287  35.823  20.718   5.017
 4414POPC   PO457288  36.342  20.431   5.453
 4414POPC   GL157289  35.988  20.466   5.779
 4414POPC   GL257290  35.805  20.808   5.812
 4414POPC   C1A57291  35.928  20.507   6.229
 4414POPC   D2A57292  36.248  20.689   6.492
 4414POPC   C3A57293  36.214  20.688   6.938
 4414POPC   C4A57294  36.134  20.403   7.260
 4414POPC   C1B57295  35.865  20.991   6.258
 4414POPC   C2B57296  35.766  20.765   6.675
 4414POPC   C3B57297  35.726  20.684   7.134
 4414POPC   C4B57298  35.709  20.927   7.504
 4415POPC   NC357299  35.300  15.840   5.151
 4415POPC   PO457300  35.721  16.238   5.406
 4415POPC   GL157301  35.665  16.049   5.818
 4415POPC   GL257302  35.469  15.778   5.686
 4415POPC   C1A57303  35.548  15.997   6.285
 4415POPC   D2A57304  35.286  15.702   6.567
 4415POPC   C3A57305  35.198  15.896   6.995
 4415POPC   C4A57306  35.460  16.132   7.298
 4415POPC   C1B57307  35.689  15.580   6.040
 4415POPC   C2B57308  35.772  15.522   6.498
 4415POPC   C3B57309  35.620  15.595   6.945
 4415POPC   C4B57310  35.411  15.581   7.350
 4416POPC   NC357311   6.370   2.938   4.960
 4416POPC   PO457312   6.136   2.585   5.493
 4416POPC   GL157313   5.854   2.639   5.838
 4416POPC   GL257314   5.607   2.909   5.920
 4416POPC   C1A57315   5.794   2.500   6.259
 4416POPC   D2A57316   5.764   2.649   6.684
 4416POPC   C3A57317   5.986   2.531   7.065
 4416POPC   C4A57318   5.890   2.671   7.489
 4416POPC   C1B57319   5.956   2.981   6.229
 4416POPC   C2B57320   6.036   3.088   6.666
 4416POPC   C3B57321   5.999   3.034   7.123
 4416POPC   C4B57322   6.370   2.891   7.339
 4417POPC   NC357323  36.438  39.705   5.314
 4417POPC   PO457324  35.915  40.176   5.341
 4417POPC   GL157325  36.016  39.832   5.672
 4417POPC   GL257326  35.755  39.557   5.748
 4417POPC   C1A57327  36.218  39.891   6.094
 4417POPC   D2A57328  36.333  40.166   6.457
 4417POPC   C3A57329  36.240  40.048   6.895
 4417POPC   C4A57330  36.404  40.272   7.253
 4417POPC   C1B57331  35.706  39.804   6.125
 4417POPC   C2B57332  35.853  39.939   6.531
 4417POPC   C3B57333  35.779  39.751   6.948
 4417POPC   C4B57334  35.913  39.665   7.393
 4418POPC   NC357335  11.944   7.117   5.476
 4418POPC   PO457336  12.222   7.743   5.360
 4418POPC   GL157337  12.192   7.468   5.764
 4418POPC   GL257338  12.369   7.123   5.777
 4418POPC   C1A57339  12.008   7.510   6.211
 4418POPC   D2A57340  11.849   7.712   6.642
 4418POPC   C3A57341  11.848   7.542   7.109
 4418POPC   C4A57342  11.736   7.611   7.567
 4418POPC   C1B57343  12.344   7.074   6.252
 4418POPC   C2B57344  12.489   7.056   6.702
 4418POPC   C3B57345  12.237   7.197   7.060
 4418POPC   C4B57346  12.077   7.250   7.475
 4419POPC   NC357347  28.539  13.748   5.428
 4419POPC   PO457348  27.985  13.924   5.398
 4419POPC   GL157349  28.237  13.760   5.834
 4419POPC   GL257350  28.545  13.504   5.867
 4419POPC   C1A57351  28.374  13.664   6.306
 4419POPC   D2A57352  28.613  13.546   6.693
 4419POPC   C3A57353  28.331  13.551   7.052
 4419POPC   C4A57354  28.264  13.699   7.452
 4419POPC   C1B57355  28.683  13.242   6.239
 4419POPC   C2B57356  28.704  13.043   6.660
 4419POPC   C3B57357  28.664  13.171   7.102
 4419POPC   C4B57358  28.326  13.172   7.447
 4420POPC   NC357359  44.541  44.937   5.122
 4420POPC   PO457360  43.917  44.759   5.405
 4420POPC   GL157361  43.882  44.767   5.824
 4420POPC   GL257362  44.069   0.052   5.904
 4420POPC   C1A57363  43.763  44.488   6.158
 4420POPC   D2A57364  43.875  44.243   6.501
 4420POPC   C3A57365  43.793  44.490   6.841
 4420POPC   C4A57366  43.872  44.456   7.238
 4420POPC   C1B57367  44.225  44.729   6.191
 4420POPC   C2B57368  44.166  44.680   6.559
 4420POPC   C3B57369  44.209  44.795   6.931
 4420POPC   C4B57370  44.113  44.900   7.287
 4421POPC   NC357371  15.112  30.324   5.387
 4421POPC   PO457372  15.429  30.882   5.468
 4421POPC   GL157373  15.358  30.629   5.828
 4421POPC   GL257374  15.007  30.567   5.839
 4421POPC   C1A57375  15.423  30.541   6.290
 4421POPC   D2A57376  15.158  30.702   6.657
 4421POPC   C3A57377  15.218  30.793   7.113
 4421POPC   C4A57378  14.965  31.114   7.335
 4421POPC   C1B57379  14.946  30.338   6.227
 4421POPC   C2B57380  15.130  30.196   6.629
 4421POPC   C3B57381  15.126  30.255   7.055
 4421POPC   C4B57382  14.973  30.432   7.423
 4422POPC   NC357383  22.651   5.179   5.399
 4422POPC   PO457384  23.072   4.702   5.535
 4422POPC   GL157385  22.777   4.876   5.844
 4422POPC   GL257386  22.840   5.235   5.869
 4422POPC   C1A57387  22.778   4.977   6.300
 4422POPC   D2A57388  22.829   5.307   6.615
 4422POPC   C3A57389  22.694   5.073   6.961
 4422POPC   C4A57390  22.807   4.814   7.311
 4422POPC   C1B57391  23.172   5.300   6.172
 4422POPC   C2B57392  23.355   5.179   6.590
 4422POPC   C3B57393  23.238   5.296   7.011
 4422POPC   C4B57394  22.955   5.311   7.331
 4423POPC   NC357395  20.465  29.338   5.474
 4423POPC   PO457396  20.882  28.768   5.395
 4423POPC   GL157397  20.821  29.061   5.735
 4423POPC   GL257398  20.889  29.426   5.823
 4423POPC   C1A57399  20.606  29.070   6.129
 4423POPC   D2A57400  20.758  29.028   6.544
 4423POPC   C3A57401  20.524  29.010   6.919
 4423POPC   C4A57402  20.658  29.056   7.339
 4423POPC   C1B57403  20.841  29.496   6.302
 4423POPC   C2B57404  20.610  29.500   6.709
 4423POPC   C3B57405  20.492  29.489   7.150
 4423POPC   C4B57406  20.372  29.466   7.595
 4424POPC   NC357407   4.520  23.258   5.426
 4424POPC   PO457408   4.231  22.727   5.015
 4424POPC   GL157409   4.264  22.578   5.537
 4424POPC   GL257410   4.283  22.901   5.726
 4424POPC   C1A57411   4.249  22.511   6.031
 4424POPC   D2A57412   4.449  22.675   6.415
 4424POPC   C3A57413   4.335  22.558   6.840
 4424POPC   C4A57414   4.515  22.731   7.225
 4424POPC   C1B57415   4.037  22.981   6.124
 4424POPC   C2B57416   4.171  23.112   6.536
 4424POPC   C3B57417   4.453  23.068   6.850
 4424POPC   C4B57418   4.287  23.208   7.211
 4425POPC   NC357419  27.435  19.761   5.407
 4425POPC   PO457420  28.090  19.844   5.390
 4425POPC   GL157421  27.772  19.890   5.775
 4425POPC   GL257422  27.548  19.576   5.857
 4425POPC   C1A57423  27.636  20.174   6.131
 4425POPC   D2A57424  27.806  20.312   6.544
 4425POPC   C3A57425  27.591  20.302   6.930
 4425POPC   C4A57426  27.386  20.208   7.332
 4425POPC   C1B57427  27.416  19.741   6.253
 4425POPC   C2B57428  27.539  19.872   6.665
 4425POPC   C3B57429  27.329  19.789   7.049
 4425POPC   C4B57430  27.345  19.712   7.482
 4426POPC   NC357431   6.618  31.031   5.191
 4426POPC   PO457432   6.389  31.631   5.543
 4426POPC   GL157433   6.668  31.687   5.872
 4426POPC   GL257434   6.998  31.689   5.689
 4426POPC   C1A57435   6.521  31.711   6.311
 4426POPC   D2A57436   6.308  31.530   6.701
 4426POPC   C3A57437   6.537  31.282   7.043
 4426POPC   C4A57438   6.666  30.977   7.371
 4426POPC   C1B57439   7.102  31.505   6.097
 4426POPC   C2B57440   6.935  31.518   6.528
 4426POPC   C3B57441   7.033  31.597   6.938
 4426POPC   C4B57442   7.051  31.258   7.204
 4427POPC   NC357443  34.215  15.461   5.214
 4427POPC   PO457444  34.591  15.023   5.326
 4427POPC   GL157445  34.763  14.955   5.751
 4427POPC   GL257446  34.430  14.859   5.914
 4427POPC   C1A57447  34.838  14.914   6.208
 4427POPC   D2A57448  34.717  14.855   6.652
 4427POPC   C3A57449  34.724  15.139   6.985
 4427POPC   C4A57450  34.911  14.840   7.178
 4427POPC   C1B57451  34.334  15.037   6.351
 4427POPC   C2B57452  34.257  15.111   6.799
 4427POPC   C3B57453  34.188  15.242   7.231
 4427POPC   C4B57454  34.183  15.339   7.681
 4428POPC   NC357455  34.245  12.781   5.508
 4428POPC   PO457456  33.528  12.576   5.556
 4428POPC   GL157457  33.496  12.880   5.875
 4428POPC   GL257458  33.838  12.902   5.833
 4428POPC   C1A57459  33.496  12.920   6.332
 4428POPC   D2A57460  33.622  13.156   6.728
 4428POPC   C3A57461  33.560  12.864   7.071
 4428POPC   C4A57462  33.512  12.398   7.068
 4428POPC   C1B57463  34.045  12.834   6.223
 4428POPC   C2B57464  34.069  12.910   6.600
 4428POPC   C3B57465  34.060  12.765   6.972
 4428POPC   C4B57466  33.992  12.983   7.345
 4429POPC   NC357467  34.820  21.552   5.487
 4429POPC   PO457468  34.692  20.933   5.455
 4429POPC   GL157469  34.673  21.178   5.806
 4429POPC   GL257470  34.461  21.532   5.849
 4429POPC   C1A57471  34.520  21.144   6.178
 4429POPC   D2A57472  34.464  21.439   6.490
 4429POPC   C3A57473  34.460  21.285   6.883
 4429POPC   C4A57474  34.490  21.065   7.250
 4429POPC   C1B57475  34.180  21.741   6.169
 4429POPC   C2B57476  33.990  21.806   6.573
 4429POPC   C3B57477  34.109  21.640   6.975
 4429POPC   C4B57478  34.272  21.521   7.376
 4430POPC   NC357479  15.832   8.840   5.385
 4430POPC   PO457480  16.461   9.191   5.253
 4430POPC   GL157481  16.277   8.945   5.631
 4430POPC   GL257482  16.092   8.610   5.762
 4430POPC   C1A57483  16.275   8.934   6.094
 4430POPC   D2A57484  15.996   8.957   6.450
 4430POPC   C3A57485  16.161   9.223   6.773
 4430POPC   C4A57486  16.071   9.168   7.183
 4430POPC   C1B57487  15.757   8.621   6.106
 4430POPC   C2B57488  15.560   8.698   6.534
 4430POPC   C3B57489  15.746   8.817   6.921
 4430POPC   C4B57490  15.618   8.994   7.304
 4431POPC   NC357491  13.351   8.426   5.419
 4431POPC   PO457492  13.841   7.985   5.386
 4431POPC   GL157493  13.607   8.063   5.749
 4431POPC   GL257494  13.717   8.421   5.785
 4431POPC   C1A57495  13.594   8.075   6.214
 4431POPC   D2A57496  13.912   8.269   6.514
 4431POPC   C3A57497  13.732   8.245   6.913
 4431POPC   C4A57498  13.307   8.061   7.023
 4431POPC   C1B57499  13.633   8.586   6.206
 4431POPC   C2B57500  13.383   8.442   6.577
 4431POPC   C3B57501  13.314   8.566   7.014
 4431POPC   C4B57502  13.565   8.403   7.355
 4432POPC   NC357503  43.982  30.810   5.390
 4432POPC   PO457504  43.244  30.797   5.404
 4432POPC   GL157505  43.538  30.754   5.729
 4432POPC   GL257506  43.513  30.372   5.823
 4432POPC   C1A57507  43.727  30.777   6.158
 4432POPC   D2A57508  43.887  30.642   6.604
 4432POPC   C3A57509  43.947  30.918   6.982
 4432POPC   C4A57510  44.182  31.034   7.369
 4432POPC   C1B57511  43.576  30.257   6.292
 4432POPC   C2B57512  43.555  30.286   6.776
 4432POPC   C3B57513  43.786  30.433   7.144
 4432POPC   C4B57514  44.225  30.506   7.187
 4433POPC   NC357515   0.304   1.378   5.418
 4433POPC   PO457516   0.610   0.829   5.602
 4433POPC   GL157517   0.304   1.044   5.853
 4433POPC   GL257518   0.508   1.344   5.890
 4433POPC   C1A57519   0.242   1.204   6.299
 4433POPC   D2A57520   0.197   1.227   6.752
 4433POPC   C3A57521   0.512   1.295   7.073
 4433POPC   C4A57522   0.339   1.546   7.379
 4433POPC   C1B57523   0.755   1.104   6.219
 4433POPC   C2B57524   0.893   1.215   6.656
 4433POPC   C3B57525   0.932   1.620   6.866
 4433POPC   C4B57526   0.770   1.766   7.243
 4434POPC   NC357527  10.615  36.257   5.483
 4434POPC   PO457528  10.229  35.744   5.186
 4434POPC   GL157529  10.294  35.923   5.687
 4434POPC   GL257530  10.691  35.889   5.819
 4434POPC   C1A57531  10.432  36.217   6.098
 4434POPC   D2A57532  10.700  36.217   6.473
 4434POPC   C3A57533  10.511  36.355   6.857
 4434POPC   C4A57534  10.737  36.373   7.234
 4434POPC   C1B57535  10.517  35.739   6.245
 4434POPC   C2B57536  10.676  35.710   6.651
 4434POPC   C3B57537  10.774  35.927   6.997
 4434POPC   C4B57538  10.647  35.876   7.437
 4435POPC   NC357539  31.212  41.611   5.500
 4435POPC   PO457540  30.606  41.727   5.237
 4435POPC   GL157541  30.672  41.444   5.644
 4435POPC   GL257542  30.959  41.203   5.683
 4435POPC   C1A57543  30.524  41.378   6.116
 4435POPC   D2A57544  30.414  41.636   6.516
 4435POPC   C3A57545  30.509  41.497   6.937
 4435POPC   C4A57546  30.638  41.667   7.322
 4435POPC   C1B57547  31.046  41.367   6.120
 4435POPC   C2B57548  30.884  41.419   6.553
 4435POPC   C3B57549  30.999  41.397   6.989
 4435POPC   C4B57550  30.899  41.240   7.383
 4436POPC   NC357551  38.862  19.256   5.398
 4436POPC   PO457552  39.562  19.200   5.391
 4436POPC   GL157553  39.270  19.189   5.736
 4436POPC   GL257554  39.285  18.826   5.849
 4436POPC   C1A57555  39.314  19.274   6.178
 4436POPC   D2A57556  39.516  19.047   6.515
 4436POPC   C3A57557  39.486  19.218   6.940
 4436POPC   C4A57558  39.522  19.165   7.408
 4436POPC   C1B57559  39.052  18.859   6.276
 4436POPC   C2B57560  39.031  19.117   6.643
 4436POPC   C3B57561  39.103  18.894   6.993
 4436POPC   C4B57562  39.049  18.905   7.397
 4437POPC   NC357563  20.854  21.390   5.622
 4437POPC   PO457564  20.251  21.158   5.539
 4437POPC   GL157565  20.420  21.401   5.855
 4437POPC   GL257566  20.704  21.204   6.063
 4437POPC   C1A57567  20.440  21.599   6.228
 4437POPC   D2A57568  20.563  21.340   6.565
 4437POPC   C3A57569  20.499  21.517   6.943
 4437POPC   C4A57570  20.429  21.246   7.271
 4437POPC   C1B57571  20.972  21.523   6.308
 4437POPC   C2B57572  21.133  21.433   6.734
 4437POPC   C3B57573  20.956  21.369   7.150
 4437POPC   C4B57574  21.064  21.115   7.504
 4438POPC   NC357575  36.052  16.582   5.393
 4438POPC   PO457576  35.888  17.223   5.401
 4438POPC   GL157577  36.195  16.979   5.677
 4438POPC   GL257578  35.917  16.793   5.850
 4438POPC   C1A57579  36.374  16.746   6.055
 4438POPC   D2A57580  36.259  16.644   6.505
 4438POPC   C3A57581  36.340  16.623   6.978
 4438POPC   C4A57582  36.092  16.792   7.370
 4438POPC   C1B57583  35.944  16.421   6.156
 4438POPC   C2B57584  35.941  16.249   6.633
 4438POPC   C3B57585  35.913  16.358   7.134
 4438POPC   C4B57586  35.871  16.326   7.614
 4439POPC   NC357587  11.674   5.287   5.174
 4439POPC   PO457588  12.150   4.862   5.480
 4439POPC   GL157589  12.044   4.997   5.871
 4439POPC   GL257590  12.151   5.340   5.850
 4439POPC   C1A57591  12.152   4.827   6.271
 4439POPC   D2A57592  12.039   4.604   6.628
 4439POPC   C3A57593  12.216   4.741   6.989
 4439POPC   C4A57594  12.496   5.072   7.085
 4439POPC   C1B57595  12.046   5.338   6.278
 4439POPC   C2B57596  12.171   5.189   6.680
 4439POPC   C3B57597  12.020   5.228   7.091
 4439POPC   C4B57598  11.791   5.458   7.426
 4440POPC   NC357599  19.734   9.523   5.535
 4440POPC   PO457600  19.892   8.833   5.390
 4440POPC   GL157601  19.948   9.093   5.751
 4440POPC   GL257602  19.604   9.081   5.781
 4440POPC   C1A57603  20.052   9.121   6.207
 4440POPC   D2A57604  20.110   8.885   6.596
 4440POPC   C3A57605  20.036   8.988   7.006
 4440POPC   C4A57606  19.689   9.017   7.283
 4440POPC   C1B57607  19.431   9.111   6.180
 4440POPC   C2B57608  19.589   9.026   6.590
 4440POPC   C3B57609  19.381   8.850   6.918
 4440POPC   C4B57610  19.197   8.999   7.324
 4441POPC   NC357611  25.359  41.395   5.365
 4441POPC   PO457612  25.035  42.073   5.387
 4441POPC   GL157613  24.985  41.783   5.770
 4441POPC   GL257614  25.026  41.421   5.761
 4441POPC   C1A57615  24.898  41.567   6.216
 4441POPC   D2A57616  25.199  41.443   6.555
 4441POPC   C3A57617  25.090  41.409   6.980
 4441POPC   C4A57618  24.909  41.774   7.215
 4441POPC   C1B57619  25.386  41.607   6.038
 4441POPC   C2B57620  25.638  41.657   6.427
 4441POPC   C3B57621  25.629  41.487   6.869
 4441POPC   C4B57622  25.449  41.603   7.276
 4442POPC   NC357623   1.791  44.312   5.485
 4442POPC   PO457624   2.061  43.682   5.356
 4442POPC   GL157625   1.969  43.906   5.767
 4442POPC   GL257626   2.199  44.208   5.818
 4442POPC   C1A57627   1.776  43.992   6.188
 4442POPC   D2A57628   1.525  44.060   6.557
 4442POPC   C3A57629   1.744  43.875   6.866
 4442POPC   C4A57630   1.834  43.888   7.237
 4442POPC   C1B57631   2.299  43.982   6.201
 4442POPC   C2B57632   2.192  43.665   6.517
 4442POPC   C3B57633   2.148  43.537   6.941
 4442POPC   C4B57634   2.303  43.952   7.013
 4443POPC   NC357635   1.593  15.577   5.574
 4443POPC   PO457636   1.197  16.057   5.231
 4443POPC   GL157637   1.125  15.973   5.678
 4443POPC   GL257638   0.755  16.053   5.690
 4443POPC   C1A57639   1.347  15.880   6.107
 4443POPC   D2A57640   1.418  16.037   6.524
 4443POPC   C3A57641   1.580  15.845   6.856
 4443POPC   C4A57642   1.423  15.987   7.202
 4443POPC   C1B57643   0.846  15.893   6.115
 4443POPC   C2B57644   0.848  15.914   6.568
 4443POPC   C3B57645   0.900  15.954   7.019
 4443POPC   C4B57646   1.038  15.767   7.427
 4444POPC   NC357647   2.258  14.051   5.465
 4444POPC   PO457648   1.806  13.475   5.392
 4444POPC   GL157649   1.881  13.747   5.728
 4444POPC   GL257650   2.209  13.643   5.806
 4444POPC   C1A57651   1.887  13.809   6.175
 4444POPC   D2A57652   1.708  13.559   6.495
 4444POPC   C3A57653   1.770  13.741   6.887
 4444POPC   C4A57654   1.834  13.508   7.232
 4444POPC   C1B57655   2.152  13.383   6.196
 4444POPC   C2B57656   2.198  13.516   6.654
 4444POPC   C3B57657   2.325  13.538   7.097
 4444POPC   C4B57658   2.229  13.169   7.386
 4445POPC   NC357659   1.518  41.559   5.073
 4445POPC   PO457660   2.079  41.632   5.368
 4445POPC   GL157661   1.855  41.561   5.755
 4445POPC   GL257662   2.185  41.478   5.866
 4445POPC   C1A57663   1.756  41.416   6.199
 4445POPC   D2A57664   1.823  41.610   6.609
 4445POPC   C3A57665   1.656  41.463   6.992
 4445POPC   C4A57666   1.832  41.580   7.384
 4445POPC   C1B57667   2.231  41.237   6.226
 4445POPC   C2B57668   2.285  41.354   6.626
 4445POPC   C3B57669   2.179  41.497   7.004
 4445POPC   C4B57670   2.274  41.343   7.388
 4446POPC   NC357671  12.307   4.422   5.379
 4446POPC   PO457672  11.963   3.882   5.416
 4446POPC   GL157673  12.181   4.091   5.780
 4446POPC   GL257674  12.072   4.461   5.853
 4446POPC   C1A57675  12.100   4.132   6.236
 4446POPC   D2A57676  11.815   4.139   6.608
 4446POPC   C3A57677  12.078   4.217   6.987
 4446POPC   C4A57678  12.264   4.080   7.381
 4446POPC   C1B57679  11.735   4.507   6.209
 4446POPC   C2B57680  11.523   4.567   6.628
 4446POPC   C3B57681  11.699   4.560   7.044
 4446POPC   C4B57682  11.927   4.730   7.418
 4447POPC   NC357683  23.754  26.814   5.416
 4447POPC   PO457684  24.164  26.363   5.446
 4447POPC   GL157685  23.959  26.562   5.843
 4447POPC   GL257686  23.692  26.835   5.908
 4447POPC   C1A57687  23.811  26.540   6.289
 4447POPC   D2A57688  23.864  26.311   6.645
 4447POPC   C3A57689  23.805  26.631   6.943
 4447POPC   C4A57690  23.472  26.705   7.229
 4447POPC   C1B57691  23.629  27.044   6.293
 4447POPC   C2B57692  23.671  27.108   6.734
 4447POPC   C3B57693  23.484  27.213   7.108
 4447POPC   C4B57694  23.415  27.134   7.534
 4448POPC   NC357695  36.669  35.616   5.405
 4448POPC   PO457696  37.217  35.486   4.952
 4448POPC   GL157697  37.085  35.336   5.515
 4448POPC   GL257698  36.721  35.213   5.702
 4448POPC   C1A57699  37.132  35.163   6.003
 4448POPC   D2A57700  36.939  35.158   6.465
 4448POPC   C3A57701  37.131  35.330   6.868
 4448POPC   C4A57702  36.973  35.566   7.247
 4448POPC   C1B57703  36.717  35.490   6.101
 4448POPC   C2B57704  36.586  35.537   6.560
 4448POPC   C3B57705  36.603  35.294   6.952
 4448POPC   C4B57706  36.327  35.194   7.286
 4449POPC   NC357707  41.835  17.829   5.323
 4449POPC   PO457708  41.267  17.473   5.241
 4449POPC   GL157709  41.472  17.604   5.632
 4449POPC   GL257710  41.203  17.515   5.800
 4449POPC   C1A57711  41.619  17.645   6.097
 4449POPC   D2A57712  41.734  17.827   6.519
 4449POPC   C3A57713  41.638  17.658   6.954
 4449POPC   C4A57714  41.833  17.584   7.364
 4449POPC   C1B57715  41.134  17.432   6.225
 4449POPC   C2B57716  41.346  17.407   6.586
 4449POPC   C3B57717  41.212  17.377   6.982
 4449POPC   C4B57718  41.299  17.590   7.368
 4450POPC   NC357719   8.055  29.360   5.247
 4450POPC   PO457720   8.347  28.830   5.520
 4450POPC   GL157721   8.481  29.163   5.833
 4450POPC   GL257722   8.207  29.434   5.769
 4450POPC   C1A57723   8.475  29.167   6.323
 4450POPC   D2A57724   8.102  29.210   6.652
 4450POPC   C3A57725   8.085  29.062   7.100
 4450POPC   C4A57726   8.445  29.005   7.361
 4450POPC   C1B57727   8.276  29.634   6.175
 4450POPC   C2B57728   8.428  29.608   6.602
 4450POPC   C3B57729   8.399  29.479   7.025
 4450POPC   C4B57730   8.176  29.495   7.379
 4451POPC   NC357731   9.319  12.425   5.337
 4451POPC   PO457732   9.798  12.008   5.268
 4451POPC   GL157733   9.514  12.063   5.665
 4451POPC   GL257734   9.591  11.791   5.907
 4451POPC   C1A57735   9.469  12.238   6.134
 4451POPC   D2A57736   9.600  12.165   6.602
 4451POPC   C3A57737   9.531  12.427   6.985
 4451POPC   C4A57738   9.770  12.376   7.423
 4451POPC   C1B57739   9.388  11.764   6.346
 4451POPC   C2B57740   9.437  11.706   6.814
 4451POPC   C3B57741   9.596  11.954   7.152
 4451POPC   C4B57742   9.880  11.895   7.502
 4452POPC   NC357743  15.768  28.777   5.586
 4452POPC   PO457744  15.834  28.169   5.335
 4452POPC   GL157745  16.016  28.318   5.719
 4452POPC   GL257746  15.688  28.327   5.822
 4452POPC   C1A57747  15.988  28.541   6.157
 4452POPC   D2A57748  15.826  28.563   6.550
 4452POPC   C3A57749  16.122  28.485   6.860
 4452POPC   C4A57750  16.109  28.305   7.255
 4452POPC   C1B57751  15.570  28.193   6.202
 4452POPC   C2B57752  15.448  28.208   6.607
 4452POPC   C3B57753  15.630  28.309   6.985
 4452POPC   C4B57754  15.634  27.986   7.281
 4453POPC   NC357755   4.718   5.854   5.491
 4453POPC   PO457756   4.125   6.075   5.388
 4453POPC   GL157757   4.229   5.701   5.674
 4453POPC   GL257758   4.504   5.454   5.771
 4453POPC   C1A57759   4.225   5.798   6.113
 4453POPC   D2A57760   4.159   6.112   6.436
 4453POPC   C3A57761   4.113   5.932   6.827
 4453POPC   C4A57762   4.232   6.096   7.213
 4453POPC   C1B57763   4.729   5.670   6.134
 4453POPC   C2B57764   4.589   5.868   6.559
 4453POPC   C3B57765   4.559   5.706   7.009
 4453POPC   C4B57766   4.670   5.344   7.306
 4454POPC   NC357767  36.205  44.326   5.427
 4454POPC   PO457768  36.521  44.934   5.318
 4454POPC   GL157769  36.393  44.716   5.684
 4454POPC   GL257770  36.070  44.774   5.688
 4454POPC   C1A57771  36.373  44.548   6.100
 4454POPC   D2A57772  36.540  44.640   6.510
 4454POPC   C3A57773  36.441  44.477   6.879
 4454POPC   C4A57774  36.281  44.565   7.245
 4454POPC   C1B57775  35.942  44.866   6.085
 4454POPC   C2B57776  35.765  44.673   6.444
 4454POPC   C3B57777  35.948  44.683   6.847
 4454POPC   C4B57778  35.781  44.605   7.234
 4455POPC   NC357779  38.494  11.394   5.212
 4455POPC   PO457780  38.842  11.511   5.755
 4455POPC   GL157781  38.521  11.285   5.939
 4455POPC   GL257782  38.200  11.398   5.791
 4455POPC   C1A57783  38.540  11.061   6.344
 4455POPC   D2A57784  38.654  10.964   6.781
 4455POPC   C3A57785  38.610  11.310   7.037
 4455POPC   C4A57786  38.794  11.692   7.128
 4455POPC   C1B57787  38.098  11.299   6.247
 4455POPC   C2B57788  38.154  11.191   6.720
 4455POPC   C3B57789  38.127  11.285   7.196
 4455POPC   C4B57790  38.131  11.583   7.568
 4456POPC   NC357791  13.516  44.610   5.276
 4456POPC   PO457792  14.175  44.739   5.282
 4456POPC   GL157793  13.836  44.592   5.697
 4456POPC   GL257794  13.445  44.606   5.778
 4456POPC   C1A57795  13.766  44.378   6.129
 4456POPC   D2A57796  13.843  44.412   6.613
 4456POPC   C3A57797  13.568  44.671   6.900
 4456POPC   C4A57798  13.392  44.704   7.324
 4456POPC   C1B57799  13.313  44.645   6.231
 4456POPC   C2B57800  13.286  44.362   6.609
 4456POPC   C3B57801  13.324  44.228   7.077
 4456POPC   C4B57802  13.288  44.254   7.563
 4457POPC   NC357803  26.582  18.044   5.432
 4457POPC   PO457804  27.199  18.351   5.513
 4457POPC   GL157805  26.898  18.271   5.794
 4457POPC   GL257806  26.713  18.566   5.694
 4457POPC   C1A57807  26.964  18.183   6.237
 4457POPC   D2A57808  27.009  18.398   6.645
 4457POPC   C3A57809  27.221  18.184   6.951
 4457POPC   C4A57810  26.905  18.123   7.190
 4457POPC   C1B57811  26.756  18.645   6.133
 4457POPC   C2B57812  26.578  18.656   6.579
 4457POPC   C3B57813  26.674  18.578   7.037
 4457POPC   C4B57814  26.601  18.630   7.489
 4458POPC   NC357815  20.083  15.144   5.338
 4458POPC   PO457816  19.431  15.060   5.305
 4458POPC   GL157817  19.718  15.191   5.706
 4458POPC   GL257818  20.076  15.381   5.789
 4458POPC   C1A57819  19.648  15.166   6.164
 4458POPC   D2A57820  19.420  14.983   6.504
 4458POPC   C3A57821  19.676  14.806   6.835
 4458POPC   C4A57822  19.650  14.916   7.284
 4458POPC   C1B57823  20.136  15.072   6.094
 4458POPC   C2B57824  20.031  15.076   6.555
 4458POPC   C3B57825  19.981  15.202   7.016
 4458POPC   C4B57826  19.943  15.281   7.457
 4459POPC   NC357827  25.302   8.742   5.536
 4459POPC   PO457828  25.376   9.406   5.342
 4459POPC   GL157829  25.448   9.214   5.757
 4459POPC   GL257830  25.107   9.110   5.861
 4459POPC   C1A57831  25.514   8.914   6.140
 4459POPC   D2A57832  25.341   8.686   6.529
 4459POPC   C3A57833  25.396   8.909   6.965
 4459POPC   C4A57834  25.448   9.273   7.256
 4459POPC   C1B57835  25.166   9.247   6.305
 4459POPC   C2B57836  24.971   9.466   6.654
 4459POPC   C3B57837  24.945   9.376   7.100
 4459POPC   C4B57838  25.067   9.572   7.509
 4460POPC   NC357839  37.049  23.788   5.442
 4460POPC   PO457840  36.543  23.454   5.634
 4460POPC   GL157841  36.836  23.614   5.890
 4460POPC   GL257842  36.729  23.931   5.854
 4460POPC   C1A57843  36.879  23.654   6.329
 4460POPC   D2A57844  37.220  23.578   6.609
 4460POPC   C3A57845  37.128  23.553   7.046
 4460POPC   C4A57846  37.265  23.171   7.223
 4460POPC   C1B57847  36.468  24.048   6.215
 4460POPC   C2B57848  36.368  23.922   6.652
 4460POPC   C3B57849  36.698  23.879   6.991
 4460POPC   C4B57850  36.664  23.907   7.446
 4461POPC   NC357851  29.263  31.186   5.400
 4461POPC   PO457852  28.725  31.615   5.452
 4461POPC   GL157853  28.999  31.448   5.791
 4461POPC   GL257854  28.919  31.116   5.787
 4461POPC   C1A57855  29.281  31.505   6.154
 4461POPC   D2A57856  29.674  31.486   6.420
 4461POPC   C3A57857  29.598  31.343   6.847
 4461POPC   C4A57858  29.236  31.459   7.099
 4461POPC   C1B57859  28.868  31.157   6.225
 4461POPC   C2B57860  28.923  31.395   6.604
 4461POPC   C3B57861  28.767  31.279   7.010
 4461POPC   C4B57862  28.875  30.946   7.277
 4462POPC   NC357863  27.014  14.454   5.124
 4462POPC   PO457864  27.611  14.668   5.284
 4462POPC   GL157865  27.771  14.588   5.732
 4462POPC   GL257866  27.443  14.518   5.853
 4462POPC   C1A57867  27.832  14.449   6.180
 4462POPC   D2A57868  27.623  14.424   6.612
 4462POPC   C3A57869  27.823  14.452   7.057
 4462POPC   C4A57870  27.694  14.321   7.488
 4462POPC   C1B57871  27.440  14.785   6.209
 4462POPC   C2B57872  27.331  14.856   6.596
 4462POPC   C3B57873  27.269  14.602   6.951
 4462POPC   C4B57874  27.330  14.733   7.354
 4463POPC   NC357875  14.903   4.586   5.371
 4463POPC   PO457876  15.544   4.303   5.372
 4463POPC   GL157877  15.231   4.368   5.728
 4463POPC   GL257878  14.895   4.158   5.718
 4463POPC   C1A57879  15.111   4.265   6.162
 4463POPC   D2A57880  15.012   4.471   6.539
 4463POPC   C3A57881  15.212   4.323   6.916
 4463POPC   C4A57882  15.089   4.578   7.268
 4463POPC   C1B57883  14.640   4.100   6.134
 4463POPC   C2B57884  14.524   4.253   6.567
 4463POPC   C3B57885  14.716   4.304   6.980
 4463POPC   C4B57886  14.978   4.100   7.349
 4464POPC   NC357887   1.023  10.135   5.196
 4464POPC   PO457888   1.040   9.418   5.298
 4464POPC   GL157889   1.074   9.800   5.632
 4464POPC   GL257890   1.345   9.667   5.814
 4464POPC   C1A57891   1.096   9.970   6.122
 4464POPC   D2A57892   0.994   9.815   6.591
 4464POPC   C3A57893   1.194   9.986   7.012
 4464POPC   C4A57894   1.405   9.852   7.444
 4464POPC   C1B57895   1.277   9.456   6.232
 4464POPC   C2B57896   1.417   9.506   6.678
 4464POPC   C3B57897   1.226   9.475   7.101
 4464POPC   C4B57898   1.325   9.355   7.541
 4465POPC   NC357899  20.819   5.413   5.368
 4465POPC   PO457900  20.445   4.896   5.458
 4465POPC   GL157901  20.615   4.912   5.842
 4465POPC   GL257902  20.668   5.252   5.839
 4465POPC   C1A57903  20.531   4.867   6.297
 4465POPC   D2A57904  20.414   5.128   6.689
 4465POPC   C3A57905  20.526   5.027   7.121
 4465POPC   C4A57906  20.330   4.856   7.478
 4465POPC   C1B57907  20.822   5.508   6.173
 4465POPC   C2B57908  20.677   5.583   6.561
 4465POPC   C3B57909  20.785   5.415   6.943
 4465POPC   C4B57910  20.834   5.594   7.325
 4466POPC   NC357911   5.644   1.493   5.364
 4466POPC   PO457912   5.638   0.832   5.463
 4466POPC   GL157913   5.854   0.923   5.819
 4466POPC   GL257914   6.069   1.216   5.759
 4466POPC   C1A57915   5.763   1.180   6.171
 4466POPC   D2A57916   5.738   1.375   6.550
 4466POPC   C3A57917   5.847   1.099   6.878
 4466POPC   C4A57918   5.742   1.318   7.190
 4466POPC   C1B57919   6.263   1.463   6.112
 4466POPC   C2B57920   6.172   1.684   6.502
 4466POPC   C3B57921   5.969   1.693   6.903
 4466POPC   C4B57922   6.160   1.575   7.305
 4467POPC   NC357923   4.734  22.348   5.450
 4467POPC   PO457924   5.245  22.029   5.114
 4467POPC   GL157925   5.213  22.127   5.614
 4467POPC   GL257926   4.913  22.004   5.795
 4467POPC   C1A57927   5.267  22.214   6.109
 4467POPC   D2A57928   5.161  21.927   6.479
 4467POPC   C3A57929   5.022  21.944   6.920
 4467POPC   C4A57930   5.265  22.198   7.195
 4467POPC   C1B57931   4.759  22.306   6.132
 4467POPC   C2B57932   4.737  22.270   6.581
 4467POPC   C3B57933   4.835  22.418   6.982
 4467POPC   C4B57934   4.766  22.275   7.374
 4468POPC   NC357935  30.520  30.043   5.315
 4468POPC   PO457936  31.144  30.045   5.388
 4468POPC   GL157937  30.914  29.808   5.729
 4468POPC   GL257938  30.537  29.800   5.770
 4468POPC   C1A57939  30.862  29.749   6.187
 4468POPC   D2A57940  31.033  29.613   6.606
 4468POPC   C3A57941  30.912  29.888   6.954
 4468POPC   C4A57942  30.610  29.858   7.274
 4468POPC   C1B57943  30.392  30.006   6.161
 4468POPC   C2B57944  30.406  30.188   6.567
 4468POPC   C3B57945  30.261  30.072   6.973
 4468POPC   C4B57946  30.331  30.267   7.371
 4469POPC   NC357947  36.587  10.807   5.429
 4469POPC   PO457948  36.008  10.370   5.536
 4469POPC   GL157949  35.954  10.589   5.939
 4469POPC   GL257950  36.314  10.685   5.899
 4469POPC   C1A57951  35.854  10.553   6.398
 4469POPC   D2A57952  36.124  10.295   6.690
 4469POPC   C3A57953  36.208  10.407   7.143
 4469POPC   C4A57954  35.885  10.300   7.493
 4469POPC   C1B57955  36.348  10.657   6.356
 4469POPC   C2B57956  36.185  10.797   6.754
 4469POPC   C3B57957  36.381  10.969   7.086
 4469POPC   C4B57958  36.524  10.735   7.434
 4470POPC   NC357959  37.863  25.906   5.124
 4470POPC   PO457960  38.034  25.897   5.738
 4470POPC   GL157961  37.772  26.067   6.070
 4470POPC   GL257962  37.439  26.022   6.016
 4470POPC   C1A57963  37.669  26.240   6.451
 4470POPC   D2A57964  37.940  26.092   6.743
 4470POPC   C3A57965  37.825  26.027   7.131
 4470POPC   C4A57966  38.113  26.087   7.394
 4470POPC   C1B57967  37.156  26.120   6.362
 4470POPC   C2B57968  37.280  26.120   6.814
 4470POPC   C3B57969  37.305  25.943   7.253
 4470POPC   C4B57970  37.276  25.858   7.701
 4471POPC   NC357971   2.219  26.215   5.407
 4471POPC   PO457972   1.580  25.896   5.428
 4471POPC   GL157973   1.868  26.035   5.789
 4471POPC   GL257974   2.260  25.939   5.843
 4471POPC   C1A57975   1.947  26.043   6.249
 4471POPC   D2A57976   2.051  26.306   6.553
 4471POPC   C3A57977   1.953  26.138   6.927
 4471POPC   C4A57978   1.955  26.244   7.367
 4471POPC   C1B57979   2.382  25.751   6.252
 4471POPC   C2B57980   2.323  25.868   6.675
 4471POPC   C3B57981   2.455  26.229   6.939
 4471POPC   C4B57982   2.458  26.123   7.370
 4472POPC   NC357983  24.019  43.412   5.507
 4472POPC   PO457984  24.443  42.879   5.365
 4472POPC   GL157985  24.391  43.090   5.744
 4472POPC   GL257986  24.144  42.925   5.927
 4472POPC   C1A57987  24.432  43.376   6.127
 4472POPC   D2A57988  24.599  43.274   6.560
 4472POPC   C3A57989  24.343  43.411   6.906
 4472POPC   C4A57990  24.411  43.316   7.357
 4472POPC   C1B57991  24.517  42.871   6.180
 4472POPC   C2B57992  24.409  42.784   6.591
 4472POPC   C3B57993  24.437  42.900   7.016
 4472POPC   C4B57994  24.741  42.827   7.307
 4473POPC   NC357995   7.706  16.099   5.486
 4473POPC   PO457996   7.254  15.544   5.448
 4473POPC   GL157997   7.512  15.689   5.790
 4473POPC   GL257998   7.383  16.039   5.869
 4473POPC   C1A57999   7.506  15.744   6.255
 4473POPC   D2A58000   7.378  15.858   6.668
 4473POPC   C3A58001   7.493  15.590   7.028
 4473POPC   C4A58002   7.329  15.752   7.423
 4473POPC   C1B58003   7.370  16.257   6.272
 4473POPC   C2B58004   7.538  16.335   6.695
 4473POPC   C3B58005   7.558  16.122   7.101
 4473POPC   C4B58006   7.885  16.257   7.344
 4474POPC   NC358007   8.362  34.133   5.106
 4474POPC   PO458008   8.158  34.720   5.405
 4474POPC   GL158009   8.202  34.792   5.802
 4474POPC   GL258010   7.938  34.545   5.893
 4474POPC   C1A58011   8.457  34.899   6.140
 4474POPC   D2A58012   8.216  34.915   6.512
 4474POPC   C3A58013   8.439  34.793   6.868
 4474POPC   C4A58014   8.280  34.595   7.238
 4474POPC   C1B58015   8.199  34.453   6.264
 4474POPC   C2B58016   8.147  34.382   6.708
 4474POPC   C3B58017   8.084  34.150   7.095
 4474POPC   C4B58018   7.720  34.147   7.324
 4475POPC   NC358019  12.334  44.598   5.330
 4475POPC   PO458020  11.640  44.507   5.522
 4475POPC   GL158021  11.971  44.670   5.839
 4475POPC   GL258022  12.295  44.832   5.794
 4475POPC   C1A58023  12.022  44.836   6.285
 4475POPC   D2A58024  11.755  44.986   6.657
 4475POPC   C3A58025  11.984  44.837   7.013
 4475POPC   C4A58026  11.891  44.833   7.454
 4475POPC   C1B58027  12.427  44.564   6.166
 4475POPC   C2B58028  12.321  44.454   6.579
 4475POPC   C3B58029  12.466  44.595   6.953
 4475POPC   C4B58030  12.319  44.545   7.349
 4476POPC   NC358031  32.046   3.702   5.517
 4476POPC   PO458032  32.616   3.366   5.413
 4476POPC   GL158033  32.404   3.512   5.811
 4476POPC   GL258034  32.064   3.287   5.799
 4476POPC   C1A58035  32.377   3.683   6.262
 4476POPC   D2A58036  32.598   3.526   6.663
 4476POPC   C3A58037  32.749   3.744   7.062
 4476POPC   C4A58038  32.497   3.686   7.449
 4476POPC   C1B58039  31.912   3.430   6.221
 4476POPC   C2B58040  32.070   3.504   6.663
 4476POPC   C3B58041  32.120   3.548   7.123
 4476POPC   C4B58042  31.960   3.303   7.510
 4477POPC   NC358043  32.610  38.873   5.611
 4477POPC   PO458044  32.034  39.203   5.374
 4477POPC   GL158045  32.203  39.118   5.793
 4477POPC   GL258046  32.419  39.358   5.859
 4477POPC   C1A58047  32.276  39.060   6.249
 4477POPC   D2A58048  32.099  39.220   6.603
 4477POPC   C3A58049  32.246  39.071   6.985
 4477POPC   C4A58050  32.009  39.276   7.275
 4477POPC   C1B58051  32.627  39.444   6.228
 4477POPC   C2B58052  32.620  39.312   6.628
 4477POPC   C3B58053  32.754  39.186   7.006
 4477POPC   C4B58054  32.505  39.422   7.269
 4478POPC   NC358055  35.063   2.934   5.324
 4478POPC   PO458056  35.623   2.587   5.313
 4478POPC   GL158057  35.563   2.834   5.746
 4478POPC   GL258058  35.201   2.949   5.808
 4478POPC   C1A58059  35.465   2.881   6.231
 4478POPC   D2A58060  35.235   2.663   6.574
 4478POPC   C3A58061  35.328   2.888   6.937
 4478POPC   C4A58062  35.598   2.931   7.280
 4478POPC   C1B58063  35.076   3.229   6.152
 4478POPC   C2B58064  34.998   3.125   6.575
 4478POPC   C3B58065  34.844   3.081   6.989
 4478POPC   C4B58066  35.090   3.024   7.378
 4479POPC   NC358067  33.549  43.206   5.420
 4479POPC   PO458068  34.099  42.988   5.445
 4479POPC   GL158069  33.798  43.037   5.836
 4479POPC   GL258070  33.586  43.354   5.892
 4479POPC   C1A58071  33.761  43.077   6.308
 4479POPC   D2A58072  33.968  43.055   6.725
 4479POPC   C3A58073  33.682  43.088   7.106
 4479POPC   C4A58074  33.552  42.927   7.552
 4479POPC   C1B58075  33.946  43.516   6.068
 4479POPC   C2B58076  33.871  43.672   6.459
 4479POPC   C3B58077  33.843  43.539   6.866
 4479POPC   C4B58078  34.184  43.381   7.099
 4480POPC   NC358079  27.014  15.710   5.308
 4480POPC   PO458080  26.559  16.147   5.363
 4480POPC   GL158081  26.645  16.078   5.778
 4480POPC   GL258082  26.992  16.005   5.753
 4480POPC   C1A58083  26.743  15.837   6.162
 4480POPC   D2A58084  26.815  16.033   6.561
 4480POPC   C3A58085  26.720  15.852   6.957
 4480POPC   C4A58086  26.727  16.121   7.274
 4480POPC   C1B58087  27.136  16.205   6.143
 4480POPC   C2B58088  27.316  16.074   6.519
 4480POPC   C3B58089  27.175  16.117   6.957
 4480POPC   C4B58090  27.381  16.423   7.178
 4481POPC   NC358091   7.561  35.607   5.320
 4481POPC   PO458092   7.536  36.327   5.323
 4481POPC   GL158093   7.399  36.057   5.717
 4481POPC   GL258094   7.731  35.887   5.732
 4481POPC   C1A58095   7.279  35.971   6.204
 4481POPC   D2A58096   7.132  36.048   6.651
 4481POPC   C3A58097   7.319  36.333   6.978
 4481POPC   C4A58098   7.660  36.411   7.278
 4481POPC   C1B58099   7.743  36.154   6.110
 4481POPC   C2B58100   7.673  36.269   6.542
 4481POPC   C3B58101   7.751  36.053   6.917
 4481POPC   C4B58102   7.503  35.903   7.231
 4482POPC   NC358103  39.051  34.975   5.510
 4482POPC   PO458104  39.345  35.626   5.494
 4482POPC   GL158105  39.177  35.402   5.828
 4482POPC   GL258106  39.452  35.127   5.817
 4482POPC   C1A58107  38.981  35.576   6.226
 4482POPC   D2A58108  38.794  35.735   6.640
 4482POPC   C3A58109  38.988  35.535   7.019
 4482POPC   C4A58110  39.081  35.747   7.439
 4482POPC   C1B58111  39.570  35.426   6.176
 4482POPC   C2B58112  39.634  35.658   6.586
 4482POPC   C3B58113  39.507  35.548   7.030
 4482POPC   C4B58114  39.333  35.326   7.401
 4483POPC   NC358115  34.259  37.590   5.503
 4483POPC   PO458116  34.829  37.772   5.649
 4483POPC   GL158117  34.555  37.627   5.942
 4483POPC   GL258118  34.596  37.317   5.787
 4483POPC   C1A58119  34.554  37.799   6.362
 4483POPC   D2A58120  34.920  37.896   6.643
 4483POPC   C3A58121  34.768  37.875   7.043
 4483POPC   C4A58122  34.318  38.059   7.124
 4483POPC   C1B58123  34.695  37.163   6.184
 4483POPC   C2B58124  34.701  37.351   6.595
 4483POPC   C3B58125  34.726  37.348   7.014
 4483POPC   C4B58126  34.412  37.552   7.232
 4484POPC   NC358127  42.704  10.322   5.591
 4484POPC   PO458128  42.314   9.890   5.084
 4484POPC   GL158129  42.397   9.715   5.566
 4484POPC   GL258130  42.714   9.816   5.738
 4484POPC   C1A58131  42.245   9.726   6.063
 4484POPC   D2A58132  42.088   9.919   6.501
 4484POPC   C3A58133  42.242   9.826   6.952
 4484POPC   C4A58134  42.278   9.871   7.444
 4484POPC   C1B58135  42.737   9.613   6.154
 4484POPC   C2B58136  42.498   9.578   6.529
 4484POPC   C3B58137  42.587   9.416   6.936
 4484POPC   C4B58138  42.270   9.380   7.227
 4485POPC   NC358139  28.954  33.913   5.376
 4485POPC   PO458140  29.593  33.928   5.583
 4485POPC   GL158141  29.284  33.992   5.868
 4485POPC   GL258142  29.079  33.686   5.824
 4485POPC   C1A58143  29.169  33.872   6.303
 4485POPC   D2A58144  29.265  33.542   6.600
 4485POPC   C3A58145  29.366  33.692   7.029
 4485POPC   C4A58146  29.111  33.915   7.348
 4485POPC   C1B58147  28.917  33.423   6.187
 4485POPC   C2B58148  28.751  33.444   6.633
 4485POPC   C3B58149  28.871  33.569   7.053
 4485POPC   C4B58150  28.878  33.456   7.507
 4486POPC   NC358151  33.933   0.954   5.437
 4486POPC   PO458152  33.854   0.131   5.333
 4486POPC   GL158153  33.953   0.396   5.707
 4486POPC   GL258154  33.759   0.670   5.834
 4486POPC   C1A58155  34.011   0.340   6.176
 4486POPC   D2A58156  33.705   0.406   6.528
 4486POPC   C3A58157  33.780   0.352   6.982
 4486POPC   C4A58158  34.022   0.677   7.234
 4486POPC   C1B58159  33.510   0.810   6.196
 4486POPC   C2B58160  33.305   0.704   6.581
 4486POPC   C3B58161  33.435   0.738   6.946
 4486POPC   C4B58162  33.516   0.667   7.318
 4487POPC   NC358163  41.979  34.678   5.164
 4487POPC   PO458164  42.357  34.243   5.524
 4487POPC   GL158165  42.275  34.363   5.954
 4487POPC   GL258166  42.239  34.764   6.048
 4487POPC   C1A58167  42.348  34.361   6.387
 4487POPC   D2A58168  42.174  34.384   6.776
 4487POPC   C3A58169  42.403  34.510   7.129
 4487POPC   C4A58170  42.476  34.306   7.533
 4487POPC   C1B58171  42.116  34.835   6.448
 4487POPC   C2B58172  42.132  34.904   6.863
 4487POPC   C3B58173  42.097  34.963   7.298
 4487POPC   C4B58174  42.339  34.807   7.644
 4488POPC   NC358175  43.989   6.023   5.408
 4488POPC   PO458176  43.946   5.302   5.333
 4488POPC   GL158177  44.009   5.582   5.763
 4488POPC   GL258178  43.733   5.824   5.813
 4488POPC   C1A58179  44.043   5.737   6.215
 4488POPC   D2A58180  43.813   5.638   6.608
 4488POPC   C3A58181  43.937   5.574   7.042
 4488POPC   C4A58182  43.936   5.701   7.490
 4488POPC   C1B58183  43.759   6.162   6.122
 4488POPC   C2B58184  43.976   6.178   6.502
 4488POPC   C3B58185  43.952   6.058   6.910
 4488POPC   C4B58186  43.578   5.929   7.165
 4489POPC   NC358187  11.821  20.658   5.429
 4489POPC   PO458188  12.378  20.353   5.266
 4489POPC   GL158189  12.359  20.600   5.720
 4489POPC   GL258190  12.043  20.804   5.853
 4489POPC   C1A58191  12.288  20.591   6.227
 4489POPC   D2A58192  12.320  20.805   6.621
 4489POPC   C3A58193  12.363  20.505   6.927
 4489POPC   C4A58194  12.150  20.396   7.290
 4489POPC   C1B58195  11.861  20.990   6.241
 4489POPC   C2B58196  11.951  21.150   6.665
 4489POPC   C3B58197  11.927  20.897   7.037
 4489POPC   C4B58198  11.506  20.866   7.189
 4490POPC   NC358199  40.912   3.830   5.399
 4490POPC   PO458200  40.517   4.388   5.360
 4490POPC   GL158201  40.649   4.186   5.730
 4490POPC   GL258202  40.954   4.384   5.804
 4490POPC   C1A58203  40.724   4.129   6.190
 4490POPC   D2A58204  40.700   4.292   6.622
 4490POPC   C3A58205  40.917   4.117   6.986
 4490POPC   C4A58206  41.032   3.933   7.402
 4490POPC   C1B58207  40.741   4.649   6.127
 4490POPC   C2B58208  40.810   4.780   6.555
 4490POPC   C3B58209  40.843   4.621   7.028
 4490POPC   C4B58210  40.546   4.703   7.388
 4491POPC   NC358211  11.403   6.675   5.288
 4491POPC   PO458212  10.757   6.793   5.212
 4491POPC   GL158213  11.075   6.769   5.689
 4491POPC   GL258214  11.438   6.729   5.786
 4491POPC   C1A58215  11.099   6.508   6.126
 4491POPC   D2A58216  11.041   6.333   6.574
 4491POPC   C3A58217  10.982   6.564   6.959
 4491POPC   C4A58218  11.231   6.700   7.330
 4491POPC   C1B58219  11.594   6.584   6.176
 4491POPC   C2B58220  11.701   6.692   6.586
 4491POPC   C3B58221  11.657   6.505   7.003
 4491POPC   C4B58222  11.692   6.380   7.435
 4492POPC   NC358223  36.337   4.085   5.188
 4492POPC   PO458224  36.867   4.588   5.213
 4492POPC   GL158225  37.002   4.596   5.718
 4492POPC   GL258226  36.964   4.287   5.892
 4492POPC   C1A58227  36.887   4.632   6.231
 4492POPC   D2A58228  37.134   4.668   6.634
 4492POPC   C3A58229  36.937   4.430   6.993
 4492POPC   C4A58230  37.040   3.980   7.112
 4492POPC   C1B58231  36.685   4.124   6.198
 4492POPC   C2B58232  36.615   4.289   6.590
 4492POPC   C3B58233  36.554   4.084   6.970
 4492POPC   C4B58234  36.578   4.183   7.394
 4493POPC   NC358235  23.354  14.456   5.506
 4493POPC   PO458236  22.812  14.127   5.492
 4493POPC   GL158237  22.872  14.560   5.737
 4493POPC   GL258238  23.186  14.716   5.917
 4493POPC   C1A58239  22.748  14.703   6.175
 4493POPC   D2A58240  22.782  14.527   6.609
 4493POPC   C3A58241  22.947  14.725   6.983
 4493POPC   C4A58242  22.825  14.595   7.410
 4493POPC   C1B58243  23.203  14.470   6.303
 4493POPC   C2B58244  23.284  14.396   6.758
 4493POPC   C3B58245  23.338  14.445   7.213
 4493POPC   C4B58246  23.395  14.423   7.658
 4494POPC   NC358247  18.995  12.134   5.570
 4494POPC   PO458248  19.026  11.574   5.234
 4494POPC   GL158249  18.971  11.671   5.747
 4494POPC   GL258250  19.255  11.819   5.894
 4494POPC   C1A58251  18.837  11.905   6.193
 4494POPC   D2A58252  18.944  12.175   6.597
 4494POPC   C3A58253  18.828  12.201   7.042
 4494POPC   C4A58254  19.184  12.344   7.339
 4494POPC   C1B58255  19.333  11.947   6.322
 4494POPC   C2B58256  19.399  11.913   6.768
 4494POPC   C3B58257  19.176  11.868   7.155
 4494POPC   C4B58258  19.258  11.888   7.620
 4495POPC   NC358259  18.412  41.934   5.234
 4495POPC   PO458260  18.078  42.441   5.268
 4495POPC   GL158261  18.289  42.306   5.711
 4495POPC   GL258262  18.545  42.047   5.789
 4495POPC   C1A58263  18.476  42.417   6.149
 4495POPC   D2A58264  18.618  42.296   6.585
 4495POPC   C3A58265  18.342  42.512   6.908
 4495POPC   C4A58266  18.519  42.790   7.254
 4495POPC   C1B58267  18.306  41.947   6.203
 4495POPC   C2B58268  18.236  41.962   6.650
 4495POPC   C3B58269  18.331  41.993   7.067
 4495POPC   C4B58270  18.231  42.286   7.377
 4496POPC   NC358271  27.195   3.161   5.495
 4496POPC   PO458272  27.135   3.840   5.395
 4496POPC   GL158273  26.885   3.718   5.747
 4496POPC   GL258274  26.526   3.609   5.702
 4496POPC   C1A58275  26.855   3.711   6.170
 4496POPC   D2A58276  26.934   3.915   6.544
 4496POPC   C3A58277  26.875   3.600   6.802
 4496POPC   C4A58278  26.863   3.702   7.208
 4496POPC   C1B58279  26.440   3.368   6.106
 4496POPC   C2B58280  26.580   3.238   6.531
 4496POPC   C3B58281  26.458   3.370   6.969
 4496POPC   C4B58282  26.581   3.306   7.412
 4497POPC   NC358283   1.004  22.233   5.252
 4497POPC   PO458284   1.576  22.494   5.551
 4497POPC   GL158285   1.210  22.334   5.817
 4497POPC   GL258286   1.207  21.977   5.970
 4497POPC   C1A58287   1.167  22.364   6.274
 4497POPC   D2A58288   1.408  22.540   6.595
 4497POPC   C3A58289   1.265  22.477   7.020
 4497POPC   C4A58290   1.340  22.129   7.305
 4497POPC   C1B58291   0.965  21.822   6.256
 4497POPC   C2B58292   1.093  21.800   6.645
 4497POPC   C3B58293   0.976  21.937   7.014
 4497POPC   C4B58294   0.648  21.863   7.254
 4498POPC   NC358295  11.334  40.566   5.558
 4498POPC   PO458296  11.306  39.919   5.314
 4498POPC   GL158297  11.385  39.933   5.783
 4498POPC   GL258298  11.582  40.215   5.884
 4498POPC   C1A58299  11.285  39.726   6.212
 4498POPC   D2A58300  11.164  39.900   6.630
 4498POPC   C3A58301  11.329  39.741   6.995
 4498POPC   C4A58302  11.287  39.550   7.398
 4498POPC   C1B58303  11.430  40.224   6.313
 4498POPC   C2B58304  11.088  40.409   6.547
 4498POPC   C3B58305  10.927  40.272   6.955
 4498POPC   C4B58306  11.208  40.151   7.277
 4499POPC   NC358307  43.625   2.056   5.076
 4499POPC   PO458308  43.460   2.188   5.681
 4499POPC   GL158309  43.727   1.855   5.874
 4499POPC   GL258310  43.549   1.534   5.896
 4499POPC   C1A58311  43.962   1.951   6.262
 4499POPC   D2A58312  43.837   2.248   6.585
 4499POPC   C3A58313  44.165   2.425   6.853
 4499POPC   C4A58314  44.043   2.213   7.223
 4499POPC   C1B58315  43.771   1.483   6.292
 4499POPC   C2B58316  43.875   1.693   6.711
 4499POPC   C3B58317  43.871   1.729   7.168
 4499POPC   C4B58318  43.586   1.671   7.519
 4500POPC   NC358319  30.031   8.016   5.209
 4500POPC   PO458320  29.500   7.790   5.358
 4500POPC   GL158321  29.811   8.017   5.666
 4500POPC   GL258322  29.791   8.363   5.769
 4500POPC   C1A58323  30.069   7.984   6.043
 4500POPC   D2A58324  29.935   7.904   6.467
 4500POPC   C3A58325  29.992   8.089   6.893
 4500POPC   C4A58326  30.313   8.139   7.263
 4500POPC   C1B58327  30.065   8.478   6.120
 4500POPC   C2B58328  30.248   8.350   6.518
 4500POPC   C3B58329  30.273   8.498   6.910
 4500POPC   C4B58330  29.974   8.523   7.235
 4501POPC   NC358331   9.310  29.581   5.421
 4501POPC   PO458332   9.641  29.038   5.180
 4501POPC   GL158333   9.825  29.070   5.623
 4501POPC   GL258334   9.630  29.367   5.768
 4501POPC   C1A58335   9.969  29.113   6.062
 4501POPC   D2A58336   9.955  29.279   6.479
 4501POPC   C3A58337   9.835  29.146   6.874
 4501POPC   C4A58338   9.920  29.228   7.311
 4501POPC   C1B58339   9.502  29.410   6.210
 4501POPC   C2B58340   9.539  29.536   6.646
 4501POPC   C3B58341   9.546  29.545   7.102
 4501POPC   C4B58342   9.593  29.505   7.592
 4502POPC   NC358343  19.704  10.144   5.273
 4502POPC   PO458344  20.100   9.758   5.709
 4502POPC   GL158345  19.736   9.847   5.927
 4502POPC   GL258346  19.742   9.505   6.042
 4502POPC   C1A58347  19.642   9.904   6.334
 4502POPC   D2A58348  19.742   9.846   6.728
 4502POPC   C3A58349  19.513   9.849   7.065
 4502POPC   C4A58350  19.719  10.203   7.196
 4502POPC   C1B58351  20.051   9.608   6.354
 4502POPC   C2B58352  19.961   9.389   6.709
 4502POPC   C3B58353  19.842   9.469   7.109
 4502POPC   C4B58354  19.919   9.384   7.542
 4503POPC   NC358355  33.638  12.113   5.525
 4503POPC   PO458356  34.106  12.495   5.142
 4503POPC   GL158357  34.097  12.288   5.612
 4503POPC   GL258358  34.141  12.481   5.891
 4503POPC   C1A58359  34.004  12.063   6.082
 4503POPC   D2A58360  33.751  11.814   6.344
 4503POPC   C3A58361  33.833  11.751   6.786
 4503POPC   C4A58362  33.730  11.917   7.174
 4503POPC   C1B58363  33.714  12.471   6.158
 4503POPC   C2B58364  33.718  12.528   6.592
 4503POPC   C3B58365  33.943  12.252   6.851
 4503POPC   C4B58366  34.009  12.370   7.263
 4504POPC   NC358367  40.852  13.172   5.423
 4504POPC   PO458368  40.446  12.637   5.461
 4504POPC   GL158369  40.586  12.892   5.757
 4504POPC   GL258370  40.969  12.794   5.761
 4504POPC   C1A58371  40.684  12.889   6.164
 4504POPC   D2A58372  40.788  13.143   6.470
 4504POPC   C3A58373  40.766  12.974   6.852
 4504POPC   C4A58374  40.907  13.264   7.122
 4504POPC   C1B58375  41.150  12.643   6.168
 4504POPC   C2B58376  41.194  12.787   6.606
 4504POPC   C3B58377  41.159  12.686   7.028
 4504POPC   C4B58378  41.487  12.533   7.250
 4505POPC   NC358379  34.102   2.865   5.090
 4505POPC   PO458380  34.653   2.690   5.529
 4505POPC   GL158381  34.642   2.935   5.883
 4505POPC   GL258382  34.263   2.894   5.885
 4505POPC   C1A58383  34.842   2.775   6.247
 4505POPC   D2A58384  34.717   2.524   6.610
 4505POPC   C3A58385  34.912   2.582   6.991
 4505POPC   C4A58386  34.735   2.661   7.389
 4505POPC   C1B58387  34.337   2.720   6.273
 4505POPC   C2B58388  34.297   2.860   6.662
 4505POPC   C3B58389  34.377   2.814   7.085
 4505POPC   C4B58390  34.218   2.808   7.540
 4506POPC   NC358391  12.827  24.759   5.347
 4506POPC   PO458392  12.776  25.394   5.489
 4506POPC   GL158393  12.798  25.221   5.864
 4506POPC   GL258394  13.033  24.947   5.827
 4506POPC   C1A58395  12.657  25.402   6.248
 4506POPC   D2A58396  12.928  25.536   6.575
 4506POPC   C3A58397  12.842  25.363   6.968
 4506POPC   C4A58398  12.486  25.314   7.221
 4506POPC   C1B58399  13.148  25.148   6.253
 4506POPC   C2B58400  13.095  25.018   6.687
 4506POPC   C3B58401  13.260  24.971   7.110
 4506POPC   C4B58402  13.418  25.120   7.546
 4507POPC   NC358403   5.759  38.310   5.337
 4507POPC   PO458404   6.013  38.801   5.622
 4507POPC   GL158405   5.957  38.583   6.017
 4507POPC   GL258406   6.127  38.243   6.157
 4507POPC   C1A58407   5.650  38.444   6.282
 4507POPC   D2A58408   5.769  38.255   6.635
 4507POPC   C3A58409   5.720  38.520   6.943
 4507POPC   C4A58410   5.941  38.286   7.193
 4507POPC   C1B58411   6.360  38.564   6.341
 4507POPC   C2B58412   6.434  38.730   6.749
 4507POPC   C3B58413   6.143  38.769   7.083
 4507POPC   C4B58414   6.072  38.633   7.520
 4508POPC   NC358415  24.758  24.604   5.325
 4508POPC   PO458416  25.334  24.948   5.284
 4508POPC   GL158417  25.227  24.637   5.664
 4508POPC   GL258418  24.927  24.394   5.766
 4508POPC   C1A58419  25.188  24.734   6.113
 4508POPC   D2A58420  25.060  24.517   6.484
 4508POPC   C3A58421  25.142  24.723   6.842
 4508POPC   C4A58422  25.207  24.561   7.235
 4508POPC   C1B58423  25.227  24.232   6.091
 4508POPC   C2B58424  25.459  24.188   6.489
 4508POPC   C3B58425  25.255  24.181   6.876
 4508POPC   C4B58426  25.224  24.040   7.287
 4509POPC   NC358427  40.841   9.538   5.452
 4509POPC   PO458428  40.553  10.176   5.420
 4509POPC   GL158429  40.700   9.916   5.761
 4509POPC   GL258430  41.053   9.905   5.770
 4509POPC   C1A58431  40.737   9.713   6.171
 4509POPC   D2A58432  40.717   9.422   6.552
 4509POPC   C3A58433  40.691   9.651   6.940
 4509POPC   C4A58434  40.707  10.088   6.941
 4509POPC   C1B58435  41.248   9.802   6.169
 4509POPC   C2B58436  41.058   9.794   6.577
 4509POPC   C3B58437  41.165   9.826   6.990
 4509POPC   C4B58438  41.079   9.560   7.320
 4510POPC   NC358439   1.583  23.003   5.527
 4510POPC   PO458440   0.996  22.843   5.292
 4510POPC   GL158441   1.157  22.854   5.785
 4510POPC   GL258442   1.495  22.771   5.961
 4510POPC   C1A58443   1.135  22.877   6.271
 4510POPC   D2A58444   0.923  22.716   6.616
 4510POPC   C3A58445   0.959  22.890   7.016
 4510POPC   C4A58446   0.769  22.757   7.395
 4510POPC   C1B58447   1.581  23.177   6.164
 4510POPC   C2B58448   1.509  23.276   6.582
 4510POPC   C3B58449   1.465  22.958   6.882
 4510POPC   C4B58450   1.594  22.937   7.283
 4511POPC   NC358451  36.665  15.854   5.336
 4511POPC   PO458452  37.245  16.204   5.521
 4511POPC   GL158453  37.001  15.952   5.783
 4511POPC   GL258454  36.680  16.106   5.771
 4511POPC   C1A58455  36.961  16.010   6.227
 4511POPC   D2A58456  37.210  15.846   6.555
 4511POPC   C3A58457  37.162  16.066   6.929
 4511POPC   C4A58458  36.989  15.895   7.238
 4511POPC   C1B58459  36.477  16.245   6.139
 4511POPC   C2B58460  36.646  16.315   6.529
 4511POPC   C3B58461  36.674  16.011   6.821
 4511POPC   C4B58462  36.496  15.945   7.211
 4512POPC   NC358463  30.064  39.901   5.586
 4512POPC   PO458464  29.479  40.141   5.465
 4512POPC   GL158465  29.641  40.168   5.858
 4512POPC   GL258466  29.479  39.867   5.935
 4512POPC   C1A58467  29.941  40.136   6.179
 4512POPC   D2A58468  30.183  39.970   6.491
 4512POPC   C3A58469  30.080  40.143   6.875
 4512POPC   C4A58470  30.092  39.944   7.276
 4512POPC   C1B58471  29.512  39.945   6.363
 4512POPC   C2B58472  29.569  40.112   6.760
 4512POPC   C3B58473  29.673  40.202   7.179
 4512POPC   C4B58474  29.602  39.835   7.404
 4513POPC   NC358475  10.028  29.268   5.190
 4513POPC   PO458476  10.639  29.406   5.461
 4513POPC   GL158477  10.513  29.192   5.822
 4513POPC   GL258478  10.372  28.889   5.696
 4513POPC   C1A58479  10.423  29.314   6.253
 4513POPC   D2A58480  10.413  29.406   6.719
 4513POPC   C3A58481  10.385  29.180   7.075
 4513POPC   C4A58482  10.615  29.186   7.466
 4513POPC   C1B58483  10.348  28.776   6.140
 4513POPC   C2B58484  10.362  28.909   6.568
 4513POPC   C3B58485  10.149  28.720   6.894
 4513POPC   C4B58486  10.247  28.750   7.303
 4514POPC   NC358487  12.994  22.647   5.604
 4514POPC   PO458488  12.681  22.882   5.095
 4514POPC   GL158489  12.669  23.053   5.579
 4514POPC   GL258490  12.992  23.105   5.823
 4514POPC   C1A58491  12.580  22.893   6.023
 4514POPC   D2A58492  12.577  23.024   6.449
 4514POPC   C3A58493  12.705  22.790   6.788
 4514POPC   C4A58494  12.642  22.846   7.223
 4514POPC   C1B58495  13.060  22.911   6.278
 4514POPC   C2B58496  13.145  23.059   6.735
 4514POPC   C3B58497  13.243  23.173   7.199
 4514POPC   C4B58498  13.038  23.029   7.579
 4515POPC   NC358499   1.745  24.709   5.643
 4515POPC   PO458500   1.853  24.209   5.182
 4515POPC   GL158501   1.984  24.279   5.696
 4515POPC   GL258502   2.206  24.553   5.802
 4515POPC   C1A58503   1.943  24.303   6.163
 4515POPC   D2A58504   1.730  24.635   6.411
 4515POPC   C3A58505   1.781  24.607   6.848
 4515POPC   C4A58506   1.931  24.769   7.245
 4515POPC   C1B58507   2.179  24.774   6.192
 4515POPC   C2B58508   2.239  24.692   6.629
 4515POPC   C3B58509   2.240  24.445   7.017
 4515POPC   C4B58510   2.019  24.092   7.159
 4516POPC   NC358511  15.479  43.614   5.153
 4516POPC   PO458512  15.920  43.975   5.565
 4516POPC   GL158513  15.968  43.820   5.951
 4516POPC   GL258514  16.013  43.494   5.834
 4516POPC   C1A58515  16.066  43.734   6.376
 4516POPC   D2A58516  16.256  43.933   6.709
 4516POPC   C3A58517  15.948  44.056   6.935
 4516POPC   C4A58518  15.941  44.042   7.347
 4516POPC   C1B58519  15.740  43.401   6.171
 4516POPC   C2B58520  15.771  43.295   6.552
 4516POPC   C3B58521  15.928  43.541   6.878
 4516POPC   C4B58522  15.887  43.502   7.300
 4517POPC   NC358523  44.748  27.259   4.924
 4517POPC   PO458524  44.411  27.647   5.405
 4517POPC   GL158525  44.733  27.796   5.728
 4517POPC   GL258526   0.052  27.607   5.745
 4517POPC   C1A58527  44.772  27.809   6.185
 4517POPC   D2A58528  44.520  27.734   6.547
 4517POPC   C3A58529  44.618  27.611   6.929
 4517POPC   C4A58530  44.549  27.792   7.307
 4517POPC   C1B58531   0.030  27.367   6.137
 4517POPC   C2B58532  44.912  27.399   6.544
 4517POPC   C3B58533   0.053  27.335   6.944
 4517POPC   C4B58534  44.839  27.377   7.323
 4518POPC   NC358535  24.714   0.078   5.378
 4518POPC   PO458536  24.135  44.788   5.468
 4518POPC   GL158537  24.501  44.685   5.688
 4518POPC   GL258538  24.614  44.973   5.891
 4518POPC   C1A58539  24.606  44.491   6.096
 4518POPC   D2A58540  24.484  44.628   6.506
 4518POPC   C3A58541  24.445  44.340   6.834
 4518POPC   C4A58542  24.449  44.467   7.232
 4518POPC   C1B58543  24.213  44.921   6.135
 4518POPC   C2B58544  24.143   0.080   6.567
 4518POPC   C3B58545  24.324  44.935   6.990
 4518POPC   C4B58546  24.694  44.904   7.332
 4519POPC   NC358547   4.219  38.762   5.420
 4519POPC   PO458548   4.607  38.233   5.437
 4519POPC   GL158549   4.474  38.336   5.855
 4519POPC   GL258550   4.184  38.515   5.863
 4519POPC   C1A58551   4.561  38.636   6.201
 4519POPC   D2A58552   4.466  38.753   6.633
 4519POPC   C3A58553   4.554  38.440   6.976
 4519POPC   C4A58554   4.309  38.191   7.267
 4519POPC   C1B58555   4.129  38.378   6.290
 4519POPC   C2B58556   4.068  38.427   6.741
 4519POPC   C3B58557   4.133  38.769   7.019
 4519POPC   C4B58558   4.524  38.950   7.136
 4520POPC   NC358559  44.937  42.494   5.206
 4520POPC   PO458560   0.441  42.025   4.983
 4520POPC   GL158561   0.359  42.129   5.513
 4520POPC   GL258562   0.098  42.018   5.746
 4520POPC   C1A58563   0.509  42.196   6.018
 4520POPC   D2A58564   0.638  42.389   6.431
 4520POPC   C3A58565   0.584  42.224   6.849
 4520POPC   C4A58566   0.709  42.326   7.279
 4520POPC   C1B58567   0.029  42.270   6.133
 4520POPC   C2B58568   0.113  42.281   6.577
 4520POPC   C3B58569   0.122  42.327   7.022
 4520POPC   C4B58570   0.292  42.045   7.271
 4521POPC   NC358571  43.044  38.059   5.182
 4521POPC   PO458572  43.402  38.437   5.630
 4521POPC   GL158573  43.010  38.483   5.834
 4521POPC   GL258574  42.958  38.809   5.978
 4521POPC   C1A58575  43.013  38.370   6.266
 4521POPC   D2A58576  43.279  38.412   6.628
 4521POPC   C3A58577  43.076  38.351   7.021
 4521POPC   C4A58578  42.715  38.431   7.266
 4521POPC   C1B58579  43.308  38.826   6.273
 4521POPC   C2B58580  43.437  38.930   6.715
 4521POPC   C3B58581  43.291  38.823   7.142
 4521POPC   C4B58582  43.095  38.701   7.494
 4522POPC   NC358583  32.624  35.949   5.532
 4522POPC   PO458584  31.974  36.229   5.449
 4522POPC   GL158585  32.218  36.143   5.796
 4522POPC   GL258586  32.513  36.343   5.870
 4522POPC   C1A58587  32.356  35.959   6.183
 4522POPC   D2A58588  32.226  35.688   6.494
 4522POPC   C3A58589  32.250  35.872   6.898
 4522POPC   C4A58590  31.964  35.830   7.215
 4522POPC   C1B58591  32.347  36.488   6.211
 4522POPC   C2B58592  32.321  36.310   6.595
 4522POPC   C3B58593  32.381  36.401   7.001
 4522POPC   C4B58594  32.265  36.215   7.371
 4523POPC   NC358595  20.128  23.790   5.484
 4523POPC   PO458596  20.695  23.481   5.411
 4523POPC   GL158597  20.665  23.407   5.830
 4523POPC   GL258598  20.304  23.455   5.897
 4523POPC   C1A58599  20.752  23.632   6.197
 4523POPC   D2A58600  20.510  23.646   6.560
 4523POPC   C3A58601  20.694  23.858   6.895
 4523POPC   C4A58602  20.622  23.716   7.269
 4523POPC   C1B58603  20.472  23.207   6.262
 4523POPC   C2B58604  20.464  23.147   6.727
 4523POPC   C3B58605  20.240  23.474   6.984
 4523POPC   C4B58606  20.158  23.569   7.434
 4524POPC   NC358607  30.949  13.532   5.391
 4524POPC   PO458608  30.294  13.338   5.350
 4524POPC   GL158609  30.580  13.385   5.720
 4524POPC   GL258610  30.726  13.722   5.807
 4524POPC   C1A58611  30.710  13.358   6.173
 4524POPC   D2A58612  30.487  13.335   6.580
 4524POPC   C3A58613  30.666  13.482   6.971
 4524POPC   C4A58614  30.490  13.788   7.214
 4524POPC   C1B58615  30.991  13.811   6.179
 4524POPC   C2B58616  30.972  13.713   6.625
 4524POPC   C3B58617  30.968  13.959   7.034
 4524POPC   C4B58618  30.836  14.085   7.440
 4525POPC   NC358619  38.190  14.950   5.364
 4525POPC   PO458620  38.699  15.410   5.396
 4525POPC   GL158621  38.382  15.294   5.722
 4525POPC   GL258622  38.432  14.964   5.814
 4525POPC   C1A58623  38.217  15.327   6.159
 4525POPC   D2A58624  38.394  15.191   6.537
 4525POPC   C3A58625  38.466  15.479   6.880
 4525POPC   C4A58626  38.342  15.371   7.272
 4525POPC   C1B58627  38.249  14.807   6.158
 4525POPC   C2B58628  38.137  14.748   6.563
 4525POPC   C3B58629  38.232  14.617   6.961
 4525POPC   C4B58630  38.465  14.848   7.253
 4526POPC   NC358631  40.726  40.996   5.234
 4526POPC   PO458632  40.831  40.304   5.345
 4526POPC   GL158633  40.842  40.660   5.656
 4526POPC   GL258634  41.092  40.952   5.702
 4526POPC   C1A58635  40.782  40.792   6.100
 4526POPC   D2A58636  40.849  41.004   6.507
 4526POPC   C3A58637  40.761  40.815   6.915
 4526POPC   C4A58638  40.768  40.441   7.135
 4526POPC   C1B58639  41.256  40.994   6.146
 4526POPC   C2B58640  41.294  40.759   6.534
 4526POPC   C3B58641  41.232  40.978   6.891
 4526POPC   C4B58642  41.102  41.099   7.249
 4527POPC   NC358643  18.112   8.886   5.246
 4527POPC   PO458644  17.410   8.916   5.406
 4527POPC   GL158645  17.509   8.893   5.818
 4527POPC   GL258646  17.219   9.096   5.886
 4527POPC   C1A58647  17.644   8.792   6.236
 4527POPC   D2A58648  17.505   8.983   6.614
 4527POPC   C3A58649  17.371   8.748   6.961
 4527POPC   C4A58650  17.607   8.524   7.240
 4527POPC   C1B58651  17.008   9.104   6.270
 4527POPC   C2B58652  16.982   8.949   6.660
 4527POPC   C3B58653  17.164   9.235   6.895
 4527POPC   C4B58654  17.328   9.241   7.274
 4528POPC   NC358655  22.472  20.584   5.102
 4528POPC   PO458656  21.850  20.475   5.317
 4528POPC   GL158657  21.937  20.698   5.747
 4528POPC   GL258658  22.243  20.828   5.958
 4528POPC   C1A58659  21.889  20.602   6.199
 4528POPC   D2A58660  22.010  20.487   6.585
 4528POPC   C3A58661  22.048  20.706   6.978
 4528POPC   C4A58662  21.989  20.359   7.259
 4528POPC   C1B58663  22.564  20.784   6.251
 4528POPC   C2B58664  22.442  20.761   6.647
 4528POPC   C3B58665  22.583  20.781   7.050
 4528POPC   C4B58666  22.380  20.736   7.427
 4529POPC   NC358667  36.223  14.219   4.947
 4529POPC   PO458668  36.021  14.588   5.436
 4529POPC   GL158669  36.031  14.476   5.849
 4529POPC   GL258670  35.742  14.652   5.865
 4529POPC   C1A58671  36.208  14.326   6.260
 4529POPC   D2A58672  36.422  14.251   6.689
 4529POPC   C3A58673  36.280  14.318   7.175
 4529POPC   C4A58674  36.406  14.070   7.597
 4529POPC   C1B58675  35.734  14.487   6.267
 4529POPC   C2B58676  35.864  14.291   6.636
 4529POPC   C3B58677  35.901  14.584   6.909
 4529POPC   C4B58678  35.931  14.747   7.273
 4530POPC   NC358679  17.773  40.950   5.194
 4530POPC   PO458680  17.278  41.290   5.296
 4530POPC   GL158681  17.515  41.002   5.628
 4530POPC   GL258682  17.314  40.776   5.879
 4530POPC   C1A58683  17.777  40.915   6.013
 4530POPC   D2A58684  17.665  40.890   6.473
 4530POPC   C3A58685  17.804  40.680   6.870
 4530POPC   C4A58686  17.894  40.857   7.280
 4530POPC   C1B58687  17.231  40.661   6.332
 4530POPC   C2B58688  17.283  40.706   6.828
 4530POPC   C3B58689  17.444  40.542   7.262
 4530POPC   C4B58690  17.233  40.578   7.744
 4531POPC   NC358691   9.604  28.584   5.293
 4531POPC   PO458692   9.708  27.918   5.229
 4531POPC   GL158693   9.664  28.157   5.671
 4531POPC   GL258694   9.522  28.486   5.772
 4531POPC   C1A58695   9.588  28.181   6.171
 4531POPC   D2A58696   9.911  28.230   6.513
 4531POPC   C3A58697   9.820  28.293   6.934
 4531POPC   C4A58698   9.458  28.312   7.185
 4531POPC   C1B58699   9.885  28.582   6.029
 4531POPC   C2B58700   9.860  28.752   6.451
 4531POPC   C3B58701   9.574  28.699   6.820
 4531POPC   C4B58702   9.729  28.757   7.203
 4532POPC   NC358703  12.116  33.303   5.063
 4532POPC   PO458704  12.248  32.741   5.512
 4532POPC   GL158705  12.273  32.891   5.893
 4532POPC   GL258706  12.003  33.078   5.924
 4532POPC   C1A58707  12.342  33.013   6.319
 4532POPC   D2A58708  12.295  33.253   6.671
 4532POPC   C3A58709  12.130  33.125   7.071
 4532POPC   C4A58710  12.119  33.307   7.490
 4532POPC   C1B58711  11.869  33.310   6.297
 4532POPC   C2B58712  11.814  33.397   6.739
 4532POPC   C3B58713  11.737  33.481   7.175
 4532POPC   C4B58714  11.553  33.446   7.585
 4533POPC   NC358715  21.406  22.551   5.299
 4533POPC   PO458716  21.616  23.186   5.356
 4533POPC   GL158717  21.371  22.965   5.683
 4533POPC   GL258718  21.553  23.177   5.900
 4533POPC   C1A58719  21.299  22.791   6.111
 4533POPC   D2A58720  21.541  23.010   6.431
 4533POPC   C3A58721  21.375  23.042   6.834
 4533POPC   C4A58722  21.367  23.155   7.240
 4533POPC   C1B58723  21.804  22.789   6.030
 4533POPC   C2B58724  21.877  22.589   6.444
 4533POPC   C3B58725  21.848  22.791   6.860
 4533POPC   C4B58726  21.661  22.749   7.249
 4534POPC   NC358727  20.036   6.003   5.225
 4534POPC   PO458728  19.632   5.412   5.189
 4534POPC   GL158729  19.825   5.627   5.586
 4534POPC   GL258730  19.818   5.981   5.678
 4534POPC   C1A58731  19.894   5.638   6.060
 4534POPC   D2A58732  19.657   5.587   6.460
 4534POPC   C3A58733  19.754   5.693   6.897
 4534POPC   C4A58734  19.500   5.733   7.278
 4534POPC   C1B58735  19.986   6.154   6.048
 4534POPC   C2B58736  19.961   6.016   6.455
 4534POPC   C3B58737  19.972   6.146   6.861
 4534POPC   C4B58738  19.923   6.021   7.271
 4535POPC   NC358739  31.075  31.467   5.340
 4535POPC   PO458740  30.491  31.300   5.244
 4535POPC   GL158741  30.709  31.346   5.682
 4535POPC   GL258742  30.796  31.708   5.752
 4535POPC   C1A58743  30.838  31.375   6.153
 4535POPC   D2A58744  30.620  31.309   6.560
 4535POPC   C3A58745  30.815  31.311   6.974
 4535POPC   C4A58746  30.449  31.223   7.284
 4535POPC   C1B58747  30.576  31.808   6.137
 4535POPC   C2B58748  30.697  31.826   6.583
 4535POPC   C3B58749  30.516  31.712   7.012
 4535POPC   C4B58750  30.784  31.598   7.389
 4536POPC   NC358751  24.663   1.347   5.528
 4536POPC   PO458752  24.191   1.121   5.116
 4536POPC   GL158753  24.281   0.955   5.579
 4536POPC   GL258754  24.161   1.257   5.778
 4536POPC   C1A58755  24.413   0.912   6.056
 4536POPC   D2A58756  24.472   1.066   6.497
 4536POPC   C3A58757  24.487   0.926   6.932
 4536POPC   C4A58758  24.334   1.186   7.280
 4536POPC   C1B58759  24.403   1.455   6.141
 4536POPC   C2B58760  24.570   1.569   6.558
 4536POPC   C3B58761  24.412   1.605   6.976
 4536POPC   C4B58762  24.577   1.627   7.393
 4537POPC   NC358763  29.675  42.351   5.358
 4537POPC   PO458764  30.282  42.477   5.363
 4537POPC   GL158765  30.017  42.522   5.799
 4537POPC   GL258766  29.614  42.497   5.837
 4537POPC   C1A58767  30.026  42.341   6.268
 4537POPC   D2A58768  29.868  42.096   6.659
 4537POPC   C3A58769  30.048  42.054   7.102
 4537POPC   C4A58770  30.403  42.122   7.365
 4537POPC   C1B58771  29.667  42.696   6.235
 4537POPC   C2B58772  29.718  42.604   6.661
 4537POPC   C3B58773  29.757  42.479   7.085
 4537POPC   C4B58774  29.444  42.425   7.365
 4538POPC   NC358775   4.866  27.678   5.407
 4538POPC   PO458776   5.519  27.574   5.424
 4538POPC   GL158777   5.217  27.603   5.767
 4538POPC   GL258778   4.985  27.339   5.803
 4538POPC   C1A58779   5.018  27.748   6.149
 4538POPC   D2A58780   5.191  27.616   6.540
 4538POPC   C3A58781   5.036  27.821   6.919
 4538POPC   C4A58782   5.218  27.692   7.262
 4538POPC   C1B58783   4.829  27.212   6.194
 4538POPC   C2B58784   4.764  27.356   6.583
 4538POPC   C3B58785   4.902  27.315   6.971
 4538POPC   C4B58786   4.786  27.098   7.339
 4539POPC   NC358787   8.566   4.139   5.475
 4539POPC   PO458788   8.215   3.612   5.260
 4539POPC   GL158789   8.155   3.522   5.703
 4539POPC   GL258790   8.505   3.546   5.750
 4539POPC   C1A58791   8.049   3.707   6.128
 4539POPC   D2A58792   8.183   3.600   6.548
 4539POPC   C3A58793   7.999   3.689   6.957
 4539POPC   C4A58794   8.193   3.498   7.279
 4539POPC   C1B58795   8.569   3.733   6.157
 4539POPC   C2B58796   8.731   3.842   6.547
 4539POPC   C3B58797   8.542   3.741   6.922
 4539POPC   C4B58798   8.764   3.580   7.242
 4540POPC   NC358799  25.581  43.913   5.367
 4540POPC   PO458800  24.997  44.324   5.264
 4540POPC   GL158801  25.252  44.164   5.673
 4540POPC   GL258802  25.166  43.777   5.814
 4540POPC   C1A58803  25.513  44.030   6.062
 4540POPC   D2A58804  25.291  43.913   6.438
 4540POPC   C3A58805  25.451  44.019   6.843
 4540POPC   C4A58806  25.241  44.106   7.217
 4540POPC   C1B58807  25.430  43.502   6.158
 4540POPC   C2B58808  25.541  43.477   6.617
 4540POPC   C3B58809  25.375  43.541   7.061
 4540POPC   C4B58810  25.319  43.705   7.504
 4541POPC   NC358811  22.419  12.710   5.297
 4541POPC   PO458812  21.788  12.728   5.227
 4541POPC   GL158813  21.822  12.618   5.697
 4541POPC   GL258814  22.203  12.585   5.790
 4541POPC   C1A58815  21.782  12.683   6.185
 4541POPC   D2A58816  21.876  12.526   6.631
 4541POPC   C3A58817  21.999  12.771   7.041
 4541POPC   C4A58818  22.023  12.619   7.497
 4541POPC   C1B58819  22.284  12.595   6.274
 4541POPC   C2B58820  22.403  12.651   6.738
 4541POPC   C3B58821  22.460  12.595   7.211
 4541POPC   C4B58822  22.441  12.262   7.535
 4542POPC   NC358823   9.939  44.944   5.663
 4542POPC   PO458824   9.650  44.603   5.215
 4542POPC   GL158825   9.527  44.645   5.742
 4542POPC   GL258826   9.472   0.006   5.905
 4542POPC   C1A58827   9.650  44.541   6.238
 4542POPC   D2A58828   9.662  44.288   6.668
 4542POPC   C3A58829   9.824  44.451   7.093
 4542POPC   C4A58830   9.873  44.311   7.571
 4542POPC   C1B58831   9.804   0.033   6.277
 4542POPC   C2B58832   9.866  44.818   6.677
 4542POPC   C3B58833  10.027  44.917   7.095
 4542POPC   C4B58834   9.877  44.791   7.499
 4543POPC   NC358835  41.413  11.118   5.058
 4543POPC   PO458836  41.819  11.437   5.523
 4543POPC   GL158837  41.583  11.477   5.876
 4543POPC   GL258838  41.401  11.225   5.794
 4543POPC   C1A58839  41.501  11.583   6.288
 4543POPC   D2A58840  41.667  11.503   6.710
 4543POPC   C3A58841  41.356  11.684   7.020
 4543POPC   C4A58842  41.324  11.711   7.476
 4543POPC   C1B58843  41.319  11.119   6.210
 4543POPC   C2B58844  41.247  11.245   6.623
 4543POPC   C3B58845  41.423  11.186   7.035
 4543POPC   C4B58846  41.196  11.155   7.401
 4544POPC   NC358847  25.588  26.944   5.321
 4544POPC   PO458848  24.978  26.696   5.615
 4544POPC   GL158849  25.355  26.769   5.758
 4544POPC   GL258850  25.316  27.098   5.751
 4544POPC   C1A58851  25.378  26.703   6.184
 4544POPC   D2A58852  25.237  26.900   6.550
 4544POPC   C3A58853  25.377  26.712   6.895
 4544POPC   C4A58854  25.210  26.843   7.259
 4544POPC   C1B58855  25.510  27.201   6.150
 4544POPC   C2B58856  25.466  27.394   6.538
 4544POPC   C3B58857  25.410  27.231   6.932
 4544POPC   C4B58858  25.665  27.113   7.263
 4545POPC   NC358859  22.200  39.534   5.457
 4545POPC   PO458860  22.199  38.805   5.410
 4545POPC   GL158861  22.213  39.104   5.765
 4545POPC   GL258862  21.885  39.221   5.813
 4545POPC   C1A58863  22.222  39.213   6.227
 4545POPC   D2A58864  22.396  39.044   6.613
 4545POPC   C3A58865  22.358  39.251   6.971
 4545POPC   C4A58866  22.287  39.053   7.354
 4545POPC   C1B58867  21.805  38.887   6.134
 4545POPC   C2B58868  21.921  38.748   6.577
 4545POPC   C3B58869  21.950  38.944   6.957
 4545POPC   C4B58870  21.716  39.117   7.287
 4546POPC   NC358871   3.646  12.913   5.514
 4546POPC   PO458872   3.399  12.394   5.203
 4546POPC   GL158873   3.248  12.644   5.699
 4546POPC   GL258874   3.616  12.694   5.958
 4546POPC   C1A58875   3.214  12.887   6.146
 4546POPC   D2A58876   3.553  12.832   6.531
 4546POPC   C3A58877   3.507  12.782   7.027
 4546POPC   C4A58878   3.424  12.880   7.498
 4546POPC   C1B58879   3.868  12.475   6.262
 4546POPC   C2B58880   3.735  12.348   6.659
 4546POPC   C3B58881   3.882  12.406   7.052
 4546POPC   C4B58882   3.828  12.612   7.420
 4547POPC   NC358883  40.172   2.471   5.329
 4547POPC   PO458884  39.710   2.956   5.468
 4547POPC   GL158885  40.023   2.825   5.742
 4547POPC   GL258886  40.152   3.113   5.929
 4547POPC   C1A58887  40.023   2.649   6.143
 4547POPC   D2A58888  40.123   2.909   6.478
 4547POPC   C3A58889  40.074   2.717   6.859
 4547POPC   C4A58890  40.290   2.874   7.199
 4547POPC   C1B58891  39.740   3.093   6.166
 4547POPC   C2B58892  39.673   3.205   6.621
 4547POPC   C3B58893  39.861   3.143   7.040
 4547POPC   C4B58894  39.854   2.974   7.487
 4548POPC   NC358895  42.436   9.174   5.462
 4548POPC   PO458896  41.953   8.665   5.488
 4548POPC   GL158897  42.209   8.776   5.836
 4548POPC   GL258898  42.562   8.791   5.849
 4548POPC   C1A58899  42.309   8.675   6.269
 4548POPC   D2A58900  42.066   8.692   6.627
 4548POPC   C3A58901  42.235   8.513   6.975
 4548POPC   C4A58902  42.196   8.884   7.192
 4548POPC   C1B58903  42.431   9.160   6.124
 4548POPC   C2B58904  42.525   9.073   6.539
 4548POPC   C3B58905  42.602   8.860   6.887
 4548POPC   C4B58906  42.741   9.019   7.258
 4549POPC   NC358907  10.444  31.441   5.188
 4549POPC   PO458908  10.612  31.787   5.715
 4549POPC   GL158909  10.531  31.353   5.746
 4549POPC   GL258910  10.294  31.134   5.560
 4549POPC   C1A58911  10.617  31.190   6.156
 4549POPC   D2A58912  10.677  31.440   6.525
 4549POPC   C3A58913  10.451  31.583   6.891
 4549POPC   C4A58914  10.715  31.357   7.159
 4549POPC   C1B58915  10.135  31.128   5.985
 4549POPC   C2B58916  10.151  31.237   6.423
 4549POPC   C3B58917  10.315  31.110   6.807
 4549POPC   C4B58918  10.164  31.270   7.187
 4550POPC   NC358919  24.425  40.210   5.466
 4550POPC   PO458920  24.292  39.530   5.483
 4550POPC   GL158921  24.228  39.788   5.857
 4550POPC   GL258922  24.252  40.153   5.917
 4550POPC   C1A58923  24.414  39.862   6.291
 4550POPC   D2A58924  24.787  39.716   6.548
 4550POPC   C3A58925  24.745  39.787   6.976
 4550POPC   C4A58926  24.299  39.787   7.107
 4550POPC   C1B58927  24.479  40.376   6.226
 4550POPC   C2B58928  24.645  40.229   6.627
 4550POPC   C3B58929  24.530  40.241   7.045
 4550POPC   C4B58930  24.794  40.222   7.361
 4551POPC   NC358931  23.346  37.075   5.519
 4551POPC   PO458932  22.675  37.263   5.393
 4551POPC   GL158933  22.669  37.073   5.811
 4551POPC   GL258934  23.008  37.027   5.898
 4551POPC   C1A58935  22.653  36.939   6.249
 4551POPC   D2A58936  22.894  37.169   6.560
 4551POPC   C3A58937  22.708  37.084   6.960
 4551POPC   C4A58938  22.860  37.017   7.379
 4551POPC   C1B58939  23.100  36.721   6.243
 4551POPC   C2B58940  22.926  36.683   6.692
 4551POPC   C3B58941  23.147  36.720   7.098
 4551POPC   C4B58942  23.473  36.541   7.391
 4552POPC   NC358943  35.612  39.783   5.294
 4552POPC   PO458944  34.963  39.554   5.362
 4552POPC   GL158945  35.220  39.852   5.682
 4552POPC   GL258946  35.548  40.075   5.719
 4552POPC   C1A58947  35.183  39.971   6.092
 4552POPC   D2A58948  35.361  39.970   6.476
 4552POPC   C3A58949  35.302  39.941   6.883
 4552POPC   C4A58950  35.467  39.982   7.289
 4552POPC   C1B58951  35.872  40.289   6.048
 4552POPC   C2B58952  35.867  40.460   6.503
 4552POPC   C3B58953  35.771  40.275   6.921
 4552POPC   C4B58954  35.934  40.147   7.317
 4553POPC   NC358955  41.962  16.588   5.572
 4553POPC   PO458956  42.550  16.885   5.409
 4553POPC   GL158957  42.388  17.006   5.786
 4553POPC   GL258958  42.377  16.654   5.856
 4553POPC   C1A58959  42.261  17.011   6.221
 4553POPC   D2A58960  42.343  17.171   6.620
 4553POPC   C3A58961  42.320  16.865   6.925
 4553POPC   C4A58962  42.083  16.729   7.265
 4553POPC   C1B58963  42.411  16.440   6.222
 4553POPC   C2B58964  42.203  16.401   6.613
 4553POPC   C3B58965  42.352  16.353   7.001
 4553POPC   C4B58966  42.789  16.386   7.110
 4554POPC   NC358967  37.404  19.643   5.276
 4554POPC   PO458968  37.977  20.148   5.409
 4554POPC   GL158969  37.773  19.991   5.761
 4554POPC   GL258970  37.448  19.930   5.679
 4554POPC   C1A58971  37.825  19.933   6.217
 4554POPC   D2A58972  37.925  20.021   6.650
 4554POPC   C3A58973  37.898  19.744   7.010
 4554POPC   C4A58974  37.682  19.964   7.309
 4554POPC   C1B58975  37.327  20.086   6.056
 4554POPC   C2B58976  37.218  19.907   6.448
 4554POPC   C3B58977  37.414  19.930   6.854
 4554POPC   C4B58978  37.243  19.746   7.235
 4555POPC   NC358979   8.568  29.830   5.586
 4555POPC   PO458980   9.101  30.001   5.386
 4555POPC   GL158981   9.044  29.897   5.821
 4555POPC   GL258982   9.191  29.643   5.925
 4555POPC   C1A58983   8.790  29.751   6.200
 4555POPC   D2A58984   8.830  29.902   6.598
 4555POPC   C3A58985   8.885  29.666   6.984
 4555POPC   C4A58986   9.123  29.620   7.360
 4555POPC   C1B58987   9.283  29.873   6.321
 4555POPC   C2B58988   9.283  29.966   6.787
 4555POPC   C3B58989   9.295  30.088   7.218
 4555POPC   C4B58990   9.414  29.971   7.647
 4556POPC   NC358991  27.850  18.851   5.423
 4556POPC   PO458992  27.283  19.258   5.449
 4556POPC   GL158993  27.534  19.044   5.807
 4556POPC   GL258994  27.777  18.773   5.910
 4556POPC   C1A58995  27.803  19.242   6.140
 4556POPC   D2A58996  27.854  19.509   6.498
 4556POPC   C3A58997  27.665  19.430   6.921
 4556POPC   C4A58998  27.337  19.231   7.155
 4556POPC   C1B58999  27.585  18.824   6.314
 4556POPC   C2B59000  27.558  18.972   6.723
 4556POPC   C3B59001  27.850  18.920   7.042
 4556POPC   C4B59002  28.006  18.568   7.245
 4557POPC   NC359003  10.955  15.897   5.253
 4557POPC   PO459004  11.334  16.242   5.724
 4557POPC   GL159005  11.235  15.825   5.845
 4557POPC   GL259006  10.954  15.628   5.677
 4557POPC   C1A59007  11.386  15.799   6.238
 4557POPC   D2A59008  11.540  16.173   6.455
 4557POPC   C3A59009  11.300  16.281   6.819
 4557POPC   C4A59010  11.399  16.163   7.241
 4557POPC   C1B59011  10.902  15.454   6.034
 4557POPC   C2B59012  10.944  15.551   6.416
 4557POPC   C3B59013  10.825  15.669   6.802
 4557POPC   C4B59014  10.941  15.966   7.099
 4558POPC   NC359015  34.706  23.344   5.133
 4558POPC   PO459016  34.623  23.951   5.379
 4558POPC   GL159017  34.369  23.685   5.653
 4558POPC   GL259018  34.639  23.483   5.662
 4558POPC   C1A59019  34.321  23.420   6.050
 4558POPC   D2A59020  34.535  23.463   6.433
 4558POPC   C3A59021  34.517  23.527   6.858
 4558POPC   C4A59022  34.297  23.741   7.184
 4558POPC   C1B59023  34.719  23.742   6.042
 4558POPC   C2B59024  34.891  23.862   6.464
 4558POPC   C3B59025  34.715  23.992   6.859
 4558POPC   C4B59026  34.768  23.917   7.279
 4559POPC   NC359027  37.826  22.024   5.228
 4559POPC   PO459028  37.816  22.662   5.456
 4559POPC   GL159029  37.753  22.390   5.812
 4559POPC   GL259030  37.683  22.022   5.719
 4559POPC   C1A59031  37.870  22.322   6.283
 4559POPC   D2A59032  37.803  22.172   6.719
 4559POPC   C3A59033  38.096  22.032   7.020
 4559POPC   C4A59034  37.907  22.141   7.412
 4559POPC   C1B59035  37.454  22.079   6.065
 4559POPC   C2B59036  37.370  22.133   6.460
 4559POPC   C3B59037  37.302  22.196   6.850
 4559POPC   C4B59038  37.354  22.214   7.269
 4560POPC   NC359039  19.102   6.259   5.472
 4560POPC   PO459040  19.326   6.872   5.548
 4560POPC   GL159041  18.940   6.714   5.735
 4560POPC   GL259042  18.640   6.890   5.608
 4560POPC   C1A59043  18.898   6.567   6.141
 4560POPC   D2A59044  19.035   6.664   6.561
 4560POPC   C3A59045  19.055   6.495   6.972
 4560POPC   C4A59046  19.205   6.559   7.397
 4560POPC   C1B59047  18.516   6.985   6.055
 4560POPC   C2B59048  18.731   7.061   6.417
 4560POPC   C3B59049  18.688   6.915   6.837
 4560POPC   C4B59050  18.851   6.899   7.250
 4561POPC   NC359051  21.511  35.122   5.168
 4561POPC   PO459052  21.045  35.680   5.080
 4561POPC   GL159053  21.246  35.383   5.559
 4561POPC   GL259054  21.540  35.149   5.683
 4561POPC   C1A59055  21.481  35.450   6.067
 4561POPC   D2A59056  21.448  35.417   6.566
 4561POPC   C3A59057  21.384  35.605   7.020
 4561POPC   C4A59058  21.051  35.614   7.395
 4561POPC   C1B59059  21.710  34.965   6.077
 4561POPC   C2B59060  21.656  34.971   6.536
 4561POPC   C3B59061  21.593  35.115   6.979
 4561POPC   C4B59062  21.460  35.228   7.394
 4562POPC   NC359063  24.141  38.679   5.406
 4562POPC   PO459064  24.800  38.668   5.496
 4562POPC   GL159065  24.529  38.433   5.809
 4562POPC   GL259066  24.152  38.473   5.868
 4562POPC   C1A59067  24.577  38.584   6.232
 4562POPC   D2A59068  24.842  38.574   6.585
 4562POPC   C3A59069  24.631  38.553   6.952
 4562POPC   C4A59070  24.695  38.336   7.279
 4562POPC   C1B59071  24.178  38.249   6.252
 4562POPC   C2B59072  24.331  38.297   6.648
 4562POPC   C3B59073  24.349  38.073   7.048
 4562POPC   C4B59074  24.254  38.229   7.491
 4563POPC   NC359075  15.370   3.188   5.600
 4563POPC   PO459076  14.970   2.678   5.317
 4563POPC   GL159077  15.031   2.839   5.781
 4563POPC   GL259078  14.883   3.137   5.901
 4563POPC   C1A59079  15.271   2.819   6.209
 4563POPC   D2A59080  15.393   2.596   6.561
 4563POPC   C3A59081  15.429   2.804   6.902
 4563POPC   C4A59082  15.265   2.693   7.282
 4563POPC   C1B59083  14.975   3.201   6.337
 4563POPC   C2B59084  14.896   3.237   6.761
 4563POPC   C3B59085  14.880   2.951   7.078
 4563POPC   C4B59086  14.861   3.006   7.509
 4564POPC   NC359087  23.539   5.363   5.484
 4564POPC   PO459088  23.833   6.039   5.438
 4564POPC   GL159089  23.847   5.718   5.744
 4564POPC   GL259090  23.470   5.739   5.846
 4564POPC   C1A59091  23.874   5.695   6.184
 4564POPC   D2A59092  23.485   5.642   6.402
 4564POPC   C3A59093  23.565   5.638   6.828
 4564POPC   C4A59094  23.784   5.705   7.179
 4564POPC   C1B59095  23.537   6.090   6.147
 4564POPC   C2B59096  23.716   6.060   6.586
 4564POPC   C3B59097  23.887   6.199   6.992
 4564POPC   C4B59098  23.710   6.191   7.405
 4565POPC   NC359099   6.217   4.629   5.464
 4565POPC   PO459100   6.735   5.179   5.327
 4565POPC   GL159101   6.552   5.225   5.728
 4565POPC   GL259102   6.608   4.867   5.816
 4565POPC   C1A59103   6.668   5.257   6.172
 4565POPC   D2A59104   6.863   5.047   6.538
 4565POPC   C3A59105   6.681   5.220   6.910
 4565POPC   C4A59106   6.782   5.449   7.290
 4565POPC   C1B59107   6.505   4.789   6.265
 4565POPC   C2B59108   6.226   4.781   6.614
 4565POPC   C3B59109   6.325   4.785   7.036
 4565POPC   C4B59110   6.405   5.123   7.330
 4566POPC   NC359111  28.863  36.513   5.532
 4566POPC   PO459112  29.149  37.062   5.606
 4566POPC   GL159113  29.199  36.705   5.863
 4566POPC   GL259114  29.539  36.517   5.862
 4566POPC   C1A59115  28.987  36.788   6.240
 4566POPC   D2A59116  28.887  37.060   6.582
 4566POPC   C3A59117  28.991  36.859   6.981
 4566POPC   C4A59118  29.219  36.916   7.381
 4566POPC   C1B59119  29.522  36.760   6.248
 4566POPC   C2B59120  29.387  36.944   6.627
 4566POPC   C3B59121  29.548  36.857   7.016
 4566POPC   C4B59122  29.581  36.504   7.285
 4567POPC   NC359123  38.965  11.068   5.728
 4567POPC   PO459124  38.975  11.507   5.228
 4567POPC   GL159125  39.320  11.460   5.686
 4567POPC   GL259126  39.500  11.162   5.824
 4567POPC   C1A59127  39.264  11.392   6.215
 4567POPC   D2A59128  39.319  11.116   6.569
 4567POPC   C3A59129  39.099  11.198   6.988
 4567POPC   C4A59130  38.938  11.041   7.380
 4567POPC   C1B59131  39.683  11.575   6.040
 4567POPC   C2B59132  39.545  11.741   6.485
 4567POPC   C3B59133  39.502  11.521   6.910
 4567POPC   C4B59134  39.581  11.056   6.993
 4568POPC   NC359135   5.141  38.855   5.407
 4568POPC   PO459136   5.305  38.225   5.230
 4568POPC   GL159137   5.047  38.379   5.639
 4568POPC   GL259138   4.825  38.691   5.762
 4568POPC   C1A59139   4.957  38.318   6.106
 4568POPC   D2A59140   4.927  38.513   6.545
 4568POPC   C3A59141   5.075  38.266   6.893
 4568POPC   C4A59142   5.459  38.124   7.065
 4568POPC   C1B59143   5.140  38.815   6.137
 4568POPC   C2B59144   5.377  38.783   6.571
 4568POPC   C3B59145   5.251  38.754   7.002
 4568POPC   C4B59146   5.209  38.486   7.341
 4569POPC   NC359147  13.388  32.344   5.377
 4569POPC   PO459148  13.945  32.036   5.592
 4569POPC   GL159149  13.644  32.187   5.841
 4569POPC   GL259150  13.445  32.494   5.851
 4569POPC   C1A59151  13.675  32.259   6.258
 4569POPC   D2A59152  13.609  32.000   6.574
 4569POPC   C3A59153  13.645  32.199   6.992
 4569POPC   C4A59154  13.603  32.357   7.429
 4569POPC   C1B59155  13.205  32.503   6.237
 4569POPC   C2B59156  13.418  32.559   6.640
 4569POPC   C3B59157  13.337  32.597   7.062
 4569POPC   C4B59158  13.039  32.369   7.240
 4570POPC   NC359159  37.420  13.783   5.382
 4570POPC   PO459160  38.004  13.538   5.452
 4570POPC   GL159161  37.776  13.624   5.816
 4570POPC   GL259162  37.450  13.467   5.769
 4570POPC   C1A59163  37.788  13.890   6.188
 4570POPC   D2A59164  37.569  13.939   6.565
 4570POPC   C3A59165  37.651  13.695   6.877
 4570POPC   C4A59166  37.751  13.805   7.252
 4570POPC   C1B59167  37.331  13.667   6.138
 4570POPC   C2B59168  37.369  13.457   6.507
 4570POPC   C3B59169  37.212  13.433   6.910
 4570POPC   C4B59170  37.491  13.344   7.205
 4571POPC   NC359171  39.347   3.956   5.092
 4571POPC   PO459172  39.533   4.454   5.608
 4571POPC   GL159173  39.418   4.313   6.008
 4571POPC   GL259174  39.059   4.208   5.960
 4571POPC   C1A59175  39.503   4.355   6.436
 4571POPC   D2A59176  39.327   4.332   6.810
 4571POPC   C3A59177  39.470   4.441   7.211
 4571POPC   C4A59178  39.254   4.211   7.569
 4571POPC   C1B59179  39.002   4.347   6.370
 4571POPC   C2B59180  38.853   4.487   6.742
 4571POPC   C3B59181  38.792   4.479   7.176
 4571POPC   C4B59182  38.626   4.715   7.510
 4572POPC   NC359183   5.670  13.921   5.258
 4572POPC   PO459184   5.956  13.308   5.473
 4572POPC   GL159185   5.794  13.645   5.720
 4572POPC   GL259186   5.992  13.966   5.736
 4572POPC   C1A59187   5.700  13.579   6.150
 4572POPC   D2A59188   5.626  13.780   6.522
 4572POPC   C3A59189   5.580  13.493   6.834
 4572POPC   C4A59190   5.635  13.641   7.205
 4572POPC   C1B59191   6.197  13.701   6.087
 4572POPC   C2B59192   6.088  13.554   6.547
 4572POPC   C3B59193   6.053  13.335   6.992
 4572POPC   C4B59194   6.000  13.375   7.466
 4573POPC   NC359195  24.408  19.441   5.360
 4573POPC   PO459196  24.445  20.097   5.398
 4573POPC   GL159197  24.634  19.794   5.693
 4573POPC   GL259198  24.299  19.716   5.768
 4573POPC   C1A59199  24.796  19.861   6.123
 4573POPC   D2A59200  24.648  20.054   6.523
 4573POPC   C3A59201  24.809  19.876   6.920
 4573POPC   C4A59202  24.697  19.933   7.358
 4573POPC   C1B59203  24.279  19.800   6.173
 4573POPC   C2B59204  24.175  19.775   6.581
 4573POPC   C3B59205  24.298  19.962   6.930
 4573POPC   C4B59206  24.229  19.771   7.279
 4574POPC   NC359207   6.233  18.323   5.044
 4574POPC   PO459208   5.749  17.972   5.362
 4574POPC   GL159209   5.862  18.175   5.764
 4574POPC   GL259210   6.221  18.261   5.817
 4574POPC   C1A59211   5.761  18.347   6.179
 4574POPC   D2A59212   5.651  18.171   6.586
 4574POPC   C3A59213   5.699  18.408   6.969
 4574POPC   C4A59214   5.790  18.474   7.419
 4574POPC   C1B59215   6.230  18.545   6.198
 4574POPC   C2B59216   6.148  18.449   6.650
 4574POPC   C3B59217   6.177  18.572   7.104
 4574POPC   C4B59218   6.265  18.428   7.556
 4575POPC   NC359219  10.255  25.518   5.395
 4575POPC   PO459220   9.719  26.066   5.369
 4575POPC   GL159221   9.801  25.993   5.776
 4575POPC   GL259222  10.048  25.739   5.812
 4575POPC   C1A59223   9.538  26.029   6.170
 4575POPC   D2A59224   9.643  25.921   6.598
 4575POPC   C3A59225   9.450  25.923   6.990
 4575POPC   C4A59226   9.652  25.871   7.374
 4575POPC   C1B59227  10.034  25.939   6.233
 4575POPC   C2B59228  10.138  26.071   6.642
 4575POPC   C3B59229  10.058  25.963   7.068
 4575POPC   C4B59230  10.150  26.000   7.548
 4576POPC   NC359231  39.456  17.091   5.169
 4576POPC   PO459232  38.996  17.300   5.578
 4576POPC   GL159233  39.126  17.484   5.929
 4576POPC   GL259234  39.350  17.749   5.819
 4576POPC   C1A59235  39.402  17.522   6.288
 4576POPC   D2A59236  39.484  17.268   6.632
 4576POPC   C3A59237  39.177  17.320   6.912
 4576POPC   C4A59238  39.166  17.512   7.280
 4576POPC   C1B59239  39.012  17.916   6.120
 4576POPC   C2B59240  39.053  17.804   6.556
 4576POPC   C3B59241  39.046  17.907   6.981
 4576POPC   C4B59242  38.834  17.861   7.398
 4577POPC   NC359243  44.788   2.246   5.559
 4577POPC   PO459244  44.262   1.833   5.499
 4577POPC   GL159245  44.482   1.932   5.827
 4577POPC   GL259246  44.766   1.720   5.706
 4577POPC   C1A59247  44.492   2.146   6.232
 4577POPC   D2A59248  44.744   2.085   6.615
 4577POPC   C3A59249  44.480   2.015   6.980
 4577POPC   C4A59250  44.506   2.156   7.403
 4577POPC   C1B59251  44.872   1.810   6.130
 4577POPC   C2B59252  44.965   1.607   6.500
 4577POPC   C3B59253  44.814   1.618   6.894
 4577POPC   C4B59254  44.862   1.788   7.273
 4578POPC   NC359255  13.127  39.088   5.392
 4578POPC   PO459256  12.556  39.244   5.297
 4578POPC   GL159257  12.673  39.089   5.709
 4578POPC   GL259258  12.937  38.882   5.847
 4578POPC   C1A59259  12.604  39.275   6.099
 4578POPC   D2A59260  12.651  39.600   6.402
 4578POPC   C3A59261  12.797  39.347   6.726
 4578POPC   C4A59262  12.732  39.212   7.128
 4578POPC   C1B59263  12.922  38.919   6.332
 4578POPC   C2B59264  12.964  38.827   6.791
 4578POPC   C3B59265  13.005  38.791   7.246
 4578POPC   C4B59266  13.097  38.978   7.717
 4579POPC   NC359267  27.505   6.559   5.357
 4579POPC   PO459268  28.006   7.017   5.486
 4579POPC   GL159269  27.702   6.861   5.845
 4579POPC   GL259270  27.601   6.509   5.847
 4579POPC   C1A59271  27.550   6.759   6.314
 4579POPC   D2A59272  27.419   6.874   6.744
 4579POPC   C3A59273  27.711   6.866   7.115
 4579POPC   C4A59274  27.737   7.073   7.559
 4579POPC   C1B59275  27.691   6.282   6.195
 4579POPC   C2B59276  27.543   6.221   6.564
 4579POPC   C3B59277  27.717   6.131   6.923
 4579POPC   C4B59278  27.550   6.375   7.225
 4580POPC   NC359279   5.754  30.655   5.403
 4580POPC   PO459280   6.198  31.188   5.337
 4580POPC   GL159281   6.069  30.941   5.764
 4580POPC   GL259282   5.691  30.822   5.869
 4580POPC   C1A59283   6.001  30.905   6.260
 4580POPC   D2A59284   5.988  30.533   6.569
 4580POPC   C3A59285   5.977  30.639   7.010
 4580POPC   C4A59286   6.179  30.924   7.294
 4580POPC   C1B59287   5.578  30.622   6.245
 4580POPC   C2B59288   5.587  30.892   6.611
 4580POPC   C3B59289   5.316  30.850   6.938
 4580POPC   C4B59290   5.478  30.527   7.087
 4581POPC   NC359291  41.936  43.326   5.528
 4581POPC   PO459292  41.402  42.947   5.470
 4581POPC   GL159293  41.693  42.929   5.775
 4581POPC   GL259294  41.484  42.675   5.939
 4581POPC   C1A59295  41.854  42.912   6.183
 4581POPC   D2A59296  41.618  42.721   6.504
 4581POPC   C3A59297  41.784  42.879   6.869
 4581POPC   C4A59298  41.893  43.264   7.051
 4581POPC   C1B59299  41.391  43.116   6.179
 4581POPC   C2B59300  41.231  43.403   6.551
 4581POPC   C3B59301  41.360  43.299   6.991
 4581POPC   C4B59302  41.513  42.973   7.289
 4582POPC   NC359303   0.156  15.401   5.417
 4582POPC   PO459304  44.520  15.124   5.458
 4582POPC   GL159305  44.683  15.097   5.839
 4582POPC   GL259306  44.951  15.325   5.901
 4582POPC   C1A59307  44.815  14.944   6.212
 4582POPC   D2A59308  44.881  15.075   6.596
 4582POPC   C3A59309  44.598  14.902   6.847
 4582POPC   C4A59310  44.632  14.942   7.298
 4582POPC   C1B59311  44.603  15.427   6.231
 4582POPC   C2B59312  44.526  15.474   6.683
 4582POPC   C3B59313  44.769  15.365   7.053
 4582POPC   C4B59314  44.800  15.444   7.523
 4583POPC   NC359315   0.462  40.024   5.330
 4583POPC   PO459316   0.744  40.569   5.630
 4583POPC   GL159317   0.556  40.178   5.809
 4583POPC   GL259318   0.737  39.872   5.759
 4583POPC   C1A59319   0.389  39.904   6.176
 4583POPC   D2A59320   0.209  40.104   6.568
 4583POPC   C3A59321   0.375  40.101   7.018
 4583POPC   C4A59322   0.459  39.826   7.385
 4583POPC   C1B59323   0.880  40.064   6.171
 4583POPC   C2B59324   0.707  39.962   6.581
 4583POPC   C3B59325   0.660  39.684   6.908
 4583POPC   C4B59326   0.939  39.811   7.212
 4584POPC   NC359327   8.804  44.022   5.502
 4584POPC   PO459328   9.407  43.760   5.508
 4584POPC   GL159329   9.102  43.776   5.864
 4584POPC   GL259330   8.758  43.612   5.804
 4584POPC   C1A59331   8.906  44.096   6.162
 4584POPC   D2A59332   8.710  44.147   6.565
 4584POPC   C3A59333   8.984  44.039   6.882
 4584POPC   C4A59334   9.125  43.967   7.306
 4584POPC   C1B59335   8.826  43.563   6.254
 4584POPC   C2B59336   9.042  43.487   6.656
 4584POPC   C3B59337   8.888  43.568   7.074
 4584POPC   C4B59338   8.777  43.608   7.526
 4585POPC   NC359339   9.328  33.052   5.145
 4585POPC   PO459340   8.823  32.797   5.381
 4585POPC   GL159341   8.909  33.088   5.684
 4585POPC   GL259342   9.258  33.150   5.646
 4585POPC   C1A59343   8.867  32.916   6.094
 4585POPC   D2A59344   8.712  32.936   6.489
 4585POPC   C3A59345   8.985  32.904   6.833
 4585POPC   C4A59346   8.948  33.049   7.230
 4585POPC   C1B59347   9.305  33.172   6.097
 4585POPC   C2B59348   9.382  33.037   6.536
 4585POPC   C3B59349   9.370  33.206   7.009
 4585POPC   C4B59350   9.332  33.168   7.520
 4586POPC   NC359351   7.259   8.060   5.225
 4586POPC   PO459352   7.853   8.214   5.313
 4586POPC   GL159353   7.649   8.359   5.699
 4586POPC   GL259354   7.355   8.161   5.706
 4586POPC   C1A59355   7.725   8.232   6.160
 4586POPC   D2A59356   7.745   7.927   6.523
 4586POPC   C3A59357   7.721   8.124   6.918
 4586POPC   C4A59358   7.868   7.948   7.298
 4586POPC   C1B59359   7.203   8.181   6.100
 4586POPC   C2B59360   7.293   8.132   6.507
 4586POPC   C3B59361   7.196   8.010   6.901
 4586POPC   C4B59362   7.327   8.190   7.277
 4587POPC   NC359363  33.412  25.458   5.437
 4587POPC   PO459364  32.975  24.965   5.353
 4587POPC   GL159365  32.915  25.198   5.743
 4587POPC   GL259366  33.223  25.291   5.892
 4587POPC   C1A59367  32.807  25.211   6.197
 4587POPC   D2A59368  33.009  25.201   6.601
 4587POPC   C3A59369  32.774  25.280   6.974
 4587POPC   C4A59370  33.119  25.223   7.223
 4587POPC   C1B59371  32.991  25.661   6.051
 4587POPC   C2B59372  32.912  25.717   6.500
 4587POPC   C3B59373  33.128  25.642   6.891
 4587POPC   C4B59374  33.139  25.741   7.298
 4588POPC   NC359375  42.010   0.680   5.318
 4588POPC   PO459376  42.504   0.312   5.476
 4588POPC   GL159377  42.372   0.340   5.855
 4588POPC   GL259378  42.278   0.655   5.847
 4588POPC   C1A59379  42.409   0.391   6.275
 4588POPC   D2A59380  42.652   0.318   6.612
 4588POPC   C3A59381  42.458   0.493   6.951
 4588POPC   C4A59382  42.383   0.186   7.258
 4588POPC   C1B59383  41.960   0.637   6.184
 4588POPC   C2B59384  42.037   0.550   6.616
 4588POPC   C3B59385  41.935   0.665   7.018
 4588POPC   C4B59386  42.191   0.676   7.353
 4589POPC   NC359387  25.604  18.250   5.394
 4589POPC   PO459388  24.967  18.507   5.519
 4589POPC   GL159389  25.153  18.263   5.844
 4589POPC   GL259390  25.490  18.414   5.863
 4589POPC   C1A59391  24.971  18.047   6.222
 4589POPC   D2A59392  24.800  17.958   6.628
 4589POPC   C3A59393  25.078  18.211   6.870
 4589POPC   C4A59394  25.144  18.243   7.309
 4589POPC   C1B59395  25.364  18.405   6.298
 4589POPC   C2B59396  25.508  18.464   6.714
 4589POPC   C3B59397  25.399  18.666   7.103
 4589POPC   C4B59398  25.687  18.642   7.445
 4590POPC   NC359399  10.320   7.090   5.574
 4590POPC   PO459400  10.604   7.768   5.370
 4590POPC   GL159401  10.627   7.504   5.754
 4590POPC   GL259402  10.844   7.226   5.773
 4590POPC   C1A59403  10.488   7.323   6.172
 4590POPC   D2A59404  10.266   7.503   6.511
 4590POPC   C3A59405  10.492   7.375   6.880
 4590POPC   C4A59406  10.362   7.491   7.289
 4590POPC   C1B59407  10.986   7.502   6.142
 4590POPC   C2B59408  10.960   7.404   6.589
 4590POPC   C3B59409  10.927   7.646   6.978
 4590POPC   C4B59410  10.891   7.445   7.364
 4591POPC   NC359411   9.571   0.802   5.392
 4591POPC   PO459412  10.023   0.391   5.651
 4591POPC   GL159413   9.819   0.547   5.983
 4591POPC   GL259414   9.488   0.628   5.878
 4591POPC   C1A59415   9.898   0.509   6.424
 4591POPC   D2A59416   9.625   0.330   6.757
 4591POPC   C3A59417   9.514   0.619   7.126
 4591POPC   C4A59418   9.942   0.697   7.199
 4591POPC   C1B59419   9.389   0.387   6.261
 4591POPC   C2B59420   9.344  44.977   6.477
 4591POPC   C3B59421   9.408  44.883   6.912
 4591POPC   C4B59422   9.605   0.144   7.248
 4592POPC   NC359423   7.081   4.809   5.324
 4592POPC   PO459424   7.268   4.155   5.445
 4592POPC   GL159425   7.352   4.270   5.824
 4592POPC   GL259426   7.341   4.653   5.804
 4592POPC   C1A59427   7.160   4.212   6.210
 4592POPC   D2A59428   7.222   4.034   6.591
 4592POPC   C3A59429   7.496   4.028   6.902
 4592POPC   C4A59430   7.487   4.190   7.287
 4592POPC   C1B59431   7.576   4.522   6.193
 4592POPC   C2B59432   7.590   4.440   6.616
 4592POPC   C3B59433   7.415   4.590   6.987
 4592POPC   C4B59434   7.221   4.637   7.376
 4593POPC   NC359435   8.036  36.454   5.407
 4593POPC   PO459436   7.926  37.181   5.401
 4593POPC   GL159437   8.148  37.069   5.799
 4593POPC   GL259438   8.366  36.747   5.757
 4593POPC   C1A59439   8.154  36.897   6.223
 4593POPC   D2A59440   8.092  36.778   6.641
 4593POPC   C3A59441   8.215  37.033   6.973
 4593POPC   C4A59442   7.881  36.861   7.175
 4593POPC   C1B59443   8.594  36.581   6.130
 4593POPC   C2B59444   8.570  36.651   6.585
 4593POPC   C3B59445   8.529  36.632   7.048
 4593POPC   C4B59446   8.276  36.683   7.469
 4594POPC   NC359447  44.201  33.272   5.478
 4594POPC   PO459448  44.681  33.673   5.033
 4594POPC   GL159449  44.494  33.711   5.503
 4594POPC   GL259450  44.270  34.004   5.570
 4594POPC   C1A59451  44.604  33.676   5.998
 4594POPC   D2A59452  44.706  33.457   6.431
 4594POPC   C3A59453  44.754  33.735   6.808
 4594POPC   C4A59454  44.578  33.769   7.212
 4594POPC   C1B59455  44.315  34.099   6.042
 4594POPC   C2B59456  44.423  33.940   6.474
 4594POPC   C3B59457  44.405  34.144   6.916
 4594POPC   C4B59458  44.175  34.092   7.278
 4595POPC   NC359459  29.082  34.841   5.187
 4595POPC   PO459460  29.713  34.734   5.384
 4595POPC   GL159461  29.463  34.529   5.714
 4595POPC   GL259462  29.201  34.779   5.691
 4595POPC   C1A59463  29.361  34.440   6.135
 4595POPC   D2A59464  29.079  34.353   6.484
 4595POPC   C3A59465  29.168  34.178   6.887
 4595POPC   C4A59466  29.256  34.391   7.268
 4595POPC   C1B59467  29.232  34.969   6.097
 4595POPC   C2B59468  29.288  34.829   6.500
 4595POPC   C3B59469  29.087  34.703   6.895
 4595POPC   C4B59470  28.856  34.795   7.296
 4596POPC   NC359471  38.268  39.274   5.126
 4596POPC   PO459472  38.760  38.890   5.430
 4596POPC   GL159473  38.566  39.189   5.752
 4596POPC   GL259474  38.387  39.479   5.615
 4596POPC   C1A59475  38.410  39.152   6.194
 4596POPC   D2A59476  38.542  39.348   6.593
 4596POPC   C3A59477  38.416  39.119   6.966
 4596POPC   C4A59478  38.370  39.018   7.409
 4596POPC   C1B59479  38.206  39.588   6.033
 4596POPC   C2B59480  38.101  39.588   6.511
 4596POPC   C3B59481  38.244  39.641   6.936
 4596POPC   C4B59482  38.466  39.544   7.312
 4597POPC   NC359483  25.232   1.820   5.467
 4597POPC   PO459484  25.596   2.354   5.295
 4597POPC   GL159485  25.628   2.253   5.743
 4597POPC   GL259486  25.500   1.939   5.892
 4597POPC   C1A59487  25.394   2.375   6.140
 4597POPC   D2A59488  25.158   2.424   6.535
 4597POPC   C3A59489  25.256   2.166   6.897
 4597POPC   C4A59490  25.482   1.969   7.235
 4597POPC   C1B59491  25.222   1.616   6.106
 4597POPC   C2B59492  25.079   1.659   6.538
 4597POPC   C3B59493  25.243   1.645   6.945
 4597POPC   C4B59494  25.078   1.665   7.341
 4598POPC   NC359495  40.640  35.608   5.301
 4598POPC   PO459496  40.943  36.225   5.186
 4598POPC   GL159497  40.783  36.081   5.617
 4598POPC   GL259498  40.427  36.103   5.743
 4598POPC   C1A59499  40.848  36.170   6.081
 4598POPC   D2A59500  40.657  36.214   6.513
 4598POPC   C3A59501  40.851  36.195   6.942
 4598POPC   C4A59502  40.651  36.402   7.295
 4598POPC   C1B59503  40.544  35.748   6.064
 4598POPC   C2B59504  40.711  35.694   6.495
 4598POPC   C3B59505  40.483  35.832   6.862
 4598POPC   C4B59506  40.423  35.585   7.209
 4599POPC   NC359507  37.777   1.943   5.384
 4599POPC   PO459508  37.839   2.518   5.518
 4599POPC   GL159509  37.760   2.173   5.863
 4599POPC   GL259510  37.540   1.861   5.863
 4599POPC   C1A59511  37.733   2.094   6.326
 4599POPC   D2A59512  37.874   2.299   6.702
 4599POPC   C3A59513  37.799   2.158   7.138
 4599POPC   C4A59514  37.644   1.991   7.528
 4599POPC   C1B59515  37.414   1.697   6.285
 4599POPC   C2B59516  37.428   1.865   6.730
 4599POPC   C3B59517  37.515   1.681   7.139
 4599POPC   C4B59518  37.267   1.658   7.535
 4600POPC   NC359519  19.414   2.832   5.242
 4600POPC   PO459520  18.789   2.445   5.331
 4600POPC   GL159521  18.892   2.668   5.712
 4600POPC   GL259522  19.199   2.738   5.829
 4600POPC   C1A59523  18.833   2.788   6.177
 4600POPC   D2A59524  18.734   2.915   6.623
 4600POPC   C3A59525  18.969   2.688   6.935
 4600POPC   C4A59526  19.246   2.385   7.081
 4600POPC   C1B59527  19.289   2.975   6.235
 4600POPC   C2B59528  19.487   2.919   6.627
 4600POPC   C3B59529  19.441   2.864   7.028
 4600POPC   C4B59530  19.144   3.115   7.186
 4601POPC   NC359531  13.107  33.990   5.584
 4601POPC   PO459532  12.673  33.551   5.524
 4601POPC   GL159533  12.721  33.759   5.892
 4601POPC   GL259534  12.624  34.045   5.741
 4601POPC   C1A59535  13.042  33.729   6.219
 4601POPC   D2A59536  13.191  33.537   6.608
 4601POPC   C3A59537  12.916  33.714   6.910
 4601POPC   C4A59538  12.984  33.895   7.322
 4601POPC   C1B59539  12.805  34.189   6.149
 4601POPC   C2B59540  12.758  34.052   6.559
 4601POPC   C3B59541  12.577  34.086   6.988
 4601POPC   C4B59542  12.720  34.342   7.336
 4602POPC   NC359543  27.266   9.340   5.447
 4602POPC   PO459544  27.513   8.715   5.443
 4602POPC   GL159545  27.686   8.823   5.847
 4602POPC   GL259546  27.624   9.122   5.817
 4602POPC   C1A59547  27.733   9.008   6.301
 4602POPC   D2A59548  27.782   9.126   6.741
 4602POPC   C3A59549  27.706   8.817   7.041
 4602POPC   C4A59550  27.605   8.873   7.452
 4602POPC   C1B59551  27.312   9.244   6.128
 4602POPC   C2B59552  27.382   9.389   6.538
 4602POPC   C3B59553  27.345   9.315   6.973
 4602POPC   C4B59554  27.643   9.357   7.320
 4603POPC   NC359555  27.960  24.704   5.336
 4603POPC   PO459556  27.483  24.246   5.439
 4603POPC   GL159557  27.668  24.563   5.753
 4603POPC   GL259558  28.023  24.649   5.830
 4603POPC   C1A59559  27.661  24.676   6.214
 4603POPC   D2A59560  27.510  24.521   6.626
 4603POPC   C3A59561  27.345  24.775   6.968
 4603POPC   C4A59562  27.040  24.640   7.246
 4603POPC   C1B59563  27.925  24.264   6.071
 4603POPC   C2B59564  27.950  24.265   6.510
 4603POPC   C3B59565  27.841  24.251   6.918
 4603POPC   C4B59566  27.712  24.507   7.204
 4604POPC   NC359567  35.620  11.695   5.641
 4604POPC   PO459568  35.311  11.073   5.400
 4604POPC   GL159569  35.232  11.352   5.718
 4604POPC   GL259570  35.549  11.253   5.866
 4604POPC   C1A59571  35.145  11.296   6.167
 4604POPC   D2A59572  35.087  11.058   6.519
 4604POPC   C3A59573  35.221  11.307   6.832
 4604POPC   C4A59574  35.100  11.410   7.243
 4604POPC   C1B59575  35.654  11.452   6.294
 4604POPC   C2B59576  35.616  11.621   6.730
 4604POPC   C3B59577  35.605  11.522   7.175
 4604POPC   C4B59578  35.757  11.359   7.596
 4605POPC   NC359579   3.766   1.213   5.313
 4605POPC   PO459580   3.341   1.683   5.255
 4605POPC   GL159581   3.180   1.502   5.697
 4605POPC   GL259582   3.505   1.323   5.781
 4605POPC   C1A59583   3.218   1.461   6.210
 4605POPC   D2A59584   3.434   1.268   6.625
 4605POPC   C3A59585   3.316   1.200   7.059
 4605POPC   C4A59586   3.378   1.575   7.266
 4605POPC   C1B59587   3.686   1.210   6.198
 4605POPC   C2B59588   3.931   1.374   6.582
 4605POPC   C3B59589   3.836   1.497   7.013
 4605POPC   C4B59590   3.842   1.368   7.457
 4606POPC   NC359591  26.299  20.918   5.443
 4606POPC   PO459592  26.072  20.321   5.477
 4606POPC   GL159593  25.992  20.404   5.859
 4606POPC   GL259594  25.985  20.761   5.842
 4606POPC   C1A59595  26.320  20.449   6.168
 4606POPC   D2A59596  26.369  20.690   6.560
 4606POPC   C3A59597  26.049  20.614   6.898
 4606POPC   C4A59598  26.201  20.399   7.288
 4606POPC   C1B59599  25.804  20.965   6.216
 4606POPC   C2B59600  25.619  20.859   6.631
 4606POPC   C3B59601  25.677  20.963   7.080
 4606POPC   C4B59602  26.055  20.887   7.349
 4607POPC   NC359603   6.835  37.637   5.343
 4607POPC   PO459604   6.275  38.009   5.347
 4607POPC   GL159605   6.340  37.884   5.808
 4607POPC   GL259606   6.668  37.708   5.850
 4607POPC   C1A59607   6.335  37.753   6.259
 4607POPC   D2A59608   6.409  37.387   6.550
 4607POPC   C3A59609   6.334  37.522   6.987
 4607POPC   C4A59610   6.227  37.636   7.396
 4607POPC   C1B59611   6.823  37.611   6.282
 4607POPC   C2B59612   6.703  37.779   6.693
 4607POPC   C3B59613   6.781  37.751   7.131
 4607POPC   C4B59614   6.801  37.499   7.474
 4608POPC   NC359615  26.674   2.502   5.525
 4608POPC   PO459616  27.015   1.948   5.367
 4608POPC   GL159617  26.721   1.971   5.740
 4608POPC   GL259618  26.519   1.651   5.788
 4608POPC   C1A59619  26.710   2.150   6.180
 4608POPC   D2A59620  26.999   2.028   6.531
 4608POPC   C3A59621  26.977   2.023   6.985
 4608POPC   C4A59622  27.098   2.216   7.401
 4608POPC   C1B59623  26.744   1.640   6.179
 4608POPC   C2B59624  26.700   1.610   6.620
 4608POPC   C3B59625  26.517   1.755   7.016
 4608POPC   C4B59626  26.759   1.797   7.376
 4609POPC   NC359627  40.360  21.670   5.434
 4609POPC   PO459628  40.614  22.330   5.453
 4609POPC   GL159629  40.720  22.324   5.857
 4609POPC   GL259630  40.913  22.050   5.905
 4609POPC   C1A59631  40.573  22.198   6.271
 4609POPC   D2A59632  40.698  22.053   6.664
 4609POPC   C3A59633  40.491  22.118   7.056
 4609POPC   C4A59634  40.640  22.202   7.460
 4609POPC   C1B59635  41.096  22.078   6.294
 4609POPC   C2B59636  41.212  22.073   6.708
 4609POPC   C3B59637  41.004  22.252   7.051
 4609POPC   C4B59638  41.126  22.109   7.422
 4610POPC   NC359639  35.036  30.735   5.307
 4610POPC   PO459640  35.673  30.672   5.492
 4610POPC   GL159641  35.285  30.677   5.751
 4610POPC   GL259642  35.060  30.346   5.641
 4610POPC   C1A59643  35.347  30.793   6.194
 4610POPC   D2A59644  35.440  30.887   6.642
 4610POPC   C3A59645  35.492  30.535   6.920
 4610POPC   C4A59646  35.628  30.432   7.336
 4610POPC   C1B59647  34.997  30.420   6.085
 4610POPC   C2B59648  35.049  30.507   6.519
 4610POPC   C3B59649  34.905  30.498   6.925
 4610POPC   C4B59650  35.026  30.411   7.333
 4611POPC   NC359651  35.895  42.421   5.483
 4611POPC   PO459652  36.424  41.993   5.559
 4611POPC   GL159653  36.137  42.134   5.828
 4611POPC   GL259654  35.801  41.983   5.749
 4611POPC   C1A59655  35.996  42.418   6.156
 4611POPC   D2A59656  35.936  42.585   6.551
 4611POPC   C3A59657  36.064  42.340   6.897
 4611POPC   C4A59658  36.063  42.572   7.249
 4611POPC   C1B59659  35.898  41.897   6.197
 4611POPC   C2B59660  35.745  42.027   6.583
 4611POPC   C3B59661  35.770  41.810   6.960
 4611POPC   C4B59662  35.929  42.012   7.306
 4612POPC   NC359663  29.640  19.823   5.354
 4612POPC   PO459664  30.338  19.909   5.336
 4612POPC   GL159665  30.044  19.980   5.714
 4612POPC   GL259666  29.831  19.697   5.809
 4612POPC   C1A59667  29.832  20.083   6.141
 4612POPC   D2A59668  29.795  19.909   6.581
 4612POPC   C3A59669  29.942  20.006   7.029
 4612POPC   C4A59670  29.972  19.962   7.513
 4612POPC   C1B59671  29.964  19.569   6.228
 4612POPC   C2B59672  29.991  19.445   6.672
 4612POPC   C3B59673  30.125  19.549   7.095
 4612POPC   C4B59674  29.800  19.501   7.389
 4613POPC   NC359675   0.040  12.087   5.385
 4613POPC   PO459676  44.330  11.860   5.445
 4613POPC   GL159677  44.588  11.933   5.804
 4613POPC   GL259678  44.893  12.118   5.891
 4613POPC   C1A59679  44.691  11.834   6.245
 4613POPC   D2A59680  44.872  11.887   6.637
 4613POPC   C3A59681  44.684  12.223   6.868
 4613POPC   C4A59682  44.601  12.134   7.250
 4613POPC   C1B59683   0.121  12.216   6.268
 4613POPC   C2B59684   0.146  12.316   6.708
 4613POPC   C3B59685   0.115  12.074   7.106
 4613POPC   C4B59686   0.128  12.219   7.561
 4614POPC   NC359687  23.213  42.979   5.334
 4614POPC   PO459688  22.755  43.417   5.513
 4614POPC   GL159689  22.806  43.051   5.796
 4614POPC   GL259690  23.148  42.980   5.832
 4614POPC   C1A59691  22.872  43.023   6.254
 4614POPC   D2A59692  23.018  43.007   6.671
 4614POPC   C3A59693  22.808  43.156   7.031
 4614POPC   C4A59694  22.635  42.874   7.312
 4614POPC   C1B59695  23.238  42.643   6.123
 4614POPC   C2B59696  23.160  42.511   6.535
 4614POPC   C3B59697  23.382  42.724   6.877
 4614POPC   C4B59698  23.322  43.071   7.176
 4615POPC   NC359699  21.397  28.809   5.293
 4615POPC   PO459700  21.577  29.495   5.404
 4615POPC   GL159701  21.340  29.184   5.676
 4615POPC   GL259702  21.603  28.943   5.739
 4615POPC   C1A59703  21.153  29.121   6.125
 4615POPC   D2A59704  21.265  29.151   6.575
 4615POPC   C3A59705  21.019  29.249   6.957
 4615POPC   C4A59706  21.169  29.092   7.363
 4615POPC   C1B59707  21.657  29.238   6.072
 4615POPC   C2B59708  21.809  29.228   6.468
 4615POPC   C3B59709  21.646  29.365   6.854
 4615POPC   C4B59710  21.679  29.204   7.264
 4616POPC   NC359711  30.216  12.933   5.136
 4616POPC   PO459712  29.596  12.880   5.486
 4616POPC   GL159713  29.866  12.646   5.765
 4616POPC   GL259714  29.835  12.911   6.014
 4616POPC   C1A59715  30.045  12.488   6.191
 4616POPC   D2A59716  30.089  12.752   6.548
 4616POPC   C3A59717  30.054  12.587   6.964
 4616POPC   C4A59718  30.009  12.919   7.269
 4616POPC   C1B59719  29.547  12.560   6.161
 4616POPC   C2B59720  29.561  12.564   6.595
 4616POPC   C3B59721  29.653  12.910   6.881
 4616POPC   C4B59722  29.581  12.673   7.221
 4617POPC   NC359723  19.660  20.745   5.633
 4617POPC   PO459724  19.868  20.333   5.122
 4617POPC   GL159725  19.876  20.290   5.673
 4617POPC   GL259726  20.119  20.559   5.812
 4617POPC   C1A59727  19.704  20.380   6.175
 4617POPC   D2A59728  19.500  20.386   6.632
 4617POPC   C3A59729  19.478  20.744   6.941
 4617POPC   C4A59730  19.565  20.571   7.422
 4617POPC   C1B59731  20.027  20.790   6.202
 4617POPC   C2B59732  19.918  20.682   6.624
 4617POPC   C3B59733  19.910  20.528   7.041
 4617POPC   C4B59734  20.041  20.902   7.267
 4618POPC   NC359735  23.628  29.458   5.381
 4618POPC   PO459736  23.423  28.775   5.350
 4618POPC   GL159737  23.708  28.778   5.723
 4618POPC   GL259738  23.743  29.150   5.787
 4618POPC   C1A59739  23.623  28.883   6.184
 4618POPC   D2A59740  23.795  29.006   6.581
 4618POPC   C3A59741  23.548  28.972   6.938
 4618POPC   C4A59742  23.745  29.063   7.296
 4618POPC   C1B59743  23.901  29.342   6.174
 4618POPC   C2B59744  23.745  29.504   6.528
 4618POPC   C3B59745  23.773  29.418   6.927
 4618POPC   C4B59746  24.014  29.533   7.238
 4619POPC   NC359747  29.778   3.178   5.325
 4619POPC   PO459748  29.829   3.755   5.356
 4619POPC   GL159749  29.758   3.601   5.779
 4619POPC   GL259750  30.021   3.397   5.919
 4619POPC   C1A59751  29.635   3.457   6.213
 4619POPC   D2A59752  29.930   3.322   6.515
 4619POPC   C3A59753  29.867   3.242   6.921
 4619POPC   C4A59754  29.823   3.432   7.287
 4619POPC   C1B59755  30.244   3.621   6.217
 4619POPC   C2B59756  30.391   3.492   6.625
 4619POPC   C3B59757  30.243   3.592   7.032
 4619POPC   C4B59758  30.160   3.961   7.284
 4620POPC   NC359759  27.016  28.346   5.114
 4620POPC   PO459760  26.582  28.015   5.510
 4620POPC   GL159761  26.755  28.391   5.738
 4620POPC   GL259762  27.103  28.347   5.743
 4620POPC   C1A59763  26.921  28.569   6.158
 4620POPC   D2A59764  26.917  28.748   6.585
 4620POPC   C3A59765  26.908  28.470   6.928
 4620POPC   C4A59766  26.982  28.564   7.366
 4620POPC   C1B59767  26.874  28.064   6.109
 4620POPC   C2B59768  26.858  28.134   6.530
 4620POPC   C3B59769  26.781  27.966   6.925
 4620POPC   C4B59770  26.933  28.074   7.288
 4621POPC   NC359771  32.757  26.332   5.414
 4621POPC   PO459772  33.157  25.791   5.259
 4621POPC   GL159773  33.059  26.025   5.692
 4621POPC   GL259774  33.341  26.139   5.843
 4621POPC   C1A59775  32.932  26.364   6.033
 4621POPC   D2A59776  32.993  26.463   6.461
 4621POPC   C3A59777  33.102  26.145   6.759
 4621POPC   C4A59778  33.382  26.226   7.098
 4621POPC   C1B59779  33.270  26.041   6.254
 4621POPC   C2B59780  33.442  25.745   6.517
 4621POPC   C3B59781  33.641  25.799   6.917
 4621POPC   C4B59782  33.724  25.938   7.362
 4622POPC   NC359783  34.273  41.007   5.097
 4622POPC   PO459784  34.705  41.463   5.372
 4622POPC   GL159785  34.798  41.449   5.840
 4622POPC   GL259786  34.442  41.440   5.956
 4622POPC   C1A59787  34.814  41.608   6.289
 4622POPC   D2A59788  34.538  41.669   6.643
 4622POPC   C3A59789  34.742  41.605   7.043
 4622POPC   C4A59790  34.645  41.464   7.470
 4622POPC   C1B59791  34.265  41.275   6.360
 4622POPC   C2B59792  34.269  41.260   6.822
 4622POPC   C3B59793  34.140  41.067   7.220
 4622POPC   C4B59794  34.371  41.065   7.621
 4623POPC   NC359795  19.023  39.282   4.977
 4623POPC   PO459796  19.098  39.403   5.576
 4623POPC   GL159797  19.104  39.456   5.965
 4623POPC   GL259798  19.138  39.788   5.950
 4623POPC   C1A59799  19.250  39.214   6.287
 4623POPC   D2A59800  18.983  38.905   6.450
 4623POPC   C3A59801  19.029  39.020   6.844
 4623POPC   C4A59802  18.821  39.064   7.252
 4623POPC   C1B59803  19.171  39.746   6.377
 4623POPC   C2B59804  19.159  39.522   6.752
 4623POPC   C3B59805  19.225  39.374   7.152
 4623POPC   C4B59806  19.076  39.466   7.526
 4624POPC   NC359807  23.108  19.703   5.283
 4624POPC   PO459808  22.701  20.203   5.238
 4624POPC   GL159809  22.859  20.034   5.674
 4624POPC   GL259810  22.870  19.644   5.742
 4624POPC   C1A59811  22.685  19.944   6.112
 4624POPC   D2A59812  22.576  19.683   6.478
 4624POPC   C3A59813  22.632  19.868   6.907
 4624POPC   C4A59814  22.695  19.797   7.375
 4624POPC   C1B59815  23.023  19.538   6.163
 4624POPC   C2B59816  23.105  19.734   6.579
 4624POPC   C3B59817  23.090  19.723   7.040
 4624POPC   C4B59818  23.124  20.093   7.347
 4625POPC   NC359819  21.870   3.114   5.688
 4625POPC   PO459820  22.049   3.657   5.298
 4625POPC   GL159821  22.028   3.628   5.731
 4625POPC   GL259822  22.305   3.389   5.682
 4625POPC   C1A59823  21.890   3.597   6.187
 4625POPC   D2A59824  22.081   3.376   6.542
 4625POPC   C3A59825  21.997   3.409   6.990
 4625POPC   C4A59826  22.231   3.673   7.266
 4625POPC   C1B59827  22.392   3.484   6.100
 4625POPC   C2B59828  22.610   3.399   6.455
 4625POPC   C3B59829  22.513   3.339   6.890
 4625POPC   C4B59830  22.357   3.025   7.166
 4626POPC   NC359831   5.562  24.738   5.407
 4626POPC   PO459832   5.983  24.118   5.435
 4626POPC   GL159833   5.779  24.378   5.732
 4626POPC   GL259834   6.008  24.679   5.690
 4626POPC   C1A59835   5.661  24.303   6.170
 4626POPC   D2A59836   6.001  24.298   6.456
 4626POPC   C3A59837   5.866  24.260   6.864
 4626POPC   C4A59838   5.962  24.293   7.296
 4626POPC   C1B59839   5.958  24.727   6.133
 4626POPC   C2B59840   5.861  24.773   6.562
 4626POPC   C3B59841   5.754  24.750   6.957
 4626POPC   C4B59842   5.971  24.807   7.289
 4627POPC   NC359843  12.828  20.549   5.298
 4627POPC   PO459844  13.306  21.083   5.555
 4627POPC   GL159845  12.998  20.798   5.715
 4627POPC   GL259846  13.233  20.793   5.978
 4627POPC   C1A59847  12.776  20.589   6.080
 4627POPC   D2A59848  12.825  20.704   6.535
 4627POPC   C3A59849  12.925  20.426   6.872
 4627POPC   C4A59850  12.731  20.450   7.280
 4627POPC   C1B59851  13.276  20.915   6.371
 4627POPC   C2B59852  13.329  20.751   6.767
 4627POPC   C3B59853  13.136  20.797   7.158
 4627POPC   C4B59854  13.292  20.784   7.566
 4628POPC   NC359855  41.434   1.947   5.327
 4628POPC   PO459856  41.653   1.292   5.390
 4628POPC   GL159857  41.702   1.805   5.727
 4628POPC   GL259858  41.481   2.146   5.774
 4628POPC   C1A59859  41.703   1.960   6.178
 4628POPC   D2A59860  41.873   1.891   6.609
 4628POPC   C3A59861  41.504   1.952   6.861
 4628POPC   C4A59862  41.335   2.055   7.242
 4628POPC   C1B59863  41.321   2.329   6.151
 4628POPC   C2B59864  41.340   2.418   6.598
 4628POPC   C3B59865  41.059   2.407   6.959
 4628POPC   C4B59866  41.173   2.508   7.375
 4629POPC   NC359867  20.162  10.985   5.350
 4629POPC   PO459868  19.629  11.267   5.151
 4629POPC   GL159869  19.882  11.234   5.687
 4629POPC   GL259870  19.646  11.243   6.027
 4629POPC   C1A59871  20.089  11.214   6.183
 4629POPC   D2A59872  19.834  11.275   6.636
 4629POPC   C3A59873  19.975  11.449   7.096
 4629POPC   C4A59874  19.859  11.217   7.511
 4629POPC   C1B59875  19.435  10.945   6.306
 4629POPC   C2B59876  19.281  10.993   6.732
 4629POPC   C3B59877  19.526  11.092   7.103
 4629POPC   C4B59878  19.502  11.497   7.264
 4630POPC   NC359879  30.370  30.888   5.053
 4630POPC   PO459880  29.737  30.720   5.355
 4630POPC   GL159881  30.009  30.717   5.710
 4630POPC   GL259882  29.736  30.630   5.920
 4630POPC   C1A59883  30.213  30.640   6.118
 4630POPC   D2A59884  30.347  30.710   6.532
 4630POPC   C3A59885  30.177  30.615   6.988
 4630POPC   C4A59886  30.154  30.729   7.468
 4630POPC   C1B59887  29.567  30.636   6.346
 4630POPC   C2B59888  29.630  30.737   6.810
 4630POPC   C3B59889  29.714  30.601   7.241
 4630POPC   C4B59890  29.581  30.414   7.630
 4631POPC   NC359891  38.413  15.768   5.499
 4631POPC   PO459892  38.830  16.263   5.627
 4631POPC   GL159893  38.470  16.082   5.896
 4631POPC   GL259894  38.465  15.735   5.999
 4631POPC   C1A59895  38.098  16.030   6.202
 4631POPC   D2A59896  38.024  16.173   6.625
 4631POPC   C3A59897  38.297  15.988   6.957
 4631POPC   C4A59898  38.354  16.215   7.309
 4631POPC   C1B59899  38.805  15.892   6.241
 4631POPC   C2B59900  38.773  15.935   6.655
 4631POPC   C3B59901  38.843  15.823   7.028
 4631POPC   C4B59902  38.661  15.778   7.391
 4632POPC   NC359903  22.399  16.082   5.391
 4632POPC   PO459904  21.718  16.215   5.373
 4632POPC   GL159905  21.906  15.980   5.748
 4632POPC   GL259906  22.206  16.145   5.861
 4632POPC   C1A59907  22.001  15.897   6.236
 4632POPC   D2A59908  22.130  16.161   6.610
 4632POPC   C3A59909  22.092  15.955   7.010
 4632POPC   C4A59910  22.001  16.022   7.437
 4632POPC   C1B59911  22.466  16.042   6.242
 4632POPC   C2B59912  22.436  15.722   6.605
 4632POPC   C3B59913  22.448  15.586   7.046
 4632POPC   C4B59914  22.526  15.885   7.349
 4633POPC   NC359915   6.665  27.728   5.465
 4633POPC   PO459916   6.285  27.191   5.296
 4633POPC   GL159917   6.394  27.389   5.755
 4633POPC   GL259918   6.794  27.396   5.849
 4633POPC   C1A59919   6.470  27.585   6.205
 4633POPC   D2A59920   6.732  27.676   6.614
 4633POPC   C3A59921   6.527  27.790   7.012
 4633POPC   C4A59922   6.078  27.843   7.105
 4633POPC   C1B59923   7.000  27.317   6.279
 4633POPC   C2B59924   7.038  27.275   6.743
 4633POPC   C3B59925   6.997  27.565   7.099
 4633POPC   C4B59926   7.099  27.427   7.538
 4634POPC   NC359927  32.083  29.338   5.435
 4634POPC   PO459928  32.046  28.647   5.610
 4634POPC   GL159929  32.002  28.831   5.960
 4634POPC   GL259930  32.169  29.110   5.885
 4634POPC   C1A59931  31.916  29.025   6.336
 4634POPC   D2A59932  32.044  29.012   6.730
 4634POPC   C3A59933  32.422  28.869   6.846
 4634POPC   C4A59934  32.512  28.895   7.257
 4634POPC   C1B59935  32.405  29.166   6.242
 4634POPC   C2B59936  32.456  29.363   6.622
 4634POPC   C3B59937  32.697  29.289   6.973
 4634POPC   C4B59938  32.631  29.372   7.364
 4635POPC   NC359939  13.915  36.903   5.428
 4635POPC   PO459940  13.471  36.465   5.567
 4635POPC   GL159941  13.606  36.804   5.855
 4635POPC   GL259942  13.630  37.178   5.828
 4635POPC   C1A59943  13.660  36.797   6.291
 4635POPC   D2A59944  13.374  36.780   6.622
 4635POPC   C3A59945  13.583  36.663   6.997
 4635POPC   C4A59946  13.438  36.743   7.398
 4635POPC   C1B59947  13.821  37.274   6.260
 4635POPC   C2B59948  13.747  37.114   6.718
 4635POPC   C3B59949  13.569  37.160   7.140
 4635POPC   C4B59950  13.578  37.175   7.643
 4636POPC   NC359951  23.477   8.587   5.426
 4636POPC   PO459952  24.111   8.578   5.750
 4636POPC   GL159953  23.670   8.641   5.907
 4636POPC   GL259954  23.572   8.989   5.842
 4636POPC   C1A59955  23.577   8.729   6.349
 4636POPC   D2A59956  23.884   8.928   6.644
 4636POPC   C3A59957  24.010   8.805   7.067
 4636POPC   C4A59958  23.988   9.074   7.434
 4636POPC   C1B59959  23.559   9.252   6.234
 4636POPC   C2B59960  23.604   9.375   6.672
 4636POPC   C3B59961  23.617   9.183   7.084
 4636POPC   C4B59962  23.515   9.259   7.526
 4637POPC   NC359963  40.937   4.620   5.350
 4637POPC   PO459964  40.439   5.092   5.347
 4637POPC   GL159965  40.622   5.013   5.764
 4637POPC   GL259966  40.992   4.937   5.761
 4637POPC   C1A59967  40.771   5.186   6.172
 4637POPC   D2A59968  40.616   5.240   6.600
 4637POPC   C3A59969  40.516   4.976   6.925
 4637POPC   C4A59970  40.713   5.163   7.271
 4637POPC   C1B59971  41.273   5.059   6.103
 4637POPC   C2B59972  41.161   5.165   6.509
 4637POPC   C3B59973  41.062   5.076   6.900
 4637POPC   C4B59974  41.216   5.108   7.294
 4638POPC   NC359975  42.138  21.797   5.491
 4638POPC   PO459976  42.549  21.268   5.567
 4638POPC   GL159977  42.230  21.162   5.882
 4638POPC   GL259978  42.132  21.480   5.884
 4638POPC   C1A59979  42.219  21.255   6.355
 4638POPC   D2A59980  42.537  21.454   6.654
 4638POPC   C3A59981  42.538  21.323   7.095
 4638POPC   C4A59982  42.416  21.296   7.534
 4638POPC   C1B59983  42.072  21.768   6.212
 4638POPC   C2B59984  41.952  21.759   6.620
 4638POPC   C3B59985  42.135  21.622   6.976
 4638POPC   C4B59986  42.162  21.733   7.384
 4639POPC   NC359987  41.598   7.916   5.554
 4639POPC   PO459988  41.231   8.429   5.384
 4639POPC   GL159989  41.532   8.413   5.737
 4639POPC   GL259990  41.862   8.285   5.827
 4639POPC   C1A59991  41.469   8.366   6.175
 4639POPC   D2A59992  41.572   8.535   6.592
 4639POPC   C3A59993  41.454   8.268   6.954
 4639POPC   C4A59994  41.291   8.334   7.367
 4639POPC   C1B59995  41.956   8.311   6.280
 4639POPC   C2B59996  41.930   8.201   6.725
 4639POPC   C3B59997  41.950   8.109   7.163
 4639POPC   C4B59998  41.617   7.914   7.330
 4640POPC   NC359999  21.748   6.413   5.386
 4640POPC   PO460000  21.183   6.807   5.393
 4640POPC   GL160001  21.383   6.594   5.744
 4640POPC   GL260002  21.290   6.249   5.790
 4640POPC   C1A60003  21.294   6.699   6.177
 4640POPC   D2A60004  21.169   6.662   6.617
 4640POPC   C3A60005  21.396   6.872   6.921
 4640POPC   C4A60006  21.579   6.881   7.323
 4640POPC   C1B60007  21.633   6.295   6.142
 4640POPC   C2B60008  21.787   6.308   6.597
 4640POPC   C3B60009  21.706   6.459   7.044
 4640POPC   C4B60010  21.259   6.463   7.198
 4641POPC   NC360011  36.870   9.921   4.976
 4641POPC   PO460012  37.138   9.918   5.365
 4641POPC   GL160013  37.127   9.820   5.844
 4641POPC   GL260014  36.924  10.096   6.001
 4641POPC   C1A60015  37.044   9.728   6.322
 4641POPC   D2A60016  36.824   9.921   6.692
 4641POPC   C3A60017  36.933   9.780   7.109
 4641POPC   C4A60018  36.728   9.524   7.430
 4641POPC   C1B60019  36.649  10.242   6.340
 4641POPC   C2B60020  36.618  10.427   6.768
 4641POPC   C3B60021  36.715  10.285   7.206
 4641POPC   C4B60022  36.871  10.020   7.565
 4642POPC   NC360023  29.205  24.833   5.328
 4642POPC   PO460024  28.658  25.140   5.138
 4642POPC   GL160025  28.854  25.027   5.653
 4642POPC   GL260026  29.208  24.936   5.818
 4642POPC   C1A60027  28.890  25.202   6.099
 4642POPC   D2A60028  29.107  25.288   6.501
 4642POPC   C3A60029  29.117  24.951   6.819
 4642POPC   C4A60030  29.167  25.076   7.251
 4642POPC   C1B60031  29.452  25.212   6.111
 4642POPC   C2B60032  29.672  25.341   6.490
 4642POPC   C3B60033  29.471  25.330   6.866
 4642POPC   C4B60034  29.536  25.424   7.268
 4643POPC   NC360035  26.311  30.012   5.308
 4643POPC   PO460036  25.637  29.752   5.489
 4643POPC   GL160037  25.890  29.888   5.796
 4643POPC   GL260038  26.207  29.688   5.725
 4643POPC   C1A60039  25.732  30.006   6.224
 4643POPC   D2A60040  25.682  30.197   6.657
 4643POPC   C3A60041  25.935  30.015   6.983
 4643POPC   C4A60042  26.374  30.135   7.098
 4643POPC   C1B60043  26.165  29.708   6.196
 4643POPC   C2B60044  26.285  29.837   6.630
 4643POPC   C3B60045  26.479  29.662   7.008
 4643POPC   C4B60046  26.427  29.712   7.471
 4644POPC   NC360047  41.433  38.396   5.388
 4644POPC   PO460048  41.491  37.603   5.318
 4644POPC   GL160049  41.411  37.424   5.723
 4644POPC   GL260050  41.770  37.413   5.778
 4644POPC   C1A60051  41.443  37.647   6.118
 4644POPC   D2A60052  41.387  38.044   6.328
 4644POPC   C3A60053  41.197  37.993   6.755
 4644POPC   C4A60054  41.384  37.875   7.146
 4644POPC   C1B60055  41.968  37.544   6.153
 4644POPC   C2B60056  41.769  37.650   6.568
 4644POPC   C3B60057  41.730  37.513   7.019
 4644POPC   C4B60058  41.740  37.599   7.476
 4645POPC   NC360059   4.551  41.115   5.384
 4645POPC   PO460060   4.082  40.616   5.374
 4645POPC   GL160061   4.417  40.744   5.717
 4645POPC   GL260062   4.443  41.052   5.890
 4645POPC   C1A60063   4.651  40.673   6.116
 4645POPC   D2A60064   4.430  40.919   6.428
 4645POPC   C3A60065   4.635  40.997   6.814
 4645POPC   C4A60066   4.598  40.705   7.125
 4645POPC   C1B60067   4.090  41.202   6.133
 4645POPC   C2B60068   3.916  41.173   6.551
 4645POPC   C3B60069   4.038  41.321   6.955
 4645POPC   C4B60070   4.365  41.145   7.250
 4646POPC   NC360071   8.821  10.863   5.440
 4646POPC   PO460072   9.222  10.465   5.276
 4646POPC   GL160073   9.091  10.502   5.787
 4646POPC   GL260074   8.870  10.770   5.947
 4646POPC   C1A60075   8.845  10.334   6.198
 4646POPC   D2A60076   8.718  10.616   6.542
 4646POPC   C3A60077   8.725  10.453   6.957
 4646POPC   C4A60078   8.710  10.078   7.083
 4646POPC   C1B60079   9.175  10.704   6.317
 4646POPC   C2B60080   9.181  10.643   6.795
 4646POPC   C3B60081   9.004  10.792   7.221
 4646POPC   C4B60082   8.916  10.855   7.671
 4647POPC   NC360083  43.047  32.313   5.382
 4647POPC   PO460084  43.521  32.794   5.435
 4647POPC   GL160085  43.361  32.504   5.773
 4647POPC   GL260086  43.307  32.117   5.802
 4647POPC   C1A60087  43.139  32.422   6.175
 4647POPC   D2A60088  43.202  32.143   6.527
 4647POPC   C3A60089  43.179  32.343   6.913
 4647POPC   C4A60090  43.268  32.400   7.329
 4647POPC   C1B60091  42.941  31.969   6.101
 4647POPC   C2B60092  42.690  32.003   6.507
 4647POPC   C3B60093  42.861  31.932   6.950
 4647POPC   C4B60094  43.306  31.908   7.162
 4648POPC   NC360095   7.732   9.387   5.587
 4648POPC   PO460096   8.352   9.067   5.462
 4648POPC   GL160097   8.221   8.959   5.843
 4648POPC   GL260098   7.947   8.700   5.947
 4648POPC   C1A60099   8.127   9.123   6.214
 4648POPC   D2A60100   7.900   8.944   6.519
 4648POPC   C3A60101   8.096   9.079   6.882
 4648POPC   C4A60102   7.912   9.015   7.276
 4648POPC   C1B60103   8.269   8.614   6.216
 4648POPC   C2B60104   8.340   8.684   6.634
 4648POPC   C3B60105   8.001   8.586   6.890
 4648POPC   C4B60106   8.000   8.440   7.270
 4649POPC   NC360107  38.669  26.327   5.371
 4649POPC   PO460108  38.825  26.907   5.550
 4649POPC   GL160109  38.439  26.779   5.774
 4649POPC   GL260110  38.127  26.985   5.719
 4649POPC   C1A60111  38.450  26.644   6.212
 4649POPC   D2A60112  38.799  26.559   6.499
 4649POPC   C3A60113  38.663  26.756   6.872
 4649POPC   C4A60114  38.729  26.748   7.303
 4649POPC   C1B60115  38.324  27.155   6.100
 4649POPC   C2B60116  38.330  27.042   6.530
 4649POPC   C3B60117  38.078  27.091   6.884
 4649POPC   C4B60118  38.270  26.945   7.229
 4650POPC   NC360119  20.692   7.563   5.279
 4650POPC   PO460120  20.291   7.129   5.502
 4650POPC   GL160121  20.555   7.299   5.796
 4650POPC   GL260122  20.605   7.641   5.768
 4650POPC   C1A60123  20.474   7.359   6.229
 4650POPC   D2A60124  20.260   7.446   6.608
 4650POPC   C3A60125  20.537   7.377   6.944
 4650POPC   C4A60126  20.558   7.136   7.314
 4650POPC   C1B60127  20.789   7.747   6.141
 4650POPC   C2B60128  20.819   7.595   6.554
 4650POPC   C3B60129  20.959   7.657   6.974
 4650POPC   C4B60130  20.713   7.637   7.377
 4651POPC   NC360131  16.421  30.090   5.418
 4651POPC   PO460132  16.617  29.504   5.286
 4651POPC   GL160133  16.591  29.712   5.736
 4651POPC   GL260134  16.790  29.998   5.808
 4651POPC   C1A60135  16.368  29.970   6.091
 4651POPC   D2A60136  16.320  29.886   6.524
 4651POPC   C3A60137  16.531  29.948   6.960
 4651POPC   C4A60138  16.957  29.765   7.151
 4651POPC   C1B60139  16.836  29.934   6.282
 4651POPC   C2B60140  16.966  30.067   6.718
 4651POPC   C3B60141  16.957  30.268   7.151
 4651POPC   C4B60142  16.989  30.278   7.611
 4652POPC   NC360143   7.450  10.119   5.280
 4652POPC   PO460144   7.567   9.437   5.159
 4652POPC   GL160145   7.242   9.570   5.543
 4652POPC   GL260146   7.289   9.925   5.730
 4652POPC   C1A60147   7.120   9.562   6.023
 4652POPC   D2A60148   7.312   9.726   6.417
 4652POPC   C3A60149   7.293   9.545   6.821
 4652POPC   C4A60150   7.418   9.699   7.214
 4652POPC   C1B60151   7.326  10.157   6.155
 4652POPC   C2B60152   7.113  10.232   6.549
 4652POPC   C3B60153   7.110  10.038   6.932
 4652POPC   C4B60154   7.210  10.143   7.332
 4653POPC   NC360155  34.293  31.610   5.635
 4653POPC   PO460156  34.902  31.170   5.434
 4653POPC   GL160157  34.604  31.257   5.778
 4653POPC   GL260158  34.699  31.584   5.984
 4653POPC   C1A60159  34.453  31.203   6.192
 4653POPC   D2A60160  34.738  31.404   6.491
 4653POPC   C3A60161  34.681  31.423   6.932
 4653POPC   C4A60162  34.292  31.546   7.132
 4653POPC   C1B60163  34.796  31.894   6.329
 4653POPC   C2B60164  34.920  31.860   6.786
 4653POPC   C3B60165  34.759  31.836   7.227
 4653POPC   C4B60166  34.931  31.861   7.661
 4654POPC   NC360167  15.749  30.541   5.445
 4654POPC   PO460168  16.206  30.994   5.405
 4654POPC   GL160169  15.939  30.823   5.809
 4654POPC   GL260170  15.827  30.441   5.926
 4654POPC   C1A60171  15.797  30.937   6.229
 4654POPC   D2A60172  15.795  31.130   6.660
 4654POPC   C3A60173  15.743  30.860   7.049
 4654POPC   C4A60174  16.054  30.700   7.359
 4654POPC   C1B60175  16.110  30.503   6.237
 4654POPC   C2B60176  16.043  30.633   6.656
 4654POPC   C3B60177  15.940  30.360   6.994
 4654POPC   C4B60178  15.609  30.363   7.294
 4655POPC   NC360179  31.237  29.349   5.364
 4655POPC   PO460180  31.237  28.660   5.341
 4655POPC   GL160181  31.520  28.864   5.718
 4655POPC   GL260182  31.656  29.201   5.892
 4655POPC   C1A60183  31.457  28.851   6.176
 4655POPC   D2A60184  31.364  29.180   6.481
 4655POPC   C3A60185  31.354  29.093   6.914
 4655POPC   C4A60186  31.387  29.304   7.294
 4655POPC   C1B60187  31.722  29.493   6.256
 4655POPC   C2B60188  31.775  29.458   6.728
 4655POPC   C3B60189  32.138  29.415   7.031
 4655POPC   C4B60190  32.042  29.095   7.350
 4656POPC   NC360191  25.659   6.396   5.388
 4656POPC   PO460192  26.385   6.295   5.360
 4656POPC   GL160193  26.243   6.502   5.740
 4656POPC   GL260194  25.910   6.667   5.747
 4656POPC   C1A60195  26.149   6.474   6.170
 4656POPC   D2A60196  26.101   6.730   6.526
 4656POPC   C3A60197  25.987   6.578   6.937
 4656POPC   C4A60198  25.995   6.771   7.317
 4656POPC   C1B60199  25.762   6.835   6.157
 4656POPC   C2B60200  25.579   6.722   6.591
 4656POPC   C3B60201  25.583   6.899   7.036
 4656POPC   C4B60202  25.562   6.985   7.491
 4657POPC   NC360203  38.796  34.600   5.102
 4657POPC   PO460204  39.401  34.683   5.411
 4657POPC   GL160205  39.222  34.632   5.851
 4657POPC   GL260206  38.872  34.772   5.930
 4657POPC   C1A60207  39.147  34.570   6.301
 4657POPC   D2A60208  39.008  34.802   6.667
 4657POPC   C3A60209  39.083  34.560   7.044
 4657POPC   C4A60210  39.304  34.375   7.401
 4657POPC   C1B60211  39.122  35.072   6.213
 4657POPC   C2B60212  39.253  35.279   6.610
 4657POPC   C3B60213  39.285  35.046   7.009
 4657POPC   C4B60214  39.041  34.904   7.411
 4658POPC   NC360215  31.945  41.284   5.312
 4658POPC   PO460216  31.609  41.900   5.365
 4658POPC   GL160217  31.644  41.718   5.781
 4658POPC   GL260218  31.555  41.368   5.859
 4658POPC   C1A60219  31.399  41.741   6.183
 4658POPC   D2A60220  31.338  41.652   6.618
 4658POPC   C3A60221  31.001  41.867   6.792
 4658POPC   C4A60222  31.091  41.859   7.192
 4658POPC   C1B60223  31.864  41.554   6.207
 4658POPC   C2B60224  31.843  41.533   6.629
 4658POPC   C3B60225  31.818  41.716   7.027
 4658POPC   C4B60226  31.479  41.513   7.145
 4659POPC   NC360227  22.565  36.805   5.396
 4659POPC   PO460228  22.005  37.059   5.240
 4659POPC   GL160229  22.155  37.008   5.663
 4659POPC   GL260230  21.943  36.698   5.746
 4659POPC   C1A60231  22.206  37.201   6.090
 4659POPC   D2A60232  22.264  37.085   6.538
 4659POPC   C3A60233  22.151  37.254   6.941
 4659POPC   C4A60234  22.358  37.163   7.318
 4659POPC   C1B60235  22.250  36.675   6.086
 4659POPC   C2B60236  22.264  36.575   6.555
 4659POPC   C3B60237  22.291  36.736   6.987
 4659POPC   C4B60238  22.544  36.630   7.342
 4660POPC   NC360239   1.859  29.277   5.456
 4660POPC   PO460240   2.275  28.693   5.378
 4660POPC   GL160241   2.158  29.050   5.821
 4660POPC   GL260242   1.979  29.372   5.912
 4660POPC   C1A60243   1.969  29.023   6.270
 4660POPC   D2A60244   1.842  28.872   6.695
 4660POPC   C3A60245   1.990  29.119   7.033
 4660POPC   C4A60246   2.260  29.441   7.245
 4660POPC   C1B60247   1.976  29.573   6.268
 4660POPC   C2B60248   2.088  29.398   6.630
 4660POPC   C3B60249   1.883  29.618   6.947
 4660POPC   C4B60250   1.761  29.508   7.332
 4661POPC   NC360251  35.058   4.771   5.524
 4661POPC   PO460252  34.584   5.218   5.283
 4661POPC   GL160253  34.627   5.157   5.749
 4661POPC   GL260254  34.426   4.896   5.812
 4661POPC   C1A60255  34.725   5.332   6.183
 4661POPC   D2A60256  34.750   5.132   6.600
 4661POPC   C3A60257  34.708   5.318   7.001
 4661POPC   C4A60258  34.750   5.281   7.432
 4661POPC   C1B60259  34.630   4.799   6.206
 4661POPC   C2B60260  34.565   4.658   6.619
 4661POPC   C3B60261  34.600   4.781   7.046
 4661POPC   C4B60262  34.302   4.523   7.340
 4662POPC   NC360263  30.987  28.272   5.285
 4662POPC   PO460264  30.775  27.589   5.384
 4662POPC   GL160265  30.663  27.597   5.819
 4662POPC   GL260266  30.932  27.822   5.869
 4662POPC   C1A60267  30.561  27.548   6.271
 4662POPC   D2A60268  30.471  27.696   6.704
 4662POPC   C3A60269  30.585  27.399   7.017
 4662POPC   C4A60270  30.406  27.261   7.426
 4662POPC   C1B60271  31.067  27.732   6.291
 4662POPC   C2B60272  31.010  27.651   6.749
 4662POPC   C3B60273  30.871  27.889   7.072
 4662POPC   C4B60274  31.164  28.125   7.308
 4663POPC   NC360275  42.760  25.209   5.176
 4663POPC   PO460276  43.365  24.918   5.480
 4663POPC   GL160277  43.401  25.072   5.896
 4663POPC   GL260278  43.103  25.245   5.847
 4663POPC   C1A60279  43.363  25.312   6.288
 4663POPC   D2A60280  43.402  25.565   6.680
 4663POPC   C3A60281  43.173  25.437   7.039
 4663POPC   C4A60282  43.313  25.240   7.383
 4663POPC   C1B60283  42.994  24.920   6.191
 4663POPC   C2B60284  42.830  24.764   6.605
 4663POPC   C3B60285  42.807  24.813   7.064
 4663POPC   C4B60286  42.912  24.948   7.500
 4664POPC   NC360287  13.259  28.644   5.456
 4664POPC   PO460288  13.728  29.071   5.292
 4664POPC   GL160289  13.561  29.230   5.695
 4664POPC   GL260290  13.921  29.340   5.719
 4664POPC   C1A60291  13.313  29.076   6.095
 4664POPC   D2A60292  13.425  29.113   6.528
 4664POPC   C3A60293  13.223  29.266   6.909
 4664POPC   C4A60294  13.310  29.132   7.309
 4664POPC   C1B60295  14.071  29.262   6.118
 4664POPC   C2B60296  13.939  29.196   6.543
 4664POPC   C3B60297  13.752  29.193   6.945
 4664POPC   C4B60298  14.042  29.133   7.234
 4665POPC   NC360299  11.018   7.586   5.405
 4665POPC   PO460300  11.565   7.353   5.395
 4665POPC   GL160301  11.427   7.592   5.746
 4665POPC   GL260302  11.362   7.249   5.868
 4665POPC   C1A60303  11.511   7.607   6.190
 4665POPC   D2A60304  11.465   7.298   6.506
 4665POPC   C3A60305  11.409   7.501   6.876
 4665POPC   C4A60306  11.364   7.734   7.253
 4665POPC   C1B60307  11.156   7.010   6.171
 4665POPC   C2B60308  11.201   6.835   6.564
 4665POPC   C3B60309  11.172   7.055   6.945
 4665POPC   C4B60310  11.361   7.239   7.313
 4666POPC   NC360311  36.927  34.261   5.460
 4666POPC   PO460312  36.920  34.859   5.402
 4666POPC   GL160313  36.820  34.686   5.770
 4666POPC   GL260314  37.132  34.527   5.857
 4666POPC   C1A60315  36.825  34.721   6.211
 4666POPC   D2A60316  36.827  34.544   6.608
 4666POPC   C3A60317  36.891  34.846   6.901
 4666POPC   C4A60318  36.671  34.832   7.243
 4666POPC   C1B60319  37.269  34.384   6.275
 4666POPC   C2B60320  37.253  34.291   6.736
 4666POPC   C3B60321  37.022  34.411   7.139
 4666POPC   C4B60322  37.170  34.358   7.561
 4667POPC   NC360323  35.127  36.378   5.411
 4667POPC   PO460324  35.746  36.160   5.453
 4667POPC   GL160325  35.558  36.147   5.891
 4667POPC   GL260326  35.331  36.436   5.893
 4667POPC   C1A60327  35.488  36.202   6.366
 4667POPC   D2A60328  35.336  35.948   6.715
 4667POPC   C3A60329  35.581  36.045   7.091
 4667POPC   C4A60330  35.500  35.852   7.510
 4667POPC   C1B60331  35.056  36.141   6.118
 4667POPC   C2B60332  34.959  36.282   6.536
 4667POPC   C3B60333  34.928  36.194   6.980
 4667POPC   C4B60334  35.176  36.207   7.351
 4668POPC   NC360335  43.160  18.882   5.319
 4668POPC   PO460336  42.700  19.328   5.462
 4668POPC   GL160337  43.012  19.210   5.778
 4668POPC   GL260338  43.061  18.859   5.813
 4668POPC   C1A60339  43.188  19.151   6.215
 4668POPC   D2A60340  43.378  19.362   6.577
 4668POPC   C3A60341  43.128  19.296   6.970
 4668POPC   C4A60342  42.877  19.001   7.188
 4668POPC   C1B60343  43.299  18.640   6.110
 4668POPC   C2B60344  43.174  18.698   6.514
 4668POPC   C3B60345  43.296  18.802   6.911
 4668POPC   C4B60346  43.298  18.647   7.320
 4669POPC   NC360347  39.731  40.899   5.197
 4669POPC   PO460348  40.367  40.840   5.481
 4669POPC   GL160349  39.943  40.912   5.686
 4669POPC   GL260350  39.836  40.602   5.660
 4669POPC   C1A60351  39.772  41.084   6.103
 4669POPC   D2A60352  39.940  41.251   6.523
 4669POPC   C3A60353  39.938  40.976   6.894
 4669POPC   C4A60354  40.317  40.843   7.170
 4669POPC   C1B60355  39.746  40.530   6.095
 4669POPC   C2B60356  39.657  40.564   6.533
 4669POPC   C3B60357  39.749  40.455   6.958
 4669POPC   C4B60358  39.850  40.698   7.324
 4670POPC   NC360359   4.112  22.292   5.131
 4670POPC   PO460360   4.493  21.888   5.492
 4670POPC   GL160361   4.413  22.074   5.841
 4670POPC   GL260362   4.114  22.026   5.972
 4670POPC   C1A60363   4.482  21.905   6.283
 4670POPC   D2A60364   4.241  22.078   6.600
 4670POPC   C3A60365   4.454  22.064   6.992
 4670POPC   C4A60366   4.246  22.299   7.289
 4670POPC   C1B60367   4.030  21.650   6.233
 4670POPC   C2B60368   3.948  21.667   6.683
 4670POPC   C3B60369   3.948  21.969   7.034
 4670POPC   C4B60370   4.044  21.881   7.489
 4671POPC   NC360371  22.175  11.674   5.089
 4671POPC   PO460372  22.074  11.126   5.400
 4671POPC   GL160373  21.997  11.204   5.826
 4671POPC   GL260374  22.233  10.993   5.937
 4671POPC   C1A60375  22.161  11.382   6.241
 4671POPC   D2A60376  22.337  11.372   6.655
 4671POPC   C3A60377  22.059  11.404   7.012
 4671POPC   C4A60378  22.052  11.363   7.457
 4671POPC   C1B60379  22.487  10.991   6.299
 4671POPC   C2B60380  22.622  10.926   6.699
 4671POPC   C3B60381  22.500  11.110   7.079
 4671POPC   C4B60382  22.383  10.990   7.453
 4672POPC   NC360383   4.306  41.782   5.283
 4672POPC   PO460384   4.184  41.222   5.124
 4672POPC   GL160385   4.262  41.445   5.646
 4672POPC   GL260386   4.143  41.744   5.861
 4672POPC   C1A60387   4.494  41.515   6.106
 4672POPC   D2A60388   4.405  41.407   6.576
 4672POPC   C3A60389   4.464  41.594   7.020
 4672POPC   C4A60390   4.486  41.831   7.430
 4672POPC   C1B60391   4.015  41.663   6.307
 4672POPC   C2B60392   4.139  41.831   6.709
 4672POPC   C3B60393   4.065  41.892   7.154
 4672POPC   C4B60394   4.066  41.518   7.435
 4673POPC   NC360395  31.563  39.812   5.502
 4673POPC   PO460396  31.253  40.385   5.346
 4673POPC   GL160397  31.307  40.204   5.722
 4673POPC   GL260398  31.637  40.229   5.819
 4673POPC   C1A60399  31.231  39.950   6.077
 4673POPC   D2A60400  31.358  39.782   6.481
 4673POPC   C3A60401  31.297  39.934   6.868
 4673POPC   C4A60402  31.363  40.159   7.245
 4673POPC   C1B60403  31.716  40.030   6.199
 4673POPC   C2B60404  31.622  40.222   6.587
 4673POPC   C3B60405  31.789  40.084   6.972
 4673POPC   C4B60406  32.017  40.167   7.340
 4674POPC   NC360407  31.372   6.166   4.988
 4674POPC   PO460408  31.958   5.907   5.305
 4674POPC   GL160409  31.767   5.862   5.717
 4674POPC   GL260410  31.435   5.762   5.717
 4674POPC   C1A60411  31.633   5.974   6.147
 4674POPC   D2A60412  31.704   5.759   6.526
 4674POPC   C3A60413  31.771   5.969   6.928
 4674POPC   C4A60414  31.651   5.929   7.370
 4674POPC   C1B60415  31.206   5.633   6.078
 4674POPC   C2B60416  31.198   5.667   6.515
 4674POPC   C3B60417  31.273   5.881   6.904
 4674POPC   C4B60418  31.099   5.815   7.275
 4675POPC   NC360419  27.012   8.563   5.414
 4675POPC   PO460420  26.798   9.210   5.445
 4675POPC   GL160421  26.825   8.960   5.776
 4675POPC   GL260422  27.162   8.896   5.788
 4675POPC   C1A60423  26.827   8.963   6.209
 4675POPC   D2A60424  27.031   9.041   6.578
 4675POPC   C3A60425  26.831   9.098   6.927
 4675POPC   C4A60426  26.657   8.848   7.235
 4675POPC   C1B60427  27.302   8.729   6.201
 4675POPC   C2B60428  27.403   8.723   6.645
 4675POPC   C3B60429  27.209   8.716   7.060
 4675POPC   C4B60430  27.131   9.034   7.344
 4676POPC   NC360431   7.670  33.563   5.501
 4676POPC   PO460432   7.116  34.034   5.325
 4676POPC   GL160433   7.335  33.919   5.710
 4676POPC   GL260434   7.658  34.070   5.728
 4676POPC   C1A60435   7.463  33.808   6.146
 4676POPC   D2A60436   7.332  33.927   6.567
 4676POPC   C3A60437   7.262  33.609   6.878
 4676POPC   C4A60438   7.297  33.940   7.139
 4676POPC   C1B60439   7.915  34.058   6.093
 4676POPC   C2B60440   7.849  33.959   6.514
 4676POPC   C3B60441   7.748  33.797   6.908
 4676POPC   C4B60442   7.837  33.674   7.322
 4677POPC   NC360443  38.101  13.984   5.608
 4677POPC   PO460444  38.399  14.551   5.463
 4677POPC   GL160445  38.427  14.333   5.834
 4677POPC   GL260446  38.670  14.535   5.960
 4677POPC   C1A60447  38.497  14.157   6.249
 4677POPC   D2A60448  38.538  14.442   6.564
 4677POPC   C3A60449  38.574  14.205   6.914
 4677POPC   C4A60450  38.483  14.301   7.298
 4677POPC   C1B60451  38.741  14.844   6.282
 4677POPC   C2B60452  38.786  14.895   6.724
 4677POPC   C3B60453  38.871  14.595   7.049
 4677POPC   C4B60454  38.873  14.623   7.489
 4678POPC   NC360455  14.058   1.619   5.358
 4678POPC   PO460456  13.649   1.091   5.282
 4678POPC   GL160457  13.613   1.342   5.630
 4678POPC   GL260458  13.719   1.058   5.817
 4678POPC   C1A60459  13.558   1.483   6.061
 4678POPC   D2A60460  13.485   1.299   6.459
 4678POPC   C3A60461  13.631   1.460   6.851
 4678POPC   C4A60462  13.504   1.260   7.249
 4678POPC   C1B60463  13.312   1.024   6.048
 4678POPC   C2B60464  13.165   0.885   6.460
 4678POPC   C3B60465  13.330   0.944   6.875
 4678POPC   C4B60466  13.162   0.871   7.281
 4679POPC   NC360467  25.299  40.530   5.502
 4679POPC   PO460468  25.012  41.086   5.364
 4679POPC   GL160469  25.035  40.902   5.746
 4679POPC   GL260470  25.394  41.008   5.738
 4679POPC   C1A60471  25.097  40.626   6.117
 4679POPC   D2A60472  25.152  40.364   6.481
 4679POPC   C3A60473  25.056  40.540   6.878
 4679POPC   C4A60474  25.203  40.507   7.268
 4679POPC   C1B60475  25.239  41.120   6.164
 4679POPC   C2B60476  25.202  40.936   6.589
 4679POPC   C3B60477  25.336  40.963   7.024
 4679POPC   C4B60478  25.296  40.955   7.483
 4680POPC   NC360479   8.160   2.772   5.391
 4680POPC   PO460480   7.664   3.133   5.428
 4680POPC   GL160481   7.978   3.024   5.802
 4680POPC   GL260482   8.371   3.042   5.759
 4680POPC   C1A60483   8.210   2.756   6.159
 4680POPC   D2A60484   8.383   2.814   6.617
 4680POPC   C3A60485   8.388   2.508   6.996
 4680POPC   C4A60486   8.035   2.389   7.312
 4680POPC   C1B60487   8.351   3.252   6.159
 4680POPC   C2B60488   8.597   3.305   6.524
 4680POPC   C3B60489   8.420   3.244   6.904
 4680POPC   C4B60490   8.172   2.943   7.124
 4681POPC   NC360491   0.850  43.854   5.541
 4681POPC   PO460492   1.467  43.997   5.606
 4681POPC   GL160493   1.263  43.684   5.862
 4681POPC   GL260494   0.876  43.537   5.941
 4681POPC   C1A60495   1.216  43.787   6.254
 4681POPC   D2A60496   0.896  43.940   6.477
 4681POPC   C3A60497   1.070  44.057   6.829
 4681POPC   C4A60498   1.421  44.242   7.061
 4681POPC   C1B60499   0.905  43.395   6.398
 4681POPC   C2B60500   1.230  43.521   6.703
 4681POPC   C3B60501   1.316  43.714   7.091
 4681POPC   C4B60502   0.870  43.706   7.121
 4682POPC   NC360503  35.982  38.902   5.159
 4682POPC   PO460504  36.491  38.486   5.415
 4682POPC   GL160505  36.240  38.550   5.756
 4682POPC   GL260506  35.989  38.304   5.730
 4682POPC   C1A60507  36.170  38.473   6.198
 4682POPC   D2A60508  36.401  38.335   6.571
 4682POPC   C3A60509  36.318  38.552   6.953
 4682POPC   C4A60510  35.919  38.729   7.085
 4682POPC   C1B60511  35.779  38.120   6.092
 4682POPC   C2B60512  35.863  38.123   6.541
 4682POPC   C3B60513  35.899  38.232   6.986
 4682POPC   C4B60514  36.061  38.324   7.419
 4683POPC   NC360515  38.126  43.440   5.541
 4683POPC   PO460516  37.753  42.937   5.284
 4683POPC   GL160517  37.586  42.957   5.727
 4683POPC   GL260518  37.716  43.276   5.847
 4683POPC   C1A60519  37.564  42.818   6.162
 4683POPC   D2A60520  37.795  42.836   6.559
 4683POPC   C3A60521  37.588  42.973   6.964
 4683POPC   C4A60522  37.426  42.762   7.360
 4683POPC   C1B60523  38.054  43.325   6.169
 4683POPC   C2B60524  38.189  43.230   6.569
 4683POPC   C3B60525  38.053  43.366   6.929
 4683POPC   C4B60526  37.881  43.251   7.290
 4684POPC   NC360527   7.421  41.630   5.069
 4684POPC   PO460528   7.189  41.191   5.527
 4684POPC   GL160529   7.458  41.380   5.799
 4684POPC   GL260530   7.390  41.730   5.885
 4684POPC   C1A60531   7.618  41.387   6.207
 4684POPC   D2A60532   7.509  41.654   6.524
 4684POPC   C3A60533   7.695  41.538   6.894
 4684POPC   C4A60534   7.606  41.744   7.242
 4684POPC   C1B60535   7.121  41.440   6.166
 4684POPC   C2B60536   7.157  41.281   6.539
 4684POPC   C3B60537   7.204  41.467   6.918
 4684POPC   C4B60538   7.374  41.305   7.286
 4685POPC   NC360539   3.119  24.447   5.568
 4685POPC   PO460540   3.735  24.428   5.206
 4685POPC   GL160541   3.727  24.403   5.652
 4685POPC   GL260542   3.541  24.666   5.737
 4685POPC   C1A60543   3.830  24.426   6.105
 4685POPC   D2A60544   3.743  24.780   6.422
 4685POPC   C3A60545   3.863  24.697   6.862
 4685POPC   C4A60546   3.751  24.307   7.061
 4685POPC   C1B60547   3.342  24.553   6.172
 4685POPC   C2B60548   3.433  24.405   6.614
 4685POPC   C3B60549   3.260  24.482   7.020
 4685POPC   C4B60550   3.080  24.887   7.108
 4686POPC   NC360551  27.192  37.017   5.447
 4686POPC   PO460552  27.738  36.717   5.408
 4686POPC   GL160553  27.558  36.882   5.809
 4686POPC   GL260554  27.827  37.100   5.853
 4686POPC   C1A60555  27.659  36.846   6.270
 4686POPC   D2A60556  27.521  37.021   6.661
 4686POPC   C3A60557  27.519  36.841   7.082
 4686POPC   C4A60558  27.443  36.970   7.519
 4686POPC   C1B60559  28.078  37.175   6.196
 4686POPC   C2B60560  27.883  37.357   6.534
 4686POPC   C3B60561  27.825  37.286   6.953
 4686POPC   C4B60562  27.957  36.999   7.284
 4687POPC   NC360563  29.698   5.714   5.410
 4687POPC   PO460564  30.250   6.133   5.380
 4687POPC   GL160565  29.994   5.969   5.730
 4687POPC   GL260566  30.074   6.258   5.866
 4687POPC   C1A60567  29.666   5.784   6.067
 4687POPC   D2A60568  29.614   5.615   6.520
 4687POPC   C3A60569  29.729   5.775   6.933
 4687POPC   C4A60570  30.121   5.694   7.157
 4687POPC   C1B60571  30.016   6.097   6.267
 4687POPC   C2B60572  30.019   6.197   6.704
 4687POPC   C3B60573  30.068   6.203   7.158
 4687POPC   C4B60574  29.976   6.401   7.563
 4688POPC   NC360575   8.084  30.445   5.320
 4688POPC   PO460576   8.080  29.789   5.416
 4688POPC   GL160577   8.130  29.982   5.821
 4688POPC   GL260578   8.287  30.286   5.801
 4688POPC   C1A60579   7.925  30.152   6.204
 4688POPC   D2A60580   7.711  30.157   6.612
 4688POPC   C3A60581   7.963  29.984   6.934
 4688POPC   C4A60582   7.948  29.944   7.379
 4688POPC   C1B60583   8.442  30.136   6.240
 4688POPC   C2B60584   8.406  30.137   6.707
 4688POPC   C3B60585   8.665  30.157   7.108
 4688POPC   C4B60586   8.565  30.396   7.543
 4689POPC   NC360587  26.179   8.313   5.400
 4689POPC   PO460588  25.770   7.762   5.206
 4689POPC   GL160589  25.805   8.089   5.598
 4689POPC   GL260590  26.111   7.940   5.770
 4689POPC   C1A60591  25.757   8.212   6.060
 4689POPC   D2A60592  25.742   8.101   6.522
 4689POPC   C3A60593  26.102   8.161   6.824
 4689POPC   C4A60594  26.004   8.433   7.165
 4689POPC   C1B60595  26.091   7.819   6.234
 4689POPC   C2B60596  25.978   7.656   6.676
 4689POPC   C3B60597  25.743   7.844   7.011
 4689POPC   C4B60598  25.666   7.999   7.406
 4690POPC   NC360599   4.495  19.682   5.476
 4690POPC   PO460600   3.784  19.659   5.468
 4690POPC   GL160601   4.040  19.666   5.844
 4690POPC   GL260602   4.255  19.975   5.958
 4690POPC   C1A60603   4.164  19.608   6.262
 4690POPC   D2A60604   4.339  19.886   6.548
 4690POPC   C3A60605   4.168  19.860   6.945
 4690POPC   C4A60606   4.287  19.544   7.238
 4690POPC   C1B60607   4.659  19.811   6.147
 4690POPC   C2B60608   4.863  19.878   6.560
 4690POPC   C3B60609   4.684  19.850   6.992
 4690POPC   C4B60610   4.679  20.002   7.422
 4691POPC   NC360611  22.027   1.685   5.048
 4691POPC   PO460612  22.432   2.017   5.412
 4691POPC   GL160613  22.376   2.232   5.786
 4691POPC   GL260614  22.600   2.027   5.917
 4691POPC   C1A60615  22.250   2.283   6.216
 4691POPC   D2A60616  22.101   2.081   6.585
 4691POPC   C3A60617  21.919   2.230   6.992
 4691POPC   C4A60618  21.875   2.117   7.405
 4691POPC   C1B60619  22.548   1.736   6.260
 4691POPC   C2B60620  22.432   1.693   6.694
 4691POPC   C3B60621  22.391   1.981   7.011
 4691POPC   C4B60622  22.560   1.854   7.377
 4692POPC   NC360623  29.729  38.971   5.432
 4692POPC   PO460624  30.245  39.486   5.500
 4692POPC   GL160625  30.010  39.247   5.816
 4692POPC   GL260626  29.660  39.394   5.800
 4692POPC   C1A60627  29.773  39.072   6.192
 4692POPC   D2A60628  29.596  39.120   6.628
 4692POPC   C3A60629  29.894  39.035   6.970
 4692POPC   C4A60630  30.251  39.211   7.198
 4692POPC   C1B60631  29.874  39.604   6.174
 4692POPC   C2B60632  29.797  39.622   6.630
 4692POPC   C3B60633  29.875  39.544   7.059
 4692POPC   C4B60634  29.765  39.309   7.433
 4693POPC   NC360635  43.265  20.416   5.193
 4693POPC   PO460636  42.681  20.593   5.426
 4693POPC   GL160637  43.013  20.486   5.732
 4693POPC   GL260638  43.360  20.382   5.704
 4693POPC   C1A60639  43.110  20.360   6.171
 4693POPC   D2A60640  43.155  20.620   6.530
 4693POPC   C3A60641  42.934  20.644   6.913
 4693POPC   C4A60642  43.074  20.947   7.188
 4693POPC   C1B60643  43.542  20.627   6.058
 4693POPC   C2B60644  43.646  20.694   6.508
 4693POPC   C3B60645  43.475  20.725   6.928
 4693POPC   C4B60646  43.410  20.483   7.296
 4694POPC   NC360647   1.464   1.284   5.045
 4694POPC   PO460648   2.080   1.352   5.278
 4694POPC   GL160649   1.859   1.347   5.726
 4694POPC   GL260650   1.842   1.019   5.857
 4694POPC   C1A60651   1.731   1.319   6.225
 4694POPC   D2A60652   1.992   1.230   6.572
 4694POPC   C3A60653   1.862   1.203   6.974
 4694POPC   C4A60654   2.103   1.246   7.370
 4694POPC   C1B60655   1.903   0.835   6.242
 4694POPC   C2B60656   1.770   0.751   6.621
 4694POPC   C3B60657   2.050   0.745   6.939
 4694POPC   C4B60658   1.859   0.797   7.325
 4695POPC   NC360659  40.823  22.721   5.337
 4695POPC   PO460660  40.562  23.316   5.293
 4695POPC   GL160661  40.661  23.057   5.714
 4695POPC   GL260662  40.935  22.793   5.818
 4695POPC   C1A60663  40.650  23.037   6.196
 4695POPC   D2A60664  40.635  23.296   6.590
 4695POPC   C3A60665  40.557  23.130   7.034
 4695POPC   C4A60666  40.545  22.900   7.480
 4695POPC   C1B60667  40.929  22.589   6.235
 4695POPC   C2B60668  40.813  22.564   6.675
 4695POPC   C3B60669  40.929  22.768   7.072
 4695POPC   C4B60670  40.973  22.603   7.482
 4696POPC   NC360671  33.806   1.539   5.533
 4696POPC   PO460672  33.459   0.967   5.471
 4696POPC   GL160673  33.649   1.176   5.842
 4696POPC   GL260674  33.993   1.253   5.909
 4696POPC   C1A60675  33.563   1.346   6.249
 4696POPC   D2A60676  33.502   1.174   6.656
 4696POPC   C3A60677  33.826   1.088   6.965
 4696POPC   C4A60678  33.771   1.099   7.420
 4696POPC   C1B60679  34.036   1.546   6.282
 4696POPC   C2B60680  33.839   1.615   6.713
 4696POPC   C3B60681  33.817   1.554   7.163
 4696POPC   C4B60682  34.080   1.520   7.535
 4697POPC   NC360683   7.614  40.993   5.511
 4697POPC   PO460684   7.146  40.465   5.443
 4697POPC   GL160685   7.256  40.721   5.766
 4697POPC   GL260686   7.580  40.604   5.862
 4697POPC   C1A60687   7.289  40.948   6.147
 4697POPC   D2A60688   7.407  40.790   6.526
 4697POPC   C3A60689   7.283  40.954   6.907
 4697POPC   C4A60690   7.182  40.806   7.300
 4697POPC   C1B60691   7.804  40.423   6.186
 4697POPC   C2B60692   7.913  40.544   6.579
 4697POPC   C3B60693   7.717  40.654   6.922
 4697POPC   C4B60694   7.685  40.922   7.243
 4698POPC   NC360695  12.661  31.717   5.424
 4698POPC   PO460696  12.998  31.121   5.285
 4698POPC   GL160697  13.002  31.388   5.665
 4698POPC   GL260698  12.695  31.341   5.805
 4698POPC   C1A60699  13.128  31.290   6.106
 4698POPC   D2A60700  12.903  31.374   6.486
 4698POPC   C3A60701  13.111  31.460   6.850
 4698POPC   C4A60702  13.112  31.408   7.273
 4698POPC   C1B60703  12.500  31.385   6.179
 4698POPC   C2B60704  12.332  31.462   6.575
 4698POPC   C3B60705  12.604  31.560   6.890
 4698POPC   C4B60706  12.839  31.817   7.110
 4699POPC   NC360707  33.681   9.495   5.309
 4699POPC   PO460708  33.504  10.123   5.477
 4699POPC   GL160709  33.673  10.024   5.857
 4699POPC   GL260710  33.781   9.713   5.786
 4699POPC   C1A60711  33.727   9.843   6.273
 4699POPC   D2A60712  33.874   9.621   6.609
 4699POPC   C3A60713  33.609   9.749   6.921
 4699POPC   C4A60714  33.812  10.091   7.096
 4699POPC   C1B60715  34.008   9.429   6.105
 4699POPC   C2B60716  34.175   9.222   6.509
 4699POPC   C3B60717  34.108   9.287   6.945
 4699POPC   C4B60718  34.140   9.688   7.106
 4700POPC   NC360719  40.274   0.865   5.575
 4700POPC   PO460720  40.042   1.412   5.347
 4700POPC   GL160721  39.950   1.238   5.775
 4700POPC   GL260722  39.632   1.336   5.918
 4700POPC   C1A60723  40.075   1.011   6.171
 4700POPC   D2A60724  40.095   0.872   6.598
 4700POPC   C3A60725  40.113   1.242   6.831
 4700POPC   C4A60726  40.293   1.320   7.219
 4700POPC   C1B60727  39.714   1.345   6.373
 4700POPC   C2B60728  39.642   1.054   6.700
 4700POPC   C3B60729  39.756   0.973   7.104
 4700POPC   C4B60730  39.800   1.382   7.242
 4701POPC   NC360731  13.939  34.014   5.309
 4701POPC   PO460732  13.369  33.644   5.429
 4701POPC   GL160733  13.546  33.820   5.791
 4701POPC   GL260734  13.833  33.704   5.722
 4701POPC   C1A60735  13.551  33.662   6.220
 4701POPC   D2A60736  13.566  33.940   6.571
 4701POPC   C3A60737  13.365  33.934   6.933
 4701POPC   C4A60738  13.529  33.940   7.313
 4701POPC   C1B60739  14.044  33.734   6.095
 4701POPC   C2B60740  13.982  33.651   6.521
 4701POPC   C3B60741  13.717  33.504   6.857
 4701POPC   C4B60742  13.801  33.495   7.299
 4702POPC   NC360743  33.201  39.502   5.500
 4702POPC   PO460744  32.844  40.092   5.505
 4702POPC   GL160745  33.095  39.894   5.828
 4702POPC   GL260746  32.829  39.675   5.823
 4702POPC   C1A60747  33.215  40.060   6.233
 4702POPC   D2A60748  32.958  40.188   6.585
 4702POPC   C3A60749  32.909  40.254   7.009
 4702POPC   C4A60750  33.155  40.010   7.267
 4702POPC   C1B60751  32.708  39.953   6.166
 4702POPC   C2B60752  32.500  39.860   6.555
 4702POPC   C3B60753  32.655  39.781   6.945
 4702POPC   C4B60754  32.642  39.942   7.361
 4703POPC   NC360755   5.325  26.032   5.576
 4703POPC   PO460756   4.677  25.842   5.511
 4703POPC   GL160757   4.912  25.973   5.856
 4703POPC   GL260758   5.174  25.740   5.962
 4703POPC   C1A60759   4.938  26.242   6.211
 4703POPC   D2A60760   4.627  26.320   6.554
 4703POPC   C3A60761   4.865  26.320   6.945
 4703POPC   C4A60762   5.003  26.215   7.373
 4703POPC   C1B60763   4.870  25.656   6.258
 4703POPC   C2B60764   4.911  25.897   6.609
 4703POPC   C3B60765   5.096  25.873   7.016
 4703POPC   C4B60766   4.817  25.745   7.343
 4704POPC   NC360767  36.023  32.867   5.498
 4704POPC   PO460768  35.903  33.592   5.452
 4704POPC   GL160769  35.773  33.348   5.841
 4704POPC   GL260770  36.010  33.060   5.971
 4704POPC   C1A60771  35.689  33.264   6.295
 4704POPC   D2A60772  35.998  33.085   6.544
 4704POPC   C3A60773  35.966  32.933   6.956
 4704POPC   C4A60774  36.014  33.031   7.391
 4704POPC   C1B60775  36.347  32.857   6.232
 4704POPC   C2B60776  36.323  32.695   6.670
 4704POPC   C3B60777  36.422  32.755   7.125
 4704POPC   C4B60778  36.272  32.613   7.542
 4705POPC   NC360779   0.847   9.004   5.205
 4705POPC   PO460780   0.293   8.679   5.407
 4705POPC   GL160781   0.327   8.883   5.805
 4705POPC   GL260782   0.577   8.756   6.046
 4705POPC   C1A60783   0.219   9.132   6.180
 4705POPC   D2A60784   0.108   8.950   6.583
 4705POPC   C3A60785   0.385   9.074   6.935
 4705POPC   C4A60786   0.271   9.286   7.299
 4705POPC   C1B60787   0.629   8.431   6.355
 4705POPC   C2B60788   0.749   8.347   6.772
 4705POPC   C3B60789   0.760   8.540   7.187
 4705POPC   C4B60790   0.597   8.910   7.391
 4706POPC   NC360791  15.810  35.285   5.369
 4706POPC   PO460792  15.922  35.904   5.197
 4706POPC   GL160793  15.781  35.719   5.665
 4706POPC   GL260794  16.014  35.450   5.802
 4706POPC   C1A60795  15.740  35.656   6.171
 4706POPC   D2A60796  16.039  35.720   6.534
 4706POPC   C3A60797  16.007  35.592   6.963
 4706POPC   C4A60798  15.842  35.278   7.220
 4706POPC   C1B60799  16.258  35.403   6.199
 4706POPC   C2B60800  16.246  35.244   6.637
 4706POPC   C3B60801  16.356  35.221   7.077
 4706POPC   C4B60802  16.609  35.089   7.451
 4707POPC   NC360803   2.489  29.092   5.457
 4707POPC   PO460804   3.144  29.195   5.429
 4707POPC   GL160805   2.854  29.227   5.785
 4707POPC   GL260806   2.664  28.970   5.908
 4707POPC   C1A60807   2.932  29.329   6.202
 4707POPC   D2A60808   2.845  29.055   6.512
 4707POPC   C3A60809   3.027  29.130   6.900
 4707POPC   C4A60810   2.855  28.981   7.281
 4707POPC   C1B60811   2.446  28.773   6.216
 4707POPC   C2B60812   2.348  28.913   6.602
 4707POPC   C3B60813   2.501  29.134   6.921
 4707POPC   C4B60814   2.380  28.862   7.250
 4708POPC   NC360815  40.821   8.558   5.256
 4708POPC   PO460816  41.084   9.144   5.361
 4708POPC   GL160817  40.956   9.020   5.762
 4708POPC   GL260818  41.138   8.727   5.828
 4708POPC   C1A60819  40.813   9.052   6.206
 4708POPC   D2A60820  40.699   8.903   6.645
 4708POPC   C3A60821  40.828   9.159   6.995
 4708POPC   C4A60822  40.774   9.134   7.428
 4708POPC   C1B60823  41.264   8.821   6.270
 4708POPC   C2B60824  41.203   8.865   6.730
 4708POPC   C3B60825  41.002   8.686   7.093
 4708POPC   C4B60826  40.561   8.715   7.236
 4709POPC   NC360827  41.605  39.032   5.518
 4709POPC   PO460828  41.897  38.383   5.491
 4709POPC   GL160829  41.643  38.544   5.828
 4709POPC   GL260830  41.511  38.193   5.852
 4709POPC   C1A60831  41.587  38.601   6.268
 4709POPC   D2A60832  41.461  38.416   6.654
 4709POPC   C3A60833  41.438  38.424   7.084
 4709POPC   C4A60834  41.757  38.668   7.249
 4709POPC   C1B60835  41.871  38.052   6.090
 4709POPC   C2B60836  42.032  38.096   6.510
 4709POPC   C3B60837  41.805  38.075   6.904
 4709POPC   C4B60838  41.782  38.097   7.352
 4710POPC   NC360839  43.379  33.241   5.549
 4710POPC   PO460840  44.010  33.008   5.148
 4710POPC   GL160841  43.850  33.033   5.707
 4710POPC   GL260842  43.842  32.724   5.897
 4710POPC   C1A60843  43.834  33.182   6.164
 4710POPC   D2A60844  43.780  33.008   6.593
 4710POPC   C3A60845  43.918  33.239   6.965
 4710POPC   C4A60846  44.236  33.115   7.292
 4710POPC   C1B60847  43.507  32.781   6.183
 4710POPC   C2B60848  43.472  32.573   6.560
 4710POPC   C3B60849  43.580  32.656   6.963
 4710POPC   C4B60850  43.885  32.769   7.203
 4711POPC   NC360851  10.781  28.654   5.425
 4711POPC   PO460852  10.110  28.563   5.361
 4711POPC   GL160853  10.294  28.377   5.741
 4711POPC   GL260854  10.649  28.428   5.857
 4711POPC   C1A60855  10.270  28.189   6.139
 4711POPC   D2A60856  10.405  28.396   6.507
 4711POPC   C3A60857  10.320  28.218   6.911
 4711POPC   C4A60858  10.438  28.275   7.318
 4711POPC   C1B60859  10.847  28.761   6.079
 4711POPC   C2B60860  10.932  28.709   6.521
 4711POPC   C3B60861  10.671  28.613   6.894
 4711POPC   C4B60862  10.743  28.712   7.295
 4712POPC   NC360863  41.927  41.766   5.460
 4712POPC   PO460864  42.605  41.720   5.385
 4712POPC   GL160865  42.348  41.600   5.708
 4712POPC   GL260866  42.090  41.349   5.750
 4712POPC   C1A60867  42.232  41.786   6.076
 4712POPC   D2A60868  42.309  41.718   6.517
 4712POPC   C3A60869  42.197  41.808   6.968
 4712POPC   C4A60870  42.359  41.725   7.399
 4712POPC   C1B60871  42.250  41.301   6.206
 4712POPC   C2B60872  42.123  41.278   6.689
 4712POPC   C3B60873  42.156  41.318   7.169
 4712POPC   C4B60874  42.131  41.304   7.679
 4713POPC   NC360875  15.091  14.992   5.030
 4713POPC   PO460876  14.799  15.433   5.226
 4713POPC   GL160877  15.017  15.237   5.599
 4713POPC   GL260878  14.800  15.433   5.793
 4713POPC   C1A60879  14.983  15.014   6.044
 4713POPC   D2A60880  14.741  14.924   6.457
 4713POPC   C3A60881  14.903  14.991   6.885
 4713POPC   C4A60882  15.290  15.017   7.132
 4713POPC   C1B60883  14.684  15.401   6.220
 4713POPC   C2B60884  14.859  15.448   6.626
 4713POPC   C3B60885  14.788  15.466   7.071
 4713POPC   C4B60886  15.036  15.472   7.447
 4714POPC   NC360887  10.588  18.554   5.517
 4714POPC   PO460888  11.006  17.983   5.453
 4714POPC   GL160889  10.797  18.206   5.844
 4714POPC   GL260890  10.501  18.006   6.012
 4714POPC   C1A60891  10.649  18.441   6.257
 4714POPC   D2A60892  10.573  18.273   6.704
 4714POPC   C3A60893  10.432  18.470   7.090
 4714POPC   C4A60894   9.986  18.644   7.150
 4714POPC   C1B60895  10.795  17.949   6.348
 4714POPC   C2B60896  10.702  17.776   6.747
 4714POPC   C3B60897  10.537  17.906   7.119
 4714POPC   C4B60898  10.746  17.958   7.525
 4715POPC   NC360899  24.292  14.777   5.384
 4715POPC   PO460900  23.796  14.321   5.515
 4715POPC   GL160901  24.167  14.457   5.825
 4715POPC   GL260902  24.077  14.784   5.859
 4715POPC   C1A60903  24.431  14.420   6.284
 4715POPC   D2A60904  24.691  14.402   6.730
 4715POPC   C3A60905  24.546  14.326   7.202
 4715POPC   C4A60906  24.392  14.304   7.662
 4715POPC   C1B60907  24.321  14.914   6.199
 4715POPC   C2B60908  24.517  14.874   6.609
 4715POPC   C3B60909  24.596  14.821   7.067
 4715POPC   C4B60910  24.637  14.772   7.506
 4716POPC   NC360911  24.775  37.312   5.386
 4716POPC   PO460912  24.742  36.774   5.312
 4716POPC   GL160913  24.536  36.964   5.711
 4716POPC   GL260914  24.493  36.662   5.915
 4716POPC   C1A60915  24.429  37.094   6.184
 4716POPC   D2A60916  24.327  37.272   6.624
 4716POPC   C3A60917  24.465  37.146   7.063
 4716POPC   C4A60918  24.310  37.134   7.480
 4716POPC   C1B60919  24.591  36.640   6.374
 4716POPC   C2B60920  24.358  36.741   6.763
 4716POPC   C3B60921  24.297  36.682   7.235
 4716POPC   C4B60922  24.351  36.667   7.704
 4717POPC   NC360923  25.856  16.660   5.290
 4717POPC   PO460924  26.458  16.835   5.435
 4717POPC   GL160925  26.169  16.618   5.752
 4717POPC   GL260926  25.858  16.812   5.787
 4717POPC   C1A60927  26.017  16.554   6.206
 4717POPC   D2A60928  25.873  16.714   6.634
 4717POPC   C3A60929  26.007  16.447   7.010
 4717POPC   C4A60930  26.020  16.343   7.497
 4717POPC   C1B60931  25.849  17.059   6.160
 4717POPC   C2B60932  25.621  17.164   6.534
 4717POPC   C3B60933  25.786  17.215   6.933
 4717POPC   C4B60934  25.991  16.911   7.177
 4718POPC   NC360935  31.643  28.441   5.465
 4718POPC   PO460936  31.002  28.328   5.737
 4718POPC   GL160937  31.412  28.399   5.939
 4718POPC   GL260938  31.788  28.287   5.917
 4718POPC   C1A60939  31.337  28.381   6.369
 4718POPC   D2A60940  31.307  28.086   6.653
 4718POPC   C3A60941  31.490  28.319   6.969
 4718POPC   C4A60942  31.267  28.648   7.197
 4718POPC   C1B60943  31.832  28.501   6.304
 4718POPC   C2B60944  31.619  28.725   6.649
 4718POPC   C3B60945  31.743  28.784   7.072
 4718POPC   C4B60946  31.768  28.475   7.371
 4719POPC   NC360947  13.610  41.259   5.389
 4719POPC   PO460948  13.343  41.921   5.475
 4719POPC   GL160949  13.470  41.626   5.781
 4719POPC   GL260950  13.832  41.601   5.793
 4719POPC   C1A60951  13.589  41.662   6.221
 4719POPC   D2A60952  13.430  41.721   6.628
 4719POPC   C3A60953  13.536  41.462   6.917
 4719POPC   C4A60954  13.650  41.467   7.311
 4719POPC   C1B60955  14.029  41.400   6.199
 4719POPC   C2B60956  14.017  41.363   6.682
 4719POPC   C3B60957  14.096  41.308   7.127
 4719POPC   C4B60958  14.040  41.312   7.591
 4720POPC   NC360959  22.542   8.232   5.429
 4720POPC   PO460960  23.214   8.118   5.384
 4720POPC   GL160961  22.982   8.155   5.788
 4720POPC   GL260962  22.650   8.268   5.921
 4720POPC   C1A60963  22.883   7.909   6.189
 4720POPC   D2A60964  22.970   8.091   6.601
 4720POPC   C3A60965  22.711   8.085   6.951
 4720POPC   C4A60966  22.897   8.090   7.334
 4720POPC   C1B60967  22.999   8.444   6.212
 4720POPC   C2B60968  23.108   8.602   6.651
 4720POPC   C3B60969  22.915   8.546   7.088
 4720POPC   C4B60970  22.527   8.434   7.389
 4721POPC   NC360971  15.519  27.919   5.576
 4721POPC   PO460972  16.207  27.723   5.390
 4721POPC   GL160973  15.976  27.783   5.773
 4721POPC   GL260974  15.703  27.513   5.817
 4721POPC   C1A60975  16.086  28.037   6.156
 4721POPC   D2A60976  15.950  28.083   6.605
 4721POPC   C3A60977  16.097  27.860   7.010
 4721POPC   C4A60978  16.281  27.463   7.203
 4721POPC   C1B60979  15.710  27.709   6.223
 4721POPC   C2B60980  15.847  27.594   6.621
 4721POPC   C3B60981  15.798  27.441   7.021
 4721POPC   C4B60982  15.409  27.506   7.128
 4722POPC   NC360983   0.672  23.171   5.150
 4722POPC   PO460984   0.311  22.647   5.471
 4722POPC   GL160985   0.412  22.841   5.866
 4722POPC   GL260986   0.695  23.105   5.809
 4722POPC   C1A60987   0.274  22.737   6.283
 4722POPC   D2A60988   0.428  22.629   6.698
 4722POPC   C3A60989   0.232  22.718   7.105
 4722POPC   C4A60990   0.299  22.746   7.576
 4722POPC   C1B60991   0.661  23.066   6.276
 4722POPC   C2B60992   0.473  23.136   6.689
 4722POPC   C3B60993   0.533  23.147   7.131
 4722POPC   C4B60994   0.658  23.209   7.573
 4723POPC   NC360995  29.247  26.059   5.533
 4723POPC   PO460996  29.270  25.321   5.472
 4723POPC   GL160997  29.195  25.640   5.852
 4723POPC   GL260998  29.312  26.014   6.016
 4723POPC   C1A60999  28.960  25.727   6.240
 4723POPC   D2A61000  28.786  25.678   6.666
 4723POPC   C3A61001  29.093  25.654   6.977
 4723POPC   C4A61002  29.025  25.961   7.277
 4723POPC   C1B61003  28.951  26.293   6.146
 4723POPC   C2B61004  28.872  26.455   6.574
 4723POPC   C3B61005  28.895  26.423   7.053
 4723POPC   C4B61006  29.310  26.369   7.312
 4724POPC   NC361007  35.538  34.907   5.259
 4724POPC   PO461008  35.209  34.287   5.264
 4724POPC   GL161009  35.340  34.554   5.665
 4724POPC   GL261010  35.255  34.937   5.683
 4724POPC   C1A61011  35.468  34.721   6.103
 4724POPC   D2A61012  35.395  34.931   6.530
 4724POPC   C3A61013  35.588  34.686   6.872
 4724POPC   C4A61014  35.467  34.321   7.137
 4724POPC   C1B61015  34.986  34.951   6.079
 4724POPC   C2B61016  34.909  34.742   6.486
 4724POPC   C3B61017  35.079  34.684   6.914
 4724POPC   C4B61018  34.952  34.890   7.283
 4725POPC   NC361019  22.465  17.072   5.516
 4725POPC   PO461020  22.680  16.470   5.281
 4725POPC   GL161021  22.478  16.549   5.709
 4725POPC   GL261022  22.107  16.681   5.722
 4725POPC   C1A61023  22.338  16.543   6.165
 4725POPC   D2A61024  22.366  16.849   6.508
 4725POPC   C3A61025  22.314  16.643   6.898
 4725POPC   C4A61026  22.182  16.809   7.265
 4725POPC   C1B61027  21.863  16.748   6.139
 4725POPC   C2B61028  21.888  16.628   6.590
 4725POPC   C3B61029  21.869  16.419   7.009
 4725POPC   C4B61030  21.689  16.713   7.290
 4726POPC   NC361031   7.315   9.050   5.094
 4726POPC   PO461032   7.813   8.937   5.520
 4726POPC   GL161033   7.355   8.979   5.633
 4726POPC   GL261034   7.200   8.657   5.727
 4726POPC   C1A61035   7.095   9.056   6.025
 4726POPC   D2A61036   7.254   9.194   6.432
 4726POPC   C3A61037   7.210   9.010   6.849
 4726POPC   C4A61038   7.461   9.176   7.157
 4726POPC   C1B61039   7.417   8.657   6.156
 4726POPC   C2B61040   7.509   8.594   6.632
 4726POPC   C3B61041   7.537   8.643   7.108
 4726POPC   C4B61042   7.594   8.529   7.569
 4727POPC   NC361043  35.558  30.251   5.640
 4727POPC   PO461044  35.048  29.911   5.344
 4727POPC   GL161045  35.169  29.797   5.757
 4727POPC   GL261046  35.503  29.720   5.768
 4727POPC   C1A61047  35.192  29.954   6.166
 4727POPC   D2A61048  35.444  30.169   6.461
 4727POPC   C3A61049  35.227  30.111   6.823
 4727POPC   C4A61050  35.310  29.995   7.204
 4727POPC   C1B61051  35.676  29.740   6.202
 4727POPC   C2B61052  35.816  29.801   6.632
 4727POPC   C3B61053  35.743  30.070   6.974
 4727POPC   C4B61054  35.784  29.965   7.439
 4728POPC   NC361055  17.656   7.488   5.343
 4728POPC   PO461056  17.053   7.286   5.497
 4728POPC   GL161057  17.317   7.497   5.785
 4728POPC   GL261058  17.588   7.240   5.790
 4728POPC   C1A61059  17.430   7.558   6.234
 4728POPC   D2A61060  17.258   7.395   6.654
 4728POPC   C3A61061  17.297   7.594   7.090
 4728POPC   C4A61062  17.512   7.462   7.510
 4728POPC   C1B61063  17.577   7.073   6.208
 4728POPC   C2B61064  17.737   7.174   6.622
 4728POPC   C3B61065  17.683   7.209   7.073
 4728POPC   C4B61066  17.955   7.178   7.446
 4729POPC   NC361067   3.312   9.627   5.344
 4729POPC   PO461068   3.837   9.981   5.279
 4729POPC   GL161069   3.675   9.689   5.683
 4729POPC   GL261070   3.326   9.450   5.800
 4729POPC   C1A61071   3.668   9.922   6.073
 4729POPC   D2A61072   3.484  10.033   6.463
 4729POPC   C3A61073   3.692   9.749   6.750
 4729POPC   C4A61074   3.653   9.806   7.167
 4729POPC   C1B61075   3.196   9.756   6.102
 4729POPC   C2B61076   2.969   9.821   6.487
 4729POPC   C3B61077   3.172   9.733   6.898
 4729POPC   C4B61078   3.324   9.386   7.180
 4730POPC   NC361079  32.320   9.132   5.218
 4730POPC   PO461080  32.110   9.720   5.356
 4730POPC   GL161081  32.341   9.801   5.731
 4730POPC   GL261082  32.089   9.991   5.852
 4730POPC   C1A61083  32.531   9.695   6.142
 4730POPC   D2A61084  32.355   9.497   6.515
 4730POPC   C3A61085  32.283   9.704   6.892
 4730POPC   C4A61086  32.384   9.503   7.285
 4730POPC   C1B61087  32.060   9.886   6.297
 4730POPC   C2B61088  32.026  10.223   6.623
 4730POPC   C3B61089  31.851  10.202   7.033
 4730POPC   C4B61090  31.947   9.837   7.261
 4731POPC   NC361091  15.121  21.614   5.345
 4731POPC   PO461092  15.507  21.184   5.411
 4731POPC   GL161093  15.123  21.218   5.717
 4731POPC   GL261094  15.079  20.900   5.876
 4731POPC   C1A61095  14.893  21.424   6.095
 4731POPC   D2A61096  14.871  21.615   6.538
 4731POPC   C3A61097  14.882  21.440   6.989
 4731POPC   C4A61098  15.021  21.522   7.418
 4731POPC   C1B61099  15.200  21.082   6.296
 4731POPC   C2B61100  15.221  21.165   6.748
 4731POPC   C3B61101  15.417  21.346   7.121
 4731POPC   C4B61102  15.790  21.203   7.354
 4732POPC   NC361103  12.245  39.420   5.023
 4732POPC   PO461104  11.785  39.038   5.351
 4732POPC   GL161105  11.932  39.187   5.747
 4732POPC   GL261106  12.234  39.383   5.710
 4732POPC   C1A61107  12.096  39.093   6.170
 4732POPC   D2A61108  12.293  39.264   6.546
 4732POPC   C3A61109  12.085  39.202   6.916
 4732POPC   C4A61110  11.975  39.115   7.282
 4732POPC   C1B61111  12.192  39.584   6.138
 4732POPC   C2B61112  12.188  39.770   6.578
 4732POPC   C3B61113  12.376  39.617   6.988
 4732POPC   C4B61114  12.362  39.429   7.403
 4733POPC   NC361115  40.200  41.847   5.255
 4733POPC   PO461116  39.762  41.344   5.411
 4733POPC   GL161117  39.758  41.557   5.843
 4733POPC   GL261118  39.809  41.918   5.838
 4733POPC   C1A61119  40.072  41.649   6.211
 4733POPC   D2A61120  40.209  41.770   6.656
 4733POPC   C3A61121  40.271  41.409   6.914
 4733POPC   C4A61122  40.084  41.279   7.286
 4733POPC   C1B61123  39.631  41.890   6.286
 4733POPC   C2B61124  39.546  41.569   6.582
 4733POPC   C3B61125  39.744  41.495   6.959
 4733POPC   C4B61126  39.984  41.790   7.203
 4734POPC   NC361127  26.537  43.620   5.344
 4734POPC   PO461128  26.761  44.253   5.394
 4734POPC   GL161129  26.628  44.159   5.840
 4734POPC   GL261130  26.628  43.791   5.822
 4734POPC   C1A61131  26.763  44.062   6.321
 4734POPC   D2A61132  27.044  43.789   6.646
 4734POPC   C3A61133  27.115  43.903   7.105
 4734POPC   C4A61134  27.095  44.126   7.536
 4734POPC   C1B61135  26.409  43.692   6.203
 4734POPC   C2B61136  26.353  43.861   6.603
 4734POPC   C3B61137  26.603  43.824   6.970
 4734POPC   C4B61138  26.637  43.936   7.369
 4735POPC   NC361139   5.511  23.964   5.482
 4735POPC   PO461140   4.926  23.549   5.404
 4735POPC   GL161141   5.055  23.610   5.834
 4735POPC   GL261142   5.399  23.535   5.797
 4735POPC   C1A61143   4.969  23.566   6.305
 4735POPC   D2A61144   4.856  23.383   6.730
 4735POPC   C3A61145   5.057  23.585   7.072
 4735POPC   C4A61146   5.093  24.007   7.258
 4735POPC   C1B61147   5.469  23.667   6.209
 4735POPC   C2B61148   5.313  23.936   6.540
 4735POPC   C3B61149   5.475  23.916   6.948
 4735POPC   C4B61150   5.515  23.654   7.282
 4736POPC   NC361151  34.666   1.030   5.526
 4736POPC   PO461152  34.149   1.368   5.284
 4736POPC   GL161153  34.427   1.431   5.691
 4736POPC   GL261154  34.806   1.495   5.750
 4736POPC   C1A61155  34.472   1.322   6.136
 4736POPC   D2A61156  34.516   1.564   6.522
 4736POPC   C3A61157  34.325   1.444   6.936
 4736POPC   C4A61158  34.293   1.124   7.261
 4736POPC   C1B61159  34.955   1.460   6.179
 4736POPC   C2B61160  34.884   1.211   6.574
 4736POPC   C3B61161  34.768   1.108   7.012
 4736POPC   C4B61162  34.950   1.347   7.344
 4737POPC   NC361163  43.753   0.661   5.227
 4737POPC   PO461164  44.246   0.233   5.351
 4737POPC   GL161165  44.014   0.495   5.674
 4737POPC   GL261166  43.697   0.396   5.929
 4737POPC   C1A61167  44.130   0.553   6.125
 4737POPC   D2A61168  43.814   0.487   6.470
 4737POPC   C3A61169  43.803   0.769   6.793
 4737POPC   C4A61170  43.814   0.727   7.226
 4737POPC   C1B61171  43.753   0.025   6.277
 4737POPC   C2B61172  43.777   0.012   6.735
 4737POPC   C3B61173  43.763   0.217   7.150
 4737POPC   C4B61174  43.895   0.285   7.574
 4738POPC   NC361175  35.959  27.800   5.168
 4738POPC   PO461176  35.905  28.459   5.419
 4738POPC   GL161177  35.901  28.402   5.864
 4738POPC   GL261178  36.197  28.197   5.927
 4738POPC   C1A61179  35.886  28.442   6.305
 4738POPC   D2A61180  36.028  28.699   6.640
 4738POPC   C3A61181  36.017  28.520   7.065
 4738POPC   C4A61182  35.938  28.096   7.258
 4738POPC   C1B61183  36.199  28.045   6.346
 4738POPC   C2B61184  36.162  28.111   6.783
 4738POPC   C3B61185  36.428  28.192   7.148
 4738POPC   C4B61186  36.401  28.039   7.570
 4739POPC   NC361187  25.354  21.104   5.381
 4739POPC   PO461188  25.054  21.672   5.614
 4739POPC   GL161189  25.272  21.343   5.838
 4739POPC   GL261190  24.993  21.116   5.806
 4739POPC   C1A61191  25.296  21.091   6.239
 4739POPC   D2A61192  25.185  21.145   6.667
 4739POPC   C3A61193  25.311  21.533   6.891
 4739POPC   C4A61194  25.536  21.502   7.276
 4739POPC   C1B61195  24.861  21.365   6.175
 4739POPC   C2B61196  24.794  21.496   6.594
 4739POPC   C3B61197  24.840  21.328   6.974
 4739POPC   C4B61198  24.945  21.568   7.254
 4740POPC   NC361199   2.566  44.218   5.383
 4740POPC   PO461200   3.021  44.791   5.503
 4740POPC   GL161201   2.722  44.764   5.820
 4740POPC   GL261202   2.711  44.411   5.854
 4740POPC   C1A61203   2.589  44.793   6.259
 4740POPC   D2A61204   2.414  44.548   6.578
 4740POPC   C3A61205   2.499  44.557   7.003
 4740POPC   C4A61206   2.650  44.807   7.334
 4740POPC   C1B61207   3.018  44.525   6.215
 4740POPC   C2B61208   2.936  44.488   6.671
 4740POPC   C3B61209   3.071  44.567   7.097
 4740POPC   C4B61210   3.141  44.958   7.312
 4741POPC   NC361211  33.645   6.156   5.603
 4741POPC   PO461212  33.920   5.557   5.475
 4741POPC   GL161213  33.832   5.723   5.845
 4741POPC   GL261214  34.057   5.973   5.824
 4741POPC   C1A61215  33.585   5.777   6.214
 4741POPC   D2A61216  33.431   5.642   6.608
 4741POPC   C3A61217  33.599   5.853   6.938
 4741POPC   C4A61218  33.845   5.683   7.249
 4741POPC   C1B61219  33.987   6.131   6.201
 4741POPC   C2B61220  33.958   5.914   6.556
 4741POPC   C3B61221  34.092   5.974   6.924
 4741POPC   C4B61222  34.218   6.072   7.295
 4742POPC   NC361223  28.233  39.553   5.266
 4742POPC   PO461224  28.437  38.984   5.423
 4742POPC   GL161225  28.329  39.294   5.724
 4742POPC   GL261226  28.615  39.527   5.748
 4742POPC   C1A61227  28.282  39.215   6.158
 4742POPC   D2A61228  28.070  39.202   6.548
 4742POPC   C3A61229  28.245  39.151   6.928
 4742POPC   C4A61230  28.506  39.051   7.230
 4742POPC   C1B61231  28.738  39.434   6.192
 4742POPC   C2B61232  28.496  39.477   6.566
 4742POPC   C3B61233  28.444  39.623   6.964
 4742POPC   C4B61234  28.795  39.496   7.202
 4743POPC   NC361235  23.052   4.265   5.334
 4743POPC   PO461236  22.486   4.499   5.144
 4743POPC   GL161237  22.649   4.407   5.638
 4743POPC   GL261238  22.997   4.298   5.841
 4743POPC   C1A61239  22.625   4.460   6.150
 4743POPC   D2A61240  22.670   4.396   6.639
 4743POPC   C3A61241  22.992   4.153   6.900
 4743POPC   C4A61242  23.101   4.003   7.306
 4743POPC   C1B61243  23.140   4.619   6.181
 4743POPC   C2B61244  23.087   4.726   6.641
 4743POPC   C3B61245  23.211   4.581   7.055
 4743POPC   C4B61246  23.151   4.471   7.500
 4744POPC   NC361247  43.278  13.684   5.550
 4744POPC   PO461248  42.696  13.405   5.336
 4744POPC   GL161249  42.851  13.458   5.760
 4744POPC   GL261250  42.733  13.802   5.729
 4744POPC   C1A61251  43.191  13.393   6.125
 4744POPC   D2A61252  43.406  13.674   6.400
 4744POPC   C3A61253  43.377  13.566   6.848
 4744POPC   C4A61254  43.155  13.309   7.149
 4744POPC   C1B61255  42.899  13.812   6.160
 4744POPC   C2B61256  42.918  13.596   6.556
 4744POPC   C3B61257  42.942  13.752   6.986
 4744POPC   C4B61258  42.984  13.715   7.403
 4745POPC   NC361259   7.998  10.350   5.607
 4745POPC   PO461260   8.623  10.461   5.586
 4745POPC   GL161261   8.332  10.641   5.905
 4745POPC   GL261262   8.037  10.864   5.752
 4745POPC   C1A61263   8.234  10.550   6.357
 4745POPC   D2A61264   8.285  10.674   6.822
 4745POPC   C3A61265   8.134  10.387   7.119
 4745POPC   C4A61266   8.351  10.171   7.407
 4745POPC   C1B61267   8.073  11.027   6.178
 4745POPC   C2B61268   7.907  10.893   6.582
 4745POPC   C3B61269   7.807  10.782   7.026
 4745POPC   C4B61270   7.980  10.752   7.469
 4746POPC   NC361271  22.580  23.005   5.361
 4746POPC   PO461272  22.615  22.461   5.613
 4746POPC   GL161273  22.455  22.820   5.831
 4746POPC   GL261274  22.153  23.065   5.769
 4746POPC   C1A61275  22.295  22.829   6.218
 4746POPC   D2A61276  22.184  23.001   6.556
 4746POPC   C3A61277  22.370  22.927   6.911
 4746POPC   C4A61278  22.164  22.893   7.266
 4746POPC   C1B61279  21.968  23.262   6.189
 4746POPC   C2B61280  21.846  23.378   6.641
 4746POPC   C3B61281  21.848  23.271   7.095
 4746POPC   C4B61282  21.827  23.303   7.576
 4747POPC   NC361283   4.766  25.388   5.597
 4747POPC   PO461284   5.356  25.567   5.502
 4747POPC   GL161285   5.208  25.250   5.847
 4747POPC   GL261286   4.967  24.959   5.852
 4747POPC   C1A61287   5.225  25.238   6.278
 4747POPC   D2A61288   5.257  25.523   6.619
 4747POPC   C3A61289   5.056  25.374   6.993
 4747POPC   C4A61290   5.099  25.347   7.462
 4747POPC   C1B61291   4.885  24.836   6.307
 4747POPC   C2B61292   5.086  24.882   6.736
 4747POPC   C3B61293   5.014  24.913   7.200
 4747POPC   C4B61294   4.797  24.948   7.635
 4748POPC   NC361295  23.768  44.801   5.212
 4748POPC   PO461296  24.062  44.161   5.142
 4748POPC   GL161297  23.976  44.338   5.603
 4748POPC   GL261298  23.646  44.440   5.676
 4748POPC   C1A61299  23.966  44.466   6.063
 4748POPC   D2A61300  23.965  44.595   6.491
 4748POPC   C3A61301  23.824  44.355   6.831
 4748POPC   C4A61302  23.920  44.557   7.214
 4748POPC   C1B61303  23.460  44.400   6.145
 4748POPC   C2B61304  23.447  44.610   6.567
 4748POPC   C3B61305  23.276  44.659   6.982
 4748POPC   C4B61306  23.326  44.517   7.425
 4749POPC   NC361307  29.428  41.319   5.619
 4749POPC   PO461308  28.829  41.504   5.364
 4749POPC   GL161309  28.998  41.535   5.799
 4749POPC   GL261310  29.292  41.763   5.846
 4749POPC   C1A61311  29.119  41.432   6.245
 4749POPC   D2A61312  28.854  41.520   6.610
 4749POPC   C3A61313  29.020  41.579   7.010
 4749POPC   C4A61314  29.332  41.401   7.245
 4749POPC   C1B61315  29.511  41.824   6.261
 4749POPC   C2B61316  29.522  41.703   6.706
 4749POPC   C3B61317  29.508  42.018   7.034
 4749POPC   C4B61318  29.329  41.903   7.432
 4750POPC   NC361319  38.306  41.546   5.463
 4750POPC   PO461320  38.542  40.843   5.526
 4750POPC   GL161321  38.502  41.193   5.814
 4750POPC   GL261322  38.154  41.202   5.851
 4750POPC   C1A61323  38.683  41.489   6.152
 4750POPC   D2A61324  38.662  41.696   6.569
 4750POPC   C3A61325  38.625  41.380   6.890
 4750POPC   C4A61326  38.250  41.308   7.150
 4750POPC   C1B61327  38.148  41.580   6.140
 4750POPC   C2B61328  38.041  41.791   6.561
 4750POPC   C3B61329  38.120  41.792   7.033
 4750POPC   C4B61330  38.161  41.974   7.494
 4751POPC   NC361331  41.773  10.342   5.527
 4751POPC   PO461332  41.833  10.971   5.202
 4751POPC   GL161333  41.643  10.799   5.687
 4751POPC   GL261334  41.272  10.713   5.699
 4751POPC   C1A61335  41.624  10.669   6.183
 4751POPC   D2A61336  41.725  10.470   6.629
 4751POPC   C3A61337  41.577  10.675   7.014
 4751POPC   C4A61338  41.507  10.512   7.418
 4751POPC   C1B61339  41.106  10.679   6.149
 4751POPC   C2B61340  41.265  10.750   6.583
 4751POPC   C3B61341  41.064  10.854   6.986
 4751POPC   C4B61342  41.035  10.663   7.415
 4752POPC   NC361343  19.698  18.546   5.353
 4752POPC   PO461344  20.195  18.164   5.167
 4752POPC   GL161345  19.946  18.094   5.618
 4752POPC   GL261346  19.945  18.416   5.785
 4752POPC   C1A61347  19.973  18.069   6.148
 4752POPC   D2A61348  20.086  18.016   6.619
 4752POPC   C3A61349  19.937  18.178   7.029
 4752POPC   C4A61350  19.569  18.000   7.270
 4752POPC   C1B61351  19.734  18.540   6.179
 4752POPC   C2B61352  19.887  18.504   6.605
 4752POPC   C3B61353  20.024  18.748   6.936
 4752POPC   C4B61354  19.849  18.720   7.357
 4753POPC   NC361355  42.393  20.937   5.282
 4753POPC   PO461356  42.138  20.357   5.592
 4753POPC   GL161357  42.328  20.614   5.928
 4753POPC   GL261358  42.621  20.823   5.867
 4753POPC   C1A61359  42.186  20.722   6.354
 4753POPC   D2A61360  42.277  20.491   6.761
 4753POPC   C3A61361  42.017  20.565   7.139
 4753POPC   C4A61362  41.953  20.306   7.512
 4753POPC   C1B61363  42.699  20.721   6.306
 4753POPC   C2B61364  42.548  20.936   6.688
 4753POPC   C3B61365  42.476  20.823   7.109
 4753POPC   C4B61366  42.548  20.404   7.245
 4754POPC   NC361367  44.675   9.404   5.390
 4754POPC   PO461368  44.516   8.846   5.268
 4754POPC   GL161369  44.441   8.988   5.728
 4754POPC   GL261370  44.252   8.665   5.785
 4754POPC   C1A61371  44.656   9.078   6.165
 4754POPC   D2A61372  44.621   9.193   6.632
 4754POPC   C3A61373  44.868   9.112   7.019
 4754POPC   C4A61374  44.749   8.992   7.445
 4754POPC   C1B61375  44.481   8.598   6.156
 4754POPC   C2B61376  44.344   8.767   6.548
 4754POPC   C3B61377  44.482   8.768   6.966
 4754POPC   C4B61378  44.267   8.769   7.354
 4755POPC   NC361379  40.919  23.712   5.250
 4755POPC   PO461380  40.204  23.769   5.306
 4755POPC   GL161381  40.572  23.870   5.608
 4755POPC   GL261382  40.794  23.567   5.730
 4755POPC   C1A61383  40.658  23.925   6.056
 4755POPC   D2A61384  40.433  23.876   6.447
 4755POPC   C3A61385  40.627  23.732   6.849
 4755POPC   C4A61386  40.543  23.883   7.236
 4755POPC   C1B61387  40.941  23.495   6.199
 4755POPC   C2B61388  41.087  23.511   6.662
 4755POPC   C3B61389  40.988  23.444   7.114
 4755POPC   C4B61390  41.038  23.608   7.554
 4756POPC   NC361391  43.771  35.876   5.402
 4756POPC   PO461392  44.117  36.411   5.431
 4756POPC   GL161393  43.747  36.364   5.730
 4756POPC   GL261394  43.631  36.059   5.872
 4756POPC   C1A61395  43.873  36.378   6.202
 4756POPC   D2A61396  43.944  36.092   6.573
 4756POPC   C3A61397  43.913  36.187   7.019
 4756POPC   C4A61398  44.134  36.196   7.416
 4756POPC   C1B61399  43.527  36.035   6.291
 4756POPC   C2B61400  43.541  35.801   6.671
 4756POPC   C3B61401  43.467  35.924   7.066
 4756POPC   C4B61402  43.744  35.860   7.388
 4757POPC   NC361403  39.916  36.272   5.307
 4757POPC   PO461404  40.213  35.709   5.464
 4757POPC   GL161405  39.926  35.947   5.735
 4757POPC   GL261406  39.933  36.335   5.795
 4757POPC   C1A61407  40.036  35.980   6.156
 4757POPC   D2A61408  40.116  36.171   6.547
 4757POPC   C3A61409  39.966  36.016   6.934
 4757POPC   C4A61410  40.261  36.046   7.292
 4757POPC   C1B61411  39.777  36.420   6.192
 4757POPC   C2B61412  39.595  36.304   6.587
 4757POPC   C3B61413  39.618  36.506   6.980
 4757POPC   C4B61414  39.922  36.407   7.263
 4758POPC   NC361415  12.248   3.183   5.446
 4758POPC   PO461416  11.921   2.669   5.220
 4758POPC   GL161417  11.941   2.851   5.674
 4758POPC   GL261418  12.280   2.766   5.852
 4758POPC   C1A61419  11.961   3.108   6.080
 4758POPC   D2A61420  12.129   2.848   6.423
 4758POPC   C3A61421  11.993   2.909   6.834
 4758POPC   C4A61422  12.011   2.923   7.251
 4758POPC   C1B61423  12.603   2.692   6.222
 4758POPC   C2B61424  12.503   2.550   6.652
 4758POPC   C3B61425  12.113   2.406   6.832
 4758POPC   C4B61426  11.943   2.390   7.229
 4759POPC   NC361427  27.863   1.691   5.410
 4759POPC   PO461428  27.385   1.229   5.348
 4759POPC   GL161429  27.572   1.395   5.722
 4759POPC   GL261430  27.405   1.712   5.693
 4759POPC   C1A61431  27.645   1.212   6.156
 4759POPC   D2A61432  27.510   1.064   6.572
 4759POPC   C3A61433  27.764   1.200   6.931
 4759POPC   C4A61434  27.897   1.149   7.377
 4759POPC   C1B61435  27.239   1.533   6.096
 4759POPC   C2B61436  27.250   1.561   6.551
 4759POPC   C3B61437  27.471   1.624   6.944
 4759POPC   C4B61438  27.414   1.281   7.304
 4760POPC   NC361439  10.459  40.613   5.431
 4760POPC   PO461440  11.063  40.889   5.336
 4760POPC   GL161441  10.793  40.947   5.763
 4760POPC   GL261442  10.401  40.969   5.777
 4760POPC   C1A61443  10.670  40.749   6.196
 4760POPC   D2A61444  10.623  40.581   6.630
 4760POPC   C3A61445  10.694  40.837   6.979
 4760POPC   C4A61446  10.513  40.969   7.371
 4760POPC   C1B61447  10.180  40.760   6.079
 4760POPC   C2B61448  10.187  40.800   6.524
 4760POPC   C3B61449  10.217  40.691   6.942
 4760POPC   C4B61450  10.493  40.427   7.208
 4761POPC   NC361451  17.098  36.110   5.451
 4761POPC   PO461452  17.392  36.672   5.266
 4761POPC   GL161453  17.382  36.473   5.706
 4761POPC   GL261454  17.517  36.119   5.771
 4761POPC   C1A61455  17.168  36.325   6.102
 4761POPC   D2A61456  17.170  36.233   6.558
 4761POPC   C3A61457  17.428  36.353   6.925
 4761POPC   C4A61458  17.265  36.262   7.339
 4761POPC   C1B61459  17.570  36.024   6.250
 4761POPC   C2B61460  17.483  35.848   6.697
 4761POPC   C3B61461  17.620  35.925   7.152
 4761POPC   C4B61462  17.526  35.940   7.617
 4762POPC   NC361463  38.040  37.820   5.447
 4762POPC   PO461464  38.708  37.650   5.582
 4762POPC   GL161465  38.435  37.466   5.884
 4762POPC   GL261466  38.189  37.705   5.902
 4762POPC   C1A61467  38.416  37.542   6.324
 4762POPC   D2A61468  38.707  37.770   6.567
 4762POPC   C3A61469  38.664  37.661   6.986
 4762POPC   C4A61470  38.830  37.781   7.345
 4762POPC   C1B61471  38.034  37.973   6.186
 4762POPC   C2B61472  38.097  37.842   6.580
 4762POPC   C3B61473  38.140  37.611   6.946
 4762POPC   C4B61474  38.243  37.724   7.362
 4763POPC   NC361475  20.397  23.146   5.473
 4763POPC   PO461476  20.972  22.800   5.403
 4763POPC   GL161477  20.829  22.905   5.832
 4763POPC   GL261478  20.462  22.834   5.881
 4763POPC   C1A61479  20.803  22.815   6.300
 4763POPC   D2A61480  20.971  22.711   6.732
 4763POPC   C3A61481  20.890  22.994   7.081
 4763POPC   C4A61482  20.534  23.186   7.275
 4763POPC   C1B61483  20.272  22.736   6.285
 4763POPC   C2B61484  20.221  22.602   6.691
 4763POPC   C3B61485  20.451  22.730   7.034
 4763POPC   C4B61486  20.465  22.689   7.474
 4764POPC   NC361487  10.433  44.764   5.286
 4764POPC   PO461488   9.994  44.448   5.627
 4764POPC   GL161489  10.323  44.650   5.841
 4764POPC   GL261490  10.661  44.534   5.730
 4764POPC   C1A61491  10.220  44.667   6.283
 4764POPC   D2A61492  10.182  44.379   6.642
 4764POPC   C3A61493  10.382  44.580   6.966
 4764POPC   C4A61494  10.285  44.546   7.375
 4764POPC   C1B61495  10.742  44.927   5.997
 4764POPC   C2B61496  10.870   0.093   6.443
 4764POPC   C3B61497  10.946   0.017   6.900
 4764POPC   C4B61498  10.643  44.932   7.255
 4765POPC   NC361499   7.217  38.690   5.623
 4765POPC   PO461500   7.693  38.356   5.471
 4765POPC   GL161501   7.514  38.308   5.870
 4765POPC   GL261502   7.630  38.623   5.940
 4765POPC   C1A61503   7.650  38.282   6.315
 4765POPC   D2A61504   7.932  38.375   6.647
 4765POPC   C3A61505   7.633  38.442   6.974
 4765POPC   C4A61506   7.305  38.127   7.028
 4765POPC   C1B61507   7.357  38.756   6.272
 4765POPC   C2B61508   7.217  38.520   6.631
 4765POPC   C3B61509   7.130  38.613   7.069
 4765POPC   C4B61510   7.163  38.839   7.461
 4766POPC   NC361511  11.707   7.802   5.347
 4766POPC   PO461512  12.167   8.394   5.330
 4766POPC   GL161513  12.041   8.103   5.668
 4766POPC   GL261514  12.329   7.959   5.836
 4766POPC   C1A61515  11.800   8.050   6.058
 4766POPC   D2A61516  11.818   8.238   6.497
 4766POPC   C3A61517  11.928   8.271   6.947
 4766POPC   C4A61518  11.796   8.023   7.298
 4766POPC   C1B61519  12.244   7.951   6.280
 4766POPC   C2B61520  12.322   8.052   6.687
 4766POPC   C3B61521  12.231   7.865   7.075
 4766POPC   C4B61522  12.204   7.807   7.532
 4767POPC   NC361523  14.842  35.530   5.415
 4767POPC   PO461524  15.379  35.092   5.414
 4767POPC   GL161525  15.472  35.324   5.775
 4767POPC   GL261526  15.201  35.549   5.812
 4767POPC   C1A61527  15.318  35.199   6.170
 4767POPC   D2A61528  15.182  35.353   6.533
 4767POPC   C3A61529  15.341  35.271   6.932
 4767POPC   C4A61530  15.502  35.631   7.089
 4767POPC   C1B61531  14.833  35.373   6.069
 4767POPC   C2B61532  14.695  35.471   6.494
 4767POPC   C3B61533  14.861  35.481   6.927
 4767POPC   C4B61534  14.815  35.207   7.279
 4768POPC   NC361535   2.823  14.825   5.181
 4768POPC   PO461536   3.203  15.304   5.288
 4768POPC   GL161537   2.873  15.120   5.647
 4768POPC   GL261538   3.032  15.338   5.840
 4768POPC   C1A61539   2.641  15.217   6.108
 4768POPC   D2A61540   2.697  15.384   6.552
 4768POPC   C3A61541   2.484  15.201   6.909
 4768POPC   C4A61542   2.454  15.251   7.349
 4768POPC   C1B61543   3.105  15.032   6.223
 4768POPC   C2B61544   3.167  15.135   6.699
 4768POPC   C3B61545   2.962  15.121   7.128
 4768POPC   C4B61546   2.963  15.016   7.608
 4769POPC   NC361547   9.898   9.514   5.498
 4769POPC   PO461548   9.411   9.858   5.707
 4769POPC   GL161549   9.742   9.627   5.987
 4769POPC   GL261550   9.910   9.297   5.947
 4769POPC   C1A61551   9.714   9.469   6.420
 4769POPC   D2A61552   9.422   9.592   6.735
 4769POPC   C3A61553   9.534  10.015   6.929
 4769POPC   C4A61554   9.644  10.161   7.372
 4769POPC   C1B61555  10.078   9.115   6.305
 4769POPC   C2B61556  10.023   9.211   6.753
 4769POPC   C3B61557   9.860   9.593   6.993
 4769POPC   C4B61558   9.519   9.665   7.295
 4770POPC   NC361559   1.386   7.973   5.384
 4770POPC   PO461560   1.117   8.642   5.339
 4770POPC   GL161561   1.317   8.460   5.762
 4770POPC   GL261562   1.284   8.117   5.890
 4770POPC   C1A61563   1.536   8.378   6.212
 4770POPC   D2A61564   1.569   8.099   6.565
 4770POPC   C3A61565   1.413   8.174   6.949
 4770POPC   C4A61566   1.301   8.540   7.162
 4770POPC   C1B61567   1.067   8.137   6.290
 4770POPC   C2B61568   1.053   7.919   6.680
 4770POPC   C3B61569   0.925   8.019   7.104
 4770POPC   C4B61570   0.834   8.135   7.505
 4771POPC   NC361571   4.707  21.498   5.337
 4771POPC   PO461572   5.347  21.353   5.387
 4771POPC   GL161573   5.086  21.522   5.724
 4771POPC   GL261574   4.871  21.257   5.806
 4771POPC   C1A61575   4.902  21.629   6.154
 4771POPC   D2A61576   4.924  21.478   6.608
 4771POPC   C3A61577   5.346  21.538   6.804
 4771POPC   C4A61578   5.400  21.678   7.202
 4771POPC   C1B61579   5.063  21.143   6.234
 4771POPC   C2B61580   5.250  21.054   6.670
 4771POPC   C3B61581   5.258  21.135   7.158
 4771POPC   C4B61582   5.199  21.356   7.582
 4772POPC   NC361583   2.147  17.115   5.484
 4772POPC   PO461584   1.672  17.590   5.600
 4772POPC   GL161585   1.907  17.438   5.902
 4772POPC   GL261586   1.823  17.100   5.881
 4772POPC   C1A61587   1.873  17.495   6.356
 4772POPC   D2A61588   2.098  17.321   6.717
 4772POPC   C3A61589   1.852  17.399   7.067
 4772POPC   C4A61590   1.693  17.779   7.094
 4772POPC   C1B61591   2.162  17.115   6.196
 4772POPC   C2B61592   2.348  16.922   6.511
 4772POPC   C3B61593   2.514  17.024   6.870
 4772POPC   C4B61594   2.226  17.083   7.190
 4773POPC   NC361595  21.467  38.060   5.460
 4773POPC   PO461596  20.852  37.798   5.377
 4773POPC   GL161597  21.046  37.688   5.799
 4773POPC   GL261598  21.431  37.699   5.846
 4773POPC   C1A61599  21.128  37.484   6.223
 4773POPC   D2A61600  20.946  37.651   6.614
 4773POPC   C3A61601  21.213  37.749   6.965
 4773POPC   C4A61602  21.542  37.492   7.112
 4773POPC   C1B61603  21.682  37.871   6.219
 4773POPC   C2B61604  21.607  37.907   6.676
 4773POPC   C3B61605  21.644  38.036   7.119
 4773POPC   C4B61606  21.461  37.848   7.479
 4774POPC   NC361607  11.113  20.168   5.241
 4774POPC   PO461608  11.454  19.544   5.285
 4774POPC   GL161609  11.469  19.776   5.692
 4774POPC   GL261610  11.582  20.114   5.572
 4774POPC   C1A61611  11.442  19.698   6.184
 4774POPC   D2A61612  11.544  19.479   6.620
 4774POPC   C3A61613  11.305  19.591   7.020
 4774POPC   C4A61614  11.133  20.032   7.114
 4774POPC   C1B61615  11.477  20.184   6.035
 4774POPC   C2B61616  11.499  20.199   6.507
 4774POPC   C3B61617  11.621  19.993   6.920
 4774POPC   C4B61618  11.526  19.879   7.406
 4775POPC   NC361619  20.728  44.321   5.358
 4775POPC   PO461620  20.433  43.729   5.288
 4775POPC   GL161621  20.585  43.725   5.735
 4775POPC   GL261622  20.661  44.056   5.806
 4775POPC   C1A61623  20.747  43.697   6.180
 4775POPC   D2A61624  20.975  43.691   6.601
 4775POPC   C3A61625  20.852  43.505   6.992
 4775POPC   C4A61626  20.602  43.638   7.342
 4775POPC   C1B61627  20.717  44.243   6.214
 4775POPC   C2B61628  20.896  44.195   6.624
 4775POPC   C3B61629  20.736  44.030   6.987
 4775POPC   C4B61630  20.605  44.191   7.388
 4776POPC   NC361631  43.582  43.545   5.412
 4776POPC   PO461632  44.226  43.346   5.510
 4776POPC   GL161633  43.882  43.243   5.770
 4776POPC   GL261634  43.846  42.892   5.821
 4776POPC   C1A61635  43.829  43.373   6.196
 4776POPC   D2A61636  44.081  43.325   6.581
 4776POPC   C3A61637  43.889  43.458   6.971
 4776POPC   C4A61638  43.623  43.267   7.247
 4776POPC   C1B61639  43.760  42.860   6.224
 4776POPC   C2B61640  43.859  42.747   6.617
 4776POPC   C3B61641  44.000  42.944   6.979
 4776POPC   C4B61642  43.857  42.802   7.384
 4777POPC   NC361643   5.079   9.387   5.144
 4777POPC   PO461644   4.621   9.450   5.600
 4777POPC   GL161645   4.817   9.474   5.953
 4777POPC   GL261646   5.109   9.302   5.783
 4777POPC   C1A61647   4.969   9.825   6.245
 4777POPC   D2A61648   5.237  10.084   6.510
 4777POPC   C3A61649   5.134   9.988   6.923
 4777POPC   C4A61650   5.340   9.947   7.282
 4777POPC   C1B61651   5.222   9.383   6.220
 4777POPC   C2B61652   5.247   9.584   6.626
 4777POPC   C3B61653   5.024   9.507   7.029
 4777POPC   C4B61654   4.615   9.373   7.102
 4778POPC   NC361655  31.717  40.502   5.379
 4778POPC   PO461656  31.427  41.122   5.417
 4778POPC   GL161657  31.407  40.736   5.713
 4778POPC   GL261658  31.712  40.773   5.810
 4778POPC   C1A61659  31.382  40.496   6.135
 4778POPC   D2A61660  31.447  40.710   6.490
 4778POPC   C3A61661  31.355  40.580   6.898
 4778POPC   C4A61662  31.522  40.619   7.308
 4778POPC   C1B61663  31.812  41.026   6.153
 4778POPC   C2B61664  31.491  41.223   6.374
 4778POPC   C3B61665  31.382  41.142   6.779
 4778POPC   C4B61666  31.307  41.038   7.191
 4779POPC   NC361667   3.453  44.172   5.122
 4779POPC   PO461668   3.627  43.563   5.328
 4779POPC   GL161669   3.585  43.753   5.732
 4779POPC   GL261670   3.951  43.668   5.787
 4779POPC   C1A61671   3.349  43.676   6.146
 4779POPC   D2A61672   3.405  43.449   6.517
 4779POPC   C3A61673   3.348  43.640   6.888
 4779POPC   C4A61674   3.180  43.760   7.257
 4779POPC   C1B61675   3.826  43.877   6.171
 4779POPC   C2B61676   3.745  44.060   6.573
 4779POPC   C3B61677   3.905  43.977   6.943
 4779POPC   C4B61678   3.692  43.872   7.294
 4780POPC   NC361679   2.217  30.940   5.479
 4780POPC   PO461680   1.860  30.385   5.375
 4780POPC   GL161681   2.005  30.466   5.832
 4780POPC   GL261682   1.926  30.818   5.875
 4780POPC   C1A61683   2.214  30.420   6.276
 4780POPC   D2A61684   2.317  30.384   6.740
 4780POPC   C3A61685   1.979  30.588   6.951
 4780POPC   C4A61686   1.734  30.822   7.200
 4780POPC   C1B61687   2.258  30.911   6.164
 4780POPC   C2B61688   2.188  30.880   6.579
 4780POPC   C3B61689   2.400  30.866   6.947
 4780POPC   C4B61690   2.235  30.892   7.329
 4781POPC   NC361691   4.592  17.921   5.560
 4781POPC   PO461692   4.075  18.364   5.496
 4781POPC   GL161693   4.378  18.309   5.860
 4781POPC   GL261694   4.752  18.180   5.946
 4781POPC   C1A61695   4.319  18.202   6.282
 4781POPC   D2A61696   4.376  18.437   6.670
 4781POPC   C3A61697   4.267  18.171   6.998
 4781POPC   C4A61698   4.137  18.304   7.432
 4781POPC   C1B61699   4.808  18.325   6.347
 4781POPC   C2B61700   4.653  18.002   6.637
 4781POPC   C3B61701   4.784  17.897   7.038
 4781POPC   C4B61702   4.554  18.031   7.397
 4782POPC   NC361703  13.176  40.759   5.061
 4782POPC   PO461704  12.684  40.510   5.476
 4782POPC   GL161705  12.803  40.814   5.804
 4782POPC   GL261706  13.153  40.791   5.834
 4782POPC   C1A61707  12.920  41.014   6.228
 4782POPC   D2A61708  13.085  41.143   6.650
 4782POPC   C3A61709  12.850  40.975   6.992
 4782POPC   C4A61710  12.826  40.725   7.375
 4782POPC   C1B61711  13.075  40.514   6.170
 4782POPC   C2B61712  12.873  40.624   6.557
 4782POPC   C3B61713  12.810  40.443   6.916
 4782POPC   C4B61714  13.089  40.318   7.203
 4783POPC   NC361715   8.687  38.158   5.531
 4783POPC   PO461716   9.249  38.462   5.344
 4783POPC   GL161717   9.156  38.544   5.803
 4783POPC   GL261718   8.958  38.267   5.950
 4783POPC   C1A61719   9.121  38.617   6.269
 4783POPC   D2A61720   8.850  38.826   6.582
 4783POPC   C3A61721   8.944  38.723   7.022
 4783POPC   C4A61722   9.326  38.530   7.221
 4783POPC   C1B61723   8.686  38.369   6.326
 4783POPC   C2B61724   8.939  38.297   6.698
 4783POPC   C3B61725   8.898  38.220   7.133
 4783POPC   C4B61726   8.804  38.478   7.467
 4784POPC   NC361727   8.696  21.572   5.421
 4784POPC   PO461728   8.152  21.195   5.256
 4784POPC   GL161729   8.198  21.105   5.686
 4784POPC   GL261730   7.886  21.150   5.863
 4784POPC   C1A61731   8.334  21.330   6.056
 4784POPC   D2A61732   8.390  21.221   6.482
 4784POPC   C3A61733   8.325  21.460   6.856
 4784POPC   C4A61734   8.400  21.312   7.270
 4784POPC   C1B61735   7.984  20.979   6.290
 4784POPC   C2B61736   7.956  21.084   6.762
 4784POPC   C3B61737   7.848  21.183   7.218
 4784POPC   C4B61738   7.997  21.434   7.590
 4785POPC   NC361739  42.231  12.022   5.460
 4785POPC   PO461740  42.759  12.479   5.397
 4785POPC   GL161741  42.650  12.180   5.756
 4785POPC   GL261742  42.618  11.802   5.760
 4785POPC   C1A61743  42.381  12.103   6.148
 4785POPC   D2A61744  42.182  12.265   6.540
 4785POPC   C3A61745  42.375  12.141   6.933
 4785POPC   C4A61746  42.163  11.964   7.269
 4785POPC   C1B61747  42.560  11.619   6.219
 4785POPC   C2B61748  42.406  11.673   6.678
 4785POPC   C3B61749  42.653  11.712   7.075
 4785POPC   C4B61750  42.493  11.701   7.529
 4786POPC   NC361751   7.984  31.996   5.507
 4786POPC   PO461752   7.856  32.635   5.392
 4786POPC   GL161753   8.121  32.433   5.777
 4786POPC   GL261754   8.065  32.121   5.989
 4786POPC   C1A61755   8.306  32.579   6.178
 4786POPC   D2A61756   8.443  32.462   6.611
 4786POPC   C3A61757   8.141  32.354   6.971
 4786POPC   C4A61758   8.047  31.953   7.185
 4786POPC   C1B61759   8.463  32.071   6.199
 4786POPC   C2B61760   8.864  32.007   6.441
 4786POPC   C3B61761   8.783  32.124   6.862
 4786POPC   C4B61762   8.535  32.121   7.245
 4787POPC   NC361763  42.979  21.160   5.645
 4787POPC   PO461764  43.493  21.587   5.490
 4787POPC   GL161765  43.345  21.442   5.901
 4787POPC   GL261766  43.490  21.100   5.830
 4787POPC   C1A61767  43.009  21.377   6.275
 4787POPC   D2A61768  43.026  21.140   6.678
 4787POPC   C3A61769  43.039  21.427   7.032
 4787POPC   C4A61770  42.909  21.363   7.471
 4787POPC   C1B61771  43.431  21.110   6.285
 4787POPC   C2B61772  43.463  21.424   6.626
 4787POPC   C3B61773  43.508  21.238   7.028
 4787POPC   C4B61774  43.407  21.336   7.449
 4788POPC   NC361775   0.818   7.543   5.387
 4788POPC   PO461776   0.144   7.371   5.472
 4788POPC   GL161777   0.279   7.463   5.883
 4788POPC   GL261778   0.550   7.687   5.825
 4788POPC   C1A61779   0.357   7.489   6.329
 4788POPC   D2A61780   0.251   7.542   6.778
 4788POPC   C3A61781   0.300   7.223   7.041
 4788POPC   C4A61782   0.061   6.879   7.149
 4788POPC   C1B61783   0.810   7.710   6.191
 4788POPC   C2B61784   0.833   7.455   6.551
 4788POPC   C3B61785   0.745   7.559   6.967
 4788POPC   C4B61786   0.463   7.681   7.308
 4789POPC   NC361787  44.939  13.780   5.453
 4789POPC   PO461788  44.430  13.410   5.467
 4789POPC   GL161789  44.726  13.379   5.796
 4789POPC   GL261790  44.999  13.172   5.784
 4789POPC   C1A61791  44.665  13.440   6.233
 4789POPC   D2A61792  44.930  13.644   6.534
 4789POPC   C3A61793  44.738  13.697   6.916
 4789POPC   C4A61794  44.511  13.941   7.172
 4789POPC   C1B61795   0.157  13.321   6.195
 4789POPC   C2B61796   0.108  13.175   6.629
 4789POPC   C3B61797   0.093  13.328   7.061
 4789POPC   C4B61798  44.854  13.548   7.387
 4790POPC   NC361799   6.888  23.477   5.518
 4790POPC   PO461800   6.654  24.030   5.226
 4790POPC   GL161801   6.582  23.854   5.706
 4790POPC   GL261802   6.303  24.013   5.824
 4790POPC   C1A61803   6.811  23.769   6.153
 4790POPC   D2A61804   6.691  23.643   6.583
 4790POPC   C3A61805   6.762  23.704   7.047
 4790POPC   C4A61806   6.787  23.352   7.365
 4790POPC   C1B61807   6.400  24.025   6.271
 4790POPC   C2B61808   6.310  23.969   6.707
 4790POPC   C3B61809   6.430  24.142   7.087
 4790POPC   C4B61810   6.426  23.980   7.480
 4791POPC   NC361811   4.654  42.687   5.095
 4791POPC   PO461812   5.217  42.383   5.282
 4791POPC   GL161813   5.286  42.379   5.738
 4791POPC   GL261814   5.157  42.676   5.933
 4791POPC   C1A61815   5.256  42.227   6.173
 4791POPC   D2A61816   5.189  42.097   6.618
 4791POPC   C3A61817   5.252  42.396   6.980
 4791POPC   C4A61818   5.205  42.407   7.433
 4791POPC   C1B61819   4.852  42.537   6.287
 4791POPC   C2B61820   4.805  42.474   6.743
 4791POPC   C3B61821   4.885  42.710   7.137
 4791POPC   C4B61822   4.787  42.675   7.592
 4792POPC   NC361823  40.817  43.153   5.479
 4792POPC   PO461824  40.932  42.553   5.357
 4792POPC   GL161825  40.992  42.776   5.766
 4792POPC   GL261826  40.680  42.745   5.879
 4792POPC   C1A61827  40.892  43.164   6.121
 4792POPC   D2A61828  40.672  43.298   6.530
 4792POPC   C3A61829  40.801  43.140   6.951
 4792POPC   C4A61830  41.038  43.134   7.359
 4792POPC   C1B61831  40.497  42.876   6.246
 4792POPC   C2B61832  40.621  42.772   6.640
 4792POPC   C3B61833  40.397  42.709   6.978
 4792POPC   C4B61834  40.609  42.802   7.300
 4793POPC   NC361835  42.977  11.368   5.338
 4793POPC   PO461836  43.529  11.118   5.584
 4793POPC   GL161837  43.284  11.395   5.874
 4793POPC   GL261838  42.928  11.387   5.853
 4793POPC   C1A61839  43.109  11.484   6.313
 4793POPC   D2A61840  42.823  11.354   6.637
 4793POPC   C3A61841  43.090  11.435   6.980
 4793POPC   C4A61842  43.403  11.171   7.177
 4793POPC   C1B61843  42.862  11.055   6.182
 4793POPC   C2B61844  43.030  10.804   6.529
 4793POPC   C3B61845  43.018  10.924   6.955
 4793POPC   C4B61846  42.771  11.156   7.253
 4794POPC   NC361847  15.558  43.681   5.648
 4794POPC   PO461848  15.387  44.216   5.284
 4794POPC   GL161849  15.213  44.070   5.703
 4794POPC   GL261850  14.985  43.762   5.780
 4794POPC   C1A61851  15.321  44.005   6.151
 4794POPC   D2A61852  15.450  43.710   6.492
 4794POPC   C3A61853  15.165  43.858   6.802
 4794POPC   C4A61854  15.116  44.177   7.137
 4794POPC   C1B61855  15.054  43.528   6.192
 4794POPC   C2B61856  15.110  43.331   6.624
 4794POPC   C3B61857  15.429  43.399   6.944
 4794POPC   C4B61858  15.524  43.820   7.149
 4795POPC   NC361859  13.010   2.860   5.344
 4795POPC   PO461860  12.605   3.185   5.735
 4795POPC   GL161861  13.008   2.995   5.857
 4795POPC   GL261862  13.114   2.631   5.789
 4795POPC   C1A61863  13.036   3.008   6.296
 4795POPC   D2A61864  12.702   3.030   6.625
 4795POPC   C3A61865  12.776   2.878   7.029
 4795POPC   C4A61866  12.422   2.676   7.158
 4795POPC   C1B61867  13.157   2.494   6.209
 4795POPC   C2B61868  13.032   2.615   6.623
 4795POPC   C3B61869  13.040   2.449   7.009
 4795POPC   C4B61870  13.239   2.564   7.395
 4796POPC   NC361871  40.096   3.252   5.422
 4796POPC   PO461872  39.707   3.803   5.339
 4796POPC   GL161873  39.744   3.555   5.695
 4796POPC   GL261874  40.083   3.619   5.761
 4796POPC   C1A61875  39.781   3.596   6.165
 4796POPC   D2A61876  40.101   3.466   6.450
 4796POPC   C3A61877  40.023   3.619   6.865
 4796POPC   C4A61878  39.738   3.632   7.200
 4796POPC   C1B61879  40.294   3.867   6.037
 4796POPC   C2B61880  40.322   3.955   6.472
 4796POPC   C3B61881  40.389   3.975   6.916
 4796POPC   C4B61882  40.160   3.897   7.297
 4797POPC   NC361883   6.506  10.408   5.210
 4797POPC   PO461884   6.939  10.771   5.580
 4797POPC   GL161885   6.671  10.647   5.876
 4797POPC   GL261886   6.519  10.326   5.781
 4797POPC   C1A61887   6.749  10.459   6.254
 4797POPC   D2A61888   6.578  10.269   6.583
 4797POPC   C3A61889   6.735  10.423   6.942
 4797POPC   C4A61890   6.809  10.461   7.370
 4797POPC   C1B61891   6.338  10.039   6.097
 4797POPC   C2B61892   6.281   9.865   6.513
 4797POPC   C3B61893   6.146  10.115   6.873
 4797POPC   C4B61894   6.342  10.281   7.224
 4798POPC   NC361895  13.562  15.504   5.364
 4798POPC   PO461896  13.293  14.920   5.257
 4798POPC   GL161897  13.495  15.053   5.748
 4798POPC   GL261898  13.679  15.378   5.842
 4798POPC   C1A61899  13.765  15.007   6.173
 4798POPC   D2A61900  13.885  15.154   6.599
 4798POPC   C3A61901  13.696  15.107   7.010
 4798POPC   C4A61902  13.416  14.887   7.293
 4798POPC   C1B61903  13.452  15.376   6.272
 4798POPC   C2B61904  13.435  15.471   6.729
 4798POPC   C3B61905  13.336  15.430   7.184
 4798POPC   C4B61906  13.594  15.287   7.537
 4799POPC   NC361907   7.035  30.380   5.447
 4799POPC   PO461908   7.653  30.579   5.373
 4799POPC   GL161909   7.348  30.789   5.618
 4799POPC   GL261910   7.340  30.509   5.840
 4799POPC   C1A61911   7.341  30.977   6.047
 4799POPC   D2A61912   7.315  30.955   6.487
 4799POPC   C3A61913   7.628  30.799   6.760
 4799POPC   C4A61914   7.480  30.845   7.154
 4799POPC   C1B61915   7.545  30.534   6.243
 4799POPC   C2B61916   7.271  30.428   6.557
 4799POPC   C3B61917   7.337  30.379   6.940
 4799POPC   C4B61918   7.690  30.349   7.195
 4800POPC   NC361919  10.064  19.225   5.368
 4800POPC   PO461920   9.475  19.009   5.497
 4800POPC   GL161921   9.507  19.096   5.898
 4800POPC   GL261922   9.299  19.355   5.910
 4800POPC   C1A61923   9.747  19.196   6.261
 4800POPC   D2A61924   9.691  19.293   6.692
 4800POPC   C3A61925  10.071  19.276   6.920
 4800POPC   C4A61926  10.140  19.245   7.386
 4800POPC   C1B61927   9.279  19.356   6.361
 4800POPC   C2B61928   9.302  18.965   6.594
 4800POPC   C3B61929   9.490  18.841   6.983
 4800POPC   C4B61930   9.676  19.164   7.202
 4801POPC   NC361931  22.943  34.562   5.320
 4801POPC   PO461932  22.500  34.972   5.541
 4801POPC   GL161933  22.816  34.827   5.867
 4801POPC   GL261934  23.017  34.509   5.839
 4801POPC   C1A61935  23.022  34.759   6.305
 4801POPC   D2A61936  22.968  34.497   6.726
 4801POPC   C3A61937  23.083  34.687   7.135
 4801POPC   C4A61938  22.932  34.947   7.496
 4801POPC   C1B61939  23.040  34.246   6.234
 4801POPC   C2B61940  22.759  34.057   6.548
 4801POPC   C3B61941  22.655  34.119   6.990
 4801POPC   C4B61942  23.041  34.178   7.209
 4802POPC   NC361943   2.249   4.402   5.565
 4802POPC   PO461944   1.555   4.545   5.518
 4802POPC   GL161945   1.810   4.466   5.838
 4802POPC   GL261946   1.800   4.119   5.768
 4802POPC   C1A61947   2.057   4.420   6.207
 4802POPC   D2A61948   2.053   4.623   6.576
 4802POPC   C3A61949   2.113   4.342   6.911
 4802POPC   C4A61950   2.159   4.402   7.327
 4802POPC   C1B61951   1.767   3.998   6.210
 4802POPC   C2B61952   1.958   3.914   6.628
 4802POPC   C3B61953   1.779   3.945   7.045
 4802POPC   C4B61954   1.622   4.153   7.406
 4803POPC   NC361955  31.337   1.370   5.438
 4803POPC   PO461956  31.853   0.930   5.435
 4803POPC   GL161957  31.500   0.980   5.737
 4803POPC   GL261958  31.688   1.272   5.817
 4803POPC   C1A61959  31.375   1.103   6.199
 4803POPC   D2A61960  31.552   1.234   6.622
 4803POPC   C3A61961  31.350   1.199   6.987
 4803POPC   C4A61962  31.522   0.936   7.299
 4803POPC   C1B61963  31.846   1.330   6.227
 4803POPC   C2B61964  31.749   1.690   6.496
 4803POPC   C3B61965  31.742   1.708   6.926
 4803POPC   C4B61966  31.808   1.354   7.137
 4804POPC   NC361967   5.674   2.976   5.411
 4804POPC   PO461968   4.973   2.776   5.421
 4804POPC   GL161969   5.067   2.814   5.831
 4804POPC   GL261970   4.720   2.745   5.915
 4804POPC   C1A61971   5.292   2.513   6.109
 4804POPC   D2A61972   5.369   2.342   6.525
 4804POPC   C3A61973   5.266   2.668   6.791
 4804POPC   C4A61974   5.530   2.735   7.133
 4804POPC   C1B61975   4.920   2.799   6.328
 4804POPC   C2B61976   4.986   3.080   6.684
 4804POPC   C3B61977   4.707   3.103   7.051
 4804POPC   C4B61978   4.800   2.814   7.397
 4805POPC   NC361979   4.439  39.557   5.529
 4805POPC   PO461980   3.906  39.116   5.385
 4805POPC   GL161981   4.061  39.232   5.772
 4805POPC   GL261982   4.357  39.016   5.845
 4805POPC   C1A61983   4.215  39.402   6.178
 4805POPC   D2A61984   4.556  39.229   6.462
 4805POPC   C3A61985   4.679  39.368   6.903
 4805POPC   C4A61986   4.479  39.464   7.339
 4805POPC   C1B61987   4.115  38.897   6.220
 4805POPC   C2B61988   4.053  39.135   6.597
 4805POPC   C3B61989   4.162  39.302   6.984
 4805POPC   C4B61990   4.117  39.101   7.410
 4806POPC   NC361991  42.415  28.274   5.393
 4806POPC   PO461992  41.852  28.645   5.279
 4806POPC   GL161993  42.148  28.508   5.737
 4806POPC   GL261994  42.583  28.393   5.836
 4806POPC   C1A61995  42.171  28.161   6.049
 4806POPC   D2A61996  42.085  27.905   6.410
 4806POPC   C3A61997  42.008  28.164   6.776
 4806POPC   C4A61998  42.027  28.341   7.177
 4806POPC   C1B61999  42.463  28.563   6.177
 4806POPC   C2B62000  42.445  28.323   6.515
 4806POPC   C3B62001  42.466  28.427   6.906
 4806POPC   C4B62002  42.488  28.494   7.309
 4807POPC   NC362003  23.488  15.276   5.422
 4807POPC   PO462004  24.158  15.232   5.322
 4807POPC   GL162005  23.897  15.224   5.702
 4807POPC   GL262006  23.737  15.548   5.777
 4807POPC   C1A62007  23.647  15.094   6.072
 4807POPC   D2A62008  23.460  15.153   6.504
 4807POPC   C3A62009  23.608  15.002   6.899
 4807POPC   C4A62010  23.611  15.238   7.254
 4807POPC   C1B62011  23.593  15.580   6.209
 4807POPC   C2B62012  23.825  15.569   6.565
 4807POPC   C3B62013  23.998  15.434   6.930
 4807POPC   C4B62014  23.978  15.616   7.320
 4808POPC   NC362015  12.309  24.001   5.429
 4808POPC   PO462016  11.867  23.451   5.209
 4808POPC   GL162017  11.992  23.639   5.659
 4808POPC   GL262018  12.362  23.559   5.731
 4808POPC   C1A62019  12.067  23.761   6.131
 4808POPC   D2A62020  11.960  23.810   6.611
 4808POPC   C3A62021  11.986  23.508   6.976
 4808POPC   C4A62022  12.054  23.938   7.141
 4808POPC   C1B62023  12.287  23.300   6.116
 4808POPC   C2B62024  12.274  23.418   6.558
 4808POPC   C3B62025  12.442  23.679   6.911
 4808POPC   C4B62026  12.347  23.517   7.352
 4809POPC   NC362027   2.733  23.016   5.210
 4809POPC   PO462028   2.787  22.534   5.613
 4809POPC   GL162029   2.879  22.979   5.749
 4809POPC   GL262030   2.538  23.089   5.680
 4809POPC   C1A62031   2.966  23.052   6.203
 4809POPC   D2A62032   2.809  22.679   6.464
 4809POPC   C3A62033   2.661  22.728   6.895
 4809POPC   C4A62034   2.973  22.889   7.172
 4809POPC   C1B62035   2.465  22.956   6.108
 4809POPC   C2B62036   2.526  23.124   6.529
 4809POPC   C3B62037   2.376  23.158   6.959
 4809POPC   C4B62038   2.544  23.146   7.358
 4810POPC   NC362039  37.393  21.124   5.176
 4810POPC   PO462040  37.808  21.605   5.432
 4810POPC   GL162041  37.748  21.344   5.821
 4810POPC   GL262042  37.417  21.402   6.010
 4810POPC   C1A62043  37.852  21.225   6.252
 4810POPC   D2A62044  37.823  21.079   6.676
 4810POPC   C3A62045  37.600  21.252   6.995
 4810POPC   C4A62046  37.686  21.395   7.412
 4810POPC   C1B62047  37.632  21.681   6.313
 4810POPC   C2B62048  37.796  21.655   6.716
 4810POPC   C3B62049  37.641  21.809   7.119
 4810POPC   C4B62050  37.532  21.841   7.583
 4811POPC   NC362051  21.047  31.349   5.419
 4811POPC   PO462052  21.608  31.171   5.483
 4811POPC   GL162053  21.632  31.371   5.890
 4811POPC   GL262054  21.258  31.335   5.897
 4811POPC   C1A62055  21.782  31.340   6.346
 4811POPC   D2A62056  21.734  31.128   6.767
 4811POPC   C3A62057  21.586  31.425   7.117
 4811POPC   C4A62058  21.569  31.871   7.242
 4811POPC   C1B62059  21.292  31.165   6.309
 4811POPC   C2B62060  21.258  31.344   6.737
 4811POPC   C3B62061  21.079  31.633   7.081
 4811POPC   C4B62062  21.094  31.995   7.397
 4812POPC   NC362063  13.388  31.345   5.346
 4812POPC   PO462064  13.895  31.608   5.182
 4812POPC   GL162065  13.760  31.558   5.645
 4812POPC   GL262066  13.858  31.209   5.613
 4812POPC   C1A62067  13.479  31.684   6.038
 4812POPC   D2A62068  13.458  31.480   6.469
 4812POPC   C3A62069  13.574  31.641   6.907
 4812POPC   C4A62070  13.610  31.460   7.260
 4812POPC   C1B62071  13.729  31.207   6.055
 4812POPC   C2B62072  13.719  31.043   6.475
 4812POPC   C3B62073  13.761  31.124   6.889
 4812POPC   C4B62074  13.946  31.062   7.269
 4813POPC   NC362075  15.291  29.356   5.237
 4813POPC   PO462076  15.385  28.957   5.757
 4813POPC   GL162077  15.062  29.242   5.823
 4813POPC   GL262078  15.142  29.570   5.838
 4813POPC   C1A62079  14.929  29.333   6.247
 4813POPC   D2A62080  15.148  29.173   6.610
 4813POPC   C3A62081  14.956  29.013   6.997
 4813POPC   C4A62082  15.082  29.088   7.457
 4813POPC   C1B62083  15.434  29.444   6.231
 4813POPC   C2B62084  15.598  29.476   6.670
 4813POPC   C3B62085  15.423  29.251   7.054
 4813POPC   C4B62086  15.480  29.446   7.473
 4814POPC   NC362087  43.477  10.663   5.457
 4814POPC   PO462088  42.782  10.661   5.256
 4814POPC   GL162089  43.027  10.663   5.729
 4814POPC   GL262090  43.189  10.897   5.855
 4814POPC   C1A62091  43.275  10.495   6.143
 4814POPC   D2A62092  43.380  10.343   6.587
 4814POPC   C3A62093  43.034  10.412   6.896
 4814POPC   C4A62094  42.897  10.315   7.334
 4814POPC   C1B62095  43.407  11.028   6.238
 4814POPC   C2B62096  43.552  10.852   6.620
 4814POPC   C3B62097  43.468  10.678   7.010
 4814POPC   C4B62098  43.248  10.669   7.398
 4815POPC   NC362099  24.449  23.276   5.401
 4815POPC   PO462100  24.734  22.740   5.513
 4815POPC   GL162101  24.417  22.910   5.769
 4815POPC   GL262102  24.573  23.184   5.931
 4815POPC   C1A62103  24.362  22.786   6.188
 4815POPC   D2A62104  24.438  23.108   6.501
 4815POPC   C3A62105  24.710  23.072   6.847
 4815POPC   C4A62106  24.542  22.926   7.237
 4815POPC   C1B62107  24.131  23.256   6.110
 4815POPC   C2B62108  23.928  23.220   6.545
 4815POPC   C3B62109  24.143  23.192   6.967
 4815POPC   C4B62110  24.255  23.313   7.408
 4816POPC   NC362111   4.212  44.220   5.403
 4816POPC   PO462112   4.529  43.771   5.563
 4816POPC   GL162113   4.460  43.954   5.926
 4816POPC   GL262114   4.163  44.114   5.891
 4816POPC   C1A62115   4.332  43.977   6.342
 4816POPC   D2A62116   4.374  43.714   6.645
 4816POPC   C3A62117   4.429  43.889   7.016
 4816POPC   C4A62118   4.187  43.677   7.288
 4816POPC   C1B62119   3.989  44.362   6.236
 4816POPC   C2B62120   4.155  44.375   6.655
 4816POPC   C3B62121   4.217  44.355   7.072
 4816POPC   C4B62122   4.106  44.160   7.406
 4817POPC   NC362123   9.956   5.884   5.416
 4817POPC   PO462124   9.919   6.484   5.094
 4817POPC   GL162125   9.748   6.330   5.541
 4817POPC   GL262126  10.003   6.229   5.825
 4817POPC   C1A62127   9.547   6.140   5.960
 4817POPC   D2A62128   9.689   6.149   6.407
 4817POPC   C3A62129   9.471   5.891   6.688
 4817POPC   C4A62130   9.557   5.806   7.105
 4817POPC   C1B62131   9.982   5.830   6.132
 4817POPC   C2B62132   9.901   5.615   6.575
 4817POPC   C3B62133   9.883   5.413   7.026
 4817POPC   C4B62134   9.719   5.526   7.495
 4818POPC   NC362135   2.792  20.069   5.443
 4818POPC   PO462136   2.531  19.428   5.587
 4818POPC   GL162137   2.765  19.694   5.896
 4818POPC   GL262138   2.943  20.026   5.911
 4818POPC   C1A62139   2.603  19.904   6.282
 4818POPC   D2A62140   2.702  20.164   6.637
 4818POPC   C3A62141   2.522  19.950   6.986
 4818POPC   C4A62142   2.334  19.560   7.141
 4818POPC   C1B62143   3.141  19.848   6.263
 4818POPC   C2B62144   3.067  19.794   6.684
 4818POPC   C3B62145   3.030  19.982   7.065
 4818POPC   C4B62146   2.780  19.901   7.437
 4819POPC   NC362147  16.074   1.000   5.332
 4819POPC   PO462148  16.295   1.701   5.371
 4819POPC   GL162149  16.092   1.471   5.740
 4819POPC   GL262150  15.925   1.134   5.801
 4819POPC   C1A62151  15.964   1.480   6.181
 4819POPC   D2A62152  16.154   1.384   6.583
 4819POPC   C3A62153  15.890   1.426   6.954
 4819POPC   C4A62154  16.140   1.291   7.300
 4819POPC   C1B62155  16.284   0.944   6.050
 4819POPC   C2B62156  16.421   0.948   6.499
 4819POPC   C3B62157  16.141   0.941   6.896
 4819POPC   C4B62158  15.737   0.945   7.159
 4820POPC   NC362159  44.352  44.824   5.575
 4820POPC   PO462160  44.873  44.608   5.153
 4820POPC   GL162161  44.846  44.711   5.645
 4820POPC   GL262162  44.973  44.998   5.811
 4820POPC   C1A62163  44.738  44.657   6.124
 4820POPC   D2A62164  44.843  44.421   6.523
 4820POPC   C3A62165  44.691  44.581   6.939
 4820POPC   C4A62166  44.441  44.508   7.309
 4820POPC   C1B62167  44.987   0.105   6.240
 4820POPC   C2B62168  44.712  44.939   6.560
 4820POPC   C3B62169  44.585   0.118   6.916
 4820POPC   C4B62170  44.630   0.001   7.309
 4821POPC   NC362171  41.026  16.361   5.304
 4821POPC   PO462172  40.591  16.899   5.300
 4821POPC   GL162173  40.672  16.635   5.709
 4821POPC   GL262174  41.021  16.592   5.824
 4821POPC   C1A62175  40.607  16.551   6.173
 4821POPC   D2A62176  40.867  16.615   6.528
 4821POPC   C3A62177  40.822  16.485   6.946
 4821POPC   C4A62178  40.638  16.697   7.277
 4821POPC   C1B62179  41.276  16.657   6.204
 4821POPC   C2B62180  41.349  16.887   6.583
 4821POPC   C3B62181  41.183  16.849   7.010
 4821POPC   C4B62182  41.106  16.633   7.422
 4822POPC   NC362183   4.953   2.296   5.540
 4822POPC   PO462184   5.486   1.911   5.473
 4822POPC   GL162185   5.159   1.873   5.794
 4822POPC   GL262186   4.909   1.601   5.788
 4822POPC   C1A62187   5.140   2.012   6.213
 4822POPC   D2A62188   5.033   1.883   6.625
 4822POPC   C3A62189   5.192   2.100   6.966
 4822POPC   C4A62190   5.093   2.453   7.208
 4822POPC   C1B62191   4.731   1.712   6.224
 4822POPC   C2B62192   4.552   1.712   6.670
 4822POPC   C3B62193   4.703   1.843   7.090
 4822POPC   C4B62194   4.958   2.011   7.415
 4823POPC   NC362195  13.976  42.625   5.290
 4823POPC   PO462196  13.571  43.199   5.190
 4823POPC   GL162197  13.630  43.156   5.737
 4823POPC   GL262198  13.838  42.903   5.823
 4823POPC   C1A62199  13.537  42.973   6.234
 4823POPC   D2A62200  13.640  42.728   6.635
 4823POPC   C3A62201  13.765  42.900   7.050
 4823POPC   C4A62202  13.639  43.300   7.254
 4823POPC   C1B62203  13.952  43.234   6.161
 4823POPC   C2B62204  13.844  43.264   6.616
 4823POPC   C3B62205  14.084  43.314   7.019
 4823POPC   C4B62206  14.082  43.440   7.498
 4824POPC   NC362207  22.698  30.797   5.561
 4824POPC   PO462208  22.023  30.755   5.306
 4824POPC   GL162209  22.026  30.509   5.688
 4824POPC   GL262210  22.374  30.402   5.697
 4824POPC   C1A62211  22.195  30.586   6.139
 4824POPC   D2A62212  22.462  30.704   6.498
 4824POPC   C3A62213  22.172  30.818   6.819
 4824POPC   C4A62214  22.121  30.662   7.220
 4824POPC   C1B62215  22.631  30.309   6.082
 4824POPC   C2B62216  22.704  30.240   6.533
 4824POPC   C3B62217  22.488  30.379   6.909
 4824POPC   C4B62218  22.608  30.386   7.321
 4825POPC   NC362219   5.745   8.752   5.535
 4825POPC   PO462220   6.214   9.290   5.393
 4825POPC   GL162221   6.049   9.145   5.785
 4825POPC   GL262222   6.195   8.795   5.767
 4825POPC   C1A62223   5.688   9.199   6.111
 4825POPC   D2A62224   5.542   9.173   6.559
 4825POPC   C3A62225   5.698   9.027   6.932
 4825POPC   C4A62226   5.875   9.231   7.276
 4825POPC   C1B62227   5.978   8.803   6.170
 4825POPC   C2B62228   6.051   9.016   6.548
 4825POPC   C3B62229   6.232   9.062   6.956
 4825POPC   C4B62230   6.324   9.048   7.436
 4826POPC   NC362231   0.426   5.248   5.422
 4826POPC   PO462232   0.970   4.783   5.371
 4826POPC   GL162233   0.708   4.909   5.725
 4826POPC   GL262234   0.348   4.858   5.782
 4826POPC   C1A62235   0.700   5.076   6.132
 4826POPC   D2A62236   0.711   5.174   6.549
 4826POPC   C3A62237   0.651   4.780   6.772
 4826POPC   C4A62238   0.416   4.915   7.103
 4826POPC   C1B62239   0.164   5.014   6.181
 4826POPC   C2B62240   0.172   4.875   6.619
 4826POPC   C3B62241  44.950   4.737   6.989
 4826POPC   C4B62242  44.967   4.782   7.443
 4827POPC   NC362243  27.882  23.903   5.427
 4827POPC   PO462244  27.364  23.498   5.576
 4827POPC   GL162245  27.648  23.597   5.887
 4827POPC   GL262246  27.582  23.946   5.842
 4827POPC   C1A62247  27.825  23.498   6.317
 4827POPC   D2A62248  27.833  23.410   6.790
 4827POPC   C3A62249  27.701  23.145   7.156
 4827POPC   C4A62250  27.469  23.229   7.544
 4827POPC   C1B62251  27.508  23.945   6.260
 4827POPC   C2B62252  27.641  23.858   6.658
 4827POPC   C3B62253  27.599  23.788   7.105
 4827POPC   C4B62254  27.874  24.011   7.368
 4828POPC   NC362255   5.818  25.695   5.431
 4828POPC   PO462256   6.109  25.080   5.190
 4828POPC   GL162257   6.041  25.213   5.655
 4828POPC   GL262258   5.717  25.299   5.799
 4828POPC   C1A62259   6.191  25.195   6.111
 4828POPC   D2A62260   6.344  24.942   6.491
 4828POPC   C3A62261   6.246  25.096   6.944
 4828POPC   C4A62262   5.959  25.334   7.243
 4828POPC   C1B62263   5.629  25.589   6.180
 4828POPC   C2B62264   5.713  25.753   6.640
 4828POPC   C3B62265   5.539  25.589   7.069
 4828POPC   C4B62266   5.484  25.116   7.194
 4829POPC   NC362267   5.842   3.714   5.603
 4829POPC   PO462268   6.089   3.177   5.253
 4829POPC   GL162269   5.997   3.271   5.796
 4829POPC   GL262270   5.683   3.404   6.054
 4829POPC   C1A62271   6.126   3.477   6.237
 4829POPC   D2A62272   5.819   3.551   6.567
 4829POPC   C3A62273   6.019   3.510   6.950
 4829POPC   C4A62274   5.870   3.500   7.351
 4829POPC   C1B62275   5.584   3.836   6.205
 4829POPC   C2B62276   5.550   4.024   6.624
 4829POPC   C3B62277   5.567   3.756   6.999
 4829POPC   C4B62278   5.356   3.539   7.337
 4830POPC   NC362279  41.183  25.485   5.234
 4830POPC   PO462280  40.662  25.080   5.151
 4830POPC   GL162281  40.729  25.135   5.657
 4830POPC   GL262282  41.099  25.177   5.696
 4830POPC   C1A62283  40.696  25.306   6.144
 4830POPC   D2A62284  40.454  25.218   6.572
 4830POPC   C3A62285  40.682  25.327   6.960
 4830POPC   C4A62286  41.055  25.448   7.216
 4830POPC   C1B62287  41.141  25.062   6.148
 4830POPC   C2B62288  40.902  25.000   6.551
 4830POPC   C3B62289  41.048  24.992   6.975
 4830POPC   C4B62290  41.232  24.883   7.357
 4831POPC   NC362291   9.811  35.865   5.387
 4831POPC   PO462292  10.150  36.434   5.538
 4831POPC   GL162293   9.742  36.256   5.786
 4831POPC   GL262294   9.798  35.913   5.899
 4831POPC   C1A62295   9.466  36.160   6.205
 4831POPC   D2A62296   9.573  36.291   6.670
 4831POPC   C3A62297   9.804  36.031   7.016
 4831POPC   C4A62298   9.839  36.020   7.494
 4831POPC   C1B62299   9.959  36.190   6.255
 4831POPC   C2B62300  10.223  36.012   6.569
 4831POPC   C3B62301  10.284  35.879   6.969
 4831POPC   C4B62302  10.269  36.173   7.283
 4832POPC   NC362303  43.532  42.554   5.537
 4832POPC   PO462304  42.970  42.449   5.083
 4832POPC   GL162305  43.056  42.296   5.578
 4832POPC   GL262306  43.377  42.082   5.659
 4832POPC   C1A62307  43.174  42.448   6.055
 4832POPC   D2A62308  43.346  42.654   6.465
 4832POPC   C3A62309  43.096  42.572   6.843
 4832POPC   C4A62310  43.249  42.541   7.262
 4832POPC   C1B62311  43.321  41.933   6.089
 4832POPC   C2B62312  43.244  42.135   6.490
 4832POPC   C3B62313  43.238  42.097   6.941
 4832POPC   C4B62314  43.483  41.841   7.187
 4833POPC   NC362315  42.580  12.959   5.420
 4833POPC   PO462316  41.962  12.903   5.539
 4833POPC   GL162317  42.266  12.781   5.793
 4833POPC   GL262318  42.367  13.101   5.880
 4833POPC   C1A62319  42.294  12.694   6.225
 4833POPC   D2A62320  42.098  12.766   6.610
 4833POPC   C3A62321  42.369  12.653   6.915
 4833POPC   C4A62322  42.300  12.623   7.344
 4833POPC   C1B62323  42.179  13.196   6.290
 4833POPC   C2B62324  42.122  13.257   6.727
 4833POPC   C3B62325  42.217  13.103   7.100
 4833POPC   C4B62326  42.442  13.089   7.497
 4834POPC   NC362327   6.004  16.115   5.460
 4834POPC   PO462328   5.420  15.854   5.464
 4834POPC   GL162329   5.597  15.918   5.829
 4834POPC   GL262330   5.511  16.274   5.834
 4834POPC   C1A62331   5.838  15.703   6.170
 4834POPC   D2A62332   6.204  15.782   6.468
 4834POPC   C3A62333   6.122  15.692   6.918
 4834POPC   C4A62334   6.066  16.036   7.206
 4834POPC   C1B62335   5.567  16.134   6.282
 4834POPC   C2B62336   5.686  15.932   6.671
 4834POPC   C3B62337   5.634  16.218   7.027
 4834POPC   C4B62338   5.673  16.161   7.480
 4835POPC   NC362339  11.762  41.952   5.534
 4835POPC   PO462340  12.196  41.383   5.473
 4835POPC   GL162341  12.055  41.644   5.825
 4835POPC   GL262342  12.365  41.846   5.816
 4835POPC   C1A62343  11.832  41.597   6.246
 4835POPC   D2A62344  11.948  41.407   6.633
 4835POPC   C3A62345  11.765  41.540   7.030
 4835POPC   C4A62346  11.858  41.702   7.419
 4835POPC   C1B62347  12.248  41.860   6.274
 4835POPC   C2B62348  12.380  41.659   6.666
 4835POPC   C3B62349  12.269  41.694   7.087
 4835POPC   C4B62350  12.275  42.046   7.359
 4836POPC   NC362351   3.190  43.384   5.383
 4836POPC   PO462352   3.037  44.071   5.345
 4836POPC   GL162353   2.836  43.900   5.702
 4836POPC   GL262354   3.091  44.012   5.883
 4836POPC   C1A62355   2.811  43.586   6.051
 4836POPC   D2A62356   2.934  43.639   6.488
 4836POPC   C3A62357   2.667  43.600   6.844
 4836POPC   C4A62358   2.657  43.708   7.268
 4836POPC   C1B62359   2.810  44.068   6.222
 4836POPC   C2B62360   2.630  44.063   6.615
 4836POPC   C3B62361   2.851  44.091   6.995
 4836POPC   C4B62362   2.707  44.264   7.369
 4837POPC   NC362363  25.575   9.750   5.580
 4837POPC   PO462364  26.119   9.609   5.430
 4837POPC   GL162365  26.008   9.571   5.844
 4837POPC   GL262366  26.259   9.785   5.963
 4837POPC   C1A62367  25.823   9.559   6.266
 4837POPC   D2A62368  25.978   9.416   6.675
 4837POPC   C3A62369  25.887   9.596   7.088
 4837POPC   C4A62370  26.252   9.666   7.400
 4837POPC   C1B62371  26.315   9.687   6.409
 4837POPC   C2B62372  26.283   9.820   6.857
 4837POPC   C3B62373  26.093  10.090   7.191
 4837POPC   C4B62374  25.938  10.040   7.631
 4838POPC   NC362375   1.350  23.132   5.022
 4838POPC   PO462376   1.984  23.002   5.303
 4838POPC   GL162377   2.028  23.033   5.759
 4838POPC   GL262378   1.866  23.363   5.768
 4838POPC   C1A62379   1.964  22.821   6.158
 4838POPC   D2A62380   1.912  22.554   6.517
 4838POPC   C3A62381   1.977  22.801   6.879
 4838POPC   C4A62382   2.199  22.771   7.254
 4838POPC   C1B62383   2.110  23.350   6.165
 4838POPC   C2B62384   2.017  23.223   6.582
 4838POPC   C3B62385   1.865  23.270   7.026
 4838POPC   C4B62386   2.001  23.197   7.484
 4839POPC   NC362387   2.455  21.824   5.659
 4839POPC   PO462388   2.952  21.943   5.239
 4839POPC   GL162389   2.935  21.985   5.754
 4839POPC   GL262390   3.209  21.793   5.831
 4839POPC   C1A62391   2.709  22.055   6.216
 4839POPC   D2A62392   2.481  21.937   6.633
 4839POPC   C3A62393   2.594  22.112   7.068
 4839POPC   C4A62394   2.551  22.017   7.541
 4839POPC   C1B62395   3.209  22.035   6.230
 4839POPC   C2B62396   3.159  22.291   6.600
 4839POPC   C3B62397   3.023  22.366   7.025
 4839POPC   C4B62398   3.027  22.012   7.348
 4840POPC   NC362399  22.540  35.435   5.577
 4840POPC   PO462400  21.884  35.351   5.346
 4840POPC   GL162401  21.962  35.374   5.831
 4840POPC   GL262402  22.247  35.196   5.924
 4840POPC   C1A62403  21.963  35.320   6.326
 4840POPC   D2A62404  22.351  35.214   6.544
 4840POPC   C3A62405  22.380  35.348   6.981
 4840POPC   C4A62406  22.065  35.420   7.354
 4840POPC   C1B62407  22.205  34.831   6.149
 4840POPC   C2B62408  22.077  34.729   6.520
 4840POPC   C3B62409  22.064  34.969   6.889
 4840POPC   C4B62410  22.261  34.944   7.309
 4841POPC   NC362411   1.475  13.900   5.429
 4841POPC   PO462412   1.014  13.369   5.417
 4841POPC   GL162413   1.318  13.480   5.730
 4841POPC   GL262414   1.155  13.780   5.838
 4841POPC   C1A62415   1.324  13.398   6.190
 4841POPC   D2A62416   1.368  13.162   6.603
 4841POPC   C3A62417   1.367  13.398   6.995
 4841POPC   C4A62418   1.399  13.393   7.456
 4841POPC   C1B62419   1.408  13.911   6.139
 4841POPC   C2B62420   1.493  14.038   6.546
 4841POPC   C3B62421   1.271  13.897   6.869
 4841POPC   C4B62422   1.297  13.844   7.270
 4842POPC   NC362423   8.552  35.053   5.448
 4842POPC   PO462424   8.042  35.518   5.308
 4842POPC   GL162425   8.123  35.312   5.713
 4842POPC   GL262426   8.443  35.394   5.837
 4842POPC   C1A62427   7.934  35.141   6.098
 4842POPC   D2A62428   7.859  35.317   6.530
 4842POPC   C3A62429   8.155  35.304   6.864
 4842POPC   C4A62430   8.376  35.169   7.222
 4842POPC   C1B62431   8.340  35.387   6.290
 4842POPC   C2B62432   8.581  35.247   6.631
 4842POPC   C3B62433   8.631  35.543   6.949
 4842POPC   C4B62434   8.496  35.665   7.389
 4843POPC   NC362435  33.442  31.236   5.422
 4843POPC   PO462436  33.080  31.757   5.162
 4843POPC   GL162437  33.008  31.620   5.638
 4843POPC   GL262438  33.277  31.557   5.805
 4843POPC   C1A62439  32.819  31.504   6.063
 4843POPC   D2A62440  32.668  31.192   6.360
 4843POPC   C3A62441  32.697  31.272   6.820
 4843POPC   C4A62442  32.664  31.417   7.242
 4843POPC   C1B62443  33.281  31.271   6.149
 4843POPC   C2B62444  33.097  31.419   6.527
 4843POPC   C3B62445  33.206  31.280   6.922
 4843POPC   C4B62446  33.156  31.284   7.329
 4844POPC   NC362447  24.901  27.101   5.382
 4844POPC   PO462448  24.483  26.690   5.079
 4844POPC   GL162449  24.470  26.894   5.591
 4844POPC   GL262450  24.154  27.003   5.700
 4844POPC   C1A62451  24.568  26.793   6.090
 4844POPC   D2A62452  24.672  26.933   6.545
 4844POPC   C3A62453  24.860  26.650   6.862
 4844POPC   C4A62454  24.747  26.525   7.290
 4844POPC   C1B62455  24.107  26.954   6.174
 4844POPC   C2B62456  24.172  27.042   6.640
 4844POPC   C3B62457  24.410  26.858   7.032
 4844POPC   C4B62458  24.288  26.655   7.468
 4845POPC   NC362459  16.774  13.221   5.145
 4845POPC   PO462460  16.384  12.801   5.321
 4845POPC   GL162461  16.561  12.821   5.701
 4845POPC   GL262462  16.925  12.868   5.704
 4845POPC   C1A62463  16.632  12.726   6.124
 4845POPC   D2A62464  16.853  12.858   6.471
 4845POPC   C3A62465  16.634  12.773   6.833
 4845POPC   C4A62466  16.704  12.719   7.246
 4845POPC   C1B62467  17.022  13.158   6.079
 4845POPC   C2B62468  17.061  13.398   6.478
 4845POPC   C3B62469  17.022  13.169   6.869
 4845POPC   C4B62470  17.094  13.027   7.266
 4846POPC   NC362471  16.955  14.478   5.343
 4846POPC   PO462472  16.353  14.348   5.367
 4846POPC   GL162473  16.634  14.209   5.726
 4846POPC   GL262474  16.384  14.003   5.850
 4846POPC   C1A62475  16.899  14.257   6.157
 4846POPC   D2A62476  16.752  14.310   6.620
 4846POPC   C3A62477  16.920  14.491   7.009
 4846POPC   C4A62478  16.653  14.725   7.317
 4846POPC   C1B62479  16.425  14.120   6.274
 4846POPC   C2B62480  16.320  14.098   6.718
 4846POPC   C3B62481  16.462  14.258   7.085
 4846POPC   C4B62482  16.397  14.094   7.466
 4847POPC   NC362483  22.069  35.947   5.266
 4847POPC   PO462484  22.672  35.883   5.526
 4847POPC   GL162485  22.357  36.086   5.787
 4847POPC   GL262486  22.054  35.887   5.773
 4847POPC   C1A62487  22.200  36.182   6.209
 4847POPC   D2A62488  21.939  36.155   6.574
 4847POPC   C3A62489  22.127  36.214   6.968
 4847POPC   C4A62490  21.903  36.468   7.252
 4847POPC   C1B62491  22.237  35.687   6.130
 4847POPC   C2B62492  22.212  35.714   6.587
 4847POPC   C3B62493  21.934  35.703   6.942
 4847POPC   C4B62494  21.938  35.926   7.358
 4848POPC   NC362495  44.520  17.189   5.539
 4848POPC   PO462496  44.835  17.642   5.181
 4848POPC   GL162497  44.709  17.626   5.691
 4848POPC   GL262498  44.864  17.309   5.872
 4848POPC   C1A62499  44.514  17.514   6.157
 4848POPC   D2A62500  44.598  17.542   6.626
 4848POPC   C3A62501  44.450  17.187   6.887
 4848POPC   C4A62502  44.275  17.205   7.308
 4848POPC   C1B62503   0.002  17.683   6.124
 4848POPC   C2B62504   0.095  17.851   6.537
 4848POPC   C3B62505  44.888  17.895   6.945
 4848POPC   C4B62506  44.592  17.582   7.170
 4849POPC   NC362507  32.600  27.080   5.426
 4849POPC   PO462508  32.315  26.466   5.465
 4849POPC   GL162509  32.053  26.589   5.798
 4849POPC   GL262510  32.039  26.946   5.831
 4849POPC   C1A62511  32.169  26.535   6.239
 4849POPC   D2A62512  32.003  26.649   6.639
 4849POPC   C3A62513  32.256  26.799   6.999
 4849POPC   C4A62514  32.517  26.700   7.323
 4849POPC   C1B62515  32.061  27.075   6.278
 4849POPC   C2B62516  31.974  27.141   6.706
 4849POPC   C3B62517  31.775  26.896   7.020
 4849POPC   C4B62518  31.915  27.008   7.362
 4850POPC   NC362519  16.158  36.316   5.182
 4850POPC   PO462520  16.709  36.423   5.527
 4850POPC   GL162521  16.621  36.272   5.915
 4850POPC   GL262522  16.593  35.918   5.932
 4850POPC   C1A62523  16.694  36.320   6.329
 4850POPC   D2A62524  16.682  36.212   6.727
 4850POPC   C3A62525  16.910  36.421   7.016
 4850POPC   C4A62526  16.761  36.105   7.313
 4850POPC   C1B62527  16.530  35.821   6.394
 4850POPC   C2B62528  16.592  35.598   6.795
 4850POPC   C3B62529  16.664  35.588   7.261
 4850POPC   C4B62530  16.671  35.621   7.724
 4851POPC   NC362531  24.557  41.014   5.416
 4851POPC   PO462532  24.060  40.503   5.481
 4851POPC   GL162533  24.338  40.675   5.750
 4851POPC   GL262534  24.143  40.973   5.735
 4851POPC   C1A62535  24.609  40.857   6.080
 4851POPC   D2A62536  24.759  40.710   6.488
 4851POPC   C3A62537  24.595  40.717   6.905
 4851POPC   C4A62538  24.837  40.976   7.177
 4851POPC   C1B62539  24.091  40.863   6.157
 4851POPC   C2B62540  24.289  40.903   6.537
 4851POPC   C3B62541  24.310  41.115   6.923
 4851POPC   C4B62542  24.223  41.010   7.328
 4852POPC   NC362543  10.174  15.907   5.579
 4852POPC   PO462544   9.740  16.043   5.134
 4852POPC   GL162545   9.643  15.995   5.633
 4852POPC   GL262546   9.430  15.693   5.762
 4852POPC   C1A62547   9.727  15.962   6.087
 4852POPC   D2A62548   9.956  15.971   6.474
 4852POPC   C3A62549   9.822  16.111   6.869
 4852POPC   C4A62550  10.034  16.066   7.207
 4852POPC   C1B62551   9.496  15.463   6.149
 4852POPC   C2B62552   9.401  15.479   6.596
 4852POPC   C3B62553   9.538  15.663   6.991
 4852POPC   C4B62554   9.370  15.732   7.416
 4853POPC   NC362555  24.415   8.281   5.539
 4853POPC   PO462556  24.095   7.645   5.390
 4853POPC   GL162557  24.269   7.822   5.807
 4853POPC   GL262558  24.616   8.019   5.893
 4853POPC   C1A62559  24.265   7.990   6.233
 4853POPC   D2A62560  24.413   8.130   6.659
 4853POPC   C3A62561  24.724   8.124   7.018
 4853POPC   C4A62562  24.387   8.018   7.334
 4853POPC   C1B62563  24.594   8.386   6.212
 4853POPC   C2B62564  24.740   8.508   6.650
 4853POPC   C3B62565  24.482   8.556   7.053
 4853POPC   C4B62566  24.566   8.469   7.508
 4854POPC   NC362567  43.677   5.195   5.679
 4854POPC   PO462568  43.199   4.957   5.343
 4854POPC   GL162569  43.101   5.054   5.798
 4854POPC   GL262570  43.376   4.794   5.817
 4854POPC   C1A62571  42.890   5.089   6.255
 4854POPC   D2A62572  42.967   5.242   6.707
 4854POPC   C3A62573  42.787   5.020   7.082
 4854POPC   C4A62574  43.022   4.966   7.477
 4854POPC   C1B62575  43.356   4.932   6.234
 4854POPC   C2B62576  43.167   4.781   6.594
 4854POPC   C3B62577  43.276   4.901   6.989
 4854POPC   C4B62578  43.573   4.730   7.222
 4855POPC   NC362579   7.127  26.586   5.532
 4855POPC   PO462580   7.435  27.108   5.297
 4855POPC   GL162581   7.592  26.815   5.628
 4855POPC   GL262582   7.564  26.443   5.764
 4855POPC   C1A62583   7.599  26.817   6.083
 4855POPC   D2A62584   7.334  26.919   6.432
 4855POPC   C3A62585   7.452  26.763   6.829
 4855POPC   C4A62586   7.378  26.799   7.255
 4855POPC   C1B62587   7.206  26.497   6.158
 4855POPC   C2B62588   7.087  26.429   6.617
 4855POPC   C3B62589   6.991  26.427   7.091
 4855POPC   C4B62590   7.055  26.550   7.557
 4856POPC   NC362591  30.873  23.537   5.419
 4856POPC   PO462592  30.308  23.977   5.334
 4856POPC   GL162593  30.470  23.794   5.735
 4856POPC   GL262594  30.449  23.438   5.818
 4856POPC   C1A62595  30.656  23.816   6.164
 4856POPC   D2A62596  30.684  23.625   6.585
 4856POPC   C3A62597  30.873  23.811   6.946
 4856POPC   C4A62598  30.650  24.050   7.271
 4856POPC   C1B62599  30.671  23.280   6.179
 4856POPC   C2B62600  30.960  23.205   6.505
 4856POPC   C3B62601  30.885  23.280   6.942
 4856POPC   C4B62602  31.217  23.380   7.209
 4857POPC   NC362603  22.362   0.857   5.155
 4857POPC   PO462604  22.282   0.498   5.711
 4857POPC   GL162605  22.182   0.789   5.998
 4857POPC   GL262606  21.858   0.929   6.006
 4857POPC   C1A62607  22.182   0.823   6.450
 4857POPC   D2A62608  22.298   0.660   6.866
 4857POPC   C3A62609  22.334   0.246   7.078
 4857POPC   C4A62610  22.361   0.549   7.394
 4857POPC   C1B62611  21.839   0.482   6.233
 4857POPC   C2B62612  21.914   0.348   6.685
 4857POPC   C3B62613  21.870   0.429   7.136
 4857POPC   C4B62614  21.984   0.291   7.584
 4858POPC   NC362615  23.428  30.264   5.042
 4858POPC   PO462616  23.040  30.502   5.481
 4858POPC   GL162617  23.124  30.708   5.878
 4858POPC   GL262618  23.097  31.087   5.892
 4858POPC   C1A62619  22.960  30.655   6.285
 4858POPC   D2A62620  22.950  30.686   6.726
 4858POPC   C3A62621  23.032  30.369   7.013
 4858POPC   C4A62622  23.147  30.332   7.440
 4858POPC   C1B62623  23.025  31.168   6.355
 4858POPC   C2B62624  22.703  31.141   6.712
 4858POPC   C3B62625  22.627  30.864   7.064
 4858POPC   C4B62626  22.944  30.785   7.340
 4859POPC   NC362627   5.236  15.448   5.357
 4859POPC   PO462628   4.879  14.885   5.218
 4859POPC   GL162629   5.051  15.084   5.650
 4859POPC   GL262630   4.949  15.422   5.774
 4859POPC   C1A62631   5.093  15.087   6.120
 4859POPC   D2A62632   4.868  15.278   6.486
 4859POPC   C3A62633   5.004  15.048   6.824
 4859POPC   C4A62634   4.966  14.768   7.138
 4859POPC   C1B62635   5.305  15.537   6.077
 4859POPC   C2B62636   5.368  15.362   6.526
 4859POPC   C3B62637   5.294  15.459   6.962
 4859POPC   C4B62638   5.587  15.723   7.190
 4860POPC   NC362639  15.550  36.164   5.104
 4860POPC   PO462640  14.956  35.999   5.335
 4860POPC   GL162641  14.974  36.163   5.755
 4860POPC   GL262642  14.821  35.888   5.893
 4860POPC   C1A62643  15.156  36.299   6.176
 4860POPC   D2A62644  15.081  36.344   6.636
 4860POPC   C3A62645  15.380  36.361   6.985
 4860POPC   C4A62646  15.463  36.090   7.349
 4860POPC   C1B62647  15.055  35.795   6.271
 4860POPC   C2B62648  15.245  35.854   6.674
 4860POPC   C3B62649  15.074  35.914   7.077
 4860POPC   C4B62650  15.143  35.624   7.443
 4861POPC   NC362651  16.052   2.801   5.298
 4861POPC   PO462652  15.512   2.753   5.637
 4861POPC   GL162653  15.883   2.732   5.823
 4861POPC   GL262654  15.998   3.066   5.745
 4861POPC   C1A62655  15.815   2.543   6.223
 4861POPC   D2A62656  15.834   2.332   6.603
 4861POPC   C3A62657  15.946   2.547   6.939
 4861POPC   C4A62658  15.779   2.717   7.290
 4861POPC   C1B62659  15.796   3.153   6.139
 4861POPC   C2B62660  15.791   2.945   6.528
 4861POPC   C3B62661  15.906   3.057   6.908
 4861POPC   C4B62662  16.007   3.265   7.233
 4862POPC   NC362663  24.905   4.110   5.426
 4862POPC   PO462664  24.229   4.189   5.401
 4862POPC   GL162665  24.506   4.194   5.750
 4862POPC   GL262666  24.519   4.516   5.815
 4862POPC   C1A62667  24.569   4.112   6.196
 4862POPC   D2A62668  24.428   4.237   6.613
 4862POPC   C3A62669  24.505   4.045   7.022
 4862POPC   C4A62670  24.281   4.112   7.408
 4862POPC   C1B62671  24.819   4.561   6.130
 4862POPC   C2B62672  24.763   4.641   6.562
 4862POPC   C3B62673  24.836   4.417   6.916
 4862POPC   C4B62674  25.103   4.431   7.244
 4863POPC   NC362675  41.325   0.971   5.466
 4863POPC   PO462676  41.246   1.653   5.638
 4863POPC   GL162677  41.420   1.305   5.860
 4863POPC   GL262678  41.726   1.356   5.892
 4863POPC   C1A62679  41.561   1.006   6.194
 4863POPC   D2A62680  41.813   1.016   6.559
 4863POPC   C3A62681  41.569   1.022   6.916
 4863POPC   C4A62682  41.729   1.040   7.330
 4863POPC   C1B62683  41.757   1.473   6.286
 4863POPC   C2B62684  41.519   1.464   6.622
 4863POPC   C3B62685  41.714   1.512   6.994
 4863POPC   C4B62686  41.584   1.626   7.350
 4864POPC   NC362687  44.210  22.189   5.428
 4864POPC   PO462688  43.629  22.460   5.195
 4864POPC   GL162689  43.611  22.377   5.724
 4864POPC   GL262690  43.827  22.030   5.758
 4864POPC   C1A62691  43.633  22.177   6.203
 4864POPC   D2A62692  43.619  21.967   6.654
 4864POPC   C3A62693  43.655  22.288   7.001
 4864POPC   C4A62694  44.060  22.412   7.120
 4864POPC   C1B62695  44.100  21.970   6.153
 4864POPC   C2B62696  44.159  22.110   6.630
 4864POPC   C3B62697  43.995  21.916   7.015
 4864POPC   C4B62698  43.556  21.766   7.152
 4865POPC   NC362699  42.578  33.252   5.133
 4865POPC   PO462700  41.983  32.895   5.201
 4865POPC   GL162701  42.141  33.078   5.654
 4865POPC   GL262702  42.499  33.086   5.749
 4865POPC   C1A62703  42.098  33.288   6.096
 4865POPC   D2A62704  42.290  33.376   6.513
 4865POPC   C3A62705  42.174  33.103   6.893
 4865POPC   C4A62706  42.256  33.250   7.324
 4865POPC   C1B62707  42.436  32.917   6.206
 4865POPC   C2B62708  42.620  32.999   6.642
 4865POPC   C3B62709  42.670  33.047   7.084
 4865POPC   C4B62710  42.442  32.776   7.361
 4866POPC   NC362711  42.028  29.115   5.357
 4866POPC   PO462712  42.555  28.758   5.505
 4866POPC   GL162713  42.390  28.965   5.875
 4866POPC   GL262714  42.209  29.233   5.854
 4866POPC   C1A62715  42.554  29.048   6.303
 4866POPC   D2A62716  42.314  28.809   6.600
 4866POPC   C3A62717  42.215  28.860   7.026
 4866POPC   C4A62718  42.384  29.216   7.210
 4866POPC   C1B62719  42.051  29.179   6.286
 4866POPC   C2B62720  42.069  29.273   6.741
 4866POPC   C3B62721  41.880  29.239   7.168
 4866POPC   C4B62722  42.048  29.397   7.561
 4867POPC   NC362723   1.212  19.925   5.439
 4867POPC   PO462724   0.569  20.052   5.514
 4867POPC   GL162725   0.843  19.816   5.843
 4867POPC   GL262726   1.155  19.644   5.915
 4867POPC   C1A62727   0.936  19.920   6.301
 4867POPC   D2A62728   1.169  19.808   6.699
 4867POPC   C3A62729   0.972  19.927   7.097
 4867POPC   C4A62730   0.928  19.682   7.510
 4867POPC   C1B62731   1.470  19.698   6.265
 4867POPC   C2B62732   1.662  20.027   6.536
 4867POPC   C3B62733   1.568  20.115   6.958
 4867POPC   C4B62734   1.437  19.746   7.154
 4868POPC   NC362735  44.890  32.547   5.477
 4868POPC   PO462736  44.801  31.887   5.225
 4868POPC   GL162737  44.665  32.062   5.674
 4868POPC   GL262738  44.362  32.226   5.775
 4868POPC   C1A62739  44.829  32.194   6.105
 4868POPC   D2A62740  44.703  32.219   6.525
 4868POPC   C3A62741  44.621  32.472   6.843
 4868POPC   C4A62742  44.759  32.308   7.226
 4868POPC   C1B62743  44.397  31.954   6.163
 4868POPC   C2B62744  44.236  32.048   6.584
 4868POPC   C3B62745  44.472  31.986   6.952
 4868POPC   C4B62746  44.347  32.050   7.379
 4869POPC   NC362747  30.522  20.216   5.615
 4869POPC   PO462748  30.855  20.779   5.269
 4869POPC   GL162749  30.904  20.779   5.692
 4869POPC   GL262750  30.538  20.785   5.724
 4869POPC   C1A62751  30.891  20.634   6.124
 4869POPC   D2A62752  31.165  20.588   6.521
 4869POPC   C3A62753  30.932  20.664   6.926
 4869POPC   C4A62754  30.796  20.397   7.307
 4869POPC   C1B62755  30.417  20.915   6.137
 4869POPC   C2B62756  30.348  20.793   6.550
 4869POPC   C3B62757  30.202  20.970   6.901
 4869POPC   C4B62758  30.455  20.774   7.181
 4870POPC   NC362759  18.669  41.358   5.374
 4870POPC   PO462760  19.306  41.180   5.501
 4870POPC   GL162761  19.023  41.238   5.830
 4870POPC   GL262762  18.873  41.551   5.813
 4870POPC   C1A62763  18.943  41.318   6.268
 4870POPC   D2A62764  19.118  41.544   6.602
 4870POPC   C3A62765  19.007  41.403   7.008
 4870POPC   C4A62766  19.283  41.443   7.372
 4870POPC   C1B62767  18.820  41.805   6.151
 4870POPC   C2B62768  18.648  41.703   6.519
 4870POPC   C3B62769  18.806  41.887   6.873
 4870POPC   C4B62770  18.941  41.826   7.265
 4871POPC   NC362771   1.582  22.018   5.662
 4871POPC   PO462772   0.976  21.875   5.540
 4871POPC   GL162773   1.062  21.498   5.799
 4871POPC   GL262774   1.433  21.494   5.780
 4871POPC   C1A62775   0.955  21.294   6.219
 4871POPC   D2A62776   0.861  21.339   6.666
 4871POPC   C3A62777   1.223  21.204   6.905
 4871POPC   C4A62778   1.288  21.031   7.306
 4871POPC   C1B62779   1.416  21.552   6.226
 4871POPC   C2B62780   1.554  21.580   6.651
 4871POPC   C3B62781   1.391  21.644   7.085
 4871POPC   C4B62782   1.025  21.490   7.279
 4872POPC   NC362783  39.465  41.835   5.422
 4872POPC   PO462784  38.796  41.583   5.515
 4872POPC   GL162785  39.178  41.601   5.787
 4872POPC   GL262786  39.306  41.912   5.924
 4872POPC   C1A62787  39.320  41.382   6.156
 4872POPC   D2A62788  39.037  41.319   6.517
 4872POPC   C3A62789  39.209  41.327   6.917
 4872POPC   C4A62790  39.306  41.588   7.213
 4872POPC   C1B62791  39.084  41.821   6.298
 4872POPC   C2B62792  39.148  41.834   6.737
 4872POPC   C3B62793  39.496  42.006   6.988
 4872POPC   C4B62794  39.459  42.015   7.439
 4873POPC   NC362795  14.633  29.711   5.374
 4873POPC   PO462796  15.286  29.887   5.405
 4873POPC   GL162797  15.247  30.079   5.822
 4873POPC   GL262798  14.880  30.038   5.770
 4873POPC   C1A62799  15.361  29.951   6.257
 4873POPC   D2A62800  15.133  29.686   6.603
 4873POPC   C3A62801  15.223  29.722   7.067
 4873POPC   C4A62802  15.305  29.962   7.446
 4873POPC   C1B62803  14.868  29.842   6.159
 4873POPC   C2B62804  14.693  29.940   6.544
 4873POPC   C3B62805  14.749  29.895   6.962
 4873POPC   C4B62806  14.795  29.943   7.408
 4874POPC   NC362807   6.153  26.381   5.631
 4874POPC   PO462808   5.720  26.859   5.358
 4874POPC   GL162809   5.873  26.830   5.778
 4874POPC   GL262810   6.232  26.888   5.765
 4874POPC   C1A62811   5.671  26.839   6.193
 4874POPC   D2A62812   5.591  26.582   6.538
 4874POPC   C3A62813   5.565  26.820   6.914
 4874POPC   C4A62814   5.784  27.003   7.256
 4874POPC   C1B62815   6.168  26.715   6.203
 4874POPC   C2B62816   6.025  26.896   6.603
 4874POPC   C3B62817   6.206  26.904   7.007
 4874POPC   C4B62818   6.280  26.506   7.197
 4875POPC   NC362819  14.690   6.794   5.027
 4875POPC   PO462820  14.169   6.494   5.434
 4875POPC   GL162821  14.204   6.603   5.861
 4875POPC   GL262822  14.539   6.740   5.886
 4875POPC   C1A62823  14.182   6.768   6.291
 4875POPC   D2A62824  14.193   6.623   6.735
 4875POPC   C3A62825  14.328   6.897   7.071
 4875POPC   C4A62826  14.413   6.775   7.483
 4875POPC   C1B62827  14.643   6.510   6.295
 4875POPC   C2B62828  14.597   6.321   6.728
 4875POPC   C3B62829  14.749   6.552   7.116
 4875POPC   C4B62830  14.878   6.596   7.594
 4876POPC   NC362831  27.345  26.942   5.635
 4876POPC   PO462832  27.925  26.634   5.417
 4876POPC   GL162833  27.831  26.830   5.778
 4876POPC   GL262834  27.967  27.158   5.738
 4876POPC   C1A62835  27.710  26.663   6.175
 4876POPC   D2A62836  27.591  26.798   6.567
 4876POPC   C3A62837  27.767  26.757   6.977
 4876POPC   C4A62838  27.422  26.640   7.246
 4876POPC   C1B62839  27.853  27.164   6.195
 4876POPC   C2B62840  27.739  27.284   6.612
 4876POPC   C3B62841  27.622  27.348   7.028
 4876POPC   C4B62842  27.768  27.235   7.409
 4877POPC   NC362843  43.474  22.874   5.337
 4877POPC   PO462844  42.790  23.141   5.310
 4877POPC   GL162845  42.915  22.925   5.745
 4877POPC   GL262846  43.271  22.836   5.806
 4877POPC   C1A62847  42.994  22.839   6.241
 4877POPC   D2A62848  42.914  22.655   6.638
 4877POPC   C3A62849  42.926  22.952   6.960
 4877POPC   C4A62850  42.669  23.038   7.321
 4877POPC   C1B62851  43.452  22.649   6.148
 4877POPC   C2B62852  43.452  22.871   6.543
 4877POPC   C3B62853  43.389  22.743   6.942
 4877POPC   C4B62854  43.382  22.732   7.361
 4878POPC   NC362855  42.677  43.973   5.412
 4878POPC   PO462856  42.017  43.714   5.229
 4878POPC   GL162857  42.319  43.782   5.689
 4878POPC   GL262858  42.544  44.088   5.879
 4878POPC   C1A62859  42.282  43.772   6.180
 4878POPC   D2A62860  42.469  43.811   6.581
 4878POPC   C3A62861  42.194  43.809   6.907
 4878POPC   C4A62862  42.361  43.691   7.285
 4878POPC   C1B62863  42.242  44.295   6.148
 4878POPC   C2B62864  42.140  44.215   6.559
 4878POPC   C3B62865  42.354  44.304   6.915
 4878POPC   C4B62866  42.137  44.182   7.260
 4879POPC   NC362867  24.040   6.499   5.409
 4879POPC   PO462868  24.555   6.178   5.514
 4879POPC   GL162869  24.419   6.579   5.788
 4879POPC   GL262870  24.076   6.812   5.805
 4879POPC   C1A62871  24.628   6.826   6.133
 4879POPC   D2A62872  24.503   6.656   6.546
 4879POPC   C3A62873  24.692   6.788   6.929
 4879POPC   C4A62874  24.772   6.475   7.171
 4879POPC   C1B62875  24.124   6.821   6.225
 4879POPC   C2B62876  24.091   7.004   6.625
 4879POPC   C3B62877  24.197   6.706   6.958
 4879POPC   C4B62878  24.272   6.390   7.263
 4880POPC   NC362879  12.679   7.691   5.509
 4880POPC   PO462880  12.764   7.081   5.382
 4880POPC   GL162881  13.008   7.322   5.708
 4880POPC   GL262882  12.796   7.263   6.005
 4880POPC   C1A62883  13.084   7.646   6.071
 4880POPC   D2A62884  12.874   7.554   6.501
 4880POPC   C3A62885  13.106   7.621   6.869
 4880POPC   C4A62886  13.008   7.698   7.294
 4880POPC   C1B62887  12.515   7.548   6.152
 4880POPC   C2B62888  12.356   7.546   6.590
 4880POPC   C3B62889  12.603   7.542   6.958
 4880POPC   C4B62890  12.544   7.475   7.388
 4881POPC   NC362891  15.419  36.714   5.565
 4881POPC   PO462892  15.031  37.236   5.418
 4881POPC   GL162893  15.045  37.047   5.796
 4881POPC   GL262894  15.382  37.163   5.823
 4881POPC   C1A62895  15.151  36.851   6.204
 4881POPC   D2A62896  15.383  36.772   6.582
 4881POPC   C3A62897  15.070  36.795   6.911
 4881POPC   C4A62898  15.177  36.696   7.329
 4881POPC   C1B62899  15.236  37.374   6.168
 4881POPC   C2B62900  15.147  37.266   6.560
 4881POPC   C3B62901  15.395  37.191   6.894
 4881POPC   C4B62902  15.241  37.177   7.251
 4882POPC   NC362903  18.179   7.005   5.368
 4882POPC   PO462904  18.459   6.380   5.470
 4882POPC   GL162905  18.227   6.651   5.759
 4882POPC   GL262906  18.410   6.512   6.006
 4882POPC   C1A62907  17.994   6.778   6.129
 4882POPC   D2A62908  17.993   6.566   6.533
 4882POPC   C3A62909  17.906   6.727   6.941
 4882POPC   C4A62910  18.309   6.693   7.128
 4882POPC   C1B62911  18.502   6.612   6.438
 4882POPC   C2B62912  18.590   6.399   6.781
 4882POPC   C3B62913  18.234   6.240   6.877
 4882POPC   C4B62914  18.105   6.201   7.256
 4883POPC   NC362915  22.758  25.695   5.333
 4883POPC   PO462916  23.218  26.138   5.417
 4883POPC   GL162917  23.088  25.850   5.719
 4883POPC   GL262918  22.744  26.006   5.750
 4883POPC   C1A62919  23.119  25.881   6.163
 4883POPC   D2A62920  22.965  26.178   6.477
 4883POPC   C3A62921  23.001  26.008   6.899
 4883POPC   C4A62922  22.889  26.036   7.315
 4883POPC   C1B62923  22.614  25.876   6.158
 4883POPC   C2B62924  22.750  25.709   6.546
 4883POPC   C3B62925  22.585  25.645   6.939
 4883POPC   C4B62926  22.699  25.562   7.359
 4884POPC   NC362927  14.895  40.863   5.377
 4884POPC   PO462928  15.527  40.912   5.330
 4884POPC   GL162929  15.314  40.825   5.742
 4884POPC   GL262930  15.359  40.478   5.857
 4884POPC   C1A62931  15.392  40.884   6.213
 4884POPC   D2A62932  15.350  41.064   6.650
 4884POPC   C3A62933  15.282  40.746   7.005
 4884POPC   C4A62934  15.124  40.414   7.301
 4884POPC   C1B62935  15.695  40.458   6.151
 4884POPC   C2B62936  15.751  40.459   6.584
 4884POPC   C3B62937  15.575  40.318   6.968
 4884POPC   C4B62938  15.636  40.519   7.351
 4885POPC   NC362939   7.954   1.782   5.269
 4885POPC   PO462940   8.067   2.352   5.564
 4885POPC   GL162941   8.055   2.029   5.836
 4885POPC   GL262942   8.383   1.953   5.915
 4885POPC   C1A62943   8.065   2.114   6.285
 4885POPC   D2A62944   8.211   2.131   6.711
 4885POPC   C3A62945   8.014   1.918   7.074
 4885POPC   C4A62946   7.989   1.920   7.554
 4885POPC   C1B62947   8.521   1.789   6.329
 4885POPC   C2B62948   8.407   1.648   6.746
 4885POPC   C3B62949   8.515   1.893   7.098
 4885POPC   C4B62950   8.510   1.830   7.558
 4886POPC   NC362951  36.436  23.011   5.566
 4886POPC   PO462952  36.888  22.545   5.402
 4886POPC   GL162953  36.937  22.853   5.745
 4886POPC   GL262954  37.172  22.672   5.912
 4886POPC   C1A62955  36.875  22.981   6.213
 4886POPC   D2A62956  37.115  23.010   6.631
 4886POPC   C3A62957  36.851  22.937   7.000
 4886POPC   C4A62958  36.678  23.272   7.238
 4886POPC   C1B62959  37.455  22.587   6.197
 4886POPC   C2B62960  37.530  22.625   6.626
 4886POPC   C3B62961  37.300  22.681   6.994
 4886POPC   C4B62962  37.263  22.698   7.418
 4887POPC   NC362963  43.502  44.344   5.354
 4887POPC   PO462964  43.095  43.693   5.408
 4887POPC   GL162965  43.064  43.872   5.831
 4887POPC   GL262966  43.156  44.186   5.732
 4887POPC   C1A62967  43.235  43.721   6.273
 4887POPC   D2A62968  43.276  43.568   6.734
 4887POPC   C3A62969  42.964  43.758   7.048
 4887POPC   C4A62970  42.885  44.220   7.038
 4887POPC   C1B62971  43.290  44.250   6.182
 4887POPC   C2B62972  43.385  44.117   6.632
 4887POPC   C3B62973  43.392  44.281   7.063
 4887POPC   C4B62974  43.273  44.488   7.424
 4888POPC   NC362975  32.332   0.673   5.375
 4888POPC   PO462976  31.810   0.265   5.387
 4888POPC   GL162977  32.025   0.491   5.748
 4888POPC   GL262978  32.397   0.372   5.795
 4888POPC   C1A62979  32.169   0.527   6.204
 4888POPC   D2A62980  32.043   0.289   6.528
 4888POPC   C3A62981  32.141   0.391   6.918
 4888POPC   C4A62982  31.948   0.406   7.326
 4888POPC   C1B62983  32.422   0.073   6.187
 4888POPC   C2B62984  32.528   0.103   6.645
 4888POPC   C3B62985  32.643   0.258   7.076
 4888POPC   C4B62986  32.527   0.334   7.495
 4889POPC   NC362987  13.703  43.576   5.434
 4889POPC   PO462988  13.728  44.214   5.380
 4889POPC   GL162989  13.912  43.995   5.770
 4889POPC   GL262990  13.602  43.814   5.895
 4889POPC   C1A62991  14.000  43.782   6.202
 4889POPC   D2A62992  13.702  43.867   6.557
 4889POPC   C3A62993  13.868  43.991   6.951
 4889POPC   C4A62994  13.789  44.292   7.276
 4889POPC   C1B62995  13.498  43.501   6.237
 4889POPC   C2B62996  13.393  43.463   6.690
 4889POPC   C3B62997  13.435  43.722   7.022
 4889POPC   C4B62998  13.663  43.800   7.392
 4890POPC   NC362999  19.191  11.184   5.056
 4890POPC   PO463000  19.408  11.404   5.637
 4890POPC   GL163001  19.156  11.243   5.927
 4890POPC   GL263002  18.910  11.111   5.721
 4890POPC   C1A63003  19.144  11.415   6.342
 4890POPC   D2A63004  18.955  11.642   6.681
 4890POPC   C3A63005  19.070  11.390   7.006
 4890POPC   C4A63006  19.005  11.474   7.424
 4890POPC   C1B63007  18.830  10.973   6.190
 4890POPC   C2B63008  18.794  11.094   6.635
 4890POPC   C3B63009  18.737  11.014   7.071
 4890POPC   C4B63010  19.066  10.982   7.352
 4891POPC   NC363011  19.477  44.586   5.352
 4891POPC   PO463012  19.971   0.084   5.352
 4891POPC   GL163013  19.908  44.795   5.721
 4891POPC   GL263014  19.842  44.426   5.707
 4891POPC   C1A63015  20.087  44.867   6.144
 4891POPC   D2A63016  20.019  44.793   6.587
 4891POPC   C3A63017  19.757  44.902   6.938
 4891POPC   C4A63018  19.831  44.654   7.265
 4891POPC   C1B63019  19.645  44.367   6.109
 4891POPC   C2B63020  19.550  44.578   6.476
 4891POPC   C3B63021  19.752  44.405   6.840
 4891POPC   C4B63022  19.587  44.213   7.247
 4892POPC   NC363023  21.503  20.132   5.262
 4892POPC   PO463024  21.160  19.620   5.531
 4892POPC   GL163025  21.450  19.901   5.756
 4892POPC   GL263026  21.185  20.038   5.948
 4892POPC   C1A63027  21.622  19.948   6.200
 4892POPC   D2A63028  21.477  20.145   6.603
 4892POPC   C3A63029  21.343  20.046   7.064
 4892POPC   C4A63030  21.163  20.065   7.501
 4892POPC   C1B63031  21.116  19.861   6.307
 4892POPC   C2B63032  20.982  19.918   6.702
 4892POPC   C3B63033  21.039  19.594   6.984
 4892POPC   C4B63034  21.223  19.582   7.343
 4893POPC   NC363035   7.631   4.492   5.425
 4893POPC   PO463036   8.323   4.508   5.361
 4893POPC   GL163037   8.139   4.368   5.745
 4893POPC   GL263038   8.434   4.472   5.896
 4893POPC   C1A63039   8.019   4.240   6.191
 4893POPC   D2A63040   7.934   4.060   6.609
 4893POPC   C3A63041   7.913   4.302   7.037
 4893POPC   C4A63042   7.987   4.191   7.504
 4893POPC   C1B63043   8.238   4.724   6.215
 4893POPC   C2B63044   8.133   4.550   6.617
 4893POPC   C3B63045   8.380   4.250   6.861
 4893POPC   C4B63046   8.401   4.404   7.275
 4894POPC   NC363047  14.562  22.203   5.429
 4894POPC   PO463048  14.039  22.548   5.463
 4894POPC   GL163049  14.121  22.148   5.693
 4894POPC   GL263050  14.360  22.338   5.899
 4894POPC   C1A63051  14.289  21.872   6.072
 4894POPC   D2A63052  14.339  22.120   6.471
 4894POPC   C3A63053  14.131  22.082   6.897
 4894POPC   C4A63054  14.256  21.927   7.311
 4894POPC   C1B63055  14.162  22.549   6.249
 4894POPC   C2B63056  14.242  22.567   6.706
 4894POPC   C3B63057  14.171  22.644   7.160
 4894POPC   C4B63058  14.267  22.417   7.581
 4895POPC   NC363059  35.561  22.995   5.360
 4895POPC   PO463060  35.013  22.669   5.585
 4895POPC   GL163061  35.346  22.848   5.840
 4895POPC   GL263062  35.493  23.183   5.815
 4895POPC   C1A63063  35.268  22.982   6.234
 4895POPC   D2A63064  35.320  22.790   6.606
 4895POPC   C3A63065  35.227  23.041   6.948
 4895POPC   C4A63066  35.308  22.791   7.242
 4895POPC   C1B63067  35.634  23.353   6.183
 4895POPC   C2B63068  35.495  23.288   6.576
 4895POPC   C3B63069  35.551  23.440   6.957
 4895POPC   C4B63070  35.545  23.243   7.321
 4896POPC   NC363071  16.963   7.740   5.445
 4896POPC   PO463072  16.424   7.845   5.119
 4896POPC   GL163073  16.719   8.093   5.650
 4896POPC   GL263074  16.479   8.215   5.912
 4896POPC   C1A63075  16.960   8.140   6.053
 4896POPC   D2A63076  17.026   8.276   6.480
 4896POPC   C3A63077  16.843   7.988   6.763
 4896POPC   C4A63078  16.860   7.974   7.207
 4896POPC   C1B63079  16.300   8.432   6.211
 4896POPC   C2B63080  16.491   8.357   6.595
 4896POPC   C3B63081  16.772   8.494   6.888
 4896POPC   C4B63082  16.628   8.463   7.284
 4897POPC   NC363083  28.548  12.250   5.463
 4897POPC   PO463084  28.222  11.635   5.529
 4897POPC   GL163085  28.504  11.807   5.842
 4897POPC   GL263086  28.392  12.122   5.921
 4897POPC   C1A63087  28.461  11.821   6.328
 4897POPC   D2A63088  28.201  11.985   6.698
 4897POPC   C3A63089  28.318  11.969   7.113
 4897POPC   C4A63090  28.467  12.062   7.522
 4897POPC   C1B63091  28.327  12.324   6.316
 4897POPC   C2B63092  28.543  12.368   6.722
 4897POPC   C3B63093  28.439  12.461   7.155
 4897POPC   C4B63094  28.431  12.640   7.548
 4898POPC   NC363095   8.565  16.215   5.269
 4898POPC   PO463096   8.046  15.758   5.390
 4898POPC   GL163097   8.211  15.958   5.781
 4898POPC   GL263098   7.887  16.010   5.954
 4898POPC   C1A63099   8.265  16.015   6.256
 4898POPC   D2A63100   7.888  16.006   6.504
 4898POPC   C3A63101   8.012  15.939   6.921
 4898POPC   C4A63102   8.359  16.089   7.184
 4898POPC   C1B63103   7.977  15.592   6.163
 4898POPC   C2B63104   7.921  15.488   6.612
 4898POPC   C3B63105   7.990  15.439   7.070
 4898POPC   C4B63106   7.891  15.739   7.375
 4899POPC   NC363107   0.620  11.171   5.332
 4899POPC   PO463108   0.375  11.764   5.205
 4899POPC   GL163109   0.562  11.557   5.635
 4899POPC   GL263110   0.305  11.232   5.729
 4899POPC   C1A63111   0.480  11.493   6.115
 4899POPC   D2A63112   0.480  11.331   6.530
 4899POPC   C3A63113   0.186  11.529   6.847
 4899POPC   C4A63114   0.333  11.562   7.255
 4899POPC   C1B63115   0.224  11.055   6.168
 4899POPC   C2B63116   0.052  11.052   6.607
 4899POPC   C3B63117   0.349  11.076   6.972
 4899POPC   C4B63118   0.351  11.006   7.376
 4900POPC   NC363119   7.806  37.930   5.349
 4900POPC   PO463120   7.248  37.530   5.182
 4900POPC   GL163121   7.440  37.657   5.624
 4900POPC   GL263122   7.325  37.456   5.902
 4900POPC   C1A63123   7.672  37.837   6.049
 4900POPC   D2A63124   7.631  37.730   6.519
 4900POPC   C3A63125   7.852  37.937   6.890
 4900POPC   C4A63126   7.763  38.098   7.319
 4900POPC   C1B63127   7.164  37.898   6.024
 4900POPC   C2B63128   7.142  37.993   6.474
 4900POPC   C3B63129   7.201  37.663   6.811
 4900POPC   C4B63130   7.493  37.669   7.155
 4901POPC   NC363131  12.217  35.856   5.551
 4901POPC   PO463132  11.827  36.412   5.643
 4901POPC   GL163133  12.180  36.273   5.863
 4901POPC   GL263134  12.470  36.497   5.911
 4901POPC   C1A63135  12.118  36.076   6.265
 4901POPC   D2A63136  12.223  35.849   6.630
 4901POPC   C3A63137  12.053  35.967   7.020
 4901POPC   C4A63138  11.846  35.988   7.422
 4901POPC   C1B63139  12.186  36.590   6.281
 4901POPC   C2B63140  12.149  36.406   6.719
 4901POPC   C3B63141  12.142  36.450   7.187
 4901POPC   C4B63142  11.844  36.499   7.542
 4902POPC   NC363143   3.902   8.140   5.406
 4902POPC   PO463144   4.424   8.524   5.483
 4902POPC   GL163145   4.333   8.153   5.810
 4902POPC   GL263146   4.078   7.959   5.842
 4902POPC   C1A63147   4.268   8.098   6.319
 4902POPC   D2A63148   4.383   8.473   6.616
 4902POPC   C3A63149   4.337   8.404   7.042
 4902POPC   C4A63150   4.355   7.994   7.221
 4902POPC   C1B63151   3.943   8.374   6.047
 4902POPC   C2B63152   3.868   8.369   6.504
 4902POPC   C3B63153   3.977   8.091   6.860
 4902POPC   C4B63154   3.921   8.223   7.303
 4903POPC   NC363155  20.300  15.875   5.451
 4903POPC   PO463156  20.805  16.268   5.440
 4903POPC   GL163157  20.623  16.089   5.811
 4903POPC   GL263158  20.294  16.239   5.795
 4903POPC   C1A63159  20.637  15.896   6.244
 4903POPC   D2A63160  20.931  15.764   6.592
 4903POPC   C3A63161  20.757  15.696   7.025
 4903POPC   C4A63162  20.540  15.952   7.346
 4903POPC   C1B63163  20.373  16.343   6.203
 4903POPC   C2B63164  20.592  16.343   6.571
 4903POPC   C3B63165  20.476  16.339   6.984
 4903POPC   C4B63166  20.699  16.436   7.299
 4904POPC   NC363167   1.213   6.585   5.373
 4904POPC   PO463168   1.529   7.090   5.595
 4904POPC   GL163169   1.227   6.817   5.848
 4904POPC   GL263170   1.356   6.467   5.883
 4904POPC   C1A63171   0.888   6.582   6.077
 4904POPC   D2A63172   0.849   6.298   6.431
 4904POPC   C3A63173   1.004   6.513   6.808
 4904POPC   C4A63174   1.142   6.464   7.227
 4904POPC   C1B63175   1.331   6.625   6.342
 4904POPC   C2B63176   1.433   6.829   6.748
 4904POPC   C3B63177   1.568   6.758   7.145
 4904POPC   C4B63178   1.630   6.360   7.316
 4905POPC   NC363179  36.926  40.942   5.337
 4905POPC   PO463180  37.059  41.663   5.139
 4905POPC   GL163181  36.970  41.615   5.606
 4905POPC   GL263182  37.019  41.280   5.739
 4905POPC   C1A63183  37.059  41.777   6.052
 4905POPC   D2A63184  36.809  41.721   6.459
 4905POPC   C3A63185  37.019  41.755   6.867
 4905POPC   C4A63186  36.865  41.841   7.279
 4905POPC   C1B63187  36.792  41.324   6.123
 4905POPC   C2B63188  36.760  41.132   6.543
 4905POPC   C3B63189  36.703  41.290   6.973
 4905POPC   C4B63190  36.712  41.051   7.397
 4906POPC   NC363191  20.555   6.750   5.490
 4906POPC   PO463192  20.465   6.112   5.414
 4906POPC   GL163193  20.590   6.303   5.775
 4906POPC   GL263194  20.863   6.551   5.869
 4906POPC   C1A63195  20.459   6.352   6.182
 4906POPC   D2A63196  20.700   6.525   6.491
 4906POPC   C3A63197  20.823   6.395   6.892
 4906POPC   C4A63198  20.679   6.235   7.266
 4906POPC   C1B63199  20.593   6.861   6.119
 4906POPC   C2B63200  20.387   6.937   6.520
 4906POPC   C3B63201  20.619   6.874   6.886
 4906POPC   C4B63202  20.931   6.828   7.175
 4907POPC   NC363203  26.261  44.382   5.339
 4907POPC   PO463204  26.021  43.692   5.238
 4907POPC   GL163205  26.094  43.957   5.604
 4907POPC   GL263206  26.129  43.651   5.756
 4907POPC   C1A63207  26.037  44.048   6.081
 4907POPC   D2A63208  25.829  43.887   6.479
 4907POPC   C3A63209  25.964  43.977   6.928
 4907POPC   C4A63210  25.751  43.788   7.285
 4907POPC   C1B63211  25.936  43.508   6.128
 4907POPC   C2B63212  26.075  43.411   6.537
 4907POPC   C3B63213  25.937  43.456   6.941
 4907POPC   C4B63214  26.112  43.432   7.338
 4908POPC   NC363215   3.135  26.074   5.341
 4908POPC   PO463216   2.532  25.760   5.416
 4908POPC   GL163217   2.822  25.963   5.775
 4908POPC   GL263218   3.185  26.090   5.858
 4908POPC   C1A63219   2.902  25.821   6.216
 4908POPC   D2A63220   2.819  25.992   6.639
 4908POPC   C3A63221   2.696  25.781   7.048
 4908POPC   C4A63222   2.877  25.848   7.476
 4908POPC   C1B63223   3.043  26.321   6.219
 4908POPC   C2B63224   2.953  26.481   6.640
 4908POPC   C3B63225   2.974  26.267   7.050
 4908POPC   C4B63226   3.045  26.308   7.481
 4909POPC   NC363227  28.224  37.943   5.420
 4909POPC   PO463228  28.473  37.354   5.176
 4909POPC   GL163229  28.508  37.559   5.665
 4909POPC   GL263230  28.676  37.900   5.651
 4909POPC   C1A63231  28.288  37.668   6.139
 4909POPC   D2A63232  27.996  37.841   6.455
 4909POPC   C3A63233  28.106  37.733   6.893
 4909POPC   C4A63234  28.270  37.385   7.148
 4909POPC   C1B63235  28.753  37.870   6.105
 4909POPC   C2B63236  28.524  37.908   6.521
 4909POPC   C3B63237  28.608  37.973   6.945
 4909POPC   C4B63238  28.906  37.683   7.116
 4910POPC   NC363239  21.131  26.079   5.329
 4910POPC   PO463240  21.749  25.916   5.243
 4910POPC   GL163241  21.482  25.957   5.674
 4910POPC   GL263242  21.373  26.269   5.819
 4910POPC   C1A63243  21.241  25.855   6.084
 4910POPC   D2A63244  21.357  25.962   6.505
 4910POPC   C3A63245  21.203  25.903   6.928
 4910POPC   C4A63246  21.276  25.845   7.390
 4910POPC   C1B63247  21.143  26.366   6.213
 4910POPC   C2B63248  20.994  26.339   6.631
 4910POPC   C3B63249  21.166  26.427   6.982
 4910POPC   C4B63250  21.401  26.347   7.283
 4911POPC   NC363251   4.522  28.265   5.393
 4911POPC   PO463252   4.727  28.835   5.641
 4911POPC   GL163253   4.478  28.476   5.854
 4911POPC   GL263254   4.582  28.098   5.883
 4911POPC   C1A63255   4.262  28.538   6.219
 4911POPC   D2A63256   4.396  28.529   6.633
 4911POPC   C3A63257   4.129  28.625   6.962
 4911POPC   C4A63258   4.001  28.278   7.228
 4911POPC   C1B63259   4.197  28.032   6.149
 4911POPC   C2B63260   4.154  27.942   6.599
 4911POPC   C3B63261   4.387  28.137   6.946
 4911POPC   C4B63262   4.696  28.089   7.266
 4912POPC   NC363263  16.704  38.576   5.424
 4912POPC   PO463264  17.165  38.245   5.275
 4912POPC   GL163265  16.940  38.184   5.712
 4912POPC   GL263266  16.572  38.251   5.810
 4912POPC   C1A63267  16.927  38.127   6.195
 4912POPC   D2A63268  16.973  38.350   6.611
 4912POPC   C3A63269  16.741  38.445   6.994
 4912POPC   C4A63270  16.995  38.545   7.349
 4912POPC   C1B63271  16.492  38.413   6.243
 4912POPC   C2B63272  16.325  38.548   6.654
 4912POPC   C3B63273  16.245  38.565   7.094
 4912POPC   C4B63274  16.319  38.497   7.528
 4913POPC   NC363275   5.873  27.286   5.513
 4913POPC   PO463276   6.218  27.874   5.557
 4913POPC   GL163277   5.901  27.731   5.801
 4913POPC   GL263278   5.596  27.961   5.751
 4913POPC   C1A63279   5.931  27.412   6.142
 4913POPC   D2A63280   5.712  27.290   6.499
 4913POPC   C3A63281   5.950  27.358   6.883
 4913POPC   C4A63282   6.171  27.350   7.297
 4913POPC   C1B63283   5.532  27.744   6.145
 4913POPC   C2B63284   5.701  27.812   6.520
 4913POPC   C3B63285   5.574  27.802   6.907
 4913POPC   C4B63286   5.631  28.003   7.298
 4914POPC   NC363287  19.821   3.745   5.208
 4914POPC   PO463288  20.042   4.164   5.730
 4914POPC   GL163289  19.762   4.244   6.045
 4914POPC   GL263290  19.452   4.090   5.862
 4914POPC   C1A63291  19.896   4.185   6.516
 4914POPC   D2A63292  20.128   4.238   6.947
 4914POPC   C3A63293  19.981   4.593   7.240
 4914POPC   C4A63294  19.975   4.620   7.733
 4914POPC   C1B63295  19.341   4.118   6.300
 4914POPC   C2B63296  19.456   4.020   6.724
 4914POPC   C3B63297  19.593   4.293   7.083
 4914POPC   C4B63298  19.885   4.146   7.436
 4915POPC   NC363299   0.102  10.163   5.442
 4915POPC   PO463300   0.438  10.769   5.464
 4915POPC   GL163301   0.525  10.732   5.901
 4915POPC   GL263302   0.578  10.371   5.927
 4915POPC   C1A63303   0.517  10.674   6.350
 4915POPC   D2A63304   0.319  10.628   6.732
 4915POPC   C3A63305   0.560  10.582   7.119
 4915POPC   C4A63306   0.670  10.677   7.589
 4915POPC   C1B63307   0.268  10.208   6.206
 4915POPC   C2B63308   0.304  10.109   6.627
 4915POPC   C3B63309   0.148  10.255   7.028
 4915POPC   C4B63310   0.022  10.062   7.405
 4916POPC   NC363311  37.227  24.488   5.341
 4916POPC   PO463312  37.885  24.498   5.227
 4916POPC   GL163313  37.663  24.465   5.697
 4916POPC   GL263314  37.583  24.796   5.841
 4916POPC   C1A63315  37.462  24.397   6.162
 4916POPC   D2A63316  37.373  24.605   6.552
 4916POPC   C3A63317  37.584  24.400   6.904
 4916POPC   C4A63318  37.535  24.435   7.357
 4916POPC   C1B63319  37.840  24.724   6.233
 4916POPC   C2B63320  37.866  24.801   6.690
 4916POPC   C3B63321  37.971  24.642   7.106
 4916POPC   C4B63322  37.920  24.732   7.553
 4917POPC   NC363323  29.380  30.473   5.188
 4917POPC   PO463324  28.852  30.921   5.320
 4917POPC   GL163325  28.985  30.644   5.624
 4917POPC   GL263326  29.309  30.728   5.646
 4917POPC   C1A63327  28.893  30.621   6.081
 4917POPC   D2A63328  28.856  30.375   6.504
 4917POPC   C3A63329  28.824  30.585   6.895
 4917POPC   C4A63330  29.206  30.553   7.128
 4917POPC   C1B63331  29.317  30.958   6.039
 4917POPC   C2B63332  29.345  31.090   6.459
 4917POPC   C3B63333  29.175  31.001   6.842
 4917POPC   C4B63334  29.409  31.003   7.196
 4918POPC   NC363335  38.424   2.650   5.099
 4918POPC   PO463336  38.728   2.964   5.624
 4918POPC   GL163337  38.616   2.838   6.017
 4918POPC   GL263338  38.546   2.469   6.023
 4918POPC   C1A63339  38.430   2.830   6.384
 4918POPC   D2A63340  38.174   2.712   6.701
 4918POPC   C3A63341  38.428   2.803   7.008
 4918POPC   C4A63342  38.358   3.041   7.315
 4918POPC   C1B63343  38.837   2.463   6.322
 4918POPC   C2B63344  38.678   2.491   6.696
 4918POPC   C3B63345  38.775   2.375   7.073
 4918POPC   C4B63346  38.692   2.628   7.418
 4919POPC   NC363347   9.119  35.778   5.636
 4919POPC   PO463348   9.383  36.316   5.405
 4919POPC   GL163349   9.194  36.345   5.812
 4919POPC   GL263350   8.844  36.239   5.787
 4919POPC   C1A63351   9.115  36.538   6.233
 4919POPC   D2A63352   9.008  36.414   6.646
 4919POPC   C3A63353   9.145  36.027   6.803
 4919POPC   C4A63354   9.348  36.145   7.186
 4919POPC   C1B63355   8.588  36.059   6.122
 4919POPC   C2B63356   8.570  36.044   6.577
 4919POPC   C3B63357   8.666  36.078   7.018
 4919POPC   C4B63358   8.972  35.791   7.224
 4920POPC   NC363359   3.123  21.516   5.252
 4920POPC   PO463360   2.485  21.391   5.469
 4920POPC   GL163361   2.822  21.458   5.732
 4920POPC   GL263362   2.698  21.195   5.896
 4920POPC   C1A63363   2.927  21.563   6.195
 4920POPC   D2A63364   2.963  21.787   6.615
 4920POPC   C3A63365   2.750  21.606   6.984
 4920POPC   C4A63366   2.898  21.300   7.297
 4920POPC   C1B63367   2.583  20.914   6.170
 4920POPC   C2B63368   2.569  21.091   6.539
 4920POPC   C3B63369   2.736  21.003   6.919
 4920POPC   C4B63370   2.555  20.857   7.279
 4921POPC   NC363371   6.324  41.758   5.417
 4921POPC   PO463372   5.707  41.991   5.352
 4921POPC   GL163373   5.784  41.624   5.653
 4921POPC   GL263374   6.075  41.364   5.664
 4921POPC   C1A63375   5.706  41.405   6.046
 4921POPC   D2A63376   5.852  41.466   6.451
 4921POPC   C3A63377   5.773  41.374   6.876
 4921POPC   C4A63378   5.901  41.684   7.173
 4921POPC   C1B63379   6.178  41.205   6.090
 4921POPC   C2B63380   6.221  41.119   6.546
 4921POPC   C3B63381   6.280  41.384   6.925
 4921POPC   C4B63382   6.382  41.260   7.343
 4922POPC   NC363383   6.429  43.750   5.341
 4922POPC   PO463384   6.823  44.333   5.368
 4922POPC   GL163385   6.610  44.102   5.713
 4922POPC   GL263386   6.587  43.740   5.826
 4922POPC   C1A63387   6.546  44.123   6.166
 4922POPC   D2A63388   6.743  44.194   6.552
 4922POPC   C3A63389   6.634  44.054   6.917
 4922POPC   C4A63390   6.349  44.022   7.219
 4922POPC   C1B63391   6.537  43.599   6.258
 4922POPC   C2B63392   6.436  43.638   6.694
 4922POPC   C3B63393   6.553  43.564   7.118
 4922POPC   C4B63394   6.459  43.649   7.560
 4923POPC   NC363395  23.925  24.076   5.485
 4923POPC   PO463396  23.617  24.675   5.542
 4923POPC   GL163397  23.454  24.595   5.948
 4923POPC   GL263398  23.804  24.515   5.986
 4923POPC   C1A63399  23.528  24.602   6.401
 4923POPC   D2A63400  23.874  24.490   6.564
 4923POPC   C3A63401  23.755  24.396   6.948
 4923POPC   C4A63402  23.944  24.241   7.295
 4923POPC   C1B63403  23.959  24.888   6.175
 4923POPC   C2B63404  24.167  24.938   6.548
 4923POPC   C3B63405  23.863  24.917   6.855
 4923POPC   C4B63406  23.905  24.795   7.245
 4924POPC   NC363407  41.727  22.440   5.540
 4924POPC   PO463408  42.334  22.233   5.413
 4924POPC   GL163409  42.210  22.393   5.797
 4924POPC   GL263410  41.951  22.155   5.898
 4924POPC   C1A63411  42.387  22.211   6.186
 4924POPC   D2A63412  42.452  21.971   6.565
 4924POPC   C3A63413  42.632  22.229   6.888
 4924POPC   C4A63414  42.505  22.129   7.300
 4924POPC   C1B63415  41.945  22.463   6.245
 4924POPC   C2B63416  42.176  22.415   6.621
 4924POPC   C3B63417  42.129  22.150   6.957
 4924POPC   C4B63418  42.010  22.243   7.350
 4925POPC   NC363419  36.976  44.884   5.120
 4925POPC   PO463420  36.849  44.385   5.433
 4925POPC   GL163421  36.878  44.502   5.801
 4925POPC   GL263422  37.221  44.657   5.762
 4925POPC   C1A63423  36.913  44.520   6.201
 4925POPC   D2A63424  37.059  44.809   6.475
 4925POPC   C3A63425  36.907  44.758   6.881
 4925POPC   C4A63426  36.700  44.845   7.248
 4925POPC   C1B63427  37.405  44.449   6.110
 4925POPC   C2B63428  37.348  44.413   6.568
 4925POPC   C3B63429  37.266  44.389   6.994
 4925POPC   C4B63430  37.195  44.588   7.365
 4926POPC   NC363431  20.695  19.129   5.269
 4926POPC   PO463432  20.120  18.740   5.429
 4926POPC   GL163433  20.364  19.075   5.684
 4926POPC   GL263434  20.710  19.003   5.748
 4926POPC   C1A63435  20.454  19.160   6.149
 4926POPC   D2A63436  20.515  18.935   6.562
 4926POPC   C3A63437  20.728  19.181   6.894
 4926POPC   C4A63438  20.666  19.377   7.299
 4926POPC   C1B63439  20.859  18.837   6.149
 4926POPC   C2B63440  21.027  18.708   6.529
 4926POPC   C3B63441  20.828  18.672   6.930
 4926POPC   C4B63442  20.708  18.844   7.322
 4927POPC   NC363443  41.283  34.907   4.991
 4927POPC   PO463444  41.646  34.350   5.221
 4927POPC   GL163445  41.535  34.585   5.636
 4927POPC   GL263446  41.793  34.758   5.795
 4927POPC   C1A63447  41.402  34.659   6.107
 4927POPC   D2A63448  41.242  34.639   6.538
 4927POPC   C3A63449  41.340  34.361   6.896
 4927POPC   C4A63450  41.324  34.586   7.277
 4927POPC   C1B63451  41.856  34.479   6.180
 4927POPC   C2B63452  41.732  34.531   6.608
 4927POPC   C3B63453  41.785  34.588   7.061
 4927POPC   C4B63454  42.008  34.461   7.429
 4928POPC   NC363455  26.741   6.155   5.094
 4928POPC   PO463456  26.898   5.646   5.464
 4928POPC   GL163457  26.827   5.808   5.872
 4928POPC   GL263458  26.723   6.151   5.770
 4928POPC   C1A63459  26.820   5.672   6.328
 4928POPC   D2A63460  26.564   5.839   6.685
 4928POPC   C3A63461  26.792   5.793   7.062
 4928POPC   C4A63462  27.175   5.481   7.093
 4928POPC   C1B63463  26.657   6.148   6.230
 4928POPC   C2B63464  26.896   6.275   6.640
 4928POPC   C3B63465  26.927   6.319   7.117
 4928POPC   C4B63466  26.733   6.096   7.500
 4929POPC   NC363467  33.979  10.151   5.451
 4929POPC   PO463468  33.761  10.791   5.339
 4929POPC   GL163469  33.759  10.540   5.758
 4929POPC   GL263470  34.081  10.348   5.888
 4929POPC   C1A63471  33.758  10.714   6.194
 4929POPC   D2A63472  33.635  10.936   6.596
 4929POPC   C3A63473  33.355  10.701   6.857
 4929POPC   C4A63474  33.416  10.400   7.162
 4929POPC   C1B63475  33.991  10.276   6.299
 4929POPC   C2B63476  33.743  10.406   6.647
 4929POPC   C3B63477  33.857  10.615   7.016
 4929POPC   C4B63478  34.080  10.430   7.368
 4930POPC   NC363479  22.883  28.830   5.419
 4930POPC   PO463480  22.510  29.408   5.491
 4930POPC   GL163481  22.797  29.208   5.789
 4930POPC   GL263482  23.188  29.275   5.743
 4930POPC   C1A63483  22.604  29.116   6.193
 4930POPC   D2A63484  22.757  29.181   6.593
 4930POPC   C3A63485  22.533  29.065   6.965
 4930POPC   C4A63486  22.802  29.113   7.287
 4930POPC   C1B63487  23.382  29.354   6.172
 4930POPC   C2B63488  23.240  29.466   6.623
 4930POPC   C3B63489  23.223  29.354   7.076
 4930POPC   C4B63490  23.268  29.034   7.433
 4931POPC   NC363491  28.898  38.571   5.164
 4931POPC   PO463492  28.360  38.420   5.420
 4931POPC   GL163493  28.426  38.561   5.810
 4931POPC   GL263494  28.373  38.222   5.934
 4931POPC   C1A63495  28.430  38.735   6.237
 4931POPC   D2A63496  28.221  38.720   6.634
 4931POPC   C3A63497  28.374  38.593   7.054
 4931POPC   C4A63498  28.290  38.575   7.522
 4931POPC   C1B63499  28.210  38.290   6.356
 4931POPC   C2B63500  28.024  38.259   6.797
 4931POPC   C3B63501  28.188  38.147   7.220
 4931POPC   C4B63502  28.627  38.216   7.405
 4932POPC   NC363503  28.329   0.220   5.568
 4932POPC   PO463504  28.712   0.757   5.374
 4932POPC   GL163505  28.573   0.619   5.792
 4932POPC   GL263506  28.196   0.625   5.864
 4932POPC   C1A63507  28.535   0.439   6.211
 4932POPC   D2A63508  28.419   0.554   6.642
 4932POPC   C3A63509  28.654   0.349   7.000
 4932POPC   C4A63510  28.507   0.647   7.271
 4932POPC   C1B63511  28.043   0.334   6.226
 4932POPC   C2B63512  27.945   0.299   6.662
 4932POPC   C3B63513  28.156   0.312   7.030
 4932POPC   C4B63514  28.313   0.189   7.394
 4933POPC   NC363515  11.378  39.275   5.253
 4933POPC   PO463516  11.070  38.830   5.526
 4933POPC   GL163517  11.402  39.072   5.758
 4933POPC   GL263518  11.463  39.426   5.740
 4933POPC   C1A63519  11.242  39.154   6.184
 4933POPC   D2A63520  11.247  39.334   6.598
 4933POPC   C3A63521  11.168  39.017   6.935
 4933POPC   C4A63522  11.018  39.111   7.378
 4933POPC   C1B63523  11.686  39.386   6.152
 4933POPC   C2B63524  11.751  39.425   6.609
 4933POPC   C3B63525  11.570  39.301   7.059
 4933POPC   C4B63526  11.541  39.132   7.557
 4934POPC   NC363527  39.667  18.666   5.462
 4934POPC   PO463528  39.234  18.228   5.191
 4934POPC   GL163529  39.288  18.309   5.668
 4934POPC   GL263530  39.581  18.204   5.889
 4934POPC   C1A63531  39.136  18.400   6.102
 4934POPC   D2A63532  38.875  18.295   6.490
 4934POPC   C3A63533  38.998  18.403   6.918
 4934POPC   C4A63534  39.017  18.369   7.400
 4934POPC   C1B63535  39.452  18.084   6.337
 4934POPC   C2B63536  39.460  18.366   6.691
 4934POPC   C3B63537  39.436  18.215   7.102
 4934POPC   C4B63538  39.334  17.959   7.405
 4935POPC   NC363539  42.775   5.117   5.254
 4935POPC   PO463540  42.205   4.848   5.361
 4935POPC   GL163541  42.437   5.162   5.671
 4935POPC   GL263542  42.561   4.950   5.893
 4935POPC   C1A63543  42.549   5.415   6.082
 4935POPC   D2A63544  42.490   5.247   6.541
 4935POPC   C3A63545  42.524   5.445   6.947
 4935POPC   C4A63546  42.423   5.313   7.363
 4935POPC   C1B63547  42.197   5.080   6.177
 4935POPC   C2B63548  42.050   4.988   6.599
 4935POPC   C3B63549  42.093   5.085   7.045
 4935POPC   C4B63550  42.197   4.865   7.449
 4936POPC   NC363551  43.794  20.221   5.450
 4936POPC   PO463552  44.153  19.785   5.044
 4936POPC   GL163553  44.075  19.834   5.607
 4936POPC   GL263554  43.704  19.805   5.731
 4936POPC   C1A63555  44.062  19.956   6.083
 4936POPC   D2A63556  44.219  19.975   6.533
 4936POPC   C3A63557  44.038  19.975   6.971
 4936POPC   C4A63558  44.040  19.782   7.387
 4936POPC   C1B63559  43.561  20.075   6.057
 4936POPC   C2B63560  43.737  20.206   6.443
 4936POPC   C3B63561  43.530  20.218   6.846
 4936POPC   C4B63562  43.594  19.996   7.228
 4937POPC   NC363563   2.121  40.179   5.362
 4937POPC   PO463564   1.744  39.685   5.397
 4937POPC   GL163565   1.756  39.999   5.758
 4937POPC   GL263566   2.055  40.189   5.879
 4937POPC   C1A63567   1.761  39.933   6.216
 4937POPC   D2A63568   1.675  39.737   6.638
 4937POPC   C3A63569   1.777  39.991   7.015
 4937POPC   C4A63570   1.640  40.398   7.171
 4937POPC   C1B63571   1.965  40.407   6.296
 4937POPC   C2B63572   1.979  40.409   6.767
 4937POPC   C3B63573   2.172  40.387   7.184
 4937POPC   C4B63574   2.351  40.359   7.639
 4938POPC   NC363575   1.504  13.080   5.415
 4938POPC   PO463576   1.114  12.519   5.407
 4938POPC   GL163577   1.206  12.780   5.752
 4938POPC   GL263578   1.552  12.764   5.830
 4938POPC   C1A63579   1.213  12.868   6.201
 4938POPC   D2A63580   0.994  12.653   6.534
 4938POPC   C3A63581   1.078  12.790   6.924
 4938POPC   C4A63582   1.128  13.016   7.265
 4938POPC   C1B63583   1.449  12.425   6.092
 4938POPC   C2B63584   1.403  12.289   6.536
 4938POPC   C3B63585   1.431  12.425   6.935
 4938POPC   C4B63586   1.504  12.557   7.339
 4939POPC   NC363587   1.720  20.487   5.314
 4939POPC   PO463588   2.453  20.392   5.434
 4939POPC   GL163589   2.097  20.597   5.684
 4939POPC   GL263590   1.726  20.721   5.770
 4939POPC   C1A63591   2.099  20.698   6.106
 4939POPC   D2A63592   1.823  20.528   6.428
 4939POPC   C3A63593   1.891  20.552   6.847
 4939POPC   C4A63594   2.076  20.646   7.237
 4939POPC   C1B63595   1.659  20.995   6.147
 4939POPC   C2B63596   1.546  20.939   6.610
 4939POPC   C3B63597   1.711  20.963   7.064
 4939POPC   C4B63598   1.751  20.888   7.562
 4940POPC   NC363599  43.640   7.291   5.378
 4940POPC   PO463600  44.220   7.478   5.515
 4940POPC   GL163601  43.832   7.547   5.787
 4940POPC   GL263602  43.523   7.299   5.870
 4940POPC   C1A63603  43.801   7.594   6.220
 4940POPC   D2A63604  43.683   7.406   6.610
 4940POPC   C3A63605  44.080   7.428   6.831
 4940POPC   C4A63606  44.360   7.562   7.172
 4940POPC   C1B63607  43.777   7.075   6.177
 4940POPC   C2B63608  43.960   6.938   6.559
 4940POPC   C3B63609  43.814   7.004   6.963
 4940POPC   C4B63610  43.669   7.403   7.155
 4941POPC   NC363611   4.461  26.504   5.582
 4941POPC   PO463612   4.765  27.152   5.401
 4941POPC   GL163613   4.580  26.976   5.814
 4941POPC   GL263614   4.225  26.936   5.907
 4941POPC   C1A63615   4.581  26.714   6.199
 4941POPC   D2A63616   4.638  26.857   6.605
 4941POPC   C3A63617   4.455  26.612   6.956
 4941POPC   C4A63618   4.641  26.608   7.389
 4941POPC   C1B63619   4.310  27.164   6.249
 4941POPC   C2B63620   4.269  27.322   6.635
 4941POPC   C3B63621   4.415  27.124   6.989
 4941POPC   C4B63622   4.181  26.877   7.294
 4942POPC   NC363623  13.294   4.348   5.446
 4942POPC   PO463624  12.630   4.063   5.324
 4942POPC   GL163625  12.693   4.260   5.736
 4942POPC   GL263626  13.010   4.072   5.782
 4942POPC   C1A63627  12.527   4.451   6.159
 4942POPC   D2A63628  12.444   4.281   6.601
 4942POPC   C3A63629  12.581   4.361   7.036
 4942POPC   C4A63630  12.733   4.234   7.472
 4942POPC   C1B63631  13.045   4.339   6.158
 4942POPC   C2B63632  13.033   4.432   6.606
 4942POPC   C3B63633  13.067   4.195   7.012
 4942POPC   C4B63634  13.239   4.264   7.447
 4943POPC   NC363635  19.895  19.192   5.481
 4943POPC   PO463636  19.335  18.814   5.340
 4943POPC   GL163637  19.581  18.894   5.762
 4943POPC   GL263638  19.931  18.913   5.895
 4943POPC   C1A63639  19.514  19.047   6.212
 4943POPC   D2A63640  19.487  18.808   6.613
 4943POPC   C3A63641  19.583  18.973   7.000
 4943POPC   C4A63642  19.799  19.296   7.169
 4943POPC   C1B63643  20.012  18.952   6.323
 4943POPC   C2B63644  19.897  19.181   6.657
 4943POPC   C3B63645  20.237  19.221   6.943
 4943POPC   C4B63646  20.233  19.062   7.350
 4944POPC   NC363647  27.843   4.807   5.553
 4944POPC   PO463648  27.875   5.490   5.598
 4944POPC   GL163649  27.742   5.327   5.958
 4944POPC   GL263650  27.623   4.975   6.006
 4944POPC   C1A63651  27.710   5.320   6.395
 4944POPC   D2A63652  27.735   4.992   6.619
 4944POPC   C3A63653  27.819   5.130   6.977
 4944POPC   C4A63654  27.963   4.993   7.301
 4944POPC   C1B63655  27.270   5.243   6.171
 4944POPC   C2B63656  27.210   5.346   6.593
 4944POPC   C3B63657  27.293   5.024   6.894
 4944POPC   C4B63658  27.474   4.834   7.255
 4945POPC   NC363659   0.916  14.770   5.298
 4945POPC   PO463660   1.502  15.137   5.360
 4945POPC   GL163661   1.294  15.190   5.775
 4945POPC   GL263662   1.008  14.974   5.769
 4945POPC   C1A63663   1.410  15.343   6.211
 4945POPC   D2A63664   1.214  15.575   6.539
 4945POPC   C3A63665   1.198  15.518   6.990
 4945POPC   C4A63666   1.349  15.331   7.385
 4945POPC   C1B63667   1.183  14.881   6.192
 4945POPC   C2B63668   1.193  15.064   6.614
 4945POPC   C3B63669   1.513  15.119   6.908
 4945POPC   C4B63670   1.637  14.823   7.182
 4946POPC   NC363671  39.714  34.335   5.397
 4946POPC   PO463672  40.367  34.427   5.389
 4946POPC   GL163673  40.188  34.458   5.818
 4946POPC   GL263674  40.389  34.271   6.082
 4946POPC   C1A63675  39.960  34.496   6.233
 4946POPC   D2A63676  39.917  34.484   6.694
 4946POPC   C3A63677  39.626  34.652   7.067
 4946POPC   C4A63678  39.540  34.808   7.514
 4946POPC   C1B63679  40.479  34.698   6.163
 4946POPC   C2B63680  40.295  34.807   6.523
 4946POPC   C3B63681  40.367  34.654   6.925
 4946POPC   C4B63682  40.079  34.435   7.156
 4947POPC   NC363683  40.879  37.661   5.379
 4947POPC   PO463684  41.015  38.340   5.577
 4947POPC   GL163685  41.063  37.933   5.885
 4947POPC   GL263686  40.898  37.590   5.881
 4947POPC   C1A63687  40.969  37.748   6.343
 4947POPC   D2A63688  40.699  37.467   6.586
 4947POPC   C3A63689  40.595  37.592   7.013
 4947POPC   C4A63690  40.800  37.736   7.413
 4947POPC   C1B63691  41.050  37.256   6.161
 4947POPC   C2B63692  41.109  37.150   6.608
 4947POPC   C3B63693  41.197  37.442   6.970
 4947POPC   C4B63694  41.253  37.485   7.474
 4948POPC   NC363695   2.201  12.364   5.427
 4948POPC   PO463696   1.873  11.787   5.387
 4948POPC   GL163697   2.037  11.983   5.780
 4948POPC   GL263698   1.894  12.347   5.835
 4948POPC   C1A63699   2.240  11.847   6.195
 4948POPC   D2A63700   2.329  11.824   6.656
 4948POPC   C3A63701   2.278  12.107   6.976
 4948POPC   C4A63702   2.135  11.858   7.342
 4948POPC   C1B63703   1.858  12.175   6.266
 4948POPC   C2B63704   1.838  12.059   6.693
 4948POPC   C3B63705   1.795  12.157   7.139
 4948POPC   C4B63706   1.929  12.282   7.556
 4949POPC   NC363707  36.928  27.834   5.413
 4949POPC   PO463708  37.044  27.201   5.351
 4949POPC   GL163709  37.055  27.422   5.762
 4949POPC   GL263710  36.725  27.435   5.774
 4949POPC   C1A63711  36.968  27.643   6.216
 4949POPC   D2A63712  36.726  27.891   6.599
 4949POPC   C3A63713  36.892  27.927   7.056
 4949POPC   C4A63714  37.159  27.601   7.251
 4949POPC   C1B63715  36.728  27.184   6.175
 4949POPC   C2B63716  36.711  27.372   6.599
 4949POPC   C3B63717  36.725  27.449   7.030
 4949POPC   C4B63718  36.863  27.207   7.396
 4950POPC   NC363719   8.101  25.213   5.097
 4950POPC   PO463720   8.525  24.793   5.360
 4950POPC   GL163721   8.244  24.899   5.740
 4950POPC   GL263722   8.152  25.280   5.760
 4950POPC   C1A63723   8.156  25.015   6.186
 4950POPC   D2A63724   8.186  25.200   6.604
 4950POPC   C3A63725   8.230  25.052   7.053
 4950POPC   C4A63726   8.227  25.265   7.488
 4950POPC   C1B63727   7.993  25.519   6.091
 4950POPC   C2B63728   7.870  25.593   6.515
 4950POPC   C3B63729   8.051  25.589   6.912
 4950POPC   C4B63730   8.146  25.729   7.295
 4951POPC   NC363731  41.901  26.786   5.390
 4951POPC   PO463732  41.344  27.171   5.487
 4951POPC   GL163733  41.616  26.942   5.822
 4951POPC   GL263734  41.489  26.644   6.001
 4951POPC   C1A63735  41.632  27.013   6.282
 4951POPC   D2A63736  41.776  26.833   6.627
 4951POPC   C3A63737  41.740  27.097   6.945
 4951POPC   C4A63738  41.845  26.914   7.320
 4951POPC   C1B63739  41.202  26.691   6.311
 4951POPC   C2B63740  41.244  26.804   6.723
 4951POPC   C3B63741  41.483  26.647   7.053
 4951POPC   C4B63742  41.292  26.437   7.383
 4952POPC   NC363743  41.922  33.966   5.376
 4952POPC   PO463744  42.492  33.704   5.122
 4952POPC   GL163745  42.393  33.713   5.651
 4952POPC   GL263746  42.044  33.695   5.786
 4952POPC   C1A63747  42.487  33.782   6.166
 4952POPC   D2A63748  42.649  33.973   6.618
 4952POPC   C3A63749  42.367  33.993   7.029
 4952POPC   C4A63750  42.428  33.818   7.429
 4952POPC   C1B63751  42.000  33.963   6.176
 4952POPC   C2B63752  42.154  33.880   6.586
 4952POPC   C3B63753  42.068  33.599   6.953
 4952POPC   C4B63754  41.952  33.642   7.381
 4953POPC   NC363755  38.632  40.370   5.443
 4953POPC   PO463756  37.956  40.321   5.479
 4953POPC   GL163757  38.177  40.490   5.839
 4953POPC   GL263758  38.510  40.460   5.922
 4953POPC   C1A63759  38.230  40.788   6.184
 4953POPC   D2A63760  38.464  40.801   6.582
 4953POPC   C3A63761  38.180  40.667   6.894
 4953POPC   C4A63762  38.223  40.830   7.279
 4953POPC   C1B63763  38.754  40.267   6.249
 4953POPC   C2B63764  38.755  40.332   6.709
 4953POPC   C3B63765  38.622  40.515   7.110
 4953POPC   C4B63766  38.563  40.566   7.576
 4954POPC   NC363767  32.112   9.310   5.627
 4954POPC   PO463768  32.602   8.804   5.360
 4954POPC   GL163769  32.409   8.864   5.792
 4954POPC   GL263770  32.094   8.936   5.969
 4954POPC   C1A63771  32.483   9.132   6.185
 4954POPC   D2A63772  32.235   8.983   6.533
 4954POPC   C3A63773  32.361   9.107   6.939
 4954POPC   C4A63774  32.350   8.920   7.355
 4954POPC   C1B63775  31.876   9.225   6.283
 4954POPC   C2B63776  31.914   9.326   6.752
 4954POPC   C3B63777  31.932   9.308   7.213
 4954POPC   C4B63778  31.943   9.162   7.657
 4955POPC   NC363779   9.491  30.220   5.383
 4955POPC   PO463780   9.874  29.664   5.397
 4955POPC   GL163781   9.908  30.000   5.712
 4955POPC   GL263782   9.585  29.949   5.861
 4955POPC   C1A63783   9.951  30.160   6.169
 4955POPC   D2A63784   9.729  30.017   6.532
 4955POPC   C3A63785   9.731  30.123   6.963
 4955POPC   C4A63786   9.809  29.900   7.326
 4955POPC   C1B63787   9.903  29.669   6.110
 4955POPC   C2B63788  10.154  29.747   6.454
 4955POPC   C3B63789  10.008  29.668   6.881
 4955POPC   C4B63790  10.278  29.707   7.235
 4956POPC   NC363791   7.865  14.609   5.653
 4956POPC   PO463792   7.637  14.024   5.509
 4956POPC   GL163793   7.430  14.320   5.763
 4956POPC   GL263794   7.164  14.565   5.738
 4956POPC   C1A63795   7.345  14.249   6.185
 4956POPC   D2A63796   7.520  14.085   6.538
 4956POPC   C3A63797   7.315  14.232   6.915
 4956POPC   C4A63798   7.366  14.150   7.314
 4956POPC   C1B63799   7.314  14.768   6.098
 4956POPC   C2B63800   7.324  14.854   6.533
 4956POPC   C3B63801   7.211  14.735   6.943
 4956POPC   C4B63802   7.344  14.664   7.343
 4957POPC   NC363803  24.892  38.194   5.536
 4957POPC   PO463804  25.523  38.409   5.405
 4957POPC   GL163805  25.269  38.514   5.798
 4957POPC   GL263806  25.576  38.673   5.917
 4957POPC   C1A63807  25.158  38.722   6.215
 4957POPC   D2A63808  25.377  38.681   6.635
 4957POPC   C3A63809  25.152  38.537   7.013
 4957POPC   C4A63810  24.966  38.739   7.357
 4957POPC   C1B63811  25.489  38.343   6.232
 4957POPC   C2B63812  25.612  38.225   6.644
 4957POPC   C3B63813  25.418  38.094   7.033
 4957POPC   C4B63814  25.506  38.069   7.461
 4958POPC   NC363815  39.461  17.213   5.671
 4958POPC   PO463816  39.101  16.778   5.238
 4958POPC   GL163817  39.086  16.828   5.737
 4958POPC   GL263818  38.761  16.965   5.844
 4958POPC   C1A63819  39.296  16.673   6.147
 4958POPC   D2A63820  39.598  16.790   6.479
 4958POPC   C3A63821  39.455  16.812   6.907
 4958POPC   C4A63822  39.228  16.591   7.211
 4958POPC   C1B63823  38.990  17.081   6.207
 4958POPC   C2B63824  39.044  16.910   6.595
 4958POPC   C3B63825  38.833  16.945   6.985
 4958POPC   C4B63826  39.037  17.029   7.361
 4959POPC   NC363827  22.902   1.416   5.060
 4959POPC   PO463828  22.985   2.106   5.331
 4959POPC   GL163829  23.089   1.968   5.778
 4959POPC   GL263830  23.211   1.600   5.774
 4959POPC   C1A63831  22.980   2.122   6.225
 4959POPC   D2A63832  22.760   2.087   6.626
 4959POPC   C3A63833  23.030   2.151   6.975
 4959POPC   C4A63834  23.018   2.045   7.363
 4959POPC   C1B63835  23.349   1.778   6.182
 4959POPC   C2B63836  23.328   1.951   6.607
 4959POPC   C3B63837  23.497   1.940   7.038
 4959POPC   C4B63838  23.441   1.711   7.402
 4960POPC   NC363839   0.998  29.580   5.292
 4960POPC   PO463840   0.984  30.289   5.236
 4960POPC   GL163841   0.957  30.104   5.682
 4960POPC   GL263842   0.921  29.737   5.780
 4960POPC   C1A63843   1.059  30.088   6.149
 4960POPC   D2A63844   1.318  30.232   6.516
 4960POPC   C3A63845   1.297  29.986   6.906
 4960POPC   C4A63846   1.009  30.080   7.221
 4960POPC   C1B63847   1.048  29.557   6.195
 4960POPC   C2B63848   1.227  29.544   6.620
 4960POPC   C3B63849   0.998  29.526   7.029
 4960POPC   C4B63850   0.790  29.673   7.455
 4961POPC   NC363851   2.110  32.536   5.414
 4961POPC   PO463852   1.588  32.187   5.472
 4961POPC   GL163853   1.901  32.243   5.775
 4961POPC   GL263854   1.664  32.427   5.926
 4961POPC   C1A63855   2.106  32.285   6.185
 4961POPC   D2A63856   1.900  32.258   6.589
 4961POPC   C3A63857   2.069  32.246   7.001
 4961POPC   C4A63858   1.789  32.410   7.268
 4961POPC   C1B63859   1.597  32.077   6.186
 4961POPC   C2B63860   1.447  31.987   6.606
 4961POPC   C3B63861   1.569  32.027   7.031
 4961POPC   C4B63862   1.841  31.885   7.393
 4962POPC   NC363863  33.512  37.958   5.381
 4962POPC   PO463864  33.840  37.441   5.603
 4962POPC   GL163865  34.012  37.617   5.946
 4962POPC   GL263866  34.121  37.968   5.878
 4962POPC   C1A63867  33.823  37.505   6.310
 4962POPC   D2A63868  33.850  37.406   6.723
 4962POPC   C3A63869  33.448  37.444   6.902
 4962POPC   C4A63870  33.414  37.586   7.295
 4962POPC   C1B63871  33.745  37.987   6.174
 4962POPC   C2B63872  33.590  37.872   6.600
 4962POPC   C3B63873  33.713  37.929   7.032
 4962POPC   C4B63874  33.876  38.134   7.401
 4963POPC   NC363875  26.103  21.679   5.211
 4963POPC   PO463876  25.825  21.066   5.419
 4963POPC   GL163877  25.787  21.457   5.655
 4963POPC   GL263878  26.136  21.580   5.717
 4963POPC   C1A63879  25.780  21.574   6.109
 4963POPC   D2A63880  25.625  21.401   6.500
 4963POPC   C3A63881  25.840  21.552   6.859
 4963POPC   C4A63882  26.124  21.266   7.021
 4963POPC   C1B63883  26.319  21.592   6.124
 4963POPC   C2B63884  26.258  21.547   6.547
 4963POPC   C3B63885  26.434  21.652   6.913
 4963POPC   C4B63886  26.283  21.694   7.325
 4964POPC   NC363887  10.099   4.368   5.390
 4964POPC   PO463888  10.689   4.186   5.181
 4964POPC   GL163889  10.560   4.202   5.632
 4964POPC   GL263890  10.267   4.012   5.766
 4964POPC   C1A63891  10.467   4.420   6.016
 4964POPC   D2A63892  10.609   4.369   6.433
 4964POPC   C3A63893  10.477   4.509   6.848
 4964POPC   C4A63894  10.756   4.525   7.203
 4964POPC   C1B63895  10.328   3.934   6.201
 4964POPC   C2B63896  10.261   4.068   6.636
 4964POPC   C3B63897  10.569   4.005   6.950
 4964POPC   C4B63898  10.361   3.887   7.301
 4965POPC   NC363899  13.159  40.401   5.485
 4965POPC   PO463900  13.617  40.861   5.146
 4965POPC   GL163901  13.602  40.824   5.636
 4965POPC   GL263902  13.872  40.695   5.830
 4965POPC   C1A63903  13.604  41.116   6.025
 4965POPC   D2A63904  13.569  41.216   6.468
 4965POPC   C3A63905  13.708  40.977   6.853
 4965POPC   C4A63906  13.758  40.963   7.293
 4965POPC   C1B63907  13.608  40.633   6.192
 4965POPC   C2B63908  13.366  40.746   6.518
 4965POPC   C3B63909  13.278  40.707   6.935
 4965POPC   C4B63910  13.589  40.501   7.154
 4966POPC   NC363911  30.084   0.128   5.181
 4966POPC   PO463912  29.855  44.568   5.463
 4966POPC   GL163913  29.798  44.587   5.912
 4966POPC   GL263914  30.127  44.562   5.977
 4966POPC   C1A63915  29.601  44.836   6.214
 4966POPC   D2A63916  29.382  44.699   6.540
 4966POPC   C3A63917  29.594  44.789   6.888
 4966POPC   C4A63918  29.614  44.568   7.243
 4966POPC   C1B63919  30.203  44.861   6.303
 4966POPC   C2B63920  30.371  44.951   6.726
 4966POPC   C3B63921  30.076  44.950   7.071
 4966POPC   C4B63922  30.057  44.845   7.494
 4967POPC   NC363923   5.322   6.127   5.308
 4967POPC   PO463924   5.041   5.520   5.442
 4967POPC   GL163925   5.165   5.818   5.758
 4967POPC   GL263926   5.390   5.582   5.884
 4967POPC   C1A63927   5.028   6.110   6.095
 4967POPC   D2A63928   4.969   6.267   6.529
 4967POPC   C3A63929   4.995   5.982   6.892
 4967POPC   C4A63930   4.907   5.921   7.341
 4967POPC   C1B63931   5.256   5.676   6.286
 4967POPC   C2B63932   4.951   5.529   6.575
 4967POPC   C3B63933   5.016   5.405   6.960
 4967POPC   C4B63934   5.204   5.519   7.343
 4968POPC   NC363935   5.999   9.705   5.372
 4968POPC   PO463936   5.326   9.702   5.365
 4968POPC   GL163937   5.568   9.586   5.783
 4968POPC   GL263938   5.944   9.656   5.865
 4968POPC   C1A63939   5.610   9.712   6.241
 4968POPC   D2A63940   5.790  10.035   6.488
 4968POPC   C3A63941   5.658   9.925   6.885
 4968POPC   C4A63942   5.531   9.510   7.037
 4968POPC   C1B63943   6.092   9.470   6.236
 4968POPC   C2B63944   5.912   9.512   6.640
 4968POPC   C3B63945   6.071   9.614   7.008
 4968POPC   C4B63946   6.257   9.792   7.335
 4969POPC   NC363947  12.511  18.974   5.493
 4969POPC   PO463948  13.145  18.854   5.504
 4969POPC   GL163949  12.903  19.098   5.830
 4969POPC   GL263950  12.542  19.266   5.889
 4969POPC   C1A63951  12.933  18.987   6.245
 4969POPC   D2A63952  13.257  18.916   6.547
 4969POPC   C3A63953  13.105  18.780   6.941
 4969POPC   C4A63954  12.925  19.073   7.188
 4969POPC   C1B63955  12.496  19.233   6.339
 4969POPC   C2B63956  12.707  19.108   6.706
 4969POPC   C3B63957  12.438  19.074   7.036
 4969POPC   C4B63958  12.507  18.940   7.454
 4970POPC   NC363959   6.541  31.212   5.667
 4970POPC   PO463960   6.627  30.582   5.352
 4970POPC   GL163961   6.615  30.670   5.785
 4970POPC   GL263962   6.890  30.857   5.860
 4970POPC   C1A63963   6.480  30.739   6.246
 4970POPC   D2A63964   6.342  30.925   6.678
 4970POPC   C3A63965   6.503  30.646   7.010
 4970POPC   C4A63966   6.808  30.299   7.025
 4970POPC   C1B63967   6.859  31.080   6.271
 4970POPC   C2B63968   6.869  31.035   6.740
 4970POPC   C3B63969   7.003  30.761   7.072
 4970POPC   C4B63970   7.116  30.837   7.518
 4971POPC   NC363971  36.460  13.581   5.574
 4971POPC   PO463972  37.091  13.359   5.383
 4971POPC   GL163973  36.946  13.597   5.777
 4971POPC   GL263974  36.759  13.947   5.794
 4971POPC   C1A63975  36.808  13.599   6.221
 4971POPC   D2A63976  36.513  13.498   6.565
 4971POPC   C3A63977  36.717  13.555   6.949
 4971POPC   C4A63978  36.861  13.368   7.308
 4971POPC   C1B63979  36.995  14.088   6.175
 4971POPC   C2B63980  37.054  13.894   6.587
 4971POPC   C3B63981  37.218  13.971   6.991
 4971POPC   C4B63982  37.232  13.751   7.337
 4972POPC   NC363983  41.486  36.127   5.426
 4972POPC   PO463984  41.942  36.715   5.405
 4972POPC   GL163985  41.783  36.441   5.770
 4972POPC   GL263986  41.742  36.067   5.861
 4972POPC   C1A63987  41.597  36.395   6.215
 4972POPC   D2A63988  41.806  36.314   6.623
 4972POPC   C3A63989  41.689  36.291   7.061
 4972POPC   C4A63990  41.649  36.623   7.380
 4972POPC   C1B63991  41.339  35.955   6.062
 4972POPC   C2B63992  41.167  36.029   6.474
 4972POPC   C3B63993  41.331  35.930   6.868
 4972POPC   C4B63994  41.246  36.067   7.271
 4973POPC   NC363995  41.300  43.829   5.408
 4973POPC   PO463996  41.836  43.735   5.724
 4973POPC   GL163997  41.511  44.002   5.900
 4973POPC   GL263998  41.178  44.121   5.801
 4973POPC   C1A63999  41.437  43.890   6.327
 4973POPC   D2A64000  41.824  43.795   6.520
 4973POPC   C3A64001  41.686  43.721   6.907
 4973POPC   C4A64002  41.863  43.713   7.300
 4973POPC   C1B64003  41.203  44.318   6.180
 4973POPC   C2B64004  41.061  44.226   6.582
 4973POPC   C3B64005  41.175  44.076   6.996
 4973POPC   C4B64006  41.359  43.768   7.292
 4974POPC   NC364007  21.567  30.706   5.471
 4974POPC   PO464008  20.897  30.922   5.365
 4974POPC   GL164009  21.145  30.826   5.789
 4974POPC   GL264010  21.502  30.882   5.930
 4974POPC   C1A64011  21.174  30.647   6.233
 4974POPC   D2A64012  21.370  30.760   6.619
 4974POPC   C3A64013  21.110  30.652   6.984
 4974POPC   C4A64014  21.214  30.535   7.413
 4974POPC   C1B64015  21.684  30.536   6.157
 4974POPC   C2B64016  21.818  30.444   6.591
 4974POPC   C3B64017  21.611  30.520   6.988
 4974POPC   C4B64018  21.541  30.884   7.204
 4975POPC   NC364019   9.066  41.207   5.324
 4975POPC   PO464020   8.733  40.632   5.516
 4975POPC   GL164021   8.892  40.928   5.806
 4975POPC   GL264022   9.283  41.032   5.750
 4975POPC   C1A64023   8.811  40.814   6.259
 4975POPC   D2A64024   8.711  40.575   6.600
 4975POPC   C3A64025   8.848  40.770   6.960
 4975POPC   C4A64026   8.739  40.706   7.376
 4975POPC   C1B64027   9.294  40.766   6.092
 4975POPC   C2B64028   9.282  40.725   6.527
 4975POPC   C3B64029   9.353  40.787   6.940
 4975POPC   C4B64030   9.301  40.829   7.368
 4976POPC   NC364031  22.228   7.289   5.325
 4976POPC   PO464032  21.747   7.436   5.735
 4976POPC   GL164033  22.087   7.229   5.962
 4976POPC   GL264034  22.396   7.118   5.777
 4976POPC   C1A64035  22.142   7.223   6.425
 4976POPC   D2A64036  21.986   7.471   6.806
 4976POPC   C3A64037  22.181   7.480   7.229
 4976POPC   C4A64038  21.946   7.643   7.648
 4976POPC   C1B64039  22.393   6.836   6.116
 4976POPC   C2B64040  22.503   6.861   6.537
 4976POPC   C3B64041  22.382   7.109   6.881
 4976POPC   C4B64042  22.515   7.108   7.299
 4977POPC   NC364043  43.877  16.616   5.036
 4977POPC   PO464044  44.131  16.974   5.624
 4977POPC   GL164045  43.792  16.834   5.841
 4977POPC   GL264046  43.663  16.493   5.820
 4977POPC   C1A64047  43.816  16.802   6.289
 4977POPC   D2A64048  44.115  16.890   6.617
 4977POPC   C3A64049  43.964  16.896   7.033
 4977POPC   C4A64050  44.066  16.754   7.442
 4977POPC   C1B64051  43.529  16.385   6.271
 4977POPC   C2B64052  43.664  16.549   6.719
 4977POPC   C3B64053  43.706  16.442   7.210
 4977POPC   C4B64054  43.913  16.344   7.676
 4978POPC   NC364055  28.431   9.607   5.504
 4978POPC   PO464056  28.090  10.159   5.368
 4978POPC   GL164057  28.010   9.829   5.718
 4978POPC   GL264058  28.038   9.450   5.785
 4978POPC   C1A64059  28.164   9.807   6.165
 4978POPC   D2A64060  28.142   9.868   6.627
 4978POPC   C3A64061  28.523   9.797   6.862
 4978POPC   C4A64062  28.612   9.945   7.264
 4978POPC   C1B64063  28.243   9.278   6.110
 4978POPC   C2B64064  28.398   9.436   6.483
 4978POPC   C3B64065  28.214   9.383   6.883
 4978POPC   C4B64066  28.432   9.457   7.256
 4979POPC   NC364067  13.695   0.668   5.452
 4979POPC   PO464068  13.616   0.017   5.509
 4979POPC   GL164069  13.710   0.022   5.963
 4979POPC   GL264070  13.931   0.310   6.030
 4979POPC   C1A64071  13.607   0.113   6.391
 4979POPC   D2A64072  13.454   0.494   6.610
 4979POPC   C3A64073  13.558   0.507   7.045
 4979POPC   C4A64074  13.800   0.181   7.252
 4979POPC   C1B64075  13.741   0.697   6.207
 4979POPC   C2B64076  13.773   0.912   6.602
 4979POPC   C3B64077  13.878   1.041   6.994
 4979POPC   C4B64078  13.798   0.840   7.360
 4980POPC   NC364079  21.766   4.018   5.272
 4980POPC   PO464080  21.087   4.153   5.268
 4980POPC   GL164081  21.280   4.200   5.696
 4980POPC   GL264082  21.407   4.498   5.879
 4980POPC   C1A64083  21.161   4.099   6.104
 4980POPC   D2A64084  21.193   4.014   6.525
 4980POPC   C3A64085  21.387   4.127   6.896
 4980POPC   C4A64086  21.136   4.173   7.234
 4980POPC   C1B64087  21.431   4.477   6.332
 4980POPC   C2B64088  21.638   4.542   6.734
 4980POPC   C3B64089  21.455   4.605   7.144
 4980POPC   C4B64090  21.192   4.635   7.478
 4981POPC   NC364091  32.696  40.536   5.533
 4981POPC   PO464092  32.301  41.036   5.481
 4981POPC   GL164093  32.221  40.813   5.866
 4981POPC   GL264094  32.117  40.451   5.792
 4981POPC   C1A64095  32.425  40.567   6.191
 4981POPC   D2A64096  32.571  40.483   6.573
 4981POPC   C3A64097  32.364  40.705   6.831
 4981POPC   C4A64098  32.312  40.930   7.187
 4981POPC   C1B64099  31.902  40.510   6.197
 4981POPC   C2B64100  31.930  40.718   6.591
 4981POPC   C3B64101  31.937  40.586   7.047
 4981POPC   C4B64102  32.021  40.651   7.531
 4982POPC   NC364103  10.723   5.407   5.459
 4982POPC   PO464104  10.377   4.801   5.324
 4982POPC   GL164105  10.420   5.075   5.727
 4982POPC   GL264106  10.207   5.372   5.772
 4982POPC   C1A64107  10.592   5.149   6.168
 4982POPC   D2A64108  10.651   4.883   6.551
 4982POPC   C3A64109  10.741   5.002   6.989
 4982POPC   C4A64110  10.585   5.021   7.434
 4982POPC   C1B64111  10.117   5.318   6.227
 4982POPC   C2B64112  10.357   5.325   6.640
 4982POPC   C3B64113  10.420   5.442   7.091
 4982POPC   C4B64114  10.196   5.360   7.489
 4983POPC   NC364115  29.188  40.502   5.447
 4983POPC   PO464116  28.735  39.938   5.435
 4983POPC   GL164117  28.883  39.979   5.861
 4983POPC   GL264118  29.138  40.260   5.912
 4983POPC   C1A64119  29.024  39.871   6.249
 4983POPC   D2A64120  29.070  40.142   6.594
 4983POPC   C3A64121  28.976  39.902   6.937
 4983POPC   C4A64122  29.067  39.914   7.353
 4983POPC   C1B64123  29.406  40.430   6.267
 4983POPC   C2B64124  29.340  40.580   6.710
 4983POPC   C3B64125  29.212  40.343   7.089
 4983POPC   C4B64126  29.323  40.294   7.559
 4984POPC   NC364127  36.688  13.126   5.248
 4984POPC   PO464128  36.749  12.510   5.438
 4984POPC   GL164129  36.784  12.715   5.853
 4984POPC   GL264130  36.927  13.027   5.729
 4984POPC   C1A64131  36.923  12.706   6.324
 4984POPC   D2A64132  37.111  12.431   6.676
 4984POPC   C3A64133  37.006  12.515   7.116
 4984POPC   C4A64134  36.753  12.776   7.443
 4984POPC   C1B64135  37.098  13.197   6.103
 4984POPC   C2B64136  36.937  13.187   6.542
 4984POPC   C3B64137  36.878  12.996   6.948
 4984POPC   C4B64138  37.178  12.971   7.292
 4985POPC   NC364139  39.158  37.719   5.449
 4985POPC   PO464140  39.786  37.356   5.501
 4985POPC   GL164141  39.448  37.422   5.818
 4985POPC   GL264142  39.067  37.403   5.835
 4985POPC   C1A64143  39.317  37.676   6.188
 4985POPC   D2A64144  39.200  37.941   6.546
 4985POPC   C3A64145  39.213  37.744   6.956
 4985POPC   C4A64146  39.343  37.740   7.360
 4985POPC   C1B64147  38.891  37.342   6.212
 4985POPC   C2B64148  39.106  37.399   6.594
 4985POPC   C3B64149  38.993  37.270   7.003
 4985POPC   C4B64150  39.071  37.330   7.410
 4986POPC   NC364151  34.456  12.799   5.029
 4986POPC   PO464152  34.661  12.956   5.641
 4986POPC   GL164153  34.477  12.862   5.952
 4986POPC   GL264154  34.253  13.180   5.912
 4986POPC   C1A64155  34.517  12.658   6.353
 4986POPC   D2A64156  34.378  12.424   6.677
 4986POPC   C3A64157  34.521  12.555   7.088
 4986POPC   C4A64158  34.589  12.928   7.243
 4986POPC   C1B64159  34.447  13.154   6.334
 4986POPC   C2B64160  34.557  13.019   6.721
 4986POPC   C3B64161  34.298  13.206   6.964
 4986POPC   C4B64162  34.319  13.363   7.351
 4987POPC   NC364163  15.825  33.222   5.112
 4987POPC   PO464164  16.134  32.703   5.290
 4987POPC   GL164165  16.004  32.940   5.692
 4987POPC   GL264166  16.241  33.155   5.876
 4987POPC   C1A64167  15.842  32.977   6.158
 4987POPC   D2A64168  15.797  33.166   6.602
 4987POPC   C3A64169  15.860  32.858   6.957
 4987POPC   C4A64170  15.861  32.842   7.413
 4987POPC   C1B64171  16.255  33.240   6.340
 4987POPC   C2B64172  16.280  33.058   6.754
 4987POPC   C3B64173  16.233  33.141   7.187
 4987POPC   C4B64174  16.614  33.239   7.408
 4988POPC   NC364175  33.942  42.556   5.423
 4988POPC   PO464176  34.101  42.009   5.681
 4988POPC   GL164177  33.780  42.265   5.847
 4988POPC   GL264178  33.585  41.995   5.992
 4988POPC   C1A64179  33.644  42.568   6.200
 4988POPC   D2A64180  33.572  42.723   6.658
 4988POPC   C3A64181  33.712  42.594   7.082
 4988POPC   C4A64182  33.891  42.554   7.493
 4988POPC   C1B64183  33.897  42.130   6.318
 4988POPC   C2B64184  33.813  42.243   6.733
 4988POPC   C3B64185  34.024  42.181   7.145
 4988POPC   C4B64186  33.886  41.879   7.438
 4989POPC   NC364187  11.674  16.030   5.485
 4989POPC   PO464188  12.328  15.810   5.210
 4989POPC   GL164189  12.156  15.917   5.625
 4989POPC   GL264190  12.280  16.214   5.755
 4989POPC   C1A64191  11.944  15.878   6.075
 4989POPC   D2A64192  11.823  15.721   6.507
 4989POPC   C3A64193  11.725  15.923   6.920
 4989POPC   C4A64194  11.731  15.767   7.379
 4989POPC   C1B64195  12.045  16.364   6.138
 4989POPC   C2B64196  12.037  16.216   6.565
 4989POPC   C3B64197  12.114  16.259   7.008
 4989POPC   C4B64198  12.233  15.984   7.312
 4990POPC   NC364199  25.186  29.547   5.445
 4990POPC   PO464200  25.495  29.021   5.621
 4990POPC   GL164201  25.304  29.256   5.915
 4990POPC   GL264202  25.421  29.598   5.926
 4990POPC   C1A64203  25.289  29.059   6.317
 4990POPC   D2A64204  25.074  28.905   6.659
 4990POPC   C3A64205  25.271  29.060   7.024
 4990POPC   C4A64206  25.216  29.074   7.439
 4990POPC   C1B64207  25.650  29.431   6.274
 4990POPC   C2B64208  25.595  29.274   6.695
 4990POPC   C3B64209  25.532  29.493   7.092
 4990POPC   C4B64210  25.571  29.432   7.550
 4991POPC   NC364211   6.892  42.443   5.161
 4991POPC   PO464212   6.675  42.015   5.593
 4991POPC   GL164213   6.631  42.406   5.761
 4991POPC   GL264214   6.893  42.641   5.649
 4991POPC   C1A64215   6.646  42.365   6.188
 4991POPC   D2A64216   6.933  42.314   6.489
 4991POPC   C3A64217   6.776  42.216   6.870
 4991POPC   C4A64218   6.512  42.319   7.199
 4991POPC   C1B64219   6.945  42.771   6.087
 4991POPC   C2B64220   7.032  42.816   6.516
 4991POPC   C3B64221   7.188  42.587   6.851
 4991POPC   C4B64222   6.926  42.616   7.150
 4992POPC   NC364223  40.238  16.628   5.439
 4992POPC   PO464224  39.600  16.775   5.510
 4992POPC   GL164225  39.916  16.983   5.765
 4992POPC   GL264226  40.198  17.133   5.592
 4992POPC   C1A64227  39.992  16.768   6.153
 4992POPC   D2A64228  40.132  16.528   6.476
 4992POPC   C3A64229  39.944  16.637   6.857
 4992POPC   C4A64230  40.178  16.487   7.169
 4992POPC   C1B64231  40.398  16.998   5.975
 4992POPC   C2B64232  40.426  16.965   6.408
 4992POPC   C3B64233  40.433  16.829   6.818
 4992POPC   C4B64234  40.243  17.010   7.187
 4993POPC   NC364235  40.889  19.695   5.238
 4993POPC   PO464236  40.589  20.212   5.601
 4993POPC   GL164237  40.848  20.014   5.882
 4993POPC   GL264238  40.912  19.678   5.856
 4993POPC   C1A64239  40.744  20.020   6.297
 4993POPC   D2A64240  40.731  20.233   6.665
 4993POPC   C3A64241  40.805  20.009   7.004
 4993POPC   C4A64242  40.617  19.630   7.124
 4993POPC   C1B64243  40.872  19.509   6.266
 4993POPC   C2B64244  40.997  19.718   6.638
 4993POPC   C3B64245  41.122  19.537   7.009
 4993POPC   C4B64246  40.971  19.356   7.384
 4994POPC   NC364247   9.272  43.319   5.468
 4994POPC   PO464248   8.596  43.185   5.513
 4994POPC   GL164249   8.844  43.108   5.874
 4994POPC   GL264250   9.132  42.918   5.794
 4994POPC   C1A64251   8.869  43.034   6.320
 4994POPC   D2A64252   8.649  42.834   6.637
 4994POPC   C3A64253   8.693  43.065   7.017
 4994POPC   C4A64254   8.951  43.160   7.365
 4994POPC   C1B64255   9.300  43.203   6.129
 4994POPC   C2B64256   9.375  43.068   6.562
 4994POPC   C3B64257   9.288  42.866   6.969
 4994POPC   C4B64258   9.404  42.996   7.366
 4995POPC   NC364259  34.344  35.755   5.436
 4995POPC   PO464260  34.594  35.060   5.421
 4995POPC   GL164261  34.513  35.349   5.728
 4995POPC   GL264262  34.160  35.347   5.736
 4995POPC   C1A64263  34.573  35.294   6.152
 4995POPC   D2A64264  34.500  35.070   6.508
 4995POPC   C3A64265  34.598  35.265   6.902
 4995POPC   C4A64266  34.657  35.296   7.335
 4995POPC   C1B64267  34.121  35.569   6.132
 4995POPC   C2B64268  34.313  35.539   6.533
 4995POPC   C3B64269  34.150  35.511   6.952
 4995POPC   C4B64270  34.288  35.647   7.375
 4996POPC   NC364271  19.550  14.357   5.446
 4996POPC   PO464272  20.177  14.646   5.396
 4996POPC   GL164273  19.965  14.447   5.778
 4996POPC   GL264274  19.843  14.074   5.783
 4996POPC   C1A64275  19.748  14.619   6.183
 4996POPC   D2A64276  19.425  14.475   6.481
 4996POPC   C3A64277  19.518  14.319   6.878
 4996POPC   C4A64278  19.819  14.453   7.220
 4996POPC   C1B64279  20.009  14.178   6.221
 4996POPC   C2B64280  19.974  14.370   6.639
 4996POPC   C3B64281  20.219  14.250   7.002
 4996POPC   C4B64282  20.239  14.199   7.418
 4997POPC   NC364283  34.279   5.847   5.370
 4997POPC   PO464284  34.738   6.330   5.458
 4997POPC   GL164285  34.569   6.010   5.788
 4997POPC   GL264286  34.437   5.637   5.803
 4997POPC   C1A64287  34.613   5.908   6.232
 4997POPC   D2A64288  34.468   6.093   6.620
 4997POPC   C3A64289  34.585   5.843   7.008
 4997POPC   C4A64290  34.831   5.775   7.391
 4997POPC   C1B64291  34.195   5.641   6.194
 4997POPC   C2B64292  34.386   5.559   6.592
 4997POPC   C3B64293  34.221   5.472   6.990
 4997POPC   C4B64294  34.335   5.588   7.433
 4998POPC   NC364295  41.205  34.179   5.322
 4998POPC   PO464296  41.585  33.628   5.363
 4998POPC   GL164297  41.526  33.816   5.764
 4998POPC   GL264298  41.668  34.129   5.815
 4998POPC   C1A64299  41.658  33.581   6.119
 4998POPC   D2A64300  41.773  33.552   6.537
 4998POPC   C3A64301  41.429  33.641   6.798
 4998POPC   C4A64302  41.483  33.699   7.215
 4998POPC   C1B64303  41.484  34.156   6.248
 4998POPC   C2B64304  41.676  34.043   6.626
 4998POPC   C3B64305  41.838  34.063   7.041
 4998POPC   C4B64306  41.625  34.138   7.423
 4999POPC   NC364307  30.501  43.853   5.416
 4999POPC   PO464308  31.131  43.577   5.374
 4999POPC   GL164309  30.846  43.663   5.751
 4999POPC   GL264310  30.644  43.969   5.886
 4999POPC   C1A64311  30.676  43.604   6.205
 4999POPC   D2A64312  30.523  43.822   6.570
 4999POPC   C3A64313  30.712  43.657   6.960
 4999POPC   C4A64314  31.069  43.593   7.222
 4999POPC   C1B64315  30.343  44.161   6.197
 4999POPC   C2B64316  30.250  44.271   6.637
 4999POPC   C3B64317  30.441  44.092   7.021
 4999POPC   C4B64318  30.779  44.047   7.297
 5000POPC   NC364319  12.268  36.621   5.446
 5000POPC   PO464320  11.663  36.699   5.239
 5000POPC   GL164321  11.891  36.956   5.639
 5000POPC   GL264322  12.273  36.981   5.790
 5000POPC   C1A64323  11.966  37.317   6.001
 5000POPC   D2A64324  12.145  37.231   6.442
 5000POPC   C3A64325  11.981  36.964   6.829
 5000POPC   C4A64326  11.956  36.943   7.319
 5000POPC   C1B64327  12.522  36.970   6.179
 5000POPC   C2B64328  12.447  36.859   6.650
 5000POPC   C3B64329  12.405  36.957   7.117
 5000POPC   C4B64330  12.345  36.726   7.569
 5001POPC   NC364331  32.987   0.968   5.475
 5001POPC   PO464332  33.360   1.575   5.661
 5001POPC   GL164333  32.982   1.361   5.819
 5001POPC   GL264334  33.157   1.103   5.931
 5001POPC   C1A64335  32.709   1.320   6.204
 5001POPC   D2A64336  32.644   1.570   6.590
 5001POPC   C3A64337  32.835   1.559   6.976
 5001POPC   C4A64338  33.057   1.511   7.368
 5001POPC   C1B64339  32.997   0.918   6.260
 5001POPC   C2B64340  32.928   1.073   6.658
 5001POPC   C3B64341  33.145   1.146   7.029
 5001POPC   C4B64342  33.129   1.001   7.441
 5002POPC   NC364343   5.558  18.398   5.393
 5002POPC   PO464344   4.974  17.973   5.298
 5002POPC   GL164345   5.217  18.074   5.684
 5002POPC   GL264346   5.138  18.423   5.698
 5002POPC   C1A64347   5.344  18.022   6.149
 5002POPC   D2A64348   5.158  18.064   6.594
 5002POPC   C3A64349   5.292  18.090   7.025
 5002POPC   C4A64350   5.041  18.191   7.401
 5002POPC   C1B64351   5.294  18.536   6.095
 5002POPC   C2B64352   5.337  18.593   6.534
 5002POPC   C3B64353   5.095  18.554   6.905
 5002POPC   C4B64354   5.318  18.601   7.270
 5003POPC   NC364355  30.112  34.980   5.472
 5003POPC   PO464356  29.814  35.587   5.334
 5003POPC   GL164357  30.078  35.454   5.697
 5003POPC   GL264358  29.788  35.432   5.858
 5003POPC   C1A64359  30.188  35.365   6.164
 5003POPC   D2A64360  30.183  35.529   6.611
 5003POPC   C3A64361  30.082  35.193   6.919
 5003POPC   C4A64362  29.848  35.171   7.308
 5003POPC   C1B64363  29.834  35.738   6.169
 5003POPC   C2B64364  29.666  35.769   6.567
 5003POPC   C3B64365  29.738  35.598   6.972
 5003POPC   C4B64366  30.097  35.616   7.233
 5004POPC   NC364367   5.455  19.952   5.556
 5004POPC   PO464368   6.042  19.599   5.485
 5004POPC   GL164369   5.963  19.816   5.896
 5004POPC   GL264370   5.627  19.708   5.966
 5004POPC   C1A64371   6.133  20.074   6.276
 5004POPC   D2A64372   5.988  20.190   6.720
 5004POPC   C3A64373   6.042  19.844   7.020
 5004POPC   C4A64374   5.752  19.707   7.307
 5004POPC   C1B64375   5.649  19.907   6.358
 5004POPC   C2B64376   5.573  19.836   6.787
 5004POPC   C3B64377   5.570  20.132   7.112
 5004POPC   C4B64378   5.564  20.155   7.569
 5005POPC   NC364379  19.713  22.443   5.282
 5005POPC   PO464380  19.561  21.852   5.334
 5005POPC   GL164381  19.807  22.102   5.681
 5005POPC   GL264382  20.046  22.426   5.680
 5005POPC   C1A64383  19.756  21.999   6.117
 5005POPC   D2A64384  19.478  21.916   6.466
 5005POPC   C3A64385  19.705  21.900   6.807
 5005POPC   C4A64386  19.894  21.950   7.192
 5005POPC   C1B64387  19.862  22.501   6.083
 5005POPC   C2B64388  19.781  22.341   6.507
 5005POPC   C3B64389  19.812  22.396   6.949
 5005POPC   C4B64390  19.984  22.661   7.265
 5006POPC   NC364391  23.589  40.360   5.409
 5006POPC   PO464392  23.337  40.995   5.357
 5006POPC   GL164393  23.465  41.031   5.782
 5006POPC   GL264394  23.691  40.738   5.792
 5006POPC   C1A64395  23.595  41.020   6.220
 5006POPC   D2A64396  23.781  40.787   6.567
 5006POPC   C3A64397  23.820  40.963   6.989
 5006POPC   C4A64398  23.522  40.878   7.316
 5006POPC   C1B64399  23.471  40.514   6.143
 5006POPC   C2B64400  23.547  40.325   6.549
 5006POPC   C3B64401  23.563  40.502   6.955
 5006POPC   C4B64402  23.441  40.377   7.348
 5007POPC   NC364403  20.077  13.509   5.503
 5007POPC   PO464404  19.547  13.898   5.187
 5007POPC   GL164405  19.564  13.613   5.672
 5007POPC   GL264406  19.793  13.356   5.906
 5007POPC   C1A64407  19.458  13.572   6.194
 5007POPC   D2A64408  19.715  13.398   6.575
 5007POPC   C3A64409  19.736  13.541   7.024
 5007POPC   C4A64410  19.762  13.967   7.148
 5007POPC   C1B64411  19.958  13.675   6.178
 5007POPC   C2B64412  20.093  13.781   6.594
 5007POPC   C3B64413  20.182  13.756   7.021
 5007POPC   C4B64414  20.096  13.677   7.474
 5008POPC   NC364415  42.625  37.294   5.351
 5008POPC   PO464416  43.250  37.634   5.242
 5008POPC   GL164417  42.972  37.691   5.594
 5008POPC   GL264418  43.173  37.463   5.785
 5008POPC   C1A64419  42.954  37.899   6.043
 5008POPC   D2A64420  43.194  37.904   6.457
 5008POPC   C3A64421  43.086  37.862   6.874
 5008POPC   C4A64422  43.200  37.888   7.301
 5008POPC   C1B64423  43.333  37.449   6.217
 5008POPC   C2B64424  43.217  37.414   6.646
 5008POPC   C3B64425  43.231  37.412   7.060
 5008POPC   C4B64426  43.656  37.392   7.099
 5009POPC   NC364427  15.446   7.940   5.402
 5009POPC   PO464428  14.827   8.117   5.327
 5009POPC   GL164429  14.972   8.178   5.749
 5009POPC   GL264430  15.317   8.108   5.869
 5009POPC   C1A64431  14.872   8.034   6.157
 5009POPC   D2A64432  14.853   8.281   6.524
 5009POPC   C3A64433  14.820   8.253   6.969
 5009POPC   C4A64434  15.179   8.111   7.203
 5009POPC   C1B64435  15.367   8.278   6.296
 5009POPC   C2B64436  15.482   8.226   6.747
 5009POPC   C3B64437  15.636   7.926   7.065
 5009POPC   C4B64438  15.706   8.007   7.512
 5010POPC   NC364439  22.446  10.073   5.474
 5010POPC   PO464440  22.095   9.601   5.651
 5010POPC   GL164441  22.251   9.726   5.988
 5010POPC   GL264442  22.220  10.076   5.925
 5010POPC   C1A64443  22.285   9.573   6.434
 5010POPC   D2A64444  21.912   9.470   6.679
 5010POPC   C3A64445  21.869   9.749   7.016
 5010POPC   C4A64446  22.145   9.864   7.330
 5010POPC   C1B64447  22.269  10.069   6.374
 5010POPC   C2B64448  22.330   9.967   6.822
 5010POPC   C3B64449  22.498  10.183   7.199
 5010POPC   C4B64450  22.461  10.168   7.688
 5011POPC   NC364451  35.361  41.437   5.348
 5011POPC   PO464452  34.977  41.908   5.715
 5011POPC   GL164453  35.328  41.639   5.840
 5011POPC   GL264454  35.321  41.240   5.804
 5011POPC   C1A64455  35.414  41.764   6.259
 5011POPC   D2A64456  35.207  41.987   6.607
 5011POPC   C3A64457  35.254  41.820   7.027
 5011POPC   C4A64458  35.520  41.657   7.375
 5011POPC   C1B64459  35.208  41.292   6.208
 5011POPC   C2B64460  35.272  41.445   6.621
 5011POPC   C3B64461  35.433  41.310   6.987
 5011POPC   C4B64462  35.111  41.352   7.293
 5012POPC   NC364463  38.680  23.785   5.481
 5012POPC   PO464464  38.095  23.556   5.490
 5012POPC   GL164465  38.301  23.690   5.859
 5012POPC   GL264466  37.999  23.842   5.947
 5012POPC   C1A64467  38.386  23.822   6.297
 5012POPC   D2A64468  38.401  23.595   6.688
 5012POPC   C3A64469  38.612  23.694   7.045
 5012POPC   C4A64470  38.612  23.645   7.462
 5012POPC   C1B64471  37.969  24.228   6.155
 5012POPC   C2B64472  38.107  24.353   6.569
 5012POPC   C3B64473  38.026  24.102   6.931
 5012POPC   C4B64474  38.165  23.807   7.236
 5013POPC   NC364475   9.958   4.958   5.170
 5013POPC   PO464476   9.666   5.540   5.352
 5013POPC   GL164477   9.700   5.206   5.696
 5013POPC   GL264478   9.930   4.891   5.682
 5013POPC   C1A64479   9.681   5.061   6.138
 5013POPC   D2A64480   9.651   5.174   6.562
 5013POPC   C3A64481   9.737   4.944   6.911
 5013POPC   C4A64482   9.589   5.043   7.288
 5013POPC   C1B64483  10.140   4.817   6.090
 5013POPC   C2B64484  10.109   4.886   6.538
 5013POPC   C3B64485  10.234   4.953   6.979
 5013POPC   C4B64486  10.073   4.856   7.369
 5014POPC   NC364487  37.518  28.188   5.366
 5014POPC   PO464488  37.988  28.580   5.414
 5014POPC   GL164489  37.684  28.472   5.764
 5014POPC   GL264490  37.712  28.109   5.847
 5014POPC   C1A64491  37.544  28.433   6.202
 5014POPC   D2A64492  37.805  28.515   6.562
 5014POPC   C3A64493  37.629  28.438   6.969
 5014POPC   C4A64494  37.727  28.718   7.289
 5014POPC   C1B64495  37.919  28.076   6.275
 5014POPC   C2B64496  37.791  28.020   6.708
 5014POPC   C3B64497  37.978  28.068   7.142
 5014POPC   C4B64498  38.093  27.901   7.552
 5015POPC   NC364499  35.517  17.495   5.411
 5015POPC   PO464500  34.926  17.284   5.530
 5015POPC   GL164501  35.241  17.492   5.839
 5015POPC   GL264502  35.347  17.849   5.804
 5015POPC   C1A64503  35.549  17.449   6.200
 5015POPC   D2A64504  35.768  17.408   6.615
 5015POPC   C3A64505  35.597  17.502   7.043
 5015POPC   C4A64506  35.425  17.248   7.418
 5015POPC   C1B64507  35.622  17.953   6.202
 5015POPC   C2B64508  35.754  17.911   6.680
 5015POPC   C3B64509  35.483  18.013   7.066
 5015POPC   C4B64510  35.206  18.139   7.422
 5016POPC   NC364511  14.594   3.763   5.536
 5016POPC   PO464512  14.203   3.212   5.398
 5016POPC   GL164513  14.418   3.339   5.755
 5016POPC   GL264514  14.264   3.097   5.899
 5016POPC   C1A64515  14.388   3.617   6.147
 5016POPC   D2A64516  14.547   3.568   6.572
 5016POPC   C3A64517  14.335   3.630   6.964
 5016POPC   C4A64518  14.532   3.915   7.244
 5016POPC   C1B64519  14.491   3.129   6.226
 5016POPC   C2B64520  14.430   3.062   6.600
 5016POPC   C3B64521  14.401   3.128   6.996
 5016POPC   C4B64522  14.365   3.104   7.410
 5017POPC   NC364523  35.799  10.778   5.470
 5017POPC   PO464524  35.287  10.372   5.510
 5017POPC   GL164525  35.433  10.584   5.850
 5017POPC   GL264526  35.221  10.853   5.907
 5017POPC   C1A64527  35.307  10.493   6.277
 5017POPC   D2A64528  35.106  10.336   6.622
 5017POPC   C3A64529  35.260  10.535   6.999
 5017POPC   C4A64530  35.397  10.506   7.456
 5017POPC   C1B64531  35.531  10.940   6.257
 5017POPC   C2B64532  35.590  10.924   6.723
 5017POPC   C3B64533  35.383  10.983   7.177
 5017POPC   C4B64534  34.918  10.927   7.155
 5018POPC   NC364535  43.816  24.788   5.537
 5018POPC   PO464536  43.613  24.284   5.145
 5018POPC   GL164537  43.754  24.290   5.660
 5018POPC   GL264538  44.085  24.474   5.839
 5018POPC   C1A64539  43.768  24.250   6.144
 5018POPC   D2A64540  43.881  24.556   6.492
 5018POPC   C3A64541  43.627  24.579   6.878
 5018POPC   C4A64542  43.499  24.263   7.190
 5018POPC   C1B64543  44.317  24.257   6.202
 5018POPC   C2B64544  44.339  24.092   6.626
 5018POPC   C3B64545  44.032  24.259   6.922
 5018POPC   C4B64546  44.075  24.672   7.072
 5019POPC   NC364547  17.252  13.565   5.623
 5019POPC   PO464548  16.818  13.695   5.162
 5019POPC   GL164549  16.750  13.698   5.620
 5019POPC   GL264550  16.760  13.353   5.658
 5019POPC   C1A64551  16.791  13.670   6.099
 5019POPC   D2A64552  16.685  13.770   6.536
 5019POPC   C3A64553  16.874  13.674   6.931
 5019POPC   C4A64554  16.852  13.962   7.275
 5019POPC   C1B64555  16.528  13.218   6.024
 5019POPC   C2B64556  16.563  13.275   6.475
 5019POPC   C3B64557  16.540  13.285   6.944
 5019POPC   C4B64558  16.609  13.199   7.392
 5020POPC   NC364559   2.720  24.066   5.184
 5020POPC   PO464560   2.924  23.419   5.139
 5020POPC   GL164561   2.739  23.547   5.578
 5020POPC   GL264562   2.817  23.884   5.658
 5020POPC   C1A64563   2.615  23.456   6.051
 5020POPC   D2A64564   2.848  23.532   6.464
 5020POPC   C3A64565   2.837  23.412   6.927
 5020POPC   C4A64566   2.684  23.637   7.303
 5020POPC   C1B64567   2.779  23.943   6.090
 5020POPC   C2B64568   2.971  24.237   6.365
 5020POPC   C3B64569   3.056  24.064   6.776
 5020POPC   C4B64570   2.986  24.045   7.210
 5021POPC   NC364571  39.175  20.261   5.369
 5021POPC   PO464572  39.611  20.875   5.466
 5021POPC   GL164573  39.405  20.591   5.803
 5021POPC   GL264574  39.046  20.493   5.806
 5021POPC   C1A64575  39.278  20.610   6.260
 5021POPC   D2A64576  39.469  20.639   6.678
 5021POPC   C3A64577  39.290  20.834   7.039
 5021POPC   C4A64578  38.956  20.691   7.334
 5021POPC   C1B64579  39.012  20.185   6.141
 5021POPC   C2B64580  39.217  20.121   6.520
 5021POPC   C3B64581  39.146  20.330   6.919
 5021POPC   C4B64582  39.438  20.404   7.229
 5022POPC   NC364583  43.683  38.460   5.278
 5022POPC   PO464584  44.307  38.340   5.066
 5022POPC   GL164585  44.005  38.122   5.495
 5022POPC   GL264586  43.893  38.421   5.735
 5022POPC   C1A64587  43.974  38.042   6.020
 5022POPC   D2A64588  44.159  38.297   6.363
 5022POPC   C3A64589  44.071  38.220   6.805
 5022POPC   C4A64590  44.120  38.541   7.119
 5022POPC   C1B64591  43.793  38.615   6.149
 5022POPC   C2B64592  43.861  38.662   6.600
 5022POPC   C3B64593  43.647  38.509   6.965
 5022POPC   C4B64594  43.463  38.344   7.338
 5023POPC   NC364595  23.360  32.494   5.481
 5023POPC   PO464596  23.082  33.078   5.350
 5023POPC   GL164597  22.865  33.037   5.770
 5023POPC   GL264598  23.071  32.771   5.868
 5023POPC   C1A64599  22.681  33.141   6.188
 5023POPC   D2A64600  22.697  32.973   6.620
 5023POPC   C3A64601  22.790  33.177   6.998
 5023POPC   C4A64602  22.729  33.206   7.438
 5023POPC   C1B64603  23.070  32.773   6.313
 5023POPC   C2B64604  23.129  32.670   6.755
 5023POPC   C3B64605  23.051  32.781   7.220
 5023POPC   C4B64606  23.197  32.834   7.649
 5024POPC   NC364607  40.729   0.530   5.321
 5024POPC   PO464608  40.871  44.931   5.529
 5024POPC   GL164609  40.684   0.263   5.794
 5024POPC   GL264610  40.669   0.630   5.825
 5024POPC   C1A64611  40.888   0.314   6.192
 5024POPC   D2A64612  41.231   0.175   6.459
 5024POPC   C3A64613  41.022   0.266   6.828
 5024POPC   C4A64614  40.852   0.466   7.198
 5024POPC   C1B64615  40.889   0.837   6.158
 5024POPC   C2B64616  40.951   0.696   6.566
 5024POPC   C3B64617  40.569   0.557   6.790
 5024POPC   C4B64618  40.435   0.828   7.143
 5025POPC   NC364619  23.968  39.549   5.134
 5025POPC   PO464620  23.402  39.274   5.439
 5025POPC   GL164621  23.478  39.076   5.800
 5025POPC   GL264622  23.783  38.855   5.759
 5025POPC   C1A64623  23.502  39.314   6.204
 5025POPC   D2A64624  23.785  39.431   6.525
 5025POPC   C3A64625  23.654  39.368   6.938
 5025POPC   C4A64626  24.033  39.338   7.158
 5025POPC   C1B64627  23.628  38.800   6.189
 5025POPC   C2B64628  23.558  38.957   6.602
 5025POPC   C3B64629  23.746  38.874   6.994
 5025POPC   C4B64630  23.689  39.039   7.384
 5026POPC   NC364631  26.391   0.701   5.521
 5026POPC   PO464632  27.008   0.411   5.376
 5026POPC   GL164633  26.882   0.656   5.740
 5026POPC   GL264634  26.714   0.345   5.831
 5026POPC   C1A64635  26.738   0.734   6.190
 5026POPC   D2A64636  26.627   0.522   6.595
 5026POPC   C3A64637  26.719   0.713   7.009
 5026POPC   C4A64638  26.739   0.472   7.416
 5026POPC   C1B64639  27.084   0.344   6.125
 5026POPC   C2B64640  27.119   0.217   6.552
 5026POPC   C3B64641  27.035   0.317   6.961
 5026POPC   C4B64642  27.249   0.369   7.318
 5027POPC   NC364643  32.205  44.117   5.144
 5027POPC   PO464644  32.531  43.829   5.703
 5027POPC   GL164645  32.159  43.945   5.937
 5027POPC   GL264646  31.987  43.621   6.028
 5027POPC   C1A64647  32.064  44.030   6.337
 5027POPC   D2A64648  31.958  43.859   6.717
 5027POPC   C3A64649  32.209  44.154   6.921
 5027POPC   C4A64650  32.514  44.300   7.248
 5027POPC   C1B64651  32.251  43.527   6.385
 5027POPC   C2B64652  32.255  43.377   6.809
 5027POPC   C3B64653  31.989  43.503   7.097
 5027POPC   C4B64654  32.192  43.815   7.300
 5028POPC   NC364655  20.362  41.829   5.147
 5028POPC   PO464656  20.826  41.467   5.397
 5028POPC   GL164657  20.682  41.397   5.809
 5028POPC   GL264658  20.971  41.256   5.874
 5028POPC   C1A64659  20.513  41.533   6.215
 5028POPC   D2A64660  20.123  41.531   6.470
 5028POPC   C3A64661  20.119  41.392   6.918
 5028POPC   C4A64662  20.282  41.609   7.290
 5028POPC   C1B64663  21.163  41.332   6.289
 5028POPC   C2B64664  20.883  41.485   6.609
 5028POPC   C3B64665  20.777  41.774   6.918
 5028POPC   C4B64666  20.778  41.735   7.329
 5029POPC   NC364667  28.602  33.346   5.456
 5029POPC   PO464668  28.724  32.718   5.412
 5029POPC   GL164669  28.604  32.888   5.826
 5029POPC   GL264670  28.294  32.750   5.778
 5029POPC   C1A64671  28.571  33.034   6.300
 5029POPC   D2A64672  28.451  33.014   6.764
 5029POPC   C3A64673  28.732  33.097   7.142
 5029POPC   C4A64674  28.699  32.974   7.596
 5029POPC   C1B64675  28.320  32.600   6.209
 5029POPC   C2B64676  28.046  32.618   6.577
 5029POPC   C3B64677  28.146  32.621   7.019
 5029POPC   C4B64678  28.262  32.965   7.287
 5030POPC   NC364679  35.102  40.496   5.322
 5030POPC   PO464680  35.504  40.968   5.359
 5030POPC   GL164681  35.329  40.728   5.744
 5030POPC   GL264682  35.170  40.408   5.813
 5030POPC   C1A64683  35.109  40.786   6.154
 5030POPC   D2A64684  35.246  40.932   6.557
 5030POPC   C3A64685  35.093  40.854   6.951
 5030POPC   C4A64686  35.334  40.910   7.304
 5030POPC   C1B64687  35.413  40.405   6.222
 5030POPC   C2B64688  35.361  40.449   6.672
 5030POPC   C3B64689  35.323  40.429   7.116
 5030POPC   C4B64690  35.088  40.471   7.486
 5031POPC   NC364691  28.956  44.588   5.409
 5031POPC   PO464692  29.423   0.131   5.402
 5031POPC   GL164693  29.308  44.814   5.767
 5031POPC   GL264694  29.369  44.455   5.681
 5031POPC   C1A64695  29.019  44.696   6.162
 5031POPC   D2A64696  28.892  44.880   6.581
 5031POPC   C3A64697  29.065  44.748   6.976
 5031POPC   C4A64698  29.196  44.759   7.437
 5031POPC   C1B64699  29.332  44.303   6.134
 5031POPC   C2B64700  29.071  44.301   6.566
 5031POPC   C3B64701  29.241  44.273   7.015
 5031POPC   C4B64702  29.460  44.111   7.407
 5032POPC   NC364703  31.242  21.797   5.552
 5032POPC   PO464704  31.938  21.876   5.646
 5032POPC   GL164705  31.608  21.973   5.898
 5032POPC   GL264706  31.474  22.259   5.726
 5032POPC   C1A64707  31.298  21.977   6.238
 5032POPC   D2A64708  31.135  21.931   6.622
 5032POPC   C3A64709  31.448  21.957   6.910
 5032POPC   C4A64710  31.406  21.840   7.305
 5032POPC   C1B64711  31.533  22.431   6.137
 5032POPC   C2B64712  31.495  22.341   6.565
 5032POPC   C3B64713  31.399  22.484   6.944
 5032POPC   C4B64714  31.612  22.301   7.255
 5033POPC   NC364715  13.705  39.879   5.594
 5033POPC   PO464716  13.606  39.186   5.354
 5033POPC   GL164717  13.444  39.155   5.787
 5033POPC   GL264718  13.122  39.379   5.825
 5033POPC   C1A64719  13.744  39.094   6.137
 5033POPC   D2A64720  14.043  39.170   6.467
 5033POPC   C3A64721  13.919  39.103   6.874
 5033POPC   C4A64722  13.743  39.206   7.265
 5033POPC   C1B64723  13.439  39.525   6.142
 5033POPC   C2B64724  13.541  39.354   6.534
 5033POPC   C3B64725  13.399  39.386   6.922
 5033POPC   C4B64726  13.226  39.226   7.286
 5034POPC   NC364727  28.706   8.680   5.377
 5034POPC   PO464728  28.805   8.105   5.061
 5034POPC   GL164729  28.967   8.241   5.505
 5034POPC   GL264730  29.319   8.196   5.616
 5034POPC   C1A64731  28.985   8.314   5.974
 5034POPC   D2A64732  28.936   8.401   6.432
 5034POPC   C3A64733  29.087   8.396   6.847
 5034POPC   C4A64734  28.964   8.219   7.230
 5034POPC   C1B64735  29.438   8.061   6.057
 5034POPC   C2B64736  29.480   8.177   6.502
 5034POPC   C3B64737  29.476   8.049   6.923
 5034POPC   C4B64738  29.534   8.181   7.333
 5035POPC   NC364739  30.185  32.716   5.530
 5035POPC   PO464740  29.659  33.032   5.400
 5035POPC   GL164741  29.969  33.238   5.740
 5035POPC   GL264742  30.254  33.050   5.930
 5035POPC   C1A64743  29.941  33.338   6.216
 5035POPC   D2A64744  29.772  33.447   6.633
 5035POPC   C3A64745  29.981  33.297   7.025
 5035POPC   C4A64746  29.645  33.318   7.302
 5035POPC   C1B64747  30.054  32.829   6.251
 5035POPC   C2B64748  29.982  32.925   6.673
 5035POPC   C3B64749  29.948  32.768   7.083
 5035POPC   C4B64750  30.131  32.544   7.431
 5036POPC   NC364751  29.586  27.587   5.379
 5036POPC   PO464752  28.928  27.749   5.284
 5036POPC   GL164753  28.927  27.618   5.711
 5036POPC   GL264754  29.218  27.440   5.727
 5036POPC   C1A64755  29.023  27.758   6.132
 5036POPC   D2A64756  28.747  27.823   6.503
 5036POPC   C3A64757  28.940  27.734   6.895
 5036POPC   C4A64758  28.934  27.803   7.312
 5036POPC   C1B64759  29.171  27.250   6.107
 5036POPC   C2B64760  29.180  27.426   6.506
 5036POPC   C3B64761  29.310  27.305   6.902
 5036POPC   C4B64762  29.073  27.326   7.250
 5037POPC   NC364763  10.970  15.122   5.392
 5037POPC   PO464764  11.350  15.676   5.366
 5037POPC   GL164765  11.354  15.332   5.788
 5037POPC   GL264766  11.134  15.023   5.875
 5037POPC   C1A64767  11.371  15.294   6.299
 5037POPC   D2A64768  11.361  15.580   6.708
 5037POPC   C3A64769  11.232  15.442   7.120
 5037POPC   C4A64770  11.441  15.304   7.522
 5037POPC   C1B64771  10.932  15.023   6.308
 5037POPC   C2B64772  11.018  15.164   6.737
 5037POPC   C3B64773  11.063  14.957   7.142
 5037POPC   C4B64774  11.135  14.873   7.574
 5038POPC   NC364775  10.489  36.957   5.388
 5038POPC   PO464776  10.941  36.519   5.687
 5038POPC   GL164777  10.702  36.897   5.896
 5038POPC   GL264778  10.374  36.988   5.907
 5038POPC   C1A64779  10.659  37.047   6.354
 5038POPC   D2A64780  10.775  36.739   6.649
 5038POPC   C3A64781  10.721  36.858   7.074
 5038POPC   C4A64782  10.498  36.807   7.448
 5038POPC   C1B64783  10.281  36.712   6.283
 5038POPC   C2B64784  10.291  36.849   6.737
 5038POPC   C3B64785  10.196  37.074   7.117
 5038POPC   C4B64786   9.976  36.953   7.460
 5039POPC   NC364787   1.111  40.695   5.370
 5039POPC   PO464788   1.514  41.256   5.420
 5039POPC   GL164789   1.479  40.933   5.779
 5039POPC   GL264790   1.166  40.753   5.866
 5039POPC   C1A64791   1.325  41.052   6.233
 5039POPC   D2A64792   1.085  40.894   6.601
 5039POPC   C3A64793   1.267  40.666   6.929
 5039POPC   C4A64794   1.311  41.054   7.126
 5039POPC   C1B64795   0.943  40.604   6.221
 5039POPC   C2B64796   1.030  40.366   6.565
 5039POPC   C3B64797   0.824  40.359   6.957
 5039POPC   C4B64798   0.874  40.700   7.252
 5040POPC   NC364799  27.931  22.345   5.451
 5040POPC   PO464800  27.347  21.932   5.317
 5040POPC   GL164801  27.482  22.192   5.711
 5040POPC   GL264802  27.777  22.052   5.891
 5040POPC   C1A64803  27.567  22.455   6.123
 5040POPC   D2A64804  27.790  22.442   6.539
 5040POPC   C3A64805  27.802  22.095   6.863
 5040POPC   C4A64806  27.596  21.909   7.243
 5040POPC   C1B64807  27.946  21.847   6.289
 5040POPC   C2B64808  28.011  21.629   6.704
 5040POPC   C3B64809  28.057  21.736   7.154
 5040POPC   C4B64810  27.998  22.171   7.396
 5041POPC   NC364811  37.320  33.492   5.405
 5041POPC   PO464812  37.978  33.708   5.302
 5041POPC   GL164813  37.651  33.872   5.583
 5041POPC   GL264814  37.832  34.099   5.812
 5041POPC   C1A64815  37.487  33.807   6.034
 5041POPC   D2A64816  37.629  33.647   6.459
 5041POPC   C3A64817  37.571  33.877   6.829
 5041POPC   C4A64818  37.550  33.695   7.219
 5041POPC   C1B64819  37.980  33.951   6.219
 5041POPC   C2B64820  38.059  33.910   6.661
 5041POPC   C3B64821  38.022  33.685   7.047
 5041POPC   C4B64822  38.195  33.613   7.464
 5042POPC   NC364823   1.420  30.450   5.236
 5042POPC   PO464824   1.061  30.986   5.394
 5042POPC   GL164825   1.139  30.604   5.682
 5042POPC   GL264826   1.477  30.423   5.780
 5042POPC   C1A64827   1.117  30.604   6.149
 5042POPC   D2A64828   1.063  30.868   6.529
 5042POPC   C3A64829   0.930  30.716   6.932
 5042POPC   C4A64830   0.883  30.940   7.327
 5042POPC   C1B64831   1.641  30.552   6.220
 5042POPC   C2B64832   1.550  30.683   6.669
 5042POPC   C3B64833   1.387  30.480   7.045
 5042POPC   C4B64834   1.175  30.506   7.451
 5043POPC   NC364835  44.951   6.016   5.589
 5043POPC   PO464836  44.369   5.761   5.481
 5043POPC   GL164837  44.508   5.926   5.836
 5043POPC   GL264838  44.214   6.108   5.877
 5043POPC   C1A64839  44.861   5.861   6.183
 5043POPC   D2A64840  44.880   5.779   6.604
 5043POPC   C3A64841  44.884   6.131   6.831
 5043POPC   C4A64842  44.892   6.048   7.246
 5043POPC   C1B64843  44.426   6.117   6.279
 5043POPC   C2B64844  44.407   5.964   6.692
 5043POPC   C3B64845  44.399   5.832   7.121
 5043POPC   C4B64846  44.446   5.967   7.543
 5044POPC   NC364847  12.188  27.968   4.811
 5044POPC   PO464848  12.143  28.557   5.229
 5044POPC   GL164849  12.152  28.519   5.659
 5044POPC   GL264850  11.821  28.391   5.701
 5044POPC   C1A64851  12.168  28.474   6.116
 5044POPC   D2A64852  11.988  28.421   6.543
 5044POPC   C3A64853  12.254  28.629   6.850
 5044POPC   C4A64854  12.357  28.804   7.235
 5044POPC   C1B64855  11.642  28.459   6.120
 5044POPC   C2B64856  11.484  28.546   6.534
 5044POPC   C3B64857  11.618  28.375   6.925
 5044POPC   C4B64858  11.880  28.547   7.201
 5045POPC   NC364859  20.693  26.576   5.346
 5045POPC   PO464860  20.416  27.198   5.365
 5045POPC   GL164861  20.557  27.065   5.746
 5045POPC   GL264862  20.912  27.063   5.658
 5045POPC   C1A64863  20.459  27.109   6.203
 5045POPC   D2A64864  20.374  27.256   6.637
 5045POPC   C3A64865  20.446  26.928   6.913
 5045POPC   C4A64866  20.233  26.648   7.186
 5045POPC   C1B64867  20.857  26.779   6.043
 5045POPC   C2B64868  20.760  26.770   6.493
 5045POPC   C3B64869  20.953  26.902   6.911
 5045POPC   C4B64870  20.825  27.033   7.298
 5046POPC   NC364871  40.530  34.913   5.400
 5046POPC   PO464872  41.077  35.248   5.261
 5046POPC   GL164873  40.993  35.172   5.715
 5046POPC   GL264874  40.642  35.136   5.850
 5046POPC   C1A64875  40.994  35.396   6.147
 5046POPC   D2A64876  41.151  35.220   6.555
 5046POPC   C3A64877  40.907  35.236   6.947
 5046POPC   C4A64878  40.923  35.675   7.080
 5046POPC   C1B64879  40.501  35.231   6.287
 5046POPC   C2B64880  40.440  35.258   6.748
 5046POPC   C3B64881  40.430  35.076   7.179
 5046POPC   C4B64882  40.525  34.942   7.648
 5047POPC   NC364883  17.817  40.208   5.484
 5047POPC   PO464884  17.367  39.814   5.251
 5047POPC   GL164885  17.352  39.846   5.726
 5047POPC   GL264886  17.296  40.196   5.797
 5047POPC   C1A64887  17.626  39.948   6.121
 5047POPC   D2A64888  17.887  40.088   6.499
 5047POPC   C3A64889  17.676  40.162   6.896
 5047POPC   C4A64890  17.697  39.923   7.244
 5047POPC   C1B64891  17.117  40.136   6.210
 5047POPC   C2B64892  17.264  40.231   6.612
 5047POPC   C3B64893  17.132  40.189   7.032
 5047POPC   C4B64894  17.209  39.827   7.293
 5048POPC   NC364895  24.586  15.428   5.341
 5048POPC   PO464896  24.736  14.832   5.425
 5048POPC   GL164897  24.481  15.119   5.750
 5048POPC   GL264898  24.320  15.477   5.775
 5048POPC   C1A64899  24.612  15.328   6.161
 5048POPC   D2A64900  24.384  15.369   6.548
 5048POPC   C3A64901  24.541  15.305   6.917
 5048POPC   C4A64902  24.443  15.600   7.151
 5048POPC   C1B64903  24.076  15.379   6.152
 5048POPC   C2B64904  23.967  15.079   6.516
 5048POPC   C3B64905  24.120  14.947   6.934
 5048POPC   C4B64906  24.253  15.145   7.325
 5049POPC   NC364907  23.270  24.336   5.532
 5049POPC   PO464908  22.678  24.628   5.500
 5049POPC   GL164909  22.865  24.373   5.843
 5049POPC   GL264910  22.895  24.694   6.004
 5049POPC   C1A64911  23.123  24.328   6.247
 5049POPC   D2A64912  23.015  24.696   6.516
 5049POPC   C3A64913  23.050  24.652   6.955
 5049POPC   C4A64914  23.169  24.246   7.087
 5049POPC   C1B64915  22.628  24.362   6.295
 5049POPC   C2B64916  22.783  24.214   6.702
 5049POPC   C3B64917  22.663  24.301   7.121
 5049POPC   C4B64918  22.639  24.674   7.299
 5050POPC   NC364919  24.422  16.301   5.551
 5050POPC   PO464920  24.859  15.823   5.369
 5050POPC   GL164921  24.626  15.886   5.793
 5050POPC   GL264922  24.696  16.203   5.962
 5050POPC   C1A64923  24.422  15.799   6.238
 5050POPC   D2A64924  24.300  15.862   6.702
 5050POPC   C3A64925  24.644  16.038   7.012
 5050POPC   C4A64926  24.708  15.871   7.465
 5050POPC   C1B64927  24.304  16.298   6.196
 5050POPC   C2B64928  24.296  16.386   6.618
 5050POPC   C3B64929  24.165  16.279   7.002
 5050POPC   C4B64930  24.272  16.061   7.355
 5051POPC   NC364931   5.544  44.019   5.198
 5051POPC   PO464932   6.111  43.948   5.610
 5051POPC   GL164933   6.099  43.776   6.005
 5051POPC   GL264934   6.144  43.420   5.896
 5051POPC   C1A64935   5.787  43.850   6.342
 5051POPC   D2A64936   5.702  44.191   6.647
 5051POPC   C3A64937   5.842  44.066   7.055
 5051POPC   C4A64938   5.594  43.744   7.306
 5051POPC   C1B64939   6.071  43.402   6.371
 5051POPC   C2B64940   5.927  43.614   6.779
 5051POPC   C3B64941   6.060  43.626   7.205
 5051POPC   C4B64942   5.954  43.513   7.658
 5052POPC   NC364943   6.477  44.669   5.468
 5052POPC   PO464944   7.018   0.150   5.405
 5052POPC   GL164945   6.854  44.943   5.790
 5052POPC   GL264946   6.872  44.567   5.831
 5052POPC   C1A64947   6.510  44.855   6.105
 5052POPC   D2A64948   6.426  44.585   6.456
 5052POPC   C3A64949   6.672  44.722   6.823
 5052POPC   C4A64950   6.451  44.903   7.175
 5052POPC   C1B64951   7.073  44.343   6.191
 5052POPC   C2B64952   7.230  44.246   6.656
 5052POPC   C3B64953   7.064  44.363   7.078
 5052POPC   C4B64954   6.645  44.437   7.255
 5053POPC   NC364955  19.161  15.429   5.279
 5053POPC   PO464956  18.561  15.114   5.453
 5053POPC   GL164957  18.833  15.003   5.828
 5053POPC   GL264958  19.189  15.125   5.786
 5053POPC   C1A64959  18.971  15.075   6.262
 5053POPC   D2A64960  19.045  15.345   6.607
 5053POPC   C3A64961  18.969  15.298   7.023
 5053POPC   C4A64962  18.826  15.184   7.427
 5053POPC   C1B64963  19.252  15.468   6.099
 5053POPC   C2B64964  19.483  15.549   6.502
 5053POPC   C3B64965  19.493  15.300   6.903
 5053POPC   C4B64966  19.369  15.336   7.342
 5054POPC   NC364967  32.553  32.512   5.276
 5054POPC   PO464968  31.937  32.202   5.491
 5054POPC   GL164969  32.161  32.147   5.825
 5054POPC   GL264970  32.501  32.236   5.717
 5054POPC   C1A64971  32.057  32.226   6.236
 5054POPC   D2A64972  31.931  32.411   6.612
 5054POPC   C3A64973  32.152  32.334   6.954
 5054POPC   C4A64974  32.171  32.512   7.361
 5054POPC   C1B64975  32.609  32.405   6.107
 5054POPC   C2B64976  32.518  32.335   6.546
 5054POPC   C3B64977  32.645  32.222   6.953
 5054POPC   C4B64978  32.677  32.465   7.309
 5055POPC   NC364979  10.187   7.975   5.497
 5055POPC   PO464980   9.501   8.052   5.348
 5055POPC   GL164981   9.541   8.224   5.796
 5055POPC   GL264982   9.898   8.193   5.858
 5055POPC   C1A64983   9.606   8.150   6.273
 5055POPC   D2A64984   9.474   7.985   6.695
 5055POPC   C3A64985   9.511   8.289   7.038
 5055POPC   C4A64986   9.822   8.366   7.345
 5055POPC   C1B64987   9.992   7.828   6.168
 5055POPC   C2B64988  10.013   7.958   6.619
 5055POPC   C3B64989   9.919   7.932   7.057
 5055POPC   C4B64990  10.214   7.994   7.403
 5056POPC   NC364991  39.208  38.791   5.314
 5056POPC   PO464992  39.483  38.172   5.442
 5056POPC   GL164993  39.278  38.486   5.752
 5056POPC   GL264994  38.933  38.532   5.751
 5056POPC   C1A64995  39.283  38.679   6.146
 5056POPC   D2A64996  39.277  38.451   6.533
 5056POPC   C3A64997  39.183  38.605   6.936
 5056POPC   C4A64998  39.498  38.628   7.236
 5056POPC   C1B64999  38.979  38.269   6.133
 5056POPC   C2B65000  38.812  38.295   6.553
 5056POPC   C3B65001  38.921  38.157   6.952
 5056POPC   C4B65002  39.184  38.199   7.291
 5057POPC   NC365003  27.899  30.255   5.448
 5057POPC   PO465004  27.487  29.624   5.462
 5057POPC   GL165005  27.551  29.953   5.752
 5057POPC   GL265006  27.737  29.693   5.945
 5057POPC   C1A65007  27.667  30.151   6.139
 5057POPC   D2A65008  27.784  29.887   6.472
 5057POPC   C3A65009  27.762  30.093   6.841
 5057POPC   C4A65010  27.840  30.195   7.250
 5057POPC   C1B65011  27.598  29.436   6.295
 5057POPC   C2B65012  27.721  29.422   6.719
 5057POPC   C3B65013  27.644  29.645   7.072
 5057POPC   C4B65014  27.269  29.537   7.216
 5058POPC   NC365015  28.491  42.736   5.376
 5058POPC   PO465016  27.883  43.038   5.386
 5058POPC   GL165017  28.229  43.097   5.714
 5058POPC   GL265018  28.431  43.420   5.755
 5058POPC   C1A65019  28.365  43.064   6.171
 5058POPC   D2A65020  28.363  43.073   6.639
 5058POPC   C3A65021  28.311  42.717   6.913
 5058POPC   C4A65022  28.579  42.718   7.272
 5058POPC   C1B65023  28.688  43.530   6.111
 5058POPC   C2B65024  28.601  43.518   6.542
 5058POPC   C3B65025  28.518  43.450   6.967
 5058POPC   C4B65026  28.241  43.136   7.163
 5059POPC   NC365027  39.928  37.969   5.420
 5059POPC   PO465028  40.463  37.638   5.172
 5059POPC   GL165029  40.421  37.716   5.679
 5059POPC   GL265030  40.062  37.691   5.812
 5059POPC   C1A65031  40.421  37.634   6.168
 5059POPC   D2A65032  40.172  37.585   6.588
 5059POPC   C3A65033  40.160  37.891   6.957
 5059POPC   C4A65034  40.294  37.804   7.395
 5059POPC   C1B65035  39.840  37.767   6.210
 5059POPC   C2B65036  39.626  37.638   6.609
 5059POPC   C3B65037  39.731  37.646   7.049
 5059POPC   C4B65038  39.800  37.730   7.512
 5060POPC   NC365039  28.086  43.463   5.356
 5060POPC   PO465040  28.547  43.848   5.155
 5060POPC   GL165041  28.533  43.926   5.637
 5060POPC   GL265042  28.316  44.218   5.652
 5060POPC   C1A65043  28.388  43.936   6.114
 5060POPC   D2A65044  28.565  44.022   6.535
 5060POPC   C3A65045  28.375  43.953   6.885
 5060POPC   C4A65046  28.516  43.857   7.268
 5060POPC   C1B65047  28.080  44.336   6.034
 5060POPC   C2B65048  28.064  44.204   6.469
 5060POPC   C3B65049  28.063  44.337   6.873
 5060POPC   C4B65050  28.272  44.444   7.200
 5061POPC   NC365051  31.882  31.080   5.371
 5061POPC   PO465052  31.630  30.510   5.470
 5061POPC   GL165053  31.546  30.883   5.721
 5061POPC   GL265054  31.221  31.065   5.670
 5061POPC   C1A65055  31.707  30.874   6.137
 5061POPC   D2A65056  31.858  30.716   6.523
 5061POPC   C3A65057  31.586  30.585   6.804
 5061POPC   C4A65058  31.628  30.669   7.223
 5061POPC   C1B65059  31.221  31.037   6.136
 5061POPC   C2B65060  31.329  30.977   6.593
 5061POPC   C3B65061  31.109  30.683   6.920
 5061POPC   C4B65062  31.141  30.685   7.361
 5062POPC   NC365063   7.294  28.715   5.175
 5062POPC   PO465064   7.603  29.309   5.200
 5062POPC   GL165065   7.611  29.341   5.694
 5062POPC   GL265066   7.273  29.430   5.859
 5062POPC   C1A65067   7.636  29.210   6.165
 5062POPC   D2A65068   7.583  29.284   6.616
 5062POPC   C3A65069   7.433  29.057   7.003
 5062POPC   C4A65070   6.952  29.004   7.104
 5062POPC   C1B65071   7.133  29.308   6.302
 5062POPC   C2B65072   7.100  29.372   6.766
 5062POPC   C3B65073   7.201  29.459   7.193
 5062POPC   C4B65074   7.086  29.517   7.657
 5063POPC   NC365075  19.335  13.075   5.567
 5063POPC   PO465076  19.388  12.391   5.518
 5063POPC   GL165077  19.138  12.596   5.825
 5063POPC   GL265078  19.065  12.951   5.970
 5063POPC   C1A65079  19.029  12.487   6.213
 5063POPC   D2A65080  18.924  12.724   6.554
 5063POPC   C3A65081  19.142  12.631   6.906
 5063POPC   C4A65082  19.278  12.870   7.256
 5063POPC   C1B65083  18.801  13.248   6.208
 5063POPC   C2B65084  18.797  13.308   6.617
 5063POPC   C3B65085  18.869  13.082   6.951
 5063POPC   C4B65086  18.835  13.201   7.360
 5064POPC   NC365087  40.078  14.830   5.333
 5064POPC   PO465088  40.352  15.466   5.416
 5064POPC   GL165089  40.135  15.326   5.764
 5064POPC   GL265090  39.818  15.228   5.658
 5064POPC   C1A65091  40.209  15.128   6.146
 5064POPC   D2A65092  40.376  15.228   6.528
 5064POPC   C3A65093  40.173  15.092   6.871
 5064POPC   C4A65094  40.265  15.187   7.255
 5064POPC   C1B65095  39.703  15.179   6.101
 5064POPC   C2B65096  39.795  15.018   6.525
 5064POPC   C3B65097  39.685  15.187   6.929
 5064POPC   C4B65098  39.743  15.160   7.325
 5065POPC   NC365099  22.458  27.913   5.414
 5065POPC   PO465100  21.861  27.377   5.352
 5065POPC   GL165101  22.026  27.577   5.710
 5065POPC   GL265102  21.763  27.607   5.931
 5065POPC   C1A65103  22.264  27.648   6.085
 5065POPC   D2A65104  22.265  27.839   6.513
 5065POPC   C3A65105  22.271  27.555   6.864
 5065POPC   C4A65106  22.260  27.701   7.268
 5065POPC   C1B65107  21.818  27.641   6.364
 5065POPC   C2B65108  21.815  27.428   6.705
 5065POPC   C3B65109  21.817  27.457   7.134
 5065POPC   C4B65110  21.929  27.474   7.593
 5066POPC   NC365111  21.629   2.202   5.357
 5066POPC   PO465112  21.097   1.916   5.623
 5066POPC   GL165113  21.424   2.095   5.844
 5066POPC   GL265114  21.211   2.126   6.131
 5066POPC   C1A65115  21.730   2.131   6.196
 5066POPC   D2A65116  21.591   2.186   6.610
 5066POPC   C3A65117  21.487   1.945   6.986
 5066POPC   C4A65118  21.332   1.956   7.388
 5066POPC   C1B65119  21.078   1.679   6.231
 5066POPC   C2B65120  21.032   1.398   6.561
 5066POPC   C3B65121  21.053   1.614   6.933
 5066POPC   C4B65122  20.883   1.687   7.323
 5067POPC   NC365123  44.635  13.001   5.400
 5067POPC   PO465124  44.694  12.411   5.549
 5067POPC   GL165125  44.663  12.775   5.846
 5067POPC   GL265126  44.360  13.021   5.865
 5067POPC   C1A65127  44.742  12.925   6.265
 5067POPC   D2A65128  44.812  12.717   6.674
 5067POPC   C3A65129  44.674  12.962   7.031
 5067POPC   C4A65130  44.815  13.011   7.442
 5067POPC   C1B65131  44.279  12.669   6.153
 5067POPC   C2B65132  44.345  12.490   6.549
 5067POPC   C3B65133  44.266  12.501   6.986
 5067POPC   C4B65134  44.422  12.594   7.389
 5068POPC   NC365135  12.938  21.854   5.643
 5068POPC   PO465136  12.746  21.347   5.288
 5068POPC   GL165137  12.724  21.405   5.758
 5068POPC   GL265138  13.001  21.261   5.945
 5068POPC   C1A65139  12.675  21.522   6.224
 5068POPC   D2A65140  12.865  21.638   6.628
 5068POPC   C3A65141  12.629  21.740   6.942
 5068POPC   C4A65142  12.802  21.674   7.288
 5068POPC   C1B65143  13.241  21.435   6.317
 5068POPC   C2B65144  13.190  21.259   6.756
 5068POPC   C3B65145  12.835  21.255   6.985
 5068POPC   C4B65146  12.657  20.899   7.011
 5069POPC   NC365147  33.730  29.640   5.415
 5069POPC   PO465148  33.995  30.287   5.404
 5069POPC   GL165149  33.851  30.023   5.797
 5069POPC   GL265150  33.954  29.646   5.870
 5069POPC   C1A65151  33.997  29.969   6.260
 5069POPC   D2A65152  33.956  29.732   6.635
 5069POPC   C3A65153  33.971  29.945   7.012
 5069POPC   C4A65154  33.645  30.092   7.301
 5069POPC   C1B65155  33.578  29.714   6.132
 5069POPC   C2B65156  33.440  29.579   6.544
 5069POPC   C3B65157  33.524  29.688   6.968
 5069POPC   C4B65158  33.536  29.581   7.368
 5070POPC   NC365159  10.097  14.948   5.431
 5070POPC   PO465160   9.773  15.561   5.414
 5070POPC   GL165161   9.719  15.218   5.739
 5070POPC   GL265162   9.439  14.973   5.781
 5070POPC   C1A65163   9.904  15.037   6.122
 5070POPC   D2A65164  10.024  14.975   6.580
 5070POPC   C3A65165   9.729  15.173   6.895
 5070POPC   C4A65166   9.546  15.235   7.312
 5070POPC   C1B65167   9.410  14.935   6.236
 5070POPC   C2B65168   9.526  14.763   6.649
 5070POPC   C3B65169   9.508  14.750   7.122
 5070POPC   C4B65170   9.712  14.739   7.517
 5071POPC   NC365171   6.936  39.203   5.282
 5071POPC   PO465172   6.365  39.441   5.084
 5071POPC   GL165173   6.581  39.304   5.604
 5071POPC   GL265174   6.424  39.019   5.818
 5071POPC   C1A65175   6.767  39.320   6.058
 5071POPC   D2A65176   6.972  39.391   6.480
 5071POPC   C3A65177   6.800  39.426   6.927
 5071POPC   C4A65178   6.616  39.529   7.336
 5071POPC   C1B65179   6.291  39.060   6.233
 5071POPC   C2B65180   6.434  39.234   6.615
 5071POPC   C3B65181   6.276  39.269   7.036
 5071POPC   C4B65182   6.358  39.073   7.441
 5072POPC   NC365183   0.315  25.790   5.471
 5072POPC   PO465184   0.295  26.489   5.396
 5072POPC   GL165185   0.364  26.246   5.747
 5072POPC   GL265186   0.054  26.071   5.829
 5072POPC   C1A65187   0.368  26.385   6.169
 5072POPC   D2A65188   0.389  26.543   6.571
 5072POPC   C3A65189   0.310  26.310   6.933
 5072POPC   C4A65190   0.559  26.243   7.281
 5072POPC   C1B65191   0.381  25.883   6.118
 5072POPC   C2B65192   0.471  26.014   6.530
 5072POPC   C3B65193   0.660  25.918   6.895
 5072POPC   C4B65194   0.430  25.729   7.210
 5073POPC   NC365195  33.364   5.382   5.497
 5073POPC   PO465196  32.871   4.892   5.443
 5073POPC   GL165197  32.970   5.076   5.850
 5073POPC   GL265198  32.985   5.437   5.889
 5073POPC   C1A65199  32.920   4.970   6.288
 5073POPC   D2A65200  32.737   5.095   6.683
 5073POPC   C3A65201  32.863   4.893   7.049
 5073POPC   C4A65202  33.213   4.764   7.328
 5073POPC   C1B65203  33.256   5.341   6.226
 5073POPC   C2B65204  33.264   5.158   6.657
 5073POPC   C3B65205  33.201   5.305   7.082
 5073POPC   C4B65206  33.440   5.449   7.433
 5074POPC   NC365207   8.978  36.570   5.399
 5074POPC   PO465208   9.411  37.056   5.466
 5074POPC   GL165209   9.355  36.844   5.836
 5074POPC   GL265210   8.967  36.842   5.859
 5074POPC   C1A65211   9.299  37.040   6.240
 5074POPC   D2A65212   8.967  36.978   6.540
 5074POPC   C3A65213   9.047  36.820   6.985
 5074POPC   C4A65214   9.248  36.618   7.356
 5074POPC   C1B65215   8.603  37.089   6.070
 5074POPC   C2B65216   8.481  37.224   6.507
 5074POPC   C3B65217   8.694  37.205   6.918
 5074POPC   C4B65218   8.640  37.077   7.350
 5075POPC   NC365219   0.296  14.611   5.235
 5075POPC   PO465220   0.918  14.396   5.031
 5075POPC   GL165221   0.644  14.375   5.502
 5075POPC   GL265222   0.588  14.684   5.680
 5075POPC   C1A65223   0.532  14.274   5.973
 5075POPC   D2A65224   0.428  14.203   6.448
 5075POPC   C3A65225   0.460  14.461   6.832
 5075POPC   C4A65226   0.330  14.328   7.247
 5075POPC   C1B65227   0.686  14.769   6.121
 5075POPC   C2B65228   0.848  14.682   6.539
 5075POPC   C3B65229   0.765  14.867   6.954
 5075POPC   C4B65230   0.448  14.892   7.289
 5076POPC   NC365231  23.631  31.068   5.325
 5076POPC   PO465232  23.807  30.464   5.223
 5076POPC   GL165233  23.792  30.562   5.695
 5076POPC   GL265234  24.048  30.809   5.694
 5076POPC   C1A65235  23.548  30.526   6.140
 5076POPC   D2A65236  23.414  30.788   6.530
 5076POPC   C3A65237  23.495  30.733   7.010
 5076POPC   C4A65238  23.767  30.768   7.430
 5076POPC   C1B65239  24.046  30.649   6.147
 5076POPC   C2B65240  23.957  30.412   6.569
 5076POPC   C3B65241  23.986  30.536   7.034
 5076POPC   C4B65242  24.092  30.388   7.503
 5077POPC   NC365243  29.449  12.347   5.388
 5077POPC   PO465244  28.864  11.861   5.406
 5077POPC   GL165245  28.950  12.076   5.783
 5077POPC   GL265246  29.299  12.067   5.794
 5077POPC   C1A65247  28.817  12.182   6.212
 5077POPC   D2A65248  28.868  11.940   6.629
 5077POPC   C3A65249  28.815  12.097   7.073
 5077POPC   C4A65250  28.993  12.063   7.500
 5077POPC   C1B65251  29.255  11.933   6.239
 5077POPC   C2B65252  29.380  12.062   6.668
 5077POPC   C3B65253  29.303  11.936   7.096
 5077POPC   C4B65254  29.448  11.844   7.520
 5078POPC   NC365255   6.972  33.572   5.297
 5078POPC   PO465256   6.345  33.257   5.359
 5078POPC   GL165257   6.571  33.602   5.626
 5078POPC   GL265258   6.378  33.911   5.739
 5078POPC   C1A65259   6.869  33.772   5.995
 5078POPC   D2A65260   6.818  34.019   6.421
 5078POPC   C3A65261   6.824  33.897   6.894
 5078POPC   C4A65262   6.927  33.637   7.305
 5078POPC   C1B65263   6.399  33.721   6.149
 5078POPC   C2B65264   6.478  33.611   6.579
 5078POPC   C3B65265   6.463  33.397   6.965
 5078POPC   C4B65266   6.437  33.728   7.217
 5079POPC   NC365267  17.905  14.194   5.547
 5079POPC   PO465268  17.378  14.619   5.378
 5079POPC   GL165269  17.510  14.432   5.769
 5079POPC   GL265270  17.449  14.073   5.832
 5079POPC   C1A65271  17.408  14.426   6.210
 5079POPC   D2A65272  17.213  14.501   6.585
 5079POPC   C3A65273  17.451  14.481   6.957
 5079POPC   C4A65274  17.785  14.588   7.212
 5079POPC   C1B65275  17.732  13.984   6.181
 5079POPC   C2B65276  17.636  14.145   6.583
 5079POPC   C3B65277  17.765  14.041   6.989
 5079POPC   C4B65278  17.880  13.753   7.352
 5080POPC   NC365279  44.655   4.619   5.524
 5080POPC   PO465280  44.562   3.941   5.539
 5080POPC   GL165281  44.956   4.018   5.818
 5080POPC   GL265282   0.102   4.371   5.805
 5080POPC   C1A65283  44.911   3.997   6.251
 5080POPC   D2A65284  44.582   4.180   6.494
 5080POPC   C3A65285  44.542   4.011   6.896
 5080POPC   C4A65286  44.342   3.964   7.262
 5080POPC   C1B65287  44.863   4.574   6.157
 5080POPC   C2B65288  44.683   4.688   6.553
 5080POPC   C3B65289  44.458   4.525   6.884
 5080POPC   C4B65290  44.616   4.421   7.276
 5081POPC   NC365291   4.213  16.121   5.435
 5081POPC   PO465292   4.455  15.524   5.644
 5081POPC   GL165293   4.240  15.869   5.903
 5081POPC   GL265294   4.373  16.260   5.906
 5081POPC   C1A65295   4.271  15.753   6.315
 5081POPC   D2A65296   4.098  15.585   6.650
 5081POPC   C3A65297   4.243  15.760   7.057
 5081POPC   C4A65298   4.200  15.981   7.447
 5081POPC   C1B65299   4.580  16.167   6.289
 5081POPC   C2B65300   4.329  16.137   6.651
 5081POPC   C3B65301   4.256  16.274   7.032
 5081POPC   C4B65302   4.445  16.529   7.276
 5082POPC   NC365303   5.438  16.912   5.250
 5082POPC   PO465304   4.891  16.679   5.377
 5082POPC   GL165305   5.202  16.789   5.702
 5082POPC   GL265306   5.077  17.142   5.660
 5082POPC   C1A65307   5.258  16.632   6.154
 5082POPC   D2A65308   5.072  16.358   6.525
 5082POPC   C3A65309   5.190  16.493   6.972
 5082POPC   C4A65310   5.417  16.577   7.372
 5082POPC   C1B65311   4.811  17.179   6.060
 5082POPC   C2B65312   4.927  16.992   6.480
 5082POPC   C3B65313   4.759  16.728   6.833
 5082POPC   C4B65314   4.774  16.897   7.241
 5083POPC   NC365315  31.062  40.816   5.352
 5083POPC   PO465316  30.476  41.015   5.364
 5083POPC   GL165317  30.630  40.794   5.725
 5083POPC   GL265318  30.902  40.530   5.752
 5083POPC   C1A65319  30.571  40.817   6.173
 5083POPC   D2A65320  30.651  40.541   6.542
 5083POPC   C3A65321  30.430  40.637   6.922
 5083POPC   C4A65322  30.515  40.935   7.248
 5083POPC   C1B65323  31.057  40.862   6.047
 5083POPC   C2B65324  31.003  40.942   6.468
 5083POPC   C3B65325  30.894  40.899   6.886
 5083POPC   C4B65326  30.954  40.674   7.254
 5084POPC   NC365327  14.153   8.624   5.457
 5084POPC   PO465328  14.554   9.062   5.145
 5084POPC   GL165329  14.537   9.118   5.653
 5084POPC   GL265330  14.252   8.954   5.836
 5084POPC   C1A65331  14.637   9.099   6.138
 5084POPC   D2A65332  14.773   9.152   6.592
 5084POPC   C3A65333  14.419   9.125   6.864
 5084POPC   C4A65334  14.211   9.010   7.216
 5084POPC   C1B65335  14.074   8.845   6.263
 5084POPC   C2B65336  14.040   8.754   6.712
 5084POPC   C3B65337  13.778   8.784   7.105
 5084POPC   C4B65338  13.849   8.811   7.556
 5085POPC   NC365339  10.126  28.010   5.418
 5085POPC   PO465340  10.635  27.544   5.257
 5085POPC   GL165341  10.652  27.595   5.722
 5085POPC   GL265342  10.576  27.932   5.747
 5085POPC   C1A65343  10.535  27.489   6.193
 5085POPC   D2A65344  10.311  27.235   6.544
 5085POPC   C3A65345  10.355  27.396   6.976
 5085POPC   C4A65346  10.205  27.718   7.289
 5085POPC   C1B65347  10.760  27.981   6.188
 5085POPC   C2B65348  10.697  27.991   6.657
 5085POPC   C3B65349  10.646  27.824   7.101
 5085POPC   C4B65350  10.977  27.756   7.447
 5086POPC   NC365351   8.447  19.154   5.421
 5086POPC   PO465352   7.892  18.930   5.596
 5086POPC   GL165353   8.105  19.197   5.828
 5086POPC   GL265354   8.366  18.924   5.886
 5086POPC   C1A65355   7.993  19.275   6.242
 5086POPC   D2A65356   7.944  18.983   6.583
 5086POPC   C3A65357   7.834  19.219   6.933
 5086POPC   C4A65358   8.125  19.460   7.162
 5086POPC   C1B65359   8.526  18.715   6.283
 5086POPC   C2B65360   8.414  18.673   6.727
 5086POPC   C3B65361   8.118  18.766   7.028
 5086POPC   C4B65362   8.062  18.996   7.369
 5087POPC   NC365363   4.795  43.408   5.450
 5087POPC   PO465364   4.356  42.888   5.442
 5087POPC   GL165365   4.368  43.288   5.735
 5087POPC   GL265366   4.646  43.269   5.899
 5087POPC   C1A65367   4.263  43.472   6.168
 5087POPC   D2A65368   4.240  43.196   6.542
 5087POPC   C3A65369   4.324  43.313   6.968
 5087POPC   C4A65370   4.035  43.181   7.329
 5087POPC   C1B65371   4.517  42.958   6.173
 5087POPC   C2B65372   4.678  42.936   6.582
 5087POPC   C3B65373   4.429  42.810   6.909
 5087POPC   C4B65374   4.485  42.963   7.306
 5088POPC   NC365375  10.873  16.164   5.754
 5088POPC   PO465376  10.546  15.699   5.389
 5088POPC   GL165377  10.522  15.774   5.913
 5088POPC   GL265378  10.227  15.977   6.058
 5088POPC   C1A65379  10.472  15.724   6.391
 5088POPC   D2A65380  10.362  15.937   6.791
 5088POPC   C3A65381  10.448  15.748   7.176
 5088POPC   C4A65382  10.718  15.795   7.526
 5088POPC   C1B65383  10.383  16.240   6.357
 5088POPC   C2B65384  10.685  16.445   6.575
 5088POPC   C3B65385  10.755  16.431   6.999
 5088POPC   C4B65386  10.511  16.231   7.300
 5089POPC   NC365387  14.217   5.473   5.191
 5089POPC   PO465388  14.610   4.962   5.472
 5089POPC   GL165389  14.474   5.195   5.843
 5089POPC   GL265390  14.713   5.520   5.992
 5089POPC   C1A65391  14.315   5.083   6.237
 5089POPC   D2A65392  14.150   5.248   6.599
 5089POPC   C3A65393  14.288   5.178   7.016
 5089POPC   C4A65394  14.144   5.440   7.377
 5089POPC   C1B65395  14.841   5.130   6.174
 5089POPC   C2B65396  14.745   5.057   6.574
 5089POPC   C3B65397  14.807   5.243   6.951
 5089POPC   C4B65398  14.705   4.888   7.169
 5090POPC   NC365399  22.893  31.742   5.299
 5090POPC   PO465400  22.603  31.250   5.551
 5090POPC   GL165401  22.742  31.475   5.933
 5090POPC   GL265402  23.036  31.668   5.815
 5090POPC   C1A65403  22.656  31.530   6.388
 5090POPC   D2A65404  22.544  31.692   6.801
 5090POPC   C3A65405  22.737  31.532   7.117
 5090POPC   C4A65406  23.033  31.231   7.115
 5090POPC   C1B65407  23.111  31.709   6.269
 5090POPC   C2B65408  23.065  31.565   6.710
 5090POPC   C3B65409  23.182  31.755   7.115
 5090POPC   C4B65410  23.368  31.990   7.487
 5091POPC   NC365411   5.565  43.249   5.285
 5091POPC   PO465412   4.936  42.964   5.364
 5091POPC   GL165413   5.136  43.157   5.750
 5091POPC   GL265414   5.513  43.157   5.805
 5091POPC   C1A65415   5.014  43.119   6.204
 5091POPC   D2A65416   5.064  43.310   6.604
 5091POPC   C3A65417   4.885  43.214   7.008
 5091POPC   C4A65418   5.226  43.386   7.258
 5091POPC   C1B65419   5.495  42.967   6.240
 5091POPC   C2B65420   5.254  42.785   6.588
 5091POPC   C3B65421   5.347  42.922   7.011
 5091POPC   C4B65422   5.270  42.904   7.454
 5092POPC   NC365423  37.224  39.941   5.298
 5092POPC   PO465424  36.659  40.264   5.214
 5092POPC   GL165425  36.774  40.030   5.619
 5092POPC   GL265426  37.106  39.889   5.787
 5092POPC   C1A65427  36.705  40.063   6.075
 5092POPC   D2A65428  36.882  40.085   6.485
 5092POPC   C3A65429  36.752  40.146   6.896
 5092POPC   C4A65430  37.077  40.346   7.111
 5092POPC   C1B65431  37.184  39.765   6.219
 5092POPC   C2B65432  37.076  39.615   6.642
 5092POPC   C3B65433  37.028  39.738   7.075
 5092POPC   C4B65434  36.610  39.720   7.213
 5093POPC   NC365435  17.497  27.734   5.376
 5093POPC   PO465436  17.446  27.141   5.606
 5093POPC   GL165437  17.407  27.538   5.833
 5093POPC   GL265438  17.721  27.752   5.843
 5093POPC   C1A65439  17.416  27.629   6.273
 5093POPC   D2A65440  17.546  27.816   6.643
 5093POPC   C3A65441  17.365  27.710   7.038
 5093POPC   C4A65442  17.306  27.852   7.455
 5093POPC   C1B65443  17.836  27.401   6.081
 5093POPC   C2B65444  17.864  27.416   6.512
 5093POPC   C3B65445  17.857  27.540   6.940
 5093POPC   C4B65446  17.960  27.347   7.295
 5094POPC   NC365447   8.877  27.907   5.423
 5094POPC   PO465448   9.111  28.527   5.409
 5094POPC   GL165449   9.033  28.348   5.763
 5094POPC   GL265450   9.041  28.659   5.921
 5094POPC   C1A65451   8.929  28.188   6.153
 5094POPC   D2A65452   9.115  28.185   6.578
 5094POPC   C3A65453   8.865  28.264   6.961
 5094POPC   C4A65454   8.732  28.033   7.329
 5094POPC   C1B65455   9.157  28.625   6.324
 5094POPC   C2B65456   9.054  28.731   6.740
 5094POPC   C3B65457   9.112  28.675   7.170
 5094POPC   C4B65458   9.074  28.340   7.525
 5095POPC   NC365459  42.313  25.768   5.458
 5095POPC   PO465460  42.151  26.394   5.307
 5095POPC   GL165461  42.168  26.344   5.728
 5095POPC   GL265462  41.989  26.573   5.868
 5095POPC   C1A65463  42.257  26.131   6.116
 5095POPC   D2A65464  42.542  26.026   6.466
 5095POPC   C3A65465  42.443  26.095   6.918
 5095POPC   C4A65466  42.346  25.713   7.131
 5095POPC   C1B65467  41.885  26.453   6.291
 5095POPC   C2B65468  41.989  26.363   6.745
 5095POPC   C3B65469  42.147  26.492   7.167
 5095POPC   C4B65470  42.137  26.640   7.625
 5096POPC   NC365471  15.321  33.798   5.255
 5096POPC   PO465472  14.830  33.413   5.507
 5096POPC   GL165473  15.057  33.651   5.857
 5096POPC   GL265474  15.215  33.942   5.797
 5096POPC   C1A65475  14.992  33.549   6.279
 5096POPC   D2A65476  15.202  33.422   6.658
 5096POPC   C3A65477  15.208  33.778   6.923
 5096POPC   C4A65478  15.139  33.862   7.334
 5096POPC   C1B65479  15.033  34.099   6.217
 5096POPC   C2B65480  15.128  34.285   6.665
 5096POPC   C3B65481  15.367  34.248   7.077
 5096POPC   C4B65482  15.602  34.048   7.433
 5097POPC   NC365483  23.379  25.051   5.412
 5097POPC   PO465484  23.890  25.403   5.511
 5097POPC   GL165485  23.532  25.428   5.764
 5097POPC   GL265486  23.597  25.095   5.873
 5097POPC   C1A65487  23.518  25.530   6.190
 5097POPC   D2A65488  23.774  25.290   6.480
 5097POPC   C3A65489  23.762  25.434   6.905
 5097POPC   C4A65490  23.931  25.300   7.297
 5097POPC   C1B65491  23.347  25.031   6.231
 5097POPC   C2B65492  23.368  25.034   6.698
 5097POPC   C3B65493  23.458  25.067   7.145
 5097POPC   C4B65494  23.564  25.025   7.578
 5098POPC   NC365495   6.369  42.784   5.508
 5098POPC   PO465496   6.765  43.345   5.156
 5098POPC   GL165497   6.616  43.261   5.618
 5098POPC   GL265498   6.923  43.161   5.760
 5098POPC   C1A65499   6.504  43.107   6.084
 5098POPC   D2A65500   6.518  42.793   6.420
 5098POPC   C3A65501   6.512  42.784   6.880
 5098POPC   C4A65502   6.681  43.042   7.216
 5098POPC   C1B65503   6.975  43.288   6.199
 5098POPC   C2B65504   6.764  43.244   6.611
 5098POPC   C3B65505   6.986  43.354   6.987
 5098POPC   C4B65506   6.965  43.491   7.410
 5099POPC   NC365507  31.940  33.223   5.183
 5099POPC   PO465508  32.416  32.915   5.591
 5099POPC   GL165509  32.176  32.681   5.866
 5099POPC   GL265510  31.958  32.974   5.830
 5099POPC   C1A65511  32.232  32.694   6.318
 5099POPC   D2A65512  32.290  32.976   6.665
 5099POPC   C3A65513  32.427  32.860   7.061
 5099POPC   C4A65514  32.433  33.226   7.293
 5099POPC   C1B65515  32.005  33.126   6.222
 5099POPC   C2B65516  31.779  32.954   6.577
 5099POPC   C3B65517  31.904  32.803   6.968
 5099POPC   C4B65518  31.968  32.985   7.352
 5100POPC   NC365519  43.190  12.288   5.361
 5100POPC   PO465520  43.338  11.655   5.261
 5100POPC   GL165521  43.152  11.851   5.665
 5100POPC   GL265522  43.433  11.883   5.913
 5100POPC   C1A65523  42.962  11.937   6.107
 5100POPC   D2A65524  42.860  11.875   6.568
 5100POPC   C3A65525  42.913  12.155   6.935
 5100POPC   C4A65526  42.819  12.079   7.389
 5100POPC   C1B65527  43.346  12.276   6.178
 5100POPC   C2B65528  43.391  12.270   6.602
 5100POPC   C3B65529  43.334  11.856   6.764
 5100POPC   C4B65530  43.248  11.865   7.193
 5101POPC   NC365531  35.049  22.145   5.485
 5101POPC   PO465532  35.685  22.186   5.327
 5101POPC   GL165533  35.449  22.347   5.721
 5101POPC   GL265534  35.342  22.030   5.884
 5101POPC   C1A65535  35.396  22.460   6.181
 5101POPC   D2A65536  35.576  22.319   6.589
 5101POPC   C3A65537  35.333  22.371   6.964
 5101POPC   C4A65538  35.192  22.141   7.337
 5101POPC   C1B65539  35.221  21.780   6.240
 5101POPC   C2B65540  35.449  21.794   6.648
 5101POPC   C3B65541  35.617  21.954   7.065
 5101POPC   C4B65542  35.591  21.904   7.532
 5102POPC   NC365543  44.051  42.933   5.352
 5102POPC   PO465544  43.864  42.210   5.461
 5102POPC   GL165545  43.933  42.366   5.833
 5102POPC   GL265546  44.236  42.575   5.799
 5102POPC   C1A65547  43.672  42.349   6.196
 5102POPC   D2A65548  43.731  42.232   6.613
 5102POPC   C3A65549  43.675  42.417   6.994
 5102POPC   C4A65550  43.802  42.239   7.382
 5102POPC   C1B65551  44.160  42.509   6.261
 5102POPC   C2B65552  44.203  42.393   6.704
 5102POPC   C3B65553  44.177  42.479   7.116
 5102POPC   C4B65554  44.281  42.501   7.553
 5103POPC   NC365555  15.840  40.645   5.135
 5103POPC   PO465556  16.312  41.033   5.335
 5103POPC   GL165557  16.181  40.756   5.709
 5103POPC   GL265558  15.827  40.675   5.690
 5103POPC   C1A65559  16.188  40.580   6.169
 5103POPC   D2A65560  16.312  40.527   6.602
 5103POPC   C3A65561  16.078  40.493   6.978
 5103POPC   C4A65562  16.169  40.559   7.412
 5103POPC   C1B65563  15.869  40.957   6.064
 5103POPC   C2B65564  15.952  40.952   6.502
 5103POPC   C3B65565  15.771  40.907   6.907
 5103POPC   C4B65566  15.873  40.961   7.320
 5104POPC   NC365567   8.689  13.922   5.441
 5104POPC   PO465568   9.017  13.303   5.525
 5104POPC   GL165569   9.002  13.679   5.737
 5104POPC   GL265570   8.707  13.577   5.850
 5104POPC   C1A65571   8.999  13.928   6.130
 5104POPC   D2A65572   9.175  13.817   6.541
 5104POPC   C3A65573   9.050  13.965   6.910
 5104POPC   C4A65574   9.303  13.785   7.194
 5104POPC   C1B65575   8.893  13.424   6.250
 5104POPC   C2B65576   8.782  13.525   6.672
 5104POPC   C3B65577   8.810  13.542   7.115
 5104POPC   C4B65578   8.806  13.150   7.293
 5105POPC   NC365579  41.170   7.015   5.492
 5105POPC   PO465580  40.509   6.765   5.507
 5105POPC   GL165581  40.693   7.143   5.775
 5105POPC   GL265582  41.046   7.168   5.950
 5105POPC   C1A65583  40.677   7.434   6.159
 5105POPC   D2A65584  40.622   7.402   6.633
 5105POPC   C3A65585  40.863   7.683   6.905
 5105POPC   C4A65586  41.131   7.829   7.239
 5105POPC   C1B65587  41.028   7.161   6.404
 5105POPC   C2B65588  41.041   7.124   6.853
 5105POPC   C3B65589  40.859   7.294   7.215
 5105POPC   C4B65590  40.604   7.176   7.549
 5106POPC   NC365591   2.124  21.546   5.231
 5106POPC   PO465592   1.735  20.969   5.326
 5106POPC   GL165593   2.056  21.128   5.647
 5106POPC   GL265594   1.965  21.466   5.741
 5106POPC   C1A65595   2.174  21.207   6.114
 5106POPC   D2A65596   2.037  21.010   6.508
 5106POPC   C3A65597   2.213  21.001   6.895
 5106POPC   C4A65598   2.149  21.139   7.303
 5106POPC   C1B65599   1.936  21.675   6.177
 5106POPC   C2B65600   2.078  21.533   6.605
 5106POPC   C3B65601   1.877  21.439   7.005
 5106POPC   C4B65602   1.678  21.356   7.396
 5107POPC   NC365603  38.636  42.096   5.563
 5107POPC   PO465604  38.474  42.790   5.424
 5107POPC   GL165605  38.584  42.634   5.794
 5107POPC   GL265606  38.280  42.423   5.801
 5107POPC   C1A65607  38.629  42.439   6.190
 5107POPC   D2A65608  38.750  42.220   6.547
 5107POPC   C3A65609  38.603  42.484   6.913
 5107POPC   C4A65610  38.622  42.350   7.333
 5107POPC   C1B65611  38.249  42.108   6.158
 5107POPC   C2B65612  38.250  42.264   6.558
 5107POPC   C3B65613  38.163  42.278   6.974
 5107POPC   C4B65614  38.141  42.500   7.338
 5108POPC   NC365615  22.431  43.007   5.446
 5108POPC   PO465616  21.954  43.521   5.490
 5108POPC   GL165617  22.173  43.236   5.808
 5108POPC   GL265618  21.968  42.944   5.952
 5108POPC   C1A65619  22.371  43.168   6.225
 5108POPC   D2A65620  22.494  42.922   6.619
 5108POPC   C3A65621  22.268  43.076   6.974
 5108POPC   C4A65622  22.140  42.967   7.376
 5108POPC   C1B65623  21.854  43.308   6.180
 5108POPC   C2B65624  22.010  43.384   6.566
 5108POPC   C3B65625  21.835  43.367   6.948
 5108POPC   C4B65626  22.022  43.460   7.344
 5109POPC   NC365627   2.975   3.474   5.642
 5109POPC   PO465628   3.532   3.652   5.356
 5109POPC   GL165629   3.628   3.598   5.803
 5109POPC   GL265630   3.330   3.724   5.908
 5109POPC   C1A65631   3.962   3.524   6.133
 5109POPC   D2A65632   4.189   3.392   6.509
 5109POPC   C3A65633   3.961   3.482   6.890
 5109POPC   C4A65634   3.775   3.489   7.310
 5109POPC   C1B65635   3.366   3.345   6.183
 5109POPC   C2B65636   3.259   3.176   6.584
 5109POPC   C3B65637   3.437   3.366   6.931
 5109POPC   C4B65638   3.313   3.719   7.144
 5110POPC   NC365639  30.192  23.509   5.378
 5110POPC   PO465640  29.658  23.820   5.476
 5110POPC   GL165641  29.663  23.547   5.778
 5110POPC   GL265642  29.983  23.676   5.879
 5110POPC   C1A65643  29.550  23.614   6.197
 5110POPC   D2A65644  29.703  23.909   6.507
 5110POPC   C3A65645  29.704  23.707   6.898
 5110POPC   C4A65646  29.807  23.720   7.309
 5110POPC   C1B65647  30.223  23.565   6.265
 5110POPC   C2B65648  30.186  23.669   6.683
 5110POPC   C3B65649  30.398  23.576   7.064
 5110POPC   C4B65650  30.277  23.727   7.462
 5111POPC   NC365651  43.253  26.940   5.317
 5111POPC   PO465652  42.861  26.434   5.502
 5111POPC   GL165653  43.080  26.665   5.826
 5111POPC   GL265654  43.010  27.003   5.782
 5111POPC   C1A65655  43.033  26.779   6.294
 5111POPC   D2A65656  42.785  26.960   6.661
 5111POPC   C3A65657  42.995  26.905   7.056
 5111POPC   C4A65658  42.987  26.820   7.471
 5111POPC   C1B65659  43.254  27.208   6.136
 5111POPC   C2B65660  43.275  27.137   6.597
 5111POPC   C3B65661  43.444  27.151   7.018
 5111POPC   C4B65662  43.374  27.154   7.469
 5112POPC   NC365663  31.416  42.430   5.367
 5112POPC   PO465664  31.003  42.000   5.641
 5112POPC   GL165665  31.380  42.170   5.835
 5112POPC   GL265666  31.549  42.509   5.841
 5112POPC   C1A65667  31.435  42.242   6.270
 5112POPC   D2A65668  31.705  42.033   6.553
 5112POPC   C3A65669  31.471  42.067   6.918
 5112POPC   C4A65670  31.322  42.323   7.228
 5112POPC   C1B65671  31.481  42.779   6.187
 5112POPC   C2B65672  31.258  42.869   6.543
 5112POPC   C3B65673  31.229  42.737   6.948
 5112POPC   C4B65674  31.582  42.798   7.215
 5113POPC   NC365675   9.027   8.199   5.351
 5113POPC   PO465676   8.561   7.823   5.648
 5113POPC   GL165677   8.912   8.050   5.879
 5113POPC   GL265678   9.029   8.378   5.842
 5113POPC   C1A65679   9.093   8.134   6.321
 5113POPC   D2A65680   8.913   7.930   6.692
 5113POPC   C3A65681   9.012   8.078   7.115
 5113POPC   C4A65682   8.851   8.152   7.542
 5113POPC   C1B65683   8.762   8.489   6.203
 5113POPC   C2B65684   8.781   8.432   6.673
 5113POPC   C3B65685   8.750   8.512   7.135
 5113POPC   C4B65686   8.959   8.637   7.516
 5114POPC   NC365687   5.373   7.591   5.479
 5114POPC   PO465688   4.875   7.144   5.381
 5114POPC   GL165689   4.961   7.391   5.769
 5114POPC   GL265690   5.006   7.758   5.769
 5114POPC   C1A65691   4.761   7.337   6.196
 5114POPC   D2A65692   4.943   7.225   6.604
 5114POPC   C3A65693   4.752   7.187   7.004
 5114POPC   C4A65694   4.926   7.366   7.396
 5114POPC   C1B65695   5.168   7.880   6.165
 5114POPC   C2B65696   5.244   7.693   6.558
 5114POPC   C3B65697   5.197   7.582   6.968
 5114POPC   C4B65698   5.164   7.831   7.339
 5115POPC   NC365699  28.651   3.662   5.023
 5115POPC   PO465700  28.132   3.768   5.359
 5115POPC   GL165701  28.466   3.596   5.664
 5115POPC   GL265702  28.447   3.283   5.815
 5115POPC   C1A65703  28.468   3.707   6.108
 5115POPC   D2A65704  28.512   3.938   6.472
 5115POPC   C3A65705  28.496   3.808   6.891
 5115POPC   C4A65706  28.754   4.039   7.160
 5115POPC   C1B65707  28.320   3.216   6.194
 5115POPC   C2B65708  28.191   3.282   6.588
 5115POPC   C3B65709  28.090   3.026   6.902
 5115POPC   C4B65710  28.190   3.277   7.256
 5116POPC   NC365711  29.590  33.494   5.422
 5116POPC   PO465712  30.110  33.917   5.287
 5116POPC   GL165713  30.067  33.850   5.764
 5116POPC   GL265714  29.865  34.114   5.962
 5116POPC   C1A65715  30.188  33.783   6.191
 5116POPC   D2A65716  30.224  33.645   6.595
 5116POPC   C3A65717  30.010  33.796   6.939
 5116POPC   C4A65718  30.181  33.691   7.330
 5116POPC   C1B65719  29.675  33.810   6.248
 5116POPC   C2B65720  29.575  33.977   6.645
 5116POPC   C3B65721  29.647  34.122   7.063
 5116POPC   C4B65722  29.694  33.857   7.387
 5117POPC   NC365723  26.031   7.396   5.322
 5117POPC   PO465724  25.589   7.676   5.705
 5117POPC   GL165725  25.942   7.465   5.880
 5117POPC   GL265726  26.034   7.150   5.777
 5117POPC   C1A65727  26.033   7.305   6.294
 5117POPC   D2A65728  25.854   7.144   6.665
 5117POPC   C3A65729  25.972   7.255   7.064
 5117POPC   C4A65730  26.146   7.610   7.244
 5117POPC   C1B65731  26.335   6.968   6.082
 5117POPC   C2B65732  26.464   7.087   6.519
 5117POPC   C3B65733  26.375   6.937   6.922
 5117POPC   C4B65734  26.385   7.119   7.305
 5118POPC   NC365735  32.732  22.800   5.491
 5118POPC   PO465736  33.353  23.045   5.208
 5118POPC   GL165737  33.148  22.992   5.707
 5118POPC   GL265738  33.086  22.680   5.942
 5118POPC   C1A65739  33.018  23.123   6.148
 5118POPC   D2A65740  33.132  22.887   6.535
 5118POPC   C3A65741  33.034  23.119   6.894
 5118POPC   C4A65742  32.894  23.146   7.316
 5118POPC   C1B65743  32.759  22.666   6.267
 5118POPC   C2B65744  32.655  22.818   6.709
 5118POPC   C3B65745  32.907  22.655   7.117
 5118POPC   C4B65746  32.839  22.561   7.587
 5119POPC   NC365747  23.014   7.712   5.285
 5119POPC   PO465748  22.705   7.091   5.356
 5119POPC   GL165749  22.949   7.371   5.691
 5119POPC   GL265750  23.200   7.687   5.764
 5119POPC   C1A65751  22.847   7.359   6.132
 5119POPC   D2A65752  22.951   7.075   6.472
 5119POPC   C3A65753  22.872   7.228   6.862
 5119POPC   C4A65754  23.005   7.235   7.236
 5119POPC   C1B65755  23.324   7.549   6.156
 5119POPC   C2B65756  23.138   7.568   6.570
 5119POPC   C3B65757  23.079   7.704   7.008
 5119POPC   C4B65758  22.682   7.636   7.249
 5120POPC   NC365759  12.559   5.176   5.563
 5120POPC   PO465760  13.008   4.708   5.437
 5120POPC   GL165761  13.055   4.932   5.837
 5120POPC   GL265762  12.932   5.260   5.942
 5120POPC   C1A65763  12.885   4.834   6.248
 5120POPC   D2A65764  12.592   4.781   6.598
 5120POPC   C3A65765  12.867   4.777   6.938
 5120POPC   C4A65766  12.941   4.656   7.305
 5120POPC   C1B65767  13.225   5.251   6.276
 5120POPC   C2B65768  13.182   5.031   6.626
 5120POPC   C3B65769  13.295   5.058   7.024
 5120POPC   C4B65770  12.972   5.280   7.163
 5121POPC   NC365771  19.168  40.670   5.455
 5121POPC   PO465772  18.509  40.861   5.472
 5121POPC   GL165773  18.839  40.761   5.867
 5121POPC   GL265774  19.267  40.752   5.930
 5121POPC   C1A65775  18.964  40.726   6.343
 5121POPC   D2A65776  19.082  40.544   6.754
 5121POPC   C3A65777  18.848  40.771   7.020
 5121POPC   C4A65778  18.695  40.672   7.425
 5121POPC   C1B65779  19.361  41.028   6.270
 5121POPC   C2B65780  19.220  41.046   6.686
 5121POPC   C3B65781  19.289  40.991   7.112
 5121POPC   C4B65782  19.392  40.982   7.545
 5122POPC   NC365783  22.148   0.060   5.615
 5122POPC   PO465784  22.470  44.374   5.571
 5122POPC   GL165785  22.373  44.654   5.879
 5122POPC   GL265786  22.009  44.665   5.901
 5122POPC   C1A65787  22.349  44.550   6.317
 5122POPC   D2A65788  22.357  44.231   6.666
 5122POPC   C3A65789  22.338  44.536   6.993
 5122POPC   C4A65790  22.372  44.648   7.410
 5122POPC   C1B65791  21.819  44.840   6.258
 5122POPC   C2B65792  21.650  44.904   6.654
 5122POPC   C3B65793  21.876  44.916   7.052
 5122POPC   C4B65794  21.848  44.762   7.473
 5123POPC   NC365795  41.334  29.228   5.495
 5123POPC   PO465796  41.898  29.511   5.559
 5123POPC   GL165797  41.695  29.200   5.859
 5123POPC   GL265798  41.829  28.892   5.803
 5123POPC   C1A65799  41.544  29.067   6.303
 5123POPC   D2A65800  41.534  29.243   6.767
 5123POPC   C3A65801  41.383  29.118   7.201
 5123POPC   C4A65802  41.532  29.306   7.579
 5123POPC   C1B65803  41.918  28.690   6.225
 5123POPC   C2B65804  41.816  28.822   6.673
 5123POPC   C3B65805  41.721  28.735   7.094
 5123POPC   C4B65806  41.730  28.844   7.516
 5124POPC   NC365807   4.269  27.146   5.449
 5124POPC   PO465808   4.397  27.823   5.473
 5124POPC   GL165809   4.489  27.523   5.778
 5124POPC   GL265810   4.149  27.476   5.870
 5124POPC   C1A65811   4.515  27.632   6.214
 5124POPC   D2A65812   4.669  27.877   6.562
 5124POPC   C3A65813   4.529  27.654   6.955
 5124POPC   C4A65814   4.731  27.601   7.369
 5124POPC   C1B65815   3.943  27.581   6.273
 5124POPC   C2B65816   3.784  27.467   6.692
 5124POPC   C3B65817   4.026  27.429   7.096
 5124POPC   C4B65818   4.313  27.336   7.451
 5125POPC   NC365819  30.239  26.078   5.412
 5125POPC   PO465820  29.550  26.252   5.237
 5125POPC   GL165821  29.748  25.889   5.616
 5125POPC   GL265822  30.025  26.025   5.882
 5125POPC   C1A65823  29.684  25.689   6.085
 5125POPC   D2A65824  29.450  25.783   6.532
 5125POPC   C3A65825  29.750  25.921   6.913
 5125POPC   C4A65826  29.863  26.383   7.046
 5125POPC   C1B65827  30.208  26.409   6.171
 5125POPC   C2B65828  30.223  26.602   6.621
 5125POPC   C3B65829  30.401  26.391   6.990
 5125POPC   C4B65830  30.231  26.098   7.251
 5126POPC   NC365831  34.146  24.923   5.031
 5126POPC   PO465832  33.872  25.399   5.447
 5126POPC   GL165833  33.731  25.226   5.806
 5126POPC   GL265834  33.553  24.935   5.700
 5126POPC   C1A65835  33.629  25.325   6.226
 5126POPC   D2A65836  33.816  25.372   6.605
 5126POPC   C3A65837  33.502  25.309   6.881
 5126POPC   C4A65838  33.592  25.442   7.278
 5126POPC   C1B65839  33.700  24.818   6.140
 5126POPC   C2B65840  33.558  24.880   6.587
 5126POPC   C3B65841  33.785  24.917   6.992
 5126POPC   C4B65842  34.139  24.737   7.165
 5127POPC   NC365843  34.138  27.573   5.592
 5127POPC   PO465844  34.679  27.882   5.273
 5127POPC   GL165845  34.706  27.796   5.706
 5127POPC   GL265846  35.014  27.945   5.747
 5127POPC   C1A65847  34.525  27.588   6.098
 5127POPC   D2A65848  34.423  27.313   6.464
 5127POPC   C3A65849  34.468  27.481   6.869
 5127POPC   C4A65850  34.518  27.466   7.311
 5127POPC   C1B65851  34.919  27.938   6.156
 5127POPC   C2B65852  34.743  27.771   6.516
 5127POPC   C3B65853  34.844  27.813   6.913
 5127POPC   C4B65854  35.013  27.744   7.302
 5128POPC   NC365855  28.458  24.846   5.405
 5128POPC   PO465856  28.158  24.287   5.415
 5128POPC   GL165857  28.409  24.308   5.789
 5128POPC   GL265858  28.545  24.620   5.835
 5128POPC   C1A65859  28.394  24.310   6.252
 5128POPC   D2A65860  28.453  24.352   6.685
 5128POPC   C3A65861  28.325  24.263   7.093
 5128POPC   C4A65862  28.698  24.190   7.284
 5128POPC   C1B65863  28.499  24.832   6.208
 5128POPC   C2B65864  28.265  24.812   6.610
 5128POPC   C3B65865  28.454  24.799   7.048
 5128POPC   C4B65866  28.674  25.001   7.428
 5129POPC   NC365867  34.100   9.024   5.491
 5129POPC   PO465868  33.482   8.678   5.484
 5129POPC   GL165869  33.703   8.866   5.804
 5129POPC   GL265870  33.692   9.214   5.736
 5129POPC   C1A65871  33.820   8.971   6.248
 5129POPC   D2A65872  33.800   8.897   6.704
 5129POPC   C3A65873  34.163   8.769   6.950
 5129POPC   C4A65874  34.275   8.631   7.355
 5129POPC   C1B65875  33.501   9.387   6.122
 5129POPC   C2B65876  33.491   9.292   6.570
 5129POPC   C3B65877  33.605   9.247   7.032
 5129POPC   C4B65878  33.578   9.161   7.483
 5130POPC   NC365879  15.018   7.227   5.478
 5130POPC   PO465880  15.554   7.438   5.220
 5130POPC   GL165881  15.419   7.283   5.730
 5130POPC   GL265882  15.152   7.603   5.798
 5130POPC   C1A65883  15.381   7.289   6.222
 5130POPC   D2A65884  15.222   7.130   6.657
 5130POPC   C3A65885  15.438   7.290   7.083
 5130POPC   C4A65886  15.300   7.645   7.345
 5130POPC   C1B65887  14.881   7.474   6.148
 5130POPC   C2B65888  14.793   7.455   6.607
 5130POPC   C3B65889  14.931   7.356   7.017
 5130POPC   C4B65890  14.879   7.356   7.447
 5131POPC   NC365891  24.282  30.470   5.337
 5131POPC   PO465892  24.580  31.078   5.330
 5131POPC   GL165893  24.564  30.835   5.727
 5131POPC   GL265894  24.432  30.493   5.825
 5131POPC   C1A65895  24.547  30.843   6.176
 5131POPC   D2A65896  24.372  30.699   6.552
 5131POPC   C3A65897  24.425  30.880   6.931
 5131POPC   C4A65898  24.287  30.840   7.339
 5131POPC   C1B65899  24.362  30.276   6.229
 5131POPC   C2B65900  24.606  30.248   6.587
 5131POPC   C3B65901  24.436  30.334   6.948
 5131POPC   C4B65902  24.577  30.382   7.346
 5132POPC   NC365903   9.352  25.843   5.522
 5132POPC   PO465904   8.908  26.366   5.432
 5132POPC   GL165905   8.824  26.063   5.793
 5132POPC   GL265906   8.764  25.665   5.777
 5132POPC   C1A65907   9.017  26.158   6.208
 5132POPC   D2A65908   9.287  26.319   6.549
 5132POPC   C3A65909   9.058  26.255   6.920
 5132POPC   C4A65910   8.877  26.205   7.316
 5132POPC   C1B65911   8.949  25.650   6.204
 5132POPC   C2B65912   9.075  25.810   6.621
 5132POPC   C3B65913   8.955  25.752   7.055
 5132POPC   C4B65914   8.687  25.735   7.432
 5133POPC   NC365915  30.824  12.255   5.165
 5133POPC   PO465916  30.843  11.917   5.659
 5133POPC   GL165917  30.591  11.989   5.872
 5133POPC   GL265918  30.565  12.351   5.768
 5133POPC   C1A65919  30.719  11.857   6.285
 5133POPC   D2A65920  30.786  12.038   6.639
 5133POPC   C3A65921  30.656  11.882   7.027
 5133POPC   C4A65922  30.757  12.131   7.410
 5133POPC   C1B65923  30.520  12.321   6.227
 5133POPC   C2B65924  30.529  12.489   6.597
 5133POPC   C3B65925  30.656  12.424   6.987
 5133POPC   C4B65926  30.439  12.666   7.298
 5134POPC   NC365927  10.887  37.874   5.410
 5134POPC   PO465928  10.456  37.385   5.573
 5134POPC   GL165929  10.573  37.706   5.793
 5134POPC   GL265930  10.703  37.431   6.023
 5134POPC   C1A65931  10.598  37.908   6.167
 5134POPC   D2A65932  10.650  37.656   6.509
 5134POPC   C3A65933  10.528  37.871   6.864
 5134POPC   C4A65934  10.590  38.040   7.279
 5134POPC   C1B65935  10.283  37.390   6.224
 5134POPC   C2B65936  10.240  37.369   6.649
 5134POPC   C3B65937  10.577  37.335   6.911
 5134POPC   C4B65938  10.439  37.549   7.247
 5135POPC   NC365939  18.036  12.334   5.550
 5135POPC   PO465940  18.570  11.943   5.545
 5135POPC   GL165941  18.391  12.075   5.887
 5135POPC   GL265942  18.635  12.318   5.942
 5135POPC   C1A65943  18.303  11.865   6.253
 5135POPC   D2A65944  18.499  11.913   6.616
 5135POPC   C3A65945  18.177  11.889   6.874
 5135POPC   C4A65946  18.302  12.013   7.252
 5135POPC   C1B65947  18.456  12.361   6.366
 5135POPC   C2B65948  18.080  12.462   6.637
 5135POPC   C3B65949  18.041  12.494   7.070
 5135POPC   C4B65950  18.334  12.495   7.388
 5136POPC   NC365951  22.576   5.968   5.453
 5136POPC   PO465952  23.056   5.454   5.449
 5136POPC   GL165953  22.936   5.740   5.815
 5136POPC   GL265954  23.051   6.098   5.851
 5136POPC   C1A65955  22.741   5.662   6.233
 5136POPC   D2A65956  22.653   5.893   6.644
 5136POPC   C3A65957  22.820   5.709   7.033
 5136POPC   C4A65958  22.786   5.788   7.490
 5136POPC   C1B65959  23.046   6.066   6.315
 5136POPC   C2B65960  23.177   5.950   6.734
 5136POPC   C3B65961  23.284   5.905   7.209
 5136POPC   C4B65962  23.265   6.074   7.662
 5137POPC   NC365963  30.582   0.714   5.406
 5137POPC   PO465964  30.399   0.090   5.519
 5137POPC   GL165965  30.591   0.367   5.822
 5137POPC   GL265966  30.350   0.632   5.846
 5137POPC   C1A65967  30.681   0.525   6.252
 5137POPC   D2A65968  30.960   0.372   6.593
 5137POPC   C3A65969  30.781   0.361   6.998
 5137POPC   C4A65970  30.806   0.338   7.463
 5137POPC   C1B65971  30.369   0.955   6.136
 5137POPC   C2B65972  30.395   0.879   6.569
 5137POPC   C3B65973  30.308   0.487   6.788
 5137POPC   C4B65974  30.327   0.370   7.220
 5138POPC   NC365975  44.523  25.403   5.368
 5138POPC   PO465976  44.776  24.771   5.471
 5138POPC   GL165977  44.549  25.082   5.774
 5138POPC   GL265978  44.768  25.382   5.811
 5138POPC   C1A65979  44.349  25.094   6.158
 5138POPC   D2A65980  44.251  25.339   6.504
 5138POPC   C3A65981  44.332  25.116   6.882
 5138POPC   C4A65982  44.617  25.084   7.205
 5138POPC   C1B65983  44.617  25.534   6.186
 5138POPC   C2B65984  44.772  25.462   6.587
 5138POPC   C3B65985  44.663  25.548   6.973
 5138POPC   C4B65986  44.895  25.652   7.349
 5139POPC   NC365987  14.584  20.367   5.444
 5139POPC   PO465988  14.175  20.842   5.543
 5139POPC   GL165989  14.230  20.514   5.827
 5139POPC   GL265990  14.565  20.603   5.892
 5139POPC   C1A65991  14.211  20.539   6.282
 5139POPC   D2A65992  14.472  20.685   6.600
 5139POPC   C3A65993  14.302  20.588   6.998
 5139POPC   C4A65994  14.026  20.444   7.290
 5139POPC   C1B65995  14.560  20.225   6.117
 5139POPC   C2B65996  14.499  20.188   6.563
 5139POPC   C3B65997  14.595  20.175   7.014
 5139POPC   C4B65998  14.468  20.216   7.440
 5140POPC   NC365999  28.193  23.102   5.362
 5140POPC   PO466000  28.473  22.447   5.504
 5140POPC   GL166001  28.351  22.786   5.766
 5140POPC   GL266002  28.568  23.091   5.758
 5140POPC   C1A66003  28.132  23.049   6.064
 5140POPC   D2A66004  28.181  23.160   6.485
 5140POPC   C3A66005  28.237  22.831   6.789
 5140POPC   C4A66006  28.133  22.823   7.221
 5140POPC   C1B66007  28.531  23.425   6.085
 5140POPC   C2B66008  28.600  23.466   6.537
 5140POPC   C3B66009  28.381  23.357   6.916
 5140POPC   C4B66010  28.448  23.196   7.324
 5141POPC   NC366011   6.170  15.090   5.372
 5141POPC   PO466012   5.522  15.070   5.414
 5141POPC   GL166013   5.812  15.077   5.768
 5141POPC   GL266014   6.038  15.375   5.788
 5141POPC   C1A66015   5.696  15.163   6.200
 5141POPC   D2A66016   5.888  15.378   6.566
 5141POPC   C3A66017   5.768  15.248   6.968
 5141POPC   C4A66018   5.860  15.026   7.334
 5141POPC   C1B66019   6.199  15.180   6.166
 5141POPC   C2B66020   6.172  14.947   6.566
 5141POPC   C3B66021   6.269  15.043   7.008
 5141POPC   C4B66022   6.303  14.760   7.383
 5142POPC   NC366023  12.305  17.549   5.420
 5142POPC   PO466024  11.738  17.816   5.436
 5142POPC   GL166025  11.980  17.705   5.836
 5142POPC   GL266026  12.189  17.394   5.890
 5142POPC   C1A66027  12.030  17.854   6.276
 5142POPC   D2A66028  12.164  17.641   6.653
 5142POPC   C3A66029  12.064  17.730   7.032
 5142POPC   C4A66030  11.955  17.666   7.443
 5142POPC   C1B66031  12.440  17.532   6.257
 5142POPC   C2B66032  12.658  17.502   6.675
 5142POPC   C3B66033  12.523  17.291   7.063
 5142POPC   C4B66034  12.409  17.462   7.483
 5143POPC   NC366035   6.970  19.445   5.340
 5143POPC   PO466036   6.473  19.001   5.292
 5143POPC   GL166037   6.688  19.057   5.679
 5143POPC   GL266038   6.729  19.404   5.800
 5143POPC   C1A66039   6.612  18.943   6.115
 5143POPC   D2A66040   6.485  19.187   6.479
 5143POPC   C3A66041   6.421  18.971   6.880
 5143POPC   C4A66042   6.556  19.151   7.287
 5143POPC   C1B66043   7.056  19.210   6.060
 5143POPC   C2B66044   7.031  18.992   6.451
 5143POPC   C3B66045   6.913  19.128   6.845
 5143POPC   C4B66046   7.033  18.979   7.211
 5144POPC   NC366047  27.774   8.336   5.490
 5144POPC   PO466048  27.253   7.900   5.479
 5144POPC   GL166049  27.453   8.077   5.822
 5144POPC   GL266050  27.372   8.408   5.821
 5144POPC   C1A66051  27.523   7.935   6.253
 5144POPC   D2A66052  27.480   8.239   6.528
 5144POPC   C3A66053  27.247   8.239   6.836
 5144POPC   C4A66054  27.499   8.179   7.139
 5144POPC   C1B66055  27.734   8.431   6.143
 5144POPC   C2B66056  27.878   8.576   6.562
 5144POPC   C3B66057  27.955   8.363   6.956
 5144POPC   C4B66058  27.885   8.454   7.402
 5145POPC   NC366059  28.579  16.644   5.469
 5145POPC   PO466060  28.051  16.956   5.283
 5145POPC   GL166061  28.280  16.932   5.751
 5145POPC   GL266062  28.400  16.639   5.958
 5145POPC   C1A66063  28.417  17.074   6.212
 5145POPC   D2A66064  28.295  17.040   6.684
 5145POPC   C3A66065  28.520  16.779   7.052
 5145POPC   C4A66066  28.875  16.912   7.315
 5145POPC   C1B66067  28.342  16.390   6.339
 5145POPC   C2B66068  28.213  16.488   6.778
 5145POPC   C3B66069  28.355  16.283   7.185
 5145POPC   C4B66070  28.195  16.259   7.626
 5146POPC   NC366071  20.690  38.651   5.346
 5146POPC   PO466072  20.166  38.299   5.301
 5146POPC   GL166073  20.440  38.338   5.683
 5146POPC   GL266074  20.725  38.117   5.761
 5146POPC   C1A66075  20.370  38.597   6.061
 5146POPC   D2A66076  20.458  38.542   6.501
 5146POPC   C3A66077  20.320  38.516   6.921
 5146POPC   C4A66078  20.565  38.309   7.241
 5146POPC   C1B66079  20.816  38.330   6.168
 5146POPC   C2B66080  20.952  38.684   6.447
 5146POPC   C3B66081  21.072  38.753   6.889
 5146POPC   C4B66082  20.974  38.615   7.336
 5147POPC   NC366083  29.022   6.737   5.263
 5147POPC   PO466084  29.690   6.808   5.358
 5147POPC   GL166085  29.309   6.647   5.685
 5147POPC   GL266086  28.973   6.869   5.748
 5147POPC   C1A66087  29.053   6.459   6.079
 5147POPC   D2A66088  29.093   6.344   6.551
 5147POPC   C3A66089  29.280   6.664   6.786
 5147POPC   C4A66090  29.174   6.810   7.150
 5147POPC   C1B66091  28.847   7.046   6.148
 5147POPC   C2B66092  28.886   6.936   6.585
 5147POPC   C3B66093  28.729   7.031   6.979
 5147POPC   C4B66094  28.657   6.665   7.234
 5148POPC   NC366095   6.499   8.597   5.341
 5148POPC   PO466096   6.923   9.096   5.322
 5148POPC   GL166097   6.632   9.136   5.716
 5148POPC   GL266098   6.711   8.819   5.771
 5148POPC   C1A66099   6.426   9.058   6.127
 5148POPC   D2A66100   6.484   8.742   6.395
 5148POPC   C3A66101   6.713   8.903   6.716
 5148POPC   C4A66102   6.718   8.895   7.138
 5148POPC   C1B66103   6.877   8.589   6.110
 5148POPC   C2B66104   6.915   8.456   6.512
 5148POPC   C3B66105   7.060   8.514   6.909
 5148POPC   C4B66106   6.867   8.402   7.249
 5149POPC   NC366107   7.382  31.666   5.304
 5149POPC   PO466108   6.963  31.183   5.465
 5149POPC   GL166109   7.406  31.341   5.698
 5149POPC   GL266110   7.516  31.729   5.792
 5149POPC   C1A66111   7.613  31.399   6.145
 5149POPC   D2A66112   7.429  31.604   6.521
 5149POPC   C3A66113   7.439  31.298   6.860
 5149POPC   C4A66114   7.778  31.246   7.137
 5149POPC   C1B66115   7.582  31.995   6.197
 5149POPC   C2B66116   7.745  31.993   6.671
 5149POPC   C3B66117   7.588  31.753   7.082
 5149POPC   C4B66118   7.622  31.950   7.546
 5150POPC   NC366119   2.797  15.524   5.353
 5150POPC   PO466120   2.863  16.193   5.333
 5150POPC   GL166121   2.654  16.072   5.779
 5150POPC   GL266122   2.567  15.696   5.778
 5150POPC   C1A66123   2.724  16.099   6.281
 5150POPC   D2A66124   2.876  15.874   6.703
 5150POPC   C3A66125   2.708  16.077   7.102
 5150POPC   C4A66126   2.987  16.426   7.266
 5150POPC   C1B66127   2.445  15.675   6.205
 5150POPC   C2B66128   2.388  15.856   6.620
 5150POPC   C3B66129   2.372  15.690   7.037
 5150POPC   C4B66130   2.472  15.767   7.464
 5151POPC   NC366131  34.350  11.826   5.234
 5151POPC   PO466132  34.655  12.355   5.019
 5151POPC   GL166133  34.611  12.257   5.531
 5151POPC   GL266134  34.469  11.948   5.709
 5151POPC   C1A66135  34.616  12.276   6.047
 5151POPC   D2A66136  34.745  12.067   6.490
 5151POPC   C3A66137  34.643  12.084   6.966
 5151POPC   C4A66138  34.667  12.149   7.437
 5151POPC   C1B66139  34.421  11.804   6.136
 5151POPC   C2B66140  34.269  11.868   6.528
 5151POPC   C3B66141  34.327  11.665   6.894
 5151POPC   C4B66142  34.235  11.908   7.249
 5152POPC   NC366143   5.200  16.273   5.383
 5152POPC   PO466144   4.864  15.700   5.175
 5152POPC   GL166145   4.948  15.898   5.611
 5152POPC   GL266146   4.725  15.912   5.805
 5152POPC   C1A66147   5.113  16.051   6.067
 5152POPC   D2A66148   5.191  15.835   6.472
 5152POPC   C3A66149   5.212  15.963   6.878
 5152POPC   C4A66150   5.206  16.092   7.289
 5152POPC   C1B66151   4.772  15.685   6.198
 5152POPC   C2B66152   4.709  15.787   6.647
 5152POPC   C3B66153   4.756  16.164   6.922
 5152POPC   C4B66154   4.671  16.043   7.307
 5153POPC   NC366155  41.413  18.725   5.461
 5153POPC   PO466156  41.163  19.399   5.497
 5153POPC   GL166157  41.505  19.188   5.787
 5153POPC   GL266158  41.570  18.836   5.934
 5153POPC   C1A66159  41.729  19.226   6.203
 5153POPC   D2A66160  41.610  18.971   6.570
 5153POPC   C3A66161  41.478  19.136   6.933
 5153POPC   C4A66162  41.491  19.044   7.346
 5153POPC   C1B66163  41.930  18.753   6.241
 5153POPC   C2B66164  42.124  19.032   6.569
 5153POPC   C3B66165  41.982  19.060   7.001
 5153POPC   C4B66166  41.973  18.861   7.399
 5154POPC   NC366167  43.132  34.916   5.371
 5154POPC   PO466168  42.692  35.393   5.401
 5154POPC   GL166169  42.976  35.388   5.749
 5154POPC   GL266170  43.008  35.734   5.882
 5154POPC   C1A66171  42.878  35.289   6.179
 5154POPC   D2A66172  42.778  35.311   6.635
 5154POPC   C3A66173  43.041  35.031   6.915
 5154POPC   C4A66174  43.129  35.031   7.361
 5154POPC   C1B66175  43.171  35.671   6.311
 5154POPC   C2B66176  43.287  35.375   6.611
 5154POPC   C3B66177  43.353  35.420   7.046
 5154POPC   C4B66178  43.320  35.583   7.448
 5155POPC   NC366179  23.037  17.902   5.413
 5155POPC   PO466180  22.515  18.298   5.473
 5155POPC   GL166181  22.877  18.333   5.726
 5155POPC   GL266182  22.957  18.015   5.900
 5155POPC   C1A66183  23.078  18.434   6.119
 5155POPC   D2A66184  23.029  18.137   6.429
 5155POPC   C3A66185  22.981  18.286   6.823
 5155POPC   C4A66186  22.914  18.620   7.136
 5155POPC   C1B66187  22.568  18.030   6.138
 5155POPC   C2B66188  22.381  17.859   6.530
 5155POPC   C3B66189  22.590  17.918   6.917
 5155POPC   C4B66190  22.814  18.126   7.269
 5156POPC   NC366191   2.948  40.696   5.408
 5156POPC   PO466192   2.438  41.116   5.600
 5156POPC   GL166193   2.777  40.864   5.866
 5156POPC   GL266194   3.158  40.955   5.858
 5156POPC   C1A66195   2.901  40.885   6.299
 5156POPC   D2A66196   2.649  40.984   6.618
 5156POPC   C3A66197   2.532  40.592   6.784
 5156POPC   C4A66198   2.649  40.554   7.189
 5156POPC   C1B66199   3.233  40.553   6.113
 5156POPC   C2B66200   3.031  40.455   6.524
 5156POPC   C3B66201   3.028  40.725   6.888
 5156POPC   C4B66202   3.145  40.622   7.309
 5157POPC   NC366203  13.331  20.061   5.131
 5157POPC   PO466204  13.670  19.524   5.260
 5157POPC   GL166205  13.643  19.593   5.751
 5157POPC   GL266206  13.483  19.917   5.842
 5157POPC   C1A66207  13.728  19.635   6.245
 5157POPC   D2A66208  13.627  19.828   6.714
 5157POPC   C3A66209  13.722  19.610   7.145
 5157POPC   C4A66210  13.842  19.691   7.605
 5157POPC   C1B66211  13.268  19.863   6.253
 5157POPC   C2B66212  13.133  19.973   6.691
 5157POPC   C3B66213  13.266  19.869   7.129
 5157POPC   C4B66214  13.338  19.856   7.602
 5158POPC   NC366215  31.063   3.813   5.391
 5158POPC   PO466216  31.645   3.470   5.520
 5158POPC   GL166217  31.473   3.288   5.883
 5158POPC   GL266218  31.179   3.412   5.785
 5158POPC   C1A66219  31.362   3.349   6.304
 5158POPC   D2A66220  31.561   3.650   6.550
 5158POPC   C3A66221  31.613   3.425   6.891
 5158POPC   C4A66222  31.627   3.587   7.266
 5158POPC   C1B66223  31.185   3.774   6.084
 5158POPC   C2B66224  31.117   3.889   6.562
 5158POPC   C3B66225  31.229   3.743   6.985
 5158POPC   C4B66226  31.110   3.634   7.425
 5159POPC   NC366227  27.786   2.640   5.462
 5159POPC   PO466228  27.095   2.712   5.583
 5159POPC   GL166229  27.449   2.797   5.843
 5159POPC   GL266230  27.811   2.935   5.901
 5159POPC   C1A66231  27.434   2.896   6.275
 5159POPC   D2A66232  27.571   2.703   6.654
 5159POPC   C3A66233  27.408   2.854   7.032
 5159POPC   C4A66234  27.388   2.628   7.414
 5159POPC   C1B66235  27.964   2.874   6.337
 5159POPC   C2B66236  28.075   2.556   6.653
 5159POPC   C3B66237  27.873   2.555   7.059
 5159POPC   C4B66238  27.855   2.898   7.346
 5160POPC   NC366239   9.110  23.206   5.368
 5160POPC   PO466240   9.377  22.511   5.502
 5160POPC   GL166241   9.125  22.824   5.760
 5160POPC   GL266242   8.871  23.128   5.798
 5160POPC   C1A66243   9.159  22.933   6.201
 5160POPC   D2A66244   9.355  23.003   6.632
 5160POPC   C3A66245   9.088  22.786   6.936
 5160POPC   C4A66246   9.058  22.731   7.385
 5160POPC   C1B66247   8.943  23.405   6.143
 5160POPC   C2B66248   8.917  23.251   6.546
 5160POPC   C3B66249   8.977  23.281   6.963
 5160POPC   C4B66250   8.791  23.152   7.334
 5161POPC   NC366251  17.171  41.687   5.501
 5161POPC   PO466252  17.848  41.508   5.475
 5161POPC   GL166253  17.568  41.538   5.771
 5161POPC   GL266254  17.520  41.923   5.802
 5161POPC   C1A66255  17.465  41.289   6.135
 5161POPC   D2A66256  17.553  41.389   6.527
 5161POPC   C3A66257  17.824  41.229   6.824
 5161POPC   C4A66258  17.556  41.291   7.161
 5161POPC   C1B66259  17.324  41.777   6.156
 5161POPC   C2B66260  17.166  41.716   6.544
 5161POPC   C3B66261  17.333  41.786   6.916
 5161POPC   C4B66262  17.439  41.767   7.312
 5162POPC   NC366263   1.546  39.267   5.396
 5162POPC   PO466264   1.067  39.644   5.434
 5162POPC   GL166265   1.058  39.457   5.891
 5162POPC   GL266266   1.306  39.205   5.875
 5162POPC   C1A66267   1.073  39.292   6.333
 5162POPC   D2A66268   0.855  39.246   6.722
 5162POPC   C3A66269   1.085  39.190   7.081
 5162POPC   C4A66270   1.171  39.378   7.486
 5162POPC   C1B66271   1.562  39.280   6.280
 5162POPC   C2B66272   1.468  39.282   6.745
 5162POPC   C3B66273   1.577  39.177   7.218
 5162POPC   C4B66274   1.606  39.217   7.702
 5163POPC   NC366275  33.363  12.502   5.143
 5163POPC   PO466276  32.849  12.961   5.396
 5163POPC   GL166277  32.960  12.828   5.819
 5163POPC   GL266278  33.101  12.497   5.850
 5163POPC   C1A66279  32.975  12.940   6.270
 5163POPC   D2A66280  32.809  13.034   6.691
 5163POPC   C3A66281  33.134  13.166   6.966
 5163POPC   C4A66282  33.137  13.098   7.417
 5163POPC   C1B66283  33.191  12.469   6.300
 5163POPC   C2B66284  33.224  12.675   6.702
 5163POPC   C3B66285  33.063  12.675   7.108
 5163POPC   C4B66286  32.907  12.597   7.511
 5164POPC   NC366287  22.144   9.297   5.315
 5164POPC   PO466288  22.363   8.649   5.504
 5164POPC   GL166289  22.062   8.857   5.787
 5164POPC   GL266290  21.897   9.174   5.826
 5164POPC   C1A66291  21.857   8.802   6.233
 5164POPC   D2A66292  21.953   8.638   6.686
 5164POPC   C3A66293  22.097   8.888   7.046
 5164POPC   C4A66294  21.913   9.255   7.150
 5164POPC   C1B66295  22.237   9.150   6.146
 5164POPC   C2B66296  22.245   9.071   6.586
 5164POPC   C3B66297  22.371   9.359   6.928
 5164POPC   C4B66298  22.373   9.396   7.376
 5165POPC   NC366299  23.141  16.341   5.392
 5165POPC   PO466300  23.255  15.660   5.336
 5165POPC   GL166301  22.984  15.730   5.733
 5165POPC   GL266302  22.844  16.090   5.772
 5165POPC   C1A66303  22.818  15.704   6.175
 5165POPC   D2A66304  22.892  15.964   6.578
 5165POPC   C3A66305  22.934  15.783   7.028
 5165POPC   C4A66306  23.031  15.863   7.520
 5165POPC   C1B66307  22.876  16.318   6.190
 5165POPC   C2B66308  22.652  16.424   6.560
 5165POPC   C3B66309  22.559  16.184   6.919
 5165POPC   C4B66310  22.846  16.267   7.226
 5166POPC   NC366311  42.315  31.795   5.393
 5166POPC   PO466312  42.544  31.170   5.299
 5166POPC   GL166313  42.657  31.413   5.718
 5166POPC   GL266314  42.622  31.765   5.785
 5166POPC   C1A66315  42.796  31.460   6.171
 5166POPC   D2A66316  42.583  31.507   6.579
 5166POPC   C3A66317  42.482  31.264   6.939
 5166POPC   C4A66318  42.320  31.374   7.320
 5166POPC   C1B66319  42.359  31.771   6.173
 5166POPC   C2B66320  42.118  31.738   6.586
 5166POPC   C3B66321  42.059  31.760   7.045
 5166POPC   C4B66322  41.930  31.916   7.451
 5167POPC   NC366323  35.825  24.706   5.669
 5167POPC   PO466324  35.337  24.420   5.231
 5167POPC   GL166325  35.244  24.391   5.705
 5167POPC   GL266326  35.420  24.621   5.945
 5167POPC   C1A66327  35.181  24.247   6.176
 5167POPC   D2A66328  35.366  24.482   6.536
 5167POPC   C3A66329  35.550  24.454   6.946
 5167POPC   C4A66330  35.517  24.584   7.348
 5167POPC   C1B66331  35.665  24.818   6.305
 5167POPC   C2B66332  35.926  24.716   6.685
 5167POPC   C3B66333  35.967  24.713   7.155
 5167POPC   C4B66334  35.838  25.003   7.447
 5168POPC   NC366335  23.089  22.507   5.551
 5168POPC   PO466336  22.772  21.913   5.308
 5168POPC   GL166337  22.901  22.006   5.735
 5168POPC   GL266338  22.618  22.011   5.926
 5168POPC   C1A66339  23.049  22.212   6.148
 5168POPC   D2A66340  22.911  22.151   6.573
 5168POPC   C3A66341  22.992  22.328   6.971
 5168POPC   C4A66342  22.873  22.185   7.368
 5168POPC   C1B66343  22.458  21.787   6.265
 5168POPC   C2B66344  22.600  21.763   6.641
 5168POPC   C3B66345  22.524  22.019   6.970
 5168POPC   C4B66346  22.554  21.738   7.304
 5169POPC   NC366347  40.641  15.781   5.573
 5169POPC   PO466348  41.177  15.933   5.217
 5169POPC   GL166349  41.021  16.095   5.725
 5169POPC   GL266350  40.685  16.151   5.895
 5169POPC   C1A66351  41.052  16.181   6.219
 5169POPC   D2A66352  40.793  16.034   6.607
 5169POPC   C3A66353  40.725  16.003   7.077
 5169POPC   C4A66354  40.960  16.110   7.453
 5169POPC   C1B66355  40.405  16.050   6.266
 5169POPC   C2B66356  40.344  15.737   6.606
 5169POPC   C3B66357  40.519  15.529   6.964
 5169POPC   C4B66358  40.469  15.656   7.372
 5170POPC   NC366359  13.331  34.734   4.976
 5170POPC   PO466360  13.827  34.529   5.341
 5170POPC   GL166361  13.701  34.332   5.723
 5170POPC   GL266362  13.699  34.633   5.954
 5170POPC   C1A66363  13.746  34.165   6.146
 5170POPC   D2A66364  13.692  34.437   6.521
 5170POPC   C3A66365  13.742  34.291   6.944
 5170POPC   C4A66366  13.408  34.421   7.231
 5170POPC   C1B66367  13.473  34.896   6.252
 5170POPC   C2B66368  13.307  34.804   6.645
 5170POPC   C3B66369  13.516  34.925   7.010
 5170POPC   C4B66370  13.403  34.882   7.432
 5171POPC   NC366371   1.277   5.589   5.435
 5171POPC   PO466372   1.053   6.199   5.552
 5171POPC   GL166373   1.002   6.072   5.946
 5171POPC   GL266374   1.026   5.738   5.851
 5171POPC   C1A66375   1.319   6.101   6.268
 5171POPC   D2A66376   1.580   6.229   6.624
 5171POPC   C3A66377   1.498   5.968   6.987
 5171POPC   C4A66378   1.182   5.971   7.297
 5171POPC   C1B66379   0.914   5.586   6.247
 5171POPC   C2B66380   0.788   5.799   6.621
 5171POPC   C3B66381   0.821   5.668   7.037
 5171POPC   C4B66382   1.100   5.477   7.329
 5172POPC   NC366383  41.811  24.991   5.402
 5172POPC   PO466384  41.610  25.577   5.109
 5172POPC   GL166385  41.516  25.519   5.634
 5172POPC   GL266386  41.602  25.193   5.815
 5172POPC   C1A66387  41.399  25.541   6.127
 5172POPC   D2A66388  41.235  25.370   6.560
 5172POPC   C3A66389  41.467  25.247   6.960
 5172POPC   C4A66390  41.561  25.254   7.427
 5172POPC   C1B66391  41.652  25.005   6.232
 5172POPC   C2B66392  41.859  24.917   6.664
 5172POPC   C3B66393  41.879  24.983   7.129
 5172POPC   C4B66394  41.678  24.768   7.536
 5173POPC   NC366395  21.750  43.095   5.522
 5173POPC   PO466396  21.186  43.276   5.393
 5173POPC   GL166397  21.135  43.188   5.807
 5173POPC   GL266398  21.440  43.040   5.946
 5173POPC   C1A66399  21.121  43.358   6.226
 5173POPC   D2A66400  21.005  43.160   6.622
 5173POPC   C3A66401  21.272  43.160   6.989
 5173POPC   C4A66402  21.138  43.366   7.415
 5173POPC   C1B66403  21.494  43.061   6.410
 5173POPC   C2B66404  21.843  42.905   6.650
 5173POPC   C3B66405  21.823  42.749   7.039
 5173POPC   C4B66406  21.646  43.055   7.322
 5174POPC   NC366407  10.289  29.661   5.605
 5174POPC   PO466408  10.831  29.903   5.232
 5174POPC   GL166409  10.766  29.882   5.664
 5174POPC   GL266410  10.593  30.181   5.627
 5174POPC   C1A66411  10.713  29.794   6.119
 5174POPC   D2A66412  10.874  29.909   6.520
 5174POPC   C3A66413  10.631  29.842   6.853
 5174POPC   C4A66414  10.772  29.553   7.151
 5174POPC   C1B66415  10.421  30.236   6.007
 5174POPC   C2B66416  10.419  30.191   6.437
 5174POPC   C3B66417  10.202  30.144   6.802
 5174POPC   C4B66418  10.168  30.253   7.236
 5175POPC   NC366419  31.314  20.904   5.172
 5175POPC   PO466420  31.552  21.540   5.308
 5175POPC   GL166421  31.550  21.455   5.768
 5175POPC   GL266422  31.845  21.454   5.938
 5175POPC   C1A66423  31.328  21.468   6.181
 5175POPC   D2A66424  31.465  21.550   6.608
 5175POPC   C3A66425  31.233  21.390   6.984
 5175POPC   C4A66426  31.145  21.447   7.434
 5175POPC   C1B66427  31.759  21.196   6.318
 5175POPC   C2B66428  31.796  21.208   6.775
 5175POPC   C3B66429  31.708  21.338   7.189
 5175POPC   C4B66430  31.527  21.124   7.514
 5176POPC   NC366431   2.978   7.940   5.731
 5176POPC   PO466432   2.600   8.312   5.349
 5176POPC   GL166433   2.610   8.330   5.811
 5176POPC   GL266434   2.965   8.445   5.807
 5176POPC   C1A66435   2.516   8.067   6.198
 5176POPC   D2A66436   2.858   7.916   6.483
 5176POPC   C3A66437   2.745   7.908   6.904
 5176POPC   C4A66438   2.874   8.018   7.320
 5176POPC   C1B66439   2.952   8.361   6.229
 5176POPC   C2B66440   3.055   8.543   6.581
 5176POPC   C3B66441   3.049   8.343   6.967
 5176POPC   C4B66442   3.004   8.517   7.392
 5177POPC   NC366443  10.313   1.470   5.448
 5177POPC   PO466444  10.809   1.002   5.557
 5177POPC   GL166445  10.589   1.226   5.841
 5177POPC   GL266446  10.267   1.112   5.852
 5177POPC   C1A66447  10.583   1.034   6.246
 5177POPC   D2A66448  10.479   1.176   6.638
 5177POPC   C3A66449  10.754   1.074   6.958
 5177POPC   C4A66450  11.164   1.155   7.117
 5177POPC   C1B66451  10.055   1.265   6.247
 5177POPC   C2B66452   9.987   1.281   6.707
 5177POPC   C3B66453  10.220   1.123   7.093
 5177POPC   C4B66454  10.544   1.130   7.427
 5178POPC   NC366455   2.164  24.532   5.283
 5178POPC   PO466456   2.875  24.511   5.169
 5178POPC   GL166457   2.667  24.675   5.615
 5178POPC   GL266458   2.692  24.378   5.845
 5178POPC   C1A66459   2.683  24.798   6.124
 5178POPC   D2A66460   2.795  24.932   6.584
 5178POPC   C3A66461   2.584  24.848   6.982
 5178POPC   C4A66462   2.740  24.478   7.180
 5178POPC   C1B66463   2.463  24.337   6.236
 5178POPC   C2B66464   2.583  24.303   6.674
 5178POPC   C3B66465   2.523  24.018   7.003
 5178POPC   C4B66466   2.448  24.083   7.451
 5179POPC   NC366467   5.270   6.845   5.381
 5179POPC   PO466468   4.875   6.273   5.371
 5179POPC   GL166469   5.163   6.469   5.714
 5179POPC   GL266470   5.013   6.836   5.828
 5179POPC   C1A66471   5.318   6.559   6.152
 5179POPC   D2A66472   5.215   6.740   6.556
 5179POPC   C3A66473   5.158   6.525   6.955
 5179POPC   C4A66474   4.967   6.781   7.278
 5179POPC   C1B66475   5.243   7.118   6.151
 5179POPC   C2B66476   5.446   7.195   6.597
 5179POPC   C3B66477   5.286   7.094   7.049
 5179POPC   C4B66478   5.301   7.064   7.540
 5180POPC   NC366479  26.342  41.473   5.204
 5180POPC   PO466480  25.781  41.187   5.412
 5180POPC   GL166481  26.115  41.365   5.708
 5180POPC   GL266482  25.966  41.629   5.913
 5180POPC   C1A66483  26.276  41.273   6.137
 5180POPC   D2A66484  26.084  41.430   6.523
 5180POPC   C3A66485  26.142  41.377   6.981
 5180POPC   C4A66486  25.949  41.663   7.287
 5180POPC   C1B66487  25.762  41.250   6.092
 5180POPC   C2B66488  25.672  41.120   6.495
 5180POPC   C3B66489  25.835  40.973   6.882
 5180POPC   C4B66490  25.738  41.167   7.272
 5181POPC   NC366491   3.821  17.715   5.341
 5181POPC   PO466492   3.340  17.236   5.592
 5181POPC   GL166493   3.641  17.240   5.934
 5181POPC   GL266494   3.797  17.476   5.793
 5181POPC   C1A66495   3.670  17.408   6.411
 5181POPC   D2A66496   3.452  17.363   6.811
 5181POPC   C3A66497   3.463  17.213   7.230
 5181POPC   C4A66498   3.370  17.342   7.643
 5181POPC   C1B66499   3.488  17.717   6.077
 5181POPC   C2B66500   3.542  17.930   6.479
 5181POPC   C3B66501   3.388  17.892   6.897
 5181POPC   C4B66502   3.545  17.716   7.291
 5182POPC   NC366503   3.273  11.275   5.030
 5182POPC   PO466504   3.725  11.696   5.406
 5182POPC   GL166505   3.632  11.454   5.741
 5182POPC   GL266506   3.434  11.188   5.614
 5182POPC   C1A66507   3.404  11.361   6.105
 5182POPC   D2A66508   3.288  11.565   6.437
 5182POPC   C3A66509   3.548  11.466   6.753
 5182POPC   C4A66510   3.496  11.445   7.167
 5182POPC   C1B66511   3.680  10.960   5.972
 5182POPC   C2B66512   3.689  11.043   6.449
 5182POPC   C3B66513   3.546  10.956   6.885
 5182POPC   C4B66514   3.643  10.940   7.318
 5183POPC   NC366515  30.148  35.891   5.428
 5183POPC   PO466516  29.589  36.172   5.488
 5183POPC   GL166517  29.850  36.100   5.820
 5183POPC   GL266518  30.091  36.330   5.880
 5183POPC   C1A66519  29.750  36.249   6.256
 5183POPC   D2A66520  29.733  36.470   6.656
 5183POPC   C3A66521  29.629  36.115   6.965
 5183POPC   C4A66522  29.778  35.981   7.358
 5183POPC   C1B66523  30.234  36.068   6.239
 5183POPC   C2B66524  30.082  36.063   6.652
 5183POPC   C3B66525  30.089  36.328   7.004
 5183POPC   C4B66526  30.238  36.199   7.358
 5184POPC   NC366527  33.584  14.713   5.584
 5184POPC   PO466528  34.085  14.350   5.397
 5184POPC   GL166529  34.028  14.114   5.784
 5184POPC   GL266530  33.934  14.440   5.882
 5184POPC   C1A66531  34.113  14.184   6.278
 5184POPC   D2A66532  33.864  14.356   6.617
 5184POPC   C3A66533  33.981  14.250   7.036
 5184POPC   C4A66534  33.799  14.443   7.404
 5184POPC   C1B66535  33.995  14.684   6.226
 5184POPC   C2B66536  33.859  14.866   6.609
 5184POPC   C3B66537  33.874  14.822   7.068
 5184POPC   C4B66538  33.743  15.068   7.452
 5185POPC   NC366539  41.559   6.168   5.511
 5185POPC   PO466540  42.128   6.552   5.357
 5185POPC   GL166541  41.896   6.585   5.761
 5185POPC   GL266542  41.643   6.869   5.799
 5185POPC   C1A66543  41.745   6.512   6.195
 5185POPC   D2A66544  41.490   6.489   6.563
 5185POPC   C3A66545  41.589   6.322   6.940
 5185POPC   C4A66546  41.876   6.538   7.186
 5185POPC   C1B66547  41.371   6.850   6.175
 5185POPC   C2B66548  41.477   6.997   6.598
 5185POPC   C3B66549  41.504   6.868   7.010
 5185POPC   C4B66550  41.270   7.030   7.345
 5186POPC   NC366551  20.986   3.674   5.574
 5186POPC   PO466552  21.495   3.258   5.447
 5186POPC   GL166553  21.508   3.487   5.796
 5186POPC   GL266554  21.541   3.776   5.653
 5186POPC   C1A66555  21.351   3.628   6.186
 5186POPC   D2A66556  21.523   3.627   6.592
 5186POPC   C3A66557  21.258   3.620   6.932
 5186POPC   C4A66558  21.498   3.321   7.159
 5186POPC   C1B66559  21.663   4.020   6.031
 5186POPC   C2B66560  21.728   4.076   6.484
 5186POPC   C3B66561  21.856   3.906   6.886
 5186POPC   C4B66562  21.680   3.777   7.271
 5187POPC   NC366563  25.488  42.362   5.343
 5187POPC   PO466564  25.073  42.784   5.438
 5187POPC   GL166565  25.342  42.614   5.778
 5187POPC   GL266566  25.323  42.228   5.819
 5187POPC   C1A66567  25.422  42.550   6.215
 5187POPC   D2A66568  25.262  42.346   6.579
 5187POPC   C3A66569  25.474  42.522   6.918
 5187POPC   C4A66570  25.165  42.601   7.200
 5187POPC   C1B66571  25.076  42.054   6.182
 5187POPC   C2B66572  24.941  41.904   6.596
 5187POPC   C3B66573  25.264  41.877   6.855
 5187POPC   C4B66574  25.317  42.103   7.192
 5188POPC   NC366575   6.018  19.144   5.380
 5188POPC   PO466576   6.042  18.508   5.405
 5188POPC   GL166577   5.863  18.720   5.701
 5188POPC   GL266578   6.201  18.848   5.784
 5188POPC   C1A66579   5.774  18.865   6.105
 5188POPC   D2A66580   6.026  18.940   6.470
 5188POPC   C3A66581   5.758  18.899   6.806
 5188POPC   C4A66582   5.723  18.934   7.226
 5188POPC   C1B66583   6.175  19.222   6.035
 5188POPC   C2B66584   5.989  19.475   6.359
 5188POPC   C3B66585   6.065  19.371   6.784
 5188POPC   C4B66586   6.090  19.324   7.209
 5189POPC   NC366587  25.736  25.201   5.339
 5189POPC   PO466588  26.400  25.392   5.275
 5189POPC   GL166589  26.062  25.466   5.641
 5189POPC   GL266590  26.044  25.114   5.800
 5189POPC   C1A66591  25.982  25.521   6.127
 5189POPC   D2A66592  26.126  25.392   6.564
 5189POPC   C3A66593  25.864  25.269   6.927
 5189POPC   C4A66594  25.604  24.997   7.194
 5189POPC   C1B66595  25.974  24.979   6.270
 5189POPC   C2B66596  26.132  24.865   6.721
 5189POPC   C3B66597  26.108  24.900   7.210
 5189POPC   C4B66598  26.203  24.903   7.661
 5190POPC   NC366599  21.343  34.222   5.400
 5190POPC   PO466600  21.324  34.799   5.422
 5190POPC   GL166601  21.445  34.615   5.825
 5190POPC   GL266602  21.572  34.251   5.866
 5190POPC   C1A66603  21.270  34.757   6.265
 5190POPC   D2A66604  21.190  34.901   6.721
 5190POPC   C3A66605  21.326  34.682   7.119
 5190POPC   C4A66606  21.410  34.743   7.570
 5190POPC   C1B66607  21.689  34.480   6.274
 5190POPC   C2B66608  21.659  34.516   6.748
 5190POPC   C3B66609  21.648  34.250   7.116
 5190POPC   C4B66610  21.703  34.316   7.586
 5191POPC   NC366611  17.255  28.538   5.388
 5191POPC   PO466612  17.810  28.138   5.504
 5191POPC   GL166613  17.472  28.198   5.805
 5191POPC   GL266614  17.292  28.500   5.898
 5191POPC   C1A66615  17.396  28.146   6.248
 5191POPC   D2A66616  17.276  28.432   6.581
 5191POPC   C3A66617  17.334  28.236   6.968
 5191POPC   C4A66618  17.439  28.345   7.378
 5191POPC   C1B66619  17.654  28.583   6.203
 5191POPC   C2B66620  17.698  28.751   6.632
 5191POPC   C3B66621  17.898  28.781   7.035
 5191POPC   C4B66622  17.657  28.871   7.386
 5192POPC   NC366623   0.240   0.569   5.457
 5192POPC   PO466624   0.695   0.115   5.384
 5192POPC   GL166625   0.634   0.352   5.806
 5192POPC   GL266626   0.279   0.404   5.933
 5192POPC   C1A66627   0.609   0.263   6.285
 5192POPC   D2A66628   0.289   0.269   6.622
 5192POPC   C3A66629   0.391   0.314   7.056
 5192POPC   C4A66630   0.586   0.443   7.427
 5192POPC   C1B66631   0.155   0.662   6.312
 5192POPC   C2B66632   0.111   0.724   6.791
 5192POPC   C3B66633   0.239   0.801   7.242
 5192POPC   C4B66634   0.232   0.633   7.725
 5193POPC   NC366635  34.280  32.299   5.475
 5193POPC   PO466636  34.711  31.792   5.531
 5193POPC   GL166637  34.676  32.096   5.849
 5193POPC   GL266638  34.383  32.005   5.958
 5193POPC   C1A66639  34.683  32.384   6.209
 5193POPC   D2A66640  34.630  32.497   6.638
 5193POPC   C3A66641  34.820  32.315   6.991
 5193POPC   C4A66642  34.637  32.295   7.410
 5193POPC   C1B66643  34.322  31.700   6.297
 5193POPC   C2B66644  34.423  31.787   6.684
 5193POPC   C3B66645  34.371  32.101   6.946
 5193POPC   C4B66646  34.222  32.013   7.308
 5194POPC   NC366647  26.570  39.620   5.435
 5194POPC   PO466648  27.162  39.775   5.227
 5194POPC   GL166649  27.074  39.777   5.719
 5194POPC   GL266650  26.770  39.962   5.757
 5194POPC   C1A66651  27.055  40.034   6.153
 5194POPC   D2A66652  26.948  40.187   6.555
 5194POPC   C3A66653  26.911  39.943   6.925
 5194POPC   C4A66654  27.144  39.871   7.253
 5194POPC   C1B66655  26.690  39.677   6.121
 5194POPC   C2B66656  26.590  39.782   6.547
 5194POPC   C3B66657  26.471  40.153   6.779
 5194POPC   C4B66658  26.549  40.173   7.206
 5195POPC   NC366659   6.510  18.568   5.479
 5195POPC   PO466660   7.001  18.111   5.323
 5195POPC   GL166661   6.803  18.274   5.752
 5195POPC   GL266662   6.943  18.620   5.777
 5195POPC   C1A66663   6.577  18.184   6.176
 5195POPC   D2A66664   6.503  18.029   6.627
 5195POPC   C3A66665   6.538  18.165   7.073
 5195POPC   C4A66666   6.443  17.967   7.492
 5195POPC   C1B66667   6.930  18.535   6.192
 5195POPC   C2B66668   6.672  18.580   6.531
 5195POPC   C3B66669   6.856  18.585   6.915
 5195POPC   C4B66670   6.651  18.644   7.288
 5196POPC   NC366671  18.148  17.727   5.447
 5196POPC   PO466672  18.669  17.603   5.364
 5196POPC   GL166673  18.471  17.640   5.847
 5196POPC   GL266674  18.092  17.734   5.990
 5196POPC   C1A66675  18.428  17.550   6.329
 5196POPC   D2A66676  18.346  17.661   6.795
 5196POPC   C3A66677  18.534  17.386   7.129
 5196POPC   C4A66678  18.643  17.144   7.505
 5196POPC   C1B66679  17.760  17.746   6.387
 5196POPC   C2B66680  17.603  17.678   6.853
 5196POPC   C3B66681  17.960  17.667   7.168
 5196POPC   C4B66682  18.404  17.852   7.271
 5197POPC   NC366683  26.384  15.183   5.390
 5197POPC   PO466684  26.979  15.241   5.307
 5197POPC   GL166685  27.120  15.355   5.708
 5197POPC   GL266686  26.834  15.165   5.820
 5197POPC   C1A66687  27.129  15.372   6.173
 5197POPC   D2A66688  26.981  15.225   6.579
 5197POPC   C3A66689  27.255  15.277   6.927
 5197POPC   C4A66690  27.171  15.635   7.197
 5197POPC   C1B66691  26.938  14.877   6.186
 5197POPC   C2B66692  26.841  14.729   6.628
 5197POPC   C3B66693  26.891  14.931   7.051
 5197POPC   C4B66694  26.890  15.219   7.423
 5198POPC   NC366695   7.834  25.897   5.403
 5198POPC   PO466696   7.243  26.151   5.468
 5198POPC   GL166697   7.389  25.954   5.796
 5198POPC   GL266698   7.335  25.610   5.721
 5198POPC   C1A66699   7.527  26.118   6.188
 5198POPC   D2A66700   7.691  26.359   6.543
 5198POPC   C3A66701   7.458  26.236   6.909
 5198POPC   C4A66702   7.386  26.240   7.340
 5198POPC   C1B66703   7.480  25.606   6.157
 5198POPC   C2B66704   7.391  25.787   6.561
 5198POPC   C3B66705   7.565  25.721   6.936
 5198POPC   C4B66706   7.543  25.776   7.351
 5199POPC   NC366707   0.535  32.517   5.179
 5199POPC   PO466708   0.140  32.163   5.551
 5199POPC   GL166709   0.342  32.354   5.806
 5199POPC   GL266710   0.648  32.327   5.635
 5199POPC   C1A66711   0.257  32.449   6.208
 5199POPC   D2A66712   0.269  32.681   6.562
 5199POPC   C3A66713   0.139  32.498   6.916
 5199POPC   C4A66714   0.240  32.306   7.296
 5199POPC   C1B66715   0.755  32.233   6.077
 5199POPC   C2B66716   0.592  32.226   6.500
 5199POPC   C3B66717   0.526  32.147   6.900
 5199POPC   C4B66718   0.724  32.361   7.230
 5200POPC   NC366719  18.583  29.336   5.571
 5200POPC   PO466720  18.015  29.032   5.621
 5200POPC   GL166721  18.314  28.938   5.921
 5200POPC   GL266722  18.669  28.872   5.820
 5200POPC   C1A66723  18.218  28.833   6.352
 5200POPC   D2A66724  18.340  28.781   6.774
 5200POPC   C3A66725  18.372  29.094   7.053
 5200POPC   C4A66726  18.047  29.215   7.324
 5200POPC   C1B66727  18.681  29.112   6.231
 5200POPC   C2B66728  18.472  29.347   6.577
 5200POPC   C3B66729  18.512  29.589   6.983
 5200POPC   C4B66730  18.568  29.503   7.404
 5201POPC   NC366731   7.398  20.332   5.169
 5201POPC   PO466732   7.627  19.876   5.495
 5201POPC   GL166733   7.318  19.981   5.780
 5201POPC   GL266734   7.219  19.627   5.791
 5201POPC   C1A66735   7.319  20.148   6.213
 5201POPC   D2A66736   7.312  19.961   6.663
 5201POPC   C3A66737   7.429  20.262   7.019
 5201POPC   C4A66738   7.365  20.320   7.494
 5201POPC   C1B66739   7.394  19.650   6.226
 5201POPC   C2B66740   7.762  19.678   6.544
 5201POPC   C3B66741   7.713  19.745   7.017
 5201POPC   C4B66742   7.446  19.822   7.401
 5202POPC   NC366743  12.715  37.399   5.466
 5202POPC   PO466744  13.131  37.901   5.459
 5202POPC   GL166745  12.955  37.711   5.812
 5202POPC   GL266746  12.687  37.921   5.882
 5202POPC   C1A66747  12.786  37.440   6.157
 5202POPC   D2A66748  12.738  37.453   6.615
 5202POPC   C3A66749  13.073  37.707   6.833
 5202POPC   C4A66750  13.228  37.586   7.219
 5202POPC   C1B66751  12.818  37.937   6.342
 5202POPC   C2B66752  12.635  37.944   6.759
 5202POPC   C3B66753  12.424  37.850   7.153
 5202POPC   C4B66754  12.529  38.013   7.589
 5203POPC   NC366755  15.961  14.583   5.368
 5203POPC   PO466756  15.535  14.099   5.386
 5203POPC   GL166757  15.913  14.125   5.639
 5203POPC   GL266758  15.799  13.976   5.922
 5203POPC   C1A66759  16.079  14.392   6.011
 5203POPC   D2A66760  16.101  14.486   6.474
 5203POPC   C3A66761  16.040  14.529   6.916
 5203POPC   C4A66762  15.716  14.727   7.202
 5203POPC   C1B66763  15.938  14.007   6.355
 5203POPC   C2B66764  15.828  14.075   6.759
 5203POPC   C3B66765  15.967  14.100   7.172
 5203POPC   C4B66766  15.929  13.922   7.547
 5204POPC   NC366767  21.144  23.310   5.363
 5204POPC   PO466768  21.487  23.898   5.229
 5204POPC   GL166769  21.461  23.700   5.682
 5204POPC   GL266770  21.169  23.532   5.818
 5204POPC   C1A66771  21.583  23.625   6.142
 5204POPC   D2A66772  21.370  23.514   6.549
 5204POPC   C3A66773  21.527  23.674   6.965
 5204POPC   C4A66774  21.473  23.616   7.406
 5204POPC   C1B66775  21.087  23.248   6.155
 5204POPC   C2B66776  20.939  23.248   6.586
 5204POPC   C3B66777  21.036  23.475   6.980
 5204POPC   C4B66778  20.978  23.404   7.418
 5205POPC   NC366779  11.187  25.454   5.629
 5205POPC   PO466780  11.808  25.145   5.511
 5205POPC   GL166781  11.612  25.290   5.924
 5205POPC   GL266782  11.534  25.642   5.968
 5205POPC   C1A66783  11.325  25.185   6.282
 5205POPC   D2A66784  11.182  24.902   6.627
 5205POPC   C3A66785  11.207  25.121   6.999
 5205POPC   C4A66786  11.589  25.167   7.254
 5205POPC   C1B66787  11.249  25.697   6.330
 5205POPC   C2B66788  11.316  25.570   6.768
 5205POPC   C3B66789  11.322  25.587   7.233
 5205POPC   C4B66790  11.493  25.502   7.660
 5206POPC   NC366791  31.751  26.793   5.309
 5206POPC   PO466792  31.126  27.065   5.485
 5206POPC   GL166793  31.305  27.010   5.854
 5206POPC   GL266794  31.539  26.771   5.831
 5206POPC   C1A66795  31.176  26.802   6.255
 5206POPC   D2A66796  31.025  26.620   6.654
 5206POPC   C3A66797  31.307  26.691   7.021
 5206POPC   C4A66798  31.383  27.020   7.341
 5206POPC   C1B66799  31.675  26.676   6.231
 5206POPC   C2B66800  31.520  26.440   6.585
 5206POPC   C3B66801  31.698  26.355   6.989
 5206POPC   C4B66802  31.681  26.550   7.386
 5207POPC   NC366803  32.610  30.920   5.620
 5207POPC   PO466804  32.668  30.257   5.674
 5207POPC   GL166805  32.227  30.448   5.730
 5207POPC   GL266806  32.095  30.831   5.770
 5207POPC   C1A66807  32.124  30.494   6.163
 5207POPC   D2A66808  32.307  30.392   6.574
 5207POPC   C3A66809  32.111  30.538   6.956
 5207POPC   C4A66810  32.401  30.447   7.271
 5207POPC   C1B66811  32.191  31.020   6.189
 5207POPC   C2B66812  32.318  30.914   6.606
 5207POPC   C3B66813  32.255  31.077   6.998
 5207POPC   C4B66814  32.076  30.923   7.355
 5208POPC   NC366815  20.838  10.975   5.554
 5208POPC   PO466816  20.444  11.414   5.401
 5208POPC   GL166817  20.427  11.349   5.825
 5208POPC   GL266818  20.390  11.009   5.823
 5208POPC   C1A66819  20.544  11.525   6.246
 5208POPC   D2A66820  20.856  11.345   6.574
 5208POPC   C3A66821  20.680  11.105   6.959
 5208POPC   C4A66822  20.500  11.432   7.174
 5208POPC   C1B66823  20.579  11.022   6.236
 5208POPC   C2B66824  20.346  11.206   6.609
 5208POPC   C3B66825  20.157  11.003   6.966
 5208POPC   C4B66826  20.297  11.009   7.389
 5209POPC   NC366827  39.098  44.603   5.146
 5209POPC   PO466828  39.494  44.855   5.648
 5209POPC   GL166829  39.358  44.482   5.878
 5209POPC   GL266830  39.624  44.262   5.990
 5209POPC   C1A66831  39.180  44.346   6.309
 5209POPC   D2A66832  39.158  44.554   6.724
 5209POPC   C3A66833  39.036  44.381   7.139
 5209POPC   C4A66834  39.121  44.636   7.512
 5209POPC   C1B66835  39.611  44.595   6.325
 5209POPC   C2B66836  39.685  44.572   6.750
 5209POPC   C3B66837  39.507  44.549   7.122
 5209POPC   C4B66838  39.590  44.227   7.390
 5210POPC   NC366839  42.744  33.994   5.377
 5210POPC   PO466840  43.424  33.837   5.459
 5210POPC   GL166841  43.177  33.645   5.776
 5210POPC   GL266842  42.858  33.488   5.697
 5210POPC   C1A66843  43.073  33.747   6.187
 5210POPC   D2A66844  43.322  33.935   6.519
 5210POPC   C3A66845  43.102  33.855   6.875
 5210POPC   C4A66846  43.170  33.781   7.298
 5210POPC   C1B66847  42.750  33.335   6.125
 5210POPC   C2B66848  42.834  33.464   6.552
 5210POPC   C3B66849  42.628  33.549   6.943
 5210POPC   C4B66850  42.774  33.471   7.354
 5211POPC   NC366851   0.491  19.571   5.541
 5211POPC   PO466852   0.062  19.094   5.317
 5211POPC   GL166853   0.323  19.116   5.722
 5211POPC   GL266854   0.688  19.235   5.857
 5211POPC   C1A66855   0.313  19.101   6.172
 5211POPC   D2A66856   0.461  19.048   6.585
 5211POPC   C3A66857   0.154  19.067   6.912
 5211POPC   C4A66858   0.209  18.872   7.268
 5211POPC   C1B66859   0.939  19.205   6.248
 5211POPC   C2B66860   0.875  19.321   6.686
 5211POPC   C3B66861   0.634  19.167   7.070
 5211POPC   C4B66862   0.805  19.182   7.508
 5212POPC   NC366863  16.282  41.897   5.314
 5212POPC   PO466864  16.740  41.510   5.587
 5212POPC   GL166865  16.931  41.518   5.931
 5212POPC   GL266866  17.115  41.252   5.790
 5212POPC   C1A66867  16.755  41.479   6.338
 5212POPC   D2A66868  16.688  41.727   6.691
 5212POPC   C3A66869  16.858  41.573   7.082
 5212POPC   C4A66870  16.589  41.771   7.337
 5212POPC   C1B66871  16.979  41.065   6.136
 5212POPC   C2B66872  16.972  41.049   6.541
 5212POPC   C3B66873  17.167  41.247   6.832
 5212POPC   C4B66874  17.051  41.099   7.199
 5213POPC   NC366875   2.426   2.794   5.405
 5213POPC   PO466876   3.016   3.180   5.279
 5213POPC   GL166877   3.034   2.977   5.757
 5213POPC   GL266878   2.982   2.608   5.835
 5213POPC   C1A66879   2.900   3.060   6.210
 5213POPC   D2A66880   2.892   2.789   6.602
 5213POPC   C3A66881   2.728   2.856   7.041
 5213POPC   C4A66882   3.016   2.782   7.454
 5213POPC   C1B66883   2.610   2.614   6.169
 5213POPC   C2B66884   2.427   2.538   6.610
 5213POPC   C3B66885   2.513   2.370   7.007
 5213POPC   C4B66886   2.938   2.375   7.131
 5214POPC   NC366887  37.936  23.120   5.416
 5214POPC   PO466888  38.628  22.905   5.262
 5214POPC   GL166889  38.325  22.862   5.668
 5214POPC   GL266890  38.209  23.174   5.849
 5214POPC   C1A66891  38.385  22.748   6.137
 5214POPC   D2A66892  38.707  22.617   6.483
 5214POPC   C3A66893  38.614  22.873   6.868
 5214POPC   C4A66894  38.303  22.792   7.179
 5214POPC   C1B66895  38.253  23.243   6.297
 5214POPC   C2B66896  38.165  23.137   6.741
 5214POPC   C3B66897  38.285  23.311   7.153
 5214POPC   C4B66898  38.203  23.410   7.608
 5215POPC   NC366899  13.034  35.702   5.367
 5215POPC   PO466900  12.513  36.216   5.449
 5215POPC   GL166901  12.641  35.992   5.803
 5215POPC   GL266902  12.911  36.210   5.814
 5215POPC   C1A66903  12.554  35.821   6.234
 5215POPC   D2A66904  12.743  35.940   6.664
 5215POPC   C3A66905  12.609  36.266   6.959
 5215POPC   C4A66906  12.630  36.335   7.406
 5215POPC   C1B66907  12.967  36.086   6.200
 5215POPC   C2B66908  13.017  36.361   6.496
 5215POPC   C3B66909  13.225  36.338   6.828
 5215POPC   C4B66910  13.110  36.366   7.244
 5216POPC   NC366911   8.520   2.213   5.465
 5216POPC   PO466912   9.212   1.906   5.413
 5216POPC   GL166913   9.179   2.045   5.842
 5216POPC   GL266914   8.843   2.157   5.857
 5216POPC   C1A66915   9.054   1.932   6.260
 5216POPC   D2A66916   9.008   1.630   6.540
 5216POPC   C3A66917   9.025   1.824   6.906
 5216POPC   C4A66918   8.968   1.883   7.311
 5216POPC   C1B66919   8.624   2.295   6.239
 5216POPC   C2B66920   8.722   2.150   6.654
 5216POPC   C3B66921   8.873   2.317   7.044
 5216POPC   C4B66922   8.638   2.291   7.418
 5217POPC   NC366923  25.352   7.958   5.411
 5217POPC   PO466924  24.881   8.548   5.475
 5217POPC   GL166925  25.078   8.272   5.776
 5217POPC   GL266926  25.093   7.892   5.832
 5217POPC   C1A66927  25.094   8.277   6.216
 5217POPC   D2A66928  25.191   8.165   6.618
 5217POPC   C3A66929  25.165   8.449   6.958
 5217POPC   C4A66930  25.505   8.491   7.270
 5217POPC   C1B66931  25.209   7.750   6.230
 5217POPC   C2B66932  25.435   7.701   6.596
 5217POPC   C3B66933  25.231   7.812   6.983
 5217POPC   C4B66934  25.162   8.090   7.302
 5218POPC   NC366935  38.543  17.314   5.510
 5218POPC   PO466936  38.103  17.693   5.328
 5218POPC   GL166937  38.234  17.690   5.751
 5218POPC   GL266938  38.614  17.753   5.786
 5218POPC   C1A66939  38.193  17.383   6.077
 5218POPC   D2A66940  38.251  17.461   6.508
 5218POPC   C3A66941  38.370  17.185   6.847
 5218POPC   C4A66942  38.173  17.397   7.206
 5218POPC   C1B66943  38.676  17.519   6.177
 5218POPC   C2B66944  38.773  17.370   6.575
 5218POPC   C3B66945  38.709  17.543   6.958
 5218POPC   C4B66946  38.677  17.365   7.288
 5219POPC   NC366947  20.813   9.615   5.325
 5219POPC   PO466948  20.143   9.716   5.204
 5219POPC   GL166949  20.454   9.446   5.619
 5219POPC   GL266950  20.639   9.759   5.795
 5219POPC   C1A66951  20.493   9.389   6.102
 5219POPC   D2A66952  20.450   9.346   6.560
 5219POPC   C3A66953  20.658   9.635   6.855
 5219POPC   C4A66954  20.619   9.851   7.239
 5219POPC   C1B66955  20.504   9.888   6.245
 5219POPC   C2B66956  20.455  10.070   6.669
 5219POPC   C3B66957  20.190   9.834   6.955
 5219POPC   C4B66958  20.075   9.832   7.385
 5220POPC   NC366959  15.514  20.733   5.420
 5220POPC   PO466960  15.015  20.369   5.277
 5220POPC   GL166961  15.012  20.408   5.737
 5220POPC   GL266962  15.329  20.423   5.821
 5220POPC   C1A66963  14.970  20.509   6.205
 5220POPC   D2A66964  15.006  20.728   6.607
 5220POPC   C3A66965  14.790  20.704   7.015
 5220POPC   C4A66966  14.887  20.484   7.416
 5220POPC   C1B66967  15.468  20.670   6.167
 5220POPC   C2B66968  15.608  20.847   6.565
 5220POPC   C3B66969  15.566  20.858   7.012
 5220POPC   C4B66970  15.199  20.903   7.247
 5221POPC   NC366971   4.502  32.022   5.812
 5221POPC   PO466972   4.067  32.320   5.468
 5221POPC   GL166973   4.117  32.373   5.883
 5221POPC   GL266974   4.429  32.567   5.909
 5221POPC   C1A66975   4.174  32.318   6.321
 5221POPC   D2A66976   4.321  32.550   6.644
 5221POPC   C3A66977   4.222  32.325   6.972
 5221POPC   C4A66978   3.964  32.351   7.291
 5221POPC   C1B66979   4.716  32.498   6.248
 5221POPC   C2B66980   4.817  32.647   6.646
 5221POPC   C3B66981   4.690  32.469   7.078
 5221POPC   C4B66982   4.707  32.500   7.519
 5222POPC   NC366983   5.561  21.693   5.161
 5222POPC   PO466984   5.859  21.152   5.561
 5222POPC   GL166985   5.611  21.458   5.828
 5222POPC   GL266986   5.691  21.836   5.834
 5222POPC   C1A66987   5.583  21.447   6.287
 5222POPC   D2A66988   5.908  21.252   6.561
 5222POPC   C3A66989   5.726  21.128   6.932
 5222POPC   C4A66990   5.707  21.305   7.324
 5222POPC   C1B66991   6.008  21.757   6.178
 5222POPC   C2B66992   6.160  21.699   6.597
 5222POPC   C3B66993   5.931  21.615   6.974
 5222POPC   C4B66994   6.100  21.599   7.387
 5223POPC   NC366995  34.945  39.075   5.409
 5223POPC   PO466996  35.696  39.201   5.373
 5223POPC   GL166997  35.396  39.051   5.659
 5223POPC   GL266998  35.244  39.343   5.737
 5223POPC   C1A66999  35.353  38.960   6.105
 5223POPC   D2A67000  35.221  39.073   6.511
 5223POPC   C3A67001  35.513  38.967   6.855
 5223POPC   C4A67002  35.408  38.996   7.293
 5223POPC   C1B67003  35.306  39.479   6.141
 5223POPC   C2B67004  35.531  39.492   6.525
 5223POPC   C3B67005  35.317  39.433   6.894
 5223POPC   C4B67006  35.448  39.492   7.277
 5224POPC   NC367007  18.152   6.007   5.434
 5224POPC   PO467008  18.700   5.584   5.372
 5224POPC   GL167009  18.400   5.673   5.772
 5224POPC   GL267010  18.336   6.032   5.892
 5224POPC   C1A67011  18.150   5.667   6.191
 5224POPC   D2A67012  17.987   5.860   6.594
 5224POPC   C3A67013  18.152   5.726   6.993
 5224POPC   C4A67014  18.132   5.724   7.443
 5224POPC   C1B67015  18.345   6.133   6.351
 5224POPC   C2B67016  18.532   5.872   6.677
 5224POPC   C3B67017  18.589   5.955   7.128
 5224POPC   C4B67018  18.577   5.958   7.580
 5225POPC   NC367019  41.768  27.523   5.465
 5225POPC   PO467020  41.232  27.866   5.370
 5225POPC   GL167021  41.262  27.617   5.805
 5225POPC   GL267022  41.520  27.426   5.883
 5225POPC   C1A67023  41.463  27.749   6.242
 5225POPC   D2A67024  41.622  27.861   6.637
 5225POPC   C3A67025  41.504  27.551   6.892
 5225POPC   C4A67026  41.311  27.572   7.256
 5225POPC   C1B67027  41.871  27.426   6.118
 5225POPC   C2B67028  41.900  27.420   6.551
 5225POPC   C3B67029  42.011  27.628   6.929
 5225POPC   C4B67030  41.834  27.460   7.316
 5226POPC   NC367031  18.854  43.267   4.859
 5226POPC   PO467032  18.967  42.881   5.398
 5226POPC   GL167033  18.994  43.163   5.809
 5226POPC   GL267034  19.344  43.363   5.866
 5226POPC   C1A67035  18.840  43.060   6.243
 5226POPC   D2A67036  18.949  43.252   6.631
 5226POPC   C3A67037  18.933  42.998   6.986
 5226POPC   C4A67038  18.892  43.199   7.374
 5226POPC   C1B67039  19.353  43.203   6.294
 5226POPC   C2B67040  19.452  43.179   6.744
 5226POPC   C3B67041  19.241  43.417   7.062
 5226POPC   C4B67042  19.290  43.495   7.529
 5227POPC   NC367043  28.855  43.594   5.362
 5227POPC   PO467044  29.139  44.199   5.234
 5227POPC   GL167045  29.024  44.071   5.681
 5227POPC   GL267046  29.061  43.731   5.799
 5227POPC   C1A67047  28.898  44.032   6.150
 5227POPC   D2A67048  29.035  43.782   6.528
 5227POPC   C3A67049  28.888  43.883   6.917
 5227POPC   C4A67050  28.973  43.993   7.355
 5227POPC   C1B67051  29.332  43.614   6.159
 5227POPC   C2B67052  29.541  43.634   6.587
 5227POPC   C3B67053  29.393  43.766   6.981
 5227POPC   C4B67054  29.077  43.512   7.200
 5228POPC   NC367055  20.287  10.181   5.604
 5228POPC   PO467056  19.806  10.645   5.359
 5228POPC   GL167057  20.016  10.652   5.735
 5228POPC   GL267058  19.749  10.770   5.896
 5228POPC   C1A67059  20.187  10.682   6.158
 5228POPC   D2A67060  19.954  10.776   6.521
 5228POPC   C3A67061  20.036  10.503   6.873
 5228POPC   C4A67062  19.901  10.674   7.286
 5228POPC   C1B67063  19.740  10.385   6.121
 5228POPC   C2B67064  19.613  10.350   6.551
 5228POPC   C3B67065  19.552  10.603   6.867
 5228POPC   C4B67066  19.374  10.612   7.220
 5229POPC   NC367067  32.554  10.824   5.489
 5229POPC   PO467068  32.532  11.555   5.400
 5229POPC   GL167069  32.345  11.293   5.748
 5229POPC   GL267070  31.985  11.197   5.733
 5229POPC   C1A67071  32.476  11.217   6.175
 5229POPC   D2A67072  32.612  11.208   6.606
 5229POPC   C3A67073  32.318  11.065   6.922
 5229POPC   C4A67074  32.239  11.162   7.370
 5229POPC   C1B67075  31.957  11.119   6.177
 5229POPC   C2B67076  31.689  11.224   6.535
 5229POPC   C3B67077  31.808  11.208   6.961
 5229POPC   C4B67078  31.750  11.015   7.340
 5230POPC   NC367079  15.178  10.657   5.361
 5230POPC   PO467080  14.605  10.601   5.443
 5230POPC   GL167081  14.912  10.329   5.750
 5230POPC   GL267082  15.280  10.305   5.727
 5230POPC   C1A67083  15.058  10.215   6.217
 5230POPC   D2A67084  15.074  10.137   6.703
 5230POPC   C3A67085  14.912  10.468   6.981
 5230POPC   C4A67086  15.032  10.667   7.381
 5230POPC   C1B67087  15.527  10.423   6.121
 5230POPC   C2B67088  15.605  10.558   6.567
 5230POPC   C3B67089  15.406  10.584   6.977
 5230POPC   C4B67090  15.352  10.210   7.180
 5231POPC   NC367091  16.640  44.816   4.853
 5231POPC   PO467092  16.618  44.691   5.544
 5231POPC   GL167093  16.801  44.516   5.876
 5231POPC   GL267094  16.934  44.849   5.953
 5231POPC   C1A67095  16.749  44.547   6.331
 5231POPC   D2A67096  17.022  44.530   6.656
 5231POPC   C3A67097  16.873  44.420   7.020
 5231POPC   C4A67098  16.763  44.409   7.408
 5231POPC   C1B67099  16.565  44.984   6.138
 5231POPC   C2B67100  16.445  44.946   6.558
 5231POPC   C3B67101  16.751  44.912   6.855
 5231POPC   C4B67102  16.812  44.893   7.286
 5232POPC   NC367103  34.231  19.779   5.473
 5232POPC   PO467104  33.601  19.845   5.420
 5232POPC   GL167105  33.809  19.985   5.823
 5232POPC   GL267106  34.168  20.075   5.917
 5232POPC   C1A67107  33.922  19.773   6.245
 5232POPC   D2A67108  34.095  19.933   6.661
 5232POPC   C3A67109  33.959  19.770   7.066
 5232POPC   C4A67110  33.551  19.727   7.300
 5232POPC   C1B67111  33.962  20.277   6.283
 5232POPC   C2B67112  33.920  20.435   6.715
 5232POPC   C3B67113  33.779  20.253   7.132
 5232POPC   C4B67114  33.662  20.135   7.563
 5233POPC   NC367115  33.394  38.679   5.577
 5233POPC   PO467116  33.909  38.236   5.408
 5233POPC   GL167117  33.835  38.401   5.807
 5233POPC   GL267118  33.485  38.241   5.815
 5233POPC   C1A67119  34.037  38.385   6.252
 5233POPC   D2A67120  34.059  38.158   6.664
 5233POPC   C3A67121  33.941  38.433   7.011
 5233POPC   C4A67122  33.899  38.654   7.439
 5233POPC   C1B67123  33.530  38.463   6.204
 5233POPC   C2B67124  33.607  38.388   6.610
 5233POPC   C3B67125  33.433  38.387   7.004
 5233POPC   C4B67126  33.407  38.580   7.374
 5234POPC   NC367127  27.059  23.829   5.488
 5234POPC   PO467128  26.390  23.749   5.533
 5234POPC   GL167129  26.707  23.730   5.859
 5234POPC   GL267130  27.077  23.668   5.964
 5234POPC   C1A67131  26.681  23.712   6.287
 5234POPC   D2A67132  26.760  23.428   6.593
 5234POPC   C3A67133  26.508  23.516   6.926
 5234POPC   C4A67134  26.672  23.812   7.203
 5234POPC   C1B67135  27.313  23.425   6.248
 5234POPC   C2B67136  27.253  23.183   6.587
 5234POPC   C3B67137  27.267  23.330   6.977
 5234POPC   C4B67138  27.084  23.521   7.285
 5235POPC   NC367139  38.615  22.483   5.438
 5235POPC   PO467140  38.299  21.949   5.202
 5235POPC   GL167141  38.426  22.027   5.659
 5235POPC   GL267142  38.786  22.024   5.833
 5235POPC   C1A67143  38.347  22.238   6.071
 5235POPC   D2A67144  38.300  22.198   6.541
 5235POPC   C3A67145  38.517  22.356   6.901
 5235POPC   C4A67146  38.396  22.320   7.335
 5235POPC   C1B67147  38.773  22.081   6.318
 5235POPC   C2B67148  38.660  21.833   6.694
 5235POPC   C3B67149  38.513  21.708   7.099
 5235POPC   C4B67150  38.552  21.878   7.508
 5236POPC   NC367151  37.948  12.197   5.451
 5236POPC   PO467152  37.366  11.838   5.339
 5236POPC   GL167153  37.599  11.905   5.748
 5236POPC   GL267154  37.705  12.246   5.915
 5236POPC   C1A67155  37.847  11.795   6.107
 5236POPC   D2A67156  37.964  11.714   6.507
 5236POPC   C3A67157  37.877  11.978   6.836
 5236POPC   C4A67158  37.816  11.821   7.238
 5236POPC   C1B67159  37.953  12.268   6.336
 5236POPC   C2B67160  37.972  12.484   6.750
 5236POPC   C3B67161  37.976  12.350   7.193
 5236POPC   C4B67162  37.583  12.241   7.404
 5237POPC   NC367163  42.284  11.113   5.146
 5237POPC   PO467164  42.214  10.521   5.583
 5237POPC   GL167165  42.434  10.755   5.877
 5237POPC   GL267166  42.092  10.780   6.021
 5237POPC   C1A67167  42.634  10.581   6.256
 5237POPC   D2A67168  42.525  10.196   6.505
 5237POPC   C3A67169  42.533  10.256   6.955
 5237POPC   C4A67170  42.604  10.673   7.105
 5237POPC   C1B67171  42.125  10.480   6.308
 5237POPC   C2B67172  42.253  10.641   6.701
 5237POPC   C3B67173  42.084  10.569   7.099
 5237POPC   C4B67174  41.926  10.203   7.328
 5238POPC   NC367175  40.015  39.373   5.409
 5238POPC   PO467176  39.918  38.725   5.152
 5238POPC   GL167177  40.075  38.856   5.681
 5238POPC   GL267178  39.897  39.176   5.861
 5238POPC   C1A67179  40.168  38.921   6.180
 5238POPC   D2A67180  39.846  39.099   6.503
 5238POPC   C3A67181  39.969  39.041   6.949
 5238POPC   C4A67182  40.025  39.273   7.298
 5238POPC   C1B67183  39.714  39.533   6.105
 5238POPC   C2B67184  39.559  39.561   6.553
 5238POPC   C3B67185  39.768  39.530   6.943
 5238POPC   C4B67186  39.710  39.654   7.381
 5239POPC   NC367187   9.452  42.517   5.250
 5239POPC   PO467188  10.010  42.292   5.571
 5239POPC   GL167189   9.742  42.349   5.886
 5239POPC   GL267190   9.479  42.543   5.765
 5239POPC   C1A67191   9.907  42.280   6.271
 5239POPC   D2A67192  10.177  42.347   6.611
 5239POPC   C3A67193   9.931  42.289   6.948
 5239POPC   C4A67194   9.960  42.152   7.343
 5239POPC   C1B67195   9.553  42.744   6.181
 5239POPC   C2B67196   9.614  42.558   6.595
 5239POPC   C3B67197   9.428  42.361   6.950
 5239POPC   C4B67198   9.423  42.152   7.362
 5240POPC   NC367199  20.512  28.505   5.506
 5240POPC   PO467200  20.366  27.908   5.199
 5240POPC   GL167201  20.561  28.003   5.671
 5240POPC   GL267202  20.875  28.238   5.791
 5240POPC   C1A67203  20.561  28.097   6.166
 5240POPC   D2A67204  20.505  28.392   6.544
 5240POPC   C3A67205  20.672  28.294   6.967
 5240POPC   C4A67206  20.620  28.083   7.360
 5240POPC   C1B67207  20.860  28.555   6.173
 5240POPC   C2B67208  21.101  28.661   6.570
 5240POPC   C3B67209  20.955  28.735   7.009
 5240POPC   C4B67210  20.826  28.584   7.423
 5241POPC   NC367211  21.454  14.057   5.452
 5241POPC   PO467212  21.292  13.470   5.382
 5241POPC   GL167213  21.172  13.518   5.826
 5241POPC   GL267214  21.135  13.846   5.809
 5241POPC   C1A67215  21.183  13.587   6.297
 5241POPC   D2A67216  21.038  13.575   6.745
 5241POPC   C3A67217  21.328  13.538   7.100
 5241POPC   C4A67218  21.681  13.216   7.123
 5241POPC   C1B67219  21.027  14.061   6.169
 5241POPC   C2B67220  20.948  14.047   6.592
 5241POPC   C3B67221  21.108  14.038   7.038
 5241POPC   C4B67222  21.244  13.918   7.485
 5242POPC   NC367223   5.623  36.852   5.313
 5242POPC   PO467224   6.144  37.183   5.529
 5242POPC   GL167225   5.857  36.980   5.779
 5242POPC   GL267226   5.678  36.637   5.766
 5242POPC   C1A67227   5.942  36.875   6.197
 5242POPC   D2A67228   5.995  37.076   6.597
 5242POPC   C3A67229   6.245  37.004   6.886
 5242POPC   C4A67230   6.118  36.816   7.253
 5242POPC   C1B67231   5.573  36.518   6.180
 5242POPC   C2B67232   5.543  36.802   6.534
 5242POPC   C3B67233   5.730  36.771   6.935
 5242POPC   C4B67234   5.846  36.408   7.218
 5243POPC   NC367235  30.281  11.799   5.468
 5243POPC   PO467236  29.706  11.984   5.223
 5243POPC   GL167237  29.805  11.971   5.658
 5243POPC   GL267238  30.088  12.137   5.820
 5243POPC   C1A67239  29.729  11.877   6.087
 5243POPC   D2A67240  29.868  12.044   6.473
 5243POPC   C3A67241  29.793  11.831   6.865
 5243POPC   C4A67242  29.745  12.173   7.150
 5243POPC   C1B67243  30.224  11.836   6.165
 5243POPC   C2B67244  30.321  11.765   6.601
 5243POPC   C3B67245  30.241  12.114   6.834
 5243POPC   C4B67246  30.279  12.181   7.239
 5244POPC   NC367247  15.967  27.327   5.402
 5244POPC   PO467248  15.981  26.749   5.401
 5244POPC   GL167249  15.921  26.952   5.840
 5244POPC   GL267250  16.102  27.247   5.963
 5244POPC   C1A67251  16.035  26.832   6.313
 5244POPC   D2A67252  15.850  26.768   6.756
 5244POPC   C3A67253  16.033  26.969   7.145
 5244POPC   C4A67254  16.183  26.769   7.526
 5244POPC   C1B67255  15.714  27.214   6.252
 5244POPC   C2B67256  15.534  27.166   6.672
 5244POPC   C3B67257  15.520  27.004   7.105
 5244POPC   C4B67258  15.687  27.194   7.475
 5245POPC   NC367259  35.231  26.263   5.416
 5245POPC   PO467260  35.705  25.881   5.360
 5245POPC   GL167261  35.554  25.831   5.763
 5245POPC   GL267262  35.618  26.180   5.841
 5245POPC   C1A67263  35.407  25.843   6.194
 5245POPC   D2A67264  35.195  26.038   6.533
 5245POPC   C3A67265  35.431  25.941   6.890
 5245POPC   C4A67266  35.245  25.806   7.266
 5245POPC   C1B67267  35.273  26.342   6.111
 5245POPC   C2B67268  35.299  26.525   6.526
 5245POPC   C3B67269  35.210  26.406   6.940
 5245POPC   C4B67270  35.459  26.306   7.295
 5246POPC   NC367271  25.154  27.836   5.197
 5246POPC   PO467272  24.594  27.607   5.463
 5246POPC   GL167273  24.350  27.448   5.831
 5246POPC   GL267274  24.266  27.731   5.994
 5246POPC   C1A67275  24.477  27.294   6.223
 5246POPC   D2A67276  24.470  27.472   6.605
 5246POPC   C3A67277  24.394  27.358   6.991
 5246POPC   C4A67278  24.645  27.542   7.253
 5246POPC   C1B67279  24.650  27.785   6.215
 5246POPC   C2B67280  24.812  27.880   6.625
 5246POPC   C3B67281  24.837  28.063   7.028
 5246POPC   C4B67282  24.557  28.014   7.378
 5247POPC   NC367283   1.811   0.124   5.427
 5247POPC   PO467284   2.214  44.533   5.432
 5247POPC   GL167285   1.926  44.711   5.759
 5247POPC   GL267286   2.209  44.801   5.930
 5247POPC   C1A67287   1.757  44.912   6.136
 5247POPC   D2A67288   2.048  44.972   6.460
 5247POPC   C3A67289   2.039  44.785   6.850
 5247POPC   C4A67290   2.102  44.769   7.295
 5247POPC   C1B67291   2.053  44.476   6.224
 5247POPC   C2B67292   2.033  44.208   6.594
 5247POPC   C3B67293   1.935  44.328   7.007
 5247POPC   C4B67294   2.173  44.278   7.361
 5248POPC   NC367295  17.378  21.349   5.489
 5248POPC   PO467296  17.959  21.720   5.274
 5248POPC   GL167297  17.886  21.676   5.765
 5248POPC   GL267298  17.578  21.558   5.896
 5248POPC   C1A67299  17.855  21.792   6.244
 5248POPC   D2A67300  17.996  21.667   6.666
 5248POPC   C3A67301  17.827  21.686   7.090
 5248POPC   C4A67302  17.858  21.338   7.352
 5248POPC   C1B67303  17.512  21.430   6.328
 5248POPC   C2B67304  17.653  21.274   6.725
 5248POPC   C3B67305  17.444  21.326   7.082
 5248POPC   C4B67306  17.085  21.526   7.217
 5249POPC   NC367307   9.676   8.506   5.379
 5249POPC   PO467308   9.919   9.125   5.254
 5249POPC   GL167309   9.905   8.850   5.704
 5249POPC   GL267310   9.556   8.760   5.811
 5249POPC   C1A67311   9.897   8.610   6.170
 5249POPC   D2A67312   9.784   8.469   6.643
 5249POPC   C3A67313   9.864   8.776   7.032
 5249POPC   C4A67314  10.001   9.194   7.260
 5249POPC   C1B67315   9.586   9.014   6.196
 5249POPC   C2B67316   9.572   8.975   6.642
 5249POPC   C3B67317   9.538   9.183   7.044
 5249POPC   C4B67318   9.555   9.212   7.506
 5250POPC   NC367319  31.289  24.790   5.523
 5250POPC   PO467320  31.799  24.400   5.366
 5250POPC   GL167321  31.643  24.474   5.803
 5250POPC   GL267322  31.690  24.834   5.849
 5250POPC   C1A67323  31.492  24.281   6.239
 5250POPC   D2A67324  31.365  24.076   6.656
 5250POPC   C3A67325  31.458  24.332   7.028
 5250POPC   C4A67326  31.677  24.657   7.264
 5250POPC   C1B67327  31.378  24.790   6.198
 5250POPC   C2B67328  31.259  24.627   6.615
 5250POPC   C3B67329  31.189  24.787   7.036
 5250POPC   C4B67330  31.067  25.161   7.229
 5251POPC   NC367331  24.732   3.147   5.388
 5251POPC   PO467332  24.204   2.724   5.386
 5251POPC   GL167333  24.489   2.773   5.738
 5251POPC   GL267334  24.849   2.728   5.712
 5251POPC   C1A67335  24.380   2.662   6.144
 5251POPC   D2A67336  24.172   2.772   6.497
 5251POPC   C3A67337  24.311   2.670   6.929
 5251POPC   C4A67338  24.088   2.809   7.294
 5251POPC   C1B67339  24.864   2.551   6.128
 5251POPC   C2B67340  24.675   2.582   6.552
 5251POPC   C3B67341  24.796   2.464   6.968
 5251POPC   C4B67342  24.700   2.697   7.340
 5252POPC   NC367343  20.127  21.599   5.467
 5252POPC   PO467344  19.765  21.061   5.326
 5252POPC   GL167345  19.772  21.247   5.746
 5252POPC   GL267346  19.691  21.598   5.761
 5252POPC   C1A67347  20.010  21.312   6.140
 5252POPC   D2A67348  20.037  21.523   6.540
 5252POPC   C3A67349  20.099  21.216   6.862
 5252POPC   C4A67350  19.952  21.437   7.242
 5252POPC   C1B67351  19.552  21.511   6.170
 5252POPC   C2B67352  19.626  21.186   6.482
 5252POPC   C3B67353  19.633  21.384   6.853
 5252POPC   C4B67354  19.471  21.627   7.169
 5253POPC   NC367355  41.667  33.239   5.118
 5253POPC   PO467356  41.069  33.025   5.051
 5253POPC   GL167357  41.407  33.138   5.523
 5253POPC   GL267358  41.659  32.892   5.600
 5253POPC   C1A67359  41.411  33.112   6.000
 5253POPC   D2A67360  41.657  33.107   6.361
 5253POPC   C3A67361  41.479  33.144   6.765
 5253POPC   C4A67362  41.718  33.234   7.138
 5253POPC   C1B67363  41.892  32.808   6.010
 5253POPC   C2B67364  41.919  32.683   6.445
 5253POPC   C3B67365  41.735  32.715   6.863
 5253POPC   C4B67366  41.951  32.753   7.246
 5254POPC   NC367367  29.141  31.796   5.439
 5254POPC   PO467368  29.367  32.356   5.253
 5254POPC   GL167369  29.072  32.336   5.632
 5254POPC   GL267370  29.217  32.068   5.864
 5254POPC   C1A67371  28.830  32.452   6.040
 5254POPC   D2A67372  28.762  32.547   6.495
 5254POPC   C3A67373  28.973  32.250   6.792
 5254POPC   C4A67374  29.160  32.131   7.210
 5254POPC   C1B67375  29.120  31.984   6.308
 5254POPC   C2B67376  29.297  31.780   6.689
 5254POPC   C3B67377  29.582  31.836   7.066
 5254POPC   C4B67378  29.522  31.886   7.530
 5255POPC   NC367379  28.088  20.203   5.103
 5255POPC   PO467380  28.186  20.838   5.441
 5255POPC   GL167381  28.289  20.809   5.882
 5255POPC   GL267382  28.613  20.897   6.000
 5255POPC   C1A67383  28.313  20.546   6.255
 5255POPC   D2A67384  28.173  20.683   6.659
 5255POPC   C3A67385  28.247  20.494   7.046
 5255POPC   C4A67386  27.902  20.428   7.299
 5255POPC   C1B67387  28.693  20.862   6.437
 5255POPC   C2B67388  28.639  20.797   6.862
 5255POPC   C3B67389  28.729  20.617   7.248
 5255POPC   C4B67390  28.749  20.262   7.496
 5256POPC   NC367391   0.029  18.685   5.513
 5256POPC   PO467392   0.508  18.210   5.458
 5256POPC   GL167393   0.439  18.213   5.885
 5256POPC   GL267394   0.131  18.353   5.903
 5256POPC   C1A67395   0.417  18.241   6.357
 5256POPC   D2A67396   0.536  18.513   6.733
 5256POPC   C3A67397   0.442  18.250   7.092
 5256POPC   C4A67398   0.222  17.973   7.370
 5256POPC   C1B67399  44.847  18.178   6.199
 5256POPC   C2B67400  44.766  18.292   6.610
 5256POPC   C3B67401   0.022  18.530   6.878
 5256POPC   C4B67402  44.974  18.409   7.261
 5257POPC   NC367403  41.631  12.612   5.457
 5257POPC   PO467404  41.358  13.236   5.284
 5257POPC   GL167405  41.479  13.014   5.761
 5257POPC   GL267406  41.809  13.084   5.964
 5257POPC   C1A67407  41.408  13.085   6.249
 5257POPC   D2A67408  41.706  13.085   6.531
 5257POPC   C3A67409  41.659  12.900   6.921
 5257POPC   C4A67410  41.391  13.082   7.239
 5257POPC   C1B67411  41.734  12.672   6.208
 5257POPC   C2B67412  41.689  12.450   6.629
 5257POPC   C3B67413  41.929  12.425   7.032
 5257POPC   C4B67414  41.899  12.372   7.515
 5258POPC   NC367415  41.646   3.944   5.227
 5258POPC   PO467416  41.220   3.452   5.399
 5258POPC   GL167417  41.437   3.498   5.778
 5258POPC   GL267418  41.588   3.806   5.723
 5258POPC   C1A67419  41.568   3.319   6.186
 5258POPC   D2A67420  41.461   3.485   6.597
 5258POPC   C3A67421  41.654   3.253   6.929
 5258POPC   C4A67422  41.786   3.470   7.268
 5258POPC   C1B67423  41.487   3.832   6.163
 5258POPC   C2B67424  41.792   3.888   6.480
 5258POPC   C3B67425  41.863   3.795   6.892
 5258POPC   C4B67426  41.663   3.969   7.245
 5259POPC   NC367427  14.154   4.835   5.601
 5259POPC   PO467428  14.425   4.187   5.415
 5259POPC   GL167429  14.431   4.438   5.804
 5259POPC   GL267430  14.754   4.644   5.859
 5259POPC   C1A67431  14.166   4.270   6.162
 5259POPC   D2A67432  14.131   3.928   6.500
 5259POPC   C3A67433  14.198   4.108   6.930
 5259POPC   C4A67434  14.028   3.964   7.300
 5259POPC   C1B67435  14.602   4.652   6.266
 5259POPC   C2B67436  14.344   4.743   6.648
 5259POPC   C3B67437  14.296   4.599   7.074
 5259POPC   C4B67438  14.607   4.478   7.457
 5260POPC   NC367439   6.033   6.200   5.414
 5260POPC   PO467440   6.013   5.540   5.250
 5260POPC   GL167441   5.877   5.673   5.685
 5260POPC   GL267442   5.659   5.972   5.669
 5260POPC   C1A67443   5.819   5.642   6.164
 5260POPC   D2A67444   5.925   5.865   6.580
 5260POPC   C3A67445   5.815   5.728   7.027
 5260POPC   C4A67446   5.774   5.803   7.494
 5260POPC   C1B67447   5.543   6.085   6.083
 5260POPC   C2B67448   5.524   6.264   6.513
 5260POPC   C3B67449   5.641   6.298   6.948
 5260POPC   C4B67450   5.404   6.033   7.222
 5261POPC   NC367451  31.625  39.192   5.135
 5261POPC   PO467452  31.107  39.576   5.416
 5261POPC   GL167453  31.309  39.472   5.796
 5261POPC   GL267454  31.398  39.116   5.779
 5261POPC   C1A67455  31.590  39.501   6.130
 5261POPC   D2A67456  31.596  39.337   6.547
 5261POPC   C3A67457  31.671  39.530   6.940
 5261POPC   C4A67458  31.512  39.291   7.287
 5261POPC   C1B67459  31.269  39.077   6.237
 5261POPC   C2B67460  31.242  38.950   6.712
 5261POPC   C3B67461  31.158  38.931   7.183
 5261POPC   C4B67462  31.303  38.843   7.636
 5262POPC   NC367463  14.409  28.022   5.390
 5262POPC   PO467464  14.516  28.688   5.504
 5262POPC   GL167465  14.634  28.348   5.789
 5262POPC   GL267466  14.320  28.157   5.879
 5262POPC   C1A67467  14.594  28.432   6.229
 5262POPC   D2A67468  14.405  28.515   6.624
 5262POPC   C3A67469  14.635  28.574   7.010
 5262POPC   C4A67470  14.563  28.433   7.414
 5262POPC   C1B67471  14.084  28.355   6.229
 5262POPC   C2B67472  13.957  28.258   6.639
 5262POPC   C3B67473  14.204  28.222   6.998
 5262POPC   C4B67474  14.145  28.167   7.399
 5263POPC   NC367475  10.304   6.765   5.095
 5263POPC   PO467476  10.572   6.734   5.719
 5263POPC   GL167477  10.613   6.471   5.988
 5263POPC   GL267478  10.497   6.181   5.862
 5263POPC   C1A67479  10.670   6.652   6.366
 5263POPC   D2A67480  10.691   6.970   6.610
 5263POPC   C3A67481  10.524   6.818   6.951
 5263POPC   C4A67482  10.776   6.961   7.254
 5263POPC   C1B67483  10.352   6.182   6.304
 5263POPC   C2B67484  10.545   6.301   6.700
 5263POPC   C3B67485  10.383   6.303   7.076
 5263POPC   C4B67486  10.005   6.358   7.242
 5264POPC   NC367487  26.902  40.559   5.524
 5264POPC   PO467488  26.525  41.142   5.477
 5264POPC   GL167489  26.748  40.978   5.828
 5264POPC   GL267490  26.554  40.717   5.860
 5264POPC   C1A67491  26.719  41.046   6.264
 5264POPC   D2A67492  26.881  40.963   6.651
 5264POPC   C3A67493  26.711  41.021   7.053
 5264POPC   C4A67494  26.998  40.948   7.401
 5264POPC   C1B67495  26.819  40.540   6.174
 5264POPC   C2B67496  26.602  40.564   6.531
 5264POPC   C3B67497  26.796  40.529   6.922
 5264POPC   C4B67498  27.043  40.429   7.248
 5265POPC   NC367499   3.676  15.290   5.298
 5265POPC   PO467500   3.308  14.627   5.329
 5265POPC   GL167501   3.374  14.967   5.655
 5265POPC   GL267502   3.703  14.959   5.693
 5265POPC   C1A67503   3.504  15.289   6.017
 5265POPC   D2A67504   3.768  15.245   6.397
 5265POPC   C3A67505   3.675  15.349   6.834
 5265POPC   C4A67506   3.373  15.438   7.148
 5265POPC   C1B67507   3.694  14.818   6.083
 5265POPC   C2B67508   3.749  14.732   6.497
 5265POPC   C3B67509   3.808  14.848   6.934
 5265POPC   C4B67510   3.776  15.075   7.324
 5266POPC   NC367511  15.882  41.168   5.458
 5266POPC   PO467512  15.823  41.852   5.386
 5266POPC   GL167513  15.932  41.615   5.741
 5266POPC   GL267514  16.247  41.449   5.671
 5266POPC   C1A67515  15.843  41.456   6.173
 5266POPC   D2A67516  15.722  41.423   6.625
 5266POPC   C3A67517  15.937  41.700   6.906
 5266POPC   C4A67518  16.118  41.958   7.226
 5266POPC   C1B67519  16.325  41.621   6.090
 5266POPC   C2B67520  16.241  41.492   6.515
 5266POPC   C3B67521  16.375  41.429   6.941
 5266POPC   C4B67522  16.162  41.395   7.303
 5267POPC   NC367523  25.488   2.647   4.966
 5267POPC   PO467524  25.169   2.984   5.388
 5267POPC   GL167525  25.242   3.061   5.821
 5267POPC   GL267526  25.042   3.326   5.877
 5267POPC   C1A67527  25.255   2.867   6.222
 5267POPC   D2A67528  25.429   2.874   6.632
 5267POPC   C3A67529  25.274   2.672   6.979
 5267POPC   C4A67530  25.452   2.469   7.313
 5267POPC   C1B67531  24.775   3.077   6.124
 5267POPC   C2B67532  24.900   3.056   6.555
 5267POPC   C3B67533  24.896   3.018   6.983
 5267POPC   C4B67534  25.214   3.066   7.309
 5268POPC   NC367535  30.639  25.486   5.219
 5268POPC   PO467536  31.231  25.243   5.415
 5268POPC   GL167537  30.893  25.120   5.696
 5268POPC   GL267538  30.797  25.456   5.729
 5268POPC   C1A67539  30.917  25.090   6.181
 5268POPC   D2A67540  30.983  25.091   6.655
 5268POPC   C3A67541  30.618  25.031   6.918
 5268POPC   C4A67542  30.392  25.248   7.241
 5268POPC   C1B67543  30.799  25.623   6.158
 5268POPC   C2B67544  30.626  25.526   6.569
 5268POPC   C3B67545  30.803  25.517   6.994
 5268POPC   C4B67546  31.018  25.649   7.373
 5269POPC   NC367547  31.766   4.591   5.431
 5269POPC   PO467548  31.125   4.350   5.308
 5269POPC   GL167549  31.380   4.285   5.714
 5269POPC   GL267550  31.590   4.515   5.888
 5269POPC   C1A67551  31.303   4.247   6.195
 5269POPC   D2A67552  31.513   4.232   6.589
 5269POPC   C3A67553  31.304   4.236   6.968
 5269POPC   C4A67554  31.482   4.053   7.347
 5269POPC   C1B67555  31.833   4.217   6.142
 5269POPC   C2B67556  31.967   3.990   6.520
 5269POPC   C3B67557  31.830   4.024   6.965
 5269POPC   C4B67558  31.712   4.473   7.126
 5270POPC   NC367559  30.737   2.899   5.288
 5270POPC   PO467560  30.186   3.133   5.519
 5270POPC   GL167561  30.532   2.859   5.752
 5270POPC   GL267562  30.890   2.987   5.748
 5270POPC   C1A67563  30.649   2.679   6.157
 5270POPC   D2A67564  30.732   2.531   6.580
 5270POPC   C3A67565  30.531   2.632   6.959
 5270POPC   C4A67566  30.693   2.797   7.345
 5270POPC   C1B67567  30.910   3.127   6.141
 5270POPC   C2B67568  31.072   2.927   6.473
 5270POPC   C3B67569  30.976   2.895   6.892
 5270POPC   C4B67570  31.072   3.239   7.114
 5271POPC   NC367571  11.149   1.848   5.476
 5271POPC   PO467572  11.465   2.369   5.275
 5271POPC   GL167573  11.583   2.119   5.710
 5271POPC   GL267574  11.461   1.803   5.916
 5271POPC   C1A67575  11.531   2.222   6.203
 5271POPC   D2A67576  11.286   2.155   6.623
 5271POPC   C3A67577  11.435   2.230   7.058
 5271POPC   C4A67578  11.645   1.966   7.380
 5271POPC   C1B67579  11.109   1.818   6.255
 5271POPC   C2B67580  10.862   1.815   6.683
 5271POPC   C3B67581  10.915   2.026   7.107
 5271POPC   C4B67582  11.112   1.910   7.534
 5272POPC   NC367583   8.338  37.406   5.454
 5272POPC   PO467584   8.240  38.115   5.357
 5272POPC   GL167585   8.202  37.820   5.727
 5272POPC   GL267586   7.941  37.574   5.725
 5272POPC   C1A67587   8.257  37.565   6.136
 5272POPC   D2A67588   8.135  37.643   6.549
 5272POPC   C3A67589   8.366  37.600   6.915
 5272POPC   C4A67590   8.441  37.974   7.137
 5272POPC   C1B67591   7.807  37.342   6.111
 5272POPC   C2B67592   7.878  37.218   6.542
 5272POPC   C3B67593   7.875  37.408   6.941
 5272POPC   C4B67594   8.011  37.642   7.291
 5273POPC   NC367595   7.207  25.120   5.456
 5273POPC   PO467596   7.856  25.014   5.423
 5273POPC   GL167597   7.654  25.138   5.834
 5273POPC   GL267598   7.294  25.163   5.956
 5273POPC   C1A67599   7.679  25.158   6.285
 5273POPC   D2A67600   7.476  25.269   6.617
 5273POPC   C3A67601   7.737  25.177   6.896
 5273POPC   C4A67602   7.774  25.335   7.277
 5273POPC   C1B67603   7.060  25.345   6.314
 5273POPC   C2B67604   7.029  25.456   6.759
 5273POPC   C3B67605   7.265  25.347   7.108
 5273POPC   C4B67606   7.163  25.124   7.453
 5274POPC   NC367607   9.328  19.449   5.415
 5274POPC   PO467608   9.927  19.752   5.250
 5274POPC   GL167609   9.711  19.670   5.653
 5274POPC   GL267610   9.927  19.428   5.842
 5274POPC   C1A67611   9.561  19.741   6.075
 5274POPC   D2A67612   9.804  19.735   6.428
 5274POPC   C3A67613   9.716  19.773   6.861
 5274POPC   C4A67614   9.494  19.659   7.217
 5274POPC   C1B67615  10.209  19.484   6.240
 5274POPC   C2B67616  10.247  19.704   6.668
 5274POPC   C3B67617  10.179  19.758   7.084
 5274POPC   C4B67618   9.956  19.740   7.413
 5275POPC   NC367619  29.785   1.616   5.247
 5275POPC   PO467620  30.204   2.172   5.287
 5275POPC   GL167621  30.094   2.194   5.790
 5275POPC   GL267622  29.730   2.294   5.907
 5275POPC   C1A67623  30.034   1.931   6.137
 5275POPC   D2A67624  29.834   1.908   6.503
 5275POPC   C3A67625  30.012   1.966   6.906
 5275POPC   C4A67626  29.766   1.841   7.241
 5275POPC   C1B67627  29.845   2.395   6.294
 5275POPC   C2B67628  29.797   2.400   6.697
 5275POPC   C3B67629  29.747   2.362   7.081
 5275POPC   C4B67630  30.109   2.375   7.333
 5276POPC   NC367631  42.928   5.783   5.371
 5276POPC   PO467632  43.448   6.150   5.517
 5276POPC   GL167633  43.205   5.875   5.839
 5276POPC   GL267634  42.976   5.565   5.828
 5276POPC   C1A67635  43.308   5.971   6.275
 5276POPC   D2A67636  43.496   6.055   6.661
 5276POPC   C3A67637  43.197   6.263   6.924
 5276POPC   C4A67638  43.166   6.214   7.353
 5276POPC   C1B67639  43.016   5.568   6.285
 5276POPC   C2B67640  43.082   5.750   6.715
 5276POPC   C3B67641  42.974   5.759   7.153
 5276POPC   C4B67642  42.873   5.473   7.510
 5277POPC   NC367643  39.784  23.477   5.432
 5277POPC   PO467644  39.100  23.615   5.427
 5277POPC   GL167645  39.132  23.703   5.847
 5277POPC   GL267646  38.898  23.974   5.911
 5277POPC   C1A67647  39.434  23.794   6.167
 5277POPC   D2A67648  39.426  23.681   6.572
 5277POPC   C3A67649  39.710  23.730   6.863
 5277POPC   C4A67650  39.547  23.905   7.211
 5277POPC   C1B67651  38.895  23.740   6.290
 5277POPC   C2B67652  38.941  23.554   6.676
 5277POPC   C3B67653  39.109  23.767   6.997
 5277POPC   C4B67654  39.084  23.798   7.414
 5278POPC   NC367655   5.672  42.460   5.379
 5278POPC   PO467656   6.426  42.409   5.251
 5278POPC   GL167657   6.111  42.356   5.645
 5278POPC   GL267658   5.794  42.169   5.800
 5278POPC   C1A67659   6.134  42.398   6.104
 5278POPC   D2A67660   6.190  42.424   6.557
 5278POPC   C3A67661   6.141  42.121   6.885
 5278POPC   C4A67662   5.992  42.365   7.214
 5278POPC   C1B67663   5.844  41.939   6.159
 5278POPC   C2B67664   5.716  41.964   6.576
 5278POPC   C3B67665   5.632  42.075   6.966
 5278POPC   C4B67666   5.604  42.102   7.394
 5279POPC   NC367667  24.523  31.378   4.994
 5279POPC   PO467668  24.559  31.870   5.311
 5279POPC   GL167669  24.569  31.560   5.658
 5279POPC   GL267670  24.292  31.328   5.676
 5279POPC   C1A67671  24.597  31.367   6.091
 5279POPC   D2A67672  24.325  31.231   6.446
 5279POPC   C3A67673  24.514  31.393   6.819
 5279POPC   C4A67674  24.406  31.327   7.235
 5279POPC   C1B67675  24.139  31.582   6.064
 5279POPC   C2B67676  24.236  31.738   6.518
 5279POPC   C3B67677  24.088  31.637   6.947
 5279POPC   C4B67678  24.150  31.737   7.390
 5280POPC   NC367679  43.451   1.053   5.712
 5280POPC   PO467680  44.075   0.947   5.403
 5280POPC   GL167681  43.954   0.983   5.832
 5280POPC   GL267682  44.029   1.332   5.861
 5280POPC   C1A67683  43.835   0.970   6.283
 5280POPC   D2A67684  44.015   1.202   6.631
 5280POPC   C3A67685  43.787   1.239   7.021
 5280POPC   C4A67686  43.934   1.258   7.440
 5280POPC   C1B67687  44.308   1.555   6.138
 5280POPC   C2B67688  44.467   1.447   6.538
 5280POPC   C3B67689  44.303   1.461   6.965
 5280POPC   C4B67690  44.384   1.646   7.339
 5281POPC   NC367691   6.395  36.014   5.522
 5281POPC   PO467692   5.665  36.297   5.333
 5281POPC   GL167693   5.948  36.210   5.695
 5281POPC   GL267694   5.691  36.098   5.861
 5281POPC   C1A67695   6.083  36.352   6.142
 5281POPC   D2A67696   6.077  36.560   6.591
 5281POPC   C3A67697   6.253  36.323   6.936
 5281POPC   C4A67698   6.040  35.926   7.052
 5281POPC   C1B67699   5.915  35.854   6.169
 5281POPC   C2B67700   5.789  35.749   6.609
 5281POPC   C3B67701   5.545  35.876   6.977
 5281POPC   C4B67702   5.391  36.246   7.126
 5282POPC   NC367703   8.338  44.412   5.402
 5282POPC   PO467704   7.851  44.757   5.264
 5282POPC   GL167705   8.076  44.750   5.703
 5282POPC   GL267706   8.402  44.905   5.645
 5282POPC   C1A67707   8.170  44.557   6.146
 5282POPC   D2A67708   8.117  44.722   6.584
 5282POPC   C3A67709   8.172  44.508   6.981
 5282POPC   C4A67710   8.620  44.436   6.987
 5282POPC   C1B67711   8.407   0.009   6.087
 5282POPC   C2B67712   8.422   0.133   6.528
 5282POPC   C3B67713   8.440  44.949   6.934
 5282POPC   C4B67714   8.301  44.878   7.336
 5283POPC   NC367715  29.722  32.073   5.343
 5283POPC   PO467716  30.313  32.277   5.451
 5283POPC   GL167717  30.093  32.056   5.758
 5283POPC   GL267718  30.056  32.381   5.926
 5283POPC   C1A67719  29.757  31.953   6.078
 5283POPC   D2A67720  29.783  31.966   6.541
 5283POPC   C3A67721  29.825  32.325   6.812
 5283POPC   C4A67722  29.714  32.302   7.250
 5283POPC   C1B67723  30.215  32.142   6.274
 5283POPC   C2B67724  30.300  32.128   6.699
 5283POPC   C3B67725  30.167  32.088   7.111
 5283POPC   C4B67726  30.308  32.036   7.494
 5284POPC   NC367727  13.293  30.384   5.472
 5284POPC   PO467728  13.863  30.628   5.381
 5284POPC   GL167729  13.657  30.618   5.768
 5284POPC   GL267730  13.451  30.901   5.724
 5284POPC   C1A67731  13.587  30.379   6.157
 5284POPC   D2A67732  13.332  30.421   6.548
 5284POPC   C3A67733  13.556  30.636   6.816
 5284POPC   C4A67734  13.750  30.611   7.182
 5284POPC   C1B67735  13.332  30.820   6.173
 5284POPC   C2B67736  13.155  30.930   6.588
 5284POPC   C3B67737  13.287  31.006   7.021
 5284POPC   C4B67738  13.431  31.019   7.448
 5285POPC   NC367739  16.425  43.402   5.530
 5285POPC   PO467740  15.704  43.284   5.428
 5285POPC   GL167741  15.898  42.995   5.708
 5285POPC   GL267742  16.236  43.031   5.838
 5285POPC   C1A67743  15.835  42.911   6.164
 5285POPC   D2A67744  15.949  42.770   6.590
 5285POPC   C3A67745  15.861  43.016   6.966
 5285POPC   C4A67746  15.732  43.025   7.377
 5285POPC   C1B67747  16.241  43.239   6.246
 5285POPC   C2B67748  16.266  43.207   6.683
 5285POPC   C3B67749  16.304  43.236   7.123
 5285POPC   C4B67750  16.310  43.260   7.560
 5286POPC   NC367751  35.959  25.513   5.511
 5286POPC   PO467752  36.146  24.852   5.356
 5286POPC   GL167753  36.238  25.044   5.761
 5286POPC   GL267754  36.362  25.414   5.816
 5286POPC   C1A67755  36.153  24.936   6.206
 5286POPC   D2A67756  36.377  25.003   6.581
 5286POPC   C3A67757  36.167  25.136   6.948
 5286POPC   C4A67758  36.329  25.157   7.342
 5286POPC   C1B67759  36.251  25.433   6.291
 5286POPC   C2B67760  36.299  25.586   6.739
 5286POPC   C3B67761  36.409  25.647   7.208
 5286POPC   C4B67762  36.496  25.520   7.685
 5287POPC   NC367763  44.218  15.746   5.392
 5287POPC   PO467764  43.898  16.265   5.331
 5287POPC   GL167765  43.860  15.990   5.728
 5287POPC   GL267766  44.113  15.908   5.867
 5287POPC   C1A67767  43.705  15.909   6.169
 5287POPC   D2A67768  43.827  16.099   6.575
 5287POPC   C3A67769  43.718  15.950   6.982
 5287POPC   C4A67770  44.003  15.691   7.200
 5287POPC   C1B67771  44.079  16.288   6.109
 5287POPC   C2B67772  44.242  16.400   6.501
 5287POPC   C3B67773  44.116  16.419   6.907
 5287POPC   C4B67774  44.166  16.188   7.249
 5288POPC   NC367775  12.365  34.247   5.280
 5288POPC   PO467776  13.003  34.571   5.347
 5288POPC   GL167777  12.925  34.493   5.751
 5288POPC   GL267778  12.583  34.538   5.786
 5288POPC   C1A67779  13.025  34.645   6.176
 5288POPC   D2A67780  13.195  34.313   6.475
 5288POPC   C3A67781  13.033  34.339   6.890
 5288POPC   C4A67782  13.015  34.731   7.087
 5288POPC   C1B67783  12.481  34.588   6.177
 5288POPC   C2B67784  12.692  34.567   6.562
 5288POPC   C3B67785  12.490  34.592   6.941
 5288POPC   C4B67786  12.257  34.542   7.318
 5289POPC   NC367787  20.388   0.102   5.113
 5289POPC   PO467788  20.875   0.219   5.572
 5289POPC   GL167789  20.765   0.499   5.919
 5289POPC   GL267790  20.488   0.728   5.866
 5289POPC   C1A67791  20.593   0.445   6.347
 5289POPC   D2A67792  20.458   0.052   6.555
 5289POPC   C3A67793  20.594   0.042   6.962
 5289POPC   C4A67794  20.638   0.418   7.145
 5289POPC   C1B67795  20.223   0.789   6.214
 5289POPC   C2B67796  20.228   0.752   6.654
 5289POPC   C3B67797  20.303   0.827   7.082
 5289POPC   C4B67798  20.253   0.567   7.444
 5290POPC   NC367799  32.222   6.186   5.554
 5290POPC   PO467800  32.310   5.495   5.283
 5290POPC   GL167801  32.239   5.659   5.688
 5290POPC   GL267802  32.523   5.643   5.844
 5290POPC   C1A67803  32.091   5.699   6.151
 5290POPC   D2A67804  32.105   6.070   6.495
 5290POPC   C3A67805  32.243   6.173   6.962
 5290POPC   C4A67806  32.150   6.026   7.389
 5290POPC   C1B67807  32.552   5.828   6.278
 5290POPC   C2B67808  32.597   5.939   6.701
 5290POPC   C3B67809  32.541   5.781   7.134
 5290POPC   C4B67810  32.486   5.687   7.599
 5291POPC   NC367811  30.639  27.153   5.512
 5291POPC   PO467812  30.381  26.543   5.456
 5291POPC   GL167813  30.506  26.718   5.830
 5291POPC   GL267814  30.866  26.753   5.821
 5291POPC   C1A67815  30.604  26.773   6.265
 5291POPC   D2A67816  30.615  27.091   6.563
 5291POPC   C3A67817  30.614  26.859   6.923
 5291POPC   C4A67818  30.853  26.579   7.201
 5291POPC   C1B67819  30.882  27.178   6.095
 5291POPC   C2B67820  31.096  27.255   6.466
 5291POPC   C3B67821  31.045  27.121   6.886
 5291POPC   C4B67822  30.879  27.097   7.304
 5292POPC   NC367823  17.721   2.725   5.364
 5292POPC   PO467824  17.064   2.797   5.344
 5292POPC   GL167825  17.317   2.825   5.753
 5292POPC   GL267826  17.061   2.889   6.011
 5292POPC   C1A67827  17.560   2.954   6.168
 5292POPC   D2A67828  17.514   3.050   6.641
 5292POPC   C3A67829  17.765   2.882   7.041
 5292POPC   C4A67830  17.821   2.878   7.542
 5292POPC   C1B67831  17.172   2.467   6.150
 5292POPC   C2B67832  17.323   2.362   6.573
 5292POPC   C3B67833  17.234   2.670   6.912
 5292POPC   C4B67834  17.369   2.723   7.338
 5293POPC   NC367835  23.813  41.186   5.404
 5293POPC   PO467836  23.417  41.780   5.447
 5293POPC   GL167837  23.611  41.546   5.742
 5293POPC   GL267838  23.968  41.634   5.730
 5293POPC   C1A67839  23.517  41.533   6.173
 5293POPC   D2A67840  23.330  41.725   6.518
 5293POPC   C3A67841  23.557  41.607   6.892
 5293POPC   C4A67842  23.612  41.833   7.258
 5293POPC   C1B67843  23.988  41.360   6.067
 5293POPC   C2B67844  23.955  41.294   6.508
 5293POPC   C3B67845  24.102  41.551   6.845
 5293POPC   C4B67846  24.040  41.503   7.243
 5294POPC   NC367847  14.308  38.041   5.334
 5294POPC   PO467848  14.515  38.771   5.387
 5294POPC   GL167849  14.629  38.546   5.810
 5294POPC   GL267850  14.489  38.197   5.807
 5294POPC   C1A67851  14.810  38.316   6.180
 5294POPC   D2A67852  14.641  38.010   6.491
 5294POPC   C3A67853  14.420  38.286   6.794
 5294POPC   C4A67854  14.399  38.533   7.171
 5294POPC   C1B67855  14.265  38.280   6.240
 5294POPC   C2B67856  13.978  38.134   6.605
 5294POPC   C3B67857  13.994  38.144   7.092
 5294POPC   C4B67858  14.191  38.215   7.509
 5295POPC   NC367859  24.586  42.006   5.537
 5295POPC   PO467860  24.255  41.370   5.414
 5295POPC   GL167861  24.488  41.330   5.812
 5295POPC   GL267862  24.502  41.633   5.869
 5295POPC   C1A67863  24.454  41.303   6.266
 5295POPC   D2A67864  24.730  41.213   6.592
 5295POPC   C3A67865  24.623  41.514   6.865
 5295POPC   C4A67866  24.552  41.422   7.293
 5295POPC   C1B67867  24.314  41.816   6.211
 5295POPC   C2B67868  24.411  41.930   6.628
 5295POPC   C3B67869  24.416  41.929   7.068
 5295POPC   C4B67870  24.339  41.850   7.462
 5296POPC   NC367871  21.681  11.414   5.454
 5296POPC   PO467872  21.302  10.917   5.277
 5296POPC   GL167873  21.201  11.316   5.596
 5296POPC   GL267874  21.459  11.255   5.864
 5296POPC   C1A67875  21.018  11.385   6.063
 5296POPC   D2A67876  21.299  11.105   6.366
 5296POPC   C3A67877  21.149  10.967   6.784
 5296POPC   C4A67878  21.115  11.242   7.159
 5296POPC   C1B67879  21.672  11.429   6.158
 5296POPC   C2B67880  21.754  11.361   6.569
 5296POPC   C3B67881  21.587  11.188   6.914
 5296POPC   C4B67882  21.581  11.403   7.285
 5297POPC   NC367883  35.676  27.069   5.475
 5297POPC   PO467884  35.069  26.961   5.099
 5297POPC   GL167885  35.176  26.834   5.563
 5297POPC   GL267886  35.459  26.649   5.706
 5297POPC   C1A67887  35.099  26.841   6.033
 5297POPC   D2A67888  34.936  26.862   6.459
 5297POPC   C3A67889  35.165  26.914   6.857
 5297POPC   C4A67890  35.255  26.804   7.297
 5297POPC   C1B67891  35.614  26.724   6.143
 5297POPC   C2B67892  35.613  26.923   6.579
 5297POPC   C3B67893  35.641  26.693   6.976
 5297POPC   C4B67894  35.741  26.726   7.425
 5298POPC   NC367895  31.638   3.002   5.500
 5298POPC   PO467896  31.096   2.613   5.391
 5298POPC   GL167897  31.224   2.579   5.822
 5298POPC   GL267898  31.566   2.542   5.785
 5298POPC   C1A67899  31.365   2.551   6.257
 5298POPC   D2A67900  31.288   2.534   6.701
 5298POPC   C3A67901  31.495   2.894   6.882
 5298POPC   C4A67902  31.525   3.097   7.292
 5298POPC   C1B67903  31.867   2.583   6.141
 5298POPC   C2B67904  31.795   2.447   6.561
 5298POPC   C3B67905  31.955   2.582   6.901
 5298POPC   C4B67906  31.786   2.679   7.278
 5299POPC   NC367907  18.600  14.646   5.544
 5299POPC   PO467908  18.299  13.966   5.634
 5299POPC   GL167909  18.231  14.128   6.011
 5299POPC   GL267910  18.349  14.465   5.982
 5299POPC   C1A67911  18.290  14.262   6.446
 5299POPC   D2A67912  18.576  14.376   6.714
 5299POPC   C3A67913  18.487  14.275   7.136
 5299POPC   C4A67914  18.090  14.204   7.357
 5299POPC   C1B67915  17.914  14.477   6.194
 5299POPC   C2B67916  17.917  14.549   6.661
 5299POPC   C3B67917  18.210  14.651   6.954
 5299POPC   C4B67918  18.278  14.699   7.389
 5300POPC   NC367919  30.596  11.019   5.543
 5300POPC   PO467920  30.670  11.599   5.237
 5300POPC   GL167921  30.587  11.486   5.723
 5300POPC   GL267922  30.918  11.365   5.783
 5300POPC   C1A67923  30.503  11.403   6.182
 5300POPC   D2A67924  30.326  11.119   6.504
 5300POPC   C3A67925  30.496  11.140   6.948
 5300POPC   C4A67926  30.563  11.369   7.340
 5300POPC   C1B67927  31.001  11.420   6.221
 5300POPC   C2B67928  30.781  11.468   6.623
 5300POPC   C3B67929  30.936  11.416   7.019
 5300POPC   C4B67930  31.046  11.720   7.299
 5301POPC   NC367931  35.719  44.143   5.141
 5301POPC   PO467932  36.278  43.857   5.353
 5301POPC   GL167933  36.071  43.920   5.749
 5301POPC   GL267934  35.812  44.126   5.667
 5301POPC   C1A67935  36.173  43.899   6.197
 5301POPC   D2A67936  36.251  43.767   6.636
 5301POPC   C3A67937  36.523  43.953   6.950
 5301POPC   C4A67938  36.390  44.064   7.360
 5301POPC   C1B67939  35.895  44.336   6.079
 5301POPC   C2B67940  36.130  44.308   6.513
 5301POPC   C3B67941  36.038  44.181   6.976
 5301POPC   C4B67942  35.635  44.121   7.182
 5302POPC   NC367943   8.636  16.311   5.788
 5302POPC   PO467944   8.808  15.808   5.321
 5302POPC   GL167945   8.889  15.867   5.767
 5302POPC   GL267946   9.146  16.133   5.754
 5302POPC   C1A67947   8.758  15.875   6.232
 5302POPC   D2A67948   8.968  15.817   6.603
 5302POPC   C3A67949   8.798  16.039   6.920
 5302POPC   C4A67950   8.938  16.005   7.309
 5302POPC   C1B67951   9.238  15.940   6.153
 5302POPC   C2B67952   9.443  15.997   6.528
 5302POPC   C3B67953   9.305  16.110   6.919
 5302POPC   C4B67954   9.384  16.262   7.308
 5303POPC   NC367955  35.145  29.447   5.375
 5303POPC   PO467956  34.946  28.743   5.396
 5303POPC   GL167957  35.164  28.943   5.737
 5303POPC   GL267958  35.285  29.248   5.811
 5303POPC   C1A67959  35.121  28.948   6.202
 5303POPC   D2A67960  35.102  29.179   6.575
 5303POPC   C3A67961  35.268  29.010   6.916
 5303POPC   C4A67962  35.098  28.868   7.265
 5303POPC   C1B67963  35.254  29.456   6.188
 5303POPC   C2B67964  35.327  29.659   6.600
 5303POPC   C3B67965  35.530  29.565   7.022
 5303POPC   C4B67966  35.517  29.221   7.329
 5304POPC   NC367967  28.243  27.013   5.329
 5304POPC   PO467968  28.836  26.756   5.361
 5304POPC   GL167969  28.640  26.538   5.729
 5304POPC   GL267970  28.345  26.737   5.741
 5304POPC   C1A67971  28.455  26.501   6.177
 5304POPC   D2A67972  28.139  26.702   6.462
 5304POPC   C3A67973  28.297  26.742   6.862
 5304POPC   C4A67974  28.289  26.542   7.235
 5304POPC   C1B67975  28.319  27.010   6.097
 5304POPC   C2B67976  28.242  27.214   6.521
 5304POPC   C3B67977  28.115  27.205   6.974
 5304POPC   C4B67978  28.251  27.077   7.392
 5305POPC   NC367979  43.199   2.512   5.463
 5305POPC   PO467980  42.871   3.156   5.457
 5305POPC   GL167981  43.121   3.132   5.849
 5305POPC   GL267982  43.493   3.153   5.759
 5305POPC   C1A67983  43.019   3.020   6.309
 5305POPC   D2A67984  43.029   2.582   6.539
 5305POPC   C3A67985  43.061   2.517   7.001
 5305POPC   C4A67986  42.882   2.829   7.324
 5305POPC   C1B67987  43.568   3.055   6.204
 5305POPC   C2B67988  43.409   2.938   6.640
 5305POPC   C3B67989  43.315   2.943   7.086
 5305POPC   C4B67990  43.364   2.641   7.443
 5306POPC   NC367991  34.901  43.636   5.104
 5306POPC   PO467992  35.314  44.123   5.374
 5306POPC   GL167993  35.413  43.816   5.709
 5306POPC   GL267994  35.177  43.520   5.700
 5306POPC   C1A67995  35.652  43.886   6.128
 5306POPC   D2A67996  35.718  44.028   6.595
 5306POPC   C3A67997  35.835  43.706   6.927
 5306POPC   C4A67998  35.665  43.487   7.289
 5306POPC   C1B67999  35.181  43.682   6.140
 5306POPC   C2B68000  35.377  43.661   6.527
 5306POPC   C3B68001  35.340  43.750   6.934
 5306POPC   C4B68002  35.179  43.564   7.267
 5307POPC   NC368003  30.274  21.870   5.314
 5307POPC   PO468004  29.962  21.218   5.359
 5307POPC   GL168005  29.844  21.431   5.740
 5307POPC   GL268006  30.155  21.623   5.740
 5307POPC   C1A68007  29.697  21.390   6.193
 5307POPC   D2A68008  29.903  21.249   6.586
 5307POPC   C3A68009  29.783  21.378   6.981
 5307POPC   C4A68010  29.815  21.421   7.394
 5307POPC   C1B68011  30.231  21.401   6.122
 5307POPC   C2B68012  30.408  21.308   6.518
 5307POPC   C3B68013  30.307  21.469   6.941
 5307POPC   C4B68014  30.272  21.234   7.340
 5308POPC   NC368015  11.894  22.224   5.491
 5308POPC   PO468016  12.519  21.963   5.454
 5308POPC   GL168017  12.271  22.284   5.817
 5308POPC   GL268018  11.899  22.307   5.974
 5308POPC   C1A68019  12.277  22.195   6.280
 5308POPC   D2A68020  12.293  21.866   6.574
 5308POPC   C3A68021  12.289  22.120   6.943
 5308POPC   C4A68022  12.229  22.544   7.108
 5308POPC   C1B68023  11.801  22.305   6.425
 5308POPC   C2B68024  11.800  22.225   6.860
 5308POPC   C3B68025  11.912  22.189   7.295
 5308POPC   C4B68026  11.669  22.291   7.695
 5309POPC   NC368027  23.356  28.355   5.546
 5309POPC   PO468028  22.673  28.422   5.457
 5309POPC   GL168029  22.933  28.538   5.857
 5309POPC   GL268030  23.211  28.757   5.824
 5309POPC   C1A68031  23.086  28.478   6.317
 5309POPC   D2A68032  23.203  28.156   6.654
 5309POPC   C3A68033  23.001  28.150   7.089
 5309POPC   C4A68034  22.537  28.187   7.202
 5309POPC   C1B68035  23.081  28.961   6.153
 5309POPC   C2B68036  23.227  28.971   6.539
 5309POPC   C3B68037  23.052  28.868   6.924
 5309POPC   C4B68038  22.994  28.616   7.281
 5310POPC   NC368039  28.181   3.265   5.398
 5310POPC   PO468040  28.226   2.541   5.390
 5310POPC   GL168041  28.312   2.764   5.780
 5310POPC   GL268042  28.659   2.827   5.709
 5310POPC   C1A68043  28.416   2.607   6.224
 5310POPC   D2A68044  28.632   2.441   6.625
 5310POPC   C3A68045  28.460   2.680   6.970
 5310POPC   C4A68046  28.287   2.621   7.376
 5310POPC   C1B68047  28.776   2.957   6.128
 5310POPC   C2B68048  28.633   2.965   6.561
 5310POPC   C3B68049  28.583   3.196   6.948
 5310POPC   C4B68050  28.621   3.046   7.368
 5311POPC   NC368051   7.157  21.892   5.409
 5311POPC   PO468052   7.701  22.339   5.288
 5311POPC   GL168053   7.616  22.142   5.676
 5311POPC   GL268054   7.278  22.175   5.816
 5311POPC   C1A68055   7.699  22.050   6.108
 5311POPC   D2A68056   7.509  22.045   6.481
 5311POPC   C3A68057   7.607  22.070   6.867
 5311POPC   C4A68058   7.290  22.165   7.162
 5311POPC   C1B68059   7.165  21.877   6.156
 5311POPC   C2B68060   7.264  21.600   6.505
 5311POPC   C3B68061   7.291  21.681   6.936
 5311POPC   C4B68062   7.083  21.734   7.314
 5312POPC   NC368063  18.525   3.870   5.188
 5312POPC   PO468064  18.283   3.268   5.380
 5312POPC   GL168065  18.302   3.500   5.794
 5312POPC   GL268066  18.453   3.825   5.756
 5312POPC   C1A68067  18.099   3.432   6.205
 5312POPC   D2A68068  17.985   3.293   6.640
 5312POPC   C3A68069  18.215   3.515   6.975
 5312POPC   C4A68070  18.355   3.346   7.348
 5312POPC   C1B68071  18.581   3.745   6.201
 5312POPC   C2B68072  18.797   3.766   6.620
 5312POPC   C3B68073  18.640   3.839   7.018
 5312POPC   C4B68074  18.496   3.819   7.436
 5313POPC   NC368075  44.822  39.578   5.445
 5313POPC   PO468076  44.947  40.191   5.159
 5313POPC   GL168077  44.774  40.054   5.602
 5313POPC   GL268078  44.462  39.786   5.735
 5313POPC   C1A68079  44.885  39.922   6.036
 5313POPC   D2A68080  44.815  39.782   6.449
 5313POPC   C3A68081  44.881  39.928   6.910
 5313POPC   C4A68082  44.914  40.336   7.122
 5313POPC   C1B68083  44.375  39.891   6.213
 5313POPC   C2B68084  44.403  39.933   6.688
 5313POPC   C3B68085  44.408  40.062   7.116
 5313POPC   C4B68086  44.241  39.810   7.483
 5314POPC   NC368087  33.747  31.563   5.058
 5314POPC   PO468088  34.118  31.188   5.524
 5314POPC   GL168089  33.897  31.345   5.848
 5314POPC   GL268090  33.764  31.600   5.706
 5314POPC   C1A68091  33.972  31.336   6.301
 5314POPC   D2A68092  34.235  31.295   6.674
 5314POPC   C3A68093  33.998  31.133   7.036
 5314POPC   C4A68094  33.658  31.331   7.268
 5314POPC   C1B68095  33.623  31.674   6.158
 5314POPC   C2B68096  33.590  31.497   6.599
 5314POPC   C3B68097  33.471  31.728   6.968
 5314POPC   C4B68098  33.738  31.849   7.293
 5315POPC   NC368099  30.817   8.036   5.351
 5315POPC   PO468100  30.161   8.425   5.390
 5315POPC   GL168101  30.409   8.139   5.688
 5315POPC   GL268102  30.611   7.796   5.744
 5315POPC   C1A68103  30.532   8.179   6.145
 5315POPC   D2A68104  30.749   8.141   6.584
 5315POPC   C3A68105  30.756   8.341   7.003
 5315POPC   C4A68106  31.000   8.713   7.002
 5315POPC   C1B68107  30.861   7.783   6.145
 5315POPC   C2B68108  30.963   7.668   6.593
 5315POPC   C3B68109  31.065   7.915   6.971
 5315POPC   C4B68110  30.762   7.901   7.349
 5316POPC   NC368111   8.640  19.807   5.409
 5316POPC   PO468112   9.282  19.976   5.331
 5316POPC   GL168113   9.125  19.822   5.705
 5316POPC   GL268114   8.938  20.121   5.756
 5316POPC   C1A68115   8.952  19.667   6.104
 5316POPC   D2A68116   8.817  19.514   6.524
 5316POPC   C3A68117   8.966  19.653   6.918
 5316POPC   C4A68118   8.790  20.008   7.093
 5316POPC   C1B68119   9.213  20.116   6.135
 5316POPC   C2B68120   9.307  19.906   6.537
 5316POPC   C3B68121   9.304  20.084   6.968
 5316POPC   C4B68122   9.191  20.017   7.403
 5317POPC   NC368123  25.781  19.945   5.459
 5317POPC   PO468124  26.364  19.646   5.471
 5317POPC   GL168125  26.166  19.873   5.796
 5317POPC   GL268126  25.916  19.628   5.872
 5317POPC   C1A68127  25.987  20.017   6.195
 5317POPC   D2A68128  26.157  20.185   6.575
 5317POPC   C3A68129  25.891  20.140   6.893
 5317POPC   C4A68130  25.824  19.956   7.217
 5317POPC   C1B68131  26.210  19.484   6.180
 5317POPC   C2B68132  26.144  19.524   6.626
 5317POPC   C3B68133  26.177  19.379   7.043
 5317POPC   C4B68134  26.126  19.602   7.430
 5318POPC   NC368135  20.122  27.508   5.185
 5318POPC   PO468136  19.494  27.479   5.433
 5318POPC   GL168137  19.555  27.600   5.860
 5318POPC   GL268138  19.879  27.735   6.052
 5318POPC   C1A68139  19.599  27.384   6.253
 5318POPC   D2A68140  19.723  27.617   6.605
 5318POPC   C3A68141  19.632  27.433   6.976
 5318POPC   C4A68142  19.984  27.515   7.252
 5318POPC   C1B68143  19.510  27.934   6.259
 5318POPC   C2B68144  19.409  28.015   6.698
 5318POPC   C3B68145  19.691  27.926   7.080
 5318POPC   C4B68146  19.722  27.881   7.597
 5319POPC   NC368147   3.966  12.043   5.581
 5319POPC   PO468148   4.633  12.357   5.562
 5319POPC   GL168149   4.419  12.052   5.834
 5319POPC   GL268150   4.578  11.729   5.943
 5319POPC   C1A68151   4.169  12.048   6.198
 5319POPC   D2A68152   4.229  12.234   6.585
 5319POPC   C3A68153   4.253  11.977   6.934
 5319POPC   C4A68154   4.240  12.167   7.305
 5319POPC   C1B68155   4.457  11.681   6.382
 5319POPC   C2B68156   4.561  11.558   6.792
 5319POPC   C3B68157   4.469  11.568   7.218
 5319POPC   C4B68158   4.480  11.816   7.559
 5320POPC   NC368159  20.370  24.676   5.443
 5320POPC   PO468160  21.008  24.628   5.531
 5320POPC   GL168161  20.707  24.494   5.872
 5320POPC   GL268162  20.496  24.206   5.762
 5320POPC   C1A68163  20.635  24.446   6.336
 5320POPC   D2A68164  20.456  24.648   6.734
 5320POPC   C3A68165  20.547  24.502   7.164
 5320POPC   C4A68166  20.457  24.568   7.608
 5320POPC   C1B68167  20.395  24.013   6.179
 5320POPC   C2B68168  20.348  24.138   6.645
 5320POPC   C3B68169  20.244  24.080   7.101
 5320POPC   C4B68170  20.052  24.355   7.442
 5321POPC   NC368171  23.531  38.859   5.292
 5321POPC   PO468172  23.856  38.312   5.449
 5321POPC   GL168173  23.638  38.342   5.821
 5321POPC   GL268174  23.365  38.560   5.718
 5321POPC   C1A68175  23.690  38.311   6.274
 5321POPC   D2A68176  23.888  38.556   6.597
 5321POPC   C3A68177  23.995  38.440   7.038
 5321POPC   C4A68178  23.981  38.641   7.447
 5321POPC   C1B68179  23.228  38.467   6.109
 5321POPC   C2B68180  23.306  38.517   6.538
 5321POPC   C3B68181  23.483  38.406   6.900
 5321POPC   C4B68182  23.503  38.549   7.320
 5322POPC   NC368183  37.372  21.561   5.541
 5322POPC   PO468184  36.886  21.251   5.273
 5322POPC   GL168185  36.911  21.367   5.688
 5322POPC   GL268186  37.022  21.083   5.811
 5322POPC   C1A68187  36.740  21.434   6.101
 5322POPC   D2A68188  36.862  21.325   6.522
 5322POPC   C3A68189  36.806  21.495   6.894
 5322POPC   C4A68190  36.715  21.459   7.309
 5322POPC   C1B68191  37.125  21.035   6.210
 5322POPC   C2B68192  37.373  21.281   6.509
 5322POPC   C3B68193  37.291  21.623   6.780
 5322POPC   C4B68194  37.222  21.510   7.213
 5323POPC   NC368195   9.395  24.976   5.569
 5323POPC   PO468196  10.066  24.996   5.387
 5323POPC   GL168197   9.847  25.137   5.783
 5323POPC   GL268198   9.638  25.434   5.783
 5323POPC   C1A68199   9.628  25.000   6.172
 5323POPC   D2A68200   9.795  25.055   6.577
 5323POPC   C3A68201   9.556  25.002   6.939
 5323POPC   C4A68202   9.767  25.102   7.302
 5323POPC   C1B68203   9.825  25.474   6.194
 5323POPC   C2B68204   9.997  25.551   6.591
 5323POPC   C3B68205   9.829  25.511   6.989
 5323POPC   C4B68206  10.012  25.539   7.396
 5324POPC   NC368207  31.543   7.824   5.431
 5324POPC   PO468208  31.155   8.352   5.473
 5324POPC   GL168209  31.146   8.007   5.748
 5324POPC   GL268210  30.988   8.247   5.962
 5324POPC   C1A68211  31.359   7.948   6.136
 5324POPC   D2A68212  31.259   8.127   6.523
 5324POPC   C3A68213  31.584   8.090   6.800
 5324POPC   C4A68214  31.607   8.016   7.207
 5324POPC   C1B68215  31.048   8.557   6.304
 5324POPC   C2B68216  31.361   8.656   6.640
 5324POPC   C3B68217  31.465   8.506   7.068
 5324POPC   C4B68218  31.603   8.426   7.493
 5325POPC   NC368219  42.708  29.216   5.553
 5325POPC   PO468220  43.330  28.977   5.476
 5325POPC   GL168221  43.157  29.115   5.829
 5325POPC   GL268222  42.893  28.877   5.894
 5325POPC   C1A68223  43.220  29.288   6.229
 5325POPC   D2A68224  42.995  29.234   6.628
 5325POPC   C3A68225  43.246  29.037   6.952
 5325POPC   C4A68226  43.394  29.312   7.269
 5325POPC   C1B68227  43.036  28.816   6.294
 5325POPC   C2B68228  42.871  28.633   6.662
 5325POPC   C3B68229  42.723  28.912   6.967
 5325POPC   C4B68230  42.877  29.313   7.181
 5326POPC   NC368231  35.911  15.807   5.410
 5326POPC   PO468232  36.387  16.266   5.322
 5326POPC   GL168233  36.157  16.153   5.738
 5326POPC   GL268234  36.258  15.825   5.784
 5326POPC   C1A68235  36.053  15.928   6.206
 5326POPC   D2A68236  36.251  15.800   6.596
 5326POPC   C3A68237  36.040  15.883   7.009
 5326POPC   C4A68238  35.839  15.833   7.427
 5326POPC   C1B68239  36.554  15.705   6.111
 5326POPC   C2B68240  36.727  15.589   6.520
 5326POPC   C3B68241  36.590  15.507   6.917
 5326POPC   C4B68242  36.436  15.403   7.282
 5327POPC   NC368243   0.393  17.853   5.169
 5327POPC   PO468244   0.755  17.285   5.344
 5327POPC   GL168245   0.583  17.672   5.604
 5327POPC   GL268246   0.249  17.570   5.646
 5327POPC   C1A68247   0.514  17.756   6.069
 5327POPC   D2A68248   0.664  17.750   6.499
 5327POPC   C3A68249   0.450  17.734   6.901
 5327POPC   C4A68250   0.700  17.817   7.257
 5327POPC   C1B68251   0.332  17.289   6.027
 5327POPC   C2B68252   0.326  17.334   6.494
 5327POPC   C3B68253   0.045  17.408   6.847
 5327POPC   C4B68254   0.092  17.515   7.230
 5328POPC   NC368255   1.463  14.597   5.420
 5328POPC   PO468256   1.078  14.155   5.480
 5328POPC   GL168257   1.321  14.284   5.805
 5328POPC   GL268258   1.034  14.475   5.889
 5328POPC   C1A68259   1.434  14.433   6.227
 5328POPC   D2A68260   1.571  14.616   6.642
 5328POPC   C3A68261   1.233  14.636   6.929
 5328POPC   C4A68262   1.091  14.302   7.159
 5328POPC   C1B68263   0.971  14.173   6.227
 5328POPC   C2B68264   0.903  14.184   6.668
 5328POPC   C3B68265   0.691  14.036   7.029
 5328POPC   C4B68266   0.799  13.993   7.460
 5329POPC   NC368267   7.009  28.239   5.468
 5329POPC   PO468268   7.666  28.313   5.262
 5329POPC   GL168269   7.469  28.403   5.672
 5329POPC   GL268270   7.203  28.640   5.705
 5329POPC   C1A68271   7.383  28.321   6.133
 5329POPC   D2A68272   7.415  28.214   6.590
 5329POPC   C3A68273   7.029  28.124   6.828
 5329POPC   C4A68274   6.932  28.112   7.242
 5329POPC   C1B68275   7.274  28.838   6.095
 5329POPC   C2B68276   7.355  28.839   6.537
 5329POPC   C3B68277   7.268  28.587   6.920
 5329POPC   C4B68278   7.483  28.283   7.172
 5330POPC   NC368279  24.641  32.310   5.362
 5330POPC   PO468280  24.011  32.289   5.500
 5330POPC   GL168281  24.374  32.112   5.778
 5330POPC   GL268282  24.570  32.385   5.910
 5330POPC   C1A68283  24.554  31.918   6.156
 5330POPC   D2A68284  24.644  32.094   6.580
 5330POPC   C3A68285  24.494  32.005   7.024
 5330POPC   C4A68286  24.310  32.222   7.410
 5330POPC   C1B68287  24.314  32.382   6.308
 5330POPC   C2B68288  24.337  32.445   6.784
 5330POPC   C3B68289  24.552  32.597   7.166
 5330POPC   C4B68290  24.617  32.635   7.645
 5331POPC   NC368291  22.924  39.069   5.435
 5331POPC   PO468292  22.718  39.647   5.260
 5331POPC   GL168293  23.015  39.521   5.710
 5331POPC   GL268294  22.984  39.197   5.908
 5331POPC   C1A68295  23.039  39.599   6.199
 5331POPC   D2A68296  22.719  39.437   6.512
 5331POPC   C3A68297  22.871  39.388   6.940
 5331POPC   C4A68298  22.784  39.018   7.164
 5331POPC   C1B68299  23.131  38.964   6.259
 5331POPC   C2B68300  22.978  38.907   6.667
 5331POPC   C3B68301  23.238  38.866   7.020
 5331POPC   C4B68302  23.206  38.973   7.461
 5332POPC   NC368303  43.519   6.564   5.317
 5332POPC   PO468304  44.116   6.501   5.332
 5332POPC   GL168305  43.892   6.490   5.736
 5332POPC   GL268306  43.636   6.757   5.784
 5332POPC   C1A68307  44.064   6.580   6.171
 5332POPC   D2A68308  44.343   6.537   6.538
 5332POPC   C3A68309  44.114   6.554   6.869
 5332POPC   C4A68310  44.073   6.672   7.257
 5332POPC   C1B68311  43.527   6.628   6.223
 5332POPC   C2B68312  43.649   6.535   6.647
 5332POPC   C3B68313  43.656   6.434   7.074
 5332POPC   C4B68314  43.481   6.587   7.418
 5333POPC   NC368315   1.510  12.292   5.436
 5333POPC   PO468316   1.070  11.756   5.491
 5333POPC   GL168317   1.180  12.053   5.793
 5333POPC   GL268318   0.891  12.296   5.809
 5333POPC   C1A68319   1.396  11.900   6.196
 5333POPC   D2A68320   1.456  11.697   6.624
 5333POPC   C3A68321   1.363  11.877   7.055
 5333POPC   C4A68322   1.436  12.051   7.499
 5333POPC   C1B68323   1.008  12.238   6.226
 5333POPC   C2B68324   0.991  11.950   6.553
 5333POPC   C3B68325   0.986  12.181   6.916
 5333POPC   C4B68326   1.032  12.303   7.313
 5334POPC   NC368327  37.109  17.364   5.459
 5334POPC   PO468328  36.616  17.763   5.243
 5334POPC   GL168329  36.672  17.617   5.722
 5334POPC   GL268330  36.927  17.399   5.937
 5334POPC   C1A68331  36.602  17.704   6.186
 5334POPC   D2A68332  36.773  17.441   6.488
 5334POPC   C3A68333  36.668  17.551   6.928
 5334POPC   C4A68334  36.795  17.359   7.325
 5334POPC   C1B68335  37.184  17.153   6.248
 5334POPC   C2B68336  37.105  17.074   6.684
 5334POPC   C3B68337  37.223  17.140   7.103
 5334POPC   C4B68338  37.515  16.912   7.340
 5335POPC   NC368339  36.575  37.274   5.598
 5335POPC   PO468340  36.142  36.871   5.223
 5335POPC   GL168341  36.255  36.860   5.724
 5335POPC   GL268342  36.218  37.159   5.911
 5335POPC   C1A68343  36.328  36.781   6.223
 5335POPC   D2A68344  36.431  36.888   6.686
 5335POPC   C3A68345  36.212  36.805   7.072
 5335POPC   C4A68346  36.266  36.520   7.403
 5335POPC   C1B68347  36.358  37.395   6.254
 5335POPC   C2B68348  36.228  37.358   6.698
 5335POPC   C3B68349  36.111  37.319   7.133
 5335POPC   C4B68350  35.983  37.336   7.564
 5336POPC   NC368351  13.801  42.037   5.479
 5336POPC   PO468352  13.524  42.642   5.461
 5336POPC   GL168353  13.478  42.406   5.824
 5336POPC   GL268354  13.580  42.107   5.921
 5336POPC   C1A68355  13.395  42.474   6.225
 5336POPC   D2A68356  13.584  42.219   6.517
 5336POPC   C3A68357  13.498  42.312   6.914
 5336POPC   C4A68358  13.502  42.435   7.307
 5336POPC   C1B68359  13.927  42.045   6.162
 5336POPC   C2B68360  13.934  41.853   6.549
 5336POPC   C3B68361  13.821  41.895   6.973
 5336POPC   C4B68362  14.058  41.766   7.342
 5337POPC   NC368363   8.538  25.265   5.458
 5337POPC   PO468364   9.178  25.415   5.579
 5337POPC   GL168365   9.036  25.202   5.932
 5337POPC   GL268366   8.683  25.108   5.907
 5337POPC   C1A68367   8.908  25.023   6.340
 5337POPC   D2A68368   8.708  25.109   6.726
 5337POPC   C3A68369   9.054  25.243   6.969
 5337POPC   C4A68370   9.371  25.451   7.212
 5337POPC   C1B68371   8.495  25.406   6.196
 5337POPC   C2B68372   8.495  25.619   6.605
 5337POPC   C3B68373   8.525  25.475   7.030
 5337POPC   C4B68374   8.707  25.208   7.332
 5338POPC   NC368375  37.424  25.214   5.564
 5338POPC   PO468376  38.077  25.119   5.540
 5338POPC   GL168377  37.820  25.259   5.894
 5338POPC   GL268378  37.645  25.572   5.888
 5338POPC   C1A68379  37.557  25.155   6.248
 5338POPC   D2A68380  37.270  25.153   6.595
 5338POPC   C3A68381  37.519  25.124   6.959
 5338POPC   C4A68382  37.886  25.113   7.198
 5338POPC   C1B68383  37.633  25.663   6.345
 5338POPC   C2B68384  37.624  25.684   6.792
 5338POPC   C3B68385  37.661  25.560   7.202
 5338POPC   C4B68386  37.407  25.422   7.506
 5339POPC   NC368387   0.317  20.080   5.138
 5339POPC   PO468388   0.006  19.621   5.534
 5339POPC   GL168389   0.200  19.581   5.954
 5339POPC   GL268390   0.361  19.893   5.950
 5339POPC   C1A68391   0.539  19.554   6.299
 5339POPC   D2A68392   0.607  19.788   6.709
 5339POPC   C3A68393   0.548  19.649   7.157
 5339POPC   C4A68394   0.316  19.822   7.524
 5339POPC   C1B68395   0.181  19.952   6.332
 5339POPC   C2B68396   0.060  19.970   6.735
 5339POPC   C3B68397   0.299  20.071   7.066
 5339POPC   C4B68398   0.240  20.327   7.445
 5340POPC   NC368399  10.134  37.555   5.298
 5340POPC   PO468400   9.536  37.894   5.149
 5340POPC   GL168401   9.650  37.886   5.596
 5340POPC   GL268402  10.002  37.987   5.632
 5340POPC   C1A68403   9.590  37.677   6.017
 5340POPC   D2A68404   9.804  37.538   6.397
 5340POPC   C3A68405   9.667  37.721   6.740
 5340POPC   C4A68406   9.560  37.597   7.127
 5340POPC   C1B68407  10.089  37.835   6.063
 5340POPC   C2B68408  10.141  37.893   6.541
 5340POPC   C3B68409  10.049  37.869   7.032
 5340POPC   C4B68410  10.105  37.998   7.467
 5341POPC   NC368411   4.600   8.966   5.525
 5341POPC   PO468412   5.270   8.704   5.333
 5341POPC   GL168413   5.281   8.785   5.782
 5341POPC   GL268414   4.945   8.737   5.794
 5341POPC   C1A68415   5.274   8.878   6.247
 5341POPC   D2A68416   5.038   9.105   6.633
 5341POPC   C3A68417   5.190   9.030   7.077
 5341POPC   C4A68418   5.401   9.194   7.488
 5341POPC   C1B68419   4.779   8.866   6.174
 5341POPC   C2B68420   4.888   8.637   6.535
 5341POPC   C3B68421   4.784   8.700   6.939
 5341POPC   C4B68422   4.610   8.713   7.320
 5342POPC   NC368423  18.094  13.549   5.586
 5342POPC   PO468424  18.637  13.608   5.288
 5342POPC   GL168425  18.557  13.532   5.795
 5342POPC   GL268426  18.467  13.212   5.818
 5342POPC   C1A68427  18.428  13.701   6.235
 5342POPC   D2A68428  18.083  13.828   6.561
 5342POPC   C3A68429  18.237  13.869   6.980
 5342POPC   C4A68430  18.535  13.806   7.341
 5342POPC   C1B68431  18.271  13.209   6.197
 5342POPC   C2B68432  18.284  13.363   6.608
 5342POPC   C3B68433  18.441  13.418   7.004
 5342POPC   C4B68434  18.213  13.370   7.399
 5343POPC   NC368435   6.979  20.336   5.502
 5343POPC   PO468436   6.280  20.348   5.427
 5343POPC   GL168437   6.568  20.519   5.769
 5343POPC   GL268438   6.832  20.810   5.694
 5343POPC   C1A68439   6.666  20.345   6.194
 5343POPC   D2A68440   6.472  20.353   6.623
 5343POPC   C3A68441   6.744  20.417   7.011
 5343POPC   C4A68442   6.871  20.447   7.458
 5343POPC   C1B68443   6.692  20.937   6.093
 5343POPC   C2B68444   6.713  20.783   6.494
 5343POPC   C3B68445   6.642  20.899   6.916
 5343POPC   C4B68446   6.900  20.922   7.266
 5344POPC   NC368447   8.108   1.101   5.415
 5344POPC   PO468448   8.428   1.715   5.277
 5344POPC   GL168449   8.211   1.510   5.738
 5344POPC   GL268450   7.963   1.228   5.874
 5344POPC   C1A68451   8.252   1.369   6.236
 5344POPC   D2A68452   7.933   1.240   6.546
 5344POPC   C3A68453   7.961   1.380   6.967
 5344POPC   C4A68454   8.215   1.501   7.291
 5344POPC   C1B68455   7.871   0.899   6.150
 5344POPC   C2B68456   7.641   0.824   6.536
 5344POPC   C3B68457   7.892   0.841   6.906
 5344POPC   C4B68458   8.064   0.997   7.320
 5345POPC   NC368459  38.681  37.197   5.516
 5345POPC   PO468460  38.201  36.804   5.416
 5345POPC   GL168461  38.397  36.831   5.799
 5345POPC   GL268462  38.712  36.701   5.740
 5345POPC   C1A68463  38.405  37.039   6.193
 5345POPC   D2A68464  38.137  37.143   6.556
 5345POPC   C3A68465  38.340  37.114   6.963
 5345POPC   C4A68466  38.258  36.855   7.318
 5345POPC   C1B68467  38.847  36.764   6.160
 5345POPC   C2B68468  38.835  36.959   6.565
 5345POPC   C3B68469  38.774  36.806   6.971
 5345POPC   C4B68470  38.788  36.895   7.411
 5346POPC   NC368471  26.125  40.888   5.523
 5346POPC   PO468472  26.503  40.301   5.495
 5346POPC   GL168473  26.140  40.445   5.801
 5346POPC   GL268474  25.781  40.575   5.738
 5346POPC   C1A68475  26.117  40.753   6.171
 5346POPC   D2A68476  26.264  40.949   6.562
 5346POPC   C3A68477  26.292  40.702   6.946
 5346POPC   C4A68478  26.153  40.881   7.330
 5346POPC   C1B68479  25.604  40.741   6.117
 5346POPC   C2B68480  25.605  40.618   6.523
 5346POPC   C3B68481  25.583  40.522   6.920
 5346POPC   C4B68482  25.688  40.650   7.321
 5347POPC   NC368483  39.023  35.972   5.447
 5347POPC   PO468484  39.497  36.404   5.398
 5347POPC   GL168485  39.425  36.115   5.757
 5347POPC   GL268486  39.064  36.050   5.940
 5347POPC   C1A68487  39.518  35.960   6.161
 5347POPC   D2A68488  39.201  35.992   6.461
 5347POPC   C3A68489  39.276  35.969   6.872
 5347POPC   C4A68490  39.517  36.050   7.239
 5347POPC   C1B68491  38.801  36.250   6.284
 5347POPC   C2B68492  38.734  36.255   6.733
 5347POPC   C3B68493  38.843  36.055   7.136
 5347POPC   C4B68494  38.775  36.114   7.629
 5348POPC   NC368495  13.121   6.775   5.394
 5348POPC   PO468496  12.556   6.294   5.251
 5348POPC   GL168497  12.741   6.499   5.670
 5348POPC   GL268498  12.823   6.809   5.793
 5348POPC   C1A68499  12.937   6.515   6.165
 5348POPC   D2A68500  13.178   6.579   6.585
 5348POPC   C3A68501  12.881   6.728   6.871
 5348POPC   C4A68502  12.552   6.576   7.065
 5348POPC   C1B68503  13.195   6.956   6.048
 5348POPC   C2B68504  13.049   7.075   6.442
 5348POPC   C3B68505  13.162   7.135   6.843
 5348POPC   C4B68506  12.895   7.177   7.170
 5349POPC   NC368507  42.521  27.557   5.311
 5349POPC   PO468508  41.972  27.948   5.439
 5349POPC   GL168509  42.208  27.693   5.753
 5349POPC   GL268510  42.526  27.865   5.780
 5349POPC   C1A68511  42.352  27.524   6.182
 5349POPC   D2A68512  42.373  27.241   6.535
 5349POPC   C3A68513  42.467  27.386   6.942
 5349POPC   C4A68514  42.336  27.525   7.341
 5349POPC   C1B68515  42.611  27.944   6.223
 5349POPC   C2B68516  42.519  27.840   6.679
 5349POPC   C3B68517  42.384  27.965   7.099
 5349POPC   C4B68518  42.518  28.002   7.540
 5350POPC   NC368519  22.582   9.085   5.542
 5350POPC   PO468520  23.280   9.015   5.405
 5350POPC   GL168521  23.113   8.740   5.754
 5350POPC   GL268522  22.761   8.752   5.869
 5350POPC   C1A68523  23.158   8.925   6.158
 5350POPC   D2A68524  23.138   9.159   6.535
 5350POPC   C3A68525  23.112   9.099   6.975
 5350POPC   C4A68526  23.262   8.869   7.301
 5350POPC   C1B68527  22.676   8.914   6.299
 5350POPC   C2B68528  22.701   8.914   6.746
 5350POPC   C3B68529  22.600   8.945   7.174
 5350POPC   C4B68530  22.410   8.926   7.568
 5351POPC   NC368531  11.929  43.688   5.410
 5351POPC   PO468532  12.427  44.125   5.352
 5351POPC   GL168533  12.126  44.167   5.733
 5351POPC   GL268534  12.007  43.829   5.892
 5351POPC   C1A68535  12.028  44.243   6.200
 5351POPC   D2A68536  11.950  44.029   6.629
 5351POPC   C3A68537  11.997  44.256   7.027
 5351POPC   C4A68538  12.011  43.961   7.357
 5351POPC   C1B68539  11.709  43.583   6.170
 5351POPC   C2B68540  11.861  43.513   6.590
 5351POPC   C3B68541  12.142  43.612   6.939
 5351POPC   C4B68542  12.342  43.370   7.278
 5352POPC   NC368543  44.119   3.784   5.446
 5352POPC   PO468544  43.710   4.401   5.290
 5352POPC   GL168545  43.675   4.339   5.742
 5352POPC   GL268546  44.050   4.215   5.757
 5352POPC   C1A68547  43.823   4.306   6.195
 5352POPC   D2A68548  44.131   4.441   6.492
 5352POPC   C3A68549  43.899   4.599   6.833
 5352POPC   C4A68550  44.080   4.561   7.231
 5352POPC   C1B68551  44.199   3.950   6.139
 5352POPC   C2B68552  44.095   3.945   6.580
 5352POPC   C3B68553  43.957   4.105   6.969
 5352POPC   C4B68554  43.660   4.246   7.277
 5353POPC   NC368555   8.753  24.368   5.383
 5353POPC   PO468556   9.409  24.499   5.492
 5353POPC   GL168557   9.110  24.308   5.820
 5353POPC   GL268558   8.744  24.445   5.921
 5353POPC   C1A68559   9.092  24.334   6.288
 5353POPC   D2A68560   8.922  24.598   6.646
 5353POPC   C3A68561   9.202  24.575   6.992
 5353POPC   C4A68562   9.335  24.166   7.147
 5353POPC   C1B68563   8.589  24.233   6.339
 5353POPC   C2B68564   8.726  24.110   6.760
 5353POPC   C3B68565   8.818  24.259   7.176
 5353POPC   C4B68566   8.814  24.706   7.289
 5354POPC   NC368567   1.953  27.499   5.108
 5354POPC   PO468568   2.311  27.976   5.375
 5354POPC   GL168569   2.297  27.743   5.766
 5354POPC   GL268570   2.261  27.388   5.638
 5354POPC   C1A68571   2.049  27.617   6.152
 5354POPC   D2A68572   1.926  27.285   6.472
 5354POPC   C3A68573   1.812  27.432   6.913
 5354POPC   C4A68574   1.958  27.609   7.319
 5354POPC   C1B68575   2.350  27.194   6.050
 5354POPC   C2B68576   2.432  27.176   6.484
 5354POPC   C3B68577   2.236  27.110   6.876
 5354POPC   C4B68578   2.332  27.275   7.273
 5355POPC   NC368579   6.816  15.732   5.443
 5355POPC   PO468580   6.440  16.359   5.486
 5355POPC   GL168581   6.571  16.088   5.776
 5355POPC   GL268582   6.906  16.186   5.811
 5355POPC   C1A68583   6.583  16.178   6.220
 5355POPC   D2A68584   6.837  16.151   6.570
 5355POPC   C3A68585   6.571  15.965   6.864
 5355POPC   C4A68586   6.555  16.093   7.261
 5355POPC   C1B68587   6.994  15.851   6.159
 5355POPC   C2B68588   6.913  15.641   6.582
 5355POPC   C3B68589   7.001  15.739   7.024
 5355POPC   C4B68590   6.818  15.707   7.454
 5356POPC   NC368591   9.687  38.418   5.155
 5356POPC   PO468592  10.150  38.880   5.460
 5356POPC   GL168593   9.937  38.609   5.803
 5356POPC   GL268594   9.655  38.405   5.689
 5356POPC   C1A68595   9.628  38.658   6.188
 5356POPC   D2A68596   9.455  38.537   6.638
 5356POPC   C3A68597   9.763  38.348   6.906
 5356POPC   C4A68598   9.902  38.546   7.276
 5356POPC   C1B68599   9.459  38.184   6.049
 5356POPC   C2B68600   9.356  38.051   6.483
 5356POPC   C3B68601   9.340  38.054   6.952
 5356POPC   C4B68602   9.615  38.094   7.332
 5357POPC   NC368603  43.481  16.163   5.468
 5357POPC   PO468604  42.919  15.956   5.408
 5357POPC   GL168605  43.110  16.074   5.792
 5357POPC   GL268606  43.131  16.451   5.758
 5357POPC   C1A68607  43.176  15.865   6.173
 5357POPC   D2A68608  42.937  15.696   6.535
 5357POPC   C3A68609  43.139  15.741   6.924
 5357POPC   C4A68610  42.997  15.627   7.349
 5357POPC   C1B68611  42.980  16.383   6.181
 5357POPC   C2B68612  43.124  16.195   6.559
 5357POPC   C3B68613  43.288  16.270   6.939
 5357POPC   C4B68614  43.174  16.105   7.319
 5358POPC   NC368615  44.466  29.166   5.406
 5358POPC   PO468616   0.024  28.940   5.570
 5358POPC   GL168617  44.737  29.052   5.829
 5358POPC   GL268618  44.552  28.755   5.805
 5358POPC   C1A68619  44.739  29.305   6.171
 5358POPC   D2A68620  44.643  29.457   6.562
 5358POPC   C3A68621  44.594  29.221   6.888
 5358POPC   C4A68622  44.521  29.391   7.279
 5358POPC   C1B68623  44.742  28.737   6.240
 5358POPC   C2B68624  44.707  28.738   6.693
 5358POPC   C3B68625  44.669  28.765   7.134
 5358POPC   C4B68626  44.680  28.950   7.535
 5359POPC   NC368627  31.052  35.315   5.403
 5359POPC   PO468628  30.526  35.644   5.504
 5359POPC   GL168629  30.608  35.330   5.758
 5359POPC   GL268630  30.901  35.525   5.861
 5359POPC   C1A68631  30.639  35.121   6.159
 5359POPC   D2A68632  30.485  35.043   6.573
 5359POPC   C3A68633  30.837  34.996   6.848
 5359POPC   C4A68634  30.889  35.098   7.257
 5359POPC   C1B68635  30.627  35.635   6.209
 5359POPC   C2B68636  30.711  35.507   6.633
 5359POPC   C3B68637  30.540  35.399   7.023
 5359POPC   C4B68638  30.408  35.247   7.420
 5360POPC   NC368639   3.137   8.722   5.129
 5360POPC   PO468640   2.659   8.808   5.632
 5360POPC   GL168641   2.715   9.107   5.939
 5360POPC   GL268642   2.811   8.841   6.127
 5360POPC   C1A68643   2.996   9.304   6.231
 5360POPC   D2A68644   2.962   9.044   6.564
 5360POPC   C3A68645   2.922   9.231   6.885
 5360POPC   C4A68646   2.958   9.031   7.267
 5360POPC   C1B68647   2.494   8.571   6.292
 5360POPC   C2B68648   2.594   8.360   6.658
 5360POPC   C3B68649   2.701   8.688   6.967
 5360POPC   C4B68650   2.532   8.751   7.346
 5361POPC   NC368651  18.090   9.578   5.590
 5361POPC   PO468652  18.535  10.021   5.386
 5361POPC   GL168653  18.410   9.918   5.807
 5361POPC   GL268654  18.559   9.606   5.814
 5361POPC   C1A68655  18.101   9.884   6.192
 5361POPC   D2A68656  18.064   9.644   6.594
 5361POPC   C3A68657  18.251   9.825   6.967
 5361POPC   C4A68658  18.072   9.991   7.324
 5361POPC   C1B68659  18.424   9.490   6.226
 5361POPC   C2B68660  18.480   9.276   6.624
 5361POPC   C3B68661  18.322   9.311   7.050
 5361POPC   C4B68662  18.151   9.490   7.408
 5362POPC   NC368663  42.790  41.263   5.500
 5362POPC   PO468664  43.402  41.427   5.284
 5362POPC   GL168665  43.293  41.563   5.693
 5362POPC   GL268666  42.976  41.758   5.733
 5362POPC   C1A68667  43.178  41.394   6.090
 5362POPC   D2A68668  43.313  41.504   6.479
 5362POPC   C3A68669  43.099  41.604   6.835
 5362POPC   C4A68670  43.261  41.368   7.155
 5362POPC   C1B68671  42.709  41.601   6.079
 5362POPC   C2B68672  42.726  41.396   6.453
 5362POPC   C3B68673  42.588  41.447   6.873
 5362POPC   C4B68674  42.788  41.502   7.250
 5363POPC   NC368675  41.923   9.738   5.368
 5363POPC   PO468676  41.396  10.099   5.420
 5363POPC   GL168677  41.573   9.942   5.794
 5363POPC   GL268678  41.406  10.265   5.933
 5363POPC   C1A68679  41.724   9.602   6.117
 5363POPC   D2A68680  42.008   9.404   6.441
 5363POPC   C3A68681  41.842   9.431   6.880
 5363POPC   C4A68682  41.840   9.679   7.257
 5363POPC   C1B68683  41.668  10.110   6.257
 5363POPC   C2B68684  41.585   9.819   6.592
 5363POPC   C3B68685  41.614  10.048   6.965
 5363POPC   C4B68686  41.458  10.000   7.407
 5364POPC   NC368687  20.932  39.366   5.376
 5364POPC   PO468688  21.677  39.367   5.351
 5364POPC   GL168689  21.382  39.211   5.664
 5364POPC   GL268690  21.278  39.547   5.731
 5364POPC   C1A68691  21.288  38.982   6.088
 5364POPC   D2A68692  21.441  38.898   6.529
 5364POPC   C3A68693  21.395  39.176   6.859
 5364POPC   C4A68694  21.215  39.136   7.233
 5364POPC   C1B68695  21.526  39.441   6.124
 5364POPC   C2B68696  21.775  39.298   6.502
 5364POPC   C3B68697  21.800  39.475   6.931
 5364POPC   C4B68698  21.561  39.616   7.305
 5365POPC   NC368699  30.231  22.804   5.191
 5365POPC   PO468700  29.565  22.843   5.282
 5365POPC   GL168701  29.738  22.951   5.705
 5365POPC   GL268702  30.092  23.072   5.709
 5365POPC   C1A68703  29.774  22.736   6.134
 5365POPC   D2A68704  29.854  22.807   6.567
 5365POPC   C3A68705  29.526  23.018   6.799
 5365POPC   C4A68706  29.576  23.028   7.212
 5365POPC   C1B68707  29.890  23.226   6.099
 5365POPC   C2B68708  29.834  23.332   6.531
 5365POPC   C3B68709  29.973  23.270   6.960
 5365POPC   C4B68710  29.994  23.249   7.406
 5366POPC   NC368711  21.097  25.090   5.471
 5366POPC   PO468712  20.415  25.175   5.371
 5366POPC   GL168713  20.654  24.993   5.756
 5366POPC   GL268714  20.924  25.166   5.928
 5366POPC   C1A68715  20.589  24.941   6.228
 5366POPC   D2A68716  20.615  25.189   6.611
 5366POPC   C3A68717  20.732  25.041   7.017
 5366POPC   C4A68718  20.457  24.993   7.351
 5366POPC   C1B68719  20.918  25.442   6.258
 5366POPC   C2B68720  21.025  25.485   6.700
 5366POPC   C3B68721  20.863  25.549   7.137
 5366POPC   C4B68722  20.851  25.278   7.508
 5367POPC   NC368723   4.868  20.379   5.576
 5367POPC   PO468724   5.049  19.710   5.452
 5367POPC   GL168725   5.066  19.715   5.845
 5367POPC   GL268726   5.076  20.053   5.900
 5367POPC   C1A68727   5.198  19.666   6.243
 5367POPC   D2A68728   5.224  19.422   6.585
 5367POPC   C3A68729   5.131  19.612   6.949
 5367POPC   C4A68730   5.260  19.770   7.301
 5367POPC   C1B68731   5.206  20.191   6.267
 5367POPC   C2B68732   5.387  20.286   6.638
 5367POPC   C3B68733   5.102  20.152   6.924
 5367POPC   C4B68734   5.092  20.274   7.316
 5368POPC   NC368735  42.772  35.849   5.392
 5368POPC   PO468736  43.370  36.109   5.430
 5368POPC   GL168737  43.144  36.257   5.791
 5368POPC   GL268738  42.881  36.472   5.685
 5368POPC   C1A68739  43.051  36.157   6.214
 5368POPC   D2A68740  43.175  36.147   6.648
 5368POPC   C3A68741  43.023  35.773   6.860
 5368POPC   C4A68742  42.932  35.875   7.305
 5368POPC   C1B68743  42.866  36.627   6.123
 5368POPC   C2B68744  42.864  36.558   6.590
 5368POPC   C3B68745  43.087  36.561   7.030
 5368POPC   C4B68746  43.050  36.585   7.506
 5369POPC   NC368747  22.588   2.482   5.397
 5369POPC   PO468748  23.206   3.028   5.388
 5369POPC   GL168749  23.049   2.845   5.805
 5369POPC   GL268750  23.000   2.476   5.733
 5369POPC   C1A68751  23.076   2.806   6.290
 5369POPC   D2A68752  22.826   2.997   6.642
 5369POPC   C3A68753  22.904   3.004   7.093
 5369POPC   C4A68754  23.079   2.621   7.285
 5369POPC   C1B68755  22.692   2.537   6.059
 5369POPC   C2B68756  22.598   2.553   6.488
 5369POPC   C3B68757  22.754   2.560   6.889
 5369POPC   C4B68758  22.633   2.361   7.256
 5370POPC   NC368759  35.774   2.146   5.370
 5370POPC   PO468760  35.128   1.812   5.476
 5370POPC   GL168761  35.439   1.984   5.753
 5370POPC   GL268762  35.386   2.342   5.708
 5370POPC   C1A68763  35.432   1.892   6.206
 5370POPC   D2A68764  35.492   2.054   6.641
 5370POPC   C3A68765  35.139   2.098   6.964
 5370POPC   C4A68766  35.142   1.826   7.324
 5370POPC   C1B68767  35.560   2.388   6.122
 5370POPC   C2B68768  35.717   2.505   6.548
 5370POPC   C3B68769  35.547   2.442   6.989
 5370POPC   C4B68770  35.259   2.505   7.350
 5371POPC   NC368771   6.016  20.722   5.499
 5371POPC   PO468772   5.361  20.408   5.620
 5371POPC   GL168773   5.635  20.243   5.938
 5371POPC   GL268774   5.998  20.333   5.858
 5371POPC   C1A68775   5.757  20.424   6.308
 5371POPC   D2A68776   5.702  20.757   6.573
 5371POPC   C3A68777   5.668  20.606   6.961
 5371POPC   C4A68778   5.475  20.597   7.340
 5371POPC   C1B68779   6.227  20.618   6.165
 5371POPC   C2B68780   6.217  20.818   6.573
 5371POPC   C3B68781   6.181  20.668   6.981
 5371POPC   C4B68782   5.956  20.865   7.315
 5372POPC   NC368783  38.062  34.161   5.368
 5372POPC   PO468784  37.661  34.670   5.322
 5372POPC   GL168785  37.633  34.592   5.753
 5372POPC   GL268786  37.960  34.609   5.757
 5372POPC   C1A68787  37.520  34.808   6.169
 5372POPC   D2A68788  37.307  34.812   6.596
 5372POPC   C3A68789  37.475  34.661   7.018
 5372POPC   C4A68790  37.490  34.229   7.201
 5372POPC   C1B68791  37.936  34.469   6.158
 5372POPC   C2B68792  37.718  34.470   6.536
 5372POPC   C3B68793  37.868  34.328   6.892
 5372POPC   C4B68794  37.939  34.524   7.259
 5373POPC   NC368795  21.883  19.206   5.252
 5373POPC   PO468796  22.435  18.866   5.180
 5373POPC   GL168797  22.330  19.009   5.666
 5373POPC   GL268798  22.190  19.355   5.651
 5373POPC   C1A68799  22.195  18.887   6.156
 5373POPC   D2A68800  22.236  18.730   6.589
 5373POPC   C3A68801  22.039  18.695   6.995
 5373POPC   C4A68802  22.094  18.997   7.324
 5373POPC   C1B68803  22.156  19.403   6.094
 5373POPC   C2B68804  21.960  19.208   6.455
 5373POPC   C3B68805  22.053  19.208   6.860
 5373POPC   C4B68806  21.782  19.427   7.143
 5374POPC   NC368807  21.170   8.823   5.362
 5374POPC   PO468808  21.815   8.990   5.343
 5374POPC   GL168809  21.547   8.803   5.711
 5374POPC   GL268810  21.319   9.119   5.769
 5374POPC   C1A68811  21.301   8.764   6.140
 5374POPC   D2A68812  21.187   8.922   6.581
 5374POPC   C3A68813  21.534   8.956   6.875
 5374POPC   C4A68814  21.658   8.632   7.130
 5374POPC   C1B68815  21.035   9.450   5.989
 5374POPC   C2B68816  20.938   9.542   6.433
 5374POPC   C3B68817  21.059   9.336   6.848
 5374POPC   C4B68818  21.094   9.028   7.159
 5375POPC   NC368819  43.769  18.591   5.401
 5375POPC   PO468820  43.943  17.924   5.372
 5375POPC   GL168821  43.710  17.908   5.803
 5375POPC   GL268822  43.582  18.249   5.844
 5375POPC   C1A68823  43.634  17.990   6.303
 5375POPC   D2A68824  43.914  17.991   6.644
 5375POPC   C3A68825  43.819  18.078   7.063
 5375POPC   C4A68826  44.081  18.296   7.379
 5375POPC   C1B68827  43.785  18.464   6.204
 5375POPC   C2B68828  43.650  18.450   6.638
 5375POPC   C3B68829  43.780  18.611   7.040
 5375POPC   C4B68830  43.797  18.697   7.483
 5376POPC   NC368831  39.055   0.006   5.580
 5376POPC   PO468832  39.414   0.654   5.521
 5376POPC   GL168833  39.302   0.547   5.967
 5376POPC   GL268834  39.018   0.322   5.973
 5376POPC   C1A68835  39.162   0.550   6.429
 5376POPC   D2A68836  38.872   0.596   6.791
 5376POPC   C3A68837  39.079   0.377   7.168
 5376POPC   C4A68838  39.369   0.023   7.240
 5376POPC   C1B68839  39.168   0.035   6.289
 5376POPC   C2B68840  39.086   0.077   6.732
 5376POPC   C3B68841  38.892  44.893   7.097
 5376POPC   C4B68842  38.821   0.072   7.514
 5377POPC   NC368843  10.071  34.284   5.550
 5377POPC   PO468844   9.880  34.967   5.529
 5377POPC   GL168845   9.862  34.620   5.885
 5377POPC   GL268846   9.514  34.589   5.976
 5377POPC   C1A68847   9.844  34.378   6.312
 5377POPC   D2A68848   9.993  34.403   6.763
 5377POPC   C3A68849   9.998  34.650   7.146
 5377POPC   C4A68850   9.915  34.720   7.572
 5377POPC   C1B68851   9.354  34.217   6.231
 5377POPC   C2B68852   9.307  34.007   6.616
 5377POPC   C3B68853   9.517  34.217   6.970
 5377POPC   C4B68854   9.539  34.482   7.323
 5378POPC   NC368855  13.203  21.472   5.317
 5378POPC   PO468856  13.857  21.329   5.075
 5378POPC   GL168857  13.717  21.381   5.613
 5378POPC   GL268858  13.410  21.513   5.808
 5378POPC   C1A68859  13.667  21.156   6.082
 5378POPC   D2A68860  13.672  21.237   6.564
 5378POPC   C3A68861  13.686  21.249   7.035
 5378POPC   C4A68862  13.575  21.187   7.474
 5378POPC   C1B68863  13.734  21.645   6.133
 5378POPC   C2B68864  13.776  21.777   6.565
 5378POPC   C3B68865  13.463  21.661   6.853
 5378POPC   C4B68866  13.310  21.610   7.257
 5379POPC   NC368867  21.505  14.684   5.478
 5379POPC   PO468868  21.012  14.188   5.431
 5379POPC   GL168869  21.292  14.342   5.847
 5379POPC   GL268870  21.470  14.642   5.975
 5379POPC   C1A68871  21.481  14.258   6.307
 5379POPC   D2A68872  21.445  13.951   6.670
 5379POPC   C3A68873  21.603  14.013   7.121
 5379POPC   C4A68874  21.686  14.155   7.567
 5379POPC   C1B68875  21.123  14.615   6.271
 5379POPC   C2B68876  21.159  14.508   6.669
 5379POPC   C3B68877  21.444  14.490   6.974
 5379POPC   C4B68878  21.290  14.389   7.359
 5380POPC   NC368879  12.334  21.516   5.402
 5380POPC   PO468880  11.801  21.125   5.531
 5380POPC   GL168881  11.906  21.439   5.856
 5380POPC   GL268882  12.062  21.794   5.772
 5380POPC   C1A68883  12.145  21.441   6.275
 5380POPC   D2A68884  12.443  21.327   6.629
 5380POPC   C3A68885  12.292  21.295   7.027
 5380POPC   C4A68886  12.046  21.282   7.391
 5380POPC   C1B68887  11.856  21.847   6.176
 5380POPC   C2B68888  11.788  21.708   6.593
 5380POPC   C3B68889  11.967  21.726   7.007
 5380POPC   C4B68890  12.283  21.740   7.327
 5381POPC   NC368891  18.263  38.746   5.132
 5381POPC   PO468892  18.389  38.101   5.295
 5381POPC   GL168893  18.292  38.388   5.694
 5381POPC   GL268894  17.942  38.568   5.680
 5381POPC   C1A68895  18.293  38.308   6.178
 5381POPC   D2A68896  18.293  38.107   6.623
 5381POPC   C3A68897  18.488  38.285   7.016
 5381POPC   C4A68898  18.267  38.413   7.419
 5381POPC   C1B68899  18.010  38.756   6.102
 5381POPC   C2B68900  18.093  38.636   6.546
 5381POPC   C3B68901  18.000  38.481   6.956
 5381POPC   C4B68902  17.887  38.778   7.261
 5382POPC   NC368903  30.468   8.702   5.607
 5382POPC   PO468904  30.974   8.906   5.186
 5382POPC   GL168905  30.898   9.061   5.662
 5382POPC   GL268906  30.589   9.221   5.822
 5382POPC   C1A68907  30.995   9.247   6.122
 5382POPC   D2A68908  30.972   9.022   6.537
 5382POPC   C3A68909  30.913   9.228   6.911
 5382POPC   C4A68910  30.891   9.082   7.335
 5382POPC   C1B68911  30.596   8.926   6.194
 5382POPC   C2B68912  30.456   8.880   6.613
 5382POPC   C3B68913  30.538   8.900   7.040
 5382POPC   C4B68914  30.497   8.651   7.366
 5383POPC   NC368915  19.979  35.854   5.268
 5383POPC   PO468916  19.471  36.017   5.481
 5383POPC   GL168917  19.780  35.751   5.751
 5383POPC   GL268918  20.170  35.803   5.761
 5383POPC   C1A68919  19.783  35.568   6.179
 5383POPC   D2A68920  19.575  35.445   6.561
 5383POPC   C3A68921  19.678  35.594   6.977
 5383POPC   C4A68922  19.717  35.534   7.433
 5383POPC   C1B68923  20.272  35.685   6.204
 5383POPC   C2B68924  20.083  35.588   6.635
 5383POPC   C3B68925  20.176  35.562   7.109
 5383POPC   C4B68926  20.539  35.448   7.395
 5384POPC   NC368927   0.812  42.159   5.269
 5384POPC   PO468928   0.957  42.766   5.415
 5384POPC   GL168929   1.193  42.444   5.686
 5384POPC   GL268930   1.168  42.090   5.741
 5384POPC   C1A68931   1.319  42.417   6.128
 5384POPC   D2A68932   1.133  42.499   6.525
 5384POPC   C3A68933   1.315  42.484   6.920
 5384POPC   C4A68934   1.232  42.274   7.281
 5384POPC   C1B68935   0.983  42.037   6.186
 5384POPC   C2B68936   0.982  41.972   6.633
 5384POPC   C3B68937   0.928  41.908   7.072
 5384POPC   C4B68938   0.910  41.912   7.504
 5385POPC   NC368939  11.498  16.668   5.584
 5385POPC   PO468940  10.929  16.368   5.343
 5385POPC   GL168941  11.031  16.628   5.832
 5385POPC   GL268942  11.290  16.879   5.980
 5385POPC   C1A68943  11.114  16.588   6.339
 5385POPC   D2A68944  11.094  16.795   6.780
 5385POPC   C3A68945  11.188  16.626   7.193
 5385POPC   C4A68946  10.968  16.307   7.506
 5385POPC   C1B68947  11.507  16.956   6.344
 5385POPC   C2B68948  11.450  17.160   6.722
 5385POPC   C3B68949  11.607  16.970   7.114
 5385POPC   C4B68950  11.510  16.967   7.577
 5386POPC   NC368951   6.558  36.994   5.639
 5386POPC   PO468952   6.656  36.370   5.391
 5386POPC   GL168953   6.525  36.473   5.832
 5386POPC   GL268954   6.815  36.671   5.942
 5386POPC   C1A68955   6.447  36.703   6.270
 5386POPC   D2A68956   6.686  36.776   6.663
 5386POPC   C3A68957   6.584  36.715   7.109
 5386POPC   C4A68958   6.447  36.469   7.460
 5386POPC   C1B68959   6.955  36.990   6.252
 5386POPC   C2B68960   6.921  37.240   6.645
 5386POPC   C3B68961   6.725  37.207   7.020
 5386POPC   C4B68962   6.449  37.167   7.349
 5387POPC   NC368963   5.293  41.925   5.206
 5387POPC   PO468964   4.864  41.467   5.471
 5387POPC   GL168965   5.042  41.602   5.862
 5387POPC   GL268966   5.327  41.848   5.782
 5387POPC   C1A68967   4.952  41.485   6.299
 5387POPC   D2A68968   4.847  41.688   6.662
 5387POPC   C3A68969   4.927  41.410   6.982
 5387POPC   C4A68970   4.792  41.425   7.395
 5387POPC   C1B68971   5.378  41.740   6.238
 5387POPC   C2B68972   5.358  41.583   6.658
 5387POPC   C3B68973   5.365  41.661   7.105
 5387POPC   C4B68974   5.122  41.873   7.431
 5388POPC   NC368975   4.491   2.798   5.314
 5388POPC   PO468976   4.210   2.177   5.228
 5388POPC   GL168977   4.351   2.461   5.670
 5388POPC   GL268978   4.192   2.819   5.735
 5388POPC   C1A68979   4.272   2.566   6.178
 5388POPC   D2A68980   3.991   2.654   6.592
 5388POPC   C3A68981   3.932   2.521   7.084
 5388POPC   C4A68982   3.932   2.600   7.598
 5388POPC   C1B68983   4.371   3.093   6.088
 5388POPC   C2B68984   4.478   2.975   6.519
 5388POPC   C3B68985   4.243   3.004   6.882
 5388POPC   C4B68986   4.302   2.811   7.273
 5389POPC   NC368987  27.879  40.714   5.500
 5389POPC   PO468988  27.236  40.981   5.514
 5389POPC   GL168989  27.435  40.854   5.862
 5389POPC   GL268990  27.732  41.030   5.901
 5389POPC   C1A68991  27.235  40.876   6.252
 5389POPC   D2A68992  27.243  40.608   6.603
 5389POPC   C3A68993  27.598  40.707   6.829
 5389POPC   C4A68994  27.469  40.936   7.184
 5389POPC   C1B68995  27.663  41.234   6.285
 5389POPC   C2B68996  27.863  41.193   6.673
 5389POPC   C3B68997  27.959  41.007   7.079
 5389POPC   C4B68998  27.945  40.711   7.443
 5390POPC   NC368999  29.371  35.777   5.386
 5390POPC   PO469000  28.868  35.266   5.344
 5390POPC   GL169001  28.980  35.514   5.739
 5390POPC   GL269002  29.294  35.369   5.770
 5390POPC   C1A69003  28.904  35.365   6.206
 5390POPC   D2A69004  28.916  35.145   6.652
 5390POPC   C3A69005  29.123  35.173   7.085
 5390POPC   C4A69006  28.886  35.357   7.457
 5390POPC   C1B69007  29.399  35.463   6.216
 5390POPC   C2B69008  29.174  35.598   6.598
 5390POPC   C3B69009  28.900  35.586   6.965
 5390POPC   C4B69010  29.299  35.631   7.259
 5391POPC   NC369011  25.095   0.565   5.488
 5391POPC   PO469012  25.546   0.152   5.159
 5391POPC   GL169013  25.510   0.324   5.668
 5391POPC   GL269014  25.514   0.681   5.790
 5391POPC   C1A69015  25.518   0.203   6.116
 5391POPC   D2A69016  25.573   0.126   6.575
 5391POPC   C3A69017  25.296   0.320   6.874
 5391POPC   C4A69018  25.381   0.521   7.239
 5391POPC   C1B69019  25.289   0.658   6.200
 5391POPC   C2B69020  25.323   0.789   6.666
 5391POPC   C3B69021  24.987   0.759   7.031
 5391POPC   C4B69022  24.900   0.409   7.344
 5392POPC   NC369023   0.526  30.265   5.271
 5392POPC   PO469024   0.543  29.649   5.316
 5392POPC   GL169025   0.412  29.764   5.757
 5392POPC   GL269026   0.441  30.129   5.779
 5392POPC   C1A69027   0.591  29.853   6.204
 5392POPC   D2A69028   0.833  29.878   6.611
 5392POPC   C3A69029   0.579  29.806   6.984
 5392POPC   C4A69030   0.288  29.705   7.286
 5392POPC   C1B69031   0.171  30.187   6.165
 5392POPC   C2B69032   0.239  30.068   6.620
 5392POPC   C3B69033   0.198  30.156   7.080
 5392POPC   C4B69034   0.550  30.134   7.417
 5393POPC   NC369035  33.254  24.592   5.341
 5393POPC   PO469036  33.122  23.980   5.454
 5393POPC   GL169037  33.036  24.300   5.799
 5393POPC   GL269038  33.097  24.692   5.839
 5393POPC   C1A69039  32.835  24.247   6.203
 5393POPC   D2A69040  32.614  24.235   6.605
 5393POPC   C3A69041  32.943  24.150   6.899
 5393POPC   C4A69042  33.072  24.356   7.248
 5393POPC   C1B69043  32.966  24.738   6.292
 5393POPC   C2B69044  32.921  24.649   6.741
 5393POPC   C3B69045  32.826  24.788   7.147
 5393POPC   C4B69046  33.002  24.869   7.568
 5394POPC   NC369047  25.061  17.300   5.349
 5394POPC   PO469048  25.330  17.873   5.410
 5394POPC   GL169049  25.335  17.552   5.713
 5394POPC   GL269050  25.065  17.705   5.865
 5394POPC   C1A69051  25.374  17.406   6.139
 5394POPC   D2A69052  25.194  17.598   6.511
 5394POPC   C3A69053  25.289  17.364   6.890
 5394POPC   C4A69054  25.416  17.043   7.202
 5394POPC   C1B69055  25.459  17.915   6.078
 5394POPC   C2B69056  25.623  17.987   6.504
 5394POPC   C3B69057  25.448  17.863   6.898
 5394POPC   C4B69058  25.044  17.743   7.104
 5395POPC   NC369059  40.458  40.201   5.064
 5395POPC   PO469060  39.995  40.127   5.522
 5395POPC   GL169061  39.778  40.046   5.908
 5395POPC   GL269062  40.089  39.865   6.026
 5395POPC   C1A69063  39.711  40.012   6.351
 5395POPC   D2A69064  40.037  39.795   6.610
 5395POPC   C3A69065  40.041  39.972   7.032
 5395POPC   C4A69066  40.203  40.348   7.174
 5395POPC   C1B69067  40.211  39.452   6.238
 5395POPC   C2B69068  40.283  39.319   6.662
 5395POPC   C3B69069  40.334  39.566   7.036
 5395POPC   C4B69070  40.199  39.723   7.486
 5396POPC   NC369071  16.152  10.432   5.290
 5396POPC   PO469072  15.595  10.710   5.530
 5396POPC   GL169073  15.926  10.543   5.784
 5396POPC   GL269074  16.252  10.709   5.760
 5396POPC   C1A69075  16.005  10.579   6.227
 5396POPC   D2A69076  16.124  10.720   6.634
 5396POPC   C3A69077  15.901  10.516   7.017
 5396POPC   C4A69078  15.718  10.707   7.390
 5396POPC   C1B69079  16.464  10.756   6.170
 5396POPC   C2B69080  16.603  10.504   6.549
 5396POPC   C3B69081  16.427  10.496   6.974
 5396POPC   C4B69082  16.220  10.880   7.110
 5397POPC   NC369083  44.096   2.913   5.281
 5397POPC   PO469084  43.713   3.523   5.426
 5397POPC   GL169085  43.849   3.543   5.840
 5397POPC   GL269086  43.716   3.861   5.932
 5397POPC   C1A69087  43.890   3.526   6.279
 5397POPC   D2A69088  43.937   3.485   6.691
 5397POPC   C3A69089  43.619   3.329   6.897
 5397POPC   C4A69090  43.679   3.202   7.291
 5397POPC   C1B69091  43.507   3.925   6.356
 5397POPC   C2B69092  43.395   3.812   6.790
 5397POPC   C3B69093  43.624   3.754   7.173
 5397POPC   C4B69094  44.003   3.582   7.195
 5398POPC   NC369095   3.268  25.405   5.708
 5398POPC   PO469096   3.701  25.030   5.386
 5398POPC   GL169097   3.698  25.149   5.816
 5398POPC   GL269098   3.401  25.045   6.040
 5398POPC   C1A69099   3.809  25.309   6.199
 5398POPC   D2A69100   3.922  25.220   6.614
 5398POPC   C3A69101   3.554  25.104   6.836
 5398POPC   C4A69102   3.373  25.307   7.165
 5398POPC   C1B69103   3.307  25.286   6.404
 5398POPC   C2B69104   3.344  25.580   6.720
 5398POPC   C3B69105   3.210  25.782   7.100
 5398POPC   C4B69106   3.321  25.646   7.554
 5399POPC   NC369107   6.420  26.901   4.958
 5399POPC   PO469108   6.685  26.462   5.438
 5399POPC   GL169109   6.650  26.576   5.846
 5399POPC   GL269110   6.887  26.875   5.920
 5399POPC   C1A69111   6.687  26.558   6.273
 5399POPC   D2A69112   6.836  26.864   6.520
 5399POPC   C3A69113   6.682  26.773   6.892
 5399POPC   C4A69114   6.675  26.790   7.333
 5399POPC   C1B69115   6.537  27.069   6.161
 5399POPC   C2B69116   6.452  27.215   6.603
 5399POPC   C3B69117   6.596  27.261   7.034
 5399POPC   C4B69118   6.631  27.251   7.493
 5400POPC   NC369119  25.699  28.640   5.437
 5400POPC   PO469120  25.151  28.285   5.415
 5400POPC   GL169121  25.227  28.295   5.853
 5400POPC   GL269122  25.427  28.596   5.901
 5400POPC   C1A69123  24.971  28.219   6.236
 5400POPC   D2A69124  24.943  28.406   6.641
 5400POPC   C3A69125  25.298  28.303   6.857
 5400POPC   C4A69126  25.362  28.181   7.253
 5400POPC   C1B69127  25.371  28.549   6.348
 5400POPC   C2B69128  25.553  28.736   6.714
 5400POPC   C3B69129  25.545  28.667   7.160
 5400POPC   C4B69130  25.762  28.476   7.487
 5401POPC   NC369131  22.338  17.852   5.540
 5401POPC   PO469132  21.997  17.167   5.499
 5401POPC   GL169133  22.125  17.462   5.790
 5401POPC   GL269134  22.470  17.458   5.923
 5401POPC   C1A69135  22.072  17.576   6.218
 5401POPC   D2A69136  22.121  17.336   6.603
 5401POPC   C3A69137  22.214  17.558   6.963
 5401POPC   C4A69138  22.014  17.689   7.298
 5401POPC   C1B69139  22.566  17.298   6.325
 5401POPC   C2B69140  22.649  17.346   6.777
 5401POPC   C3B69141  22.515  17.189   7.191
 5401POPC   C4B69142  22.246  17.307   7.580
 5402POPC   NC369143  28.646  20.928   5.505
 5402POPC   PO469144  28.890  21.547   5.491
 5402POPC   GL169145  28.638  21.396   5.795
 5402POPC   GL269146  28.322  21.311   5.643
 5402POPC   C1A69147  28.710  21.335   6.223
 5402POPC   D2A69148  28.482  21.452   6.572
 5402POPC   C3A69149  28.594  21.304   6.961
 5402POPC   C4A69150  28.473  21.460   7.355
 5402POPC   C1B69151  28.203  21.344   6.088
 5402POPC   C2B69152  28.081  21.143   6.466
 5402POPC   C3B69153  28.106  21.169   6.922
 5402POPC   C4B69154  28.340  20.974   7.247
 5403POPC   NC369155  34.615  30.100   5.344
 5403POPC   PO469156  34.592  29.534   5.548
 5403POPC   GL169157  34.682  29.914   5.817
 5403POPC   GL269158  34.352  30.025   5.873
 5403POPC   C1A69159  34.686  30.054   6.253
 5403POPC   D2A69160  34.419  29.978   6.593
 5403POPC   C3A69161  34.568  30.078   7.011
 5403POPC   C4A69162  34.293  30.109   7.361
 5403POPC   C1B69163  34.373  29.632   6.168
 5403POPC   C2B69164  34.335  29.382   6.541
 5403POPC   C3B69165  34.375  29.578   6.912
 5403POPC   C4B69166  34.561  29.623   7.278
 5404POPC   NC369167  44.399  24.487   5.429
 5404POPC   PO469168  44.976  24.223   5.312
 5404POPC   GL169169  44.754  24.238   5.762
 5404POPC   GL269170  44.604  24.562   5.908
 5404POPC   C1A69171  44.853  24.254   6.254
 5404POPC   D2A69172  44.872  24.352   6.746
 5404POPC   C3A69173  44.571  24.496   7.049
 5404POPC   C4A69174  44.329  24.245   7.334
 5404POPC   C1B69175  44.622  24.700   6.365
 5404POPC   C2B69176  44.834  24.946   6.694
 5404POPC   C3B69177   0.012  24.807   7.064
 5404POPC   C4B69178  44.831  24.705   7.489
 5405POPC   NC369179  14.929  38.510   5.405
 5405POPC   PO469180  15.454  38.135   5.525
 5405POPC   GL169181  15.187  38.329   5.831
 5405POPC   GL269182  15.137  38.696   5.877
 5405POPC   C1A69183  15.334  38.400   6.254
 5405POPC   D2A69184  15.374  38.631   6.629
 5405POPC   C3A69185  15.333  38.388   6.975
 5405POPC   C4A69186  15.522  38.043   7.115
 5405POPC   C1B69187  15.015  38.879   6.299
 5405POPC   C2B69188  14.989  38.950   6.770
 5405POPC   C3B69189  15.188  38.847   7.185
 5405POPC   C4B69190  14.997  38.824   7.616
 5406POPC   NC369191   9.263  26.799   5.355
 5406POPC   PO469192   8.936  27.301   5.078
 5406POPC   GL169193   8.871  27.093   5.546
 5406POPC   GL269194   8.663  26.781   5.656
 5406POPC   C1A69195   9.105  27.021   5.988
 5406POPC   D2A69196   9.293  27.169   6.421
 5406POPC   C3A69197   9.242  26.865   6.758
 5406POPC   C4A69198   9.157  27.023   7.165
 5406POPC   C1B69199   8.716  26.582   6.111
 5406POPC   C2B69200   8.814  26.597   6.600
 5406POPC   C3B69201   8.749  26.639   7.092
 5406POPC   C4B69202   8.619  26.590   7.588
 5407POPC   NC369203  20.334  39.717   5.258
 5407POPC   PO469204  20.549  39.100   5.338
 5407POPC   GL169205  20.576  39.308   5.752
 5407POPC   GL269206  20.275  39.156   5.928
 5407POPC   C1A69207  20.912  39.385   6.093
 5407POPC   D2A69208  21.025  39.194   6.501
 5407POPC   C3A69209  20.890  39.370   6.897
 5407POPC   C4A69210  20.413  39.392   6.979
 5407POPC   C1B69211  20.525  39.053   6.326
 5407POPC   C2B69212  20.623  38.956   6.762
 5407POPC   C3B69213  20.714  39.013   7.196
 5407POPC   C4B69214  20.548  38.824   7.556
 5408POPC   NC369215  29.316  21.583   5.327
 5408POPC   PO469216  29.182  20.888   5.369
 5408POPC   GL169217  29.082  21.117   5.783
 5408POPC   GL269218  29.308  21.404   5.805
 5408POPC   C1A69219  29.197  21.199   6.256
 5408POPC   D2A69220  29.383  21.366   6.643
 5408POPC   C3A69221  29.325  21.152   7.047
 5408POPC   C4A69222  29.409  21.114   7.528
 5408POPC   C1B69223  29.102  21.696   6.096
 5408POPC   C2B69224  28.947  21.713   6.509
 5408POPC   C3B69225  28.994  21.590   6.921
 5408POPC   C4B69226  28.912  21.784   7.292
 5409POPC   NC369227  19.061   5.340   5.183
 5409POPC   PO469228  19.331   5.853   5.550
 5409POPC   GL169229  18.938   5.832   5.767
 5409POPC   GL269230  19.069   6.122   5.957
 5409POPC   C1A69231  18.714   5.839   6.169
 5409POPC   D2A69232  18.895   6.157   6.448
 5409POPC   C3A69233  19.008   6.009   6.831
 5409POPC   C4A69234  19.070   6.069   7.255
 5409POPC   C1B69235  19.462   6.009   6.178
 5409POPC   C2B69236  19.474   6.050   6.610
 5409POPC   C3B69237  19.487   6.177   7.007
 5409POPC   C4B69238  19.678   6.473   7.234
 5410POPC   NC369239  21.531  43.726   5.380
 5410POPC   PO469240  21.094  44.244   5.610
 5410POPC   GL169241  21.352  43.954   5.782
 5410POPC   GL269242  21.112  43.709   5.819
 5410POPC   C1A69243  21.629  43.808   6.141
 5410POPC   D2A69244  21.520  43.549   6.510
 5410POPC   C3A69245  21.377  43.642   6.908
 5410POPC   C4A69246  21.540  43.594   7.295
 5410POPC   C1B69247  21.165  43.981   6.233
 5410POPC   C2B69248  21.419  44.045   6.599
 5410POPC   C3B69249  21.346  44.140   7.028
 5410POPC   C4B69250  21.101  43.866   7.287
 5411POPC   NC369251  12.636  30.979   5.009
 5411POPC   PO469252  12.870  30.537   5.457
 5411POPC   GL169253  12.995  30.585   5.830
 5411POPC   GL269254  12.955  30.905   5.817
 5411POPC   C1A69255  12.982  30.377   6.192
 5411POPC   D2A69256  12.755  30.488   6.575
 5411POPC   C3A69257  12.968  30.588   6.958
 5411POPC   C4A69258  13.249  30.566   7.300
 5411POPC   C1B69259  12.747  30.913   6.208
 5411POPC   C2B69260  12.597  30.994   6.624
 5411POPC   C3B69261  12.776  31.081   6.997
 5411POPC   C4B69262  12.921  30.930   7.389
 5412POPC   NC369263   6.343  19.902   5.333
 5412POPC   PO469264   6.985  19.910   5.316
 5412POPC   GL169265   6.783  19.927   5.743
 5412POPC   GL269266   6.439  20.021   5.822
 5412POPC   C1A69267   6.901  19.846   6.170
 5412POPC   D2A69268   6.902  19.512   6.477
 5412POPC   C3A69269   6.965  19.642   6.917
 5412POPC   C4A69270   7.005  20.004   7.181
 5412POPC   C1B69271   6.421  19.674   6.117
 5412POPC   C2B69272   6.405  19.724   6.560
 5412POPC   C3B69273   6.536  19.937   6.920
 5412POPC   C4B69274   6.557  19.661   7.235
 5413POPC   NC369275  27.446  37.928   5.499
 5413POPC   PO469276  27.997  37.556   5.614
 5413POPC   GL169277  27.668  37.630   5.883
 5413POPC   GL269278  27.443  37.404   5.741
 5413POPC   C1A69279  27.454  37.836   6.241
 5413POPC   D2A69280  27.560  38.016   6.646
 5413POPC   C3A69281  27.560  37.769   7.014
 5413POPC   C4A69282  27.265  37.756   7.384
 5413POPC   C1B69283  27.435  37.313   6.207
 5413POPC   C2B69284  27.307  37.480   6.642
 5413POPC   C3B69285  27.331  37.320   7.090
 5413POPC   C4B69286  27.646  37.416   7.410
 5414POPC   NC369287  40.446  18.433   5.406
 5414POPC   PO469288  40.637  17.802   5.219
 5414POPC   GL169289  40.776  18.197   5.676
 5414POPC   GL269290  40.647  18.495   5.871
 5414POPC   C1A69291  40.898  18.202   6.176
 5414POPC   D2A69292  40.728  18.153   6.610
 5414POPC   C3A69293  40.992  18.217   6.960
 5414POPC   C4A69294  40.912  18.483   7.285
 5414POPC   C1B69295  40.426  18.409   6.282
 5414POPC   C2B69296  40.282  18.414   6.717
 5414POPC   C3B69297  40.465  18.323   7.107
 5414POPC   C4B69298  40.571  18.051   7.476
 5415POPC   NC369299  34.155  44.610   5.560
 5415POPC   PO469300  34.807  44.888   5.514
 5415POPC   GL169301  34.619  44.600   5.789
 5415POPC   GL269302  34.881  44.397   5.841
 5415POPC   C1A69303  34.336  44.519   6.156
 5415POPC   D2A69304  34.160  44.776   6.487
 5415POPC   C3A69305  34.373  44.777   6.883
 5415POPC   C4A69306  34.234  44.737   7.302
 5415POPC   C1B69307  34.851  44.478   6.282
 5415POPC   C2B69308  34.665  44.310   6.664
 5415POPC   C3B69309  34.796  44.430   7.066
 5415POPC   C4B69310  34.797  44.835   7.172
 5416POPC   NC369311  35.988  11.720   5.192
 5416POPC   PO469312  36.219  11.114   5.409
 5416POPC   GL169313  36.107  11.402   5.739
 5416POPC   GL269314  36.026  11.106   5.915
 5416POPC   C1A69315  36.288  11.481   6.175
 5416POPC   D2A69316  36.546  11.360   6.553
 5416POPC   C3A69317  36.469  11.483   6.983
 5416POPC   C4A69318  36.121  11.502   7.255
 5416POPC   C1B69319  36.026  11.072   6.352
 5416POPC   C2B69320  36.030  11.295   6.748
 5416POPC   C3B69321  35.876  11.087   7.106
 5416POPC   C4B69322  35.771  10.652   7.132
 5417POPC   NC369323  15.708   4.690   5.584
 5417POPC   PO469324  16.076   5.180   5.200
 5417POPC   GL169325  16.066   5.260   5.692
 5417POPC   GL269326  15.752   5.155   5.834
 5417POPC   C1A69327  16.190   5.363   6.135
 5417POPC   D2A69328  15.908   5.273   6.506
 5417POPC   C3A69329  16.019   5.094   6.894
 5417POPC   C4A69330  15.773   5.089   7.252
 5417POPC   C1B69331  15.988   4.891   6.147
 5417POPC   C2B69332  15.956   4.685   6.530
 5417POPC   C3B69333  16.058   4.568   6.930
 5417POPC   C4B69334  16.146   4.765   7.287
 5418POPC   NC369335   1.549  26.952   5.489
 5418POPC   PO469336   2.186  26.692   5.439
 5418POPC   GL169337   1.901  26.683   5.796
 5418POPC   GL269338   1.574  26.491   5.744
 5418POPC   C1A69339   2.033  26.813   6.224
 5418POPC   D2A69340   1.855  26.775   6.628
 5418POPC   C3A69341   2.110  26.622   6.963
 5418POPC   C4A69342   2.130  26.812   7.329
 5418POPC   C1B69343   1.653  26.469   6.204
 5418POPC   C2B69344   1.519  26.360   6.639
 5418POPC   C3B69345   1.613  26.499   7.038
 5418POPC   C4B69346   1.666  26.944   7.074
 5419POPC   NC369347  13.494  19.155   5.478
 5419POPC   PO469348  14.112  19.098   5.582
 5419POPC   GL169349  13.768  19.121   5.920
 5419POPC   GL269350  13.418  18.945   5.942
 5419POPC   C1A69351  13.713  19.114   6.375
 5419POPC   D2A69352  13.836  19.363   6.707
 5419POPC   C3A69353  13.917  19.100   7.046
 5419POPC   C4A69354  13.899  18.751   7.343
 5419POPC   C1B69355  13.329  19.328   6.136
 5419POPC   C2B69356  13.311  19.439   6.568
 5419POPC   C3B69357  13.396  19.232   6.972
 5419POPC   C4B69358  13.293  19.400   7.377
 5420POPC   NC369359  36.467   1.651   5.330
 5420POPC   PO469360  36.228   2.312   5.378
 5420POPC   GL169361  36.039   2.321   5.779
 5420POPC   GL269362  36.012   1.942   5.780
 5420POPC   C1A69363  36.023   2.201   6.221
 5420POPC   D2A69364  36.255   2.003   6.545
 5420POPC   C3A69365  35.978   2.038   6.854
 5420POPC   C4A69366  35.967   2.276   7.197
 5420POPC   C1B69367  36.150   1.695   6.138
 5420POPC   C2B69368  36.111   1.455   6.535
 5420POPC   C3B69369  36.145   1.553   6.979
 5420POPC   C4B69370  35.889   1.773   7.278
 5421POPC   NC369371  27.073  42.070   5.216
 5421POPC   PO469372  26.784  42.466   5.717
 5421POPC   GL169373  26.721  42.197   6.019
 5421POPC   GL269374  26.997  42.387   6.203
 5421POPC   C1A69375  26.655  42.107   6.435
 5421POPC   D2A69376  26.780  42.377   6.738
 5421POPC   C3A69377  26.526  42.460   7.087
 5421POPC   C4A69378  26.709  42.188   7.391
 5421POPC   C1B69379  26.739  42.748   6.377
 5421POPC   C2B69380  26.841  42.901   6.801
 5421POPC   C3B69381  27.001  42.622   7.136
 5421POPC   C4B69382  26.835  42.653   7.556
 5422POPC   NC369383  44.395  36.046   5.373
 5422POPC   PO469384  44.690  36.578   5.503
 5422POPC   GL169385  44.430  36.320   5.838
 5422POPC   GL269386  44.149  36.058   5.829
 5422POPC   C1A69387  44.371  36.264   6.309
 5422POPC   D2A69388  44.387  36.220   6.785
 5422POPC   C3A69389  44.681  36.268   7.146
 5422POPC   C4A69390  44.905  36.585   7.389
 5422POPC   C1B69391  44.169  35.793   6.221
 5422POPC   C2B69392  44.293  35.720   6.686
 5422POPC   C3B69393  44.308  35.830   7.132
 5422POPC   C4B69394  44.613  35.901   7.487
 5423POPC   NC369395   3.630   4.101   5.222
 5423POPC   PO469396   3.353   4.665   5.466
 5423POPC   GL169397   3.595   4.489   5.811
 5423POPC   GL269398   3.685   4.118   5.775
 5423POPC   C1A69399   3.547   4.448   6.265
 5423POPC   D2A69400   3.783   4.289   6.629
 5423POPC   C3A69401   3.519   4.398   6.974
 5423POPC   C4A69402   3.418   4.169   7.363
 5423POPC   C1B69403   3.651   3.943   6.225
 5423POPC   C2B69404   3.596   3.798   6.664
 5423POPC   C3B69405   3.769   3.943   7.070
 5423POPC   C4B69406   3.848   3.954   7.529
 5424POPC   NC369407  44.769  20.381   5.435
 5424POPC   PO469408  44.312  20.954   5.321
 5424POPC   GL169409  44.476  20.732   5.732
 5424POPC   GL269410  44.828  20.663   5.829
 5424POPC   C1A69411  44.520  20.578   6.196
 5424POPC   D2A69412  44.698  20.746   6.598
 5424POPC   C3A69413  44.450  20.626   6.949
 5424POPC   C4A69414  44.327  20.714   7.369
 5424POPC   C1B69415   0.009  20.450   6.163
 5424POPC   C2B69416   0.132  20.441   6.542
 5424POPC   C3B69417  44.983  20.448   6.938
 5424POPC   C4B69418  44.830  20.581   7.275
 5425POPC   NC369419   9.110  17.102   5.368
 5425POPC   PO469420   8.906  16.488   5.461
 5425POPC   GL169421   9.088  16.656   5.832
 5425POPC   GL269422   8.867  16.958   5.871
 5425POPC   C1A69423   9.256  16.482   6.238
 5425POPC   D2A69424   9.304  16.683   6.664
 5425POPC   C3A69425   9.070  16.556   7.028
 5425POPC   C4A69426   8.642  16.526   7.089
 5425POPC   C1B69427   9.098  16.997   6.286
 5425POPC   C2B69428   9.025  17.168   6.725
 5425POPC   C3B69429   8.961  17.031   7.161
 5425POPC   C4B69430   9.137  16.847   7.528
 5426POPC   NC369431  10.112  41.841   5.577
 5426POPC   PO469432   9.458  41.455   5.447
 5426POPC   GL169433   9.723  41.562   5.802
 5426POPC   GL269434   9.461  41.464   5.979
 5426POPC   C1A69435   9.838  41.676   6.245
 5426POPC   D2A69436   9.857  41.911   6.621
 5426POPC   C3A69437   9.660  41.858   7.016
 5426POPC   C4A69438  10.058  41.692   7.131
 5426POPC   C1B69439   9.532  41.237   6.325
 5426POPC   C2B69440   9.553  41.467   6.669
 5426POPC   C3B69441   9.697  41.361   7.027
 5426POPC   C4B69442   9.584  41.369   7.395
 5427POPC   NC369443  22.486  42.295   5.392
 5427POPC   PO469444  22.025  42.736   5.462
 5427POPC   GL169445  22.346  42.623   5.797
 5427POPC   GL269446  22.329  42.262   5.897
 5427POPC   C1A69447  22.249  42.648   6.260
 5427POPC   D2A69448  22.125  42.473   6.672
 5427POPC   C3A69449  22.306  42.543   7.084
 5427POPC   C4A69450  22.131  42.469   7.517
 5427POPC   C1B69451  22.028  42.184   6.249
 5427POPC   C2B69452  21.967  41.947   6.637
 5427POPC   C3B69453  22.002  42.112   7.060
 5427POPC   C4B69454  21.847  42.022   7.493
 5428POPC   NC369455   3.497  38.882   5.359
 5428POPC   PO469456   3.908  38.420   5.436
 5428POPC   GL169457   3.669  38.487   5.803
 5428POPC   GL269458   3.733  38.819   5.866
 5428POPC   C1A69459   3.634  38.453   6.265
 5428POPC   D2A69460   3.717  38.756   6.596
 5428POPC   C3A69461   3.659  38.592   7.031
 5428POPC   C4A69462   3.788  38.190   7.235
 5428POPC   C1B69463   3.363  38.874   6.199
 5428POPC   C2B69464   3.218  38.818   6.677
 5428POPC   C3B69465   3.254  38.890   7.160
 5428POPC   C4B69466   3.147  38.896   7.627
 5429POPC   NC369467   9.329  37.510   5.370
 5429POPC   PO469468   8.684  37.682   5.506
 5429POPC   GL169469   8.688  37.585   5.894
 5429POPC   GL269470   8.622  37.897   6.011
 5429POPC   C1A69471   8.939  37.419   6.225
 5429POPC   D2A69472   9.289  37.522   6.452
 5429POPC   C3A69473   9.267  37.297   6.820
 5429POPC   C4A69474   9.099  37.279   7.225
 5429POPC   C1B69475   8.887  37.903   6.342
 5429POPC   C2B69476   8.846  37.655   6.698
 5429POPC   C3B69477   8.868  37.702   7.118
 5429POPC   C4B69478   9.195  37.796   7.392
 5430POPC   NC369479  39.472  11.602   5.226
 5430POPC   PO469480  39.527  12.218   5.578
 5430POPC   GL169481  39.278  11.973   5.849
 5430POPC   GL269482  39.041  12.246   5.861
 5430POPC   C1A69483  39.136  11.976   6.272
 5430POPC   D2A69484  39.308  12.199   6.607
 5430POPC   C3A69485  39.219  11.973   6.952
 5430POPC   C4A69486  39.324  11.836   7.336
 5430POPC   C1B69487  39.051  12.508   6.206
 5430POPC   C2B69488  38.876  12.496   6.589
 5430POPC   C3B69489  39.049  12.465   6.982
 5430POPC   C4B69490  39.296  12.687   7.191
 5431POPC   NC369491  25.248  16.011   5.187
 5431POPC   PO469492  25.682  16.364   5.617
 5431POPC   GL169493  25.412  16.207   5.913
 5431POPC   GL269494  25.143  16.009   5.775
 5431POPC   C1A69495  25.133  16.271   6.228
 5431POPC   D2A69496  25.191  16.011   6.591
 5431POPC   C3A69497  25.144  16.212   6.975
 5431POPC   C4A69498  25.166  16.052   7.366
 5431POPC   C1B69499  24.939  15.786   6.185
 5431POPC   C2B69500  24.788  15.701   6.651
 5431POPC   C3B69501  24.973  15.626   7.112
 5431POPC   C4B69502  25.075  15.586   7.629
 5432POPC   NC369503  30.026  43.288   5.298
 5432POPC   PO469504  29.626  42.814   5.402
 5432POPC   GL169505  29.762  42.995   5.792
 5432POPC   GL269506  29.869  43.337   5.783
 5432POPC   C1A69507  30.078  42.965   6.122
 5432POPC   D2A69508  30.225  42.848   6.557
 5432POPC   C3A69509  30.002  42.917   6.949
 5432POPC   C4A69510  30.081  43.057   7.376
 5432POPC   C1B69511  29.818  43.398   6.216
 5432POPC   C2B69512  30.006  43.337   6.608
 5432POPC   C3B69513  29.824  43.386   7.033
 5432POPC   C4B69514  29.582  43.513   7.371
 5433POPC   NC369515   4.229  11.231   5.377
 5433POPC   PO469516   4.236  11.864   5.254
 5433POPC   GL169517   4.140  11.596   5.719
 5433POPC   GL269518   4.324  11.297   5.863
 5433POPC   C1A69519   3.951  11.397   6.150
 5433POPC   D2A69520   4.161  11.268   6.526
 5433POPC   C3A69521   4.059  11.474   6.892
 5433POPC   C4A69522   4.023  11.253   7.243
 5433POPC   C1B69523   4.580  11.218   6.204
 5433POPC   C2B69524   4.655  11.091   6.610
 5433POPC   C3B69525   4.478  11.072   7.030
 5433POPC   C4B69526   4.427  11.112   7.497
 5434POPC   NC369527   4.149  18.769   5.271
 5434POPC   PO469528   4.575  19.222   5.380
 5434POPC   GL169529   4.260  19.193   5.734
 5434POPC   GL269530   4.049  18.862   5.781
 5434POPC   C1A69531   4.336  19.136   6.183
 5434POPC   D2A69532   4.416  18.940   6.565
 5434POPC   C3A69533   4.317  19.020   6.991
 5434POPC   C4A69534   4.508  18.631   7.191
 5434POPC   C1B69535   4.027  18.667   6.220
 5434POPC   C2B69536   3.911  18.764   6.658
 5434POPC   C3B69537   4.018  18.624   7.064
 5434POPC   C4B69538   4.127  18.795   7.522
 5435POPC   NC369539  40.866   3.117   5.354
 5435POPC   PO469540  40.447   3.629   5.397
 5435POPC   GL169541  40.555   3.382   5.748
 5435POPC   GL269542  40.910   3.385   5.802
 5435POPC   C1A69543  40.572   3.472   6.222
 5435POPC   D2A69544  40.792   3.768   6.562
 5435POPC   C3A69545  40.775   3.639   6.997
 5435POPC   C4A69546  40.580   3.282   7.102
 5435POPC   C1B69547  41.076   3.450   6.224
 5435POPC   C2B69548  40.887   3.261   6.609
 5435POPC   C3B69549  41.121   3.276   6.955
 5435POPC   C4B69550  41.317   3.632   7.091
 5436POPC   NC369551   9.749  18.277   5.332
 5436POPC   PO469552  10.348  18.153   5.548
 5436POPC   GL169553   9.915  18.099   5.809
 5436POPC   GL269554   9.606  18.360   5.807
 5436POPC   C1A69555   9.800  18.170   6.271
 5436POPC   D2A69556   9.998  18.399   6.631
 5436POPC   C3A69557  10.065  18.150   6.984
 5436POPC   C4A69558   9.799  17.997   7.268
 5436POPC   C1B69559   9.522  18.632   6.175
 5436POPC   C2B69560   9.403  18.469   6.580
 5436POPC   C3B69561   9.576  18.335   6.951
 5436POPC   C4B69562   9.563  18.448   7.377
 5437POPC   NC369563  27.659   3.848   5.339
 5437POPC   PO469564  27.688   3.137   5.445
 5437POPC   GL169565  27.892   3.442   5.789
 5437POPC   GL269566  27.756   3.783   5.824
 5437POPC   C1A69567  27.820   3.458   6.268
 5437POPC   D2A69568  27.638   3.205   6.638
 5437POPC   C3A69569  27.698   3.301   7.065
 5437POPC   C4A69570  27.874   3.663   7.149
 5437POPC   C1B69571  27.374   3.646   6.043
 5437POPC   C2B69572  27.317   3.584   6.484
 5437POPC   C3B69573  27.367   3.665   6.913
 5437POPC   C4B69574  27.196   3.328   7.114
 5438POPC   NC369575  27.939  29.505   5.500
 5438POPC   PO469576  28.383  30.044   5.426
 5438POPC   GL169577  28.484  30.199   5.791
 5438POPC   GL269578  28.126  30.090   5.901
 5438POPC   C1A69579  28.471  30.328   6.189
 5438POPC   D2A69580  28.217  30.152   6.512
 5438POPC   C3A69581  28.477  30.178   6.853
 5438POPC   C4A69582  28.500  30.003   7.243
 5438POPC   C1B69583  28.410  29.804   6.157
 5438POPC   C2B69584  28.449  29.677   6.606
 5438POPC   C3B69585  28.143  29.775   6.924
 5438POPC   C4B69586  28.040  29.747   7.365
 5439POPC   NC369587  15.554  13.641   5.377
 5439POPC   PO469588  14.962  13.719   5.497
 5439POPC   GL169589  15.311  13.823   5.800
 5439POPC   GL269590  15.428  13.498   5.876
 5439POPC   C1A69591  15.407  13.892   6.265
 5439POPC   D2A69592  15.436  13.771   6.725
 5439POPC   C3A69593  15.118  13.645   7.016
 5439POPC   C4A69594  14.991  13.719   7.448
 5439POPC   C1B69595  15.444  13.201   6.262
 5439POPC   C2B69596  15.301  13.218   6.714
 5439POPC   C3B69597  15.433  13.250   7.140
 5439POPC   C4B69598  15.256  13.306   7.580
 5440POPC   NC369599  39.740   1.765   5.376
 5440POPC   PO469600  40.360   2.071   5.504
 5440POPC   GL169601  40.088   1.822   5.748
 5440POPC   GL269602  40.338   1.579   5.750
 5440POPC   C1A69603  39.839   1.954   6.143
 5440POPC   D2A69604  39.924   2.266   6.514
 5440POPC   C3A69605  39.978   2.240   6.982
 5440POPC   C4A69606  40.191   2.332   7.383
 5440POPC   C1B69607  40.165   1.530   6.166
 5440POPC   C2B69608  40.023   1.711   6.556
 5440POPC   C3B69609  40.010   1.736   6.963
 5440POPC   C4B69610  39.910   1.887   7.352
 5441POPC   NC369611  20.241  25.624   5.345
 5441POPC   PO469612  20.686  26.137   5.212
 5441POPC   GL169613  20.555  26.158   5.645
 5441POPC   GL269614  20.846  26.308   5.802
 5441POPC   C1A69615  20.592  25.894   6.029
 5441POPC   D2A69616  20.841  25.914   6.418
 5441POPC   C3A69617  20.677  25.984   6.837
 5441POPC   C4A69618  20.838  26.056   7.241
 5441POPC   C1B69619  20.614  26.359   6.226
 5441POPC   C2B69620  20.450  26.429   6.661
 5441POPC   C3B69621  20.678  26.490   7.058
 5441POPC   C4B69622  20.955  26.534   7.440
 5442POPC   NC369623   5.159  33.292   5.474
 5442POPC   PO469624   5.002  32.651   5.597
 5442POPC   GL169625   5.118  32.951   5.924
 5442POPC   GL269626   5.260  33.294   5.965
 5442POPC   C1A69627   5.155  32.974   6.376
 5442POPC   D2A69628   4.959  33.138   6.742
 5442POPC   C3A69629   5.052  32.832   7.055
 5442POPC   C4A69630   5.371  32.627   7.258
 5442POPC   C1B69631   5.221  33.468   6.400
 5442POPC   C2B69632   5.450  33.292   6.740
 5442POPC   C3B69633   5.312  33.258   7.145
 5442POPC   C4B69634   4.872  33.285   7.229
 5443POPC   NC369635   6.149   5.095   5.100
 5443POPC   PO469636   5.843   4.947   5.612
 5443POPC   GL169637   6.119   4.937   5.903
 5443POPC   GL269638   6.144   4.596   6.001
 5443POPC   C1A69639   6.151   5.189   6.265
 5443POPC   D2A69640   5.878   5.334   6.584
 5443POPC   C3A69641   6.033   5.220   6.966
 5443POPC   C4A69642   5.986   5.374   7.401
 5443POPC   C1B69643   5.823   4.793   6.285
 5443POPC   C2B69644   5.672   4.864   6.681
 5443POPC   C3B69645   5.537   4.784   7.079
 5443POPC   C4B69646   5.916   4.866   7.311
 5444POPC   NC369647  41.137  41.673   5.294
 5444POPC   PO469648  41.706  41.338   5.391
 5444POPC   GL169649  41.618  41.556   5.795
 5444POPC   GL269650  41.313  41.424   5.777
 5444POPC   C1A69651  41.763  41.716   6.215
 5444POPC   D2A69652  41.662  41.587   6.637
 5444POPC   C3A69653  41.680  41.801   7.033
 5444POPC   C4A69654  41.860  41.643   7.427
 5444POPC   C1B69655  41.302  41.526   6.205
 5444POPC   C2B69656  41.199  41.369   6.575
 5444POPC   C3B69657  41.260  41.508   6.994
 5444POPC   C4B69658  41.016  41.674   7.311
 5445POPC   NC369659  24.563  29.642   5.462
 5445POPC   PO469660  24.117  30.137   5.593
 5445POPC   GL169661  24.476  29.982   5.826
 5445POPC   GL269662  24.333  29.666   5.903
 5445POPC   C1A69663  24.694  29.900   6.216
 5445POPC   D2A69664  24.697  29.750   6.623
 5445POPC   C3A69665  24.822  29.983   6.997
 5445POPC   C4A69666  24.769  29.898   7.430
 5445POPC   C1B69667  24.403  29.471   6.265
 5445POPC   C2B69668  24.230  29.420   6.678
 5445POPC   C3B69669  24.486  29.545   7.038
 5445POPC   C4B69670  24.462  29.513   7.479
 5446POPC   NC369671  28.273  18.394   5.457
 5446POPC   PO469672  28.580  17.792   5.430
 5446POPC   GL169673  28.344  17.920   5.841
 5446POPC   GL269674  28.085  18.191   5.901
 5446POPC   C1A69675  28.264  17.975   6.323
 5446POPC   D2A69676  28.014  18.177   6.672
 5446POPC   C3A69677  28.120  18.035   7.082
 5446POPC   C4A69678  28.495  18.053   7.327
 5446POPC   C1B69679  28.023  18.503   6.270
 5446POPC   C2B69680  28.179  18.674   6.709
 5446POPC   C3B69681  28.477  18.460   7.024
 5446POPC   C4B69682  28.881  18.379   7.310
 5447POPC   NC369683   1.359   3.950   5.499
 5447POPC   PO469684   1.028   3.311   5.456
 5447POPC   GL169685   1.109   3.594   5.802
 5447POPC   GL269686   1.402   3.736   5.964
 5447POPC   C1A69687   0.878   3.670   6.168
 5447POPC   D2A69688   0.837   3.471   6.569
 5447POPC   C3A69689   1.049   3.661   6.944
 5447POPC   C4A69690   1.014   3.424   7.297
 5447POPC   C1B69691   1.350   3.509   6.324
 5447POPC   C2B69692   1.553   3.578   6.715
 5447POPC   C3B69693   1.519   3.503   7.143
 5447POPC   C4B69694   1.475   3.338   7.521
 5448POPC   NC369695  19.476  24.459   5.192
 5448POPC   PO469696  20.080  24.270   5.427
 5448POPC   GL169697  19.999  24.198   5.877
 5448POPC   GL269698  19.944  23.847   5.956
 5448POPC   C1A69699  20.116  24.441   6.279
 5448POPC   D2A69700  19.984  24.753   6.596
 5448POPC   C3A69701  20.011  24.682   7.054
 5448POPC   C4A69702  19.632  24.612   7.326
 5448POPC   C1B69703  19.924  23.980   6.400
 5448POPC   C2B69704  19.858  24.238   6.795
 5448POPC   C3B69705  19.724  24.059   7.221
 5448POPC   C4B69706  19.875  23.932   7.670
 5449POPC   NC369707  31.040  11.321   5.195
 5449POPC   PO469708  31.632  11.528   5.500
 5449POPC   GL169709  31.431  11.254   5.804
 5449POPC   GL269710  31.601  11.450   6.028
 5449POPC   C1A69711  31.324  11.027   6.209
 5449POPC   D2A69712  31.046  11.010   6.610
 5449POPC   C3A69713  31.282  11.047   7.000
 5449POPC   C4A69714  31.413  11.366   7.260
 5449POPC   C1B69715  31.428  11.651   6.364
 5449POPC   C2B69716  31.347  11.604   6.783
 5449POPC   C3B69717  31.512  11.830   7.118
 5449POPC   C4B69718  31.452  11.777   7.589
 5450POPC   NC369719  42.892  14.710   5.572
 5450POPC   PO469720  43.054  14.085   5.482
 5450POPC   GL169721  43.013  14.275   5.855
 5450POPC   GL269722  43.250  14.547   5.891
 5450POPC   C1A69723  42.980  14.306   6.289
 5450POPC   D2A69724  43.139  14.076   6.601
 5450POPC   C3A69725  42.982  14.244   6.961
 5450POPC   C4A69726  43.202  14.150   7.334
 5450POPC   C1B69727  43.429  14.583   6.289
 5450POPC   C2B69728  43.234  14.616   6.681
 5450POPC   C3B69729  43.383  14.526   7.069
 5450POPC   C4B69730  43.397  14.571   7.556
 5451POPC   NC369731  21.171  16.293   5.164
 5451POPC   PO469732  21.267  15.705   5.353
 5451POPC   GL169733  21.376  15.898   5.712
 5451POPC   GL269734  21.259  16.246   5.697
 5451POPC   C1A69735  21.540  16.012   6.106
 5451POPC   D2A69736  21.616  16.211   6.494
 5451POPC   C3A69737  21.470  15.997   6.845
 5451POPC   C4A69738  21.563  15.842   7.254
 5451POPC   C1B69739  21.060  16.126   6.094
 5451POPC   C2B69740  21.096  16.271   6.533
 5451POPC   C3B69741  20.991  16.160   6.980
 5451POPC   C4B69742  21.041  16.016   7.439
 5452POPC   NC369743  29.977  26.738   5.615
 5452POPC   PO469744  29.404  27.137   5.355
 5452POPC   GL169745  29.631  27.139   5.817
 5452POPC   GL269746  29.718  26.819   6.023
 5452POPC   C1A69747  29.637  27.209   6.308
 5452POPC   D2A69748  29.685  26.843   6.570
 5452POPC   C3A69749  29.662  26.925   6.994
 5452POPC   C4A69750  29.675  26.728   7.381
 5452POPC   C1B69751  30.104  26.978   6.276
 5452POPC   C2B69752  30.124  27.108   6.731
 5452POPC   C3B69753  30.139  26.840   7.103
 5452POPC   C4B69754  30.408  26.752   7.381
 5453POPC   NC369755  42.301  36.717   5.118
 5453POPC   PO469756  42.370  36.084   5.404
 5453POPC   GL169757  42.266  36.071   5.789
 5453POPC   GL269758  42.617  36.060   5.852
 5453POPC   C1A69759  42.083  36.252   6.157
 5453POPC   D2A69760  42.188  36.031   6.478
 5453POPC   C3A69761  42.236  36.168   6.876
 5453POPC   C4A69762  42.099  36.012   7.261
 5453POPC   C1B69763  42.570  36.233   6.219
 5453POPC   C2B69764  42.677  36.063   6.594
 5453POPC   C3B69765  42.752  36.199   6.952
 5453POPC   C4B69766  42.555  36.243   7.279
 5454POPC   NC369767  39.848  12.130   5.246
 5454POPC   PO469768  40.394  11.776   5.348
 5454POPC   GL169769  40.214  11.845   5.756
 5454POPC   GL269770  40.288  12.205   5.789
 5454POPC   C1A69771  40.079  11.837   6.221
 5454POPC   D2A69772  40.005  11.776   6.675
 5454POPC   C3A69773  40.270  11.952   6.977
 5454POPC   C4A69774  40.276  11.872   7.450
 5454POPC   C1B69775  40.164  12.347   6.210
 5454POPC   C2B69776  39.821  12.262   6.523
 5454POPC   C3B69777  39.775  12.163   6.971
 5454POPC   C4B69778  40.119  12.339   7.252
 5455POPC   NC369779   3.938  30.083   5.678
 5455POPC   PO469780   3.338  29.869   5.558
 5455POPC   GL169781   3.534  29.897   5.927
 5455POPC   GL269782   3.764  29.645   5.955
 5455POPC   C1A69783   3.499  30.022   6.332
 5455POPC   D2A69784   3.323  29.870   6.690
 5455POPC   C3A69785   3.460  30.088   7.052
 5455POPC   C4A69786   3.311  30.155   7.478
 5455POPC   C1B69787   3.952  29.758   6.363
 5455POPC   C2B69788   3.879  29.820   6.842
 5455POPC   C3B69789   3.744  29.768   7.319
 5455POPC   C4B69790   3.883  29.636   7.771
 5456POPC   NC369791   8.898   1.662   5.165
 5456POPC   PO469792   9.227   1.127   5.407
 5456POPC   GL169793   8.931   1.130   5.767
 5456POPC   GL269794   8.552   1.098   5.719
 5456POPC   C1A69795   8.950   1.227   6.204
 5456POPC   D2A69796   8.659   1.244   6.538
 5456POPC   C3A69797   8.873   1.325   6.938
 5456POPC   C4A69798   9.210   1.049   7.071
 5456POPC   C1B69799   8.504   0.898   6.123
 5456POPC   C2B69800   8.269   0.865   6.521
 5456POPC   C3B69801   8.354   1.057   6.897
 5456POPC   C4B69802   8.552   1.099   7.260
 5457POPC   NC369803  30.566   5.553   5.299
 5457POPC   PO469804  31.166   5.875   5.282
 5457POPC   GL169805  30.894   5.768   5.661
 5457POPC   GL269806  30.548   5.922   5.750
 5457POPC   C1A69807  30.708   5.536   6.037
 5457POPC   D2A69808  30.584   5.732   6.443
 5457POPC   C3A69809  30.788   5.680   6.846
 5457POPC   C4A69810  30.587   5.898   7.182
 5457POPC   C1B69811  30.871   6.011   6.110
 5457POPC   C2B69812  30.944   6.126   6.570
 5457POPC   C3B69813  30.922   6.249   7.014
 5457POPC   C4B69814  30.841   6.241   7.461
 5458POPC   NC369815   9.990  32.523   5.257
 5458POPC   PO469816   9.742  33.204   5.301
 5458POPC   GL169817   9.753  33.047   5.757
 5458POPC   GL269818   9.633  32.693   5.661
 5458POPC   C1A69819   9.786  33.261   6.200
 5458POPC   D2A69820   9.905  33.079   6.594
 5458POPC   C3A69821   9.863  33.313   6.946
 5458POPC   C4A69822   9.784  33.098   7.307
 5458POPC   C1B69823   9.498  32.661   6.098
 5458POPC   C2B69824   9.600  32.554   6.535
 5458POPC   C3B69825   9.593  32.757   6.908
 5458POPC   C4B69826   9.358  32.735   7.261
 5459POPC   NC369827  10.350  42.647   5.572
 5459POPC   PO469828  10.755  42.123   5.374
 5459POPC   GL169829  10.565  42.243   5.783
 5459POPC   GL269830  10.708  42.569   5.949
 5459POPC   C1A69831  10.510  42.170   6.226
 5459POPC   D2A69832  10.827  42.243   6.556
 5459POPC   C3A69833  10.634  42.331   6.946
 5459POPC   C4A69834  10.449  42.032   7.271
 5459POPC   C1B69835  10.529  42.656   6.381
 5459POPC   C2B69836  10.333  42.811   6.772
 5459POPC   C3B69837  10.257  42.592   7.150
 5459POPC   C4B69838  10.535  42.504   7.445
 5460POPC   NC369839  35.475   1.527   5.369
 5460POPC   PO469840  35.138   1.032   5.537
 5460POPC   GL169841  35.329   1.152   5.870
 5460POPC   GL269842  35.344   1.490   5.852
 5460POPC   C1A69843  35.327   1.131   6.300
 5460POPC   D2A69844  35.268   0.886   6.638
 5460POPC   C3A69845  35.285   1.119   7.012
 5460POPC   C4A69846  35.271   0.979   7.466
 5460POPC   C1B69847  35.699   1.439   6.122
 5460POPC   C2B69848  35.586   1.519   6.541
 5460POPC   C3B69849  35.636   1.480   6.957
 5460POPC   C4B69850  35.467   1.450   7.372
 5461POPC   NC369851  19.791  29.088   5.440
 5461POPC   PO469852  19.610  29.756   5.335
 5461POPC   GL169853  19.660  29.453   5.765
 5461POPC   GL269854  19.605  29.076   5.893
 5461POPC   C1A69855  19.984  29.305   6.116
 5461POPC   D2A69856  20.227  29.195   6.508
 5461POPC   C3A69857  20.081  29.283   6.937
 5461POPC   C4A69858  20.143  29.007   7.286
 5461POPC   C1B69859  19.573  29.050   6.300
 5461POPC   C2B69860  19.637  29.227   6.682
 5461POPC   C3B69861  19.570  29.329   7.101
 5461POPC   C4B69862  19.626  28.938   7.306
 5462POPC   NC369863  17.760  10.255   5.412
 5462POPC   PO469864  17.242  10.669   5.520
 5462POPC   GL169865  17.517  10.581   5.820
 5462POPC   GL269866  17.491  10.234   5.889
 5462POPC   C1A69867  17.437  10.621   6.265
 5462POPC   D2A69868  17.582  10.528   6.675
 5462POPC   C3A69869  17.356  10.613   7.039
 5462POPC   C4A69870  17.263  11.007   7.203
 5462POPC   C1B69871  17.869  10.358   6.148
 5462POPC   C2B69872  18.066  10.437   6.573
 5462POPC   C3B69873  17.939  10.417   7.042
 5462POPC   C4B69874  17.590  10.251   7.322
 5463POPC   NC369875   7.614  11.988   5.338
 5463POPC   PO469876   6.999  11.985   5.474
 5463POPC   GL169877   7.386  11.864   5.790
 5463POPC   GL269878   7.647  12.160   5.817
 5463POPC   C1A69879   7.506  11.943   6.256
 5463POPC   D2A69880   7.495  12.337   6.532
 5463POPC   C3A69881   7.404  12.254   6.956
 5463POPC   C4A69882   7.286  11.873   7.165
 5463POPC   C1B69883   7.840  12.446   6.147
 5463POPC   C2B69884   7.900  12.638   6.595
 5463POPC   C3B69885   7.885  12.364   6.974
 5463POPC   C4B69886   7.700  12.113   7.351
 5464POPC   NC369887  32.380   5.907   5.084
 5464POPC   PO469888  32.943   5.773   5.487
 5464POPC   GL169889  32.948   5.970   5.887
 5464POPC   GL269890  32.636   6.134   5.898
 5464POPC   C1A69891  33.057   5.808   6.270
 5464POPC   D2A69892  32.920   5.559   6.591
 5464POPC   C3A69893  33.032   5.796   6.943
 5464POPC   C4A69894  33.239   5.910   7.285
 5464POPC   C1B69895  32.797   6.256   6.331
 5464POPC   C2B69896  32.863   6.369   6.720
 5464POPC   C3B69897  32.803   6.256   7.107
 5464POPC   C4B69898  32.790   6.087   7.471
 5465POPC   NC369899   1.394  31.764   5.417
 5465POPC   PO469900   2.040  31.367   5.419
 5465POPC   GL169901   1.873  31.395   5.813
 5465POPC   GL269902   1.781  31.746   5.751
 5465POPC   C1A69903   1.966  31.312   6.254
 5465POPC   D2A69904   2.227  31.389   6.618
 5465POPC   C3A69905   2.010  31.207   6.974
 5465POPC   C4A69906   1.663  31.356   7.222
 5465POPC   C1B69907   2.039  31.795   6.092
 5465POPC   C2B69908   1.904  31.767   6.507
 5465POPC   C3B69909   1.962  31.714   6.929
 5465POPC   C4B69910   2.330  31.816   7.142
 5466POPC   NC369911   7.123  11.093   5.323
 5466POPC   PO469912   7.538  11.526   5.311
 5466POPC   GL169913   7.410  11.331   5.718
 5466POPC   GL269914   7.511  10.978   5.665
 5466POPC   C1A69915   7.245  11.435   6.155
 5466POPC   D2A69916   6.992  11.268   6.499
 5466POPC   C3A69917   7.178  11.475   6.826
 5466POPC   C4A69918   7.100  11.413   7.235
 5466POPC   C1B69919   7.564  11.014   6.119
 5466POPC   C2B69920   7.457  11.101   6.553
 5466POPC   C3B69921   7.363  11.031   6.991
 5466POPC   C4B69922   7.566  11.100   7.382
 5467POPC   NC369923  33.377  35.531   5.315
 5467POPC   PO469924  32.935  35.083   5.235
 5467POPC   GL169925  33.076  35.238   5.653
 5467POPC   GL269926  33.228  34.960   5.803
 5467POPC   C1A69927  33.133  35.484   6.065
 5467POPC   D2A69928  33.246  35.671   6.505
 5467POPC   C3A69929  33.127  35.573   6.960
 5467POPC   C4A69930  32.989  35.494   7.437
 5467POPC   C1B69931  33.252  34.995   6.242
 5467POPC   C2B69932  32.962  35.215   6.492
 5467POPC   C3B69933  32.840  35.154   6.895
 5467POPC   C4B69934  33.193  35.102   7.175
 5468POPC   NC369935  33.601  20.290   5.337
 5468POPC   PO469936  33.938  20.807   5.120
 5468POPC   GL169937  33.751  20.772   5.578
 5468POPC   GL269938  33.916  20.501   5.765
 5468POPC   C1A69939  33.661  20.891   6.035
 5468POPC   D2A69940  33.577  21.025   6.498
 5468POPC   C3A69941  33.625  20.816   6.937
 5468POPC   C4A69942  33.533  21.037   7.343
 5468POPC   C1B69943  34.133  20.707   6.109
 5468POPC   C2B69944  34.290  20.800   6.486
 5468POPC   C3B69945  34.357  20.776   6.872
 5468POPC   C4B69946  34.114  20.634   7.159
 5469POPC   NC369947   8.054  28.472   5.479
 5469POPC   PO469948   8.359  27.877   5.304
 5469POPC   GL169949   8.375  28.070   5.719
 5469POPC   GL269950   8.537  28.387   5.701
 5469POPC   C1A69951   8.235  28.144   6.189
 5469POPC   D2A69952   8.145  27.942   6.644
 5469POPC   C3A69953   8.319  28.207   7.015
 5469POPC   C4A69954   8.139  28.561   7.270
 5469POPC   C1B69955   8.577  28.578   6.114
 5469POPC   C2B69956   8.637  28.506   6.550
 5469POPC   C3B69957   8.582  28.699   6.967
 5469POPC   C4B69958   8.634  28.534   7.377
 5470POPC   NC369959  18.632  26.289   5.354
 5470POPC   PO469960  18.870  25.767   5.492
 5470POPC   GL169961  19.059  26.143   5.750
 5470POPC   GL269962  19.125  25.880   5.966
 5470POPC   C1A69963  19.136  26.348   6.198
 5470POPC   D2A69964  18.824  26.383   6.604
 5470POPC   C3A69965  18.884  26.271   7.105
 5470POPC   C4A69966  19.015  26.062   7.538
 5470POPC   C1B69967  19.005  25.898   6.404
 5470POPC   C2B69968  19.173  25.972   6.811
 5470POPC   C3B69969  19.182  25.715   7.186
 5470POPC   C4B69970  18.855  25.556   7.478
 5471POPC   NC369971  39.695  25.785   5.539
 5471POPC   PO469972  40.047  26.297   5.258
 5471POPC   GL169973  39.959  26.236   5.759
 5471POPC   GL269974  39.598  26.183   5.864
 5471POPC   C1A69975  40.184  26.110   6.218
 5471POPC   D2A69976  40.456  26.211   6.633
 5471POPC   C3A69977  40.240  26.083   7.042
 5471POPC   C4A69978  39.828  25.818   7.063
 5471POPC   C1B69979  39.737  26.363   6.274
 5471POPC   C2B69980  39.929  26.319   6.681
 5471POPC   C3B69981  39.740  26.331   7.106
 5471POPC   C4B69982  39.867  26.398   7.532
 5472POPC   NC369983   2.935  17.030   5.437
 5472POPC   PO469984   2.409  16.782   5.690
 5472POPC   GL169985   2.805  16.673   5.875
 5472POPC   GL269986   2.944  16.980   5.926
 5472POPC   C1A69987   3.017  16.556   6.292
 5472POPC   D2A69988   2.975  16.388   6.732
 5472POPC   C3A69989   2.599  16.539   6.949
 5472POPC   C4A69990   2.622  16.799   7.316
 5472POPC   C1B69991   2.777  17.049   6.292
 5472POPC   C2B69992   2.999  17.125   6.649
 5472POPC   C3B69993   3.027  16.897   7.018
 5472POPC   C4B69994   3.110  16.910   7.452
 5473POPC   NC369995  15.548  34.648   5.399
 5473POPC   PO469996  16.078  34.925   5.329
 5473POPC   GL169997  15.893  34.867   5.771
 5473POPC   GL269998  15.549  34.842   5.874
 5473POPC   C1A69999  15.825  34.647   6.252
 5473POPC   D2A70000  15.642  34.441   6.671
 5473POPC   C3A70001  15.862  34.381   7.098
 5473POPC   C4A70002  15.950  34.424   7.568
 5473POPC   C1B70003  15.806  35.147   6.174
 5473POPC   C2B70004  15.739  35.241   6.613
 5473POPC   C3B70005  15.788  34.885   6.929
 5473POPC   C4B70006  16.134  34.794   7.246
 5474POPC   NC370007  10.066  26.385   5.448
 5474POPC   PO470008   9.695  26.979   5.361
 5474POPC   GL170009   9.563  26.841   5.775
 5474POPC   GL270010   9.618  26.492   5.697
 5474POPC   C1A70011   9.536  26.765   6.233
 5474POPC   D2A70012   9.748  26.906   6.637
 5474POPC   C3A70013   9.639  26.873   7.098
 5474POPC   C4A70014   9.572  27.130   7.513
 5474POPC   C1B70015   9.884  26.413   6.059
 5474POPC   C2B70016   9.811  26.411   6.478
 5474POPC   C3B70017   9.724  26.369   6.905
 5474POPC   C4B70018   9.945  26.402   7.288
 5475POPC   NC370019  16.257  42.616   5.284
 5475POPC   PO470020  15.630  42.401   5.318
 5475POPC   GL170021  16.002  42.273   5.588
 5475POPC   GL270022  16.168  42.523   5.773
 5475POPC   C1A70023  16.049  42.057   6.012
 5475POPC   D2A70024  15.855  41.931   6.437
 5475POPC   C3A70025  15.997  42.215   6.784
 5475POPC   C4A70026  15.871  42.502   7.106
 5475POPC   C1B70027  16.279  42.647   6.179
 5475POPC   C2B70028  16.479  42.745   6.551
 5475POPC   C3B70029  16.325  42.755   6.953
 5475POPC   C4B70030  16.177  42.803   7.356
 5476POPC   NC370031   7.816  26.933   5.124
 5476POPC   PO470032   8.006  26.332   5.344
 5476POPC   GL170033   8.065  26.621   5.702
 5476POPC   GL270034   8.081  26.995   5.658
 5476POPC   C1A70035   8.010  26.524   6.144
 5476POPC   D2A70036   8.316  26.473   6.456
 5476POPC   C3A70037   8.266  26.474   6.899
 5476POPC   C4A70038   8.271  26.753   7.242
 5476POPC   C1B70039   8.064  27.044   6.125
 5476POPC   C2B70040   7.869  26.887   6.528
 5476POPC   C3B70041   7.889  27.026   6.970
 5476POPC   C4B70042   8.185  27.258   7.258
 5477POPC   NC370043  40.772   2.353   5.453
 5477POPC   PO470044  40.410   2.894   5.400
 5477POPC   GL170045  40.701   2.875   5.763
 5477POPC   GL270046  40.904   2.568   5.894
 5477POPC   C1A70047  40.867   2.987   6.166
 5477POPC   D2A70048  40.910   2.677   6.496
 5477POPC   C3A70049  40.742   2.817   6.886
 5477POPC   C4A70050  40.931   2.948   7.272
 5477POPC   C1B70051  40.527   2.593   6.145
 5477POPC   C2B70052  40.412   2.453   6.553
 5477POPC   C3B70053  40.507   2.317   6.966
 5477POPC   C4B70054  40.654   2.533   7.316
 5478POPC   NC370055   7.026   0.503   5.077
 5478POPC   PO470056   6.522   0.792   5.499
 5478POPC   GL170057   6.547   0.584   5.881
 5478POPC   GL270058   6.348   0.280   5.843
 5478POPC   C1A70059   6.705   0.736   6.261
 5478POPC   D2A70060   6.488   0.753   6.658
 5478POPC   C3A70061   6.761   0.716   6.991
 5478POPC   C4A70062   6.687   0.658   7.397
 5478POPC   C1B70063   6.369   0.349   6.308
 5478POPC   C2B70064   6.334   0.224   6.742
 5478POPC   C3B70065   6.325   0.416   7.134
 5478POPC   C4B70066   6.269   0.221   7.537
 5479POPC   NC370067  39.206  10.141   5.443
 5479POPC   PO470068  38.848  10.658   5.566
 5479POPC   GL170069  39.302  10.671   5.727
 5479POPC   GL270070  39.327  10.366   5.879
 5479POPC   C1A70071  39.483  10.762   6.173
 5479POPC   D2A70072  39.597  10.664   6.645
 5479POPC   C3A70073  39.250  10.660   7.013
 5479POPC   C4A70074  38.883  10.546   7.311
 5479POPC   C1B70075  39.554  10.254   6.240
 5479POPC   C2B70076  39.429  10.064   6.618
 5479POPC   C3B70077  39.385  10.130   7.066
 5479POPC   C4B70078  39.191   9.907   7.438
 5480POPC   NC370079  31.658  32.592   5.686
 5480POPC   PO470080  31.512  33.055   5.187
 5480POPC   GL170081  31.457  33.084   5.702
 5480POPC   GL270082  31.228  32.926   5.837
 5480POPC   C1A70083  31.512  33.221   6.197
 5480POPC   D2A70084  31.528  33.460   6.624
 5480POPC   C3A70085  31.576  33.201   6.998
 5480POPC   C4A70086  31.417  32.862   7.193
 5480POPC   C1B70087  31.072  33.345   5.996
 5480POPC   C2B70088  31.050  33.364   6.459
 5480POPC   C3B70089  31.066  33.223   6.897
 5480POPC   C4B70090  31.182  33.363   7.300
 5481POPC   NC370091  34.939  34.672   5.327
 5481POPC   PO470092  34.380  34.217   5.274
 5481POPC   GL170093  34.454  34.546   5.621
 5481POPC   GL270094  34.414  34.315   5.885
 5481POPC   C1A70095  34.474  34.763   6.080
 5481POPC   D2A70096  34.347  34.592   6.508
 5481POPC   C3A70097  34.564  34.736   6.880
 5481POPC   C4A70098  34.430  34.847   7.293
 5481POPC   C1B70099  34.722  34.294   6.283
 5481POPC   C2B70100  34.809  34.278   6.762
 5481POPC   C3B70101  34.726  34.431   7.237
 5481POPC   C4B70102  34.370  34.358   7.519
 5482POPC   NC370103  23.039  36.128   5.423
 5482POPC   PO470104  23.020  36.767   5.433
 5482POPC   GL170105  22.766  36.550   5.826
 5482POPC   GL270106  22.859  36.176   5.913
 5482POPC   C1A70107  22.680  36.429   6.294
 5482POPC   D2A70108  22.958  36.190   6.598
 5482POPC   C3A70109  22.913  36.258   7.053
 5482POPC   C4A70110  22.708  36.111   7.414
 5482POPC   C1B70111  22.660  35.913   6.291
 5482POPC   C2B70112  22.696  35.763   6.769
 5482POPC   C3B70113  22.884  35.674   7.206
 5482POPC   C4B70114  22.869  35.690   7.684
 5483POPC   NC370115  34.797  19.724   5.257
 5483POPC   PO470116  34.282  20.252   5.463
 5483POPC   GL170117  34.636  20.003   5.697
 5483POPC   GL270118  34.561  19.705   5.855
 5483POPC   C1A70119  34.888  20.025   6.112
 5483POPC   D2A70120  34.953  20.217   6.555
 5483POPC   C3A70121  35.017  19.943   6.977
 5483POPC   C4A70122  34.815  19.877   7.397
 5483POPC   C1B70123  34.438  19.834   6.274
 5483POPC   C2B70124  34.601  19.854   6.686
 5483POPC   C3B70125  34.487  19.662   7.075
 5483POPC   C4B70126  34.470  19.492   7.508
 5484POPC   NC370127  29.119  37.498   5.465
 5484POPC   PO470128  29.011  38.169   5.352
 5484POPC   GL170129  29.176  37.927   5.744
 5484POPC   GL270130  29.428  38.114   5.803
 5484POPC   C1A70131  29.215  37.625   6.149
 5484POPC   D2A70132  29.052  37.572   6.614
 5484POPC   C3A70133  29.221  37.304   6.992
 5484POPC   C4A70134  29.153  37.396   7.470
 5484POPC   C1B70135  29.258  38.136   6.222
 5484POPC   C2B70136  29.371  38.032   6.656
 5484POPC   C3B70137  29.443  37.756   7.010
 5484POPC   C4B70138  29.463  37.792   7.464
 5485POPC   NC370139  32.062  38.761   5.271
 5485POPC   PO470140  32.216  38.186   5.393
 5485POPC   GL170141  32.130  38.364   5.797
 5485POPC   GL270142  32.466  38.435   5.862
 5485POPC   C1A70143  32.096  38.557   6.225
 5485POPC   D2A70144  32.187  38.672   6.656
 5485POPC   C3A70145  32.028  38.479   7.044
 5485POPC   C4A70146  31.711  38.277   7.307
 5485POPC   C1B70147  32.582  38.659   6.243
 5485POPC   C2B70148  32.679  38.782   6.689
 5485POPC   C3B70149  32.519  38.636   7.131
 5485POPC   C4B70150  32.555  38.523   7.606
 5486POPC   NC370151  14.799  33.881   5.490
 5486POPC   PO470152  14.138  33.579   5.317
 5486POPC   GL170153  14.334  33.814   5.673
 5486POPC   GL270154  14.557  33.611   5.901
 5486POPC   C1A70155  14.423  34.068   6.059
 5486POPC   D2A70156  14.173  34.144   6.461
 5486POPC   C3A70157  14.249  33.921   6.868
 5486POPC   C4A70158  14.029  33.964   7.259
 5486POPC   C1B70159  14.484  33.658   6.357
 5486POPC   C2B70160  14.741  33.784   6.692
 5486POPC   C3B70161  14.688  33.726   7.129
 5486POPC   C4B70162  14.663  34.002   7.504
 5487POPC   NC370163   5.274  35.139   5.408
 5487POPC   PO470164   5.111  34.501   5.450
 5487POPC   GL170165   5.242  34.384   5.876
 5487POPC   GL270166   5.525  34.634   5.813
 5487POPC   C1A70167   5.136  34.425   6.353
 5487POPC   D2A70168   5.244  34.481   6.798
 5487POPC   C3A70169   4.947  34.633   7.158
 5487POPC   C4A70170   4.847  35.045   7.380
 5487POPC   C1B70171   5.633  34.469   6.210
 5487POPC   C2B70172   5.710  34.224   6.558
 5487POPC   C3B70173   5.629  34.202   6.984
 5487POPC   C4B70174   5.426  34.469   7.275
 5488POPC   NC370175   9.622  44.197   5.433
 5488POPC   PO470176  10.033  43.770   5.156
 5488POPC   GL170177   9.893  43.726   5.653
 5488POPC   GL270178   9.990  43.400   5.728
 5488POPC   C1A70179   9.660  43.903   6.089
 5488POPC   D2A70180   9.324  43.906   6.457
 5488POPC   C3A70181   9.436  43.791   6.902
 5488POPC   C4A70182   9.620  44.008   7.267
 5488POPC   C1B70183  10.101  43.639   6.126
 5488POPC   C2B70184   9.987  43.907   6.492
 5488POPC   C3B70185   9.947  43.781   6.902
 5488POPC   C4B70186   9.871  43.581   7.289
 5489POPC   NC370187   4.642  26.107   5.141
 5489POPC   PO470188   3.962  25.995   5.341
 5489POPC   GL170189   4.194  26.107   5.738
 5489POPC   GL270190   4.090  26.417   5.919
 5489POPC   C1A70191   4.476  26.041   6.117
 5489POPC   D2A70192   4.414  25.782   6.485
 5489POPC   C3A70193   4.528  25.866   6.928
 5489POPC   C4A70194   4.501  26.156   7.241
 5489POPC   C1B70195   4.051  26.228   6.310
 5489POPC   C2B70196   4.146  26.151   6.723
 5489POPC   C3B70197   4.021  26.110   7.128
 5489POPC   C4B70198   3.918  26.449   7.340
 5490POPC   NC370199  18.353  21.466   5.299
 5490POPC   PO470200  17.796  21.187   5.563
 5490POPC   GL170201  18.015  21.189   5.910
 5490POPC   GL270202  18.309  21.378   5.889
 5490POPC   C1A70203  17.998  21.270   6.323
 5490POPC   D2A70204  18.175  21.145   6.698
 5490POPC   C3A70205  18.279  21.408   7.020
 5490POPC   C4A70206  18.344  21.442   7.457
 5490POPC   C1B70207  18.344  21.652   6.290
 5490POPC   C2B70208  18.497  21.800   6.714
 5490POPC   C3B70209  18.483  21.862   7.195
 5490POPC   C4B70210  18.485  21.918   7.671
 5491POPC   NC370211  34.449  36.627   5.313
 5491POPC   PO470212  34.770  35.952   5.382
 5491POPC   GL170213  34.491  36.208   5.628
 5491POPC   GL270214  34.219  36.026   5.853
 5491POPC   C1A70215  34.600  36.314   6.014
 5491POPC   D2A70216  34.458  36.205   6.384
 5491POPC   C3A70217  34.508  36.419   6.752
 5491POPC   C4A70218  34.344  36.406   7.147
 5491POPC   C1B70219  34.589  35.804   6.073
 5491POPC   C2B70220  34.767  35.792   6.496
 5491POPC   C3B70221  34.568  35.824   6.905
 5491POPC   C4B70222  34.807  35.766   7.270
 5492POPC   NC370223  24.373  17.083   5.537
 5492POPC   PO470224  24.788  16.596   5.566
 5492POPC   GL170225  24.555  16.716   5.905
 5492POPC   GL270226  24.190  16.702   5.868
 5492POPC   C1A70227  24.729  16.593   6.292
 5492POPC   D2A70228  24.773  16.726   6.671
 5492POPC   C3A70229  24.605  16.552   6.992
 5492POPC   C4A70230  24.311  16.730   7.194
 5492POPC   C1B70231  24.271  16.796   6.329
 5492POPC   C2B70232  24.355  17.029   6.717
 5492POPC   C3B70233  24.200  17.216   7.107
 5492POPC   C4B70234  24.001  16.978   7.510
 5493POPC   NC370235  37.340  39.316   5.497
 5493POPC   PO470236  37.977  39.047   5.406
 5493POPC   GL170237  37.841  39.379   5.737
 5493POPC   GL270238  37.507  39.539   5.899
 5493POPC   C1A70239  37.828  39.283   6.199
 5493POPC   D2A70240  37.647  39.032   6.534
 5493POPC   C3A70241  37.780  38.979   6.955
 5493POPC   C4A70242  37.967  39.275   7.179
 5493POPC   C1B70243  37.289  39.259   6.218
 5493POPC   C2B70244  37.155  39.102   6.637
 5493POPC   C3B70245  37.375  39.304   6.953
 5493POPC   C4B70246  37.269  39.350   7.349
 5494POPC   NC370247  15.975   4.726   5.158
 5494POPC   PO470248  16.304   4.219   5.297
 5494POPC   GL170249  16.091   4.138   5.723
 5494POPC   GL270250  15.718   4.109   5.813
 5494POPC   C1A70251  16.110   4.316   6.158
 5494POPC   D2A70252  16.306   4.306   6.574
 5494POPC   C3A70253  16.168   4.047   6.910
 5494POPC   C4A70254  16.146   4.240   7.318
 5494POPC   C1B70255  15.612   4.362   6.197
 5494POPC   C2B70256  15.775   4.181   6.588
 5494POPC   C3B70257  15.700   4.220   7.022
 5494POPC   C4B70258  15.575   4.661   7.089
 5495POPC   NC370259  31.678  18.827   5.349
 5495POPC   PO470260  31.971  19.179   5.508
 5495POPC   GL170261  31.736  18.931   5.872
 5495POPC   GL270262  31.363  18.977   5.925
 5495POPC   C1A70263  31.650  18.897   6.340
 5495POPC   D2A70264  31.463  19.029   6.750
 5495POPC   C3A70265  31.699  18.908   7.136
 5495POPC   C4A70266  31.762  18.685   7.519
 5495POPC   C1B70267  31.230  19.247   6.298
 5495POPC   C2B70268  31.006  19.305   6.705
 5495POPC   C3B70269  30.949  19.102   7.121
 5495POPC   C4B70270  30.878  18.860   7.515
 5496POPC   NC370271  15.789  31.193   5.386
 5496POPC   PO470272  15.655  31.825   5.326
 5496POPC   GL170273  15.696  31.602   5.760
 5496POPC   GL270274  15.949  31.334   5.848
 5496POPC   C1A70275  15.625  31.447   6.220
 5496POPC   D2A70276  15.739  31.664   6.597
 5496POPC   C3A70277  15.847  31.551   7.009
 5496POPC   C4A70278  16.152  31.634   7.347
 5496POPC   C1B70279  16.132  31.475   6.257
 5496POPC   C2B70280  16.244  31.382   6.688
 5496POPC   C3B70281  16.175  31.151   7.088
 5496POPC   C4B70282  16.264  31.133   7.556
 5497POPC   NC370283   6.647  11.735   5.344
 5497POPC   PO470284   6.647  11.077   5.247
 5497POPC   GL170285   6.802  11.290   5.682
 5497POPC   GL270286   6.973  11.086   5.945
 5497POPC   C1A70287   6.690  11.446   6.129
 5497POPC   D2A70288   6.530  11.491   6.601
 5497POPC   C3A70289   6.548  11.330   7.068
 5497POPC   C4A70290   6.685  11.391   7.515
 5497POPC   C1B70291   6.634  10.965   6.277
 5497POPC   C2B70292   6.622  10.957   6.731
 5497POPC   C3B70293   6.882  10.949   7.143
 5497POPC   C4B70294   6.768  10.911   7.603
 5498POPC   NC370295  41.578  24.041   5.191
 5498POPC   PO470296  41.416  24.710   5.387
 5498POPC   GL170297  41.500  24.669   5.812
 5498POPC   GL270298  41.855  24.700   5.820
 5498POPC   C1A70299  41.333  24.592   6.225
 5498POPC   D2A70300  41.365  24.832   6.610
 5498POPC   C3A70301  41.511  24.662   6.983
 5498POPC   C4A70302  41.434  24.372   7.310
 5498POPC   C1B70303  41.854  24.526   6.210
 5498POPC   C2B70304  41.665  24.364   6.558
 5498POPC   C3B70305  41.937  24.364   6.859
 5498POPC   C4B70306  41.958  24.503   7.221
 5499POPC   NC370307  30.970  44.798   5.504
 5499POPC   PO470308  30.800  44.189   5.447
 5499POPC   GL170309  30.646  44.468   5.814
 5499POPC   GL270310  30.573  44.813   5.889
 5499POPC   C1A70311  30.710  44.494   6.272
 5499POPC   D2A70312  30.761  44.283   6.645
 5499POPC   C3A70313  30.717  44.511   6.997
 5499POPC   C4A70314  30.954  44.505   7.367
 5499POPC   C1B70315  30.701   0.010   6.273
 5499POPC   C2B70316  30.933  44.842   6.617
 5499POPC   C3B70317  31.011  44.921   7.067
 5499POPC   C4B70318  30.577  44.933   7.254
 5500POPC   NC370319  23.970   3.935   5.115
 5500POPC   PO470320  23.465   4.298   5.144
 5500POPC   GL170321  23.483   4.191   5.603
 5500POPC   GL270322  23.820   4.308   5.687
 5500POPC   C1A70323  23.458   4.143   6.075
 5500POPC   D2A70324  23.279   4.242   6.489
 5500POPC   C3A70325  23.507   4.148   6.869
 5500POPC   C4A70326  23.587   4.277   7.268
 5500POPC   C1B70327  24.063   4.286   6.093
 5500POPC   C2B70328  23.905   4.209   6.534
 5500POPC   C3B70329  24.016   4.225   6.991
 5500POPC   C4B70330  24.022   4.539   7.391
 5501POPC   NC370331  11.515   2.832   5.371
 5501POPC   PO470332  10.934   2.739   5.612
 5501POPC   GL170333  11.208   2.796   5.926
 5501POPC   GL270334  11.508   2.612   5.836
 5501POPC   C1A70335  11.135   2.552   6.302
 5501POPC   D2A70336  10.904   2.542   6.688
 5501POPC   C3A70337  11.038   2.866   6.955
 5501POPC   C4A70338  11.173   2.788   7.377
 5501POPC   C1B70339  11.612   2.761   6.255
 5501POPC   C2B70340  11.488   2.664   6.682
 5501POPC   C3B70341  11.572   2.755   7.096
 5501POPC   C4B70342  11.563   3.138   7.423
 5502POPC   NC370343  17.742  10.980   5.416
 5502POPC   PO470344  17.260  11.372   5.354
 5502POPC   GL170345  17.418  11.461   5.740
 5502POPC   GL270346  17.395  11.091   5.832
 5502POPC   C1A70347  17.521  11.462   6.170
 5502POPC   D2A70348  17.382  11.137   6.412
 5502POPC   C3A70349  17.460  11.258   6.807
 5502POPC   C4A70350  17.380  11.520   7.162
 5502POPC   C1B70351  17.760  10.987   6.097
 5502POPC   C2B70352  17.880  10.939   6.539
 5502POPC   C3B70353  17.779  10.903   6.977
 5502POPC   C4B70354  17.739  11.194   7.295
 5503POPC   NC370355  29.828   2.397   5.420
 5503POPC   PO470356  29.415   2.905   5.344
 5503POPC   GL170357  29.702   2.794   5.705
 5503POPC   GL270358  29.636   3.094   5.813
 5503POPC   C1A70359  30.121   2.668   5.982
 5503POPC   D2A70360  30.212   2.704   6.470
 5503POPC   C3A70361  30.047   2.776   6.911
 5503POPC   C4A70362  29.828   2.807   7.325
 5503POPC   C1B70363  29.802   2.980   6.174
 5503POPC   C2B70364  29.658   2.856   6.516
 5503POPC   C3B70365  29.515   2.850   6.874
 5503POPC   C4B70366  29.442   3.104   7.206
 5504POPC   NC370367   8.383  12.332   5.228
 5504POPC   PO470368   8.122  11.776   5.337
 5504POPC   GL170369   8.149  12.029   5.698
 5504POPC   GL270370   8.096  12.385   5.663
 5504POPC   C1A70371   8.014  11.968   6.118
 5504POPC   D2A70372   8.122  11.854   6.531
 5504POPC   C3A70373   7.864  11.859   6.868
 5504POPC   C4A70374   8.143  11.925   7.203
 5504POPC   C1B70375   8.327  12.444   6.050
 5504POPC   C2B70376   8.263  12.321   6.427
 5504POPC   C3B70377   8.338  12.237   6.831
 5504POPC   C4B70378   8.337  12.401   7.224
 5505POPC   NC370379  10.603  17.779   5.562
 5505POPC   PO470380  10.382  17.203   5.407
 5505POPC   GL170381  10.605  17.301   5.762
 5505POPC   GL270382  10.275  17.468   5.857
 5505POPC   C1A70383  10.679  17.481   6.172
 5505POPC   D2A70384  10.395  17.433   6.509
 5505POPC   C3A70385  10.508  17.342   6.962
 5505POPC   C4A70386  10.719  17.472   7.308
 5505POPC   C1B70387  10.077  17.735   6.148
 5505POPC   C2B70388  10.212  17.919   6.527
 5505POPC   C3B70389  10.143  17.670   6.880
 5505POPC   C4B70390  10.129  17.608   7.284
 5506POPC   NC370391  39.384   1.202   5.461
 5506POPC   PO470392  39.095   1.670   5.157
 5506POPC   GL170393  38.961   1.332   5.678
 5506POPC   GL270394  39.160   1.042   5.860
 5506POPC   C1A70395  39.008   1.414   6.159
 5506POPC   D2A70396  39.107   1.590   6.577
 5506POPC   C3A70397  39.452   1.518   6.859
 5506POPC   C4A70398  39.303   1.294   7.216
 5506POPC   C1B70399  39.345   1.015   6.257
 5506POPC   C2B70400  39.149   1.052   6.666
 5506POPC   C3B70401  39.262   0.831   7.026
 5506POPC   C4B70402  39.362   0.818   7.465
 5507POPC   NC370403  26.072  22.603   5.358
 5507POPC   PO470404  25.892  21.984   5.492
 5507POPC   GL170405  26.086  22.163   5.855
 5507POPC   GL270406  26.255  22.507   5.820
 5507POPC   C1A70407  26.116  22.040   6.284
 5507POPC   D2A70408  26.370  22.077   6.628
 5507POPC   C3A70409  26.091  22.006   6.958
 5507POPC   C4A70410  26.166  22.192   7.314
 5507POPC   C1B70411  25.972  22.620   6.128
 5507POPC   C2B70412  26.061  22.513   6.534
 5507POPC   C3B70413  25.945  22.488   6.936
 5507POPC   C4B70414  25.982  22.650   7.328
 5508POPC   NC370415  42.354  38.374   5.440
 5508POPC   PO470416  42.755  38.896   5.521
 5508POPC   GL170417  42.469  38.656   5.855
 5508POPC   GL270418  42.532  38.304   5.914
 5508POPC   C1A70419  42.100  38.525   6.153
 5508POPC   D2A70420  41.957  38.625   6.620
 5508POPC   C3A70421  42.235  38.636   7.010
 5508POPC   C4A70422  42.574  38.933   7.133
 5508POPC   C1B70423  42.514  38.306   6.353
 5508POPC   C2B70424  42.672  37.984   6.592
 5508POPC   C3B70425  42.611  37.973   7.016
 5508POPC   C4B70426  42.274  38.159   7.267
 5509POPC   NC370427   8.330  39.590   5.320
 5509POPC   PO470428   8.394  38.967   5.233
 5509POPC   GL170429   8.321  39.011   5.681
 5509POPC   GL270430   7.978  38.960   5.749
 5509POPC   C1A70431   8.309  39.110   6.136
 5509POPC   D2A70432   8.344  39.278   6.549
 5509POPC   C3A70433   8.514  39.054   6.912
 5509POPC   C4A70434   8.275  39.299   7.173
 5509POPC   C1B70435   7.903  39.404   5.912
 5509POPC   C2B70436   7.908  39.516   6.365
 5509POPC   C3B70437   7.875  39.308   6.780
 5509POPC   C4B70438   7.789  39.535   7.143
 5510POPC   NC370439  23.892  21.045   5.206
 5510POPC   PO470440  23.494  21.494   5.430
 5510POPC   GL170441  23.672  21.416   5.845
 5510POPC   GL270442  23.432  21.133   5.922
 5510POPC   C1A70443  23.857  21.300   6.275
 5510POPC   D2A70444  23.666  21.158   6.677
 5510POPC   C3A70445  23.888  21.298   7.054
 5510POPC   C4A70446  24.024  21.117   7.460
 5510POPC   C1B70447  23.372  21.404   6.281
 5510POPC   C2B70448  23.596  21.647   6.630
 5510POPC   C3B70449  23.422  21.506   7.035
 5510POPC   C4B70450  23.590  21.426   7.468
 5511POPC   NC370451  30.949  43.144   5.451
 5511POPC   PO470452  30.392  43.423   5.539
 5511POPC   GL170453  30.601  43.222   5.843
 5511POPC   GL270454  30.634  42.905   5.758
 5511POPC   C1A70455  30.535  43.123   6.250
 5511POPC   D2A70456  30.534  43.309   6.620
 5511POPC   C3A70457  30.348  43.290   6.995
 5511POPC   C4A70458  30.625  43.197   7.290
 5511POPC   C1B70459  30.929  42.842   6.123
 5511POPC   C2B70460  30.769  42.797   6.559
 5511POPC   C3B70461  30.619  42.807   6.962
 5511POPC   C4B70462  30.806  42.706   7.363
 5512POPC   NC370463  35.642  10.075   5.560
 5512POPC   PO470464  35.111   9.616   5.470
 5512POPC   GL170465  35.109   9.795   5.905
 5512POPC   GL270466  35.296  10.088   5.947
 5512POPC   C1A70467  35.151   9.864   6.392
 5512POPC   D2A70468  34.977   9.899   6.843
 5512POPC   C3A70469  35.058   9.671   7.232
 5512POPC   C4A70470  34.946   9.791   7.646
 5512POPC   C1B70471  35.622  10.102   6.277
 5512POPC   C2B70472  35.601  10.225   6.732
 5512POPC   C3B70473  35.405  10.070   7.128
 5512POPC   C4B70474  35.421  10.000   7.577
 5513POPC   NC370475  29.354   4.331   5.066
 5513POPC   PO470476  29.056   4.247   5.616
 5513POPC   GL170477  28.932   4.393   5.961
 5513POPC   GL270478  28.699   4.655   5.891
 5513POPC   C1A70479  28.891   4.297   6.374
 5513POPC   D2A70480  28.986   3.989   6.657
 5513POPC   C3A70481  29.274   4.054   6.974
 5513POPC   C4A70482  29.170   4.164   7.406
 5513POPC   C1B70483  29.005   4.809   6.235
 5513POPC   C2B70484  28.869   4.713   6.656
 5513POPC   C3B70485  29.019   4.496   6.983
 5513POPC   C4B70486  29.165   4.672   7.351
 5514POPC   NC370487  35.517  42.850   5.148
 5514POPC   PO470488  34.977  43.196   5.214
 5514POPC   GL170489  35.057  42.984   5.636
 5514POPC   GL270490  35.398  42.818   5.644
 5514POPC   C1A70491  35.215  43.148   6.062
 5514POPC   D2A70492  35.022  43.285   6.470
 5514POPC   C3A70493  35.303  43.246   6.849
 5514POPC   C4A70494  35.330  43.073   7.264
 5514POPC   C1B70495  35.602  42.771   6.056
 5514POPC   C2B70496  35.546  42.937   6.483
 5514POPC   C3B70497  35.638  42.815   6.925
 5514POPC   C4B70498  35.836  43.021   7.277
 5515POPC   NC370499   9.507   3.840   5.313
 5515POPC   PO470500   9.698   4.551   5.206
 5515POPC   GL170501   9.609   4.479   5.631
 5515POPC   GL270502   9.688   4.154   5.705
 5515POPC   C1A70503   9.681   4.545   6.082
 5515POPC   D2A70504   9.592   4.636   6.527
 5515POPC   C3A70505   9.941   4.485   6.811
 5515POPC   C4A70506  10.130   4.361   7.212
 5515POPC   C1B70507   9.833   4.040   6.098
 5515POPC   C2B70508   9.723   4.113   6.516
 5515POPC   C3B70509   9.826   4.002   6.947
 5515POPC   C4B70510   9.582   3.998   7.318
 5516POPC   NC370511   2.321  31.745   5.432
 5516POPC   PO470512   2.980  31.683   5.283
 5516POPC   GL170513   2.877  31.472   5.697
 5516POPC   GL270514   2.532  31.311   5.738
 5516POPC   C1A70515   2.952  31.623   6.112
 5516POPC   D2A70516   2.713  31.661   6.512
 5516POPC   C3A70517   2.940  31.572   6.885
 5516POPC   C4A70518   2.914  31.790   7.278
 5516POPC   C1B70519   2.691  31.184   6.173
 5516POPC   C2B70520   2.675  31.167   6.643
 5516POPC   C3B70521   2.518  31.343   7.056
 5516POPC   C4B70522   2.575  31.220   7.476
 5517POPC   NC370523  29.953  44.980   5.658
 5517POPC   PO470524  30.118   0.563   5.331
 5517POPC   GL170525  29.865   0.498   5.765
 5517POPC   GL270526  29.592   0.256   5.880
 5517POPC   C1A70527  30.031   0.382   6.213
 5517POPC   D2A70528  29.868   0.190   6.629
 5517POPC   C3A70529  29.855   0.417   7.054
 5517POPC   C4A70530  29.935   0.358   7.554
 5517POPC   C1B70531  29.534   0.515   6.234
 5517POPC   C2B70532  29.342   0.708   6.559
 5517POPC   C3B70533  29.419   0.652   6.972
 5517POPC   C4B70534  29.487   0.559   7.409
 5518POPC   NC370535   3.846  31.925   5.335
 5518POPC   PO470536   3.405  32.375   5.321
 5518POPC   GL170537   3.614  32.206   5.760
 5518POPC   GL270538   3.853  31.907   5.857
 5518POPC   C1A70539   3.665  32.215   6.258
 5518POPC   D2A70540   3.726  32.216   6.777
 5518POPC   C3A70541   3.544  32.541   7.145
 5518POPC   C4A70542   3.799  32.728   7.581
 5518POPC   C1B70543   3.452  31.772   6.070
 5518POPC   C2B70544   3.232  31.817   6.504
 5518POPC   C3B70545   3.262  31.977   6.932
 5518POPC   C4B70546   3.590  32.010   7.224
 5519POPC   NC370547  35.799  21.721   5.365
 5519POPC   PO470548  36.338  22.068   5.093
 5519POPC   GL170549  36.186  22.042   5.599
 5519POPC   GL270550  35.856  22.046   5.798
 5519POPC   C1A70551  36.232  21.938   6.116
 5519POPC   D2A70552  35.980  21.953   6.554
 5519POPC   C3A70553  36.176  22.049   6.988
 5519POPC   C4A70554  36.049  22.153   7.449
 5519POPC   C1B70555  35.918  22.349   6.187
 5519POPC   C2B70556  36.027  22.547   6.616
 5519POPC   C3B70557  35.840  22.435   7.037
 5519POPC   C4B70558  35.601  22.420   7.455
 5520POPC   NC370559  16.421  28.137   5.397
 5520POPC   PO470560  17.153  28.078   5.414
 5520POPC   GL170561  16.838  28.354   5.653
 5520POPC   GL270562  16.778  28.073   5.841
 5520POPC   C1A70563  16.474  28.446   5.993
 5520POPC   D2A70564  16.396  28.367   6.439
 5520POPC   C3A70565  16.671  28.591   6.734
 5520POPC   C4A70566  16.889  28.485   7.147
 5520POPC   C1B70567  16.887  28.274   6.265
 5520POPC   C2B70568  16.870  28.133   6.729
 5520POPC   C3B70569  16.647  28.040   7.140
 5520POPC   C4B70570  16.795  27.713   7.442
 5521POPC   NC370571   3.160  22.321   5.438
 5521POPC   PO470572   3.861  22.263   5.504
 5521POPC   GL170573   3.638  22.059   5.830
 5521POPC   GL270574   3.420  22.301   5.867
 5521POPC   C1A70575   3.711  22.044   6.295
 5521POPC   D2A70576   3.673  22.249   6.686
 5521POPC   C3A70577   3.440  22.082   7.030
 5521POPC   C4A70578   3.573  22.056   7.443
 5521POPC   C1B70579   3.220  22.585   6.136
 5521POPC   C2B70580   3.335  22.769   6.523
 5521POPC   C3B70581   3.447  22.658   6.951
 5521POPC   C4B70582   3.757  22.443   7.185
 5522POPC   NC370583   2.549  17.988   5.466
 5522POPC   PO470584   3.175  18.270   5.529
 5522POPC   GL170585   2.850  18.237   5.835
 5522POPC   GL270586   2.584  18.488   5.778
 5522POPC   C1A70587   2.780  17.923   6.180
 5522POPC   D2A70588   2.727  17.972   6.628
 5522POPC   C3A70589   2.843  18.397   6.728
 5522POPC   C4A70590   3.015  18.537   7.096
 5522POPC   C1B70591   2.430  18.299   6.157
 5522POPC   C2B70592   2.314  18.316   6.579
 5522POPC   C3B70593   2.434  18.295   7.017
 5522POPC   C4B70594   2.552  18.613   7.302
 5523POPC   NC370595  19.602  16.019   5.274
 5523POPC   PO470596  19.965  15.589   5.338
 5523POPC   GL170597  19.858  15.873   5.704
 5523POPC   GL270598  19.668  15.666   5.888
 5523POPC   C1A70599  19.899  16.110   6.110
 5523POPC   D2A70600  19.776  16.054   6.568
 5523POPC   C3A70601  19.987  16.122   7.002
 5523POPC   C4A70602  19.788  16.215   7.415
 5523POPC   C1B70603  19.921  15.607   6.244
 5523POPC   C2B70604  19.957  15.591   6.704
 5523POPC   C3B70605  19.797  15.667   7.148
 5523POPC   C4B70606  20.066  15.808   7.487
 5524POPC   NC370607   2.193   6.719   5.226
 5524POPC   PO470608   1.805   6.182   5.279
 5524POPC   GL170609   1.879   6.301   5.725
 5524POPC   GL270610   2.066   6.648   5.783
 5524POPC   C1A70611   1.778   6.399   6.159
 5524POPC   D2A70612   1.843   6.690   6.473
 5524POPC   C3A70613   1.924   6.541   6.864
 5524POPC   C4A70614   2.066   6.595   7.260
 5524POPC   C1B70615   2.109   6.986   6.136
 5524POPC   C2B70616   2.296   7.127   6.555
 5524POPC   C3B70617   2.264   6.997   7.011
 5524POPC   C4B70618   2.243   6.999   7.483
 5525POPC   NC370619  36.911  38.208   5.477
 5525POPC   PO470620  37.175  38.851   5.523
 5525POPC   GL170621  36.806  38.609   5.800
 5525POPC   GL270622  36.612  38.221   5.868
 5525POPC   C1A70623  36.689  38.569   6.219
 5525POPC   D2A70624  36.949  38.411   6.563
 5525POPC   C3A70625  36.774  38.252   6.910
 5525POPC   C4A70626  36.587  38.308   7.312
 5525POPC   C1B70627  37.000  38.159   6.128
 5525POPC   C2B70628  37.166  37.927   6.515
 5525POPC   C3B70629  37.291  38.110   6.882
 5525POPC   C4B70630  37.171  38.365   7.233
 5526POPC   NC370631   2.640   0.185   5.461
 5526POPC   PO470632   3.112   0.715   5.358
 5526POPC   GL170633   2.945   0.529   5.753
 5526POPC   GL270634   2.687   0.768   5.742
 5526POPC   C1A70635   2.883   0.225   6.134
 5526POPC   D2A70636   3.040  44.964   6.492
 5526POPC   C3A70637   2.837  44.981   6.889
 5526POPC   C4A70638   2.764   0.338   7.208
 5526POPC   C1B70639   2.650   0.676   6.223
 5526POPC   C2B70640   2.883   0.540   6.619
 5526POPC   C3B70641   2.946   0.804   7.001
 5526POPC   C4B70642   2.963   0.926   7.430
 5527POPC   NC370643  36.065  28.864   5.271
 5527POPC   PO470644  35.463  29.101   5.315
 5527POPC   GL170645  35.703  28.969   5.695
 5527POPC   GL270646  36.037  28.888   5.802
 5527POPC   C1A70647  35.680  29.134   6.148
 5527POPC   D2A70648  35.629  29.249   6.604
 5527POPC   C3A70649  35.776  28.982   6.973
 5527POPC   C4A70650  35.936  28.921   7.428
 5527POPC   C1B70651  36.178  29.004   6.240
 5527POPC   C2B70652  36.142  29.216   6.663
 5527POPC   C3B70653  36.180  29.267   7.119
 5527POPC   C4B70654  35.937  29.474   7.433
 5528POPC   NC370655  12.876  27.410   5.275
 5528POPC   PO470656  12.397  27.920   5.246
 5528POPC   GL170657  12.706  27.848   5.700
 5528POPC   GL270658  13.081  27.775   5.731
 5528POPC   C1A70659  12.757  27.615   6.129
 5528POPC   D2A70660  12.796  27.324   6.525
 5528POPC   C3A70661  12.970  27.361   6.973
 5528POPC   C4A70662  12.631  27.331   7.246
 5528POPC   C1B70663  13.154  27.919   6.192
 5528POPC   C2B70664  12.905  27.982   6.607
 5528POPC   C3B70665  12.732  27.813   7.022
 5528POPC   C4B70666  13.003  27.731   7.413
 5529POPC   NC370667  32.696  12.448   5.488
 5529POPC   PO470668  33.219  12.055   5.287
 5529POPC   GL170669  33.156  11.947   5.735
 5529POPC   GL270670  32.838  12.058   5.795
 5529POPC   C1A70671  33.228  11.947   6.212
 5529POPC   D2A70672  33.422  12.107   6.625
 5529POPC   C3A70673  33.265  11.885   6.981
 5529POPC   C4A70674  32.945  11.748   7.258
 5529POPC   C1B70675  32.746  12.176   6.217
 5529POPC   C2B70676  32.904  12.061   6.632
 5529POPC   C3B70677  32.835  12.207   7.061
 5529POPC   C4B70678  32.724  12.119   7.533
 5530POPC   NC370679  28.540  27.891   5.486
 5530POPC   PO470680  28.697  28.528   5.325
 5530POPC   GL170681  28.425  28.488   5.721
 5530POPC   GL270682  28.060  28.602   5.666
 5530POPC   C1A70683  28.397  28.283   6.163
 5530POPC   D2A70684  28.243  28.144   6.595
 5530POPC   C3A70685  28.460  28.117   7.010
 5530POPC   C4A70686  28.461  28.422   7.376
 5530POPC   C1B70687  28.113  28.712   6.090
 5530POPC   C2B70688  28.238  28.657   6.516
 5530POPC   C3B70689  28.248  28.590   6.942
 5530POPC   C4B70690  27.972  28.689   7.289
 5531POPC   NC370691  38.082   1.022   5.570
 5531POPC   PO470692  37.647   1.520   5.480
 5531POPC   GL170693  37.572   1.342   5.871
 5531POPC   GL270694  37.923   1.345   5.912
 5531POPC   C1A70695  37.650   1.233   6.307
 5531POPC   D2A70696  37.709   1.454   6.689
 5531POPC   C3A70697  37.764   1.178   7.007
 5531POPC   C4A70698  37.458   0.844   7.042
 5531POPC   C1B70699  37.955   1.642   6.220
 5531POPC   C2B70700  38.134   1.728   6.601
 5531POPC   C3B70701  38.023   1.720   7.028
 5531POPC   C4B70702  37.898   1.477   7.399
 5532POPC   NC370703  20.387  37.898   5.386
 5532POPC   PO470704  20.353  37.223   5.381
 5532POPC   GL170705  20.509  37.589   5.761
 5532POPC   GL270706  20.277  37.877   5.901
 5532POPC   C1A70707  20.691  37.789   6.174
 5532POPC   D2A70708  20.565  38.026   6.574
 5532POPC   C3A70709  20.709  37.865   7.003
 5532POPC   C4A70710  20.882  37.565   7.318
 5532POPC   C1B70711  20.188  37.495   6.143
 5532POPC   C2B70712  20.270  37.245   6.512
 5532POPC   C3B70713  20.327  37.484   6.887
 5532POPC   C4B70714  20.361  37.615   7.290
 5533POPC   NC370715  33.383   0.135   5.482
 5533POPC   PO470716  32.774   0.522   5.459
 5533POPC   GL170717  32.862   0.638   5.859
 5533POPC   GL270718  33.231   0.610   5.803
 5533POPC   C1A70719  32.680   0.526   6.268
 5533POPC   D2A70720  32.844   0.523   6.681
 5533POPC   C3A70721  32.835   0.739   7.070
 5533POPC   C4A70722  33.000   0.521   7.421
 5533POPC   C1B70723  33.217   0.363   6.190
 5533POPC   C2B70724  33.232   0.178   6.611
 5533POPC   C3B70725  33.232   0.274   7.050
 5533POPC   C4B70726  33.382   0.226   7.506
 5534POPC   NC370727   5.273  36.025   5.341
 5534POPC   PO470728   5.060  35.525   5.530
 5534POPC   GL170729   5.201  35.924   5.834
 5534POPC   GL270730   5.236  36.325   5.739
 5534POPC   C1A70731   5.405  35.924   6.256
 5534POPC   D2A70732   5.272  35.669   6.609
 5534POPC   C3A70733   5.035  35.915   6.930
 5534POPC   C4A70734   4.886  36.314   7.097
 5534POPC   C1B70735   5.098  36.332   6.186
 5534POPC   C2B70736   5.235  36.388   6.641
 5534POPC   C3B70737   5.223  36.705   7.011
 5534POPC   C4B70738   5.182  36.564   7.467
 5535POPC   NC370739  25.873  38.064   5.387
 5535POPC   PO470740  26.422  38.503   5.372
 5535POPC   GL170741  26.017  38.494   5.657
 5535POPC   GL270742  26.090  38.680   5.934
 5535POPC   C1A70743  25.943  38.208   6.070
 5535POPC   D2A70744  26.106  38.098   6.538
 5535POPC   C3A70745  25.963  38.119   7.022
 5535POPC   C4A70746  26.002  37.953   7.491
 5535POPC   C1B70747  25.926  38.591   6.387
 5535POPC   C2B70748  26.130  38.553   6.795
 5535POPC   C3B70749  26.351  38.702   7.174
 5535POPC   C4B70750  26.262  38.868   7.589
 5536POPC   NC370751  14.106   6.947   5.389
 5536POPC   PO470752  14.595   7.402   5.532
 5536POPC   GL170753  14.348   7.439   5.881
 5536POPC   GL270754  14.144   7.141   5.874
 5536POPC   C1A70755  14.391   7.577   6.308
 5536POPC   D2A70756  14.252   7.476   6.727
 5536POPC   C3A70757  14.450   7.516   7.100
 5536POPC   C4A70758  14.754   7.803   7.200
 5536POPC   C1B70759  13.989   7.261   6.301
 5536POPC   C2B70760  13.977   7.073   6.714
 5536POPC   C3B70761  13.970   7.265   7.141
 5536POPC   C4B70762  14.234   7.247   7.515
 5537POPC   NC370763  26.402  28.456   5.373
 5537POPC   PO470764  25.815  28.119   5.382
 5537POPC   GL170765  25.792  28.258   5.777
 5537POPC   GL270766  26.090  28.424   5.765
 5537POPC   C1A70767  25.838  28.369   6.201
 5537POPC   D2A70768  26.036  28.237   6.565
 5537POPC   C3A70769  25.868  28.340   6.956
 5537POPC   C4A70770  25.852  28.031   7.280
 5537POPC   C1B70771  26.334  28.637   6.078
 5537POPC   C2B70772  26.491  28.490   6.462
 5537POPC   C3B70773  26.377  28.513   6.876
 5537POPC   C4B70774  26.514  28.406   7.259
 5538POPC   NC370775  44.496  41.177   5.474
 5538POPC   PO470776  44.755  41.865   5.415
 5538POPC   GL170777  44.574  41.652   5.755
 5538POPC   GL270778  44.804  41.342   5.849
 5538POPC   C1A70779  44.459  41.534   6.186
 5538POPC   D2A70780  44.720  41.256   6.420
 5538POPC   C3A70781  44.749  41.332   6.859
 5538POPC   C4A70782  44.555  41.414   7.251
 5538POPC   C1B70783  44.964  41.678   6.118
 5538POPC   C2B70784  44.818  41.800   6.518
 5538POPC   C3B70785  44.985  41.803   6.916
 5538POPC   C4B70786  44.818  41.878   7.306
 5539POPC   NC370787  22.384  32.179   5.550
 5539POPC   PO470788  23.066  32.130   5.457
 5539POPC   GL170789  22.864  32.311   5.794
 5539POPC   GL270790  22.647  32.584   5.665
 5539POPC   C1A70791  22.959  32.221   6.247
 5539POPC   D2A70792  22.909  32.058   6.714
 5539POPC   C3A70793  23.076  32.259   7.092
 5539POPC   C4A70794  22.960  32.347   7.515
 5539POPC   C1B70795  22.618  32.628   6.119
 5539POPC   C2B70796  22.674  32.489   6.549
 5539POPC   C3B70797  22.679  32.559   6.962
 5539POPC   C4B70798  22.478  32.518   7.311
 5540POPC   NC370799  31.778  30.086   5.345
 5540POPC   PO470800  31.648  29.504   5.508
 5540POPC   GL170801  31.623  29.801   5.838
 5540POPC   GL270802  31.477  30.135   5.789
 5540POPC   C1A70803  31.377  29.890   6.238
 5540POPC   D2A70804  31.328  30.069   6.662
 5540POPC   C3A70805  31.411  29.745   6.964
 5540POPC   C4A70806  31.751  29.670   7.246
 5540POPC   C1B70807  31.632  30.340   6.185
 5540POPC   C2B70808  31.832  30.195   6.576
 5540POPC   C3B70809  31.716  30.163   7.033
 5540POPC   C4B70810  31.299  30.231   7.174
 5541POPC   NC370811   3.100  30.473   5.427
 5541POPC   PO470812   2.464  30.596   5.637
 5541POPC   GL170813   2.802  30.562   5.822
 5541POPC   GL270814   2.977  30.910   5.752
 5541POPC   C1A70815   2.736  30.380   6.196
 5541POPC   D2A70816   2.646  30.676   6.486
 5541POPC   C3A70817   2.818  30.606   6.856
 5541POPC   C4A70818   2.665  30.550   7.262
 5541POPC   C1B70819   3.040  30.805   6.196
 5541POPC   C2B70820   3.124  30.944   6.628
 5541POPC   C3B70821   2.980  31.058   7.079
 5541POPC   C4B70822   2.978  30.922   7.527
 5542POPC   NC370823  44.428   5.311   5.411
 5542POPC   PO470824   0.001   4.902   5.403
 5542POPC   GL170825  44.755   5.069   5.782
 5542POPC   GL270826  44.629   5.430   5.876
 5542POPC   C1A70827  44.629   5.065   6.224
 5542POPC   D2A70828  44.864   5.272   6.568
 5542POPC   C3A70829  44.760   5.223   7.009
 5542POPC   C4A70830  44.522   4.911   7.215
 5542POPC   C1B70831  44.495   5.553   6.337
 5542POPC   C2B70832  44.356   5.438   6.790
 5542POPC   C3B70833  44.321   5.373   7.320
 5542POPC   C4B70834  44.349   5.515   7.795
 5543POPC   NC370835  40.940  33.243   5.438
 5543POPC   PO470836  40.770  33.908   5.413
 5543POPC   GL170837  40.906  33.805   5.835
 5543POPC   GL270838  41.126  33.512   5.847
 5543POPC   C1A70839  40.713  33.917   6.242
 5543POPC   D2A70840  40.464  33.875   6.601
 5543POPC   C3A70841  40.614  33.659   6.946
 5543POPC   C4A70842  40.647  33.719   7.373
 5543POPC   C1B70843  41.201  33.745   6.260
 5543POPC   C2B70844  41.070  34.027   6.605
 5543POPC   C3B70845  41.048  33.891   7.021
 5543POPC   C4B70846  41.040  33.445   7.164
 5544POPC   NC370847  28.473   7.044   5.602
 5544POPC   PO470848  28.165   7.547   5.273
 5544POPC   GL170849  28.221   7.464   5.735
 5544POPC   GL270850  28.565   7.489   5.881
 5544POPC   C1A70851  28.174   7.223   6.147
 5544POPC   D2A70852  28.413   7.158   6.531
 5544POPC   C3A70853  28.211   7.397   6.853
 5544POPC   C4A70854  28.026   7.325   7.228
 5544POPC   C1B70855  28.408   7.677   6.282
 5544POPC   C2B70856  28.605   7.668   6.696
 5544POPC   C3B70857  28.624   7.550   7.136
 5544POPC   C4B70858  28.656   7.858   7.478
 5545POPC   NC370859  23.688  23.427   5.562
 5545POPC   PO470860  23.075  23.025   5.365
 5545POPC   GL170861  22.928  23.111   5.770
 5545POPC   GL270862  23.207  23.371   5.814
 5545POPC   C1A70863  22.819  22.902   6.189
 5545POPC   D2A70864  23.015  22.672   6.545
 5545POPC   C3A70865  22.885  22.826   6.959
 5545POPC   C4A70866  22.680  23.003   7.309
 5545POPC   C1B70867  23.002  23.382   6.199
 5545POPC   C2B70868  23.003  23.199   6.593
 5545POPC   C3B70869  22.803  23.338   6.947
 5545POPC   C4B70870  23.069  23.357   7.275
 5546POPC   NC370871  26.609  26.486   5.418
 5546POPC   PO470872  26.015  26.807   5.151
 5546POPC   GL170873  25.939  26.629   5.601
 5546POPC   GL270874  26.250  26.764   5.767
 5546POPC   C1A70875  25.878  26.631   6.090
 5546POPC   D2A70876  25.766  26.872   6.501
 5546POPC   C3A70877  25.888  26.724   6.925
 5546POPC   C4A70878  25.677  26.596   7.296
 5546POPC   C1B70879  26.312  26.938   6.214
 5546POPC   C2B70880  26.311  26.939   6.676
 5546POPC   C3B70881  26.160  27.147   7.038
 5546POPC   C4B70882  26.135  27.065   7.460
 5547POPC   NC370883  37.535   2.909   5.471
 5547POPC   PO470884  38.213   3.012   5.316
 5547POPC   GL170885  37.984   2.913   5.787
 5547POPC   GL270886  37.624   2.920   5.961
 5547POPC   C1A70887  37.980   2.666   6.201
 5547POPC   D2A70888  37.648   2.763   6.512
 5547POPC   C3A70889  37.720   2.962   6.888
 5547POPC   C4A70890  37.939   2.727   7.185
 5547POPC   C1B70891  37.464   2.500   6.116
 5547POPC   C2B70892  37.345   2.339   6.547
 5547POPC   C3B70893  37.484   2.515   6.957
 5547POPC   C4B70894  37.491   2.495   7.410
 5548POPC   NC370895  26.272  24.200   5.463
 5548POPC   PO470896  25.973  24.789   5.363
 5548POPC   GL170897  26.053  24.570   5.764
 5548POPC   GL270898  25.734  24.419   5.750
 5548POPC   C1A70899  26.186  24.497   6.225
 5548POPC   D2A70900  25.963  24.385   6.618
 5548POPC   C3A70901  26.138  24.428   7.029
 5548POPC   C4A70902  26.164  24.438   7.471
 5548POPC   C1B70903  25.673  24.538   6.166
 5548POPC   C2B70904  25.581  24.747   6.554
 5548POPC   C3B70905  25.632  24.554   6.953
 5548POPC   C4B70906  25.715  24.144   7.144
 5549POPC   NC370907  40.167  20.150   5.436
 5549POPC   PO470908  40.376  19.468   5.276
 5549POPC   GL170909  40.174  19.681   5.675
 5549POPC   GL270910  39.873  19.883   5.860
 5549POPC   C1A70911  40.279  19.756   6.137
 5549POPC   D2A70912  40.252  19.997   6.538
 5549POPC   C3A70913  40.066  19.818   6.920
 5549POPC   C4A70914  40.189  19.748   7.373
 5549POPC   C1B70915  39.666  20.214   6.178
 5549POPC   C2B70916  39.841  20.314   6.562
 5549POPC   C3B70917  39.855  20.399   6.959
 5549POPC   C4B70918  39.838  20.095   7.286
 5550POPC   NC370919   2.998  42.644   5.355
 5550POPC   PO470920   2.541  42.089   5.414
 5550POPC   GL170921   2.617  42.258   5.790
 5550POPC   GL270922   2.972  42.342   5.782
 5550POPC   C1A70923   2.625  42.179   6.214
 5550POPC   D2A70924   2.854  42.039   6.555
 5550POPC   C3A70925   2.787  42.334   6.869
 5550POPC   C4A70926   2.677  42.363   7.284
 5550POPC   C1B70927   3.095  42.440   6.207
 5550POPC   C2B70928   3.328  42.245   6.538
 5550POPC   C3B70929   3.213  42.068   6.961
 5550POPC   C4B70930   3.177  42.427   7.228
 5551POPC   NC370931  16.318  37.254   5.489
 5551POPC   PO470932  15.742  37.633   5.287
 5551POPC   GL170933  15.840  37.822   5.712
 5551POPC   GL270934  16.107  38.040   5.701
 5551POPC   C1A70935  15.719  37.952   6.134
 5551POPC   D2A70936  15.927  37.723   6.478
 5551POPC   C3A70937  15.792  37.648   6.894
 5551POPC   C4A70938  15.993  37.732   7.313
 5551POPC   C1B70939  16.262  37.935   6.112
 5551POPC   C2B70940  16.321  38.032   6.539
 5551POPC   C3B70941  16.279  37.835   6.904
 5551POPC   C4B70942  16.388  38.087   7.238
 5552POPC   NC370943  28.182  37.150   5.495
 5552POPC   PO470944  28.386  36.482   5.586
 5552POPC   GL170945  28.549  36.734   5.925
 5552POPC   GL270946  28.654  37.046   5.777
 5552POPC   C1A70947  28.446  36.829   6.371
 5552POPC   D2A70948  28.081  36.871   6.683
 5552POPC   C3A70949  28.232  36.630   7.064
 5552POPC   C4A70950  28.618  36.694   7.315
 5552POPC   C1B70951  28.623  37.288   6.169
 5552POPC   C2B70952  28.407  37.311   6.583
 5552POPC   C3B70953  28.514  37.025   6.918
 5552POPC   C4B70954  28.748  37.194   7.272
 5553POPC   NC370955  44.662  27.286   5.598
 5553POPC   PO470956  44.312  26.654   5.476
 5553POPC   GL170957  44.680  26.753   5.764
 5553POPC   GL270958  44.712  26.998   6.015
 5553POPC   C1A70959  44.863  26.523   6.120
 5553POPC   D2A70960  44.871  26.737   6.529
 5553POPC   C3A70961  44.843  26.555   6.934
 5553POPC   C4A70962  44.662  26.687   7.332
 5553POPC   C1B70963  44.486  27.329   6.233
 5553POPC   C2B70964  44.387  27.227   6.639
 5553POPC   C3B70965  44.599  27.060   6.975
 5553POPC   C4B70966  44.351  27.171   7.316
 5554POPC   NC370967   0.632  13.064   5.368
 5554POPC   PO470968   0.359  12.437   5.312
 5554POPC   GL170969   0.318  12.781   5.662
 5554POPC   GL270970   0.668  12.769   5.793
 5554POPC   C1A70971   0.227  12.828   6.134
 5554POPC   D2A70972   0.428  12.777   6.594
 5554POPC   C3A70973   0.207  12.812   7.006
 5554POPC   C4A70974  44.914  12.543   7.214
 5554POPC   C1B70975   0.718  12.979   6.215
 5554POPC   C2B70976   0.796  13.151   6.640
 5554POPC   C3B70977   0.609  13.164   7.088
 5554POPC   C4B70978   0.728  13.094   7.566
 5555POPC   NC370979  10.630  38.649   5.472
 5555POPC   PO470980  10.448  37.988   5.287
 5555POPC   GL170981  10.461  38.217   5.732
 5555POPC   GL270982  10.736  38.397   5.971
 5555POPC   C1A70983  10.267  38.309   6.149
 5555POPC   D2A70984  10.510  38.270   6.546
 5555POPC   C3A70985  10.298  38.336   6.964
 5555POPC   C4A70986  10.387  38.510   7.379
 5555POPC   C1B70987  10.821  38.841   6.141
 5555POPC   C2B70988  10.778  39.082   6.543
 5555POPC   C3B70989  10.661  38.959   6.979
 5555POPC   C4B70990  10.846  38.640   7.216
 5556POPC   NC370991   5.744  43.673   5.623
 5556POPC   PO470992   5.926  42.972   5.495
 5556POPC   GL170993   5.989  42.842   5.886
 5556POPC   GL270994   5.698  42.650   5.910
 5556POPC   C1A70995   5.997  42.867   6.333
 5556POPC   D2A70996   5.817  43.081   6.694
 5556POPC   C3A70997   6.192  43.199   6.943
 5556POPC   C4A70998   6.253  43.210   7.392
 5556POPC   C1B70999   5.673  42.463   6.353
 5556POPC   C2B71000   5.729  42.564   6.804
 5556POPC   C3B71001   5.861  42.849   7.155
 5556POPC   C4B71002   5.730  43.249   7.232
 5557POPC   NC371003  19.709  38.219   5.414
 5557POPC   PO471004  19.573  38.896   5.430
 5557POPC   GL171005  19.659  38.556   5.792
 5557POPC   GL271006  19.959  38.299   5.849
 5557POPC   C1A71007  19.620  38.461   6.241
 5557POPC   D2A71008  19.468  38.754   6.576
 5557POPC   C3A71009  19.714  38.741   6.924
 5557POPC   C4A71010  19.754  38.786   7.351
 5557POPC   C1B71011  20.091  38.214   6.286
 5557POPC   C2B71012  19.892  38.309   6.691
 5557POPC   C3B71013  19.889  38.325   7.154
 5557POPC   C4B71014  20.152  38.538   7.496
 5558POPC   NC371015   5.305  30.035   5.362
 5558POPC   PO471016   5.959  30.218   5.300
 5558POPC   GL171017   5.985  29.881   5.620
 5558POPC   GL271018   5.625  29.831   5.708
 5558POPC   C1A71019   5.952  29.877   6.097
 5558POPC   D2A71020   5.642  30.100   6.438
 5558POPC   C3A71021   5.761  30.166   6.873
 5558POPC   C4A71022   5.959  29.947   7.215
 5558POPC   C1B71023   5.479  29.722   6.114
 5558POPC   C2B71024   5.723  29.583   6.462
 5558POPC   C3B71025   5.704  29.657   6.873
 5558POPC   C4B71026   5.678  29.513   7.295
 5559POPC   NC371027   7.416  44.898   5.313
 5559POPC   PO471028   7.664  44.443   5.693
 5559POPC   GL171029   7.411  44.642   5.901
 5559POPC   GL271030   7.587  44.948   5.804
 5559POPC   C1A71031   7.512  44.567   6.350
 5559POPC   D2A71032   7.729  44.405   6.713
 5559POPC   C3A71033   7.564  44.554   7.109
 5559POPC   C4A71034   7.399  44.554   7.526
 5559POPC   C1B71035   7.361   0.025   6.199
 5559POPC   C2B71036   7.126  44.912   6.548
 5559POPC   C3B71037   7.274  44.971   6.949
 5559POPC   C4B71038   7.463   0.012   7.340
 5560POPC   NC371039  44.731  11.628   5.316
 5560POPC   PO471040  44.466  11.000   5.476
 5560POPC   GL171041  44.727  11.272   5.758
 5560POPC   GL271042  44.861  10.961   5.845
 5560POPC   C1A71043  44.801  11.346   6.230
 5560POPC   D2A71044  44.513  11.470   6.592
 5560POPC   C3A71045  44.652  11.579   7.005
 5560POPC   C4A71046  44.907  11.278   7.213
 5560POPC   C1B71047  44.509  10.944   6.135
 5560POPC   C2B71048  44.477  10.920   6.550
 5560POPC   C3B71049  44.372  10.755   6.948
 5560POPC   C4B71050  44.393  11.051   7.258
 5561POPC   NC371051   5.976  33.543   5.319
 5561POPC   PO471052   5.588  33.038   5.508
 5561POPC   GL171053   5.961  33.153   5.795
 5561POPC   GL271054   6.115  33.463   5.812
 5561POPC   C1A71055   6.063  32.933   6.201
 5561POPC   D2A71056   5.709  32.915   6.500
 5561POPC   C3A71057   5.711  32.907   6.969
 5561POPC   C4A71058   5.884  32.594   7.256
 5561POPC   C1B71059   6.003  33.434   6.259
 5561POPC   C2B71060   5.988  33.315   6.691
 5561POPC   C3B71061   5.967  33.349   7.121
 5561POPC   C4B71062   6.071  33.055   7.437
 5562POPC   NC371063  37.103  15.122   5.118
 5562POPC   PO471064  37.746  15.108   5.387
 5562POPC   GL171065  37.604  15.265   5.744
 5562POPC   GL271066  37.880  15.059   5.893
 5562POPC   C1A71067  37.528  15.263   6.180
 5562POPC   D2A71068  37.820  15.217   6.511
 5562POPC   C3A71069  37.576  15.313   6.859
 5562POPC   C4A71070  37.366  15.133   7.211
 5562POPC   C1B71071  37.733  14.784   6.258
 5562POPC   C2B71072  37.686  14.788   6.773
 5562POPC   C3B71073  37.921  15.042   7.142
 5562POPC   C4B71074  38.129  15.053   7.587
 5563POPC   NC371075  14.023  40.797   5.359
 5563POPC   PO471076  14.591  40.636   5.126
 5563POPC   GL171077  14.452  40.865   5.612
 5563POPC   GL271078  14.756  40.928   5.861
 5563POPC   C1A71079  14.261  40.910   6.058
 5563POPC   D2A71080  14.016  40.846   6.462
 5563POPC   C3A71081  14.236  40.869   6.903
 5563POPC   C4A71082  14.254  40.857   7.388
 5563POPC   C1B71083  14.910  41.035   6.291
 5563POPC   C2B71084  14.856  40.984   6.759
 5563POPC   C3B71085  14.745  40.789   7.152
 5563POPC   C4B71086  14.724  40.692   7.573
 5564POPC   NC371087   2.294  30.194   5.476
 5564POPC   PO471088   2.337  29.517   5.515
 5564POPC   GL171089   2.185  29.833   5.827
 5564POPC   GL271090   1.862  29.972   5.716
 5564POPC   C1A71091   2.378  29.936   6.228
 5564POPC   D2A71092   2.212  29.893   6.642
 5564POPC   C3A71093   2.354  29.949   7.076
 5564POPC   C4A71094   2.069  29.928   7.441
 5564POPC   C1B71095   1.852  30.073   6.167
 5564POPC   C2B71096   1.830  30.235   6.597
 5564POPC   C3B71097   1.808  30.121   7.035
 5564POPC   C4B71098   1.557  30.133   7.405
 5565POPC   NC371099  20.918   6.016   5.403
 5565POPC   PO471100  20.389   5.583   5.270
 5565POPC   GL171101  20.327   5.696   5.724
 5565POPC   GL271102  20.657   5.768   5.767
 5565POPC   C1A71103  20.376   5.837   6.193
 5565POPC   D2A71104  20.460   6.060   6.607
 5565POPC   C3A71105  20.400   5.855   7.003
 5565POPC   C4A71106  20.363   5.828   7.438
 5565POPC   C1B71107  20.845   6.025   6.100
 5565POPC   C2B71108  20.971   6.034   6.520
 5565POPC   C3B71109  20.907   5.903   6.919
 5565POPC   C4B71110  21.135   5.986   7.293
 5566POPC   NC371111  24.313   8.771   5.392
 5566POPC   PO471112  24.411   9.410   5.283
 5566POPC   GL171113  24.627   9.210   5.680
 5566POPC   GL271114  24.639   8.832   5.824
 5566POPC   C1A71115  24.642   9.209   6.165
 5566POPC   D2A71116  24.461   8.919   6.494
 5566POPC   C3A71117  24.472   9.066   6.935
 5566POPC   C4A71118  24.479   8.952   7.384
 5566POPC   C1B71119  24.920   8.788   6.230
 5566POPC   C2B71120  24.944   8.963   6.686
 5566POPC   C3B71121  24.911   8.862   7.129
 5566POPC   C4B71122  25.062   9.056   7.524
 5567POPC   NC371123   4.583  12.830   5.570
 5567POPC   PO471124   4.039  13.148   5.413
 5567POPC   GL171125   4.109  12.896   5.827
 5567POPC   GL271126   4.108  12.517   5.781
 5567POPC   C1A71127   4.162  12.920   6.313
 5567POPC   D2A71128   4.154  12.741   6.747
 5567POPC   C3A71129   4.020  12.984   7.135
 5567POPC   C4A71130   4.090  12.971   7.645
 5567POPC   C1B71131   4.402  12.505   6.148
 5567POPC   C2B71132   4.622  12.555   6.534
 5567POPC   C3B71133   4.547  12.468   6.966
 5567POPC   C4B71134   4.361  12.666   7.307
 5568POPC   NC371135  40.368  17.614   5.546
 5568POPC   PO471136  39.766  17.402   5.377
 5568POPC   GL171137  39.883  17.562   5.788
 5568POPC   GL271138  40.185  17.477   5.992
 5568POPC   C1A71139  39.831  17.789   6.173
 5568POPC   D2A71140  39.858  17.629   6.598
 5568POPC   C3A71141  39.558  17.707   6.956
 5568POPC   C4A71142  39.731  17.651   7.384
 5568POPC   C1B71143  39.890  17.258   6.232
 5568POPC   C2B71144  39.983  17.103   6.638
 5568POPC   C3B71145  39.849  17.275   7.015
 5568POPC   C4B71146  39.529  17.173   7.264
 5569POPC   NC371147  38.858  14.217   5.496
 5569POPC   PO471148  39.545  14.155   5.651
 5569POPC   GL171149  39.501  14.562   5.818
 5569POPC   GL271150  39.151  14.559   5.788
 5569POPC   C1A71151  39.391  14.551   6.255
 5569POPC   D2A71152  39.429  14.160   6.513
 5569POPC   C3A71153  39.335  14.372   6.879
 5569POPC   C4A71154  39.333  14.506   7.284
 5569POPC   C1B71155  39.037  14.205   6.121
 5569POPC   C2B71156  38.931  14.117   6.557
 5569POPC   C3B71157  39.084  13.944   6.945
 5569POPC   C4B71158  38.964  14.129   7.327
 5570POPC   NC371159   4.720   5.183   5.379
 5570POPC   PO471160   4.086   5.237   5.403
 5570POPC   GL171161   4.325   4.960   5.662
 5570POPC   GL271162   4.042   4.907   5.859
 5570POPC   C1A71163   4.504   4.967   6.098
 5570POPC   D2A71164   4.316   4.897   6.521
 5570POPC   C3A71165   4.545   5.008   6.908
 5570POPC   C4A71166   4.580   4.832   7.319
 5570POPC   C1B71167   4.011   5.336   6.038
 5570POPC   C2B71168   3.964   5.518   6.467
 5570POPC   C3B71169   4.034   5.250   6.846
 5570POPC   C4B71170   4.196   5.157   7.257
 5571POPC   NC371171  39.501  42.535   5.317
 5571POPC   PO471172  39.088  42.074   5.514
 5571POPC   GL171173  39.052  42.363   5.851
 5571POPC   GL271174  39.387  42.488   5.834
 5571POPC   C1A71175  39.182  42.333   6.279
 5571POPC   D2A71176  39.343  42.448   6.673
 5571POPC   C3A71177  39.053  42.295   6.944
 5571POPC   C4A71178  38.981  41.979   7.221
 5571POPC   C1B71179  39.464  42.755   6.249
 5571POPC   C2B71180  39.612  42.910   6.651
 5571POPC   C3B71181  39.362  42.846   7.009
 5571POPC   C4B71182  39.387  42.471   7.240
 5572POPC   NC371183  38.342  35.568   5.207
 5572POPC   PO471184  38.617  34.963   5.318
 5572POPC   GL171185  38.593  35.168   5.713
 5572POPC   GL271186  38.666  35.543   5.734
 5572POPC   C1A71187  38.631  35.190   6.151
 5572POPC   D2A71188  38.729  35.230   6.563
 5572POPC   C3A71189  38.461  35.028   6.840
 5572POPC   C4A71190  38.616  35.157   7.209
 5572POPC   C1B71191  38.251  35.478   5.985
 5572POPC   C2B71192  38.212  35.372   6.457
 5572POPC   C3B71193  38.377  35.524   6.880
 5572POPC   C4B71194  38.581  35.661   7.290
 5573POPC   NC371195   8.366  32.636   5.403
 5573POPC   PO471196   8.025  33.227   5.389
 5573POPC   GL171197   8.074  32.974   5.752
 5573POPC   GL271198   8.416  32.958   5.819
 5573POPC   C1A71199   7.950  32.984   6.193
 5573POPC   D2A71200   8.209  32.968   6.551
 5573POPC   C3A71201   8.033  32.903   6.927
 5573POPC   C4A71202   7.900  32.709   7.304
 5573POPC   C1B71203   8.382  33.268   6.164
 5573POPC   C2B71204   8.497  33.400   6.591
 5573POPC   C3B71205   8.518  33.113   6.963
 5573POPC   C4B71206   8.496  33.072   7.430
 5574POPC   NC371207  11.649  23.835   5.038
 5574POPC   PO471208  11.074  23.727   5.338
 5574POPC   GL171209  11.244  23.678   5.804
 5574POPC   GL271210  11.569  23.862   5.937
 5574POPC   C1A71211  11.110  23.590   6.219
 5574POPC   D2A71212  11.050  23.540   6.636
 5574POPC   C3A71213  11.097  23.809   6.984
 5574POPC   C4A71214  11.190  23.460   7.233
 5574POPC   C1B71215  11.604  23.598   6.329
 5574POPC   C2B71216  11.526  23.547   6.801
 5574POPC   C3B71217  11.602  23.727   7.251
 5574POPC   C4B71218  11.504  23.902   7.690
 5575POPC   NC371219  37.433  15.763   5.478
 5575POPC   PO471220  38.048  16.076   5.536
 5575POPC   GL171221  37.684  16.051   5.825
 5575POPC   GL271222  37.475  15.751   5.977
 5575POPC   C1A71223  37.549  16.207   6.199
 5575POPC   D2A71224  37.496  16.279   6.609
 5575POPC   C3A71225  37.647  15.966   6.883
 5575POPC   C4A71226  37.862  16.067   7.255
 5575POPC   C1B71227  37.693  15.733   6.381
 5575POPC   C2B71228  38.027  15.651   6.669
 5575POPC   C3B71229  37.921  15.590   7.097
 5575POPC   C4B71230  37.459  15.662   7.259
 5576POPC   NC371231  10.318  27.248   5.450
 5576POPC   PO471232  10.487  26.592   5.523
 5576POPC   GL171233  10.394  26.683   5.887
 5576POPC   GL271234  10.072  26.817   5.763
 5576POPC   C1A71235  10.598  26.932   6.221
 5576POPC   D2A71236  10.820  27.172   6.548
 5576POPC   C3A71237  10.672  26.919   6.881
 5576POPC   C4A71238  10.569  26.825   7.283
 5576POPC   C1B71239  10.063  26.866   6.215
 5576POPC   C2B71240  10.235  26.719   6.578
 5576POPC   C3B71241  10.155  26.905   6.965
 5576POPC   C4B71242  10.057  26.878   7.383
 5577POPC   NC371243  22.359  22.039   5.492
 5577POPC   PO471244  21.678  22.188   5.393
 5577POPC   GL171245  21.927  22.073   5.771
 5577POPC   GL271246  22.205  22.325   5.921
 5577POPC   C1A71247  21.958  21.982   6.204
 5577POPC   D2A71248  22.202  22.157   6.532
 5577POPC   C3A71249  22.060  22.304   6.915
 5577POPC   C4A71250  22.069  21.974   7.216
 5577POPC   C1B71251  22.556  22.391   6.261
 5577POPC   C2B71252  22.548  22.493   6.712
 5577POPC   C3B71253  22.508  22.496   7.170
 5577POPC   C4B71254  22.512  22.622   7.597
 5578POPC   NC371255  25.889   0.075   5.476
 5578POPC   PO471256  25.773  44.398   5.431
 5578POPC   GL171257  26.072  44.643   5.748
 5578POPC   GL271258  26.248   0.004   5.817
 5578POPC   C1A71259  26.195  44.539   6.165
 5578POPC   D2A71260  26.105  44.313   6.552
 5578POPC   C3A71261  26.045  44.503   6.972
 5578POPC   C4A71262  26.027  44.730   7.393
 5578POPC   C1B71263  25.978   0.003   6.169
 5578POPC   C2B71264  25.992  44.826   6.570
 5578POPC   C3B71265  25.961   0.010   6.978
 5578POPC   C4B71266  25.621   0.052   7.253
 5579POPC   NC371267  12.278  33.287   5.547
 5579POPC   PO471268  11.997  33.926   5.349
 5579POPC   GL171269  12.197  33.742   5.733
 5579POPC   GL271270  11.892  33.559   5.790
 5579POPC   C1A71271  12.276  33.586   6.183
 5579POPC   D2A71272  12.365  33.751   6.609
 5579POPC   C3A71273  12.279  33.621   7.048
 5579POPC   C4A71274  12.455  33.755   7.461
 5579POPC   C1B71275  11.842  33.920   6.046
 5579POPC   C2B71276  11.881  33.856   6.461
 5579POPC   C3B71277  11.606  33.862   6.814
 5579POPC   C4B71278  11.628  34.001   7.214
 5580POPC   NC371279  34.207  22.525   5.414
 5580POPC   PO471280  34.553  21.923   5.480
 5580POPC   GL171281  34.526  22.103   5.839
 5580POPC   GL271282  34.587  22.466   5.852
 5580POPC   C1A71283  34.416  22.186   6.257
 5580POPC   D2A71284  34.491  21.943   6.614
 5580POPC   C3A71285  34.404  22.044   7.037
 5580POPC   C4A71286  34.689  21.826   7.312
 5580POPC   C1B71287  34.921  22.232   6.126
 5580POPC   C2B71288  35.086  22.188   6.532
 5580POPC   C3B71289  34.901  22.101   6.916
 5580POPC   C4B71290  34.753  22.353   7.266
 5581POPC   NC371291  38.023  40.809   5.470
 5581POPC   PO471292  37.343  40.922   5.528
 5581POPC   GL171293  37.647  41.075   5.781
 5581POPC   GL271294  37.727  40.733   5.902
 5581POPC   C1A71295  37.803  41.119   6.218
 5581POPC   D2A71296  37.816  40.806   6.560
 5581POPC   C3A71297  37.812  41.038   6.975
 5581POPC   C4A71298  37.522  41.093   7.313
 5581POPC   C1B71299  37.389  40.517   6.173
 5581POPC   C2B71300  37.352  40.390   6.619
 5581POPC   C3B71301  37.487  40.627   6.979
 5581POPC   C4B71302  37.757  40.637   7.306
 5582POPC   NC371303  40.624  38.591   5.549
 5582POPC   PO471304  41.258  38.831   5.283
 5582POPC   GL171305  41.083  38.803   5.793
 5582POPC   GL271306  41.141  38.478   6.046
 5582POPC   C1A71307  40.758  38.740   6.198
 5582POPC   D2A71308  40.902  38.461   6.587
 5582POPC   C3A71309  40.859  38.631   7.010
 5582POPC   C4A71310  40.586  38.608   7.295
 5582POPC   C1B71311  40.748  38.193   6.183
 5582POPC   C2B71312  40.560  37.987   6.584
 5582POPC   C3B71313  40.613  38.118   7.032
 5582POPC   C4B71314  40.989  38.191   7.205
 5583POPC   NC371315  44.443   0.669   5.398
 5583POPC   PO471316  44.882   0.189   5.355
 5583POPC   GL171317  44.798   0.476   5.708
 5583POPC   GL271318  44.512   0.305   5.769
 5583POPC   C1A71319  44.667   0.651   6.117
 5583POPC   D2A71320  44.703   0.464   6.536
 5583POPC   C3A71321  44.645   0.616   6.960
 5583POPC   C4A71322  44.922   0.413   7.249
 5583POPC   C1B71323  44.492   0.164   6.159
 5583POPC   C2B71324  44.235   0.184   6.505
 5583POPC   C3B71325  44.148   0.390   6.870
 5583POPC   C4B71326  44.287   0.387   7.265
 5584POPC   NC371327   6.262  38.396   5.651
 5584POPC   PO471328   6.800  38.837   5.546
 5584POPC   GL171329   6.725  38.505   5.862
 5584POPC   GL271330   7.042  38.441   6.046
 5584POPC   C1A71331   6.661  38.153   6.171
 5584POPC   D2A71332   6.717  38.289   6.595
 5584POPC   C3A71333   6.339  38.195   6.827
 5584POPC   C4A71334   6.391  38.092   7.246
 5584POPC   C1B71335   6.834  38.781   6.303
 5584POPC   C2B71336   6.918  38.954   6.722
 5584POPC   C3B71337   6.749  38.961   7.137
 5584POPC   C4B71338   6.553  38.597   7.298
 5585POPC   NC371339  43.115  23.491   5.286
 5585POPC   PO471340  43.595  23.415   5.667
 5585POPC   GL171341  43.176  23.674   5.755
 5585POPC   GL271342  42.814  23.494   5.724
 5585POPC   C1A71343  42.946  23.755   6.151
 5585POPC   D2A71344  43.180  23.837   6.537
 5585POPC   C3A71345  42.976  23.936   6.935
 5585POPC   C4A71346  43.086  23.869   7.351
 5585POPC   C1B71347  43.074  23.286   6.046
 5585POPC   C2B71348  43.216  23.322   6.456
 5585POPC   C3B71349  43.209  23.450   6.883
 5585POPC   C4B71350  43.149  23.272   7.274
 5586POPC   NC371351  22.243  38.337   5.447
 5586POPC   PO471352  21.667  38.380   5.192
 5586POPC   GL171353  21.819  38.483   5.707
 5586POPC   GL271354  22.162  38.592   5.863
 5586POPC   C1A71355  21.872  38.363   6.190
 5586POPC   D2A71356  22.022  38.198   6.593
 5586POPC   C3A71357  22.005  38.399   7.025
 5586POPC   C4A71358  22.125  38.249   7.485
 5586POPC   C1B71359  22.282  38.703   6.247
 5586POPC   C2B71360  22.425  38.535   6.652
 5586POPC   C3B71361  22.450  38.652   7.082
 5586POPC   C4B71362  22.501  38.622   7.537
 5587POPC   NC371363  23.246   9.480   5.376
 5587POPC   PO471364  22.569   9.505   5.327
 5587POPC   GL171365  22.680   9.606   5.750
 5587POPC   GL271366  22.998   9.749   5.755
 5587POPC   C1A71367  22.692   9.866   6.151
 5587POPC   D2A71368  22.887  10.110   6.457
 5587POPC   C3A71369  22.893  10.056   6.904
 5587POPC   C4A71370  22.735   9.705   7.162
 5587POPC   C1B71371  23.097   9.552   6.193
 5587POPC   C2B71372  23.161   9.648   6.689
 5587POPC   C3B71373  23.248   9.576   7.168
 5587POPC   C4B71374  23.164   9.665   7.636
 5588POPC   NC371375  24.681  20.496   5.357
 5588POPC   PO471376  24.011  20.639   5.391
 5588POPC   GL171377  24.334  20.642   5.717
 5588POPC   GL271378  24.535  20.944   5.602
 5588POPC   C1A71379  24.503  20.456   6.153
 5588POPC   D2A71380  24.412  20.505   6.637
 5588POPC   C3A71381  24.612  20.349   7.046
 5588POPC   C4A71382  24.719  20.480   7.480
 5588POPC   C1B71383  24.540  20.974   6.061
 5588POPC   C2B71384  24.690  20.981   6.490
 5588POPC   C3B71385  24.752  20.819   6.886
 5588POPC   C4B71386  25.085  20.738   7.150
 5589POPC   NC371387  12.528   6.745   5.181
 5589POPC   PO471388  11.886   6.653   5.340
 5589POPC   GL171389  12.226   6.641   5.640
 5589POPC   GL271390  11.982   6.763   5.874
 5589POPC   C1A71391  12.420   6.593   6.074
 5589POPC   D2A71392  12.367   6.529   6.542
 5589POPC   C3A71393  12.110   6.734   6.885
 5589POPC   C4A71394  12.133   6.629   7.341
 5589POPC   C1B71395  11.810   7.048   6.185
 5589POPC   C2B71396  11.953   7.174   6.608
 5589POPC   C3B71397  11.709   7.068   6.959
 5589POPC   C4B71398  11.718   6.895   7.357
 5590POPC   NC371399  39.625  36.868   5.436
 5590POPC   PO471400  39.088  37.260   5.333
 5590POPC   GL171401  39.164  36.946   5.673
 5590POPC   GL271402  39.235  36.610   5.772
 5590POPC   C1A71403  39.312  37.001   6.100
 5590POPC   D2A71404  39.544  36.819   6.424
 5590POPC   C3A71405  39.360  36.957   6.789
 5590POPC   C4A71406  39.269  36.874   7.196
 5590POPC   C1B71407  39.271  36.449   6.176
 5590POPC   C2B71408  39.132  36.536   6.580
 5590POPC   C3B71409  39.127  36.438   7.001
 5590POPC   C4B71410  39.054  36.480   7.433
 5591POPC   NC371411  35.601  14.229   5.603
 5591POPC   PO471412  35.057  14.579   5.450
 5591POPC   GL171413  34.939  14.486   5.866
 5591POPC   GL271414  35.273  14.479   5.909
 5591POPC   C1A71415  35.013  14.308   6.285
 5591POPC   D2A71416  35.373  14.196   6.513
 5591POPC   C3A71417  35.259  14.174   6.932
 5591POPC   C4A71418  35.021  14.343   7.263
 5591POPC   C1B71419  35.311  14.753   6.234
 5591POPC   C2B71420  35.448  14.709   6.638
 5591POPC   C3B71421  35.381  14.668   7.047
 5591POPC   C4B71422  35.580  14.359   7.276
 5592POPC   NC371423   6.116   6.937   5.625
 5592POPC   PO471424   5.643   6.465   5.342
 5592POPC   GL171425   5.702   6.501   5.776
 5592POPC   GL271426   5.569   6.827   5.808
 5592POPC   C1A71427   5.907   6.462   6.200
 5592POPC   D2A71428   6.223   6.621   6.553
 5592POPC   C3A71429   6.128   6.546   7.017
 5592POPC   C4A71430   6.000   6.614   7.482
 5592POPC   C1B71431   5.719   6.947   6.205
 5592POPC   C2B71432   5.725   6.746   6.602
 5592POPC   C3B71433   5.710   6.829   7.010
 5592POPC   C4B71434   5.497   6.655   7.320
 5593POPC   NC371435  42.049   5.307   5.376
 5593POPC   PO471436  41.402   4.990   5.432
 5593POPC   GL171437  41.655   5.149   5.726
 5593POPC   GL271438  41.943   4.964   5.773
 5593POPC   C1A71439  41.730   5.303   6.131
 5593POPC   D2A71440  41.568   5.494   6.486
 5593POPC   C3A71441  41.571   5.274   6.882
 5593POPC   C4A71442  41.567   5.457   7.282
 5593POPC   C1B71443  41.781   4.784   6.149
 5593POPC   C2B71444  41.567   4.883   6.511
 5593POPC   C3B71445  41.675   4.773   6.925
 5593POPC   C4B71446  41.698   4.959   7.342
 5594POPC   NC371447  33.496   7.424   5.407
 5594POPC   PO471448  34.140   7.034   5.414
 5594POPC   GL171449  33.791   7.075   5.739
 5594POPC   GL271450  33.742   7.444   5.868
 5594POPC   C1A71451  33.801   7.069   6.204
 5594POPC   D2A71452  33.946   7.372   6.530
 5594POPC   C3A71453  33.881   7.315   6.974
 5594POPC   C4A71454  34.115   7.378   7.383
 5594POPC   C1B71455  33.526   7.548   6.287
 5594POPC   C2B71456  33.477   7.636   6.755
 5594POPC   C3B71457  33.398   7.864   7.148
 5594POPC   C4B71458  33.485   8.032   7.586
 5595POPC   NC371459   8.021   5.568   5.569
 5595POPC   PO471460   8.199   6.209   5.434
 5595POPC   GL171461   8.217   6.000   5.820
 5595POPC   GL271462   8.461   5.742   5.914
 5595POPC   C1A71463   8.078   5.904   6.237
 5595POPC   D2A71464   7.795   5.864   6.586
 5595POPC   C3A71465   8.118   5.874   6.886
 5595POPC   C4A71466   8.190   6.039   7.272
 5595POPC   C1B71467   8.601   6.053   6.189
 5595POPC   C2B71468   8.413   6.171   6.566
 5595POPC   C3B71469   8.567   6.139   6.962
 5595POPC   C4B71470   8.645   5.768   7.147
 5596POPC   NC371471  43.241  26.140   5.481
 5596POPC   PO471472  42.742  25.558   5.479
 5596POPC   GL171473  43.109  25.762   5.807
 5596POPC   GL271474  43.072  26.138   5.959
 5596POPC   C1A71475  43.406  25.829   6.207
 5596POPC   D2A71476  43.386  26.087   6.586
 5596POPC   C3A71477  43.124  25.942   6.916
 5596POPC   C4A71478  42.816  25.818   7.223
 5596POPC   C1B71479  43.392  26.425   6.155
 5596POPC   C2B71480  43.496  26.608   6.554
 5596POPC   C3B71481  43.203  26.480   6.864
 5596POPC   C4B71482  42.994  26.323   7.228
 5597POPC   NC371483   2.533  25.265   5.413
 5597POPC   PO471484   3.111  24.969   5.602
 5597POPC   GL171485   2.808  25.195   5.845
 5597POPC   GL271486   2.597  25.510   5.852
 5597POPC   C1A71487   2.808  25.313   6.255
 5597POPC   D2A71488   2.709  25.507   6.596
 5597POPC   C3A71489   2.927  25.336   6.890
 5597POPC   C4A71490   2.863  25.336   7.290
 5597POPC   C1B71491   2.318  25.259   6.106
 5597POPC   C2B71492   2.328  25.183   6.553
 5597POPC   C3B71493   2.388  25.340   6.996
 5597POPC   C4B71494   2.342  25.102   7.392
 5598POPC   NC371495  32.281  14.007   4.859
 5598POPC   PO471496  32.144  13.588   5.372
 5598POPC   GL171497  32.138  13.321   5.807
 5598POPC   GL271498  31.863  13.242   5.975
 5598POPC   C1A71499  32.283  13.206   6.261
 5598POPC   D2A71500  32.080  13.264   6.707
 5598POPC   C3A71501  32.329  13.475   7.021
 5598POPC   C4A71502  32.534  13.901   7.077
 5598POPC   C1B71503  31.968  13.606   6.271
 5598POPC   C2B71504  31.953  13.775   6.717
 5598POPC   C3B71505  31.979  13.812   7.186
 5598POPC   C4B71506  31.873  13.890   7.647
 5599POPC   NC371507  39.400  12.593   5.337
 5599POPC   PO471508  38.784  12.455   5.483
 5599POPC   GL171509  39.041  12.749   5.731
 5599POPC   GL271510  39.207  13.044   5.674
 5599POPC   C1A71511  38.923  12.997   6.096
 5599POPC   D2A71512  39.120  13.089   6.480
 5599POPC   C3A71513  38.959  12.943   6.861
 5599POPC   C4A71514  39.025  13.111   7.257
 5599POPC   C1B71515  39.423  13.163   6.070
 5599POPC   C2B71516  39.638  13.176   6.474
 5599POPC   C3B71517  39.470  13.133   6.898
 5599POPC   C4B71518  39.546  13.096   7.322
 5600POPC   NC371519   8.197   7.911   5.377
 5600POPC   PO471520   8.201   7.202   5.310
 5600POPC   GL171521   8.193   7.453   5.690
 5600POPC   GL271522   7.873   7.590   5.661
 5600POPC   C1A71523   8.359   7.384   6.122
 5600POPC   D2A71524   8.197   7.119   6.446
 5600POPC   C3A71525   8.297   7.225   6.862
 5600POPC   C4A71526   8.391   7.064   7.270
 5600POPC   C1B71527   7.852   7.326   6.053
 5600POPC   C2B71528   7.751   7.379   6.483
 5600POPC   C3B71529   7.744   7.564   6.886
 5600POPC   C4B71530   7.930   7.351   7.213
 5601POPC   NC371531  44.054  15.061   5.501
 5601POPC   PO471532  43.687  15.601   5.423
 5601POPC   GL171533  43.895  15.449   5.814
 5601POPC   GL271534  44.278  15.417   5.812
 5601POPC   C1A71535  44.054  15.526   6.248
 5601POPC   D2A71536  44.038  15.641   6.664
 5601POPC   C3A71537  43.733  15.415   6.847
 5601POPC   C4A71538  43.818  15.218   7.214
 5601POPC   C1B71539  44.255  15.060   6.161
 5601POPC   C2B71540  44.158  15.111   6.624
 5601POPC   C3B71541  44.274  15.221   7.063
 5601POPC   C4B71542  44.163  14.947   7.478
 5602POPC   NC371543   4.215   9.638   5.384
 5602POPC   PO471544   4.595  10.130   5.557
 5602POPC   GL171545   4.432   9.860   5.845
 5602POPC   GL271546   4.104   9.962   5.793
 5602POPC   C1A71547   4.461   9.692   6.265
 5602POPC   D2A71548   4.714   9.533   6.602
 5602POPC   C3A71549   4.626   9.854   6.919
 5602POPC   C4A71550   4.230   9.906   7.122
 5602POPC   C1B71551   4.028   9.553   6.030
 5602POPC   C2B71552   4.026   9.355   6.463
 5602POPC   C3B71553   4.168   9.460   6.864
 5602POPC   C4B71554   4.020   9.465   7.290
 5603POPC   NC371555  11.200  18.423   5.382
 5603POPC   PO471556  11.868  18.636   5.343
 5603POPC   GL171557  11.643  18.326   5.708
 5603POPC   GL271558  11.307  18.426   5.873
 5603POPC   C1A71559  11.614  18.219   6.210
 5603POPC   D2A71560  11.297  18.064   6.531
 5603POPC   C3A71561  11.424  18.070   6.961
 5603POPC   C4A71562  11.532  18.501   6.988
 5603POPC   C1B71563  11.163  18.534   6.295
 5603POPC   C2B71564  11.053  18.499   6.732
 5603POPC   C3B71565  10.940  18.221   7.083
 5603POPC   C4B71566  11.166  18.231   7.476
 5604POPC   NC371567   1.650  25.438   5.399
 5604POPC   PO471568   2.119  24.971   5.471
 5604POPC   GL171569   1.939  25.181   5.754
 5604POPC   GL271570   2.107  25.491   5.647
 5604POPC   C1A71571   1.790  25.112   6.176
 5604POPC   D2A71572   1.618  25.131   6.583
 5604POPC   C3A71573   1.921  25.110   6.879
 5604POPC   C4A71574   1.876  25.292   7.298
 5604POPC   C1B71575   1.919  25.590   6.035
 5604POPC   C2B71576   1.959  25.522   6.469
 5604POPC   C3B71577   1.936  25.611   6.898
 5604POPC   C4B71578   2.124  25.767   7.227
 5605POPC   NC371579  14.969  27.286   5.453
 5605POPC   PO471580  14.310  27.563   5.408
 5605POPC   GL171581  14.426  27.656   5.801
 5605POPC   GL271582  14.740  27.826   5.733
 5605POPC   C1A71583  14.344  27.514   6.224
 5605POPC   D2A71584  14.248  27.384   6.621
 5605POPC   C3A71585  14.326  27.684   6.929
 5605POPC   C4A71586  14.419  27.505   7.304
 5605POPC   C1B71587  14.676  27.910   6.160
 5605POPC   C2B71588  14.407  27.994   6.492
 5605POPC   C3B71589  14.668  28.089   6.832
 5605POPC   C4B71590  14.625  27.966   7.245
 5606POPC   NC371591  14.226  26.759   5.232
 5606POPC   PO471592  14.896  26.821   5.343
 5606POPC   GL171593  14.564  26.773   5.713
 5606POPC   GL271594  14.203  26.686   5.744
 5606POPC   C1A71595  14.458  26.977   6.145
 5606POPC   D2A71596  14.660  27.096   6.560
 5606POPC   C3A71597  14.495  27.058   6.996
 5606POPC   C4A71598  14.553  26.685   7.277
 5606POPC   C1B71599  14.050  26.655   6.167
 5606POPC   C2B71600  14.291  26.626   6.527
 5606POPC   C3B71601  14.184  26.628   6.927
 5606POPC   C4B71602  14.021  26.925   7.160
 5607POPC   NC371603  36.898   2.420   5.364
 5607POPC   PO471604  36.911   1.823   5.414
 5607POPC   GL171605  36.854   2.071   5.794
 5607POPC   GL271606  36.544   1.901   5.865
 5607POPC   C1A71607  36.969   1.996   6.261
 5607POPC   D2A71608  36.972   1.634   6.579
 5607POPC   C3A71609  36.996   1.770   7.036
 5607POPC   C4A71610  37.246   2.103   7.205
 5607POPC   C1B71611  36.528   2.257   6.162
 5607POPC   C2B71612  36.661   2.352   6.599
 5607POPC   C3B71613  36.442   2.306   6.991
 5607POPC   C4B71614  36.368   1.943   7.266
 5608POPC   NC371615  44.304   1.383   5.413
 5608POPC   PO471616  44.933   1.170   5.167
 5608POPC   GL171617  44.800   1.194   5.629
 5608POPC   GL271618  44.477   1.029   5.763
 5608POPC   C1A71619  44.775   1.291   6.095
 5608POPC   D2A71620  44.780   1.007   6.473
 5608POPC   C3A71621  44.697   1.119   6.885
 5608POPC   C4A71622  44.964   1.246   7.214
 5608POPC   C1B71623  44.333   1.037   6.201
 5608POPC   C2B71624  44.301   0.790   6.585
 5608POPC   C3B71625  44.239   0.923   7.034
 5608POPC   C4B71626  44.445   1.150   7.370
 5609POPC   NC371627   4.618  31.627   5.319
 5609POPC   PO471628   4.430  30.954   5.315
 5609POPC   GL171629   4.474  31.219   5.747
 5609POPC   GL271630   4.248  31.546   5.793
 5609POPC   C1A71631   4.304  31.252   6.205
 5609POPC   D2A71632   4.101  31.330   6.631
 5609POPC   C3A71633   4.386  31.433   7.000
 5609POPC   C4A71634   4.805  31.504   7.161
 5609POPC   C1B71635   4.206  31.744   6.267
 5609POPC   C2B71636   4.242  31.874   6.696
 5609POPC   C3B71637   4.072  31.851   7.104
 5609POPC   C4B71638   3.841  31.555   7.343
 5610POPC   NC371639  37.328  37.475   5.528
 5610POPC   PO471640  36.708  37.770   5.461
 5610POPC   GL171641  36.840  37.732   5.878
 5610POPC   GL271642  37.168  37.745   5.913
 5610POPC   C1A71643  36.712  37.797   6.332
 5610POPC   D2A71644  36.761  37.739   6.796
 5610POPC   C3A71645  36.635  37.365   7.080
 5610POPC   C4A71646  36.480  37.245   7.526
 5610POPC   C1B71647  37.365  37.472   6.217
 5610POPC   C2B71648  37.222  37.385   6.643
 5610POPC   C3B71649  37.195  37.598   7.032
 5610POPC   C4B71650  36.964  37.916   7.234
 5611POPC   NC371651   8.326  34.315   5.610
 5611POPC   PO471652   8.904  34.752   5.492
 5611POPC   GL171653   9.022  34.722   5.885
 5611POPC   GL271654   9.073  34.352   5.831
 5611POPC   C1A71655   8.977  34.766   6.322
 5611POPC   D2A71656   9.181  34.500   6.626
 5611POPC   C3A71657   9.093  34.523   7.044
 5611POPC   C4A71658   9.231  34.877   7.269
 5611POPC   C1B71659   8.729  34.351   6.120
 5611POPC   C2B71660   8.648  34.420   6.539
 5611POPC   C3B71661   8.595  34.289   6.933
 5611POPC   C4B71662   8.690  34.290   7.321
 5612POPC   NC371663  35.812  15.046   5.332
 5612POPC   PO471664  36.357  15.490   5.433
 5612POPC   GL171665  36.027  15.361   5.708
 5612POPC   GL271666  36.102  15.013   5.759
 5612POPC   C1A71667  36.136  15.377   6.148
 5612POPC   D2A71668  36.304  15.274   6.528
 5612POPC   C3A71669  36.091  15.396   6.883
 5612POPC   C4A71670  35.922  15.352   7.285
 5612POPC   C1B71671  36.232  14.849   6.158
 5612POPC   C2B71672  36.309  14.735   6.581
 5612POPC   C3B71673  36.289  14.942   6.966
 5612POPC   C4B71674  36.406  14.915   7.397
 5613POPC   NC371675   8.437  40.994   5.469
 5613POPC   PO471676   7.933  40.585   5.497
 5613POPC   GL171677   8.145  40.657   5.842
 5613POPC   GL271678   8.027  40.979   5.851
 5613POPC   C1A71679   8.307  40.675   6.235
 5613POPC   D2A71680   8.278  40.924   6.580
 5613POPC   C3A71681   8.276  40.723   6.972
 5613POPC   C4A71682   8.193  40.904   7.371
 5613POPC   C1B71683   7.828  40.927   6.231
 5613POPC   C2B71684   7.791  41.100   6.637
 5613POPC   C3B71685   8.057  41.204   6.975
 5613POPC   C4B71686   7.905  41.358   7.365
 5614POPC   NC371687   3.732   4.944   5.448
 5614POPC   PO471688   3.369   5.532   5.330
 5614POPC   GL171689   3.552   5.347   5.728
 5614POPC   GL271690   3.494   5.006   5.884
 5614POPC   C1A71691   3.529   5.461   6.171
 5614POPC   D2A71692   3.514   5.265   6.585
 5614POPC   C3A71693   3.240   5.404   6.929
 5614POPC   C4A71694   3.355   5.517   7.349
 5614POPC   C1B71695   3.733   4.946   6.254
 5614POPC   C2B71696   3.808   4.797   6.661
 5614POPC   C3B71697   3.774   4.858   7.097
 5614POPC   C4B71698   3.744   5.092   7.467
 5615POPC   NC371699  43.229  15.605   5.352
 5615POPC   PO471700  42.756  15.120   5.407
 5615POPC   GL171701  42.943  15.249   5.770
 5615POPC   GL271702  43.272  15.066   5.794
 5615POPC   C1A71703  43.106  15.346   6.188
 5615POPC   D2A71704  43.261  15.297   6.615
 5615POPC   C3A71705  42.932  15.119   6.906
 5615POPC   C4A71706  42.687  15.058   7.292
 5615POPC   C1B71707  43.580  15.082   6.175
 5615POPC   C2B71708  43.654  14.938   6.629
 5615POPC   C3B71709  43.414  15.019   7.016
 5615POPC   C4B71710  43.201  15.112   7.389
 5616POPC   NC371711   3.147  17.600   5.391
 5616POPC   PO471712   2.521  17.524   5.400
 5616POPC   GL171713   2.777  17.436   5.734
 5616POPC   GL271714   2.513  17.247   5.852
 5616POPC   C1A71715   3.021  17.456   6.120
 5616POPC   D2A71716   3.133  17.625   6.502
 5616POPC   C3A71717   2.990  17.588   6.932
 5616POPC   C4A71718   2.879  17.987   7.132
 5616POPC   C1B71719   2.507  17.489   6.203
 5616POPC   C2B71720   2.604  17.461   6.626
 5616POPC   C3B71721   2.515  17.481   7.088
 5616POPC   C4B71722   2.420  17.431   7.571
 5617POPC   NC371723  21.815  42.175   5.137
 5617POPC   PO471724  21.217  42.149   5.519
 5617POPC   GL171725  21.550  42.169   5.880
 5617POPC   GL271726  21.819  42.451   5.859
 5617POPC   C1A71727  21.530  42.125   6.351
 5617POPC   D2A71728  21.650  42.329   6.749
 5617POPC   C3A71729  21.500  42.134   7.111
 5617POPC   C4A71730  21.113  42.091   7.246
 5617POPC   C1B71731  21.662  42.605   6.279
 5617POPC   C2B71732  21.302  42.675   6.657
 5617POPC   C3B71733  21.308  42.634   7.121
 5617POPC   C4B71734  21.619  42.512   7.452
 5618POPC   NC371735  34.605  39.428   5.096
 5618POPC   PO471736  34.177  39.035   5.524
 5618POPC   GL171737  34.560  39.037   5.784
 5618POPC   GL271738  34.612  39.393   5.696
 5618POPC   C1A71739  34.649  39.201   6.227
 5618POPC   D2A71740  34.344  39.412   6.529
 5618POPC   C3A71741  34.329  39.338   6.981
 5618POPC   C4A71742  34.570  39.010   7.166
 5618POPC   C1B71743  34.795  39.654   6.029
 5618POPC   C2B71744  34.935  39.675   6.473
 5618POPC   C3B71745  34.802  39.557   6.890
 5618POPC   C4B71746  34.965  39.298   7.254
 5619POPC   NC371747   0.927   0.586   5.357
 5619POPC   PO471748   1.589   0.563   5.412
 5619POPC   GL171749   1.273   0.499   5.737
 5619POPC   GL271750   1.110   0.156   5.740
 5619POPC   C1A71751   1.033   0.536   6.124
 5619POPC   D2A71752   1.065   0.362   6.543
 5619POPC   C3A71753   0.855   0.445   6.897
 5619POPC   C4A71754   1.052   0.695   7.199
 5619POPC   C1B71755   1.232   0.049   6.189
 5619POPC   C2B71756   1.254  44.905   6.637
 5619POPC   C3B71757   1.312   0.182   7.002
 5619POPC   C4B71758   1.016   0.206   7.336
 5620POPC   NC371759   6.109  35.123   5.350
 5620POPC   PO471760   5.904  34.473   5.477
 5620POPC   GL171761   6.031  34.433   5.844
 5620POPC   GL271762   6.026  34.791   5.843
 5620POPC   C1A71763   6.134  34.478   6.255
 5620POPC   D2A71764   6.029  34.612   6.655
 5620POPC   C3A71765   6.112  34.360   6.987
 5620POPC   C4A71766   5.927  34.413   7.407
 5620POPC   C1B71767   5.892  34.928   6.246
 5620POPC   C2B71768   5.590  34.843   6.611
 5620POPC   C3B71769   5.726  34.827   7.071
 5620POPC   C4B71770   5.668  34.820   7.566
 5621POPC   NC371771  20.033  42.078   5.544
 5621POPC   PO471772  19.538  42.496   5.544
 5621POPC   GL171773  19.816  42.386   5.887
 5621POPC   GL271774  20.170  42.499   5.785
 5621POPC   C1A71775  19.668  42.385   6.306
 5621POPC   D2A71776  19.584  42.681   6.636
 5621POPC   C3A71777  19.633  42.413   6.947
 5621POPC   C4A71778  19.946  42.259   7.204
 5621POPC   C1B71779  20.157  42.614   6.210
 5621POPC   C2B71780  20.068  42.500   6.629
 5621POPC   C3B71781  20.324  42.507   6.981
 5621POPC   C4B71782  20.316  42.557   7.428
 5622POPC   NC371783  32.194  42.769   5.514
 5622POPC   PO471784  32.557  42.213   5.429
 5622POPC   GL171785  32.278  42.307   5.801
 5622POPC   GL271786  31.944  42.136   5.887
 5622POPC   C1A71787  32.362  42.533   6.194
 5622POPC   D2A71788  32.204  42.526   6.627
 5622POPC   C3A71789  32.424  42.429   6.972
 5622POPC   C4A71790  32.431  42.027   7.139
 5622POPC   C1B71791  31.877  42.455   6.237
 5622POPC   C2B71792  31.676  42.545   6.663
 5622POPC   C3B71793  31.849  42.383   7.078
 5622POPC   C4B71794  31.720  42.403   7.537
 5623POPC   NC371795  30.678  39.285   5.443
 5623POPC   PO471796  30.785  38.658   5.645
 5623POPC   GL171797  30.551  39.004   5.839
 5623POPC   GL271798  30.870  39.206   5.891
 5623POPC   C1A71799  30.499  39.175   6.243
 5623POPC   D2A71800  30.705  39.002   6.590
 5623POPC   C3A71801  30.684  39.253   6.921
 5623POPC   C4A71802  30.851  39.321   7.304
 5623POPC   C1B71803  30.943  39.524   6.170
 5623POPC   C2B71804  31.034  39.406   6.560
 5623POPC   C3B71805  31.182  39.419   6.930
 5623POPC   C4B71806  31.180  39.689   7.286
 5624POPC   NC371807  24.343  17.751   4.793
 5624POPC   PO471808  24.570  17.489   5.369
 5624POPC   GL171809  24.586  17.512   5.781
 5624POPC   GL271810  24.803  17.231   5.835
 5624POPC   C1A71811  24.669  17.634   6.200
 5624POPC   D2A71812  24.439  17.542   6.555
 5624POPC   C3A71813  24.539  17.603   6.941
 5624POPC   C4A71814  24.220  17.792   7.186
 5624POPC   C1B71815  24.661  17.127   6.266
 5624POPC   C2B71816  24.827  17.236   6.693
 5624POPC   C3B71817  24.708  17.081   7.113
 5624POPC   C4B71818  24.486  17.146   7.537
 5625POPC   NC371819  29.770  14.813   5.202
 5625POPC   PO471820  29.912  15.353   5.535
 5625POPC   GL171821  29.623  15.201   5.845
 5625POPC   GL271822  29.563  15.511   5.981
 5625POPC   C1A71823  29.718  14.976   6.237
 5625POPC   D2A71824  30.011  15.071   6.575
 5625POPC   C3A71825  29.912  14.976   6.987
 5625POPC   C4A71826  30.001  15.248   7.313
 5625POPC   C1B71827  29.754  15.483   6.398
 5625POPC   C2B71828  29.909  15.524   6.836
 5625POPC   C3B71829  29.923  15.735   7.276
 5625POPC   C4B71830  29.747  15.507   7.682
 5626POPC   NC371831  39.632   4.862   5.401
 5626POPC   PO471832  39.128   5.354   5.377
 5626POPC   GL171833  39.369   5.218   5.772
 5626POPC   GL271834  39.498   4.874   5.890
 5626POPC   C1A71835  39.208   5.129   6.222
 5626POPC   D2A71836  39.265   4.791   6.540
 5626POPC   C3A71837  39.174   4.809   6.998
 5626POPC   C4A71838  39.139   4.712   7.471
 5626POPC   C1B71839  39.736   5.144   6.157
 5626POPC   C2B71840  39.609   5.223   6.569
 5626POPC   C3B71841  39.581   5.153   7.004
 5626POPC   C4B71842  39.780   5.418   7.302
 5627POPC   NC371843  32.487  23.218   5.108
 5627POPC   PO471844  32.023  22.783   5.375
 5627POPC   GL171845  32.274  22.934   5.778
 5627POPC   GL271846  32.564  23.205   5.774
 5627POPC   C1A71847  32.354  23.010   6.247
 5627POPC   D2A71848  32.210  23.167   6.647
 5627POPC   C3A71849  32.262  22.944   7.008
 5627POPC   C4A71850  32.484  22.804   7.344
 5627POPC   C1B71851  32.607  23.444   6.160
 5627POPC   C2B71852  32.703  23.308   6.556
 5627POPC   C3B71853  32.570  23.341   6.997
 5627POPC   C4B71854  32.350  23.267   7.462
 5628POPC   NC371855  13.739  29.528   5.273
 5628POPC   PO471856  13.180  29.898   5.419
 5628POPC   GL171857  13.347  30.001   5.847
 5628POPC   GL271858  13.622  29.748   5.859
 5628POPC   C1A71859  13.390  29.944   6.324
 5628POPC   D2A71860  13.742  30.109   6.619
 5628POPC   C3A71861  13.671  30.118   7.060
 5628POPC   C4A71862  13.248  30.080   7.193
 5628POPC   C1B71863  13.624  29.487   6.234
 5628POPC   C2B71864  13.589  29.604   6.673
 5628POPC   C3B71865  13.512  29.633   7.107
 5628POPC   C4B71866  13.709  29.446   7.439
 5629POPC   NC371867   8.010  24.530   5.432
 5629POPC   PO471868   8.512  24.081   5.635
 5629POPC   GL171869   8.219  24.340   5.855
 5629POPC   GL271870   7.829  24.300   5.857
 5629POPC   C1A71871   8.190  24.521   6.235
 5629POPC   D2A71872   8.418  24.734   6.538
 5629POPC   C3A71873   8.470  24.559   6.928
 5629POPC   C4A71874   8.356  24.468   7.349
 5629POPC   C1B71875   7.733  24.683   6.111
 5629POPC   C2B71876   7.876  24.763   6.584
 5629POPC   C3B71877   7.954  24.610   7.038
 5629POPC   C4B71878   8.016  24.803   7.493
 5630POPC   NC371879  19.384  40.017   5.570
 5630POPC   PO471880  20.028  39.768   5.610
 5630POPC   GL171881  19.906  40.135   5.899
 5630POPC   GL271882  19.570  40.283   5.987
 5630POPC   C1A71883  19.998  40.348   6.304
 5630POPC   D2A71884  19.924  40.227   6.733
 5630POPC   C3A71885  20.097  39.866   6.949
 5630POPC   C4A71886  19.898  40.088   7.253
 5630POPC   C1B71887  19.610  40.031   6.344
 5630POPC   C2B71888  19.409  40.022   6.746
 5630POPC   C3B71889  19.564  39.749   7.038
 5630POPC   C4B71890  19.564  39.663   7.446
 5631POPC   NC371891  36.504  37.114   5.090
 5631POPC   PO471892  36.763  36.783   5.610
 5631POPC   GL171893  36.747  36.962   5.957
 5631POPC   GL271894  37.010  37.226   5.850
 5631POPC   C1A71895  36.859  36.829   6.353
 5631POPC   D2A71896  37.155  36.594   6.595
 5631POPC   C3A71897  37.000  36.580   7.029
 5631POPC   C4A71898  36.682  36.841   7.266
 5631POPC   C1B71899  36.885  37.352   6.224
 5631POPC   C2B71900  36.728  37.283   6.577
 5631POPC   C3B71901  36.923  37.028   6.836
 5631POPC   C4B71902  37.115  37.113   7.209
 5632POPC   NC371903  13.822  24.657   5.155
 5632POPC   PO471904  13.274  24.531   5.403
 5632POPC   GL171905  13.263  24.481   5.852
 5632POPC   GL271906  13.624  24.455   5.873
 5632POPC   C1A71907  13.193  24.623   6.289
 5632POPC   D2A71908  13.519  24.769   6.592
 5632POPC   C3A71909  13.574  24.555   6.976
 5632POPC   C4A71910  13.528  24.628   7.405
 5632POPC   C1B71911  13.777  24.409   6.315
 5632POPC   C2B71912  14.005  24.541   6.701
 5632POPC   C3B71913  14.024  24.695   7.145
 5632POPC   C4B71914  14.010  24.492   7.542
 5633POPC   NC371915   3.514  41.210   5.496
 5633POPC   PO471916   3.882  41.752   5.437
 5633POPC   GL171917   3.658  41.616   5.837
 5633POPC   GL271918   3.315  41.522   5.849
 5633POPC   C1A71919   3.466  41.846   6.207
 5633POPC   D2A71920   3.263  41.717   6.571
 5633POPC   C3A71921   3.570  41.503   6.778
 5633POPC   C4A71922   3.634  41.603   7.179
 5633POPC   C1B71923   3.255  41.292   6.256
 5633POPC   C2B71924   3.135  41.217   6.711
 5633POPC   C3B71925   3.130  41.510   7.071
 5633POPC   C4B71926   3.238  41.445   7.510
 5634POPC   NC371927  32.901   9.888   5.421
 5634POPC   PO471928  33.264   9.325   5.275
 5634POPC   GL171929  33.289   9.607   5.656
 5634POPC   GL271930  32.951   9.576   5.806
 5634POPC   C1A71931  33.256   9.839   6.080
 5634POPC   D2A71932  33.246   9.755   6.522
 5634POPC   C3A71933  32.819   9.770   6.690
 5634POPC   C4A71934  32.749   9.806   7.126
 5634POPC   C1B71935  32.979   9.366   6.197
 5634POPC   C2B71936  32.827   9.270   6.575
 5634POPC   C3B71937  33.101   9.369   6.906
 5634POPC   C4B71938  33.224   9.470   7.303
 5635POPC   NC371939  10.318   8.900   5.341
 5635POPC   PO471940  10.316   9.433   5.665
 5635POPC   GL171941  10.396   8.986   5.839
 5635POPC   GL271942  10.646   8.725   5.702
 5635POPC   C1A71943  10.392   8.718   6.201
 5635POPC   D2A71944  10.202   8.735   6.613
 5635POPC   C3A71945  10.383   8.840   7.005
 5635POPC   C4A71946  10.436   9.021   7.430
 5635POPC   C1B71947  10.874   8.792   6.120
 5635POPC   C2B71948  10.754   8.753   6.600
 5635POPC   C3B71949  10.857   9.014   7.012
 5635POPC   C4B71950  10.947   8.966   7.471
 5636POPC   NC371951   8.636   6.008   5.462
 5636POPC   PO471952   9.323   6.052   5.336
 5636POPC   GL171953   9.118   5.936   5.752
 5636POPC   GL271954   9.351   5.662   5.850
 5636POPC   C1A71955   9.133   6.009   6.235
 5636POPC   D2A71956   8.927   5.879   6.623
 5636POPC   C3A71957   9.092   6.054   6.986
 5636POPC   C4A71958   9.035   6.085   7.395
 5636POPC   C1B71959   9.456   5.584   6.258
 5636POPC   C2B71960   9.204   5.423   6.578
 5636POPC   C3B71961   9.345   5.359   6.961
 5636POPC   C4B71962   9.116   5.577   7.237
 5637POPC   NC371963  31.419  24.164   5.212
 5637POPC   PO471964  31.360  23.502   5.396
 5637POPC   GL171965  31.621  23.572   5.785
 5637POPC   GL271966  31.916  23.328   5.802
 5637POPC   C1A71967  31.566  23.721   6.273
 5637POPC   D2A71968  31.384  23.529   6.678
 5637POPC   C3A71969  31.554  23.757   7.048
 5637POPC   C4A71970  31.251  23.940   7.296
 5637POPC   C1B71971  31.634  23.230   6.161
 5637POPC   C2B71972  31.699  23.106   6.576
 5637POPC   C3B71973  31.679  23.255   7.029
 5637POPC   C4B71974  31.652  23.381   7.484
 5638POPC   NC371975  19.464  10.964   5.486
 5638POPC   PO471976  18.854  10.884   5.172
 5638POPC   GL171977  19.011  10.605   5.565
 5638POPC   GL271978  19.340  10.492   5.726
 5638POPC   C1A71979  18.890  10.472   6.002
 5638POPC   D2A71980  19.131  10.531   6.402
 5638POPC   C3A71981  18.913  10.613   6.781
 5638POPC   C4A71982  18.869  10.514   7.196
 5638POPC   C1B71983  19.284  10.138   6.058
 5638POPC   C2B71984  19.183  10.025   6.501
 5638POPC   C3B71985  19.210  10.218   6.901
 5638POPC   C4B71986  19.217  10.154   7.348
 5639POPC   NC371987   5.229  11.050   5.466
 5639POPC   PO471988   4.662  11.361   5.504
 5639POPC   GL171989   5.027  11.550   5.738
 5639POPC   GL271990   5.379  11.421   5.823
 5639POPC   C1A71991   5.088  11.676   6.190
 5639POPC   D2A71992   5.135  11.430   6.587
 5639POPC   C3A71993   5.029  11.528   7.015
 5639POPC   C4A71994   4.872  11.262   7.328
 5639POPC   C1B71995   5.566  11.400   6.261
 5639POPC   C2B71996   5.672  11.357   6.698
 5639POPC   C3B71997   5.468  11.212   7.060
 5639POPC   C4B71998   5.353  11.414   7.432
 5640POPC   NC371999   0.173  41.603   5.358
 5640POPC   PO472000   0.759  41.819   5.580
 5640POPC   GL172001   0.486  41.701   5.846
 5640POPC   GL272002   0.306  41.440   5.801
 5640POPC   C1A72003   0.504  41.693   6.258
 5640POPC   D2A72004   0.720  41.530   6.590
 5640POPC   C3A72005   0.497  41.687   6.905
 5640POPC   C4A72006   0.532  41.620   7.303
 5640POPC   C1B72007   0.251  41.244   6.167
 5640POPC   C2B72008   0.199  41.398   6.569
 5640POPC   C3B72009   0.246  41.225   6.957
 5640POPC   C4B72010   0.065  41.435   7.290
 5641POPC   NC372011  34.559  43.019   5.375
 5641POPC   PO472012  34.574  43.693   5.418
 5641POPC   GL172013  34.687  43.364   5.711
 5641POPC   GL272014  34.337  43.250   5.815
 5641POPC   C1A72015  34.709  43.083   6.095
 5641POPC   D2A72016  34.410  43.218   6.438
 5641POPC   C3A72017  34.502  43.063   6.844
 5641POPC   C4A72018  34.865  43.088   7.078
 5641POPC   C1B72019  34.214  42.885   6.088
 5641POPC   C2B72020  34.109  42.604   6.432
 5641POPC   C3B72021  34.183  42.590   6.853
 5641POPC   C4B72022  34.141  42.864   7.178
 5642POPC   NC372023  41.495   8.837   5.446
 5642POPC   PO472024  42.020   9.328   5.549
 5642POPC   GL172025  41.770   9.050   5.819
 5642POPC   GL272026  41.430   9.173   5.936
 5642POPC   C1A72027  41.781   8.817   6.191
 5642POPC   D2A72028  41.643   9.061   6.543
 5642POPC   C3A72029  41.681   8.917   6.946
 5642POPC   C4A72030  41.775   8.581   7.195
 5642POPC   C1B72031  41.238   9.330   6.366
 5642POPC   C2B72032  41.295   9.355   6.833
 5642POPC   C3B72033  41.288   9.106   7.245
 5642POPC   C4B72034  41.191   9.194   7.707
 5643POPC   NC372035  30.246   3.641   5.538
 5643POPC   PO472036  30.857   3.388   5.343
 5643POPC   GL172037  30.713   3.577   5.754
 5643POPC   GL272038  30.524   3.352   5.860
 5643POPC   C1A72039  30.749   3.592   6.248
 5643POPC   D2A72040  30.926   3.411   6.633
 5643POPC   C3A72041  30.749   3.624   6.989
 5643POPC   C4A72042  30.621   3.780   7.355
 5643POPC   C1B72043  30.371   3.122   6.204
 5643POPC   C2B72044  30.583   3.026   6.577
 5643POPC   C3B72045  30.547   3.156   6.991
 5643POPC   C4B72046  30.243   3.110   7.281
 5644POPC   NC372047  18.552  13.159   5.317
 5644POPC   PO472048  18.066  12.796   5.413
 5644POPC   GL172049  18.302  12.714   5.767
 5644POPC   GL272050  18.664  12.764   5.678
 5644POPC   C1A72051  18.105  12.712   6.181
 5644POPC   D2A72052  17.927  12.975   6.512
 5644POPC   C3A72053  18.069  13.002   6.924
 5644POPC   C4A72054  18.396  12.958   7.157
 5644POPC   C1B72055  18.610  12.798   6.143
 5644POPC   C2B72056  18.438  12.864   6.560
 5644POPC   C3B72057  18.536  12.576   6.875
 5644POPC   C4B72058  18.790  12.676   7.245
 5645POPC   NC372059   2.814  10.719   5.436
 5645POPC   PO472060   3.079  10.022   5.453
 5645POPC   GL172061   3.022  10.327   5.760
 5645POPC   GL272062   2.705  10.426   5.866
 5645POPC   C1A72063   3.072  10.284   6.214
 5645POPC   D2A72064   2.778  10.342   6.547
 5645POPC   C3A72065   2.839  10.283   6.982
 5645POPC   C4A72066   2.605  10.533   7.293
 5645POPC   C1B72067   2.772  10.713   6.170
 5645POPC   C2B72068   2.668  10.880   6.542
 5645POPC   C3B72069   2.830  10.805   6.915
 5645POPC   C4B72070   2.940  10.952   7.281
 5646POPC   NC372071  43.243  31.171   5.121
 5646POPC   PO472072  43.197  31.849   5.390
 5646POPC   GL172073  43.176  31.591   5.774
 5646POPC   GL272074  43.308  31.258   5.661
 5646POPC   C1A72075  43.333  31.649   6.212
 5646POPC   D2A72076  43.077  31.662   6.573
 5646POPC   C3A72077  43.133  31.472   6.978
 5646POPC   C4A72078  42.831  31.375   7.297
 5646POPC   C1B72079  43.202  31.154   6.105
 5646POPC   C2B72080  43.275  31.202   6.542
 5646POPC   C3B72081  43.442  31.034   6.941
 5646POPC   C4B72082  43.303  31.131   7.342
 5647POPC   NC372083  24.681  39.244   5.490
 5647POPC   PO472084  23.979  39.099   5.318
 5647POPC   GL172085  24.219  39.111   5.751
 5647POPC   GL272086  24.453  38.920   5.838
 5647POPC   C1A72087  24.337  39.341   6.172
 5647POPC   D2A72088  24.287  39.505   6.623
 5647POPC   C3A72089  24.512  39.334   6.939
 5647POPC   C4A72090  24.512  39.294   7.365
 5647POPC   C1B72091  24.144  38.864   6.203
 5647POPC   C2B72092  24.103  39.024   6.632
 5647POPC   C3B72093  24.254  38.897   7.031
 5647POPC   C4B72094  24.458  38.779   7.381
 5648POPC   NC372095  38.204  20.570   5.338
 5648POPC   PO472096  38.854  20.587   5.309
 5648POPC   GL172097  38.564  20.626   5.713
 5648POPC   GL272098  38.241  20.483   5.859
 5648POPC   C1A72099  38.666  20.676   6.153
 5648POPC   D2A72100  38.843  20.502   6.525
 5648POPC   C3A72101  38.712  20.673   6.898
 5648POPC   C4A72102  38.406  20.604   7.237
 5648POPC   C1B72103  38.157  20.549   6.327
 5648POPC   C2B72104  38.304  20.360   6.725
 5648POPC   C3B72105  38.074  20.243   7.109
 5648POPC   C4B72106  38.000  20.228   7.591
 5649POPC   NC372107  17.893  29.449   5.479
 5649POPC   PO472108  17.330  29.004   5.398
 5649POPC   GL172109  17.499  28.969   5.825
 5649POPC   GL272110  17.128  29.000   5.892
 5649POPC   C1A72111  17.764  29.085   6.234
 5649POPC   D2A72112  17.964  29.183   6.679
 5649POPC   C3A72113  17.598  29.195   6.988
 5649POPC   C4A72114  17.159  29.263   7.178
 5649POPC   C1B72115  17.245  28.868   6.291
 5649POPC   C2B72116  17.187  28.934   6.717
 5649POPC   C3B72117  17.297  28.756   7.074
 5649POPC   C4B72118  17.180  28.738   7.543
 5650POPC   NC372119  44.236  16.551   5.484
 5650POPC   PO472120  44.937  16.749   5.417
 5650POPC   GL172121  44.652  16.752   5.749
 5650POPC   GL272122  44.669  16.400   5.722
 5650POPC   C1A72123  44.567  16.954   6.177
 5650POPC   D2A72124  44.854  17.096   6.508
 5650POPC   C3A72125  44.875  16.893   6.946
 5650POPC   C4A72126  44.546  16.786   7.244
 5650POPC   C1B72127  44.622  16.434   6.147
 5650POPC   C2B72128  44.721  16.598   6.537
 5650POPC   C3B72129  44.615  16.424   6.907
 5650POPC   C4B72130  44.805  16.272   7.251
 5651POPC   NC372131  28.477  31.217   5.373
 5651POPC   PO472132  27.842  31.362   5.430
 5651POPC   GL172133  28.140  31.225   5.783
 5651POPC   GL272134  28.482  31.359   5.859
 5651POPC   C1A72135  28.146  31.433   6.211
 5651POPC   D2A72136  28.212  31.742   6.527
 5651POPC   C3A72137  28.295  31.505   6.899
 5651POPC   C4A72138  27.978  31.291   7.136
 5651POPC   C1B72139  28.668  31.633   6.187
 5651POPC   C2B72140  28.707  31.860   6.580
 5651POPC   C3B72141  28.848  31.771   6.971
 5651POPC   C4B72142  28.564  31.681   7.300
 5652POPC   NC372143   0.683  30.870   5.616
 5652POPC   PO472144   0.134  30.456   5.452
 5652POPC   GL172145   0.310  30.624   5.818
 5652POPC   GL272146   0.187  30.976   5.810
 5652POPC   C1A72147   0.560  30.551   6.200
 5652POPC   D2A72148   0.822  30.387   6.517
 5652POPC   C3A72149   0.646  30.300   6.894
 5652POPC   C4A72150   0.517  30.578   7.204
 5652POPC   C1B72151   0.464  31.077   6.185
 5652POPC   C2B72152   0.555  31.070   6.623
 5652POPC   C3B72153   0.410  31.028   7.045
 5652POPC   C4B72154   0.435  31.037   7.553
 5653POPC   NC372155  27.703  21.573   5.348
 5653POPC   PO472156  27.337  21.121   5.321
 5653POPC   GL172157  27.505  21.336   5.754
 5653POPC   GL272158  27.429  21.682   5.768
 5653POPC   C1A72159  27.667  21.384   6.223
 5653POPC   D2A72160  27.624  21.232   6.673
 5653POPC   C3A72161  27.663  21.399   7.079
 5653POPC   C4A72162  27.737  21.479   7.507
 5653POPC   C1B72163  27.412  21.823   6.177
 5653POPC   C2B72164  27.513  21.740   6.610
 5653POPC   C3B72165  27.260  21.679   6.952
 5653POPC   C4B72166  27.248  21.567   7.407
 5654POPC   NC372167   1.682  18.027   5.421
 5654POPC   PO472168   2.294  18.386   5.364
 5654POPC   GL172169   2.117  18.221   5.727
 5654POPC   GL272170   2.108  17.857   5.665
 5654POPC   C1A72171   1.890  18.288   6.123
 5654POPC   D2A72172   1.814  18.066   6.511
 5654POPC   C3A72173   1.908  18.306   6.876
 5654POPC   C4A72174   1.982  18.172   7.275
 5654POPC   C1B72175   2.162  17.855   6.097
 5654POPC   C2B72176   2.254  17.811   6.515
 5654POPC   C3B72177   2.184  17.840   6.936
 5654POPC   C4B72178   2.415  17.900   7.336
 5655POPC   NC372179  22.033  34.935   5.499
 5655POPC   PO472180  21.795  34.291   5.343
 5655POPC   GL172181  21.995  34.503   5.772
 5655POPC   GL272182  22.371  34.512   5.767
 5655POPC   C1A72183  22.146  34.306   6.192
 5655POPC   D2A72184  22.338  34.319   6.632
 5655POPC   C3A72185  22.129  34.480   6.969
 5655POPC   C4A72186  21.823  34.698   7.245
 5655POPC   C1B72187  22.600  34.490   6.177
 5655POPC   C2B72188  22.575  34.757   6.522
 5655POPC   C3B72189  22.566  34.790   6.934
 5655POPC   C4B72190  22.620  34.557   7.296
 5656POPC   NC372191  10.819  23.291   5.210
 5656POPC   PO472192  10.238  23.018   5.522
 5656POPC   GL172193  10.431  22.813   5.849
 5656POPC   GL272194  10.207  22.568   5.882
 5656POPC   C1A72195  10.639  22.922   6.235
 5656POPC   D2A72196  10.870  23.047   6.597
 5656POPC   C3A72197  10.843  22.806   6.989
 5656POPC   C4A72198  10.740  22.812   7.440
 5656POPC   C1B72199  10.173  22.718   6.292
 5656POPC   C2B72200  10.405  22.777   6.668
 5656POPC   C3B72201  10.313  22.896   7.093
 5656POPC   C4B72202   9.921  23.062   7.264
 5657POPC   NC372203  43.936  40.334   5.479
 5657POPC   PO472204  43.772  39.790   5.028
 5657POPC   GL172205  43.775  39.837   5.545
 5657POPC   GL272206  43.485  39.674   5.719
 5657POPC   C1A72207  43.827  39.956   6.046
 5657POPC   D2A72208  44.030  40.195   6.429
 5657POPC   C3A72209  43.955  40.114   6.886
 5657POPC   C4A72210  44.033  40.338   7.308
 5657POPC   C1B72211  43.412  39.687   6.187
 5657POPC   C2B72212  43.572  39.954   6.546
 5657POPC   C3B72213  43.527  39.845   6.975
 5657POPC   C4B72214  43.731  39.949   7.347
 5658POPC   NC372215   1.783  23.841   5.450
 5658POPC   PO472216   2.402  24.188   5.482
 5658POPC   GL172217   2.308  23.917   5.860
 5658POPC   GL272218   1.936  23.836   5.935
 5658POPC   C1A72219   2.278  23.840   6.326
 5658POPC   D2A72220   2.382  23.601   6.706
 5658POPC   C3A72221   2.201  23.621   7.141
 5658POPC   C4A72222   2.232  23.643   7.601
 5658POPC   C1B72223   1.720  23.668   6.285
 5658POPC   C2B72224   1.841  23.695   6.716
 5658POPC   C3B72225   1.636  23.722   7.100
 5658POPC   C4B72226   1.519  23.447   7.432
 5659POPC   NC372227  27.484  18.022   5.001
 5659POPC   PO472228  27.810  18.412   5.520
 5659POPC   GL172229  27.583  18.295   5.912
 5659POPC   GL272230  27.295  18.551   5.985
 5659POPC   C1A72231  27.736  17.977   6.261
 5659POPC   D2A72232  27.478  17.852   6.626
 5659POPC   C3A72233  27.629  17.860   7.006
 5659POPC   C4A72234  27.663  18.197   7.265
 5659POPC   C1B72235  27.435  18.350   6.392
 5659POPC   C2B72236  27.615  18.466   6.780
 5659POPC   C3B72237  27.448  18.638   7.143
 5659POPC   C4B72238  27.471  18.534   7.592
 5660POPC   NC372239  27.804  27.751   5.270
 5660POPC   PO472240  27.292  27.323   5.384
 5660POPC   GL172241  27.465  27.616   5.674
 5660POPC   GL272242  27.503  27.345   5.879
 5660POPC   C1A72243  27.642  27.754   6.113
 5660POPC   D2A72244  27.468  27.720   6.548
 5660POPC   C3A72245  27.733  27.826   6.955
 5660POPC   C4A72246  27.758  27.751   7.450
 5660POPC   C1B72247  27.349  27.127   6.237
 5660POPC   C2B72248  27.238  27.217   6.597
 5660POPC   C3B72249  27.278  27.003   6.925
 5660POPC   C4B72250  27.204  27.178   7.288
 5661POPC   NC372251  40.804   1.624   5.537
 5661POPC   PO472252  40.707   0.972   5.442
 5661POPC   GL172253  40.605   1.156   5.840
 5661POPC   GL272254  40.917   1.274   5.884
 5661POPC   C1A72255  40.573   1.242   6.288
 5661POPC   D2A72256  40.569   1.054   6.673
 5661POPC   C3A72257  40.845   1.138   6.990
 5661POPC   C4A72258  40.782   1.442   7.294
 5661POPC   C1B72259  41.114   1.304   6.279
 5661POPC   C2B72260  40.973   1.501   6.645
 5661POPC   C3B72261  41.195   1.553   7.022
 5661POPC   C4B72262  41.264   1.233   7.320
 5662POPC   NC372263   8.812  28.862   5.516
 5662POPC   PO472264   8.875  29.489   5.549
 5662POPC   GL172265   9.116  29.177   5.766
 5662POPC   GL272266   9.329  28.955   5.599
 5662POPC   C1A72267   9.028  29.134   6.178
 5662POPC   D2A72268   9.024  29.408   6.522
 5662POPC   C3A72269   8.770  29.189   6.805
 5662POPC   C4A72270   8.895  29.155   7.216
 5662POPC   C1B72271   9.485  28.923   6.041
 5662POPC   C2B72272   9.419  29.032   6.498
 5662POPC   C3B72273   9.301  29.144   6.910
 5662POPC   C4B72274   9.382  29.100   7.353
 5663POPC   NC372275  37.479  27.186   5.522
 5663POPC   PO472276  37.371  27.810   5.582
 5663POPC   GL172277  37.526  27.542   5.958
 5663POPC   GL272278  37.718  27.198   5.987
 5663POPC   C1A72279  37.430  27.512   6.412
 5663POPC   D2A72280  37.260  27.756   6.747
 5663POPC   C3A72281  37.508  27.912   7.109
 5663POPC   C4A72282  37.630  27.653   7.470
 5663POPC   C1B72283  37.910  27.337   6.390
 5663POPC   C2B72284  37.756  27.498   6.809
 5663POPC   C3B72285  38.018  27.559   7.155
 5663POPC   C4B72286  38.313  27.407   7.476
 5664POPC   NC372287  40.276  41.293   5.640
 5664POPC   PO472288  40.732  41.455   5.197
 5664POPC   GL172289  40.811  41.425   5.641
 5664POPC   GL272290  40.937  41.762   5.772
 5664POPC   C1A72291  40.842  41.336   6.095
 5664POPC   D2A72292  40.655  41.483   6.504
 5664POPC   C3A72293  40.787  41.338   6.911
 5664POPC   C4A72294  40.624  41.244   7.312
 5664POPC   C1B72295  40.928  41.877   6.204
 5664POPC   C2B72296  40.699  41.979   6.553
 5664POPC   C3B72297  40.719  41.850   6.927
 5664POPC   C4B72298  40.487  41.721   7.256
 5665POPC   NC372299  23.812   2.997   5.422
 5665POPC   PO472300  23.903   2.376   5.091
 5665POPC   GL172301  23.792   2.434   5.540
 5665POPC   GL272302  23.507   2.652   5.670
 5665POPC   C1A72303  23.898   2.547   5.997
 5665POPC   D2A72304  23.670   2.634   6.385
 5665POPC   C3A72305  23.802   2.765   6.832
 5665POPC   C4A72306  23.584   2.691   7.199
 5665POPC   C1B72307  23.521   2.990   6.038
 5665POPC   C2B72308  23.626   3.132   6.501
 5665POPC   C3B72309  23.407   3.107   6.929
 5665POPC   C4B72310  23.506   3.151   7.392
 5666POPC   NC372311  41.399  11.639   5.432
 5666POPC   PO472312  41.803  12.187   5.413
 5666POPC   GL172313  41.533  12.195   5.795
 5666POPC   GL272314  41.296  11.915   5.836
 5666POPC   C1A72315  41.649  12.078   6.215
 5666POPC   D2A72316  41.964  11.809   6.416
 5666POPC   C3A72317  41.888  11.936   6.844
 5666POPC   C4A72318  41.655  12.033   7.226
 5666POPC   C1B72319  41.096  11.977   6.209
 5666POPC   C2B72320  41.281  11.934   6.581
 5666POPC   C3B72321  41.306  12.206   6.880
 5666POPC   C4B72322  41.154  12.151   7.252
 5667POPC   NC372323  39.343   4.043   5.575
 5667POPC   PO472324  39.074   3.482   5.508
 5667POPC   GL172325  39.277   3.410   5.899
 5667POPC   GL272326  39.344   3.748   5.971
 5667POPC   C1A72327  39.244   3.386   6.361
 5667POPC   D2A72328  38.975   3.596   6.703
 5667POPC   C3A72329  39.113   3.485   7.141
 5667POPC   C4A72330  39.443   3.226   7.317
 5667POPC   C1B72331  39.293   3.900   6.358
 5667POPC   C2B72332  39.528   3.838   6.731
 5667POPC   C3B72333  39.332   3.939   7.132
 5667POPC   C4B72334  38.869   3.963   7.122
 5668POPC   NC372335  15.563   3.835   5.352
 5668POPC   PO472336  14.968   3.466   5.518
 5668POPC   GL172337  15.112   3.657   5.848
 5668POPC   GL272338  15.468   3.645   5.864
 5668POPC   C1A72339  14.934   3.695   6.231
 5668POPC   D2A72340  14.935   3.963   6.568
 5668POPC   C3A72341  14.917   3.764   6.956
 5668POPC   C4A72342  14.741   3.436   7.232
 5668POPC   C1B72343  15.425   3.877   6.279
 5668POPC   C2B72344  15.396   3.852   6.742
 5668POPC   C3B72345  15.326   3.453   6.974
 5668POPC   C4B72346  15.516   3.166   7.241
 5669POPC   NC372347  19.945   1.323   5.298
 5669POPC   PO472348  19.380   0.890   5.347
 5669POPC   GL172349  19.634   1.135   5.700
 5669POPC   GL272350  20.030   1.138   5.751
 5669POPC   C1A72351  19.725   1.089   6.181
 5669POPC   D2A72352  19.703   0.853   6.599
 5669POPC   C3A72353  19.702   1.081   7.008
 5669POPC   C4A72354  19.935   0.979   7.399
 5669POPC   C1B72355  20.194   1.287   6.132
 5669POPC   C2B72356  20.079   1.232   6.571
 5669POPC   C3B72357  20.139   1.312   7.012
 5669POPC   C4B72358  19.988   1.464   7.474
 5670POPC   NC372359   3.909  20.093   5.563
 5670POPC   PO472360   3.242  19.952   5.318
 5670POPC   GL172361   3.435  19.923   5.743
 5670POPC   GL272362   3.287  19.619   5.783
 5670POPC   C1A72363   3.607  20.072   6.166
 5670POPC   D2A72364   3.808  19.873   6.536
 5670POPC   C3A72365   3.648  19.894   6.961
 5670POPC   C4A72366   3.885  20.163   7.260
 5670POPC   C1B72367   3.558  19.570   6.128
 5670POPC   C2B72368   3.496  19.481   6.547
 5670POPC   C3B72369   3.351  19.468   6.946
 5670POPC   C4B72370   3.157  19.562   7.341
 5671POPC   NC372371  34.846  18.862   5.516
 5671POPC   PO472372  34.500  19.406   5.408
 5671POPC   GL172373  34.583  19.198   5.819
 5671POPC   GL272374  34.431  18.862   5.814
 5671POPC   C1A72375  34.637  19.358   6.256
 5671POPC   D2A72376  34.758  19.378   6.714
 5671POPC   C3A72377  34.630  19.161   7.116
 5671POPC   C4A72378  34.689  19.008   7.556
 5671POPC   C1B72379  34.658  18.848   6.220
 5671POPC   C2B72380  34.741  18.855   6.693
 5671POPC   C3B72381  34.676  18.640   7.113
 5671POPC   C4B72382  34.396  18.573   7.481
 5672POPC   NC372383  34.506   6.729   5.441
 5672POPC   PO472384  34.035   6.264   5.387
 5672POPC   GL172385  34.252   6.435   5.768
 5672POPC   GL272386  34.223   6.797   5.879
 5672POPC   C1A72387  34.452   6.398   6.177
 5672POPC   D2A72388  34.459   6.639   6.593
 5672POPC   C3A72389  34.348   6.470   6.992
 5672POPC   C4A72390  34.405   6.587   7.445
 5672POPC   C1B72391  34.307   7.049   6.283
 5672POPC   C2B72392  34.365   7.137   6.740
 5672POPC   C3B72393  34.555   6.954   7.096
 5672POPC   C4B72394  34.541   7.113   7.506
 5673POPC   NC372395  10.918  39.805   5.062
 5673POPC   PO472396  10.534  40.156   5.487
 5673POPC   GL172397  10.348  40.014   5.842
 5673POPC   GL272398  10.433  40.350   5.949
 5673POPC   C1A72399  10.502  39.890   6.218
 5673POPC   D2A72400  10.664  40.080   6.558
 5673POPC   C3A72401  10.553  39.886   6.956
 5673POPC   C4A72402  10.848  39.814   7.276
 5673POPC   C1B72403  10.206  40.314   6.329
 5673POPC   C2B72404  10.217  40.234   6.740
 5673POPC   C3B72405  10.088  40.136   7.133
 5673POPC   C4B72406  10.325  39.923   7.461
 5674POPC   NC372407  27.351   0.758   5.402
 5674POPC   PO472408  27.985   0.467   5.415
 5674POPC   GL172409  27.692   0.518   5.726
 5674POPC   GL272410  27.393   0.291   5.697
 5674POPC   C1A72411  27.718   0.701   6.117
 5674POPC   D2A72412  27.522   0.509   6.442
 5674POPC   C3A72413  27.513   0.543   6.863
 5674POPC   C4A72414  27.576   0.780   7.206
 5674POPC   C1B72415  27.574   0.153   6.082
 5674POPC   C2B72416  27.586  44.985   6.477
 5674POPC   C3B72417  27.472  44.985   6.911
 5674POPC   C4B72418  27.710   0.208   7.225
 5675POPC   NC372419  36.147  30.713   5.431
 5675POPC   PO472420  36.474  31.264   5.393
 5675POPC   GL172421  36.254  31.047   5.809
 5675POPC   GL272422  36.338  30.699   5.902
 5675POPC   C1A72423  36.008  30.906   6.233
 5675POPC   D2A72424  35.948  30.673   6.664
 5675POPC   C3A72425  36.124  30.870   7.060
 5675POPC   C4A72426  36.085  31.239   7.384
 5675POPC   C1B72427  36.359  30.536   6.314
 5675POPC   C2B72428  36.474  30.692   6.703
 5675POPC   C3B72429  36.497  30.505   7.079
 5675POPC   C4B72430  36.127  30.306   7.226
 5676POPC   NC372431  33.650  41.840   5.492
 5676POPC   PO472432  33.973  41.241   5.370
 5676POPC   GL172433  33.963  41.487   5.739
 5676POPC   GL272434  33.621  41.444   5.817
 5676POPC   C1A72435  33.909  41.620   6.188
 5676POPC   D2A72436  33.668  41.743   6.563
 5676POPC   C3A72437  33.974  41.750   6.884
 5676POPC   C4A72438  34.243  41.602   7.204
 5676POPC   C1B72439  33.361  41.542   6.155
 5676POPC   C2B72440  33.180  41.572   6.563
 5676POPC   C3B72441  33.267  41.740   6.961
 5676POPC   C4B72442  33.602  41.527   7.186
 5677POPC   NC372443  43.123   6.371   5.766
 5677POPC   PO472444  43.294   6.974   5.412
 5677POPC   GL172445  42.914   6.848   5.676
 5677POPC   GL272446  43.156   6.888   5.911
 5677POPC   C1A72447  42.738   6.762   6.146
 5677POPC   D2A72448  43.018   6.682   6.546
 5677POPC   C3A72449  42.854   6.689   6.988
 5677POPC   C4A72450  42.913   6.731   7.448
 5677POPC   C1B72451  43.247   7.098   6.270
 5677POPC   C2B72452  43.428   6.983   6.608
 5677POPC   C3B72453  43.336   6.825   6.979
 5677POPC   C4B72454  43.282   7.046   7.331
 5678POPC   NC372455   7.890   0.210   5.318
 5678POPC   PO472456   8.373   0.714   5.398
 5678POPC   GL172457   8.156   0.610   5.776
 5678POPC   GL272458   8.020   0.253   5.809
 5678POPC   C1A72459   8.213   0.476   6.203
 5678POPC   D2A72460   7.947   0.414   6.539
 5678POPC   C3A72461   8.141   0.373   6.902
 5678POPC   C4A72462   8.245   0.544   7.252
 5678POPC   C1B72463   7.898   0.011   6.203
 5678POPC   C2B72464   7.681  44.974   6.618
 5678POPC   C3B72465   7.879  44.948   7.028
 5678POPC   C4B72466   7.911   0.191   7.413
 5679POPC   NC372467  38.216  43.034   5.135
 5679POPC   PO472468  38.579  43.465   5.568
 5679POPC   GL172469  38.415  43.135   5.841
 5679POPC   GL272470  38.106  42.947   5.729
 5679POPC   C1A72471  38.577  43.121   6.251
 5679POPC   D2A72472  38.735  43.383   6.582
 5679POPC   C3A72473  38.579  43.417   7.000
 5679POPC   C4A72474  38.750  43.252   7.367
 5679POPC   C1B72475  38.169  42.787   6.149
 5679POPC   C2B72476  38.365  42.750   6.534
 5679POPC   C3B72477  38.167  42.797   6.906
 5679POPC   C4B72478  38.328  43.011   7.203
 5680POPC   NC372479  39.715  38.570   5.542
 5680POPC   PO472480  40.279  38.219   5.609
 5680POPC   GL172481  40.000  38.380   5.931
 5680POPC   GL272482  39.758  38.152   5.860
 5680POPC   C1A72483  39.768  38.604   6.287
 5680POPC   D2A72484  39.691  38.647   6.748
 5680POPC   C3A72485  39.992  38.539   7.059
 5680POPC   C4A72486  40.210  38.298   7.348
 5680POPC   C1B72487  39.498  38.173   6.162
 5680POPC   C2B72488  39.688  38.147   6.546
 5680POPC   C3B72489  39.527  38.166   6.921
 5680POPC   C4B72490  39.723  38.164   7.291
 5681POPC   NC372491   0.162  21.957   5.100
 5681POPC   PO472492  44.635  22.337   5.265
 5681POPC   GL172493  44.753  22.282   5.709
 5681POPC   GL272494  44.976  21.992   5.669
 5681POPC   C1A72495  44.808  22.496   6.122
 5681POPC   D2A72496  44.620  22.322   6.484
 5681POPC   C3A72497  44.728  22.396   6.902
 5681POPC   C4A72498  44.457  22.101   7.126
 5681POPC   C1B72499  44.898  21.978   6.126
 5681POPC   C2B72500   0.027  21.735   6.481
 5681POPC   C3B72501  44.866  21.908   6.819
 5681POPC   C4B72502  44.942  22.051   7.216
 5682POPC   NC372503  26.174  18.586   5.433
 5682POPC   PO472504  26.014  18.051   5.261
 5682POPC   GL172505  25.981  18.201   5.726
 5682POPC   GL272506  26.301  18.310   5.840
 5682POPC   C1A72507  25.900  18.338   6.171
 5682POPC   D2A72508  26.055  18.461   6.589
 5682POPC   C3A72509  25.905  18.168   6.921
 5682POPC   C4A72510  25.637  18.131   7.292
 5682POPC   C1B72511  26.439  18.247   6.250
 5682POPC   C2B72512  26.406  18.046   6.638
 5682POPC   C3B72513  26.405  18.152   7.052
 5682POPC   C4B72514  26.153  18.469   7.284
 5683POPC   NC372515  21.061   8.042   5.211
 5683POPC   PO472516  20.420   7.964   5.374
 5683POPC   GL172517  20.674   8.148   5.740
 5683POPC   GL272518  20.940   8.388   5.619
 5683POPC   C1A72519  20.566   8.193   6.208
 5683POPC   D2A72520  20.727   8.079   6.620
 5683POPC   C3A72521  20.508   7.885   6.929
 5683POPC   C4A72522  20.404   8.059   7.270
 5683POPC   C1B72523  20.835   8.580   6.005
 5683POPC   C2B72524  20.941   8.495   6.444
 5683POPC   C3B72525  20.849   8.540   6.910
 5683POPC   C4B72526  21.168   8.541   7.228
 5684POPC   NC372527  15.906  11.055   5.559
 5684POPC   PO472528  15.768  11.695   5.510
 5684POPC   GL172529  16.088  11.486   5.832
 5684POPC   GL272530  16.077  11.122   6.033
 5684POPC   C1A72531  16.180  11.539   6.300
 5684POPC   D2A72532  16.129  11.266   6.675
 5684POPC   C3A72533  15.973  11.360   7.098
 5684POPC   C4A72534  15.986  11.142   7.477
 5684POPC   C1B72535  15.785  11.018   6.384
 5684POPC   C2B72536  15.724  10.981   6.860
 5684POPC   C3B72537  15.511  11.141   7.241
 5684POPC   C4B72538  15.365  10.984   7.652
 5685POPC   NC372539  42.442  23.471   5.358
 5685POPC   PO472540  41.976  24.058   5.478
 5685POPC   GL172541  42.304  23.805   5.751
 5685POPC   GL272542  42.260  23.423   5.819
 5685POPC   C1A72543  42.431  23.704   6.199
 5685POPC   D2A72544  42.661  23.747   6.572
 5685POPC   C3A72545  42.423  23.891   6.899
 5685POPC   C4A72546  42.526  23.846   7.321
 5685POPC   C1B72547  42.571  23.215   6.121
 5685POPC   C2B72548  42.699  23.228   6.589
 5685POPC   C3B72549  42.703  23.455   7.036
 5685POPC   C4B72550  42.797  23.487   7.546
 5686POPC   NC372551  24.737  42.523   5.287
 5686POPC   PO472552  24.210  42.284   5.515
 5686POPC   GL172553  24.479  42.520   5.770
 5686POPC   GL272554  24.840  42.411   5.774
 5686POPC   C1A72555  24.399  42.367   6.183
 5686POPC   D2A72556  24.099  42.304   6.488
 5686POPC   C3A72557  24.292  42.385   6.892
 5686POPC   C4A72558  24.423  42.412   7.328
 5686POPC   C1B72559  24.893  42.523   6.205
 5686POPC   C2B72560  24.727  42.377   6.602
 5686POPC   C3B72561  24.828  42.250   7.021
 5686POPC   C4B72562  24.859  42.196   7.485
 5687POPC   NC372563  22.168  24.670   5.388
 5687POPC   PO472564  21.821  24.127   5.623
 5687POPC   GL172565  22.073  24.476   5.872
 5687POPC   GL272566  22.379  24.711   5.902
 5687POPC   C1A72567  22.132  24.537   6.312
 5687POPC   D2A72568  21.919  24.437   6.650
 5687POPC   C3A72569  22.236  24.274   6.849
 5687POPC   C4A72570  22.151  24.243   7.260
 5687POPC   C1B72571  22.545  24.859   6.329
 5687POPC   C2B72572  22.537  24.704   6.755
 5687POPC   C3B72573  22.209  24.761   7.062
 5687POPC   C4B72574  22.226  24.846   7.527
 5688POPC   NC372575  39.425  21.955   5.263
 5688POPC   PO472576  39.078  22.471   5.380
 5688POPC   GL172577  39.264  22.286   5.771
 5688POPC   GL272578  39.308  21.910   5.787
 5688POPC   C1A72579  39.202  22.408   6.208
 5688POPC   D2A72580  39.404  22.333   6.595
 5688POPC   C3A72581  39.084  22.116   6.803
 5688POPC   C4A72582  38.876  22.129   7.193
 5688POPC   C1B72583  39.238  21.892   6.241
 5688POPC   C2B72584  39.498  21.825   6.622
 5688POPC   C3B72585  39.404  21.821   7.082
 5688POPC   C4B72586  39.280  22.017   7.481
 5689POPC   NC372587  20.175  29.936   5.149
 5689POPC   PO472588  20.742  29.723   5.440
 5689POPC   GL172589  20.882  29.959   5.797
 5689POPC   GL272590  20.598  29.856   5.969
 5689POPC   C1A72591  21.028  29.957   6.206
 5689POPC   D2A72592  20.682  29.979   6.481
 5689POPC   C3A72593  20.798  29.958   6.865
 5689POPC   C4A72594  20.884  29.792   7.230
 5689POPC   C1B72595  20.295  30.137   6.146
 5689POPC   C2B72596  20.201  30.166   6.563
 5689POPC   C3B72597  20.303  29.894   6.877
 5689POPC   C4B72598  20.377  29.962   7.297
 5690POPC   NC372599  21.200  29.775   5.457
 5690POPC   PO472600  21.599  30.237   5.474
 5690POPC   GL172601  21.450  30.019   5.871
 5690POPC   GL272602  21.356  29.650   5.913
 5690POPC   C1A72603  21.497  30.090   6.335
 5690POPC   D2A72604  21.164  30.266   6.608
 5690POPC   C3A72605  21.224  30.161   7.027
 5690POPC   C4A72606  21.485  30.068   7.305
 5690POPC   C1B72607  21.379  29.588   6.352
 5690POPC   C2B72608  21.244  29.701   6.772
 5690POPC   C3B72609  21.331  29.580   7.215
 5690POPC   C4B72610  21.451  29.454   7.637
 5691POPC   NC372611  14.192  30.927   5.287
 5691POPC   PO472612  14.659  30.408   5.466
 5691POPC   GL172613  14.496  30.683   5.828
 5691POPC   GL272614  14.151  30.816   5.787
 5691POPC   C1A72615  14.480  30.665   6.296
 5691POPC   D2A72616  14.691  30.473   6.667
 5691POPC   C3A72617  14.691  30.703   7.077
 5691POPC   C4A72618  14.452  31.064   7.247
 5691POPC   C1B72619  13.973  30.739   6.151
 5691POPC   C2B72620  14.002  30.618   6.561
 5691POPC   C3B72621  14.188  30.749   6.931
 5691POPC   C4B72622  14.242  30.606   7.373
 5692POPC   NC372623  38.395  13.278   5.399
 5692POPC   PO472624  38.585  13.873   5.657
 5692POPC   GL172625  38.362  13.531   5.835
 5692POPC   GL272626  38.693  13.337   5.794
 5692POPC   C1A72627  38.117  13.452   6.214
 5692POPC   D2A72628  38.061  13.720   6.583
 5692POPC   C3A72629  38.136  13.571   6.992
 5692POPC   C4A72630  38.322  13.781   7.346
 5692POPC   C1B72631  38.644  13.429   6.233
 5692POPC   C2B72632  38.536  13.524   6.616
 5692POPC   C3B72633  38.637  13.701   6.968
 5692POPC   C4B72634  38.851  13.610   7.328
 5693POPC   NC372635   5.523  13.142   5.599
 5693POPC   PO472636   5.617  12.473   5.431
 5693POPC   GL172637   5.742  12.628   5.834
 5693POPC   GL272638   5.987  12.907   5.798
 5693POPC   C1A72639   5.824  12.786   6.264
 5693POPC   D2A72640   5.735  13.147   6.488
 5693POPC   C3A72641   5.664  12.986   6.883
 5693POPC   C4A72642   5.594  13.148   7.274
 5693POPC   C1B72643   6.132  13.191   6.144
 5693POPC   C2B72644   6.237  13.079   6.571
 5693POPC   C3B72645   6.157  12.818   6.890
 5693POPC   C4B72646   5.961  12.793   7.261
 5694POPC   NC372647  16.905  10.994   5.409
 5694POPC   PO472648  16.271  11.225   5.355
 5694POPC   GL172649  16.524  11.161   5.780
 5694POPC   GL272650  16.887  11.168   5.864
 5694POPC   C1A72651  16.598  11.245   6.261
 5694POPC   D2A72652  16.577  11.037   6.663
 5694POPC   C3A72653  16.482  11.299   7.052
 5694POPC   C4A72654  16.488  11.116   7.467
 5694POPC   C1B72655  17.020  11.510   6.076
 5694POPC   C2B72656  17.112  11.596   6.510
 5694POPC   C3B72657  16.966  11.371   6.869
 5694POPC   C4B72658  16.912  11.366   7.295
 5695POPC   NC372659  12.738  30.102   5.477
 5695POPC   PO472660  12.479  29.469   5.464
 5695POPC   GL172661  12.612  29.687   5.844
 5695POPC   GL272662  12.903  29.745   5.803
 5695POPC   C1A72663  12.807  29.876   6.278
 5695POPC   D2A72664  12.589  29.991   6.684
 5695POPC   C3A72665  12.744  30.125   7.106
 5695POPC   C4A72666  12.702  30.473   7.431
 5695POPC   C1B72667  13.156  29.556   6.051
 5695POPC   C2B72668  13.117  29.508   6.467
 5695POPC   C3B72669  13.060  29.756   6.834
 5695POPC   C4B72670  13.031  29.617   7.281
 5696POPC   NC372671  44.853   2.959   5.458
 5696POPC   PO472672  44.399   2.516   5.576
 5696POPC   GL172673  44.532   2.810   5.851
 5696POPC   GL272674  44.857   2.655   5.893
 5696POPC   C1A72675  44.409   2.694   6.258
 5696POPC   D2A72676  44.621   2.626   6.616
 5696POPC   C3A72677  44.525   2.868   6.968
 5696POPC   C4A72678  44.372   2.630   7.304
 5696POPC   C1B72679  44.908   2.914   6.251
 5696POPC   C2B72680   0.112   2.786   6.651
 5696POPC   C3B72681  44.962   2.543   6.994
 5696POPC   C4B72682  44.870   2.770   7.332
 5697POPC   NC372683  32.905  21.883   5.078
 5697POPC   PO472684  32.946  22.377   5.548
 5697POPC   GL172685  32.903  22.190   5.931
 5697POPC   GL272686  33.262  22.173   5.896
 5697POPC   C1A72687  32.763  22.118   6.334
 5697POPC   D2A72688  32.869  22.364   6.690
 5697POPC   C3A72689  32.822  22.110   7.040
 5697POPC   C4A72690  32.971  22.109   7.435
 5697POPC   C1B72691  33.237  22.283   6.319
 5697POPC   C2B72692  33.218  22.016   6.700
 5697POPC   C3B72693  33.308  22.256   7.075
 5697POPC   C4B72694  33.494  22.075   7.444
 5698POPC   NC372695  38.776  18.283   5.217
 5698POPC   PO472696  38.161  18.404   5.378
 5698POPC   GL172697  38.382  18.237   5.761
 5698POPC   GL272698  38.759  18.281   5.759
 5698POPC   C1A72699  38.499  18.057   6.192
 5698POPC   D2A72700  38.553  17.892   6.625
 5698POPC   C3A72701  38.554  18.150   7.041
 5698POPC   C4A72702  38.250  18.392   7.330
 5698POPC   C1B72703  38.635  18.552   6.106
 5698POPC   C2B72704  38.332  18.536   6.451
 5698POPC   C3B72705  38.336  18.627   6.881
 5698POPC   C4B72706  38.659  18.661   7.176
 5699POPC   NC372707  18.453   7.909   5.727
 5699POPC   PO472708  18.126   7.469   5.404
 5699POPC   GL172709  18.122   7.278   5.781
 5699POPC   GL272710  18.432   7.417   5.842
 5699POPC   C1A72711  18.051   7.276   6.194
 5699POPC   D2A72712  18.228   7.035   6.513
 5699POPC   C3A72713  18.199   7.155   6.910
 5699POPC   C4A72714  18.524   7.299   7.126
 5699POPC   C1B72715  18.491   7.516   6.301
 5699POPC   C2B72716  18.369   7.656   6.735
 5699POPC   C3B72717  18.626   7.792   7.116
 5699POPC   C4B72718  18.713   7.860   7.578
 5700POPC   NC372719  28.763  29.754   5.508
 5700POPC   PO472720  29.365  30.069   5.419
 5700POPC   GL172721  29.078  30.162   5.734
 5700POPC   GL272722  29.309  30.329   5.961
 5700POPC   C1A72723  28.892  30.035   6.117
 5700POPC   D2A72724  28.960  29.836   6.517
 5700POPC   C3A72725  28.967  30.038   6.932
 5700POPC   C4A72726  28.932  29.734   7.269
 5700POPC   C1B72727  29.441  29.981   6.235
 5700POPC   C2B72728  29.476  29.822   6.672
 5700POPC   C3B72729  29.423  29.875   7.131
 5700POPC   C4B72730  29.199  30.151   7.417
 5701POPC   NC372731   9.397   6.708   5.513
 5701POPC   PO472732   8.823   6.431   5.447
 5701POPC   GL172733   8.873   6.740   5.811
 5701POPC   GL272734   9.198   6.844   5.943
 5701POPC   C1A72735   8.830   6.671   6.285
 5701POPC   D2A72736   8.871   6.395   6.646
 5701POPC   C3A72737   8.877   6.513   7.120
 5701POPC   C4A72738   8.768   6.444   7.595
 5701POPC   C1B72739   9.448   7.020   6.289
 5701POPC   C2B72740   9.268   7.040   6.695
 5701POPC   C3B72741   9.271   6.851   7.087
 5701POPC   C4B72742   9.276   6.571   7.456
 5702POPC   NC372743   5.180  31.347   5.310
 5702POPC   PO472744   4.802  31.698   5.739
 5702POPC   GL172745   5.023  31.303   5.802
 5702POPC   GL272746   5.268  31.487   5.820
 5702POPC   C1A72747   5.331  31.121   6.147
 5702POPC   D2A72748   5.163  31.176   6.580
 5702POPC   C3A72749   5.370  31.356   6.934
 5702POPC   C4A72750   5.145  31.162   7.290
 5702POPC   C1B72751   5.065  31.552   6.269
 5702POPC   C2B72752   4.845  31.626   6.649
 5702POPC   C3B72753   5.112  31.826   6.934
 5702POPC   C4B72754   5.324  31.724   7.304
 5703POPC   NC372755  26.904   7.696   5.707
 5703POPC   PO472756  26.448   7.245   5.429
 5703POPC   GL172757  26.490   7.404   5.828
 5703POPC   GL272758  26.794   7.204   5.924
 5703POPC   C1A72759  26.525   7.524   6.251
 5703POPC   D2A72760  26.774   7.494   6.615
 5703POPC   C3A72761  26.606   7.473   7.000
 5703POPC   C4A72762  26.877   7.175   7.153
 5703POPC   C1B72763  27.101   7.384   6.224
 5703POPC   C2B72764  27.302   7.408   6.583
 5703POPC   C3B72765  27.187   7.633   6.924
 5703POPC   C4B72766  27.179   7.793   7.290
 5704POPC   NC372767   3.202  23.317   5.509
 5704POPC   PO472768   3.327  24.024   5.573
 5704POPC   GL172769   3.427  23.661   5.835
 5704POPC   GL272770   3.109  23.531   5.966
 5704POPC   C1A72771   3.671  23.607   6.221
 5704POPC   D2A72772   3.692  23.971   6.571
 5704POPC   C3A72773   3.788  23.802   6.978
 5704POPC   C4A72774   3.814  23.374   7.013
 5704POPC   C1B72775   3.234  23.814   6.304
 5704POPC   C2B72776   3.340  23.635   6.694
 5704POPC   C3B72777   3.298  23.623   7.128
 5704POPC   C4B72778   3.492  23.540   7.514
 5705POPC   NC372779  20.073  19.912   5.266
 5705POPC   PO472780  19.440  19.812   5.035
 5705POPC   GL172781  19.606  19.875   5.524
 5705POPC   GL272782  19.904  19.667   5.664
 5705POPC   C1A72783  19.654  19.868   6.050
 5705POPC   D2A72784  19.671  19.657   6.495
 5705POPC   C3A72785  19.620  19.936   6.902
 5705POPC   C4A72786  19.830  20.080   7.265
 5705POPC   C1B72787  20.048  19.472   6.061
 5705POPC   C2B72788  20.225  19.515   6.471
 5705POPC   C3B72789  20.051  19.680   6.845
 5705POPC   C4B72790  20.158  19.646   7.259
 5706POPC   NC372791   6.936   0.604   5.558
 5706POPC   PO472792   7.464   0.347   5.198
 5706POPC   GL172793   7.544   0.432   5.647
 5706POPC   GL272794   7.247   0.335   5.831
 5706POPC   C1A72795   7.634   0.449   6.128
 5706POPC   D2A72796   7.363   0.398   6.539
 5706POPC   C3A72797   7.596   0.383   6.929
 5706POPC   C4A72798   7.646   0.621   7.274
 5706POPC   C1B72799   6.925   0.290   6.170
 5706POPC   C2B72800   6.824   0.350   6.603
 5706POPC   C3B72801   6.827   0.218   7.030
 5706POPC   C4B72802   7.143   0.396   7.286
 5707POPC   NC372803  11.391  36.592   5.618
 5707POPC   PO472804  10.939  36.948   5.200
 5707POPC   GL172805  11.059  37.161   5.628
 5707POPC   GL272806  11.429  37.188   5.713
 5707POPC   C1A72807  11.109  37.106   6.107
 5707POPC   D2A72808  11.229  36.739   6.395
 5707POPC   C3A72809  11.231  36.835   6.835
 5707POPC   C4A72810  11.079  37.215   6.994
 5707POPC   C1B72811  11.602  37.000   6.135
 5707POPC   C2B72812  11.564  37.165   6.584
 5707POPC   C3B72813  11.577  37.160   7.061
 5707POPC   C4B72814  11.507  36.749   7.250
 5708POPC   NC372815  32.005  31.708   5.503
 5708POPC   PO472816  31.505  31.324   5.290
 5708POPC   GL172817  31.516  31.489   5.699
 5708POPC   GL272818  31.818  31.332   5.819
 5708POPC   C1A72819  31.254  31.688   6.048
 5708POPC   D2A72820  31.245  31.771   6.516
 5708POPC   C3A72821  31.425  31.463   6.840
 5708POPC   C4A72822  31.271  31.115   7.114
 5708POPC   C1B72823  31.619  31.369   6.207
 5708POPC   C2B72824  31.796  31.219   6.546
 5708POPC   C3B72825  31.758  31.056   6.923
 5708POPC   C4B72826  31.712  31.264   7.301
 5709POPC   NC372827  42.800  40.455   5.543
 5709POPC   PO472828  42.395  40.994   5.489
 5709POPC   GL172829  42.159  40.855   5.856
 5709POPC   GL272830  42.374  40.602   5.856
 5709POPC   C1A72831  42.160  40.812   6.301
 5709POPC   D2A72832  42.500  40.950   6.541
 5709POPC   C3A72833  42.449  40.955   6.946
 5709POPC   C4A72834  42.067  40.807   7.110
 5709POPC   C1B72835  42.613  40.450   6.195
 5709POPC   C2B72836  42.760  40.270   6.563
 5709POPC   C3B72837  42.783  40.563   6.894
 5709POPC   C4B72838  42.578  40.623   7.300
 5710POPC   NC372839  42.260   2.512   5.428
 5710POPC   PO472840  41.923   1.963   5.296
 5710POPC   GL172841  42.202   1.985   5.676
 5710POPC   GL272842  41.992   2.210   5.807
 5710POPC   C1A72843  42.343   1.742   6.077
 5710POPC   D2A72844  42.425   1.859   6.534
 5710POPC   C3A72845  42.345   1.659   6.947
 5710POPC   C4A72846  42.451   1.908   7.318
 5710POPC   C1B72847  42.147   2.180   6.220
 5710POPC   C2B72848  42.154   2.351   6.586
 5710POPC   C3B72849  42.186   2.162   6.955
 5710POPC   C4B72850  41.939   1.959   7.245
 5711POPC   NC372851   5.484  44.774   5.530
 5711POPC   PO472852   6.096  44.944   5.514
 5711POPC   GL172853   5.937  44.649   5.815
 5711POPC   GL272854   6.225  44.422   5.848
 5711POPC   C1A72855   5.702  44.631   6.225
 5711POPC   D2A72856   5.935  44.661   6.623
 5711POPC   C3A72857   5.752  44.575   7.052
 5711POPC   C4A72858   5.512  44.854   7.363
 5711POPC   C1B72859   6.063  44.266   6.234
 5711POPC   C2B72860   6.210  44.121   6.627
 5711POPC   C3B72861   6.245  44.429   6.948
 5711POPC   C4B72862   6.141  44.458   7.391
 5712POPC   NC372863  39.246  24.052   5.508
 5712POPC   PO472864  39.580  24.598   5.319
 5712POPC   GL172865  39.425  24.647   5.757
 5712POPC   GL272866  39.101  24.482   5.804
 5712POPC   C1A72867  39.244  24.798   6.161
 5712POPC   D2A72868  39.102  24.623   6.568
 5712POPC   C3A72869  39.306  24.768   6.952
 5712POPC   C4A72870  39.556  24.779   7.321
 5712POPC   C1B72871  39.203  24.261   6.190
 5712POPC   C2B72872  39.117  24.092   6.586
 5712POPC   C3B72873  39.167  24.270   6.980
 5712POPC   C4B72874  39.238  24.353   7.399
 5713POPC   NC372875   0.789  31.216   5.109
 5713POPC   PO472876   0.962  31.826   5.264
 5713POPC   GL172877   1.024  31.477   5.653
 5713POPC   GL272878   1.345  31.479   5.830
 5713POPC   C1A72879   1.030  31.189   6.088
 5713POPC   D2A72880   0.966  31.388   6.506
 5713POPC   C3A72881   0.958  31.229   6.907
 5713POPC   C4A72882   1.312  31.036   7.040
 5713POPC   C1B72883   1.514  31.565   6.241
 5713POPC   C2B72884   1.515  31.466   6.696
 5713POPC   C3B72885   1.270  31.614   7.034
 5713POPC   C4B72886   1.343  31.831   7.458
 5714POPC   NC372887   7.896  12.947   5.370
 5714POPC   PO472888   8.503  12.687   5.496
 5714POPC   GL172889   8.166  12.878   5.804
 5714POPC   GL272890   7.880  13.156   5.817
 5714POPC   C1A72891   8.149  12.929   6.243
 5714POPC   D2A72892   8.450  13.099   6.558
 5714POPC   C3A72893   8.475  12.870   6.951
 5714POPC   C4A72894   8.288  12.876   7.344
 5714POPC   C1B72895   7.754  13.288   6.210
 5714POPC   C2B72896   7.932  13.276   6.640
 5714POPC   C3B72897   7.903  13.116   7.080
 5714POPC   C4B72898   7.889  13.108   7.559
 5715POPC   NC372899  23.670  30.088   5.523
 5715POPC   PO472900  24.066  29.444   5.513
 5715POPC   GL172901  23.794  29.719   5.846
 5715POPC   GL272902  23.854  30.114   6.006
 5715POPC   C1A72903  23.508  29.836   6.220
 5715POPC   D2A72904  23.657  29.990   6.621
 5715POPC   C3A72905  23.548  29.850   7.030
 5715POPC   C4A72906  23.564  30.253   7.172
 5715POPC   C1B72907  24.049  29.851   6.278
 5715POPC   C2B72908  24.204  29.932   6.640
 5715POPC   C3B72909  24.029  30.016   6.997
 5715POPC   C4B72910  24.293  29.964   7.288
 5716POPC   NC372911   0.908  44.696   5.456
 5716POPC   PO472912   1.556  44.710   5.396
 5716POPC   GL172913   1.304  44.464   5.682
 5716POPC   GL272914   1.337  44.700   5.870
 5716POPC   C1A72915   1.051  44.316   6.074
 5716POPC   D2A72916   1.152  44.425   6.499
 5716POPC   C3A72917   0.993  44.545   6.905
 5716POPC   C4A72918   0.947  44.702   7.295
 5716POPC   C1B72919   1.544  44.453   6.176
 5716POPC   C2B72920   1.651  44.565   6.609
 5716POPC   C3B72921   1.566  44.736   7.044
 5716POPC   C4B72922   1.403  44.897   7.451
 5717POPC   NC372923   1.834  15.465   5.096
 5717POPC   PO472924   2.485  15.150   5.292
 5717POPC   GL172925   2.338  15.224   5.709
 5717POPC   GL272926   2.085  15.477   5.727
 5717POPC   C1A72927   2.146  15.072   6.128
 5717POPC   D2A72928   1.822  15.026   6.469
 5717POPC   C3A72929   2.024  14.975   6.885
 5717POPC   C4A72930   2.126  14.855   7.318
 5717POPC   C1B72931   1.953  15.574   6.162
 5717POPC   C2B72932   2.134  15.423   6.556
 5717POPC   C3B72933   1.922  15.468   6.934
 5717POPC   C4B72934   1.860  15.300   7.332
 5718POPC   NC372935  12.439   0.588   5.430
 5718POPC   PO472936  13.155   0.618   5.516
 5718POPC   GL172937  12.823   0.526   5.779
 5718POPC   GL272938  12.651   0.216   5.726
 5718POPC   C1A72939  12.878   0.420   6.190
 5718POPC   D2A72940  12.748   0.513   6.580
 5718POPC   C3A72941  13.031   0.491   6.902
 5718POPC   C4A72942  12.816   0.499   7.239
 5718POPC   C1B72943  12.399   0.234   6.090
 5718POPC   C2B72944  12.469   0.027   6.493
 5718POPC   C3B72945  12.594   0.113   6.918
 5718POPC   C4B72946  12.339   0.081   7.281
 5719POPC   NC372947   9.790  39.188   5.415
 5719POPC   PO472948  10.212  39.716   5.365
 5719POPC   GL172949  10.005  39.511   5.789
 5719POPC   GL272950   9.606  39.506   5.796
 5719POPC   C1A72951   9.817  39.345   6.234
 5719POPC   D2A72952   9.859  39.239   6.698
 5719POPC   C3A72953   9.632  38.920   6.965
 5719POPC   C4A72954   9.579  38.947   7.418
 5719POPC   C1B72955   9.345  39.561   6.196
 5719POPC   C2B72956   9.452  39.559   6.650
 5719POPC   C3B72957   9.518  39.413   7.099
 5719POPC   C4B72958   9.331  39.545   7.512
 5720POPC   NC372959  18.687   4.531   5.514
 5720POPC   PO472960  18.136   4.012   5.398
 5720POPC   GL172961  18.262   4.314   5.728
 5720POPC   GL272962  17.963   4.375   5.984
 5720POPC   C1A72963  18.449   4.303   6.085
 5720POPC   D2A72964  18.286   4.294   6.482
 5720POPC   C3A72965  18.568   4.294   6.786
 5720POPC   C4A72966  18.549   4.286   7.228
 5720POPC   C1B72967  18.095   3.937   6.113
 5720POPC   C2B72968  18.189   3.798   6.546
 5720POPC   C3B72969  18.152   4.025   6.930
 5720POPC   C4B72970  18.077   4.094   7.357
 5721POPC   NC372971  39.083  20.969   5.474
 5721POPC   PO472972  39.323  21.524   5.170
 5721POPC   GL172973  39.310  21.407   5.658
 5721POPC   GL272974  38.984  21.459   5.847
 5721POPC   C1A72975  39.407  21.421   6.131
 5721POPC   D2A72976  39.128  21.480   6.523
 5721POPC   C3A72977  39.344  21.345   6.898
 5721POPC   C4A72978  39.567  21.213   7.264
 5721POPC   C1B72979  38.998  21.097   6.180
 5721POPC   C2B72980  39.048  20.976   6.620
 5721POPC   C3B72981  38.891  21.137   7.042
 5721POPC   C4B72982  38.474  21.145   7.155
 5722POPC   NC372983  20.733  43.381   5.388
 5722POPC   PO472984  20.513  42.719   5.455
 5722POPC   GL172985  20.649  42.991   5.749
 5722POPC   GL272986  20.315  43.014   5.873
 5722POPC   C1A72987  20.710  43.007   6.203
 5722POPC   D2A72988  20.427  42.920   6.556
 5722POPC   C3A72989  20.691  42.846   6.899
 5722POPC   C4A72990  20.903  42.958   7.273
 5722POPC   C1B72991  20.354  43.369   6.133
 5722POPC   C2B72992  20.533  43.415   6.559
 5722POPC   C3B72993  20.397  43.267   6.963
 5722POPC   C4B72994  20.389  43.041   7.321
 5723POPC   NC372995  44.868   8.543   5.271
 5723POPC   PO472996  44.501   7.991   5.321
 5723POPC   GL172997  44.512   7.903   5.776
 5723POPC   GL272998  44.262   8.135   5.875
 5723POPC   C1A72999  44.702   8.109   6.181
 5723POPC   D2A73000  44.603   8.315   6.587
 5723POPC   C3A73001  44.849   8.320   6.974
 5723POPC   C4A73002  44.667   8.473   7.351
 5723POPC   C1B73003  44.207   7.933   6.283
 5723POPC   C2B73004  44.357   7.868   6.722
 5723POPC   C3B73005  44.414   8.074   7.122
 5723POPC   C4B73006  44.581   7.959   7.524
 5724POPC   NC373007   8.498  42.686   5.497
 5724POPC   PO473008   9.040  42.309   5.326
 5724POPC   GL173009   8.976  42.396   5.766
 5724POPC   GL273010   8.727  42.604   5.955
 5724POPC   C1A73011   9.175  42.405   6.176
 5724POPC   D2A73012   9.106  42.629   6.552
 5724POPC   C3A73013   8.919  42.423   6.914
 5724POPC   C4A73014   9.079  42.000   7.033
 5724POPC   C1B73015   8.715  42.183   6.158
 5724POPC   C2B73016   8.740  42.026   6.588
 5724POPC   C3B73017   8.569  42.037   7.015
 5724POPC   C4B73018   8.575  42.365   7.313
 5725POPC   NC373019  12.726  32.711   5.366
 5725POPC   PO473020  12.979  32.080   5.338
 5725POPC   GL173021  12.953  32.326   5.717
 5725POPC   GL273022  13.144  32.063   5.846
 5725POPC   C1A73023  12.729  32.238   6.134
 5725POPC   D2A73024  12.607  31.987   6.533
 5725POPC   C3A73025  12.664  32.249   6.909
 5725POPC   C4A73026  12.577  32.597   7.230
 5725POPC   C1B73027  12.936  31.761   6.099
 5725POPC   C2B73028  13.101  31.846   6.493
 5725POPC   C3B73029  13.177  32.081   6.844
 5725POPC   C4B73030  13.305  31.925   7.266
 5726POPC   NC373031  24.296   5.768   5.443
 5726POPC   PO473032  24.873   5.438   5.742
 5726POPC   GL173033  24.544   5.697   5.939
 5726POPC   GL273034  24.277   5.983   5.910
 5726POPC   C1A73035  24.631   5.950   6.311
 5726POPC   D2A73036  24.807   6.223   6.642
 5726POPC   C3A73037  24.690   6.004   6.993
 5726POPC   C4A73038  24.773   5.602   7.180
 5726POPC   C1B73039  24.153   6.134   6.333
 5726POPC   C2B73040  24.227   5.911   6.747
 5726POPC   C3B73041  24.254   5.871   7.227
 5726POPC   C4B73042  24.118   6.027   7.655
 5727POPC   NC373043   2.599  26.902   5.511
 5727POPC   PO473044   3.130  26.519   5.158
 5727POPC   GL173045   2.923  26.506   5.649
 5727POPC   GL273046   3.001  26.806   5.843
 5727POPC   C1A73047   2.627  26.597   6.098
 5727POPC   D2A73048   2.432  26.663   6.540
 5727POPC   C3A73049   2.630  26.767   6.942
 5727POPC   C4A73050   2.635  26.597   7.330
 5727POPC   C1B73051   2.853  27.074   6.187
 5727POPC   C2B73052   2.913  27.000   6.587
 5727POPC   C3B73053   3.055  27.156   6.960
 5727POPC   C4B73054   2.809  27.094   7.335
 5728POPC   NC373055  44.316   9.874   5.526
 5728POPC   PO473056   0.036   9.670   5.490
 5728POPC   GL173057  44.766   9.844   5.773
 5728POPC   GL273058  44.541   9.550   5.859
 5728POPC   C1A73059  44.636   9.949   6.193
 5728POPC   D2A73060  44.803  10.084   6.586
 5728POPC   C3A73061  44.741   9.907   6.992
 5728POPC   C4A73062  44.860   9.590   7.276
 5728POPC   C1B73063  44.384   9.504   6.269
 5728POPC   C2B73064  44.399   9.648   6.706
 5728POPC   C3B73065  44.431   9.383   7.107
 5728POPC   C4B73066  44.491   9.406   7.585
 5729POPC   NC373067  23.093  42.081   5.292
 5729POPC   PO473068  22.776  42.682   5.377
 5729POPC   GL173069  22.906  42.521   5.748
 5729POPC   GL273070  22.842  42.183   5.789
 5729POPC   C1A73071  22.740  42.529   6.166
 5729POPC   D2A73072  22.611  42.387   6.566
 5729POPC   C3A73073  22.809  42.577   6.920
 5729POPC   C4A73074  23.065  42.611   7.276
 5729POPC   C1B73075  22.886  42.029   6.240
 5729POPC   C2B73076  22.952  42.036   6.700
 5729POPC   C3B73077  22.748  42.058   7.112
 5729POPC   C4B73078  22.784  41.939   7.617
 5730POPC   NC373079  11.607  23.115   5.419
 5730POPC   PO473080  11.005  22.815   5.270
 5730POPC   GL173081  11.094  22.667   5.731
 5730POPC   GL273082  11.454  22.535   5.778
 5730POPC   C1A73083  11.143  22.887   6.156
 5730POPC   D2A73084  11.378  23.157   6.444
 5730POPC   C3A73085  11.289  23.094   6.877
 5730POPC   C4A73086  11.238  22.949   7.283
 5730POPC   C1B73087  11.610  22.701   6.164
 5730POPC   C2B73088  11.436  22.659   6.577
 5730POPC   C3B73089  11.449  22.574   7.006
 5730POPC   C4B73090  11.714  22.676   7.330
 5731POPC   NC373091  34.707   9.834   5.435
 5731POPC   PO473092  34.119   9.487   5.451
 5731POPC   GL173093  34.273   9.835   5.790
 5731POPC   GL273094  34.608   9.970   5.905
 5731POPC   C1A73095  34.260   9.833   6.279
 5731POPC   D2A73096  34.478   9.826   6.699
 5731POPC   C3A73097  34.603   9.465   6.990
 5731POPC   C4A73098  34.483   9.096   7.264
 5731POPC   C1B73099  34.542  10.258   6.239
 5731POPC   C2B73100  34.374  10.355   6.631
 5731POPC   C3B73101  34.318  10.180   7.021
 5731POPC   C4B73102  34.612   9.929   7.212
 5732POPC   NC373103   6.422  30.120   5.347
 5732POPC   PO473104   6.306  29.435   5.449
 5732POPC   GL173105   6.469  29.712   5.768
 5732POPC   GL273106   6.801  29.645   5.861
 5732POPC   C1A73107   6.448  29.867   6.215
 5732POPC   D2A73108   6.132  29.924   6.577
 5732POPC   C3A73109   6.294  30.176   6.907
 5732POPC   C4A73110   6.490  29.937   7.229
 5732POPC   C1B73111   6.975  29.784   6.199
 5732POPC   C2B73112   6.934  30.014   6.562
 5732POPC   C3B73113   6.929  29.819   6.928
 5732POPC   C4B73114   7.009  29.914   7.305
 5733POPC   NC373115  27.573  28.707   5.450
 5733POPC   PO473116  27.428  28.054   5.302
 5733POPC   GL173117  27.576  28.161   5.749
 5733POPC   GL273118  27.612  28.524   5.915
 5733POPC   C1A73119  27.361  28.170   6.168
 5733POPC   D2A73120  27.283  28.400   6.519
 5733POPC   C3A73121  27.294  28.124   6.877
 5733POPC   C4A73122  27.490  28.155   7.274
 5733POPC   C1B73123  27.872  28.255   6.173
 5733POPC   C2B73124  27.734  28.151   6.555
 5733POPC   C3B73125  27.807  28.342   6.928
 5733POPC   C4B73126  28.022  28.169   7.295
 5734POPC   NC373127  39.547  40.225   5.489
 5734POPC   PO473128  39.371  39.617   5.210
 5734POPC   GL173129  39.381  39.774   5.698
 5734POPC   GL273130  39.190  40.091   5.828
 5734POPC   C1A73131  39.225  39.696   6.148
 5734POPC   D2A73132  39.031  39.900   6.510
 5734POPC   C3A73133  39.214  39.805   6.882
 5734POPC   C4A73134  39.530  40.005   7.082
 5734POPC   C1B73135  39.277  40.300   6.258
 5734POPC   C2B73136  39.262  40.325   6.750
 5734POPC   C3B73137  39.044  40.215   7.158
 5734POPC   C4B73138  39.001  40.312   7.624
 5735POPC   NC373139  11.469   5.678   5.578
 5735POPC   PO473140  11.270   6.282   5.479
 5735POPC   GL173141  11.375   6.127   5.901
 5735POPC   GL273142  11.292   5.756   6.035
 5735POPC   C1A73143  11.435   6.122   6.338
 5735POPC   D2A73144  11.366   5.732   6.544
 5735POPC   C3A73145  11.279   5.944   6.871
 5735POPC   C4A73146  11.284   6.183   7.204
 5735POPC   C1B73147  11.742   5.755   6.190
 5735POPC   C2B73148  11.883   5.683   6.626
 5735POPC   C3B73149  11.631   5.512   6.937
 5735POPC   C4B73150  11.332   5.611   7.236
 5736POPC   NC373151  40.204   7.113   5.528
 5736POPC   PO473152  39.963   7.596   5.398
 5736POPC   GL173153  40.079   7.492   5.843
 5736POPC   GL273154  39.833   7.235   5.890
 5736POPC   C1A73155  40.228   7.235   6.236
 5736POPC   D2A73156  40.145   7.156   6.692
 5736POPC   C3A73157  40.360   7.271   7.092
 5736POPC   C4A73158  40.231   7.518   7.481
 5736POPC   C1B73159  39.727   7.170   6.352
 5736POPC   C2B73160  39.653   7.184   6.819
 5736POPC   C3B73161  39.846   7.335   7.208
 5736POPC   C4B73162  39.745   7.302   7.675
 5737POPC   NC373163  21.919  32.261   5.212
 5737POPC   PO473164  22.022  32.028   5.789
 5737POPC   GL173165  22.300  32.247   6.030
 5737POPC   GL273166  22.564  31.969   6.007
 5737POPC   C1A73167  22.197  32.449   6.408
 5737POPC   D2A73168  21.913  32.532   6.717
 5737POPC   C3A73169  21.872  32.193   6.993
 5737POPC   C4A73170  22.110  32.112   7.352
 5737POPC   C1B73171  22.486  32.026   6.431
 5737POPC   C2B73172  22.371  32.172   6.843
 5737POPC   C3B73173  22.607  32.058   7.191
 5737POPC   C4B73174  22.519  32.137   7.675
 5738POPC   NC373175  16.278   8.103   5.473
 5738POPC   PO473176  15.645   8.402   5.409
 5738POPC   GL173177  15.846   8.169   5.799
 5738POPC   GL273178  16.091   7.872   5.892
 5738POPC   C1A73179  15.876   8.148   6.272
 5738POPC   D2A73180  15.985   8.449   6.602
 5738POPC   C3A73181  15.934   8.332   6.996
 5738POPC   C4A73182  16.067   8.443   7.371
 5738POPC   C1B73183  16.335   7.878   6.283
 5738POPC   C2B73184  16.160   7.958   6.695
 5738POPC   C3B73185  16.387   8.102   7.037
 5738POPC   C4B73186  16.426   8.060   7.479
 5739POPC   NC373187   3.384  27.102   5.595
 5739POPC   PO473188   4.050  26.707   5.499
 5739POPC   GL173189   3.740  26.786   5.789
 5739POPC   GL273190   3.446  26.577   5.828
 5739POPC   C1A73191   3.833  26.753   6.215
 5739POPC   D2A73192   4.139  26.742   6.539
 5739POPC   C3A73193   3.920  26.961   6.862
 5739POPC   C4A73194   3.653  26.865   7.207
 5739POPC   C1B73195   3.304  26.762   6.274
 5739POPC   C2B73196   3.348  26.787   6.759
 5739POPC   C3B73197   3.154  26.736   7.202
 5739POPC   C4B73198   3.282  27.066   7.524
 5740POPC   NC373199  41.120  42.204   5.572
 5740POPC   PO473200  40.511  41.988   5.566
 5740POPC   GL173201  40.718  42.241   5.894
 5740POPC   GL273202  41.085  42.336   6.037
 5740POPC   C1A73203  40.680  42.404   6.297
 5740POPC   D2A73204  41.003  42.388   6.632
 5740POPC   C3A73205  40.784  42.370   6.991
 5740POPC   C4A73206  40.788  42.137   7.346
 5740POPC   C1B73207  41.081  42.718   6.259
 5740POPC   C2B73208  41.144  42.908   6.638
 5740POPC   C3B73209  41.117  42.749   7.035
 5740POPC   C4B73210  41.039  42.584   7.429
 5741POPC   NC373211  30.568   9.115   5.102
 5741POPC   PO473212  30.781   9.740   5.376
 5741POPC   GL173213  30.809   9.957   5.763
 5741POPC   GL273214  30.435   9.987   5.791
 5741POPC   C1A73215  31.051   9.901   6.180
 5741POPC   D2A73216  31.065   9.586   6.539
 5741POPC   C3A73217  30.801   9.731   6.871
 5741POPC   C4A73218  30.756  10.141   7.039
 5741POPC   C1B73219  30.563   9.691   6.142
 5741POPC   C2B73220  30.563   9.379   6.466
 5741POPC   C3B73221  30.404   9.346   6.867
 5741POPC   C4B73222  30.556   9.456   7.276
 5742POPC   NC373223  44.311  36.844   5.455
 5742POPC   PO473224  43.622  36.950   5.468
 5742POPC   GL173225  43.766  36.846   5.895
 5742POPC   GL273226  44.098  36.708   5.893
 5742POPC   C1A73227  43.702  36.928   6.343
 5742POPC   D2A73228  43.885  37.148   6.700
 5742POPC   C3A73229  43.905  36.939   7.110
 5742POPC   C4A73230  43.732  37.087   7.499
 5742POPC   C1B73231  44.187  36.757   6.337
 5742POPC   C2B73232  44.018  36.599   6.719
 5742POPC   C3B73233  44.264  36.581   7.111
 5742POPC   C4B73234  44.496  36.883   7.343
 5743POPC   NC373235  27.393  17.940   5.595
 5743POPC   PO473236  27.840  17.706   5.202
 5743POPC   GL173237  27.492  17.453   5.613
 5743POPC   GL273238  27.589  17.621   5.934
 5743POPC   C1A73239  27.331  17.219   6.106
 5743POPC   D2A73240  27.634  17.388   6.413
 5743POPC   C3A73241  27.595  17.355   6.856
 5743POPC   C4A73242  27.602  17.336   7.296
 5743POPC   C1B73243  27.228  17.704   6.219
 5743POPC   C2B73244  27.148  17.451   6.608
 5743POPC   C3B73245  27.174  17.577   7.071
 5743POPC   C4B73246  27.306  17.867   7.398
 5744POPC   NC373247   4.880  44.963   5.353
 5744POPC   PO473248   5.277  44.382   5.399
 5744POPC   GL173249   5.080  44.509   5.784
 5744POPC   GL273250   5.172  44.185   5.950
 5744POPC   C1A73251   5.125  44.640   6.226
 5744POPC   D2A73252   4.987  44.632   6.670
 5744POPC   C3A73253   5.228  44.565   7.055
 5744POPC   C4A73254   5.079  44.468   7.490
 5744POPC   C1B73255   4.837  44.129   6.244
 5744POPC   C2B73256   4.654  44.238   6.660
 5744POPC   C3B73257   4.833  44.236   7.044
 5744POPC   C4B73258   4.614  44.231   7.380
 5745POPC   NC373259  23.157  39.786   5.312
 5745POPC   PO473260  22.539  39.656   5.769
 5745POPC   GL173261  22.723  40.026   6.024
 5745POPC   GL273262  23.046  40.023   5.883
 5745POPC   C1A73263  22.974  40.182   6.374
 5745POPC   D2A73264  22.965  39.849   6.658
 5745POPC   C3A73265  22.720  39.909   6.994
 5745POPC   C4A73266  22.904  40.283   7.179
 5745POPC   C1B73267  23.392  39.980   6.151
 5745POPC   C2B73268  23.473  39.830   6.578
 5745POPC   C3B73269  23.326  40.032   6.970
 5745POPC   C4B73270  23.286  39.896   7.402
 5746POPC   NC373271   1.476   3.102   5.455
 5746POPC   PO473272   0.995   2.557   5.433
 5746POPC   GL173273   1.249   2.728   5.756
 5746POPC   GL273274   1.200   3.080   5.902
 5746POPC   C1A73275   1.413   2.658   6.163
 5746POPC   D2A73276   1.157   2.741   6.539
 5746POPC   C3A73277   1.268   3.009   6.886
 5746POPC   C4A73278   1.313   2.905   7.319
 5746POPC   C1B73279   1.627   3.107   6.133
 5746POPC   C2B73280   1.752   3.096   6.598
 5746POPC   C3B73281   1.752   3.029   7.073
 5746POPC   C4B73282   1.793   2.960   7.531
 5747POPC   NC373283   9.618  31.828   5.150
 5747POPC   PO473284   8.995  31.530   5.300
 5747POPC   GL173285   8.903  31.300   5.698
 5747POPC   GL273286   8.858  31.586   5.873
 5747POPC   C1A73287   8.792  31.158   6.152
 5747POPC   D2A73288   8.838  31.360   6.564
 5747POPC   C3A73289   8.656  31.154   6.920
 5747POPC   C4A73290   8.773  31.222   7.338
 5747POPC   C1B73291   9.177  31.618   6.202
 5747POPC   C2B73292   9.370  31.442   6.581
 5747POPC   C3B73293   9.187  31.298   6.980
 5747POPC   C4B73294   9.185  31.522   7.364
 5748POPC   NC373295  27.815  11.836   5.524
 5748POPC   PO473296  28.099  12.390   5.569
 5748POPC   GL173297  27.886  12.192   5.910
 5748POPC   GL273298  27.549  12.045   5.913
 5748POPC   C1A73299  27.944  11.942   6.265
 5748POPC   D2A73300  27.708  11.826   6.667
 5748POPC   C3A73301  27.790  11.979   7.101
 5748POPC   C4A73302  27.592  11.869   7.481
 5748POPC   C1B73303  27.505  12.203   6.356
 5748POPC   C2B73304  27.438  12.255   6.826
 5748POPC   C3B73305  27.195  12.087   7.165
 5748POPC   C4B73306  27.080  12.143   7.592
 5749POPC   NC373307   7.590  23.577   5.300
 5749POPC   PO473308   7.075  23.885   5.594
 5749POPC   GL173309   7.503  23.784   5.769
 5749POPC   GL273310   7.563  23.407   5.783
 5749POPC   C1A73311   7.544  23.814   6.208
 5749POPC   D2A73312   7.168  23.915   6.504
 5749POPC   C3A73313   7.226  23.993   6.943
 5749POPC   C4A73314   7.659  23.887   7.073
 5749POPC   C1B73315   7.221  23.442   6.078
 5749POPC   C2B73316   7.156  23.401   6.508
 5749POPC   C3B73317   7.399  23.527   6.836
 5749POPC   C4B73318   7.249  23.572   7.254
 5750POPC   NC373319   6.075  12.552   5.417
 5750POPC   PO473320   6.697  12.853   5.406
 5750POPC   GL173321   6.804  13.111   5.748
 5750POPC   GL273322   6.507  12.945   5.890
 5750POPC   C1A73323   6.682  13.377   6.115
 5750POPC   D2A73324   6.719  13.072   6.413
 5750POPC   C3A73325   6.646  13.117   6.882
 5750POPC   C4A73326   6.420  13.063   7.261
 5750POPC   C1B73327   6.343  12.723   6.229
 5750POPC   C2B73328   6.567  12.656   6.624
 5750POPC   C3B73329   6.603  12.606   7.030
 5750POPC   C4B73330   6.447  12.555   7.407
 5751POPC   NC373331  31.877  22.287   5.411
 5751POPC   PO473332  32.484  21.974   5.249
 5751POPC   GL173333  32.364  22.158   5.728
 5751POPC   GL273334  32.011  22.336   5.883
 5751POPC   C1A73335  32.283  22.006   6.172
 5751POPC   D2A73336  31.928  22.142   6.394
 5751POPC   C3A73337  31.993  22.178   6.844
 5751POPC   C4A73338  32.342  21.979   7.124
 5751POPC   C1B73339  32.296  22.505   6.147
 5751POPC   C2B73340  32.385  22.382   6.553
 5751POPC   C3B73341  32.426  22.452   6.980
 5751POPC   C4B73342  32.092  22.474   7.263
 5752POPC   NC373343   3.289  16.383   5.214
 5752POPC   PO473344   3.828  15.963   5.212
 5752POPC   GL173345   3.634  16.184   5.603
 5752POPC   GL273346   3.878  16.242   5.861
 5752POPC   C1A73347   3.470  16.052   6.062
 5752POPC   D2A73348   3.612  15.746   6.404
 5752POPC   C3A73349   3.393  15.805   6.786
 5752POPC   C4A73350   3.176  15.925   7.148
 5752POPC   C1B73351   3.939  16.135   6.328
 5752POPC   C2B73352   3.857  16.009   6.794
 5752POPC   C3B73353   3.716  15.848   7.214
 5752POPC   C4B73354   3.789  15.949   7.711
 5753POPC   NC373355  21.874   3.155   5.180
 5753POPC   PO473356  22.437   2.926   5.496
 5753POPC   GL173357  22.283   2.779   5.855
 5753POPC   GL273358  21.983   2.570   5.833
 5753POPC   C1A73359  22.411   2.960   6.240
 5753POPC   D2A73360  22.285   2.933   6.664
 5753POPC   C3A73361  22.261   2.580   6.920
 5753POPC   C4A73362  22.170   2.571   7.369
 5753POPC   C1B73363  21.953   2.698   6.270
 5753POPC   C2B73364  21.798   2.660   6.692
 5753POPC   C3B73365  21.851   2.887   7.094
 5753POPC   C4B73366  21.802   2.885   7.556
 5754POPC   NC373367  42.427  30.729   5.261
 5754POPC   PO473368  42.392  30.369   5.703
 5754POPC   GL173369  42.251  30.691   5.936
 5754POPC   GL273370  42.405  30.941   5.770
 5754POPC   C1A73371  42.226  30.720   6.376
 5754POPC   D2A73372  42.335  30.379   6.660
 5754POPC   C3A73373  42.635  30.549   6.906
 5754POPC   C4A73374  42.387  30.793   7.213
 5754POPC   C1B73375  42.345  31.201   6.156
 5754POPC   C2B73376  42.129  31.208   6.579
 5754POPC   C3B73377  41.997  31.097   7.029
 5754POPC   C4B73378  42.007  31.026   7.504
 5755POPC   NC373379  24.112   9.722   5.155
 5755POPC   PO473380  23.511   9.871   5.355
 5755POPC   GL173381  23.504   9.760   5.827
 5755POPC   GL273382  23.790   9.550   5.893
 5755POPC   C1A73383  23.533   9.774   6.314
 5755POPC   D2A73384  23.797   9.863   6.699
 5755POPC   C3A73385  23.758   9.685   7.095
 5755POPC   C4A73386  23.656   9.725   7.518
 5755POPC   C1B73387  24.047   9.694   6.264
 5755POPC   C2B73388  24.279   9.973   6.571
 5755POPC   C3B73389  24.206   9.996   7.028
 5755POPC   C4B73390  24.168   9.765   7.436
 5756POPC   NC373391  37.769  36.876   5.261
 5756POPC   PO473392  37.108  37.222   5.205
 5756POPC   GL173393  37.375  36.967   5.603
 5756POPC   GL273394  37.739  36.861   5.764
 5756POPC   C1A73395  37.364  36.950   6.101
 5756POPC   D2A73396  37.604  37.065   6.498
 5756POPC   C3A73397  37.468  36.886   6.909
 5756POPC   C4A73398  37.559  36.933   7.374
 5756POPC   C1B73399  37.925  36.758   6.198
 5756POPC   C2B73400  37.869  36.563   6.640
 5756POPC   C3B73401  37.850  36.596   7.126
 5756POPC   C4B73402  37.785  36.472   7.591
 5757POPC   NC373403   5.967  40.496   5.369
 5757POPC   PO473404   5.689  41.067   5.471
 5757POPC   GL173405   5.657  40.870   5.847
 5757POPC   GL273406   5.610  40.513   5.750
 5757POPC   C1A73407   5.788  40.902   6.274
 5757POPC   D2A73408   5.572  40.763   6.631
 5757POPC   C3A73409   5.762  40.850   7.005
 5757POPC   C4A73410   5.532  40.789   7.381
 5757POPC   C1B73411   5.915  40.450   6.042
 5757POPC   C2B73412   5.886  40.374   6.468
 5757POPC   C3B73413   6.025  40.432   6.892
 5757POPC   C4B73414   5.901  40.435   7.310
 5758POPC   NC373415  27.265  39.319   5.176
 5758POPC   PO473416  26.640  39.155   5.480
 5758POPC   GL173417  26.977  39.232   5.774
 5758POPC   GL273418  27.230  38.954   5.730
 5758POPC   C1A73419  27.057  39.311   6.233
 5758POPC   D2A73420  26.777  39.299   6.582
 5758POPC   C3A73421  26.706  39.466   6.986
 5758POPC   C4A73422  26.498  39.203   7.295
 5758POPC   C1B73423  27.409  38.949   6.160
 5758POPC   C2B73424  27.233  38.925   6.585
 5758POPC   C3B73425  27.342  38.923   7.014
 5758POPC   C4B73426  27.021  39.085   7.243
 5759POPC   NC373427   7.201  13.886   5.460
 5759POPC   PO473428   7.540  13.262   5.408
 5759POPC   GL173429   7.421  13.523   5.760
 5759POPC   GL273430   7.079  13.535   5.817
 5759POPC   C1A73431   7.498  13.746   6.127
 5759POPC   D2A73432   7.502  13.574   6.554
 5759POPC   C3A73433   7.535  13.773   6.951
 5759POPC   C4A73434   7.938  13.750   7.167
 5759POPC   C1B73435   7.205  13.295   6.203
 5759POPC   C2B73436   7.078  13.326   6.632
 5759POPC   C3B73437   7.123  13.385   7.044
 5759POPC   C4B73438   6.875  13.271   7.382
 5760POPC   NC373439  23.290   3.497   5.298
 5760POPC   PO473440  23.933   3.515   5.353
 5760POPC   GL173441  23.780   3.448   5.762
 5760POPC   GL273442  23.725   3.797   5.810
 5760POPC   C1A73443  23.532   3.508   6.160
 5760POPC   D2A73444  23.536   3.793   6.485
 5760POPC   C3A73445  23.515   3.607   6.868
 5760POPC   C4A73446  23.554   3.743   7.276
 5760POPC   C1B73447  23.973   3.787   6.213
 5760POPC   C2B73448  24.158   3.723   6.604
 5760POPC   C3B73449  24.014   3.685   7.026
 5760POPC   C4B73450  23.974   3.329   7.321
 5761POPC   NC373451  33.352  44.136   5.452
 5761POPC   PO473452  32.666  44.041   5.179
 5761POPC   GL173453  32.892  44.150   5.629
 5761POPC   GL273454  33.083  43.839   5.768
 5761POPC   C1A73455  32.967  44.183   6.119
 5761POPC   D2A73456  33.107  44.194   6.578
 5761POPC   C3A73457  33.048  43.962   7.021
 5761POPC   C4A73458  32.914  44.063   7.478
 5761POPC   C1B73459  33.274  43.668   6.146
 5761POPC   C2B73460  33.402  43.417   6.521
 5761POPC   C3B73461  33.338  43.475   6.981
 5761POPC   C4B73462  33.299  43.309   7.374
 5762POPC   NC373463   9.304  15.542   5.295
 5762POPC   PO473464   8.812  15.135   5.230
 5762POPC   GL173465   8.922  15.049   5.666
 5762POPC   GL273466   9.020  15.365   5.795
 5762POPC   C1A73467   8.855  14.945   6.109
 5762POPC   D2A73468   9.001  14.814   6.522
 5762POPC   C3A73469   8.811  14.871   6.932
 5762POPC   C4A73470   9.033  15.091   7.275
 5762POPC   C1B73471   8.980  15.416   6.254
 5762POPC   C2B73472   8.887  15.325   6.693
 5762POPC   C3B73473   9.013  15.559   7.064
 5762POPC   C4B73474   8.887  15.544   7.518
 5763POPC   NC373475   1.647   9.838   5.424
 5763POPC   PO473476   2.244   9.666   5.524
 5763POPC   GL173477   2.179   9.905   5.871
 5763POPC   GL273478   1.833   9.839   5.888
 5763POPC   C1A73479   2.090   9.751   6.307
 5763POPC   D2A73480   1.943   9.518   6.679
 5763POPC   C3A73481   2.167   9.625   7.036
 5763POPC   C4A73482   2.328   9.615   7.442
 5763POPC   C1B73483   1.589   9.863   6.247
 5763POPC   C2B73484   1.730   9.980   6.627
 5763POPC   C3B73485   1.679   9.820   7.012
 5763POPC   C4B73486   1.721   9.418   7.165
 5764POPC   NC373487   2.959   4.422   5.370
 5764POPC   PO473488   2.474   3.974   5.554
 5764POPC   GL173489   2.732   4.265   5.807
 5764POPC   GL273490   3.127   4.196   5.799
 5764POPC   C1A73491   2.746   4.230   6.263
 5764POPC   D2A73492   2.517   4.360   6.614
 5764POPC   C3A73493   2.613   4.264   7.056
 5764POPC   C4A73494   2.635   4.424   7.486
 5764POPC   C1B73495   3.083   4.579   6.053
 5764POPC   C2B73496   3.038   4.595   6.485
 5764POPC   C3B73497   2.864   4.655   6.866
 5764POPC   C4B73498   3.068   4.498   7.214
 5765POPC   NC373499  14.922  31.081   5.605
 5765POPC   PO473500  14.864  31.740   5.392
 5765POPC   GL173501  15.173  31.549   5.714
 5765POPC   GL273502  15.368  31.219   5.837
 5765POPC   C1A73503  15.125  31.556   6.172
 5765POPC   D2A73504  14.912  31.512   6.567
 5765POPC   C3A73505  15.152  31.674   6.930
 5765POPC   C4A73506  15.093  31.623   7.377
 5765POPC   C1B73507  15.285  31.057   6.269
 5765POPC   C2B73508  15.293  31.202   6.717
 5765POPC   C3B73509  15.431  31.276   7.141
 5765POPC   C4B73510  15.792  31.258   7.418
 5766POPC   NC373511  28.529  35.583   5.449
 5766POPC   PO473512  28.997  36.086   5.401
 5766POPC   GL173513  29.173  36.159   5.790
 5766POPC   GL273514  29.385  35.883   5.902
 5766POPC   C1A73515  29.236  36.317   6.199
 5766POPC   D2A73516  29.330  36.158   6.554
 5766POPC   C3A73517  29.266  36.465   6.859
 5766POPC   C4A73518  29.064  36.447   7.274
 5766POPC   C1B73519  29.003  35.866   6.173
 5766POPC   C2B73520  28.855  36.001   6.597
 5766POPC   C3B73521  29.096  36.026   7.004
 5766POPC   C4B73522  28.886  35.904   7.395
 5767POPC   NC373523  28.766  15.791   5.458
 5767POPC   PO473524  28.280  16.321   5.595
 5767POPC   GL173525  28.274  16.117   5.903
 5767POPC   GL273526  28.637  16.058   5.896
 5767POPC   C1A73527  28.232  15.878   6.246
 5767POPC   D2A73528  28.285  15.987   6.660
 5767POPC   C3A73529  28.053  15.795   6.940
 5767POPC   C4A73530  28.092  15.831   7.350
 5767POPC   C1B73531  28.724  15.986   6.326
 5767POPC   C2B73532  28.728  15.704   6.670
 5767POPC   C3B73533  28.552  15.811   7.083
 5767POPC   C4B73534  28.578  15.945   7.527
 5768POPC   NC373535   9.344  31.208   5.433
 5768POPC   PO473536   9.944  31.485   5.297
 5768POPC   GL173537   9.774  31.395   5.714
 5768POPC   GL273538   9.476  31.609   5.768
 5768POPC   C1A73539   9.666  31.255   6.154
 5768POPC   D2A73540   9.669  30.936   6.475
 5768POPC   C3A73541   9.773  31.153   6.850
 5768POPC   C4A73542   9.634  31.285   7.264
 5768POPC   C1B73543   9.685  31.757   6.170
 5768POPC   C2B73544   9.839  31.671   6.617
 5768POPC   C3B73545   9.746  31.745   7.076
 5768POPC   C4B73546   9.913  31.657   7.513
 5769POPC   NC373547  44.225  43.990   5.068
 5769POPC   PO473548  44.636  44.250   5.594
 5769POPC   GL173549  44.632  44.156   6.030
 5769POPC   GL273550  44.625  43.816   6.070
 5769POPC   C1A73551  44.380  44.246   6.406
 5769POPC   D2A73552  44.270  44.278   6.867
 5769POPC   C3A73553  44.607  44.058   7.097
 5769POPC   C4A73554  44.666  43.859   7.492
 5769POPC   C1B73555  44.939  43.842   6.389
 5769POPC   C2B73556  44.996  43.746   6.825
 5769POPC   C3B73557  44.916  43.546   7.209
 5769POPC   C4B73558   0.074  43.577   7.648
 5770POPC   NC373559  24.160  27.764   5.483
 5770POPC   PO473560  23.738  27.266   5.389
 5770POPC   GL173561  23.799  27.337   5.849
 5770POPC   GL273562  23.787  27.664   5.839
 5770POPC   C1A73563  23.971  27.436   6.297
 5770POPC   D2A73564  23.803  27.610   6.693
 5770POPC   C3A73565  23.911  27.470   7.092
 5770POPC   C4A73566  23.967  27.033   7.218
 5770POPC   C1B73567  23.819  27.921   6.190
 5770POPC   C2B73568  23.727  28.100   6.573
 5770POPC   C3B73569  23.726  28.057   6.984
 5770POPC   C4B73570  23.452  28.104   7.330
 5771POPC   NC373571  23.653  44.054   5.325
 5771POPC   PO473572  23.683  43.568   5.790
 5771POPC   GL173573  23.742  43.987   5.917
 5771POPC   GL273574  23.399  44.018   5.817
 5771POPC   C1A73575  23.748  44.064   6.372
 5771POPC   D2A73576  23.560  43.712   6.584
 5771POPC   C3A73577  23.629  43.704   7.014
 5771POPC   C4A73578  23.997  43.589   7.231
 5771POPC   C1B73579  23.226  43.960   6.248
 5771POPC   C2B73580  23.310  44.127   6.697
 5771POPC   C3B73581  23.189  44.073   7.111
 5771POPC   C4B73582  23.169  44.057   7.560
 5772POPC   NC373583  27.752   7.406   5.495
 5772POPC   PO473584  27.090   7.336   5.485
 5772POPC   GL173585  27.358   7.249   5.813
 5772POPC   GL273586  27.449   7.579   5.872
 5772POPC   C1A73587  27.639   7.237   6.197
 5772POPC   D2A73588  27.882   7.089   6.557
 5772POPC   C3A73589  27.693   7.304   6.869
 5772POPC   C4A73590  27.384   7.259   7.198
 5772POPC   C1B73591  27.891   7.659   6.065
 5772POPC   C2B73592  27.912   7.596   6.482
 5772POPC   C3B73593  27.657   7.813   6.782
 5772POPC   C4B73594  27.665   7.691   7.206
 5773POPC   NC373595  22.949  23.481   5.374
 5773POPC   PO473596  23.476  23.893   5.485
 5773POPC   GL173597  23.339  23.881   5.863
 5773POPC   GL273598  22.975  23.841   5.804
 5773POPC   C1A73599  23.199  23.832   6.276
 5773POPC   D2A73600  22.927  23.716   6.607
 5773POPC   C3A73601  23.086  23.767   6.992
 5773POPC   C4A73602  23.004  23.865   7.428
 5773POPC   C1B73603  22.689  23.812   6.169
 5773POPC   C2B73604  22.438  23.855   6.567
 5773POPC   C3B73605  22.561  23.818   7.007
 5773POPC   C4B73606  22.494  23.903   7.439
 5774POPC   NC373607  30.842  35.963   5.438
 5774POPC   PO473608  30.333  36.392   5.426
 5774POPC   GL173609  30.586  36.353   5.758
 5774POPC   GL273610  30.523  36.019   5.837
 5774POPC   C1A73611  30.523  36.515   6.175
 5774POPC   D2A73612  30.802  36.504   6.526
 5774POPC   C3A73613  30.591  36.427   6.913
 5774POPC   C4A73614  30.738  36.234   7.275
 5774POPC   C1B73615  30.825  36.100   6.171
 5774POPC   C2B73616  30.652  36.020   6.583
 5774POPC   C3B73617  30.461  35.907   6.974
 5774POPC   C4B73618  30.539  35.766   7.403
 5775POPC   NC373619  29.640  20.840   5.438
 5775POPC   PO473620  29.394  20.235   5.284
 5775POPC   GL173621  29.692  20.331   5.660
 5775POPC   GL273622  30.035  20.507   5.665
 5775POPC   C1A73623  29.668  20.590   6.053
 5775POPC   D2A73624  29.862  20.778   6.417
 5775POPC   C3A73625  29.676  20.829   6.835
 5775POPC   C4A73626  29.816  20.915   7.265
 5775POPC   C1B73627  30.173  20.462   6.114
 5775POPC   C2B73628  30.087  20.330   6.537
 5775POPC   C3B73629  30.052  20.490   6.944
 5775POPC   C4B73630  30.229  20.356   7.323
 5776POPC   NC373631  29.195   0.538   5.319
 5776POPC   PO473632  29.278   1.049   5.573
 5776POPC   GL173633  29.268   0.679   5.826
 5776POPC   GL273634  29.080   0.339   5.784
 5776POPC   C1A73635  28.999   0.662   6.176
 5776POPC   D2A73636  28.905   0.442   6.557
 5776POPC   C3A73637  28.922   0.743   6.881
 5776POPC   C4A73638  29.009   0.631   7.313
 5776POPC   C1B73639  29.178   0.166   6.212
 5776POPC   C2B73640  29.333   0.196   6.655
 5776POPC   C3B73641  29.259   0.193   7.104
 5776POPC   C4B73642  29.610   0.064   7.319
 5777POPC   NC373643  25.994  23.558   5.644
 5777POPC   PO473644  26.017  23.020   5.196
 5777POPC   GL173645  26.086  23.015   5.731
 5777POPC   GL273646  26.365  23.275   5.844
 5777POPC   C1A73647  25.900  23.126   6.182
 5777POPC   D2A73648  25.736  22.932   6.553
 5777POPC   C3A73649  25.842  22.997   6.977
 5777POPC   C4A73650  25.728  23.096   7.389
 5777POPC   C1B73651  26.385  22.972   6.162
 5777POPC   C2B73652  26.269  22.990   6.589
 5777POPC   C3B73653  26.336  22.824   6.977
 5777POPC   C4B73654  26.378  22.942   7.408
 5778POPC   NC373655  21.935  33.009   5.323
 5778POPC   PO473656  21.527  32.586   5.123
 5778POPC   GL173657  21.515  32.899   5.570
 5778POPC   GL273658  21.689  33.281   5.696
 5778POPC   C1A73659  21.739  32.894   6.012
 5778POPC   D2A73660  21.777  33.094   6.427
 5778POPC   C3A73661  21.767  33.001   6.842
 5778POPC   C4A73662  21.512  32.718   7.094
 5778POPC   C1B73663  21.564  33.459   6.160
 5778POPC   C2B73664  21.450  33.423   6.662
 5778POPC   C3B73665  21.361  33.238   7.094
 5778POPC   C4B73666  21.072  33.302   7.466
 5779POPC   NC373667  37.458  20.396   5.453
 5779POPC   PO473668  37.818  20.891   5.233
 5779POPC   GL173669  37.795  20.722   5.685
 5779POPC   GL273670  37.522  20.876   5.879
 5779POPC   C1A73671  37.727  20.420   6.053
 5779POPC   D2A73672  37.543  20.319   6.479
 5779POPC   C3A73673  37.754  20.558   6.817
 5779POPC   C4A73674  37.675  20.530   7.277
 5779POPC   C1B73675  37.560  20.808   6.334
 5779POPC   C2B73676  37.260  20.795   6.682
 5779POPC   C3B73677  37.130  21.021   7.058
 5779POPC   C4B73678  37.431  20.979   7.427
 5780POPC   NC373679  42.045   7.025   5.469
 5780POPC   PO473680  41.482   7.461   5.391
 5780POPC   GL173681  41.622   7.395   5.796
 5780POPC   GL273682  41.934   7.535   5.730
 5780POPC   C1A73683  41.525   7.371   6.248
 5780POPC   D2A73684  41.287   7.532   6.630
 5780POPC   C3A73685  41.416   7.428   7.052
 5780POPC   C4A73686  41.517   7.460   7.496
 5780POPC   C1B73687  41.843   7.794   6.121
 5780POPC   C2B73688  41.747   7.760   6.567
 5780POPC   C3B73689  41.896   7.624   6.972
 5780POPC   C4B73690  41.900   7.236   7.231
 5781POPC   NC373691  23.180   6.992   5.405
 5781POPC   PO473692  22.880   6.340   5.408
 5781POPC   GL173693  22.733   6.531   5.789
 5781POPC   GL273694  22.857   6.879   5.842
 5781POPC   C1A73695  22.676   6.409   6.188
 5781POPC   D2A73696  22.874   6.520   6.567
 5781POPC   C3A73697  22.893   6.353   6.958
 5781POPC   C4A73698  22.851   6.733   7.213
 5781POPC   C1B73699  23.249   7.041   6.064
 5781POPC   C2B73700  23.436   6.932   6.473
 5781POPC   C3B73701  23.206   6.815   6.866
 5781POPC   C4B73702  23.380   6.921   7.294
 5782POPC   NC373703  43.097  13.004   4.900
 5782POPC   PO473704  43.454  13.192   5.491
 5782POPC   GL173705  43.240  12.972   5.827
 5782POPC   GL273706  42.872  12.953   5.845
 5782POPC   C1A73707  43.151  12.898   6.286
 5782POPC   D2A73708  43.071  13.101   6.686
 5782POPC   C3A73709  43.201  12.818   7.036
 5782POPC   C4A73710  43.478  12.925   7.382
 5782POPC   C1B73711  42.724  13.201   6.227
 5782POPC   C2B73712  42.568  13.049   6.620
 5782POPC   C3B73713  42.715  13.000   7.058
 5782POPC   C4B73714  42.792  12.567   7.248
 5783POPC   NC373715   6.498  25.086   5.453
 5783POPC   PO473716   6.996  25.516   5.342
 5783POPC   GL173717   6.838  25.350   5.754
 5783POPC   GL273718   6.491  25.486   5.766
 5783POPC   C1A73719   6.697  25.054   6.093
 5783POPC   D2A73720   6.845  24.800   6.422
 5783POPC   C3A73721   6.730  24.888   6.841
 5783POPC   C4A73722   6.729  25.203   7.162
 5783POPC   C1B73723   6.602  25.558   6.193
 5783POPC   C2B73724   6.549  25.415   6.607
 5783POPC   C3B73725   6.585  25.666   6.976
 5783POPC   C4B73726   6.392  25.591   7.361
 5784POPC   NC373727  22.243  20.173   5.460
 5784POPC   PO473728  21.867  19.667   5.369
 5784POPC   GL173729  21.979  19.831   5.810
 5784POPC   GL273730  21.936  20.198   5.875
 5784POPC   C1A73731  22.129  19.886   6.277
 5784POPC   D2A73732  21.975  20.000   6.712
 5784POPC   C3A73733  22.159  19.816   7.082
 5784POPC   C4A73734  22.384  19.429   7.188
 5784POPC   C1B73735  22.322  20.331   6.142
 5784POPC   C2B73736  22.505  20.232   6.524
 5784POPC   C3B73737  22.373  20.309   6.915
 5784POPC   C4B73738  22.494  20.247   7.301
 5785POPC   NC373739   0.229  44.856   5.339
 5785POPC   PO473740   0.627  44.324   5.480
 5785POPC   GL173741   0.657  44.574   5.867
 5785POPC   GL273742   0.475  44.869   5.804
 5785POPC   C1A73743   0.793  44.770   6.269
 5785POPC   D2A73744   0.714  44.947   6.705
 5785POPC   C3A73745   0.496  44.655   7.004
 5785POPC   C4A73746   0.502  44.406   7.393
 5785POPC   C1B73747   0.261  44.665   6.159
 5785POPC   C2B73748   0.222  44.767   6.579
 5785POPC   C3B73749   0.062  44.943   6.955
 5785POPC   C4B73750   0.052  44.721   7.309
 5786POPC   NC373751  10.623  39.673   5.555
 5786POPC   PO473752  10.961  39.345   5.087
 5786POPC   GL173753  10.693  39.178   5.493
 5786POPC   GL273754  10.928  39.273   5.764
 5786POPC   C1A73755  10.457  39.184   5.960
 5786POPC   D2A73756  10.315  39.437   6.358
 5786POPC   C3A73757  10.356  39.346   6.812
 5786POPC   C4A73758  10.160  39.038   7.148
 5786POPC   C1B73759  10.831  39.468   6.168
 5786POPC   C2B73760  10.774  39.586   6.572
 5786POPC   C3B73761  10.882  39.439   6.950
 5786POPC   C4B73762  10.593  39.389   7.260
 5787POPC   NC373763  13.213  43.149   5.461
 5787POPC   PO473764  12.752  42.726   5.526
 5787POPC   GL173765  12.912  42.726   5.901
 5787POPC   GL273766  13.226  42.837   5.854
 5787POPC   C1A73767  12.696  42.896   6.276
 5787POPC   D2A73768  12.623  43.325   6.508
 5787POPC   C3A73769  12.723  43.251   6.946
 5787POPC   C4A73770  12.877  42.917   7.237
 5787POPC   C1B73771  13.087  43.189   6.119
 5787POPC   C2B73772  13.088  43.095   6.545
 5787POPC   C3B73773  13.272  43.033   6.938
 5787POPC   C4B73774  13.136  43.351   7.231
 5788POPC   NC373775  15.153   5.385   5.127
 5788POPC   PO473776  14.837   5.863   5.528
 5788POPC   GL173777  15.013   5.963   5.851
 5788POPC   GL273778  14.805   6.275   5.861
 5788POPC   C1A73779  15.172   5.739   6.187
 5788POPC   D2A73780  15.419   5.760   6.532
 5788POPC   C3A73781  15.286   5.779   6.936
 5788POPC   C4A73782  15.534   5.989   7.247
 5788POPC   C1B73783  14.720   6.005   6.246
 5788POPC   C2B73784  14.889   5.907   6.649
 5788POPC   C3B73785  14.864   6.038   7.105
 5788POPC   C4B73786  14.962   6.068   7.573
 5789POPC   NC373787  14.668   2.043   5.408
 5789POPC   PO473788  13.961   2.065   5.317
 5789POPC   GL173789  14.239   1.983   5.742
 5789POPC   GL273790  14.566   2.165   5.891
 5789POPC   C1A73791  14.285   1.943   6.233
 5789POPC   D2A73792  14.413   1.701   6.605
 5789POPC   C3A73793  14.446   1.937   6.989
 5789POPC   C4A73794  14.182   2.283   7.150
 5789POPC   C1B73795  14.837   2.175   6.244
 5789POPC   C2B73796  14.785   2.220   6.679
 5789POPC   C3B73797  14.821   2.290   7.105
 5789POPC   C4B73798  14.755   2.002   7.448
 5790POPC   NC373799   7.471  37.149   5.312
 5790POPC   PO473800   6.908  37.286   5.626
 5790POPC   GL173801   7.212  36.951   5.744
 5790POPC   GL273802   7.212  36.567   5.653
 5790POPC   C1A73803   7.461  36.968   6.121
 5790POPC   D2A73804   7.387  37.269   6.444
 5790POPC   C3A73805   7.457  37.119   6.864
 5790POPC   C4A73806   7.198  37.263   7.165
 5790POPC   C1B73807   7.270  36.492   6.129
 5790POPC   C2B73808   7.249  36.696   6.570
 5790POPC   C3B73809   7.075  36.785   6.997
 5790POPC   C4B73810   6.969  36.519   7.365
 5791POPC   NC373811  13.477   7.708   5.351
 5791POPC   PO473812  13.644   7.008   5.308
 5791POPC   GL173813  13.676   7.265   5.653
 5791POPC   GL273814  13.877   7.567   5.686
 5791POPC   C1A73815  13.559   7.410   6.060
 5791POPC   D2A73816  13.388   7.495   6.447
 5791POPC   C3A73817  13.597   7.401   6.781
 5791POPC   C4A73818  13.475   7.458   7.177
 5791POPC   C1B73819  13.981   7.770   6.064
 5791POPC   C2B73820  13.883   7.745   6.505
 5791POPC   C3B73821  13.890   7.764   6.969
 5791POPC   C4B73822  13.649   7.889   7.354
 5792POPC   NC373823   7.700   7.105   5.321
 5792POPC   PO473824   7.307   7.614   5.334
 5792POPC   GL173825   7.378   7.516   5.755
 5792POPC   GL273826   7.470   7.162   5.764
 5792POPC   C1A73827   7.518   7.708   6.135
 5792POPC   D2A73828   7.309   7.621   6.541
 5792POPC   C3A73829   7.224   7.493   6.959
 5792POPC   C4A73830   7.430   7.688   7.295
 5792POPC   C1B73831   7.338   7.216   6.187
 5792POPC   C2B73832   7.316   7.103   6.606
 5792POPC   C3B73833   7.527   7.099   7.021
 5792POPC   C4B73834   7.553   7.149   7.480
 5793POPC   NC373835  26.433  23.057   5.375
 5793POPC   PO473836  26.824  23.530   5.210
 5793POPC   GL173837  26.845  23.295   5.648
 5793POPC   GL273838  26.767  22.924   5.754
 5793POPC   C1A73839  26.841  23.230   6.131
 5793POPC   D2A73840  26.791  22.915   6.497
 5793POPC   C3A73841  26.798  23.053   6.928
 5793POPC   C4A73842  26.963  23.025   7.313
 5793POPC   C1B73843  26.700  22.577   6.078
 5793POPC   C2B73844  26.812  22.388   6.478
 5793POPC   C3B73845  26.862  22.521   6.888
 5793POPC   C4B73846  26.646  22.542   7.263
 5794POPC   NC373847   4.676  15.303   5.315
 5794POPC   PO473848   4.045  14.976   5.323
 5794POPC   GL173849   4.209  15.097   5.777
 5794POPC   GL273850   4.577  15.073   5.862
 5794POPC   C1A73851   4.258  15.228   6.235
 5794POPC   D2A73852   4.164  15.019   6.626
 5794POPC   C3A73853   4.173  15.247   7.007
 5794POPC   C4A73854   4.614  15.398   7.062
 5794POPC   C1B73855   4.653  14.881   6.250
 5794POPC   C2B73856   4.589  14.743   6.648
 5794POPC   C3B73857   4.483  14.854   7.057
 5794POPC   C4B73858   4.615  14.721   7.485
 5795POPC   NC373859  30.871  34.333   5.464
 5795POPC   PO473860  30.533  34.835   5.258
 5795POPC   GL173861  30.732  34.800   5.690
 5795POPC   GL273862  30.998  34.991   5.815
 5795POPC   C1A73863  30.776  34.573   6.096
 5795POPC   D2A73864  30.391  34.570   6.361
 5795POPC   C3A73865  30.458  34.564   6.823
 5795POPC   C4A73866  30.727  34.389   7.137
 5795POPC   C1B73867  31.089  34.918   6.266
 5795POPC   C2B73868  30.967  34.595   6.573
 5795POPC   C3B73869  31.175  34.520   6.951
 5795POPC   C4B73870  31.120  34.622   7.392
 5796POPC   NC373871  25.727   5.426   5.487
 5796POPC   PO473872  26.345   5.303   5.484
 5796POPC   GL173873  26.087   5.121   5.851
 5796POPC   GL273874  25.769   5.249   5.943
 5796POPC   C1A73875  26.203   4.931   6.250
 5796POPC   D2A73876  26.407   4.827   6.615
 5796POPC   C3A73877  26.315   4.975   7.031
 5796POPC   C4A73878  25.981   4.759   7.293
 5796POPC   C1B73879  25.725   5.039   6.318
 5796POPC   C2B73880  25.955   5.113   6.689
 5796POPC   C3B73881  25.886   5.241   7.108
 5796POPC   C4B73882  25.886   5.549   7.425
 5797POPC   NC373883  16.783   1.649   5.390
 5797POPC   PO473884  16.708   1.038   5.318
 5797POPC   GL173885  16.570   1.267   5.698
 5797POPC   GL273886  16.916   1.295   5.787
 5797POPC   C1A73887  16.499   1.396   6.158
 5797POPC   D2A73888  16.730   1.395   6.557
 5797POPC   C3A73889  16.543   1.257   6.942
 5797POPC   C4A73890  16.638   1.454   7.331
 5797POPC   C1B73891  16.825   0.986   6.140
 5797POPC   C2B73892  16.966   0.933   6.571
 5797POPC   C3B73893  17.042   1.163   6.980
 5797POPC   C4B73894  16.876   0.974   7.345
 5798POPC   NC373895  39.025  39.476   5.501
 5798POPC   PO473896  39.511  38.987   5.592
 5798POPC   GL173897  39.340  39.246   5.848
 5798POPC   GL273898  39.050  39.040   5.839
 5798POPC   C1A73899  39.392  39.180   6.259
 5798POPC   D2A73900  39.319  38.949   6.581
 5798POPC   C3A73901  39.458  39.074   6.952
 5798POPC   C4A73902  39.339  39.401   7.164
 5798POPC   C1B73903  38.905  39.271   6.199
 5798POPC   C2B73904  39.050  39.383   6.617
 5798POPC   C3B73905  38.862  39.388   7.029
 5798POPC   C4B73906  38.971  39.712   7.354
 5799POPC   NC373907  37.695  32.515   5.219
 5799POPC   PO473908  37.573  33.137   5.288
 5799POPC   GL173909  37.740  33.342   5.664
 5799POPC   GL273910  37.936  33.571   5.880
 5799POPC   C1A73911  37.559  33.289   6.090
 5799POPC   D2A73912  37.608  33.101   6.508
 5799POPC   C3A73913  37.678  33.310   6.916
 5799POPC   C4A73914  37.509  33.216   7.361
 5799POPC   C1B73915  38.033  33.375   6.308
 5799POPC   C2B73916  38.097  33.099   6.680
 5799POPC   C3B73917  38.159  33.190   7.122
 5799POPC   C4B73918  37.991  33.133   7.550
 5800POPC   NC373919  32.142  27.913   5.319
 5800POPC   PO473920  32.104  27.246   5.377
 5800POPC   GL173921  32.213  27.554   5.726
 5800POPC   GL273922  31.924  27.789   5.772
 5800POPC   C1A73923  32.399  27.499   6.150
 5800POPC   D2A73924  32.483  27.278   6.543
 5800POPC   C3A73925  32.488  27.490   6.942
 5800POPC   C4A73926  32.354  27.243   7.282
 5800POPC   C1B73927  31.891  27.563   6.160
 5800POPC   C2B73928  32.075  27.612   6.572
 5800POPC   C3B73929  31.985  27.549   7.027
 5800POPC   C4B73930  32.169  27.724   7.407
 5801POPC   NC373931  27.439  15.214   5.314
 5801POPC   PO473932  27.887  15.572   5.609
 5801POPC   GL173933  27.618  15.354   5.902
 5801POPC   GL273934  27.544  15.044   5.786
 5801POPC   C1A73935  27.595  15.272   6.368
 5801POPC   D2A73936  27.873  15.347   6.731
 5801POPC   C3A73937  27.710  15.407   7.139
 5801POPC   C4A73938  27.402  15.226   7.429
 5801POPC   C1B73939  27.903  14.954   6.086
 5801POPC   C2B73940  27.871  14.859   6.542
 5801POPC   C3B73941  27.674  14.929   6.967
 5801POPC   C4B73942  27.822  14.949   7.398
 5802POPC   NC373943  33.936  34.099   5.135
 5802POPC   PO473944  33.658  34.712   5.371
 5802POPC   GL173945  33.926  34.486   5.703
 5802POPC   GL273946  33.830  34.152   5.656
 5802POPC   C1A73947  33.947  34.554   6.167
 5802POPC   D2A73948  33.647  34.744   6.516
 5802POPC   C3A73949  33.740  34.654   6.973
 5802POPC   C4A73950  34.148  34.470   7.073
 5802POPC   C1B73951  33.770  34.076   6.081
 5802POPC   C2B73952  33.730  34.226   6.508
 5802POPC   C3B73953  33.736  34.132   6.935
 5802POPC   C4B73954  33.600  34.281   7.351
 5803POPC   NC373955  10.941  34.703   5.377
 5803POPC   PO473956  11.310  34.165   5.475
 5803POPC   GL173957  11.235  34.494   5.754
 5803POPC   GL273958  11.413  34.753   5.613
 5803POPC   C1A73959  11.228  34.517   6.199
 5803POPC   D2A73960  11.255  34.679   6.618
 5803POPC   C3A73961  11.436  34.413   6.950
 5803POPC   C4A73962  11.273  34.320   7.378
 5803POPC   C1B73963  11.622  34.809   6.027
 5803POPC   C2B73964  11.738  34.880   6.485
 5803POPC   C3B73965  11.584  34.937   6.914
 5803POPC   C4B73966  11.262  34.833   7.219
 5804POPC   NC373967   6.138   7.123   5.045
 5804POPC   PO473968   5.608   7.178   5.445
 5804POPC   GL173969   5.710   7.343   5.825
 5804POPC   GL273970   5.967   7.581   5.743
 5804POPC   C1A73971   5.595   7.523   6.210
 5804POPC   D2A73972   5.804   7.608   6.615
 5804POPC   C3A73973   5.725   7.373   6.992
 5804POPC   C4A73974   5.536   7.481   7.349
 5804POPC   C1B73975   6.126   7.495   6.164
 5804POPC   C2B73976   6.328   7.689   6.551
 5804POPC   C3B73977   6.210   7.532   6.952
 5804POPC   C4B73978   6.155   7.083   7.096
 5805POPC   NC373979  30.447  38.374   5.440
 5805POPC   PO473980  31.048  38.147   5.294
 5805POPC   GL173981  30.868  38.086   5.771
 5805POPC   GL273982  30.527  38.129   5.882
 5805POPC   C1A73983  30.879  38.213   6.244
 5805POPC   D2A73984  30.641  38.492   6.549
 5805POPC   C3A73985  30.752  38.527   7.000
 5805POPC   C4A73986  30.631  38.869   7.264
 5805POPC   C1B73987  30.339  38.145   6.315
 5805POPC   C2B73988  30.305  38.202   6.818
 5805POPC   C3B73989  30.402  38.263   7.292
 5805POPC   C4B73990  30.413  38.041   7.723
 5806POPC   NC373991  40.208  26.940   5.424
 5806POPC   PO473992  39.633  26.682   5.731
 5806POPC   GL173993  40.074  26.699   5.905
 5806POPC   GL273994  40.337  26.909   5.909
 5806POPC   C1A73995  40.305  26.595   6.295
 5806POPC   D2A73996  40.257  26.768   6.668
 5806POPC   C3A73997  40.179  26.589   7.054
 5806POPC   C4A73998  40.164  26.790   7.416
 5806POPC   C1B73999  40.301  27.138   6.263
 5806POPC   C2B74000  40.166  27.265   6.648
 5806POPC   C3B74001  40.192  27.140   7.043
 5806POPC   C4B74002  39.926  27.225   7.329
 5807POPC   NC374003  43.821  21.219   5.404
 5807POPC   PO474004  44.211  21.712   5.434
 5807POPC   GL174005  44.013  21.493   5.787
 5807POPC   GL274006  44.295  21.252   5.841
 5807POPC   C1A74007  43.785  21.518   6.183
 5807POPC   D2A74008  43.999  21.638   6.553
 5807POPC   C3A74009  43.965  21.439   6.925
 5807POPC   C4A74010  43.897  21.402   7.337
 5807POPC   C1B74011  44.304  21.310   6.290
 5807POPC   C2B74012  44.359  21.127   6.701
 5807POPC   C3B74013  44.347  21.173   7.140
 5807POPC   C4B74014  44.273  21.168   7.612
 5808POPC   NC374015  27.240  44.196   5.370
 5808POPC   PO474016  27.688  43.689   5.323
 5808POPC   GL174017  27.749  43.656   5.752
 5808POPC   GL274018  28.059  43.772   5.762
 5808POPC   C1A74019  27.775  43.897   6.165
 5808POPC   D2A74020  27.517  44.052   6.493
 5808POPC   C3A74021  27.683  44.003   6.896
 5808POPC   C4A74022  27.545  44.111   7.286
 5808POPC   C1B74023  28.091  43.499   6.136
 5808POPC   C2B74024  28.091  43.638   6.575
 5808POPC   C3B74025  28.029  43.614   7.031
 5808POPC   C4B74026  28.037  43.988   7.302
 5809POPC   NC374027  44.818  23.709   5.330
 5809POPC   PO474028  44.221  24.066   5.561
 5809POPC   GL174029  44.509  23.747   5.767
 5809POPC   GL274030  44.878  23.710   5.825
 5809POPC   C1A74031  44.607  23.800   6.240
 5809POPC   D2A74032  44.858  23.834   6.632
 5809POPC   C3A74033  44.653  23.913   7.039
 5809POPC   C4A74034  44.434  23.739   7.443
 5809POPC   C1B74035   0.055  23.516   6.195
 5809POPC   C2B74036  44.991  23.334   6.598
 5809POPC   C3B74037   0.126  23.492   6.992
 5809POPC   C4B74038  44.966  23.714   7.406
 5810W        W74039  21.379   2.850   4.505
 5811W        W74040  15.139  43.741  10.748
 5812W        W74041  23.903  30.948  14.002
 5813W        W74042   3.174  44.486  11.883
 5814W        W74043  33.267   5.470   0.373
 5815W        W74044  16.763  15.536  14.902
 5816W        W74045  44.274   8.650   0.947
 5817W        W74046  17.608  39.512  14.795
 5818W        W74047  18.795  18.720  12.053
 5819W        W74048   3.749  16.145  14.865
 5820W        W74049  38.722  26.654  12.529
 5821W        W74050  28.091  10.162   4.039
 5822W        W74051  35.863   2.768  14.964
 5823W        W74052  44.158   4.574   2.691
 5824W        W74053   9.945  32.574  10.653
 5825W        W74054  40.528  14.275   4.597
 5826W        W74055  11.718  22.834   2.388
 5827W        W74056   2.926  21.517  13.585
 5828W        W74057  41.192  31.184   1.536
 5829W        W74058  21.017   2.741   3.690
 5830W        W74059  13.718  38.590  10.857
 5831W        W74060   8.944  30.395  13.412
 5832W        W74061   6.832   4.398   3.148
 5833W        W74062  11.382   3.249   3.729
 5834W        W74063   3.422  38.872   1.353
 5835W        W74064  17.247  21.677   1.926
 5836W        W74065  34.873  16.552  11.992
 5837W        W74066  11.357  10.654  14.016
 5838W        W74067  28.230   1.620  14.263
 5839W        W74068  21.379  33.024   4.664
 5840W        W74069  15.626  43.809   2.111
 5841W        W74070  43.079  22.227  14.619
 5842W        W74071  12.900  12.146  11.949
 5843W        W74072  20.897  33.944   1.903
 5844W        W74073  20.443   2.771   1.208
 5845W        W74074  20.204  43.297  12.960
 5846W        W74075  39.190   6.764   4.142
 5847W        W74076   1.166  40.755  12.260
 5848W        W74077   4.007   3.426   0.954
 5849W        W74078  18.747  44.525   4.780
 5850W        W74079  41.296   8.470  12.328
 5851W        W74080  38.435  13.516   2.871
 5852W        W74081   7.853  32.918   3.707
 5853W        W74082  18.110  29.474  13.881
 5854W        W74083  20.701  26.668   3.868
 5855W        W74084  33.316  35.027  13.497
 5856W        W74085   1.190   7.883  13.873
 5857W        W74086  33.861  10.373  14.461
 5858W        W74087   6.992   2.783   2.600
 5859W        W74088  24.149  12.269  13.402
 5860W        W74089  32.859  29.054  11.822
 5861W        W74090  26.032  31.497   4.617
 5862W        W74091  10.740  31.488   3.861
 5863W        W74092  31.794  21.340   1.187
 5864W        W74093  11.604  32.452  11.544
 5865W        W74094   6.820   5.761  12.281
 5866W        W74095  26.307  12.191   1.920
 5867W        W74096  40.314   0.768   2.273
 5868W        W74097  36.457  32.704  12.289
 5869W        W74098   0.432  25.856   2.805
 5870W        W74099  10.223  36.400   0.525
 5871W        W74100  19.640   3.866  12.543
 5872W        W74101   1.287   9.598   1.995
 5873W        W74102   3.334  21.745  13.340
 5874W        W74103  12.859  20.993  10.555
 5875W        W74104   6.384  37.353   1.936
 5876W        W74105  43.402  41.688   0.314
 5877W        W74106  19.238   7.266  11.901
 5878W        W74107  28.954  23.559   1.038
 5879W        W74108   3.467   4.653  13.315
 5880W        W74109  31.598   6.673   1.882
 5881W        W74110   0.906   6.728   2.747
 5882W        W74111  28.834  44.448   1.784
 5883W        W74112  35.763   7.428  14.756
 5884W        W74113   4.924  42.782  14.800
 5885W        W74114   2.598   8.643  12.628
 5886W        W74115  11.759  29.426  12.181
 5887W        W74116  16.759   3.453   0.701
 5888W        W74117  33.166  43.952  11.974
 5889W        W74118  21.620  20.129   2.207
 5890W        W74119  40.869  32.440   3.738
 5891W        W74120  10.888   0.301   1.332
 5892W        W74121   4.340  17.198   1.448
 5893W        W74122  16.732  39.873   0.912
 5894W        W74123  14.624  28.172   1.314
 5895W        W74124  22.084  11.685  13.044
 5896W        W74125  30.626  12.272  14.220
 5897W        W74126  17.479  31.798   2.618
 5898W        W74127  40.794   7.748   1.804
 5899W        W74128   7.346  19.710  11.633
 5900W        W74129  15.544   4.530  11.586
 5901W        W74130  33.176  42.318  14.067
 5902W        W74131  17.341  17.562   1.683
 5903W        W74132   5.872   0.876   2.614
 5904W        W74133  24.682  38.134  12.489
 5905W        W74134  35.098  40.895   2.446
 5906W        W74135  17.330  31.916   0.698
 5907W        W74136  37.047  25.061   2.336
 5908W        W74137  44.661  44.168   2.918
 5909W        W74138  29.273   2.758   4.876
 5910W        W74139  10.541   3.405   4.996
 5911W        W74140  14.748  36.162  10.133
 5912W        W74141  22.310  14.923  12.858
 5913W        W74142  41.821   2.706  12.490
 5914W        W74143  29.003  17.004   2.705
 5915W        W74144  12.855   4.164  13.238
 5916W        W74145  25.223  43.898  13.356
 5917W        W74146   9.256  42.725  13.975
 5918W        W74147  37.622  37.012   1.878
 5919W        W74148  39.951  36.842   2.009
 5920W        W74149  34.499  18.808   3.842
 5921W        W74150  25.721  18.612  12.540
 5922W        W74151  23.754   8.092   3.240
 5923W        W74152   0.810  13.745   4.545
 5924W        W74153  23.174  23.193  12.920
 5925W        W74154  12.863   3.512   2.215
 5926W        W74155  20.072  13.767   4.381
 5927W        W74156  32.852  34.565   2.281
 5928W        W74157  37.215  41.368   1.747
 5929W        W74158  31.837   4.034  13.060
 5930W        W74159  28.690  26.780   0.462
 5931W        W74160  22.957  33.093   1.724
 5932W        W74161  41.835  18.099  10.757
 5933W        W74162  21.888   6.614  10.430
 5934W        W74163  11.252  12.895   4.288
 5935W        W74164   7.796  11.404   2.390
 5936W        W74165  23.609  18.219   4.685
 5937W        W74166  28.129  27.543  13.447
 5938W        W74167   9.240  40.792   3.801
 5939W        W74168  29.659  42.233  13.103
 5940W        W74169   9.393  32.750  11.788
 5941W        W74170  24.067   7.222  12.110
 5942W        W74171  33.047  39.934   4.450
 5943W        W74172   9.886  10.233   1.664
 5944W        W74173  26.548  21.507   3.290
 5945W        W74174  37.324  13.049   4.597
 5946W        W74175  16.169  29.543   0.959
 5947W        W74176  14.657  24.517  14.443
 5948W        W74177  11.426  26.411  14.963
 5949W        W74178   2.282  25.772   0.916
 5950W        W74179  26.014   9.318  11.496
 5951W        W74180   7.568  28.504  10.905
 5952W        W74181  23.995  42.982   2.869
 5953W        W74182   5.478   5.365  12.566
 5954W        W74183  43.546  13.213  14.215
 5955W        W74184  17.341  25.764   3.787
 5956W        W74185  18.171  31.834  13.524
 5957W        W74186  44.059  44.907   0.787
 5958W        W74187  13.014  19.104   3.005
 5959W        W74188  18.275  42.859   3.239
 5960W        W74189  31.934  30.576  13.142
 5961W        W74190  27.175  30.073  12.576
 5962W        W74191  31.441  40.313   4.209
 5963W        W74192  27.453  29.398  11.082
 5964W        W74193  28.181  24.221  10.723
 5965W        W74194  31.201  28.592  12.468
 5966W        W74195  36.047   3.713  14.456
 5967W        W74196   9.358  22.278   2.855
 5968W        W74197  37.830  36.800   2.662
 5969W        W74198   0.662  10.659   0.837
 5970W        W74199  37.249  33.067   3.720
 5971W        W74200  33.927   6.399   3.142
 5972W        W74201  16.120  44.413  11.462
 5973W        W74202  40.720  39.590   4.128
 5974W        W74203  38.300   8.130   3.279
 5975W        W74204  22.339   5.807   0.338
 5976W        W74205  22.153  27.603   1.416
 5977W        W74206  44.707  29.883   0.248
 5978W        W74207  33.992  24.665  13.599
 5979W        W74208   9.677  33.448  14.936
 5980W        W74209  20.611  44.975  11.172
 5981W        W74210  16.228  15.233  11.066
 5982W        W74211  26.420  33.341  12.786
 5983W        W74212  10.031  11.598  11.582
 5984W        W74213   0.509  40.366   0.802
 5985W        W74214  18.717  16.450   0.417
 5986W        W74215  13.794  24.104   4.359
 5987W        W74216   5.301   9.162  12.594
 5988W        W74217   2.826  15.640   2.760
 5989W        W74218  13.840  25.501  10.763
 5990W        W74219  24.685  10.598   9.821
 5991W        W74220  38.514  20.114   4.190
 5992W        W74221  14.801   7.408   1.313
 5993W        W74222  34.511  34.076   1.697
 5994W        W74223  24.636  11.834  11.633
 5995W        W74224  12.683  23.735  10.639
 5996W        W74225   9.484  15.713  14.062
 5997W        W74226  14.810  35.947  13.496
 5998W        W74227   8.018  23.520  11.767
 5999W        W74228   6.621  40.822   3.689
 6000W        W74229  44.307   1.353   3.440
 6001W        W74230  34.668  38.526  11.582
 6002W        W74231  43.865  39.493  12.023
 6003W        W74232  40.881  44.244   0.177
 6004W        W74233   3.249  22.696   3.252
 6005W        W74234  10.377  29.009   4.289
 6006W        W74235  30.380  31.752   2.698
 6007W        W74236  15.132   1.836   1.519
 6008W        W74237  11.142  42.173   3.638
 6009W        W74238  36.114  26.170   4.165
 6010W        W74239   9.946  19.154  14.344
 6011W        W74240  28.487   7.873   2.755
 6012W        W74241  24.523  13.978  13.328
 6013W        W74242  27.987  24.566   1.849
 6014W        W74243  18.252  17.800  13.957
 6015W        W74244   7.480   7.245   2.237
 6016W        W74245   6.300  25.730   2.651
 6017W        W74246   5.516  10.886   1.876
 6018W        W74247  11.927   9.618   4.047
 6019W        W74248   2.203  24.503   4.383
 6020W        W74249  38.400  20.609  12.077
 6021W        W74250   0.951   7.696  13.437
 6022W        W74251  37.366  36.397  13.332
 6023W        W74252  29.639  15.872  13.145
 6024W        W74253   9.145   4.904   0.266
 6025W        W74254  13.574  32.320  13.349
 6026W        W74255   6.158  27.564   0.403
 6027W        W74256  29.846  27.086   3.576
 6028W        W74257  36.378  17.866   0.376
 6029W        W74258   0.778  32.001  13.832
 6030W        W74259  29.077  22.314  10.695
 6031W        W74260  23.778  41.519   0.066
 6032W        W74261   7.584  34.443  13.838
 6033W        W74262  21.522   5.437  14.338
 6034W        W74263  32.322  14.632   1.861
 6035W        W74264  15.936  19.168  11.553
 6036W        W74265  17.051   9.645  11.201
 6037W        W74266   1.253  13.118   2.390
 6038W        W74267   9.531   4.216   0.657
 6039W        W74268  31.479  31.883  14.801
 6040W        W74269   8.331  41.249  14.843
 6041W        W74270   4.250  32.411   3.983
 6042W        W74271   3.937  14.801  14.835
 6043W        W74272  21.062  17.694  12.021
 6044W        W74273  25.069  41.830   0.257
 6045W        W74274  25.398  28.857  11.391
 6046W        W74275  11.846  16.341  12.519
 6047W        W74276   3.621  33.019   1.852
 6048W        W74277   7.747  29.215   3.885
 6049W        W74278  29.054  24.473  14.928
 6050W        W74279  31.658  25.179  11.008
 6051W        W74280  30.288  39.511   2.952
 6052W        W74281  35.521   8.134  10.835
 6053W        W74282  44.379  19.790   0.365
 6054W        W74283  22.222   5.887  12.453
 6055W        W74284   7.808   5.399  11.524
 6056W        W74285  32.966  18.642   5.077
 6057W        W74286  25.455  38.341  10.134
 6058W        W74287   8.708  14.915   4.148
 6059W        W74288  15.297  32.072  11.537
 6060W        W74289  33.410  43.879  12.799
 6061W        W74290  40.801  40.100  11.294
 6062W        W74291  21.131   8.149  12.192
 6063W        W74292  18.507   4.773   0.796
 6064W        W74293  18.735  10.135   2.667
 6065W        W74294   7.363   6.363  13.918
 6066W        W74295  17.197   1.548  13.353
 6067W        W74296  30.472  30.959  11.769
 6068W        W74297  28.017  44.054   2.840
 6069W        W74298  29.210  20.484   1.002
 6070W        W74299   6.871   7.842   3.651
 6071W        W74300  17.529  10.084   0.474
 6072W        W74301  37.260   8.142  11.132
 6073W        W74302  34.919  38.630  11.059
 6074W        W74303  12.010  31.687   1.877
 6075W        W74304  29.938  21.522  13.399
 6076W        W74305  19.910   9.157  13.316
 6077W        W74306  21.523   4.742  10.677
 6078W        W74307  18.304  21.721   3.840
 6079W        W74308  21.228   1.308   1.351
 6080W        W74309   5.179  37.982  13.278
 6081W        W74310  20.027  30.487   0.345
 6082W        W74311   6.384  43.730   0.956
 6083W        W74312  32.660   3.813   4.182
 6084W        W74313  41.095   6.685   0.283
 6085W        W74314  34.033  32.197  10.490
 6086W        W74315  23.028  29.032   1.140
 6087W        W74316  10.164   6.258   3.312
 6088W        W74317  30.608  36.336   0.610
 6089W        W74318  21.182  20.557  12.678
 6090W        W74319  36.073  21.885   3.168
 6091W        W74320  20.006   9.799  14.343
 6092W        W74321  21.026  20.404  12.199
 6093W        W74322  42.442  34.525  11.578
 6094W        W74323  23.043  41.346   4.739
 6095W        W74324  10.032  21.323  14.832
 6096W        W74325  22.325  10.810  11.928
 6097W        W74326  18.541  11.426   4.456
 6098W        W74327  24.967  12.185   0.318
 6099W        W74328  17.055  27.126   3.113
 6100W        W74329  26.613  24.617  10.755
 6101W        W74330   3.700  10.494   4.791
 6102W        W74331  32.957  28.971   3.638
 6103W        W74332  30.639  10.139   2.759
 6104W        W74333   3.276  14.561  11.187
 6105W        W74334  42.320  27.498   0.410
 6106W        W74335  43.928  12.304   3.682
 6107W        W74336  20.893  26.421  13.987
 6108W        W74337  12.886  27.326   1.175
 6109W        W74338   2.136  31.301   0.221
 6110W        W74339   5.998  11.893   0.533
 6111W        W74340   0.949  26.203   0.346
 6112W        W74341  41.074   5.498   3.263
 6113W        W74342   2.941  44.234   1.826
 6114W        W74343  24.605  44.314  11.559
 6115W        W74344  10.627   6.360   4.976
 6116W        W74345  44.327  44.328  11.558
 6117W        W74346  33.168  22.406  14.459
 6118W        W74347  19.368  41.458   2.034
 6119W        W74348  43.975  19.338  10.759
 6120W        W74349   5.645  17.241  13.854
 6121W        W74350   9.842  26.083   1.413
 6122W        W74351   9.077  20.738   0.883
 6123W        W74352  21.322  19.864  14.302
 6124W        W74353  17.644  25.756  10.750
 6125W        W74354  20.669  28.323  11.185
 6126W        W74355  40.876  31.672   3.224
 6127W        W74356  37.727  28.653   4.553
 6128W        W74357  40.905   1.778  11.013
 6129W        W74358  23.122  31.072   3.865
 6130W        W74359  39.885  40.197  11.680
 6131W        W74360   7.334  27.197  13.419
 6132W        W74361  31.901  29.504   3.212
 6133W        W74362   3.412  10.719  12.641
 6134W        W74363  24.761  12.820   2.928
 6135W        W74364  44.964  26.158  12.015
 6136W        W74365  11.886  31.461  14.631
 6137W        W74366  22.215  44.381   3.359
 6138W        W74367  17.549  19.345  12.018
 6139W        W74368  37.481  27.069  10.442
 6140W        W74369  22.524   7.903   3.703
 6141W        W74370  29.352  32.146  11.194
 6142W        W74371   1.255  34.420   4.913
 6143W        W74372  44.977  29.175  12.039
 6144W        W74373  20.442  24.780  12.413
 6145W        W74374  12.624  24.547  10.759
 6146W        W74375  14.789  33.151  10.569
 6147W        W74376  44.505  18.152  10.273
 6148W        W74377  18.602  34.988  14.533
 6149W        W74378  32.329  18.179  12.330
 6150W        W74379   7.362  29.012   3.613
 6151W        W74380  12.870  34.939  11.137
 6152W        W74381  11.220  20.380  14.736
 6153W        W74382  40.122  28.949   4.560
 6154W        W74383   1.728  27.698  11.617
 6155W        W74384  33.594  33.863   1.747
 6156W        W74385  33.374  38.379   2.203
 6157W        W74386  25.672  39.709  10.266
 6158W        W74387  14.832  34.470   2.835
 6159W        W74388  32.404  36.842   3.111
 6160W        W74389  17.851   6.832   3.818
 6161W        W74390  43.679  13.092  12.949
 6162W        W74391  15.618  38.831   4.965
 6163W        W74392  10.251  20.029  12.317
 6164W        W74393   3.839  40.474  14.488
 6165W        W74394  12.122  30.002  10.731
 6166W        W74395   9.006  28.424   2.507
 6167W        W74396  27.222   3.114   0.363
 6168W        W74397  32.673  29.378  14.507
 6169W        W74398  37.860  35.417   4.156
 6170W        W74399   3.632   0.652   0.245
 6171W        W74400  22.581  26.190  13.564
 6172W        W74401   0.938  26.343   1.247
 6173W        W74402   7.126  26.735   1.737
 6174W        W74403  36.350  29.634   0.382
 6175W        W74404  11.735   8.827  12.190
 6176W        W74405   3.477  23.157   3.420
 6177W        W74406  29.025  17.512   2.706
 6178W        W74407  33.576  26.258  14.077
 6179W        W74408  22.547  23.974   1.413
 6180W        W74409   2.999  18.092  13.260
 6181W        W74410   8.186  35.943  14.322
 6182W        W74411   3.760   0.436  14.754
 6183W        W74412  26.069  35.372   3.302
 6184W        W74413  25.521   4.672  12.559
 6185W        W74414  32.064  42.097   3.897
 6186W        W74415  27.285  23.997  12.390
 6187W        W74416   1.004  40.440   1.225
 6188W        W74417  36.240   7.684   3.756
 6189W        W74418   3.754  40.074  12.745
 6190W        W74419  39.901  16.257   1.822
 6191W        W74420   8.727   9.262   2.189
 6192W        W74421  14.855  10.179  13.848
 6193W        W74422   8.808  13.124  14.597
 6194W        W74423  26.145  20.610   0.343
 6195W        W74424  33.008  14.254   2.973
 6196W        W74425  25.124  12.109  11.073
 6197W        W74426   0.806  41.035  13.746
 6198W        W74427  11.411  23.248  11.054
 6199W        W74428  23.954  39.885   1.900
 6200W        W74429   1.206  22.211   3.937
 6201W        W74430  43.252  33.326   1.263
 6202W        W74431   2.314  23.564   1.774
 6203W        W74432  19.176  26.140   3.566
 6204W        W74433  36.037  32.882   0.422
 6205W        W74434   5.661   8.626   4.631
 6206W        W74435  16.679  43.364  13.313
 6207W        W74436  26.658  12.032  11.071
 6208W        W74437  19.499  26.979   0.664
 6209W        W74438  22.833  36.027  12.817
 6210W        W74439  31.710  14.591  14.884
 6211W        W74440   8.520  32.502  11.517
 6212W        W74441  25.397  20.070   0.349
 6213W        W74442  38.893  32.898  10.332
 6214W        W74443   9.269   7.470  12.979
 6215W        W74444  28.210  16.079   1.482
 6216W        W74445  37.266  11.641  14.304
 6217W        W74446   4.830  35.703  11.555
 6218W        W74447  22.020  10.929  14.964
 6219W        W74448  36.509  31.679   2.280
 6220W        W74449  14.157   9.855  10.793
 6221W        W74450  11.757  11.363  12.165
 6222W        W74451  10.148   4.513  13.105
 6223W        W74452  32.150   2.334  11.765
 6224W        W74453  43.963  31.991  14.782
 6225W        W74454  27.155  14.813   5.530
 6226W        W74455  15.571  41.680   1.421
 6227W        W74456  40.795  24.517  14.883
 6228W        W74457  44.888  41.290  12.436
 6229W        W74458  17.824  15.762   3.317
 6230W        W74459  34.756  13.169   1.234
 6231W        W74460   5.299  33.472   2.266
 6232W        W74461  27.692  17.265   4.496
 6233W        W74462  44.985  26.975  13.583
 6234W        W74463   7.410  20.224  11.584
 6235W        W74464  30.422  36.496   2.633
 6236W        W74465  10.176  10.446  13.882
 6237W        W74466  36.765   1.463   4.864
 6238W        W74467  39.563   9.399   4.108
 6239W        W74468  15.117   1.298  12.927
 6240W        W74469  43.736  28.631  11.665
 6241W        W74470  18.313   6.835   4.628
 6242W        W74471  20.408  23.251  14.561
 6243W        W74472  21.564  14.345   4.603
 6244W        W74473  36.818  40.425   0.916
 6245W        W74474  21.818   3.080   4.684
 6246W        W74475  25.440   1.065   3.935
 6247W        W74476  11.035  26.984  13.599
 6248W        W74477  19.126   4.720  14.442
 6249W        W74478  20.073   3.584   2.988
 6250W        W74479  24.595  25.487   1.442
 6251W        W74480  43.420   6.761  13.999
 6252W        W74481  38.574  36.412  14.572
 6253W        W74482  28.923  23.462   2.187
 6254W        W74483  31.912  12.299   0.533
 6255W        W74484  37.476  17.398   1.226
 6256W        W74485  38.586   2.493  10.709
 6257W        W74486  34.872  37.947   3.044
 6258W        W74487  11.658  30.526   3.673
 6259W        W74488  15.255  43.293   0.841
 6260W        W74489  27.574   2.882  10.550
 6261W        W74490  31.173  25.496  14.975
 6262W        W74491   4.714  40.685  11.119
 6263W        W74492  33.036  38.991  10.380
 6264W        W74493  36.100  38.326   1.494
 6265W        W74494  44.732  22.513  12.961
 6266W        W74495  13.370  20.354  14.818
 6267W        W74496   0.847   2.488  11.581
 6268W        W74497  39.353   0.768  13.823
 6269W        W74498  40.801   3.311   0.427
 6270W        W74499  13.178  11.784   2.720
 6271W        W74500  20.327  32.599   4.052
 6272W        W74501   1.468  37.935   0.387
 6273W        W74502  35.866  19.351  12.374
 6274W        W74503  29.466  13.491  11.577
 6275W        W74504  24.544  31.431  13.618
 6276W        W74505  35.433  11.879   0.802
 6277W        W74506  15.091  43.049  14.809
 6278W        W74507  11.314  28.297   3.164
 6279W        W74508  38.611  20.657   0.444
 6280W        W74509  37.627   2.361  12.930
 6281W        W74510  39.515  38.557  12.554
 6282W        W74511  36.517  30.298  13.344
 6283W        W74512  25.080  35.615  13.321
 6284W        W74513  18.800   0.299   2.229
 6285W        W74514  34.686  21.923  10.903
 6286W        W74515  30.442  21.672   3.003
 6287W        W74516  24.077  44.856   3.225
 6288W        W74517  43.012  16.402   1.735
 6289W        W74518   4.690   7.524  10.721
 6290W        W74519  43.033  15.003  12.888
 6291W        W74520  21.255   8.869  13.466
 6292W        W74521  35.493   0.967  11.583
 6293W        W74522  41.873  20.017   3.512
 6294W        W74523   8.150  13.693   0.809
 6295W        W74524   3.463  27.911   3.600
 6296W        W74525  11.716  14.659  11.675
 6297W        W74526  28.771  29.193   3.342
 6298W        W74527  14.548  23.529   0.188
 6299W        W74528  44.276  20.872   0.220
 6300W        W74529  36.875  11.669   3.613
 6301W        W74530  12.317  13.943  10.583
 6302W        W74531  21.040  28.136  12.805
 6303W        W74532  11.180   4.978   1.429
 6304W        W74533  35.551  13.822   2.552
 6305W        W74534  16.598   0.165  13.933
 6306W        W74535  32.582  27.991   3.914
 6307W        W74536   4.072  11.332   3.054
 6308W        W74537  21.983  13.188   2.025
 6309W        W74538  17.510  44.660  11.571
 6310W        W74539  10.973  35.863   2.530
 6311W        W74540   9.330  11.505   1.009
 6312W        W74541  24.504  39.869   2.796
 6313W        W74542  28.612  13.549   0.357
 6314W        W74543  10.376  25.077   2.144
 6315W        W74544  37.833  34.039   4.889
 6316W        W74545  36.886  23.359  13.995
 6317W        W74546  36.259  32.153  14.776
 6318W        W74547  12.710  23.388  12.021
 6319W        W74548   5.993  21.265   3.839
 6320W        W74549  29.183  18.521   2.794
 6321W        W74550  36.052  25.046  12.643
 6322W        W74551   6.901   0.055  12.650
 6323W        W74552  15.842  40.515   4.111
 6324W        W74553  13.658   3.702  11.548
 6325W        W74554  10.812  40.331   3.307
 6326W        W74555  36.283  43.864   0.917
 6327W        W74556  38.242  20.580  13.098
 6328W        W74557  36.618  14.534   2.892
 6329W        W74558  29.614  18.218   0.472
 6330W        W74559  19.568  11.401  11.178
 6331W        W74560  10.167   4.332   3.230
 6332W        W74561  12.247  29.272   4.621
 6333W        W74562  29.993  38.734  10.960
 6334W        W74563   1.283  22.342   4.435
 6335W        W74564  30.348  28.984   2.327
 6336W        W74565   1.817  39.741  11.130
 6337W        W74566  18.044  22.098   3.564
 6338W        W74567  35.189  40.985  14.417
 6339W        W74568  42.492  26.495  12.577
 6340W        W74569  24.903  31.665   1.806
 6341W        W74570  41.354  22.637  11.605
 6342W        W74571  28.099  20.818   3.634
 6343W        W74572  23.441  35.433   2.297
 6344W        W74573  33.577  43.889   2.785
 6345W        W74574   3.865   8.845   3.907
 6346W        W74575  11.986  39.397   1.548
 6347W        W74576  16.721  41.029   3.187
 6348W        W74577  43.859   3.754  10.672
 6349W        W74578  40.213  43.414   4.550
 6350W        W74579  22.849  34.097  14.330
 6351W        W74580  39.334  32.608   1.836
 6352W        W74581   2.969  33.830   5.033
 6353W        W74582  36.461  26.516   4.436
 6354W        W74583   2.864  19.492  14.899
 6355W        W74584  34.057  39.126   3.817
 6356W        W74585  14.406   1.750   1.988
 6357W        W74586   0.789  22.655   2.278
 6358W        W74587  35.553   1.303  14.070
 6359W        W74588  23.097  32.931   3.757
 6360W        W74589  21.476  27.404   2.806
 6361W        W74590  25.518   3.226  14.354
 6362W        W74591  44.965  23.497  14.324
 6363W        W74592  22.792  17.568   4.030
 6364W        W74593   2.558  13.135   4.906
 6365W        W74594  31.059  17.016  11.155
 6366W        W74595  12.869  40.319  11.339
 6367W        W74596   2.431  36.456  12.514
 6368W        W74597  22.269  21.274  12.546
 6369W        W74598  37.996  41.828   0.487
 6370W        W74599  14.385  11.749  13.025
 6371W        W74600  37.651   7.567   0.028
 6372W        W74601  44.952  35.410  12.501
 6373W        W74602  20.605  28.609   0.896
 6374W        W74603  41.804  32.835  12.682
 6375W        W74604   7.724  20.356  13.526
 6376W        W74605   9.906   7.988  12.367
 6377W        W74606  15.686  17.754  14.427
 6378W        W74607  24.237   0.515   4.619
 6379W        W74608  44.459   2.488  13.930
 6380W        W74609  18.763  31.625   0.300
 6381W        W74610  29.684  33.398   2.813
 6382W        W74611  33.559  11.976   4.516
 6383W        W74612  22.220  11.418   1.249
 6384W        W74613   2.289   8.878   0.375
 6385W        W74614  33.274   3.049  12.747
 6386W        W74615  35.655   7.010  10.883
 6387W        W74616   6.830  36.852   2.621
 6388W        W74617  23.004  17.180  12.945
 6389W        W74618  21.555  11.702  11.480
 6390W        W74619   7.980   8.239   1.694
 6391W        W74620  32.329  29.925   4.304
 6392W        W74621   2.369  24.482  12.417
 6393W        W74622   6.205   0.326  11.130
 6394W        W74623  29.666  13.247  14.699
 6395W        W74624  44.655  38.725   1.860
 6396W        W74625  44.299  24.218  12.686
 6397W        W74626   3.393  11.762   2.149
 6398W        W74627  43.433   0.425  12.468
 6399W        W74628  31.908   4.553  11.977
 6400W        W74629  10.412  11.945   2.509
 6401W        W74630  28.208   0.293   3.731
 6402W        W74631  32.457  41.393  12.522
 6403W        W74632  36.295   3.551  13.993
 6404W        W74633  28.377  12.215   2.741
 6405W        W74634  23.524  14.340   4.514
 6406W        W74635  41.484   3.619   1.465
 6407W        W74636  16.542  39.920  10.572
 6408W        W74637  41.034  30.836   3.540
 6409W        W74638   2.755   9.287   0.473
 6410W        W74639  12.386   0.008   2.304
 6411W        W74640  26.010  36.645   1.213
 6412W        W74641  39.503   9.377   0.985
 6413W        W74642  43.888  27.073   1.036
 6414W        W74643  35.392   2.235  12.598
 6415W        W74644   2.123  24.974   4.947
 6416W        W74645  27.052   1.719   4.441
 6417W        W74646   3.176  40.994   0.839
 6418W        W74647  26.787  24.205   1.837
 6419W        W74648  40.960  20.685  13.897
 6420W        W74649  38.800  27.012   3.553
 6421W        W74650  15.380  17.724   2.885
 6422W        W74651   2.711  17.590   0.910
 6423W        W74652  19.781  26.112  11.816
 6424W        W74653  14.567  29.182   3.703
 6425W        W74654  39.144  17.635   4.518
 6426W        W74655  35.448  26.643  10.352
 6427W        W74656  30.846  15.099   3.848
 6428W        W74657   8.182   2.423  11.166
 6429W        W74658  28.694   8.851  14.887
 6430W        W74659  25.648   1.708   4.562
 6431W        W74660   1.633  27.836  14.920
 6432W        W74661  16.572  17.592  13.637
 6433W        W74662  22.471  24.716   0.956
 6434W        W74663  15.671  41.819  11.234
 6435W        W74664  19.810  11.985   4.453
 6436W        W74665   3.782   8.844   2.337
 6437W        W74666   6.306  22.223  14.303
 6438W        W74667  31.492  20.239  14.855
 6439W        W74668   8.846   7.453   2.338
 6440W        W74669  29.176  33.541   2.758
 6441W        W74670  39.758   5.919  12.437
 6442W        W74671   6.915  13.257   0.881
 6443W        W74672   8.573  16.210   4.288
 6444W        W74673  40.424  37.279  10.677
 6445W        W74674   0.123  28.185   1.072
 6446W        W74675  28.801   1.637   0.733
 6447W        W74676  36.372   1.463   1.773
 6448W        W74677  13.702  23.692  14.672
 6449W        W74678  37.746  39.423   5.042
 6450W        W74679  42.965   8.775  10.583
 6451W        W74680  41.294   8.841  10.676
 6452W        W74681  15.951  35.694  14.022
 6453W        W74682  10.371  42.430  12.021
 6454W        W74683  10.208  28.030   2.398
 6455W        W74684  33.558  43.578   4.479
 6456W        W74685   6.430  10.654  12.907
 6457W        W74686  27.209  26.705  12.374
 6458W        W74687   2.925  14.357   0.851
 6459W        W74688  16.703  38.477   4.603
 6460W        W74689  15.298  43.263  12.985
 6461W        W74690   8.031  44.700   1.365
 6462W        W74691  36.330  22.460   4.694
 6463W        W74692   0.453   2.622   1.808
 6464W        W74693  19.755   1.784  13.038
 6465W        W74694  10.684  17.024  13.844
 6466W        W74695  34.798   9.764   0.188
 6467W        W74696  40.180   1.750  12.041
 6468W        W74697  27.683  26.970  12.877
 6469W        W74698  33.016  36.050  10.689
 6470W        W74699  25.609  40.754   3.622
 6471W        W74700  43.317  23.467  13.949
 6472W        W74701  34.429  14.071  14.506
 6473W        W74702  15.545  34.488  10.941
 6474W        W74703  35.062  28.477   3.731
 6475W        W74704  40.872   7.246  14.475
 6476W        W74705   4.875   0.523   0.848
 6477W        W74706  10.207  35.393  10.535
 6478W        W74707  12.873  41.439   2.196
 6479W        W74708  15.931  19.815  10.252
 6480W        W74709  23.030   6.869   0.733
 6481W        W74710  23.984  41.308   4.895
 6482W        W74711  19.735  24.151   1.765
 6483W        W74712  38.928  15.414   4.449
 6484W        W74713  24.183  36.134   4.096
 6485W        W74714  15.328  13.148  13.976
 6486W        W74715  36.162   4.571  13.088
 6487W        W74716  10.497  40.450  12.200
 6488W        W74717   3.459  30.678  13.483
 6489W        W74718   4.407  44.908   4.335
 6490W        W74719  19.504  33.849  14.856
 6491W        W74720  14.715   3.444  12.540
 6492W        W74721  14.341   6.012   3.188
 6493W        W74722  10.363  35.047  12.758
 6494W        W74723   9.588  10.674  12.541
 6495W        W74724  43.167   8.499  10.962
 6496W        W74725   4.925  11.589  12.521
 6497W        W74726  36.621   1.391   0.281
 6498W        W74727  25.721  43.699   2.807
 6499W        W74728   4.247  23.469   4.098
 6500W        W74729   2.671   8.341   3.911
 6501W        W74730  13.918  11.724   3.169
 6502W        W74731   0.799  40.794  11.909
 6503W        W74732  13.752  24.532   3.138
 6504W        W74733  15.200  14.727  13.726
 6505W        W74734  16.841  43.195  13.786
 6506W        W74735  36.152  20.702  12.094
 6507W        W74736   9.906  42.009  10.782
 6508W        W74737   7.705  41.307   3.587
 6509W        W74738  42.424  43.722   2.762
 6510W        W74739  13.204   0.815  13.865
 6511W        W74740   3.922  17.681   1.911
 6512W        W74741  10.168  11.925   1.496
 6513W        W74742  19.532  12.865  13.996
 6514W        W74743  26.662   2.214   0.535
 6515W        W74744   1.335  16.522   2.865
 6516W        W74745  37.255  17.766   0.880
 6517W        W74746  21.695  43.539  14.330
 6518W        W74747  26.980  41.356   0.594
 6519W        W74748  38.756   0.288   2.324
 6520W        W74749  37.778   7.812   4.073
 6521W        W74750   1.235  33.895   3.364
 6522W        W74751  43.506  44.275   0.420
 6523W        W74752  42.098  37.662   3.386
 6524W        W74753  38.962   3.186   3.741
 6525W        W74754  36.456  31.524   3.611
 6526W        W74755  11.702  24.325  14.023
 6527W        W74756  33.314  38.806  11.477
 6528W        W74757  24.336  13.720   3.862
 6529W        W74758  19.570  16.626  11.527
 6530W        W74759  38.991   6.588  12.889
 6531W        W74760  19.095  30.515   4.901
 6532W        W74761  18.038   6.461   1.660
 6533W        W74762   4.890  37.877  11.469
 6534W        W74763   3.338  34.043  14.102
 6535W        W74764  13.280  39.954   4.982
 6536W        W74765  15.733  39.274  12.197
 6537W        W74766  26.067  44.161  12.681
 6538W        W74767  27.197   5.910  14.831
 6539W        W74768  26.815   4.224  11.541
 6540W        W74769  23.394  37.812  11.996
 6541W        W74770   1.750  16.602   2.240
 6542W        W74771  16.706  44.846  11.238
 6543W        W74772  41.412  40.777  13.772
 6544W        W74773  39.611  34.411   4.621
 6545W        W74774  27.918  11.034   1.237
 6546W        W74775  38.123  33.784   9.763
 6547W        W74776   5.703   5.444  10.684
 6548W        W74777  40.553   2.744   4.936
 6549W        W74778  14.501  28.149  10.723
 6550W        W74779  37.815  12.545  11.920
 6551W        W74780   3.104  13.346  13.432
 6552W        W74781  25.392  42.199   4.171
 6553W        W74782  21.053  23.675  12.580
 6554W        W74783  13.150  36.904  11.543
 6555W        W74784   8.118   9.750   4.798
 6556W        W74785   7.285  23.518   4.865
 6557W        W74786  20.123  43.297   1.174
 6558W        W74787  39.271  44.530  13.300
 6559W        W74788  16.929  39.277   3.566
 6560W        W74789  11.238  22.344   2.499
 6561W        W74790  38.193   9.878   1.479
 6562W        W74791   7.533   6.767  12.035
 6563W        W74792  11.845  23.470   0.915
 6564W        W74793  19.235   8.683   1.475
 6565W        W74794  25.403  19.628   1.631
 6566W        W74795   0.457   8.513   0.334
 6567W        W74796  35.183  16.149  11.116
 6568W        W74797  29.728  14.508  10.285
 6569W        W74798  29.246  36.621  11.490
 6570W        W74799  29.535   3.425  13.590
 6571W        W74800  31.151  32.392   0.706
 6572W        W74801  34.119   3.794  10.734
 6573W        W74802  12.805  38.865   1.963
 6574W        W74803  33.443  22.565  12.067
 6575W        W74804  15.123  19.303  10.542
 6576W        W74805  21.086  12.206  11.894
 6577W        W74806  37.032  18.539  11.976
 6578W        W74807  14.048  18.495   3.795
 6579W        W74808  19.099   7.872   3.223
 6580W        W74809  41.024   7.407   2.762
 6581W        W74810  32.226   2.339  10.620
 6582W        W74811  44.135  24.490  11.592
 6583W        W74812   2.806  27.081   4.912
 6584W        W74813   5.786  15.085   1.879
 6585W        W74814   1.289  16.812   0.891
 6586W        W74815  36.946   6.141   0.304
 6587W        W74816   3.396  21.202   4.033
 6588W        W74817  16.571  18.610   1.124
 6589W        W74818  31.455   3.112  11.145
 6590W        W74819   3.782  43.440   0.263
 6591W        W74820   2.218  20.265   2.563
 6592W        W74821  29.350  28.728  12.972
 6593W        W74822   2.598  20.984   3.339
 6594W        W74823  28.008  41.921  11.965
 6595W        W74824  18.005  11.173   2.538
 6596W        W74825  31.172  35.361   2.921
 6597W        W74826  42.998  14.668  13.807
 6598W        W74827  43.062  29.534  10.775
 6599W        W74828  43.481  44.018   1.900
 6600W        W74829   7.664  14.863   1.808
 6601W        W74830  24.242  43.332   2.590
 6602W        W74831  42.897  40.252   4.588
 6603W        W74832  32.525  18.143  11.341
 6604W        W74833  10.099  32.459  14.411
 6605W        W74834  11.452  20.984   0.390
 6606W        W74835  17.995  20.240  11.150
 6607W        W74836  18.644  13.109   1.024
 6608W        W74837  37.397   8.735  11.999
 6609W        W74838  42.504   3.809  12.072
 6610W        W74839  25.565  13.361  13.854
 6611W        W74840  27.704  20.437  14.931
 6612W        W74841   4.541  36.500  14.076
 6613W        W74842  41.741  18.884   4.152
 6614W        W74843  34.724  13.059   2.776
 6615W        W74844  43.449  42.615  11.349
 6616W        W74845  16.112  40.034  14.437
 6617W        W74846  43.012  14.293   0.486
 6618W        W74847  38.438  27.931  10.165
 6619W        W74848  36.464  10.242   3.305
 6620W        W74849  37.078   7.141   1.936
 6621W        W74850  20.274  39.295  13.684
 6622W        W74851  40.137   8.973   2.322
 6623W        W74852   7.917  15.298  11.478
 6624W        W74853  14.151  30.619   9.990
 6625W        W74854   2.006   3.834  11.494
 6626W        W74855  39.621   4.981   0.947
 6627W        W74856  33.009  33.108   4.895
 6628W        W74857  27.127  23.146  12.090
 6629W        W74858  37.795  41.856  13.571
 6630W        W74859  39.862   3.914   3.039
 6631W        W74860  43.982   1.717  10.486
 6632W        W74861   5.138   7.289   0.849
 6633W        W74862   3.078  40.833  11.646
 6634W        W74863  34.947  18.794  10.657
 6635W        W74864  36.860  35.372  13.903
 6636W        W74865  26.040  18.112   4.625
 6637W        W74866  12.366  37.528   1.644
 6638W        W74867   4.824   9.216   2.263
 6639W        W74868  18.129  26.844   2.829
 6640W        W74869  26.786  15.784  13.783
 6641W        W74870  34.358  28.022  11.916
 6642W        W74871   9.984  12.313  14.076
 6643W        W74872  22.726  34.478   2.799
 6644W        W74873  43.864  36.633   4.426
 6645W        W74874   3.662  27.425   2.758
 6646W        W74875  43.745   2.189   4.254
 6647W        W74876   3.311  28.729   0.422
 6648W        W74877  38.386  30.688   1.446
 6649W        W74878  24.407  20.105   0.981
 6650W        W74879  11.629  13.773   0.326
 6651W        W74880  39.008  28.955   5.082
 6652W        W74881  17.254  38.474   2.872
 6653W        W74882  44.385   7.913  10.813
 6654W        W74883  36.985   5.393  14.400
 6655W        W74884  36.149  38.489   3.118
 6656W        W74885  26.491  41.280   3.614
 6657W        W74886   2.870   9.496  13.096
 6658W        W74887  32.965  20.972  12.394
 6659W        W74888  42.268  28.116   3.712
 6660W        W74889  34.038  26.927  14.709
 6661W        W74890  27.522  37.633   2.248
 6662W        W74891  34.006  26.897   4.844
 6663W        W74892  15.172   5.418  11.118
 6664W        W74893   6.942  25.574  14.034
 6665W        W74894   1.520  27.931   4.213
 6666W        W74895  30.428   3.313   0.846
 6667W        W74896  22.577  19.248   0.902
 6668W        W74897  14.625  22.949  13.608
 6669W        W74898  30.900  16.587  14.018
 6670W        W74899  19.224  12.896   1.729
 6671W        W74900  44.550  31.147  11.361
 6672W        W74901  26.491  33.982   0.694
 6673W        W74902  28.845  44.357   0.553
 6674W        W74903   0.444  26.778   4.741
 6675W        W74904  21.088  22.256  13.324
 6676W        W74905  33.582   0.089  10.145
 6677W        W74906   5.999  30.110  11.769
 6678W        W74907   6.620  41.692  14.528
 6679W        W74908  40.345   1.455   3.695
 6680W        W74909   4.375  36.413   1.718
 6681W        W74910  34.493  39.951  14.110
 6682W        W74911   3.461  12.819  10.551
 6683W        W74912  24.773   9.307  10.758
 6684W        W74913  37.394  22.488  10.847
 6685W        W74914  40.868  11.917   4.601
 6686W        W74915  11.149  24.022   2.162
 6687W        W74916  41.457  44.830  10.953
 6688W        W74917  44.775  24.672   2.479
 6689W        W74918  27.409  32.219  10.107
 6690W        W74919   1.295  32.115   1.933
 6691W        W74920  18.792  33.597   2.639
 6692W        W74921  38.727  36.982   4.565
 6693W        W74922  40.472  30.236   1.320
 6694W        W74923   8.604  16.525   3.632
 6695W        W74924  37.861  16.512  13.267
 6696W        W74925   1.543  17.313   1.376
 6697W        W74926  32.128   8.247  13.467
 6698W        W74927  32.186  40.467  12.997
 6699W        W74928  37.587  38.623  10.434
 6700W        W74929   6.178  25.192  12.366
 6701W        W74930  29.060  22.088  14.405
 6702W        W74931  44.384  12.270  14.001
 6703W        W74932  25.482  28.045  12.372
 6704W        W74933  36.040  10.936   1.705
 6705W        W74934  28.048  23.430  14.611
 6706W        W74935  28.092  28.201  14.014
 6707W        W74936   6.459  11.302  13.442
 6708W        W74937  40.086  15.833  11.169
 6709W        W74938  44.525  20.610   3.891
 6710W        W74939  30.104  38.698  11.579
 6711W        W74940  22.729  27.752  10.707
 6712W        W74941  15.796   3.374   1.708
 6713W        W74942   9.457  31.610   4.318
 6714W        W74943  37.396  18.131  12.967
 6715W        W74944  33.909  26.766  12.910
 6716W        W74945   0.857  13.835  14.079
 6717W        W74946  17.466  31.050  10.220
 6718W        W74947   1.121   4.938   1.370
 6719W        W74948  26.186  13.883   9.805
 6720W        W74949   9.268  21.733  13.153
 6721W        W74950  21.149   8.694  10.997
 6722W        W74951  39.054  24.145   2.565
 6723W        W74952  21.524  26.765   0.005
 6724W        W74953  42.408   9.430  12.005
 6725W        W74954  42.424  28.982  10.600
 6726W        W74955  21.974  40.812   3.596
 6727W        W74956   5.052  21.881  11.484
 6728W        W74957   2.840  38.858  12.525
 6729W        W74958  30.554  17.127  14.537
 6730W        W74959  20.642  38.610   3.205
 6731W        W74960  43.315  11.400  13.900
 6732W        W74961  25.984   8.419  14.847
 6733W        W74962   2.343  11.459   2.261
 6734W        W74963   1.637  34.674  14.741
 6735W        W74964  19.250  38.950  11.114
 6736W        W74965  27.600  12.352   1.282
 6737W        W74966  14.936   7.448  13.073
 6738W        W74967   2.668  21.044  12.424
 6739W        W74968   2.465  26.701   1.824
 6740W        W74969  17.106  17.833   0.335
 6741W        W74970  29.464  17.197   3.095
 6742W        W74971  22.769  14.368  14.884
 6743W        W74972  40.411   8.223   3.532
 6744W        W74973  17.838  24.706  13.424
 6745W        W74974  25.936   0.737  14.392
 6746W        W74975   0.368  16.755  14.327
 6747W        W74976  29.402  37.929  10.978
 6748W        W74977  41.994  32.567   3.422
 6749W        W74978  28.912  16.441  11.378
 6750W        W74979  11.021   5.088  12.455
 6751W        W74980   3.409  17.033   3.854
 6752W        W74981  28.200  25.155  12.181
 6753W        W74982  13.801  23.172   4.403
 6754W        W74983  29.816  37.642  10.097
 6755W        W74984   5.618  39.069   3.815
 6756W        W74985  19.042   7.814   2.403
 6757W        W74986  40.404  33.676  10.627
 6758W        W74987   4.562   4.504  13.838
 6759W        W74988  43.967   6.257  11.648
 6760W        W74989   2.140  35.669  11.995
 6761W        W74990  26.270  17.509   1.263
 6762W        W74991  42.521  41.346   2.366
 6763W        W74992  33.359  11.609  12.098
 6764W        W74993  44.424  10.080  12.983
 6765W        W74994  16.666  20.612   2.798
 6766W        W74995  19.077  41.080   3.195
 6767W        W74996  32.223   0.600  13.283
 6768W        W74997  30.426  19.178   2.230
 6769W        W74998   7.485  26.209   0.764
 6770W        W74999  43.870   2.162  13.819
 6771W        W75000   3.860  25.129  13.292
 6772W        W75001  24.148   1.010   3.853
 6773W        W75002  11.456  15.179  10.989
 6774W        W75003  44.461  25.994  12.948
 6775W        W75004  21.832  18.887  13.400
 6776W        W75005   9.599  30.001  11.820
 6777W        W75006   5.676  27.611  13.041
 6778W        W75007   8.734  16.353   3.159
 6779W        W75008   3.872  22.222   1.759
 6780W        W75009  42.481  11.901   1.325
 6781W        W75010  15.247   0.227   2.233
 6782W        W75011  39.525   5.233  14.932
 6783W        W75012  19.324  33.945   3.686
 6784W        W75013  16.740  37.647   2.589
 6785W        W75014  44.259  36.999  13.813
 6786W        W75015  11.178  14.685   1.716
 6787W        W75016   5.904   1.919   1.270
 6788W        W75017   1.610  30.358   2.733
 6789W        W75018  18.599  32.676  12.454
 6790W        W75019  36.078   0.271   3.567
 6791W        W75020   3.194  15.647  10.300
 6792W        W75021  29.579  27.031   4.777
 6793W        W75022  39.447  37.489  13.878
 6794W        W75023  26.350  25.824   4.184
 6795W        W75024  18.854  22.475   1.824
 6796W        W75025  41.390  20.979  13.955
 6797W        W75026  31.171  40.418  12.912
 6798W        W75027   1.316  20.685  13.051
 6799W        W75028  11.087  36.262  13.520
 6800W        W75029  33.500  12.291  11.180
 6801W        W75030  40.076  29.459  11.735
 6802W        W75031   2.959  42.335   1.971
 6803W        W75032  42.259  30.152   2.735
 6804W        W75033  27.037  43.137  12.940
 6805W        W75034   0.540  44.969  14.800
 6806W        W75035  29.295   6.529   1.369
 6807W        W75036  28.161  12.073  14.997
 6808W        W75037  29.961  32.012   4.895
 6809W        W75038  33.270  10.330   5.065
 6810W        W75039  23.791  34.881   1.181
 6811W        W75040  32.780  17.877  13.406
 6812W        W75041  32.610  32.873  13.189
 6813W        W75042  14.669  17.766  12.057
 6814W        W75043  26.526  31.152  12.037
 6815W        W75044  24.633   9.853   4.475
 6816W        W75045   8.799  30.005   3.969
 6817W        W75046  20.620  39.770  12.997
 6818W        W75047  16.829  41.326   3.838
 6819W        W75048   5.882  37.841   1.462
 6820W        W75049  26.649   5.840  12.495
 6821W        W75050  44.965   3.816  12.447
 6822W        W75051  44.488  29.679   0.880
 6823W        W75052  26.470  38.475   3.750
 6824W        W75053  18.766  25.923  12.070
 6825W        W75054   3.411  19.816  12.964
 6826W        W75055  40.352   3.427   2.181
 6827W        W75056  11.245  25.600  12.876
 6828W        W75057  31.813  25.737   0.855
 6829W        W75058   8.724  24.728   3.037
 6830W        W75059  27.706   4.484  12.514
 6831W        W75060  18.618   6.187  14.077
 6832W        W75061  30.998  43.458   2.269
 6833W        W75062  18.161  29.257   2.383
 6834W        W75063  10.219  40.388   2.025
 6835W        W75064  21.304  21.663   2.589
 6836W        W75065   3.204   6.383  13.031
 6837W        W75066  19.033  14.832   3.806
 6838W        W75067  20.812   3.589   0.334
 6839W        W75068  32.609  32.237   0.478
 6840W        W75069  21.252  12.873  11.465
 6841W        W75070   2.072  29.317   0.901
 6842W        W75071  31.245  35.826  12.488
 6843W        W75072   7.938  10.162   5.095
 6844W        W75073  31.395  15.064  12.134
 6845W        W75074   6.225  23.684   1.715
 6846W        W75075  30.735  11.580   1.934
 6847W        W75076  39.222  16.562   1.327
 6848W        W75077  23.424  16.632  11.953
 6849W        W75078  12.754  27.650   3.610
 6850W        W75079   6.480  41.326   3.627
 6851W        W75080  17.868  38.051   4.299
 6852W        W75081   9.634  44.385   3.766
 6853W        W75082  22.694  27.192  13.638
 6854W        W75083  20.023   6.918   0.702
 6855W        W75084   4.785  24.693  12.431
 6856W        W75085  39.818  33.011  12.307
 6857W        W75086  28.111  21.612  14.385
 6858W        W75087  28.037  25.160   2.544
 6859W        W75088  32.685  14.617  13.309
 6860W        W75089  27.711  37.559  14.060
 6861W        W75090  12.142   4.017  13.814
 6862W        W75091  14.653  13.127   4.513
 6863W        W75092  29.974   5.294  13.620
 6864W        W75093  21.845  14.097  12.889
 6865W        W75094  17.760   4.796  13.028
 6866W        W75095  26.751  12.678  14.105
 6867W        W75096   9.288   1.722  13.049
 6868W        W75097   2.531  44.039  10.585
 6869W        W75098   4.171   1.785   3.767
 6870W        W75099  29.101  44.114  12.287
 6871W        W75100  21.538  22.627  11.422
 6872W        W75101  43.821  34.409  13.358
 6873W        W75102  38.695  27.709   1.404
 6874W        W75103  24.131  15.090  14.728
 6875W        W75104  26.695  25.404   0.772
 6876W        W75105  13.864   9.928  13.925
 6877W        W75106  18.659   9.818   4.487
 6878W        W75107   9.992   8.511  12.442
 6879W        W75108   8.281  22.934   2.387
 6880W        W75109  22.775  24.998   2.806
 6881W        W75110   6.939  38.173  10.908
 6882W        W75111   3.430  32.062  10.630
 6883W        W75112  24.917  10.610   4.631
 6884W        W75113  10.748  42.381   1.404
 6885W        W75114  37.730  19.777  12.986
 6886W        W75115  16.816   0.056  14.404
 6887W        W75116  33.432  39.066   4.132
 6888W        W75117  31.261  17.757  11.111
 6889W        W75118  20.572  20.855  10.245
 6890W        W75119  31.133  20.690  12.160
 6891W        W75120  30.648  12.794  11.628
 6892W        W75121   9.235  16.777   4.570
 6893W        W75122  18.826  31.032   2.306
 6894W        W75123   7.353  44.769  11.509
 6895W        W75124  16.352  21.298  11.901
 6896W        W75125  21.631  17.983  14.397
 6897W        W75126  14.694  10.895   3.758
 6898W        W75127  19.543  34.499   4.988
 6899W        W75128  17.460   5.171   3.403
 6900W        W75129   7.734  23.285   2.055
 6901W        W75130   0.939  21.051   0.835
 6902W        W75131  20.935   8.921  13.042
 6903W        W75132   3.346  26.521  11.029
 6904W        W75133  43.720  41.200   1.886
 6905W        W75134   9.722  41.556   3.798
 6906W        W75135  20.183   6.264  13.383
 6907W        W75136  28.640  13.702   4.733
 6908W        W75137  43.476   6.721   4.454
 6909W        W75138  42.047  15.223   2.361
 6910W        W75139  20.747  20.659  11.100
 6911W        W75140   7.784  26.047   3.690
 6912W        W75141  16.589  30.031   4.928
 6913W        W75142   0.875  22.957  11.628
 6914W        W75143  41.466  37.120  13.900
 6915W        W75144  10.807   7.254  12.623
 6916W        W75145   2.995   6.832  14.452
 6917W        W75146  34.557  43.545   2.024
 6918W        W75147   5.788  39.906  12.217
 6919W        W75148  25.057  27.980   0.269
 6920W        W75149  16.236  29.447  14.388
 6921W        W75150  17.632  11.362  14.031
 6922W        W75151  24.553  17.101   2.208
 6923W        W75152   8.706  22.941   1.635
 6924W        W75153  26.204  30.436  14.208
 6925W        W75154  37.858  33.361  12.448
 6926W        W75155  19.198  11.173  12.845
 6927W        W75156  12.642  28.494   2.647
 6928W        W75157  36.104   6.666  14.308
 6929W        W75158  30.103  30.376   2.392
 6930W        W75159  20.507   2.943  13.037
 6931W        W75160  38.296  38.491  11.395
 6932W        W75161  10.093  23.100   3.620
 6933W        W75162   7.987  18.111  11.223
 6934W        W75163  44.275  20.849  13.850
 6935W        W75164  32.676  15.253  13.014
 6936W        W75165  24.149  35.950  11.549
 6937W        W75166  43.819  27.067   3.866
 6938W        W75167  34.522  34.561   0.315
 6939W        W75168  42.168   8.601  11.867
 6940W        W75169  15.797  28.726   4.449
 6941W        W75170  15.750  29.214  14.349
 6942W        W75171  27.962   2.390   4.420
 6943W        W75172  11.519  30.964   2.925
 6944W        W75173   5.415  28.434   0.448
 6945W        W75174   1.937  13.138  14.892
 6946W        W75175   0.538  26.973   4.255
 6947W        W75176  20.240  25.517  11.914
 6948W        W75177  27.742  25.677   3.414
 6949W        W75178  30.708  22.634  12.997
 6950W        W75179  15.064   6.688   2.314
 6951W        W75180  38.462  40.251  13.971
 6952W        W75181  15.359   5.775   3.861
 6953W        W75182  32.427  23.001  14.273
 6954W        W75183   8.313  14.132   4.114
 6955W        W75184  13.727  14.587  10.351
 6956W        W75185  14.068  10.276  13.526
 6957W        W75186   3.674  37.995   1.668
 6958W        W75187  12.205  43.708   2.317
 6959W        W75188  18.574  32.193  13.358
 6960W        W75189  15.405  21.752   3.299
 6961W        W75190  28.694  30.646  14.248
 6962W        W75191  42.664  36.517   2.445
 6963W        W75192  25.010  37.972   3.728
 6964W        W75193   3.691  17.727   3.413
 6965W        W75194  19.014  38.398   0.799
 6966W        W75195   4.031  19.648  14.273
 6967W        W75196  38.215  33.126  14.829
 6968W        W75197  13.400  34.699  14.583
 6969W        W75198  18.126  41.928   0.711
 6970W        W75199  22.181   3.603  14.392
 6971W        W75200  38.144  17.834  11.712
 6972W        W75201  34.516  20.537  14.783
 6973W        W75202  11.115  12.541   2.340
 6974W        W75203  35.856  34.535   4.113
 6975W        W75204  19.701  18.328  11.939
 6976W        W75205   2.022   2.724   3.738
 6977W        W75206  28.085   5.169   4.276
 6978W        W75207  15.231  29.160  14.249
 6979W        W75208  25.225  18.843   3.668
 6980W        W75209  10.925  25.086  12.033
 6981W        W75210   2.768  19.758   0.384
 6982W        W75211  31.968  14.673   3.380
 6983W        W75212  43.321   8.907   4.359
 6984W        W75213  38.295  20.215   3.208
 6985W        W75214   3.259  10.261  14.302
 6986W        W75215  17.587  25.271  12.414
 6987W        W75216  19.072  35.151   3.201
 6988W        W75217  26.382  37.729   1.522
 6989W        W75218  22.256  23.517   1.097
 6990W        W75219  41.827  34.336  13.766
 6991W        W75220  28.882  30.819   4.537
 6992W        W75221   4.009  10.787  14.822
 6993W        W75222  41.964  19.107  14.748
 6994W        W75223   9.569  21.478   2.349
 6995W        W75224  16.093  23.713  13.383
 6996W        W75225  11.650  37.808  12.677
 6997W        W75226   9.350   9.816   0.343
 6998W        W75227  24.297  19.193  13.407
 6999W        W75228  19.300  42.802  13.610
 7000W        W75229   4.148   9.500   1.714
 7001W        W75230  44.942   9.738   3.704
 7002W        W75231   4.527  11.504   5.017
 7003W        W75232  37.391  16.646   1.422
 7004W        W75233  18.181  13.324  13.303
 7005W        W75234   1.429  31.497  14.952
 7006W        W75235  38.597  27.747  12.063
 7007W        W75236  14.106   1.667  10.926
 7008W        W75237  41.392  12.412  12.450
 7009W        W75238   7.735   9.185   1.953
 7010W        W75239  14.361  26.485   0.917
 7011W        W75240  13.177  39.473   0.753
 7012W        W75241  35.559  30.857  14.329
 7013W        W75242  38.823  24.114  13.889
 7014W        W75243   6.088  34.867   4.361
 7015W        W75244  14.948  39.525  10.688
 7016W        W75245   6.805  23.230   1.013
 7017W        W75246  19.044  11.146  14.307
 7018W        W75247   5.995  14.106   0.457
 7019W        W75248  25.151  12.216  14.355
 7020W        W75249  36.799  20.359   4.560
 7021W        W75250  43.037  21.153  10.557
 7022W        W75251  25.040  10.314   3.576
 7023W        W75252   6.821  15.423  14.824
 7024W        W75253   4.721  21.965  11.100
 7025W        W75254  22.166   3.966   2.168
 7026W        W75255  40.513   8.600   1.277
 7027W        W75256  37.470  39.329   1.891
 7028W        W75257   8.721   2.844   3.288
 7029W        W75258  40.757  15.147  13.557
 7030W        W75259  33.224  12.194  10.746
 7031W        W75260   6.781  19.261  12.856
 7032W        W75261  32.188  30.379   0.505
 7033W        W75262  23.661  31.670  13.933
 7034W        W75263  31.931  15.197  12.409
 7035W        W75264  35.108  28.680   1.568
 7036W        W75265  37.398   7.532   3.172
 7037W        W75266  20.097   4.099   2.925
 7038W        W75267   9.606  42.788   4.207
 7039W        W75268  26.384  13.632   3.738
 7040W        W75269  18.655  16.921  13.275
 7041W        W75270  42.913  18.501   3.694
 7042W        W75271  34.608  28.565  12.627
 7043W        W75272  17.054  21.527   4.193
 7044W        W75273  17.511  41.415  11.128
 7045W        W75274  21.489   3.885   2.850
 7046W        W75275   9.617   3.661   3.702
 7047W        W75276  19.271  12.145  13.013
 7048W        W75277  43.839  44.868   4.515
 7049W        W75278   0.847  32.933   1.963
 7050W        W75279  40.968  35.944   0.900
 7051W        W75280  24.334  24.424   4.547
 7052W        W75281  35.391  21.570   2.749
 7053W        W75282  18.251   3.981   1.827
 7054W        W75283  42.030   0.161  12.638
 7055W        W75284   8.150  19.527   2.461
 7056W        W75285  15.734  23.196  13.953
 7057W        W75286   5.291  22.787   1.234
 7058W        W75287   7.713   5.936   3.936
 7059W        W75288  11.645  27.681  10.648
 7060W        W75289  22.263   7.108   4.766
 7061W        W75290  43.955  18.060  14.285
 7062W        W75291  14.031   4.018  11.651
 7063W        W75292  40.963  14.220   3.605
 7064W        W75293  20.038  15.331   0.950
 7065W        W75294  18.584  15.038   4.196
 7066W        W75295  14.713  20.206  11.918
 7067W        W75296  38.339   8.803   2.777
 7068W        W75297   2.307  26.191  11.149
 7069W        W75298  41.869  30.381   1.451
 7070W        W75299  16.405   0.232   4.590
 7071W        W75300  15.340  35.813   0.585
 7072W        W75301   0.802   2.462  14.047
 7073W        W75302   8.838  42.637   0.103
 7074W        W75303  34.517  14.557   2.359
 7075W        W75304  42.266  32.971   2.832
 7076W        W75305  38.809   7.729  14.263
 7077W        W75306  32.765  38.369  14.702
 7078W        W75307  25.520  43.800   3.709
 7079W        W75308  29.759  24.099  10.841
 7080W        W75309  42.379  28.617   3.731
 7081W        W75310  21.643  44.833  13.391
 7082W        W75311  42.597  12.722  12.076
 7083W        W75312  16.747  35.596   0.358
 7084W        W75313  37.260  17.700  12.669
 7085W        W75314  34.592  25.766  11.196
 7086W        W75315  31.095   1.351  12.357
 7087W        W75316   4.097  19.351  13.762
 7088W        W75317  19.273   5.865   1.466
 7089W        W75318   9.171  31.885   1.369
 7090W        W75319  13.992  28.539   4.062
 7091W        W75320   2.163  12.898   1.319
 7092W        W75321  25.499  32.907   1.328
 7093W        W75322  27.875  14.563   0.475
 7094W        W75323  39.517   2.706   4.531
 7095W        W75324  24.415  29.394   1.979
 7096W        W75325  42.217  18.013  13.988
 7097W        W75326  32.947  38.788   1.495
 7098W        W75327  43.272  11.749   0.918
 7099W        W75328  19.167  23.274  14.250
 7100W        W75329  25.209   3.059   1.273
 7101W        W75330  21.488  38.568  11.213
 7102W        W75331  26.803  42.212   2.950
 7103W        W75332  13.374  16.592  13.838
 7104W        W75333   4.807   0.015   0.900
 7105W        W75334  31.927   4.311   4.416
 7106W        W75335  27.288  44.425  11.274
 7107W        W75336  37.848  32.010  11.511
 7108W        W75337  21.932  23.097   3.147
 7109W        W75338  41.929  25.988   3.414
 7110W        W75339  30.175  32.092  12.516
 7111W        W75340  19.160   6.624   2.804
 7112W        W75341  35.001  17.700   0.586
 7113W        W75342  25.821   4.183   2.718
 7114W        W75343   9.210  26.144   4.618
 7115W        W75344  22.464  11.868   2.753
 7116W        W75345  22.986   3.931  13.988
 7117W        W75346  29.929   9.667  14.899
 7118W        W75347   3.937  19.662  13.325
 7119W        W75348  21.977   9.675   2.561
 7120W        W75349  21.931  31.913   3.513
 7121W        W75350  37.003  38.630   2.218
 7122W        W75351  18.421  44.778  11.802
 7123W        W75352   6.434   3.850  13.984
 7124W        W75353   8.376   4.865  10.984
 7125W        W75354  35.597  20.668   0.724
 7126W        W75355  41.100  30.356  11.850
 7127W        W75356   8.386  32.572   4.196
 7128W        W75357   5.638  33.577  10.633
 7129W        W75358   5.109  12.592   3.731
 7130W        W75359  17.713  22.102  13.390
 7131W        W75360  16.778  44.277   0.910
 7132W        W75361  16.666  11.160   3.424
 7133W        W75362   4.633   6.190  14.399
 7134W        W75363  37.554  25.027  13.646
 7135W        W75364  29.909  27.658   3.854
 7136W        W75365  40.888   0.463   1.374
 7137W        W75366   7.684  38.217  14.434
 7138W        W75367  41.798   6.207   1.981
 7139W        W75368  33.497  27.338   3.214
 7140W        W75369  31.077  31.601  12.206
 7141W        W75370  37.299  23.746   0.513
 7142W        W75371   9.771  15.470  11.606
 7143W        W75372  20.698  30.859  14.282
 7144W        W75373  15.628  25.101  13.789
 7145W        W75374  12.744   4.708  13.880
 7146W        W75375  18.492  38.831  10.686
 7147W        W75376   3.799  38.502  12.160
 7148W        W75377  14.213  40.569   2.837
 7149W        W75378  33.854  10.780  10.384
 7150W        W75379   6.560  36.313   3.406
 7151W        W75380  25.610  37.221  12.603
 7152W        W75381   6.515  41.420   4.488
 7153W        W75382  42.766  23.425  10.704
 7154W        W75383   0.755  17.303   1.203
 7155W        W75384   8.817  43.259   1.791
 7156W        W75385   6.776  37.442   4.785
 7157W        W75386   3.355  38.768  13.442
 7158W        W75387  29.390   0.693   4.146
 7159W        W75388   9.142  35.713  11.587
 7160W        W75389  28.013  15.958  13.899
 7161W        W75390   2.685  36.881  13.414
 7162W        W75391  24.489   2.915   2.705
 7163W        W75392  17.314  22.452  14.686
 7164W        W75393   0.953  22.094   3.124
 7165W        W75394  16.815  32.193   1.223
 7166W        W75395  40.042  44.933   0.205
 7167W        W75396   8.243  26.515  14.936
 7168W        W75397  32.732  12.113   3.558
 7169W        W75398   9.404  37.450  11.782
 7170W        W75399  31.059  11.246   3.960
 7171W        W75400  19.035  24.048   0.418
 7172W        W75401  14.005  15.320   4.389
 7173W        W75402   5.150   0.464  11.288
 7174W        W75403  40.887  18.014   2.172
 7175W        W75404  36.373  33.510   4.616
 7176W        W75405  20.995  31.552  14.780
 7177W        W75406  43.792  42.455   3.703
 7178W        W75407  17.533   0.220  11.609
 7179W        W75408  35.950   0.185  13.493
 7180W        W75409  21.934  38.527  12.435
 7181W        W75410  34.425  44.329   2.312
 7182W        W75411  38.915  10.795   2.278
 7183W        W75412  11.085  35.372   0.313
 7184W        W75413   1.989  10.056   1.691
 7185W        W75414  44.053   4.058   2.810
 7186W        W75415  14.287   5.446  11.939
 7187W        W75416  19.835  42.483  11.182
 7188W        W75417  13.706  40.953   0.206
 7189W        W75418  24.466   2.121   4.077
 7190W        W75419  11.347  15.958  11.940
 7191W        W75420  17.340   9.836  11.688
 7192W        W75421   4.943  18.752   2.375
 7193W        W75422  24.464  43.224  12.964
 7194W        W75423   8.848  13.718   1.311
 7195W        W75424   2.272   0.940   0.001
 7196W        W75425  37.603   6.302   1.902
 7197W        W75426  19.639  19.769  12.276
 7198W        W75427   3.179  20.990  12.481
 7199W        W75428  21.492  23.328   3.340
 7200W        W75429   0.501  26.408   1.514
 7201W        W75430   1.235  11.180   3.948
 7202W        W75431   5.670  24.330   1.889
 7203W        W75432  15.994  32.242   0.360
 7204W        W75433  28.743  32.482  13.928
 7205W        W75434  44.170  16.582   4.626
 7206W        W75435   5.014   1.951   9.920
 7207W        W75436  11.789  14.407   0.963
 7208W        W75437  44.942   4.791  10.585
 7209W        W75438  30.977  12.217  14.911
 7210W        W75439   3.190  15.290   0.837
 7211W        W75440  11.893  29.670  10.399
 7212W        W75441   6.709   2.232   4.404
 7213W        W75442  22.090  34.002  10.910
 7214W        W75443   6.722  39.994  12.056
 7215W        W75444   5.795   7.809  13.392
 7216W        W75445  26.438   5.407  12.304
 7217W        W75446   3.649  34.070  11.606
 7218W        W75447  25.269  23.649  12.645
 7219W        W75448  15.180  22.283  11.979
 7220W        W75449   5.377  15.174   0.639
 7221W        W75450  42.986  10.979   4.805
 7222W        W75451  32.585  20.947  12.770
 7223W        W75452  29.003   8.375   0.943
 7224W        W75453  32.502   7.878  14.289
 7225W        W75454  43.819  29.910  13.812
 7226W        W75455  23.017  31.058   3.363
 7227W        W75456   1.253   3.953   4.170
 7228W        W75457  28.136  34.055   3.653
 7229W        W75458   5.190  32.443  13.428
 7230W        W75459  37.601  34.811   0.960
 7231W        W75460  20.072  28.965   2.687
 7232W        W75461  24.885   5.232  11.507
 7233W        W75462  31.160  34.543  11.159
 7234W        W75463  12.172   4.944   2.789
 7235W        W75464  25.545   3.787   2.888
 7236W        W75465  35.492  38.247   0.263
 7237W        W75466  22.830  11.361   0.434
 7238W        W75467   7.302   5.314   0.351
 7239W        W75468   1.487  33.904   4.436
 7240W        W75469  29.895  33.019  11.611
 7241W        W75470  24.070  21.456  13.930
 7242W        W75471  44.314  12.525  14.913
 7243W        W75472   0.775  34.855   4.822
 7244W        W75473  31.172  43.471  13.039
 7245W        W75474   3.825  38.127  11.369
 7246W        W75475   8.147  43.970  12.116
 7247W        W75476  16.862  21.120  10.978
 7248W        W75477  41.315  20.434   2.859
 7249W        W75478  41.609   0.593  13.453
 7250W        W75479   8.930  32.012  12.836
 7251W        W75480  39.975  26.778  12.788
 7252W        W75481  22.587   5.679   2.697
 7253W        W75482  15.605  13.464  14.348
 7254W        W75483   7.821   7.464   0.484
 7255W        W75484   2.387  35.085   0.393
 7256W        W75485   4.613  20.286   0.643
 7257W        W75486  11.290  28.632   2.752
 7258W        W75487   4.811  30.328  10.320
 7259W        W75488  44.424  21.924   4.112
 7260W        W75489   0.297  36.161   4.450
 7261W        W75490  38.897  13.284  14.605
 7262W        W75491  27.073  15.201  14.859
 7263W        W75492  43.423   0.425   1.311
 7264W        W75493  39.604  20.945   3.821
 7265W        W75494  23.516   0.082   4.216
 7266W        W75495  14.132   4.975   5.109
 7267W        W75496   3.581  18.738  11.231
 7268W        W75497  25.019   8.954   1.377
 7269W        W75498  32.166  19.800   3.607
 7270W        W75499  12.650  39.850   2.755
 7271W        W75500  20.683  18.832   2.643
 7272W        W75501   5.932  23.329  14.873
 7273W        W75502  18.171  40.507   2.611
 7274W        W75503  44.466   5.864   0.876
 7275W        W75504  30.693   9.646   2.623
 7276W        W75505  20.515   9.788  14.416
 7277W        W75506  32.908  37.316  14.901
 7278W        W75507  44.010  31.039  11.747
 7279W        W75508  24.662  20.107  10.647
 7280W        W75509  20.267  18.942  13.113
 7281W        W75510  11.339  19.327   3.271
 7282W        W75511   6.168  26.773  14.386
 7283W        W75512   4.861  31.876   2.174
 7284W        W75513   0.736  37.387  11.097
 7285W        W75514  35.765  11.690   1.129
 7286W        W75515  33.070  15.395   4.571
 7287W        W75516  21.079  43.119  14.863
 7288W        W75517  29.512   9.014  14.355
 7289W        W75518   4.330   1.780  13.904
 7290W        W75519  12.858  33.201  14.832
 7291W        W75520  27.431  40.769   0.841
 7292W        W75521  10.213   8.167  13.988
 7293W        W75522  23.964  37.665  12.390
 7294W        W75523  20.545  23.801   2.079
 7295W        W75524  25.955  37.559  10.511
 7296W        W75525  16.354  19.801   5.085
 7297W        W75526  33.424   1.001   2.941
 7298W        W75527  10.718  10.232   1.906
 7299W        W75528  28.903  11.106   1.500
 7300W        W75529  27.610  19.456  14.763
 7301W        W75530  43.923  32.500  11.453
 7302W        W75531  42.824  30.775  11.094
 7303W        W75532  32.429  12.436   1.780
 7304W        W75533  22.242  21.486   0.444
 7305W        W75534  36.964  19.640   0.282
 7306W        W75535  18.184  10.134  13.905
 7307W        W75536  35.635   2.872  13.318
 7308W        W75537  31.940  31.901   2.560
 7309W        W75538  13.727  28.142   3.632
 7310W        W75539   8.340  27.608   1.378
 7311W        W75540   7.947  13.171  11.958
 7312W        W75541  17.499  20.778   0.988
 7313W        W75542   1.628  38.807  13.934
 7314W        W75543  14.050  42.510  11.582
 7315W        W75544  36.084   1.823   2.513
 7316W        W75545  31.303  38.340   4.118
 7317W        W75546  26.534  40.823   0.723
 7318W        W75547   3.243  29.453   0.528
 7319W        W75548  24.159  32.080  12.186
 7320W        W75549  25.991  39.047   0.512
 7321W        W75550  26.440   1.838  14.317
 7322W        W75551  12.162   1.377  14.794
 7323W        W75552  43.834   4.386  14.313
 7324W        W75553  18.518  11.727  12.996
 7325W        W75554  44.903  39.381   4.046
 7326W        W75555   7.006  18.116  11.116
 7327W        W75556  27.411   5.619   2.754
 7328W        W75557  38.850  28.343   9.833
 7329W        W75558  35.164  23.671  11.554
 7330W        W75559  37.970  34.630   0.245
 7331W        W75560  35.304  19.316  13.892
 7332W        W75561  44.304   2.988   2.289
 7333W        W75562  20.524  10.082   2.373
 7334W        W75563   8.751   7.237   3.239
 7335W        W75564  44.596  25.561  10.585
 7336W        W75565  18.033   0.796   1.274
 7337W        W75566  16.738  23.428   1.662
 7338W        W75567  42.408  36.592   1.637
 7339W        W75568  11.807   5.938   3.355
 7340W        W75569  15.186  14.182   3.239
 7341W        W75570  18.542   4.315   1.436
 7342W        W75571  37.619   6.713   2.255
 7343W        W75572   8.358  43.027   1.873
 7344W        W75573  37.821  33.665  14.343
 7345W        W75574  39.915  17.089  13.467
 7346W        W75575  10.126  15.690   3.679
 7347W        W75576  25.968  43.568   0.851
 7348W        W75577  16.955  22.752  14.894
 7349W        W75578  12.694  20.410  13.053
 7350W        W75579  27.674  32.609  14.343
 7351W        W75580  44.483   8.350  11.060
 7352W        W75581  15.179  24.072   4.417
 7353W        W75582   7.422  18.766   0.710
 7354W        W75583  23.187  12.291  11.191
 7355W        W75584   2.812  23.645   4.146
 7356W        W75585   3.382   0.372   3.272
 7357W        W75586   0.423  36.380  14.008
 7358W        W75587  17.804  30.061  12.338
 7359W        W75588  33.145  16.013   0.866
 7360W        W75589  28.263  20.374   4.146
 7361W        W75590  22.134   8.155   4.663
 7362W        W75591   9.755   7.311   3.860
 7363W        W75592  26.590   3.913  12.029
 7364W        W75593  31.020  30.964  14.366
 7365W        W75594  11.343  14.097  14.747
 7366W        W75595   2.766  44.771   0.930
 7367W        W75596  16.094  30.400  13.346
 7368W        W75597  16.207  28.607  13.062
 7369W        W75598  33.166  41.895  11.240
 7370W        W75599   8.588  25.278   4.911
 7371W        W75600  38.779  21.619  14.909
 7372W        W75601  13.181  16.501  14.337
 7373W        W75602   4.419   2.935   1.630
 7374W        W75603  21.032  21.964   4.155
 7375W        W75604   6.489  24.995   3.324
 7376W        W75605   5.841  32.955   0.736
 7377W        W75606  21.914  28.116  13.977
 7378W        W75607  30.462  34.649  13.621
 7379W        W75608  37.196  32.120  13.537
 7380W        W75609  33.940  22.667  14.263
 7381W        W75610  23.742  27.347   0.748
 7382W        W75611   0.269  26.656  12.320
 7383W        W75612  16.003   3.928   0.674
 7384W        W75613  35.080  20.692  10.785
 7385W        W75614   7.066   1.888  14.344
 7386W        W75615  35.015  15.233   4.056
 7387W        W75616  32.506  33.945   1.037
 7388W        W75617  21.940   4.160   0.455
 7389W        W75618  26.189  22.091  13.368
 7390W        W75619  28.995   1.831   2.002
 7391W        W75620  15.275  43.323   2.248
 7392W        W75621  18.758   1.010   3.453
 7393W        W75622  42.017  21.170   4.511
 7394W        W75623   9.449  39.321  12.828
 7395W        W75624  18.650  29.408  10.352
 7396W        W75625  14.635  14.562   4.577
 7397W        W75626   1.233  18.137   4.826
 7398W        W75627  35.482  15.882  14.055
 7399W        W75628  39.525  39.007   0.364
 7400W        W75629  27.958  20.143   2.456
 7401W        W75630  40.762  13.738   3.652
 7402W        W75631  15.809  40.978  13.595
 7403W        W75632  21.983  40.475  11.854
 7404W        W75633  11.263  21.632   4.141
 7405W        W75634  38.503  39.053  12.754
 7406W        W75635  28.433   1.076   3.974
 7407W        W75636   1.012  12.171  10.603
 7408W        W75637  25.742  34.972   1.188
 7409W        W75638  31.631  14.640  11.553
 7410W        W75639  39.335  19.624  11.496
 7411W        W75640   0.528  10.950  12.952
 7412W        W75641   8.846   0.753   4.100
 7413W        W75642   9.037  31.270  13.793
 7414W        W75643   9.219  39.898   4.664
 7415W        W75644  41.846  32.046  11.138
 7416W        W75645  38.030  23.755  14.920
 7417W        W75646  24.543   4.912  11.252
 7418W        W75647  25.252  21.736  12.517
 7419W        W75648  13.472  31.988  10.139
 7420W        W75649  13.535   2.527   4.326
 7421W        W75650  11.670  14.418  10.853
 7422W        W75651  41.981  43.996   2.736
 7423W        W75652  25.786  25.487   3.466
 7424W        W75653  32.364  41.966   0.991
 7425W        W75654  15.491  21.406   2.016
 7426W        W75655  37.760  17.662  12.513
 7427W        W75656  30.479  10.864   4.559
 7428W        W75657   9.617  14.199   0.199
 7429W        W75658  26.653  29.339   2.655
 7430W        W75659   8.674   9.184  11.218
 7431W        W75660  33.176  36.440   1.487
 7432W        W75661   1.036  21.063   4.678
 7433W        W75662  12.763   7.848  10.409
 7434W        W75663  34.537  34.599   1.647
 7435W        W75664   5.902  10.634   2.113
 7436W        W75665  29.411  27.209   2.658
 7437W        W75666  37.447   4.846  11.532
 7438W        W75667   8.397  18.741  13.880
 7439W        W75668   2.365   3.652   0.237
 7440W        W75669  23.632  38.924  14.372
 7441W        W75670  28.445  18.577   4.261
 7442W        W75671  38.488   9.111   0.980
 7443W        W75672   9.846  31.191  11.347
 7444W        W75673  29.381  22.349  12.767
 7445W        W75674  23.327  15.295  13.855
 7446W        W75675  19.022  25.014   3.667
 7447W        W75676   9.802  27.477  13.350
 7448W        W75677  31.374  30.772  12.126
 7449W        W75678  30.043  18.353   0.792
 7450W        W75679  40.992   0.375  12.837
 7451W        W75680  39.966  38.729   0.189
 7452W        W75681  34.476  16.011  14.897
 7453W        W75682   1.272  23.999  13.525
 7454W        W75683  30.691  44.904  13.921
 7455W        W75684  34.933  26.098  12.032
 7456W        W75685  14.152   0.509   4.074
 7457W        W75686  22.662  37.071   4.906
 7458W        W75687   3.954   6.602   3.731
 7459W        W75688  34.212  11.364  14.777
 7460W        W75689  16.512  14.747   2.166
 7461W        W75690  17.321  14.901  11.087
 7462W        W75691  33.533   0.247  11.044
 7463W        W75692  41.248  29.509   3.678
 7464W        W75693  40.995  32.507  12.479
 7465W        W75694  19.521  18.767   4.643
 7466W        W75695  16.584  11.295   0.944
 7467W        W75696  43.923  35.318   0.281
 7468W        W75697   0.870  28.227  13.823
 7469W        W75698  21.652  43.463  10.707
 7470W        W75699  26.731   0.901   3.234
 7471W        W75700   6.420   2.358  13.575
 7472W        W75701  38.976  17.150  14.489
 7473W        W75702  22.795  14.164   0.429
 7474W        W75703  37.358  11.919  13.843
 7475W        W75704  41.969   3.429  13.837
 7476W        W75705  19.163  18.925   1.204
 7477W        W75706   8.191  37.184   3.848
 7478W        W75707  25.160  20.146  10.741
 7479W        W75708  35.287  19.143   2.833
 7480W        W75709  22.663   9.402   3.718
 7481W        W75710  38.115  29.103  14.702
 7482W        W75711   2.872  40.276   1.290
 7483W        W75712  31.468  32.805  11.592
 7484W        W75713  31.572   8.371  13.481
 7485W        W75714  30.760  26.131   0.410
 7486W        W75715   2.356  23.116  13.055
 7487W        W75716   2.360   6.956  11.782
 7488W        W75717  14.230  35.477  11.648
 7489W        W75718  30.069  39.444  11.215
 7490W        W75719   1.232   3.109  13.487
 7491W        W75720  22.566   3.035   4.185
 7492W        W75721  26.008  30.669   4.262
 7493W        W75722  35.201  43.038  11.627
 7494W        W75723  15.669   2.134   3.661
 7495W        W75724   7.651  14.378  12.280
 7496W        W75725  42.068   6.133  12.854
 7497W        W75726  41.946  27.987  14.362
 7498W        W75727  14.887  33.296   0.322
 7499W        W75728  26.036  25.627  12.324
 7500W        W75729  27.535   4.618  14.997
 7501W        W75730  31.992  20.356   0.609
 7502W        W75731  44.732  38.994  12.066
 7503W        W75732  18.553   2.009  11.076
 7504W        W75733  11.319  31.107  13.398
 7505W        W75734  35.500   6.780  11.872
 7506W        W75735  20.137  28.572  14.598
 7507W        W75736  43.436  28.716   4.326
 7508W        W75737  18.001   7.495  14.697
 7509W        W75738  36.650  22.576   1.901
 7510W        W75739   0.817  15.546   4.615
 7511W        W75740  41.321  23.445   0.730
 7512W        W75741  10.063  30.160  11.579
 7513W        W75742  29.853  42.515  10.571
 7514W        W75743  31.906   9.317   4.035
 7515W        W75744  17.521  29.637   2.226
 7516W        W75745  19.317  27.486  14.946
 7517W        W75746  21.603  14.855  12.452
 7518W        W75747   9.298   1.498  14.474
 7519W        W75748  24.408  18.749   2.376
 7520W        W75749  27.141   6.018  13.863
 7521W        W75750  16.407  26.481  10.043
 7522W        W75751  21.073  17.341   4.402
 7523W        W75752   2.742  40.450  11.528
 7524W        W75753   6.840  20.574   1.962
 7525W        W75754   0.480  18.132  14.376
 7526W        W75755  23.037  31.138  11.946
 7527W        W75756  10.460  10.974   2.320
 7528W        W75757  34.451  40.927  13.055
 7529W        W75758  30.171  43.775  11.586
 7530W        W75759  39.879  32.396  12.920
 7531W        W75760  39.346  38.002   4.279
 7532W        W75761   1.841   2.840   0.995
 7533W        W75762  21.075   5.945   0.908
 7534W        W75763  11.558  29.491   2.284
 7535W        W75764   2.118  26.096   2.636
 7536W        W75765   6.978   0.427   3.278
 7537W        W75766  25.347   5.150  10.598
 7538W        W75767  10.162  25.652  13.163
 7539W        W75768  35.546  35.132  10.796
 7540W        W75769  44.372   6.736  14.435
 7541W        W75770  37.041  42.443   3.006
 7542W        W75771  19.235  26.790  11.935
 7543W        W75772   8.654  13.674   2.809
 7544W        W75773   7.121  22.414   0.468
 7545W        W75774  32.629  33.427   2.822
 7546W        W75775  31.516  16.774  14.503
 7547W        W75776  40.059  17.557   0.835
 7548W        W75777  30.856  14.857  11.169
 7549W        W75778  38.944  31.603   9.917
 7550W        W75779   8.819  25.416  10.968
 7551W        W75780  30.260  29.027  14.049
 7552W        W75781   7.734  17.587  12.111
 7553W        W75782  21.012  10.758  12.792
 7554W        W75783  29.452  15.359  11.211
 7555W        W75784   2.357  21.478  12.428
 7556W        W75785   4.670  21.706  11.769
 7557W        W75786  35.423   4.897  11.406
 7558W        W75787  35.197  41.611   0.239
 7559W        W75788  28.101  38.381   4.010
 7560W        W75789  28.718  19.714   2.431
 7561W        W75790  18.088  31.951  12.081
 7562W        W75791  40.569  20.249   3.666
 7563W        W75792  35.904  40.866  12.621
 7564W        W75793  12.336  22.031   1.082
 7565W        W75794  19.394  42.476   4.517
 7566W        W75795  22.647  14.361   1.327
 7567W        W75796  14.203  42.862  13.043
 7568W        W75797  16.197  40.463  11.889
 7569W        W75798  25.834  10.198  10.210
 7570W        W75799  37.455   7.626  11.124
 7571W        W75800  30.487  19.339  12.980
 7572W        W75801  35.619  18.511   0.313
 7573W        W75802  27.265   8.268  11.129
 7574W        W75803  24.757  29.921  12.033
 7575W        W75804  44.997  43.384   0.288
 7576W        W75805  23.043   3.464   4.537
 7577W        W75806  41.115  10.471  11.399
 7578W        W75807  29.064   1.376   4.262
 7579W        W75808  17.187  31.027   3.145
 7580W        W75809  42.384  42.817   1.507
 7581W        W75810  34.560   1.143   0.991
 7582W        W75811   6.415   4.307  11.133
 7583W        W75812  11.873  10.804   4.772
 7584W        W75813  28.008  23.661   2.650
 7585W        W75814  14.771   3.557  13.885
 7586W        W75815   5.649  39.740  10.732
 7587W        W75816  13.094  21.004   5.089
 7588W        W75817  13.902  12.790  11.512
 7589W        W75818  12.894  18.692  12.902
 7590W        W75819  44.815  44.312  11.428
 7591W        W75820  37.835  30.922   2.244
 7592W        W75821  20.762  38.030  12.068
 7593W        W75822  13.358   3.952   3.913
 7594W        W75823   1.422  34.635   2.836
 7595W        W75824  20.526  42.790   1.846
 7596W        W75825  44.614  36.810  12.885
 7597W        W75826  44.534  35.066   4.182
 7598W        W75827  16.367   8.983   1.183
 7599W        W75828  31.551  35.067   2.461
 7600W        W75829   3.125  38.830   5.701
 7601W        W75830  32.068  17.255  11.178
 7602W        W75831  41.385  41.109  10.951
 7603W        W75832  36.865   2.296   1.739
 7604W        W75833  33.163  30.491  10.719
 7605W        W75834  23.703   4.231   4.157
 7606W        W75835  28.482   3.377   1.247
 7607W        W75836  31.766  36.931  14.478
 7608W        W75837  44.316  16.002  11.567
 7609W        W75838   3.949  22.625  11.234
 7610W        W75839  13.538  31.730  14.475
 7611W        W75840  35.524   0.957  14.468
 7612W        W75841   7.665  17.881   2.803
 7613W        W75842  16.586  38.009  12.470
 7614W        W75843  19.679  41.919   2.165
 7615W        W75844  22.149  28.596   2.324
 7616W        W75845  31.152  42.028   3.702
 7617W        W75846  18.607  22.511   1.345
 7618W        W75847  23.558  13.762   0.031
 7619W        W75848   3.762  19.807   3.116
 7620W        W75849  10.224  11.964  11.256
 7621W        W75850  22.407  34.008   3.584
 7622W        W75851  14.867   1.212   0.564
 7623W        W75852  29.415   5.992  14.793
 7624W        W75853  35.157  19.708  13.040
 7625W        W75854   6.823  39.550  14.452
 7626W        W75855   9.288  35.292   2.300
 7627W        W75856  42.278  22.016   2.880
 7628W        W75857  24.230  13.274   3.153
 7629W        W75858  25.578  36.563   0.001
 7630W        W75859  13.406  12.172   3.646
 7631W        W75860  26.919  34.991  13.510
 7632W        W75861  17.672  33.294  14.819
 7633W        W75862  25.723  36.242   5.102
 7634W        W75863  28.755  28.855  14.204
 7635W        W75864  40.978  14.689  13.620
 7636W        W75865  37.533  10.974   4.350
 7637W        W75866  23.529  11.388  12.124
 7638W        W75867  26.381   0.234   4.086
 7639W        W75868  27.638   9.284   0.423
 7640W        W75869  36.462  34.429   4.574
 7641W        W75870  23.410  35.433   0.280
 7642W        W75871  14.180  40.761  14.989
 7643W        W75872  43.500  23.712  14.516
 7644W        W75873  20.988   9.226   1.201
 7645W        W75874  21.585  27.907  14.330
 7646W        W75875  32.272  35.416   1.887
 7647W        W75876  37.782  16.627   0.810
 7648W        W75877  43.789  40.470  14.422
 7649W        W75878  38.984  27.493   3.563
 7650W        W75879   9.730   8.894   2.701
 7651W        W75880  40.229  30.887  14.899
 7652W        W75881  35.982   3.237   2.268
 7653W        W75882  43.976  18.655   3.157
 7654W        W75883  20.829  44.136   2.895
 7655W        W75884   6.913   6.205  11.278
 7656W        W75885   5.938  42.449   0.438
 7657W        W75886  13.878  33.619   0.330
 7658W        W75887  36.055  16.023   4.123
 7659W        W75888  38.243  21.076  13.872
 7660W        W75889  21.173  34.110   1.181
 7661W        W75890  11.562   7.661   2.470
 7662W        W75891  28.000   1.467   3.318
 7663W        W75892  10.719  34.539  14.368
 7664W        W75893   8.775   3.642   2.957
 7665W        W75894   9.899  43.738  14.485
 7666W        W75895  29.748  15.549   1.891
 7667W        W75896  13.726  33.385  13.891
 7668W        W75897  44.630  10.156  13.870
 7669W        W75898   5.945  32.071   2.247
 7670W        W75899  33.905  34.733  10.280
 7671W        W75900  36.900   2.924  11.985
 7672W        W75901  20.451  23.140   1.293
 7673W        W75902  20.313  29.154  13.406
 7674W        W75903  14.580  13.395   2.307
 7675W        W75904  26.359  40.852  13.841
 7676W        W75905  32.063  34.500   3.618
 7677W        W75906  16.480  19.290   5.223
 7678W        W75907  27.493   9.384   4.406
 7679W        W75908   9.653  30.062  12.383
 7680W        W75909  36.805  29.946  14.085
 7681W        W75910  21.790  26.709  11.973
 7682W        W75911  27.110  29.434   4.168
 7683W        W75912  23.721  25.494  10.915
 7684W        W75913   4.845   0.222   4.147
 7685W        W75914  29.031  19.964   1.691
 7686W        W75915  19.139   5.751   0.984
 7687W        W75916  22.706  29.450   2.114
 7688W        W75917  32.761   6.154  14.787
 7689W        W75918  18.227   7.416   3.193
 7690W        W75919  24.799   4.271   2.711
 7691W        W75920   1.909  36.390  12.513
 7692W        W75921  44.775  19.761  14.110
 7693W        W75922  17.104  37.494  11.044
 7694W        W75923  19.104  38.867  14.948
 7695W        W75924  15.572  14.389  11.037
 7696W        W75925  38.039  19.831  13.403
 7697W        W75926  34.398   3.477   2.908
 7698W        W75927  14.811  23.607  12.001
 7699W        W75928  16.605  27.301  12.937
 7700W        W75929   5.144  25.035   2.263
 7701W        W75930  39.243   9.783   1.243
 7702W        W75931  17.127  14.619  10.698
 7703W        W75932  40.914  30.472   1.554
 7704W        W75933   9.587  31.558   1.321
 7705W        W75934  29.660   9.772  13.885
 7706W        W75935  14.754   7.642   4.047
 7707W        W75936  28.528   0.426   3.349
 7708W        W75937  44.474  29.198   1.241
 7709W        W75938  30.550  36.948   2.389
 7710W        W75939  22.503  42.560  10.936
 7711W        W75940  30.858  34.522  12.430
 7712W        W75941  40.266   3.300  11.882
 7713W        W75942  29.940  16.679   4.117
 7714W        W75943  21.527   8.833  13.896
 7715W        W75944  23.445  21.624  14.364
 7716W        W75945  23.124  39.046  14.307
 7717W        W75946   2.877   2.865  14.028
 7718W        W75947  12.674  41.479  11.136
 7719W        W75948   2.484   7.843  13.040
 7720W        W75949  23.745  21.015  11.152
 7721W        W75950   5.938  11.091   0.932
 7722W        W75951  31.409  23.507  13.556
 7723W        W75952  25.896  26.900  12.099
 7724W        W75953  42.524  21.709   0.323
 7725W        W75954   0.547  32.434  12.064
 7726W        W75955  16.088   4.350  12.886
 7727W        W75956  22.057   8.917   4.296
 7728W        W75957  36.237  14.352   0.907
 7729W        W75958  33.627   5.747  14.462
 7730W        W75959  34.745  11.652   2.720
 7731W        W75960  19.568  36.062   4.968
 7732W        W75961  39.577   9.129   0.544
 7733W        W75962  33.441  19.747   0.035
 7734W        W75963   4.967  15.057   1.442
 7735W        W75964  16.333   3.266  14.573
 7736W        W75965  43.462  22.536   0.480
 7737W        W75966  29.509  40.349  12.520
 7738W        W75967  31.803   1.999   3.567
 7739W        W75968   4.899  32.334  11.624
 7740W        W75969  15.064  26.032   3.827
 7741W        W75970  37.407  41.583  11.965
 7742W        W75971  44.685   1.953  13.453
 7743W        W75972  14.247  11.314   0.553
 7744W        W75973  12.123  13.339   9.765
 7745W        W75974  29.145  14.097   0.220
 7746W        W75975  20.173  22.108   3.695
 7747W        W75976  14.302  28.702  11.596
 7748W        W75977   9.713  35.623  14.447
 7749W        W75978   9.914  40.679   2.630
 7750W        W75979  16.809   3.450  10.673
 7751W        W75980  34.149  33.140  11.419
 7752W        W75981   5.814  20.973   0.487
 7753W        W75982  18.258   1.238  12.672
 7754W        W75983  26.574  11.130   4.956
 7755W        W75984  21.280   3.428   3.529
 7756W        W75985  44.446  35.022  12.721
 7757W        W75986  36.962   8.266   3.388
 7758W        W75987  43.066  21.488  11.063
 7759W        W75988  35.145  32.322   1.799
 7760W        W75989  33.437  42.676  13.825
 7761W        W75990  20.261  34.870  13.522
 7762W        W75991  24.690  18.156  14.951
 7763W        W75992   3.430  31.163  14.084
 7764W        W75993  26.300  39.289   4.261
 7765W        W75994  42.284  43.967  13.900
 7766W        W75995  44.210  43.009  14.576
 7767W        W75996   6.731  41.552  10.644
 7768W        W75997  23.001  37.460   1.648
 7769W        W75998  16.315   7.130   0.300
 7770W        W75999  24.134  38.566  11.741
 7771W        W76000   3.178  37.414  14.069
 7772W        W76001  37.191  40.057   4.780
 7773W        W76002  36.549  27.241   1.653
 7774W        W76003   2.015  13.625   3.277
 7775W        W76004  23.652   1.833  14.471
 7776W        W76005  40.165   5.786   3.249
 7777W        W76006   1.757  10.706  14.025
 7778W        W76007   6.936  28.143  14.815
 7779W        W76008  17.611  34.025  11.568
 7780W        W76009  30.011  36.531  10.719
 7781W        W76010  12.884  21.478   3.094
 7782W        W76011  10.154  22.777  10.666
 7783W        W76012  34.375  38.963  13.938
 7784W        W76013  15.323  12.344  10.556
 7785W        W76014  13.243  26.576  10.640
 7786W        W76015  39.785  11.209  14.548
 7787W        W76016  22.488  13.708   5.447
 7788W        W76017  12.472  17.413  12.991
 7789W        W76018  26.918   2.495  12.529
 7790W        W76019   7.411  40.781  12.944
 7791W        W76020  40.434   8.135  13.058
 7792W        W76021  13.213  17.809   3.161
 7793W        W76022  17.221  38.784  11.457
 7794W        W76023   1.645  40.827  12.083
 7795W        W76024  15.567  22.190   0.237
 7796W        W76025  43.447  22.731  11.570
 7797W        W76026  28.178  38.212  12.795
 7798W        W76027  18.519  37.882   2.309
 7799W        W76028   2.823  19.712  13.884
 7800W        W76029  11.856  37.421  12.410
 7801W        W76030  18.662  12.090   2.386
 7802W        W76031  15.832  39.450  10.731
 7803W        W76032   0.798   5.558  13.857
 7804W        W76033   5.213  42.731  12.978
 7805W        W76034  11.314  10.170   0.571
 7806W        W76035   0.140   1.666  13.345
 7807W        W76036  10.262  44.295   4.599
 7808W        W76037  18.254   0.729  14.825
 7809W        W76038   4.292  31.590   3.719
 7810W        W76039   1.717  34.162  13.992
 7811W        W76040  19.904  39.574  14.627
 7812W        W76041  39.883  28.057   2.442
 7813W        W76042   6.627   8.861  11.576
 7814W        W76043  12.188   9.112   1.934
 7815W        W76044   7.692   7.300   2.711
 7816W        W76045  31.994  27.991   3.230
 7817W        W76046  39.317   7.453   3.509
 7818W        W76047  37.595  20.088   3.878
 7819W        W76048  17.792   6.922   2.826
 7820W        W76049   2.119   2.790  13.453
 7821W        W76050   8.449   7.706  12.481
 7822W        W76051  29.080  14.393   4.586
 7823W        W76052  39.925  43.537   4.112
 7824W        W76053  16.673  40.145   2.192
 7825W        W76054   4.596   0.834   1.202
 7826W        W76055   9.197  44.427  11.207
 7827W        W76056  15.714  11.555   1.349
 7828W        W76057  23.556  32.149   0.775
 7829W        W76058  38.756  43.573  10.655
 7830W        W76059  37.149  35.846  11.619
 7831W        W76060  35.155   9.687  14.348
 7832W        W76061   2.579  43.320  11.566
 7833W        W76062  10.656   3.634   1.109
 7834W        W76063  26.513  23.051  13.479
 7835W        W76064  22.321   8.336  11.478
 7836W        W76065   2.992  35.050  14.748
 7837W        W76066  31.798  31.775   0.498
 7838W        W76067  14.749  33.089   1.013
 7839W        W76068  34.496  43.738  12.139
 7840W        W76069   9.269  23.078  13.385
 7841W        W76070   4.154  16.775   2.715
 7842W        W76071   7.757  15.751   4.302
 7843W        W76072  20.308  41.703   4.631
 7844W        W76073  41.308   9.592   3.057
 7845W        W76074   6.814  27.186  13.557
 7846W        W76075  21.261  42.006   0.858
 7847W        W76076  10.440  16.097  12.878
 7848W        W76077  42.877   8.264  13.551
 7849W        W76078  20.769   8.338   0.985
 7850W        W76079   4.416  43.620  11.532
 7851W        W76080  33.700   5.220  11.942
 7852W        W76081  26.021  36.960  13.879
 7853W        W76082  35.921  40.860  11.019
 7854W        W76083  11.878  21.056   3.725
 7855W        W76084  24.273  19.174  14.315
 7856W        W76085   7.601   8.464   0.301
 7857W        W76086  36.622  32.422   2.688
 7858W        W76087   8.917  41.453   4.247
 7859W        W76088  18.845  41.293   3.793
 7860W        W76089   1.318  22.657   0.069
 7861W        W76090  32.575  18.927   4.337
 7862W        W76091  26.535  13.057  13.802
 7863W        W76092  34.023  10.824   2.139
 7864W        W76093  16.284   5.899   1.308
 7865W        W76094  44.647  34.844  13.182
 7866W        W76095  36.567  41.816   1.249
 7867W        W76096   9.816  28.189   1.527
 7868W        W76097   8.633  35.895  10.705
 7869W        W76098  13.138  30.284  11.709
 7870W        W76099  26.499   2.115  11.290
 7871W        W76100  21.270   9.744  14.897
 7872W        W76101  38.358  39.725  14.022
 7873W        W76102  15.208  21.099   1.685
 7874W        W76103  33.863  27.996   1.457
 7875W        W76104  20.881  38.872  11.151
 7876W        W76105  40.799  19.224   3.175
 7877W        W76106  12.646  36.573   5.037
 7878W        W76107  10.096  26.274   4.969
 7879W        W76108  31.956  23.660  10.870
 7880W        W76109  17.889   8.250  13.267
 7881W        W76110  35.221   5.706   0.387
 7882W        W76111  20.048   0.332   1.492
 7883W        W76112   5.809  30.562   1.361
 7884W        W76113  34.621  22.174   0.407
 7885W        W76114  35.693  13.100  11.547
 7886W        W76115  30.217  33.056  13.164
 7887W        W76116   6.059  23.506  13.402
 7888W        W76117  23.317  15.674  14.778
 7889W        W76118  38.025  42.961   2.380
 7890W        W76119  38.721   3.452   4.552
 7891W        W76120   7.337   6.644  10.475
 7892W        W76121  33.153  42.799  11.527
 7893W        W76122  15.789  24.227   1.093
 7894W        W76123   3.028   5.921  11.712
 7895W        W76124  27.519  12.860  11.927
 7896W        W76125   1.316  24.549   0.151
 7897W        W76126   1.793  44.130  10.817
 7898W        W76127   4.706   6.989   0.732
 7899W        W76128  32.489   2.973   1.266
 7900W        W76129   6.612  29.611  13.512
 7901W        W76130   6.727  24.512  13.946
 7902W        W76131  22.716  37.911   2.164
 7903W        W76132  26.205  34.360   2.315
 7904W        W76133  15.102  40.333   1.335
 7905W        W76134  36.075   7.913   3.306
 7906W        W76135   1.271  41.013   4.698
 7907W        W76136  19.446  31.841  12.427
 7908W        W76137  28.135  33.656  10.970
 7909W        W76138   7.199  36.119  14.528
 7910W        W76139  30.122  21.210  10.580
 7911W        W76140  12.316   8.381   3.687
 7912W        W76141   2.335  29.271  14.045
 7913W        W76142  19.814  31.887   2.650
 7914W        W76143   5.378   5.780   3.854
 7915W        W76144  31.244  30.865  10.657
 7916W        W76145  29.503  15.537   4.651
 7917W        W76146  44.217  11.788  14.140
 7918W        W76147  33.241   8.787   1.440
 7919W        W76148   6.664  41.374  12.390
 7920W        W76149  33.127  15.632   3.212
 7921W        W76150   2.654  30.702  12.022
 7922W        W76151  27.961  26.205   1.386
 7923W        W76152  14.755  30.594  13.792
 7924W        W76153  33.412   0.976  14.456
 7925W        W76154  17.713  19.760   1.272
 7926W        W76155  41.495  42.409  11.069
 7927W        W76156  29.600  27.360   1.839
 7928W        W76157  26.762  31.380  11.592
 7929W        W76158  16.849   5.934  12.611
 7930W        W76159   6.628  17.784   3.507
 7931W        W76160  37.464  11.850   1.318
 7932W        W76161  42.531   8.869   0.366
 7933W        W76162   5.027  22.807  11.123
 7934W        W76163   5.269  40.874  12.723
 7935W        W76164  33.277  44.274  11.119
 7936W        W76165  15.801   5.211   1.268
 7937W        W76166   6.202  42.305  14.430
 7938W        W76167  22.047   6.185   1.623
 7939W        W76168  42.428  12.070  11.973
 7940W        W76169  35.983  34.919   1.275
 7941W        W76170  21.350  10.278  13.370
 7942W        W76171  29.406   1.629   0.528
 7943W        W76172   4.792  19.122   4.400
 7944W        W76173  13.214  10.160   2.226
 7945W        W76174  24.866  10.655  13.395
 7946W        W76175  21.769  12.885  13.539
 7947W        W76176  11.588  36.971  12.372
 7948W        W76177  12.704  19.386  12.433
 7949W        W76178  38.400  24.195   3.365
 7950W        W76179  36.783  11.718   2.189
 7951W        W76180  16.817  24.024   2.749
 7952W        W76181  36.895  39.987  12.916
 7953W        W76182  26.015   9.834   1.712
 7954W        W76183  36.340  25.354  13.079
 7955W        W76184  10.104  44.387   5.095
 7956W        W76185  16.070  37.968  13.845
 7957W        W76186  20.585  41.055  12.552
 7958W        W76187  17.316  44.385   2.750
 7959W        W76188  38.722  16.140   2.336
 7960W        W76189   8.866  32.570  11.960
 7961W        W76190   9.153  37.334   0.456
 7962W        W76191  25.309  41.385  14.974
 7963W        W76192  28.508  19.212  11.959
 7964W        W76193   7.616   2.504   2.804
 7965W        W76194  17.926  33.676   0.536
 7966W        W76195  32.637  29.226   3.234
 7967W        W76196  28.401  30.045  13.953
 7968W        W76197  30.435  14.837  14.328
 7969W        W76198  31.355  39.953  13.048
 7970W        W76199   5.228   5.286   2.598
 7971W        W76200  26.991  15.397  13.092
 7972W        W76201  31.917   0.844  12.469
 7973W        W76202   5.389   8.126  13.420
 7974W        W76203  30.417  26.374  12.218
 7975W        W76204  18.322  32.644  13.247
 7976W        W76205  26.776  37.304  12.297
 7977W        W76206   6.003   4.568  12.934
 7978W        W76207   1.791  12.303  11.799
 7979W        W76208  44.181  36.407  12.424
 7980W        W76209   6.765  29.389   2.110
 7981W        W76210  28.453  21.268  12.496
 7982W        W76211   1.058  26.608  14.952
 7983W        W76212  44.251  30.016   4.076
 7984W        W76213  31.474  14.352  11.093
 7985W        W76214  26.046  25.228  14.723
 7986W        W76215  31.078  23.149  14.451
 7987W        W76216  27.211  13.245   2.846
 7988W        W76217  28.511   8.790  11.469
 7989W        W76218  38.491  14.697   2.616
 7990W        W76219  33.668  43.519   3.481
 7991W        W76220  31.061  44.188   3.272
 7992W        W76221  21.307  31.166   2.198
 7993W        W76222  44.674  34.384  11.126
 7994W        W76223  26.857  26.445  12.647
 7995W        W76224  35.339  39.753  12.301
 7996W        W76225   7.224  15.001  12.459
 7997W        W76226  24.285  21.617   1.504
 7998W        W76227  43.362  40.927  12.555
 7999W        W76228  41.160   0.327  13.330
 8000W        W76229  38.770  36.521   3.771
 8001W        W76230  37.431  11.945  10.939
 8002W        W76231  37.629   5.756  14.866
 8003W        W76232   4.072   8.374  11.708
 8004W        W76233  18.280  11.908   3.696
 8005W        W76234  42.879  27.298   4.236
 8006W        W76235  30.014   7.698   1.507
 8007W        W76236  42.468  24.949   2.753
 8008W        W76237   5.618  24.741  13.831
 8009W        W76238  22.465  17.443   3.672
 8010W        W76239  38.062  40.494   4.123
 8011W        W76240  42.841  22.431   3.688
 8012W        W76241  29.065  43.013  11.342
 8013W        W76242  14.059  20.163   1.439
 8014W        W76243  21.229  20.522   1.238
 8015W        W76244   9.206  24.400   3.276
 8016W        W76245  11.343  44.729  12.835
 8017W        W76246  30.918  29.707   3.273
 8018W        W76247  20.984   3.372  12.480
 8019W        W76248  13.712  35.426   0.680
 8020W        W76249  23.715   4.733  10.638
 8021W        W76250   8.054  13.689   4.197
 8022W        W76251  32.089   6.920   4.756
 8023W        W76252  44.322  16.307   1.182
 8024W        W76253  20.679  44.925  10.568
 8025W        W76254   1.637  22.246   1.394
 8026W        W76255  12.240   2.944   2.407
 8027W        W76256   6.247  23.536  12.173
 8028W        W76257  44.348  13.752  12.995
 8029W        W76258  34.660   4.348   3.710
 8030W        W76259  15.313   2.874   0.002
 8031W        W76260  21.715   8.112   0.948
 8032W        W76261   7.459  26.196   4.086
 8033W        W76262  19.248  25.578   1.339
 8034W        W76263  30.864  18.244  13.287
 8035W        W76264  20.524   1.758   0.262
 8036W        W76265  37.819  13.806  13.594
 8037W        W76266  12.765   3.796  11.053
 8038W        W76267  21.721   8.647   4.003
 8039W        W76268  44.639  32.701   5.061
 8040W        W76269  18.564  21.224   2.461
 8041W        W76270   1.061  19.241  10.751
 8042W        W76271  20.631  12.901  11.127
 8043W        W76272  27.159  11.350   0.942
 8044W        W76273  20.526  19.852   5.047
 8045W        W76274   7.454  30.670  11.174
 8046W        W76275  25.623  32.016   3.716
 8047W        W76276  18.778  23.851  12.540
 8048W        W76277  32.386  39.430  14.410
 8049W        W76278   1.289  37.429   0.318
 8050W        W76279  43.896  21.178  10.253
 8051W        W76280   8.002   8.177   0.790
 8052W        W76281   2.154   8.172  13.930
 8053W        W76282   5.233  44.423  14.797
 8054W        W76283   5.131  41.058  11.533
 8055W        W76284  26.082  38.538   1.244
 8056W        W76285  13.623  36.422   2.501
 8057W        W76286  15.307  15.581   3.353
 8058W        W76287   3.513  13.038   4.380
 8059W        W76288  14.125   2.522  14.405
 8060W        W76289  32.146  43.276  10.657
 8061W        W76290  36.159   0.401  14.701
 8062W        W76291   5.183  31.978  14.823
 8063W        W76292  43.321  14.136  14.477
 8064W        W76293  39.397  21.669  12.042
 8065W        W76294   0.892  12.764   2.489
 8066W        W76295  15.372  34.251  11.963
 8067W        W76296   0.855   6.966  12.449
 8068W        W76297  34.788   8.301  12.423
 8069W        W76298   7.759  14.767  10.675
 8070W        W76299  21.836  23.446   1.916
 8071W        W76300  23.740  40.769   0.454
 8072W        W76301  18.047  22.653   4.142
 8073W        W76302  34.651  34.822   2.383
 8074W        W76303   4.692  29.698   2.795
 8075W        W76304  44.292  33.381  12.973
 8076W        W76305  11.942  27.001  10.701
 8077W        W76306  44.949  43.942   2.359
 8078W        W76307  37.863  27.249   0.359
 8079W        W76308  25.264  42.560  11.589
 8080W        W76309  33.830  13.418   0.257
 8081W        W76310  23.409  31.878  11.502
 8082W        W76311  34.120  41.800   3.650
 8083W        W76312  34.027   5.275  13.766
 8084W        W76313  19.660  17.204   2.583
 8085W        W76314  40.404  23.354   4.558
 8086W        W76315  28.271  34.562  10.694
 8087W        W76316   8.811   5.684   4.053
 8088W        W76317  39.031  25.975  12.609
 8089W        W76318  29.536  20.023  10.918
 8090W        W76319  13.131  12.702  13.320
 8091W        W76320   9.787   7.974  13.696
 8092W        W76321  33.995  16.113   4.467
 8093W        W76322  35.423  16.301  11.583
 8094W        W76323  14.260  23.005   4.580
 8095W        W76324  16.745   8.285   0.536
 8096W        W76325  38.655  15.773   1.100
 8097W        W76326  20.236  18.837   4.369
 8098W        W76327  30.582  24.523  13.014
 8099W        W76328   7.941  19.306  12.050
 8100W        W76329  13.554   1.748   1.414
 8101W        W76330   1.706   7.802   4.652
 8102W        W76331  40.338  35.645   1.756
 8103W        W76332  34.675  13.725   0.294
 8104W        W76333  12.869   3.222  11.162
 8105W        W76334   6.692  20.047   3.302
 8106W        W76335  25.639  31.476   1.332
 8107W        W76336  44.873  36.986  14.506
 8108W        W76337  33.638  34.094   3.208
 8109W        W76338  32.670   7.949   1.353
 8110W        W76339  26.009  16.196  14.262
 8111W        W76340  16.238  14.860  13.459
 8112W        W76341  27.601   0.654  11.574
 8113W        W76342  30.131  32.214  13.449
 8114W        W76343   3.318  15.922   0.423
 8115W        W76344  41.171  39.719   0.939
 8116W        W76345  25.061  37.912  10.260
 8117W        W76346  37.274   1.313   1.684
 8118W        W76347  10.760   4.673   3.222
 8119W        W76348   7.370  12.098  13.073
 8120W        W76349  30.878  44.545  10.116
 8121W        W76350  27.700  32.899   1.855
 8122W        W76351   0.467   9.826   3.919
 8123W        W76352  28.541  41.643  12.923
 8124W        W76353  43.495  10.394  13.455
 8125W        W76354  17.337  11.550   3.761
 8126W        W76355  25.916   0.922   0.308
 8127W        W76356  44.397  40.538  11.567
 8128W        W76357  23.619  27.144  14.349
 8129W        W76358  33.604   3.399   1.361
 8130W        W76359  43.544  31.196  11.589
 8131W        W76360  17.458   1.057   0.960
 8132W        W76361   3.764  42.728   1.830
 8133W        W76362  35.613  32.422   0.924
 8134W        W76363  40.131  42.036  14.213
 8135W        W76364   9.834  12.913  11.570
 8136W        W76365  31.538  34.868  10.742
 8137W        W76366  15.737  27.860   4.110
 8138W        W76367  44.071  15.321   5.051
 8139W        W76368  18.337  40.309   2.163
 8140W        W76369  41.669  13.043  13.182
 8141W        W76370  44.043  41.553  13.625
 8142W        W76371  13.391  18.729   2.701
 8143W        W76372  38.272  35.105  13.445
 8144W        W76373   2.179  11.125  10.906
 8145W        W76374  12.817  44.707  11.108
 8146W        W76375  23.467  34.921  13.359
 8147W        W76376   3.217  23.867   4.620
 8148W        W76377   1.095   1.129   4.199
 8149W        W76378   3.486  17.965   1.964
 8150W        W76379  30.675  12.678  12.567
 8151W        W76380  30.612  37.319  14.049
 8152W        W76381  15.044   0.947   2.996
 8153W        W76382  42.339   1.915   4.234
 8154W        W76383   1.018  41.448  11.168
 8155W        W76384   3.308   4.932  11.893
 8156W        W76385  41.558  35.502  11.538
 8157W        W76386  23.421  27.751   0.902
 8158W        W76387  11.114  44.305  13.788
 8159W        W76388  36.433  41.246  14.732
 8160W        W76389   5.795   4.868  11.467
 8161W        W76390  30.034  42.749  12.499
 8162W        W76391  26.414   5.302  11.313
 8163W        W76392  11.183   8.067  11.937
 8164W        W76393  28.698  19.280  10.654
 8165W        W76394   6.093  39.457   1.726
 8166W        W76395  16.557  22.455  12.014
 8167W        W76396  18.120  14.164  12.415
 8168W        W76397  11.353  43.538  12.441
 8169W        W76398  22.148  11.703   2.366
 8170W        W76399  44.049  27.993   2.177
 8171W        W76400  35.133   0.199  14.824
 8172W        W76401   1.739  11.874   4.342
 8173W        W76402  19.154  38.513   4.575
 8174W        W76403  33.539  12.285  10.329
 8175W        W76404  33.382  30.983   0.016
 8176W        W76405  11.774   9.615  12.610
 8177W        W76406  12.208  41.775   0.774
 8178W        W76407  10.931  30.977   1.256
 8179W        W76408  34.219  33.395  13.171
 8180W        W76409  15.264  11.119  14.502
 8181W        W76410  13.796  41.278   1.007
 8182W        W76411   8.569  28.732  11.104
 8183W        W76412  39.573  22.065   1.263
 8184W        W76413  25.583   2.220   4.710
 8185W        W76414  29.679  35.523   1.896
 8186W        W76415  25.925  13.455   2.386
 8187W        W76416  10.680  41.037   1.802
 8188W        W76417  19.584  21.235   4.890
 8189W        W76418  23.522  15.048   9.698
 8190W        W76419   5.402  21.249  11.976
 8191W        W76420   1.235  17.124   4.618
 8192W        W76421   2.365   5.275   4.634
 8193W        W76422   3.034  13.629   3.061
 8194W        W76423  28.884  23.166  14.751
 8195W        W76424  10.290  24.092   4.483
 8196W        W76425  22.280  37.813  14.491
 8197W        W76426   1.801  27.437   3.763
 8198W        W76427  18.053  30.195  14.410
 8199W        W76428  23.675  31.519  11.229
 8200W        W76429  15.303  20.676  13.550
 8201W        W76430  26.852  10.130  11.154
 8202W        W76431  22.635  39.287   4.430
 8203W        W76432   9.929  44.384   1.738
 8204W        W76433  27.662  41.576  12.491
 8205W        W76434  13.910  39.022   1.811
 8206W        W76435   0.184   9.714   1.199
 8207W        W76436  19.200   3.794   2.571
 8208W        W76437  32.216  31.866   4.614
 8209W        W76438  36.645  23.978   1.317
 8210W        W76439  25.544   5.779  13.819
 8211W        W76440  15.349   0.084  12.010
 8212W        W76441  43.531  19.541   1.307
 8213W        W76442  31.295   7.713   4.463
 8214W        W76443  38.348  12.514   2.685
 8215W        W76444  19.653   2.790  11.537
 8216W        W76445  44.132  43.986  12.493
 8217W        W76446  25.955  30.532  14.661
 8218W        W76447  14.403  40.937   1.583
 8219W        W76448  13.717  14.437  12.455
 8220W        W76449  37.704  41.500   1.869
 8221W        W76450  44.859  39.329  10.771
 8222W        W76451  42.813  29.727  11.968
 8223W        W76452  10.967  11.767  14.782
 8224W        W76453   7.888  36.009   3.172
 8225W        W76454  30.361  21.236  14.825
 8226W        W76455  10.227  15.675  14.824
 8227W        W76456  26.470   8.129  13.012
 8228W        W76457  39.463  10.749   2.385
 8229W        W76458   8.615  21.253  12.051
 8230W        W76459  18.695  21.502   2.919
 8231W        W76460  13.142   7.378   0.395
 8232W        W76461   1.798  22.483   3.259
 8233W        W76462  12.727   5.645   0.177
 8234W        W76463  41.233  40.352  11.156
 8235W        W76464  33.340  27.413   2.735
 8236W        W76465  39.475  16.791   4.021
 8237W        W76466   5.915  43.717   0.724
 8238W        W76467  16.295  24.229   4.157
 8239W        W76468   4.521  28.815  11.256
 8240W        W76469   5.965   4.577  13.909
 8241W        W76470   6.304  33.343  14.488
 8242W        W76471  17.303  37.971  11.124
 8243W        W76472  36.171  43.466   3.595
 8244W        W76473  37.198   9.336  12.741
 8245W        W76474   4.345  37.122  11.507
 8246W        W76475  36.364  12.782  13.984
 8247W        W76476  20.274   6.604  13.758
 8248W        W76477   1.850  42.396   4.530
 8249W        W76478   5.227   3.696  11.378
 8250W        W76479  32.624  35.835  12.560
 8251W        W76480  42.330  38.311  12.127
 8252W        W76481  21.993  25.652   0.858
 8253W        W76482  27.781   3.773  13.964
 8254W        W76483   5.876  28.444  14.365
 8255W        W76484  28.008  18.868   3.283
 8256W        W76485  31.976  25.672  12.525
 8257W        W76486  10.961  43.587   4.133
 8258W        W76487  11.274  28.255   1.797
 8259W        W76488  26.684  19.811  12.918
 8260W        W76489  39.351  38.016   0.029
 8261W        W76490   1.147   6.643  13.328
 8262W        W76491   4.504  25.403   1.692
 8263W        W76492   9.799   7.374   4.866
 8264W        W76493  17.785  39.518   1.201
 8265W        W76494  44.329  22.319   2.766
 8266W        W76495   8.292  41.032   4.657
 8267W        W76496  12.553  12.674   0.831
 8268W        W76497  18.339   1.464   0.782
 8269W        W76498  21.771  20.265  12.431
 8270W        W76499  37.606   7.967  11.508
 8271W        W76500   2.547  25.529  11.932
 8272W        W76501  38.011  25.995  12.495
 8273W        W76502  43.264  37.142   0.507
 8274W        W76503  26.978  29.486  13.402
 8275W        W76504  18.783  30.113   4.828
 8276W        W76505  14.590  30.363  13.355
 8277W        W76506   3.552   2.833  14.724
 8278W        W76507  31.504   4.177   3.576
 8279W        W76508  17.795   0.354   2.017
 8280W        W76509   1.143  21.623  11.099
 8281W        W76510  21.021   6.286   3.295
 8282W        W76511  38.124  24.490   2.862
 8283W        W76512  15.844  42.531   2.053
 8284W        W76513  24.328   1.525   1.174
 8285W        W76514  23.936  35.494  11.618
 8286W        W76515  36.517  40.721  14.821
 8287W        W76516  27.670  15.672  10.625
 8288W        W76517   5.331  42.447   3.267
 8289W        W76518  35.563  15.014  12.564
 8290W        W76519  39.483  13.816  11.901
 8291W        W76520  39.339  42.069  12.412
 8292W        W76521  36.758  14.800  13.473
 8293W        W76522   6.183  33.657  12.950
 8294W        W76523  37.020  44.335  11.226
 8295W        W76524  17.105  35.958   2.367
 8296W        W76525  38.710  30.142  11.631
 8297W        W76526   0.800  29.771   3.105
 8298W        W76527   0.315   6.949   1.034
 8299W        W76528  39.950  27.220  12.388
 8300W        W76529  12.043   1.295  11.818
 8301W        W76530   0.494   2.432  14.925
 8302W        W76531  12.869  13.587   1.272
 8303W        W76532  22.756  32.101  12.906
 8304W        W76533  22.045  32.052  12.489
 8305W        W76534  36.059  23.677   4.301
 8306W        W76535  44.615  43.796  12.589
 8307W        W76536  15.185  29.754   1.901
 8308W        W76537  34.337  28.283  14.333
 8309W        W76538   5.721  32.865  11.643
 8310W        W76539  41.097   7.992   1.458
 8311W        W76540  40.721   2.789   2.581
 8312W        W76541  17.038  30.511   3.268
 8313W        W76542   3.844  16.123  11.694
 8314W        W76543  30.593  28.966   3.829
 8315W        W76544  16.533  27.566  12.425
 8316W        W76545  24.594   5.117   4.109
 8317W        W76546   1.415  34.336  14.416
 8318W        W76547  18.810  35.557   3.711
 8319W        W76548   5.323  27.716  11.620
 8320W        W76549   5.415  14.889  12.334
 8321W        W76550  12.779  25.671  11.576
 8322W        W76551  35.511  21.215   0.313
 8323W        W76552  39.050  26.140  11.238
 8324W        W76553  12.427  12.417  10.773
 8325W        W76554   0.467  34.048  14.441
 8326W        W76555   2.401   7.222   3.244
 8327W        W76556  17.148  42.378  12.510
 8328W        W76557  22.692  37.998   3.587
 8329W        W76558  27.549  12.685   0.355
 8330W        W76559  19.933  37.227  13.538
 8331W        W76560   5.920  29.372   0.374
 8332W        W76561  31.959  29.888   2.265
 8333W        W76562  35.665   6.459  14.113
 8334W        W76563  18.905  36.395  14.012
 8335W        W76564   8.218   1.372  13.109
 8336W        W76565   6.600  37.331  11.093
 8337W        W76566  33.492  21.575  10.616
 8338W        W76567  22.498  21.005   2.037
 8339W        W76568  15.292  23.062   1.211
 8340W        W76569  12.894  34.975   0.495
 8341W        W76570   9.116   3.262  12.665
 8342W        W76571  15.643   4.225  11.159
 8343W        W76572  33.572   8.765  12.091
 8344W        W76573  42.514  28.680  12.789
 8345W        W76574   7.368  29.110   1.216
 8346W        W76575  37.922  31.863  13.879
 8347W        W76576  27.428  33.826  11.199
 8348W        W76577  27.031  22.902   2.864
 8349W        W76578  32.483  38.943  12.497
 8350W        W76579  41.499  37.131  12.585
 8351W        W76580  28.406  33.073  11.665
 8352W        W76581  44.010  33.394   1.732
 8353W        W76582  20.681  44.010  13.037
 8354W        W76583  42.495  31.594   1.779
 8355W        W76584  39.816   2.882  13.361
 8356W        W76585  38.949  31.184   3.125
 8357W        W76586  40.816  40.270  12.412
 8358W        W76587  20.595  12.735   1.622
 8359W        W76588  12.166  28.491   4.131
 8360W        W76589  13.416   7.160   0.773
 8361W        W76590  44.764  21.415  10.103
 8362W        W76591  38.859  37.056  10.934
 8363W        W76592  16.725  22.450   1.340
 8364W        W76593  35.588  18.119  12.104
 8365W        W76594   6.893  18.190   2.410
 8366W        W76595   9.925  37.607  12.396
 8367W        W76596  10.238   9.913   3.603
 8368W        W76597  18.683  22.459  14.486
 8369W        W76598   7.336  27.363  10.712
 8370W        W76599   1.562   0.019  13.018
 8371W        W76600  13.202   1.736   4.192
 8372W        W76601   5.591  23.322  11.468
 8373W        W76602  16.638   9.729  13.857
 8374W        W76603  42.267  44.212   3.674
 8375W        W76604   9.511   0.908  13.570
 8376W        W76605  31.041  23.807   0.320
 8377W        W76606  41.748  10.656   1.497
 8378W        W76607  26.032  25.413  13.908
 8379W        W76608   1.547  29.967   2.364
 8380W        W76609  14.511  36.112   4.261
 8381W        W76610  38.902   6.447   2.155
 8382W        W76611  19.496   3.386   2.504
 8383W        W76612   7.203  35.379  12.480
 8384W        W76613   1.235   9.844  14.306
 8385W        W76614  10.582  37.340  12.998
 8386W        W76615  35.301  43.936  12.929
 8387W        W76616  11.692  16.120   3.870
 8388W        W76617  16.300  36.993  11.138
 8389W        W76618  36.115  33.351  10.399
 8390W        W76619  33.150  35.390   4.253
 8391W        W76620  13.236  13.062   1.972
 8392W        W76621  10.371  18.726   0.850
 8393W        W76622   6.719  33.665  14.584
 8394W        W76623  44.834  25.230  11.500
 8395W        W76624  30.913   8.270  10.790
 8396W        W76625  21.569  21.320   1.732
 8397W        W76626  43.395   7.987  10.764
 8398W        W76627  10.639   3.639   1.771
 8399W        W76628  16.673  38.089   3.654
 8400W        W76629  32.215  14.685  14.877
 8401W        W76630  26.712  11.378  13.795
 8402W        W76631   5.709  35.506  13.999
 8403W        W76632  20.844  13.323  12.999
 8404W        W76633  17.106  34.622  12.957
 8405W        W76634  39.940  11.081   4.062
 8406W        W76635  38.223  12.589   4.598
 8407W        W76636  29.170   4.813  12.119
 8408W        W76637  44.309  18.370   2.624
 8409W        W76638  35.153  35.774   9.906
 8410W        W76639  10.602  16.532   0.016
 8411W        W76640  24.710  39.721   4.546
 8412W        W76641  12.275  26.033  11.610
 8413W        W76642  39.821  30.749  12.442
 8414W        W76643  33.042  11.653   0.306
 8415W        W76644   6.358   8.340   4.659
 8416W        W76645  28.520   6.680   3.496
 8417W        W76646   4.403   9.391  12.159
 8418W        W76647   7.660  28.033  11.623
 8419W        W76648  42.814  32.642   4.703
 8420W        W76649   9.169  38.317  12.651
 8421W        W76650  24.105  22.369   1.573
 8422W        W76651  25.563  29.619   2.792
 8423W        W76652  12.136   3.405   5.005
 8424W        W76653   1.477  13.961  14.482
 8425W        W76654  30.118   3.397  11.466
 8426W        W76655  31.890  30.664  14.609
 8427W        W76656  40.573  27.050   1.292
 8428W        W76657   5.889  12.038   2.366
 8429W        W76658  18.868  39.995   1.905
 8430W        W76659  27.850  29.095   4.608
 8431W        W76660   0.356  32.500   3.216
 8432W        W76661  14.826  39.942  10.972
 8433W        W76662  19.766  23.190   3.913
 8434W        W76663  40.270  20.547   1.053
 8435W        W76664  43.934   0.197   0.247
 8436W        W76665  17.317  17.333  14.047
 8437W        W76666  17.748  20.215  11.622
 8438W        W76667  41.058  14.606  13.008
 8439W        W76668  23.498  43.946  14.153
 8440W        W76669   4.365   5.391  13.929
 8441W        W76670   0.672  21.531   0.832
 8442W        W76671  11.806   6.619  14.904
 8443W        W76672  41.389  26.879   4.568
 8444W        W76673  19.934  23.135   1.320
 8445W        W76674  11.893  26.129  12.991
 8446W        W76675  21.312  11.819   3.251
 8447W        W76676  30.857  35.146   3.249
 8448W        W76677  31.381  28.177  14.170
 8449W        W76678   5.651   2.286  14.009
 8450W        W76679  41.485  24.685  11.370
 8451W        W76680  42.061   2.396   0.917
 8452W        W76681  35.913  36.715   4.740
 8453W        W76682  25.919  31.669  11.755
 8454W        W76683  11.888  11.264   1.264
 8455W        W76684  20.306   0.209  10.284
 8456W        W76685  14.023  39.886  10.651
 8457W        W76686  12.841   5.175  12.118
 8458W        W76687  31.953   7.087   0.145
 8459W        W76688  28.566  21.620  13.720
 8460W        W76689  27.782  31.994  11.120
 8461W        W76690  31.097  36.869  13.398
 8462W        W76691  20.024  43.826  12.029
 8463W        W76692   7.789   4.850  12.452
 8464W        W76693  23.187  36.231   2.359
 8465W        W76694   5.719  28.405   0.883
 8466W        W76695  41.841  32.079   0.867
 8467W        W76696   0.255  12.211  11.757
 8468W        W76697  31.167   9.666  13.671
 8469W        W76698  20.424  24.095  12.107
 8470W        W76699  15.511  27.023   5.495
 8471W        W76700  38.919   7.905  13.766
 8472W        W76701  24.983  38.639  12.581
 8473W        W76702  42.011   0.747   3.129
 8474W        W76703  34.894  30.502   1.562
 8475W        W76704  38.591  27.620   4.971
 8476W        W76705  39.534  17.836  11.532
 8477W        W76706  31.397   1.235   2.181
 8478W        W76707  13.728   2.493   2.197
 8479W        W76708  41.329  10.653   4.123
 8480W        W76709  19.246  16.929  12.135
 8481W        W76710  27.104  43.061  10.619
 8482W        W76711  36.533   4.201  12.995
 8483W        W76712  40.330   2.153   1.620
 8484W        W76713  16.583  36.086  12.088
 8485W        W76714  29.517  18.235  14.875
 8486W        W76715  17.541  29.561   4.032
 8487W        W76716  35.807  36.471   2.778
 8488W        W76717  30.123   4.624  12.021
 8489W        W76718  40.089  27.621  13.115
 8490W        W76719   0.703  35.027   0.560
 8491W        W76720  12.420   8.525  11.492
 8492W        W76721  11.929   9.148   0.792
 8493W        W76722  22.243  36.523  13.943
 8494W        W76723  43.489  22.542  14.528
 8495W        W76724  32.624  17.709  14.910
 8496W        W76725  28.715  44.898   2.751
 8497W        W76726  24.882   1.695  10.346
 8498W        W76727   4.734   3.213  14.811
 8499W        W76728   7.689   1.423   4.405
 8500W        W76729   1.040  10.314  11.671
 8501W        W76730  33.042  36.845  11.129
 8502W        W76731  29.646  26.114  10.896
 8503W        W76732  32.509  21.624  13.753
 8504W        W76733  22.767  30.755   0.460
 8505W        W76734  21.457   7.326   4.526
 8506W        W76735   4.496  20.801  13.273
 8507W        W76736  27.608  33.775  11.687
 8508W        W76737   8.837  40.434   3.307
 8509W        W76738  24.505  23.649   0.594
 8510W        W76739   1.329  30.397  11.635
 8511W        W76740  32.661  26.456   2.088
 8512W        W76741   0.404  39.581   4.024
 8513W        W76742  24.031  38.634  14.443
 8514W        W76743  22.678  39.004  10.706
 8515W        W76744  16.846  21.099  13.470
 8516W        W76745  29.648  31.696  11.725
 8517W        W76746  27.149  27.476  14.834
 8518W        W76747  19.509   6.626  11.568
 8519W        W76748  25.515  16.138   2.716
 8520W        W76749  40.158  38.273  12.818
 8521W        W76750  18.046   3.198   2.052
 8522W        W76751  42.676   4.796   2.765
 8523W        W76752   1.192  14.308   1.826
 8524W        W76753  18.846  25.224  13.931
 8525W        W76754   9.358  14.465   0.534
 8526W        W76755  17.223   2.283   3.708
 8527W        W76756  21.557  40.341  11.558
 8528W        W76757  28.893  26.459   3.578
 8529W        W76758   8.768  29.864   0.871
 8530W        W76759  26.593  23.337  11.405
 8531W        W76760   4.586  35.246  11.631
 8532W        W76761   6.107  43.892   4.267
 8533W        W76762   1.822   5.940   4.238
 8534W        W76763  14.695  17.762   3.254
 8535W        W76764  43.913  31.993   4.097
 8536W        W76765  43.643  16.233  13.062
 8537W        W76766   3.974  29.155   3.876
 8538W        W76767  20.042  43.804   0.089
 8539W        W76768  11.909  40.836   1.448
 8540W        W76769  43.158  21.709  13.851
 8541W        W76770  19.152  44.317   4.488
 8542W        W76771  26.629   6.675   1.292
 8543W        W76772  41.948   1.366  11.984
 8544W        W76773   1.953   8.977   3.183
 8545W        W76774   4.331  44.527   1.933
 8546W        W76775  28.644  21.315   2.865
 8547W        W76776   0.405   0.466   1.880
 8548W        W76777   0.266  19.859   2.273
 8549W        W76778  25.075   4.415   1.336
 8550W        W76779  10.402  15.046  13.014
 8551W        W76780  11.198  38.111   2.920
 8552W        W76781  19.167  28.633  12.256
 8553W        W76782  28.251  15.740  14.338
 8554W        W76783  36.612   0.409   5.280
 8555W        W76784   0.370  43.907   1.227
 8556W        W76785  40.946   2.201  12.453
 8557W        W76786   1.854  29.184  13.190
 8558W        W76787   3.950  26.713  12.376
 8559W        W76788  43.767  39.537  12.831
 8560W        W76789  23.703   9.762  11.521
 8561W        W76790   1.085  13.551   4.131
 8562W        W76791  14.822  22.028  11.595
 8563W        W76792  41.819  25.061  13.745
 8564W        W76793  13.315  44.716  12.396
 8565W        W76794  33.336  12.090   0.451
 8566W        W76795  25.544  33.479   3.294
 8567W        W76796  12.249  40.872   0.463
 8568W        W76797  23.823  28.351  13.036
 8569W        W76798   8.188  36.929  14.235
 8570W        W76799   7.740  35.569  11.697
 8571W        W76800  10.986  17.548  14.761
 8572W        W76801  11.218  13.034   3.778
 8573W        W76802   0.033  40.363   1.430
 8574W        W76803  29.480   9.873  10.894
 8575W        W76804   9.638   3.218  14.735
 8576W        W76805  35.500  27.019  11.150
 8577W        W76806  37.475  37.391   0.523
 8578W        W76807  14.792  38.551   3.266
 8579W        W76808   4.835  24.257   3.715
 8580W        W76809  33.947  36.042  14.505
 8581W        W76810   3.180  43.370  14.061
 8582W        W76811  28.471  35.372  14.997
 8583W        W76812   1.054   0.253  10.079
 8584W        W76813  24.169  43.253  11.702
 8585W        W76814  32.860  38.845  14.884
 8586W        W76815  10.473   5.184   2.201
 8587W        W76816   3.267  14.015   3.283
 8588W        W76817  12.106  32.395  11.902
 8589W        W76818  13.064  13.874  13.831
 8590W        W76819  25.295   4.927  11.639
 8591W        W76820  41.339  39.762   3.150
 8592W        W76821  21.702   1.427  11.524
 8593W        W76822  38.531  25.163  13.365
 8594W        W76823  23.721   3.466  14.282
 8595W        W76824   4.086  38.759   2.604
 8596W        W76825  34.528   0.453   3.694
 8597W        W76826  20.134  21.741   1.302
 8598W        W76827  17.218  32.014   1.703
 8599W        W76828  14.400  14.586   1.331
 8600W        W76829  37.471  29.997   0.393
 8601W        W76830  10.605  34.603  12.533
 8602W        W76831  38.153  35.653   2.415
 8603W        W76832  35.601  42.339   1.526
 8604W        W76833  37.249  29.399   4.943
 8605W        W76834  19.242   9.658   1.267
 8606W        W76835   1.487  27.708   1.227
 8607W        W76836  19.319  13.611   2.835
 8608W        W76837  14.639  42.897   2.148
 8609W        W76838  16.174   2.941   1.272
 8610W        W76839  16.667   3.877  12.009
 8611W        W76840  10.471  44.839  13.334
 8612W        W76841  40.102  15.565   3.719
 8613W        W76842  37.096   2.848   0.441
 8614W        W76843   7.427  32.048   2.383
 8615W        W76844  18.939  41.442   4.289
 8616W        W76845  10.945  32.543   3.100
 8617W        W76846  20.463   4.433   3.169
 8618W        W76847   4.976   7.780   3.651
 8619W        W76848  15.005  32.505   4.738
 8620W        W76849   2.629  34.967  11.509
 8621W        W76850  15.082  37.501  11.104
 8622W        W76851  42.726  23.512  14.901
 8623W        W76852  15.209  17.312   2.601
 8624W        W76853  43.190  24.595  11.470
 8625W        W76854   7.978  30.394   9.656
 8626W        W76855  29.488   8.771  12.443
 8627W        W76856  18.512  10.353  14.395
 8628W        W76857  35.033  14.714   2.284
 8629W        W76858  42.655  25.118  12.480
 8630W        W76859  32.060   0.430  13.839
 8631W        W76860  24.113  42.692   4.989
 8632W        W76861  35.144  20.141  14.193
 8633W        W76862  32.839   3.815  12.934
 8634W        W76863  28.358  26.262  13.295
 8635W        W76864   8.364  27.832   0.902
 8636W        W76865  42.775   3.664   4.509
 8637W        W76866  36.148  11.409  14.453
 8638W        W76867  13.034  33.745  14.366
 8639W        W76868  26.406   6.135   3.699
 8640W        W76869  22.475   1.761   3.195
 8641W        W76870  32.664  28.655   2.144
 8642W        W76871  25.424  40.978   2.275
 8643W        W76872  40.308  18.952  13.464
 8644W        W76873  38.310  35.477  14.900
 8645W        W76874  25.024  30.633  13.387
 8646W        W76875  17.767   7.863   0.018
 8647W        W76876  32.365  10.806  10.429
 8648W        W76877  11.744  43.281   0.234
 8649W        W76878  25.752   2.007   1.435
 8650W        W76879  15.765  37.467  12.837
 8651W        W76880   3.229   5.911   1.431
 8652W        W76881  44.992  38.925  11.581
 8653W        W76882  25.109  30.734   3.167
 8654W        W76883  38.203   5.993  14.151
 8655W        W76884  26.250  31.466  14.959
 8656W        W76885  34.350  43.014  14.040
 8657W        W76886  35.434  43.604   3.782
 8658W        W76887   1.507  18.346  14.573
 8659W        W76888   5.795   1.414   1.365
 8660W        W76889  10.742  20.961  13.003
 8661W        W76890  18.816  38.885   0.913
 8662W        W76891  40.126   0.282  10.753
 8663W        W76892   1.202  30.903  13.379
 8664W        W76893  26.597  22.172   0.407
 8665W        W76894  44.294  20.532   1.391
 8666W        W76895  13.307  22.271  13.076
 8667W        W76896  44.261   8.659  10.117
 8668W        W76897   1.029  23.617   2.426
 8669W        W76898   6.331  29.828  10.982
 8670W        W76899  21.133  35.679   3.757
 8671W        W76900   3.118  44.977   2.345
 8672W        W76901  30.109  43.178   3.775
 8673W        W76902  40.655  28.678  10.535
 8674W        W76903   0.537  13.660  14.475
 8675W        W76904  31.822  11.347   4.616
 8676W        W76905  20.331  28.685   1.344
 8677W        W76906  18.870   0.380   4.116
 8678W        W76907  41.520   2.412  11.499
 8679W        W76908  22.617  10.261  13.869
 8680W        W76909  15.047   5.341   2.309
 8681W        W76910   4.803  20.588   4.700
 8682W        W76911  38.710  41.515   2.927
 8683W        W76912  39.933  30.931  11.962
 8684W        W76913  30.833  10.586   4.895
 8685W        W76914  14.031   7.911   0.239
 8686W        W76915  18.370  41.720  11.409
 8687W        W76916   2.792   6.760  14.924
 8688W        W76917  33.396  40.537   2.476
 8689W        W76918  18.771  36.476  12.801
 8690W        W76919  17.243  14.794   0.942
 8691W        W76920  25.287  17.543  11.629
 8692W        W76921   2.642  32.163  14.895
 8693W        W76922  35.996  40.100  12.046
 8694W        W76923  34.601  33.326   2.653
 8695W        W76924  42.788   4.083  11.638
 8696W        W76925  37.698  33.003  13.385
 8697W        W76926  37.526  34.459   2.255
 8698W        W76927  30.414  26.334   1.916
 8699W        W76928  12.168  25.163   4.583
 8700W        W76929   4.811  12.127  10.972
 8701W        W76930  30.976  39.239   4.519
 8702W        W76931  14.147  44.321  10.752
 8703W        W76932  10.039  11.084  11.438
 8704W        W76933  22.476  18.478  14.293
 8705W        W76934  18.275   0.477   2.675
 8706W        W76935  40.160  19.261  14.337
 8707W        W76936   8.644  39.078  10.599
 8708W        W76937  25.061  19.502  11.421
 8709W        W76938  20.568  37.581  13.002
 8710W        W76939  17.035  11.765   2.709
 8711W        W76940  20.073  27.156   2.596
 8712W        W76941  14.043   5.353   4.708
 8713W        W76942   8.277   1.505   0.446
 8714W        W76943  36.296  36.519   2.301
 8715W        W76944  13.258   6.396  11.669
 8716W        W76945  26.942   5.869  11.091
 8717W        W76946  36.843   9.640   2.866
 8718W        W76947  21.133  27.596   1.857
 8719W        W76948   7.195  19.985   2.371
 8720W        W76949  42.325  41.984  14.298
 8721W        W76950   3.164  36.007  11.167
 8722W        W76951  43.374   7.014  11.582
 8723W        W76952   5.975  28.038   4.316
 8724W        W76953  23.765  32.396   3.603
 8725W        W76954  21.598  22.790   4.220
 8726W        W76955   9.338  16.781   0.314
 8727W        W76956  26.389  20.986  11.904
 8728W        W76957   9.150   4.223   4.429
 8729W        W76958   0.486  16.436   0.363
 8730W        W76959  44.785  42.667  14.396
 8731W        W76960  35.977   4.471  12.621
 8732W        W76961  18.660  40.042  14.422
 8733W        W76962  31.131  21.678  14.957
 8734W        W76963  35.935  15.051  10.663
 8735W        W76964   5.447  32.781  13.806
 8736W        W76965   7.194  13.473  13.528
 8737W        W76966  34.623   5.863   3.726
 8738W        W76967  11.410  23.376   4.594
 8739W        W76968  44.198  37.870  14.786
 8740W        W76969  28.678  35.435  11.591
 8741W        W76970  34.086   7.419   2.746
 8742W        W76971  34.086   0.335   3.114
 8743W        W76972  40.226   0.830  14.763
 8744W        W76973  11.955  42.909  14.912
 8745W        W76974  35.514  40.478   5.001
 8746W        W76975  44.782  30.340   0.434
 8747W        W76976  19.641   4.017   0.697
 8748W        W76977  41.405  11.944  14.577
 8749W        W76978  30.393  44.699  14.383
 8750W        W76979   5.391   6.269   0.780
 8751W        W76980   3.658  26.937  11.156
 8752W        W76981  37.462  33.721   3.224
 8753W        W76982  23.137  22.156  12.686
 8754W        W76983   4.679  22.412   1.710
 8755W        W76984  30.374  42.481  10.704
 8756W        W76985  26.521  35.476  11.389
 8757W        W76986  25.126  42.839  12.639
 8758W        W76987  28.853  21.188  13.963
 8759W        W76988  29.648   4.257  14.917
 8760W        W76989  43.991   8.430  11.269
 8761W        W76990  14.872   0.987   3.718
 8762W        W76991   9.607   4.303  10.627
 8763W        W76992   4.364  20.098   4.097
 8764W        W76993  14.435  38.964   1.634
 8765W        W76994  13.300  10.560   1.494
 8766W        W76995  38.016  18.036  11.262
 8767W        W76996  44.397   1.569  13.191
 8768W        W76997  33.449  18.159   3.633
 8769W        W76998  32.361  37.467   0.825
 8770W        W76999  27.957   8.237   4.737
 8771W        W77000  44.694  43.246   4.071
 8772W        W77001  41.461  30.366  13.026
 8773W        W77002  12.780  44.893  13.315
 8774W        W77003  22.820   8.041  10.833
 8775W        W77004  12.879  16.338  13.088
 8776W        W77005  20.705   6.352   0.556
 8777W        W77006  29.005  10.896  12.632
 8778W        W77007  41.070  11.501   4.348
 8779W        W77008   0.729   3.982  13.651
 8780W        W77009  23.038  21.297   1.386
 8781W        W77010  36.034  41.541  13.595
 8782W        W77011  38.812  17.660   0.809
 8783W        W77012  31.433  20.033   0.349
 8784W        W77013   8.974  12.446  12.857
 8785W        W77014   8.562  25.525  14.491
 8786W        W77015   8.960  11.468   9.966
 8787W        W77016   3.407   0.201   0.032
 8788W        W77017  12.741   8.633   3.866
 8789W        W77018   8.185   8.834   4.694
 8790W        W77019  33.361   0.256   3.569
 8791W        W77020   5.343  41.317   2.776
 8792W        W77021   7.189  44.501   0.372
 8793W        W77022  34.824  25.438  14.885
 8794W        W77023  13.714  20.601   0.136
 8795W        W77024   4.895  37.628   0.018
 8796W        W77025  30.991   3.927  13.605
 8797W        W77026  36.993   3.064  13.382
 8798W        W77027  37.917   8.712  13.991
 8799W        W77028  18.167  10.444   1.808
 8800W        W77029   5.307  43.750  13.067
 8801W        W77030  14.867  15.431   3.100
 8802W        W77031  14.469  33.969   1.499
 8803W        W77032  23.133  42.013   3.115
 8804W        W77033  41.395  42.228   3.800
 8805W        W77034  17.867  19.835   3.266
 8806W        W77035  25.656  15.321  14.868
 8807W        W77036   4.443   7.055   1.714
 8808W        W77037  16.798  16.658   3.224
 8809W        W77038  20.090   1.865   3.180
 8810W        W77039  33.849   9.357  10.733
 8811W        W77040   9.782  34.419   1.966
 8812W        W77041   0.691  37.954  13.818
 8813W        W77042  20.201  42.381  14.541
 8814W        W77043  38.410   4.752   0.870
 8815W        W77044  34.633  31.357   2.142
 8816W        W77045  35.669   8.298  11.721
 8817W        W77046  38.135  32.790  11.081
 8818W        W77047  29.294  28.021  14.349
 8819W        W77048  20.671  42.249   1.087
 8820W        W77049  31.512  15.558  12.046
 8821W        W77050  23.150  28.580  11.163
 8822W        W77051  14.118   4.727   1.888
 8823W        W77052  23.001   0.873  11.009
 8824W        W77053  22.428  39.359   3.380
 8825W        W77054   0.372  40.856  13.497
 8826W        W77055  29.067  33.086  14.852
 8827W        W77056  18.864  36.322   2.345
 8828W        W77057  37.899  11.592   3.657
 8829W        W77058  24.628  38.413  11.424
 8830W        W77059  11.351  13.203  14.167
 8831W        W77060  38.682  24.182  11.534
 8832W        W77061  10.232   9.040   3.144
 8833W        W77062  44.131  26.543   2.674
 8834W        W77063  36.501  41.903  14.406
 8835W        W77064  24.981  21.071   1.631
 8836W        W77065  43.954   2.118  10.839
 8837W        W77066  20.593  31.170   1.701
 8838W        W77067  35.405  32.775   2.285
 8839W        W77068  24.591  10.327  12.320
 8840W        W77069  43.567  44.127  14.384
 8841W        W77070  11.078  25.236  12.525
 8842W        W77071  14.735  32.595   1.850
 8843W        W77072   8.849   0.504   2.201
 8844W        W77073   6.458  27.425  11.984
 8845W        W77074  11.587   7.612  11.632
 8846W        W77075  29.465  15.126   4.325
 8847W        W77076   2.762  18.836  11.964
 8848W        W77077  25.279  25.135  10.431
 8849W        W77078  25.790  25.018  11.951
 8850W        W77079  21.597  34.611   0.225
 8851W        W77080  31.846  29.384   2.277
 8852W        W77081  42.060   6.962  12.081
 8853W        W77082  27.005  12.936   4.176
 8854W        W77083  11.351  20.500  10.751
 8855W        W77084  21.392  27.118   3.235
 8856W        W77085  30.917  10.233   1.787
 8857W        W77086  20.420  44.819   1.764
 8858W        W77087  25.336  32.913   2.331
 8859W        W77088   4.417  23.206  10.638
 8860W        W77089  11.952  17.742  10.536
 8861W        W77090   8.468  29.125  11.671
 8862W        W77091  27.925  12.286   3.612
 8863W        W77092  41.064  36.403  14.564
 8864W        W77093  15.449  36.196   0.938
 8865W        W77094  24.374  17.041   3.648
 8866W        W77095  34.924   1.484   1.187
 8867W        W77096   6.392  37.128   3.779
 8868W        W77097  14.568   1.460  12.143
 8869W        W77098  37.002  15.043   1.055
 8870W        W77099   7.913   6.935   0.502
 8871W        W77100  14.158  40.525   1.800
 8872W        W77101   5.434   5.957   1.829
 8873W        W77102  15.056  23.270   3.772
 8874W        W77103  13.771  33.689  12.112
 8875W        W77104  35.072  28.652  11.591
 8876W        W77105  26.033  14.866  13.029
 8877W        W77106  24.459  12.098   0.827
 8878W        W77107   6.372  17.073  10.680
 8879W        W77108  19.036  38.873  11.584
 8880W        W77109  19.139   1.392  13.106
 8881W        W77110  39.302  44.546  11.552
 8882W        W77111  37.524  33.471   4.508
 8883W        W77112  26.685  34.023   3.523
 8884W        W77113  39.004  35.057  13.982
 8885W        W77114  41.412  10.943  14.382
 8886W        W77115  31.113  10.329  10.190
 8887W        W77116  37.177  18.717   2.223
 8888W        W77117  21.763  26.964   2.866
 8889W        W77118  41.428  23.362  14.889
 8890W        W77119  42.454  25.477  10.749
 8891W        W77120   4.516  10.761   1.872
 8892W        W77121   5.690   4.775  10.975
 8893W        W77122  40.498  35.909  14.873
 8894W        W77123  33.147  26.924  14.783
 8895W        W77124  12.721   2.206   3.100
 8896W        W77125  42.710   7.742  13.369
 8897W        W77126  32.582   6.638  14.910
 8898W        W77127  23.582   1.345  12.150
 8899W        W77128  28.087  41.392  13.001
 8900W        W77129  36.162   9.836  10.938
 8901W        W77130  22.059  21.945  12.059
 8902W        W77131  18.713   8.767   1.430
 8903W        W77132  13.595  18.241  13.828
 8904W        W77133  33.296   0.562   2.717
 8905W        W77134  31.508   5.468  13.979
 8906W        W77135  14.591  12.336  10.112
 8907W        W77136  12.445  38.624   2.232
 8908W        W77137   7.901  11.819   4.022
 8909W        W77138  25.177  29.008  12.001
 8910W        W77139  28.756  24.636  13.214
 8911W        W77140  44.466  34.184  11.543
 8912W        W77141  10.493  38.292  12.244
 8913W        W77142  40.425   6.176   4.250
 8914W        W77143  37.888   8.302  12.377
 8915W        W77144   0.139  14.316  14.294
 8916W        W77145  22.695  16.214   0.871
 8917W        W77146  14.695  22.971   3.986
 8918W        W77147  35.567   2.808   3.358
 8919W        W77148   3.026  12.070   2.337
 8920W        W77149  27.671  20.001  11.733
 8921W        W77150   3.774  11.728   1.749
 8922W        W77151  17.871  24.410   1.120
 8923W        W77152  11.086  23.222   3.825
 8924W        W77153  19.871  31.242   3.903
 8925W        W77154   7.781   6.881   3.919
 8926W        W77155  28.320  13.273   5.436
 8927W        W77156   8.879  28.577  10.708
 8928W        W77157   4.931  10.135   4.204
 8929W        W77158  12.247   8.725   0.992
 8930W        W77159  11.891  13.777  13.499
 8931W        W77160   7.816   2.512  13.471
 8932W        W77161  33.434  42.031  14.935
 8933W        W77162  37.070  25.213  11.964
 8934W        W77163  15.896  37.990  12.854
 8935W        W77164   8.025  28.708  11.064
 8936W        W77165  27.629  11.671   1.041
 8937W        W77166   2.665   5.263  10.599
 8938W        W77167  38.102   8.111  11.519
 8939W        W77168  41.807  28.179  12.003
 8940W        W77169  20.004   8.214   3.358
 8941W        W77170  18.545  39.031  12.688
 8942W        W77171  41.106  35.055  13.053
 8943W        W77172   1.662  44.006   0.756
 8944W        W77173  22.656  31.572  13.835
 8945W        W77174  16.322  15.679   3.187
 8946W        W77175  21.620  21.283  11.133
 8947W        W77176   0.308  37.833   1.909
 8948W        W77177  22.288   2.328  14.784
 8949W        W77178   8.832  37.152   0.943
 8950W        W77179  29.210  32.651  13.759
 8951W        W77180  10.537  19.682   1.995
 8952W        W77181  17.123  17.652   3.126
 8953W        W77182  37.460  25.094  14.648
 8954W        W77183   4.830   9.276  10.405
 8955W        W77184  22.031  43.774  11.153
 8956W        W77185   9.822  38.675  14.328
 8957W        W77186  34.213  30.459   4.212
 8958W        W77187  11.665  12.444   3.234
 8959W        W77188   9.478  27.904   1.778
 8960W        W77189   2.547  41.440   4.622
 8961W        W77190  21.925  12.878  11.921
 8962W        W77191  37.546  10.867   2.643
 8963W        W77192  36.188  16.222  11.160
 8964W        W77193  19.174  34.332   1.442
 8965W        W77194   8.374  26.473   3.000
 8966W        W77195  30.210  39.115   3.316
 8967W        W77196  31.924  19.799  11.924
 8968W        W77197  19.045  18.039   0.986
 8969W        W77198  41.813   9.605  14.720
 8970W        W77199  28.227  44.822  13.466
 8971W        W77200  33.509  33.968  11.728
 8972W        W77201  44.985  25.400   4.038
 8973W        W77202  44.162  11.427   0.904
 8974W        W77203  13.784  42.329  13.286
 8975W        W77204  15.105   9.641  11.098
 8976W        W77205  31.160  31.522  14.562
 8977W        W77206   5.678  43.086  14.597
 8978W        W77207  34.841  44.776  14.869
 8979W        W77208  28.419  36.847  14.993
 8980W        W77209  20.213  44.731  10.477
 8981W        W77210   8.385  44.481   1.053
 8982W        W77211  18.575  13.648   3.202
 8983W        W77212  27.580  18.852   1.044
 8984W        W77213  36.035  34.539   2.175
 8985W        W77214  43.341  32.108   2.716
 8986W        W77215   8.911   9.916  12.367
 8987W        W77216  12.703  29.012   1.878
 8988W        W77217   3.216  27.302   4.625
 8989W        W77218   2.229   0.539  11.601
 8990W        W77219  23.192  35.417  12.061
 8991W        W77220  19.124  42.978   1.802
 8992W        W77221  36.503  17.337   2.213
 8993W        W77222  16.452  11.104  12.791
 8994W        W77223  30.168   8.561   2.217
 8995W        W77224  14.388  20.345  13.515
 8996W        W77225  22.104   2.218  12.377
 8997W        W77226   3.518  33.380   2.307
 8998W        W77227   8.239  28.184   1.287
 8999W        W77228   6.164   2.013  10.835
 9000W        W77229  44.920  39.257   3.174
 9001W        W77230  35.064  21.527  14.882
 9002W        W77231   5.985  36.316   1.325
 9003W        W77232  36.956  42.616  14.926
 9004W        W77233  26.395  30.869   0.328
 9005W        W77234  31.022  26.107  11.729
 9006W        W77235   2.060  32.119   4.161
 9007W        W77236  18.090  44.433  10.619
 9008W        W77237  18.173  22.006   0.806
 9009W        W77238  24.472  25.259  14.336
 9010W        W77239  33.538   0.936  13.549
 9011W        W77240  37.601  44.150  14.549
 9012W        W77241  26.633  37.527   5.055
 9013W        W77242  34.717  13.186  13.388
 9014W        W77243  38.896  37.410  10.556
 9015W        W77244  32.447  19.337  10.584
 9016W        W77245  32.416  18.782   2.117
 9017W        W77246  17.025  39.095  13.852
 9018W        W77247  39.489  13.169  12.902
 9019W        W77248  23.270  43.516   4.000
 9020W        W77249  41.453  26.022   1.990
 9021W        W77250   2.006  31.878  13.421
 9022W        W77251   7.857   4.949   0.998
 9023W        W77252   4.519  39.999  13.879
 9024W        W77253   9.643  12.077   4.762
 9025W        W77254   7.856  17.299  12.534
 9026W        W77255   7.239  21.610   4.662
 9027W        W77256  42.591  37.031  14.954
 9028W        W77257  28.598  32.098  12.514
 9029W        W77258   7.201  14.155   4.663
 9030W        W77259  15.597  16.357   2.277
 9031W        W77260  37.548  36.574  12.884
 9032W        W77261  19.720  29.400  11.090
 9033W        W77262  36.831  36.351   3.743
 9034W        W77263   8.667  38.549   0.677
 9035W        W77264   7.928  11.821  12.403
 9036W        W77265  34.710   3.718  11.612
 9037W        W77266  16.309  29.979   3.586
 9038W        W77267  22.511  18.747  12.217
 9039W        W77268  11.004   3.627   0.671
 9040W        W77269  24.903  32.508  10.060
 9041W        W77270  28.670  10.654  13.935
 9042W        W77271  14.220  43.416   3.202
 9043W        W77272  38.954  35.976  13.849
 9044W        W77273  17.100  11.606   1.823
 9045W        W77274  22.451   0.175  13.807
 9046W        W77275  22.198   5.362  12.625
 9047W        W77276   3.244  43.065   3.984
 9048W        W77277  26.147   0.517  10.762
 9049W        W77278  39.442  30.627   0.973
 9050W        W77279   0.585  44.289   1.524
 9051W        W77280  13.185  17.570  12.055
 9052W        W77281  14.839  11.988   1.330
 9053W        W77282  22.949  13.251  12.355
 9054W        W77283  28.292  33.586   0.095
 9055W        W77284  36.671  25.115   3.587
 9056W        W77285   9.150  38.683  13.662
 9057W        W77286  10.379  10.504   1.631
 9058W        W77287  40.847   1.179  12.614
 9059W        W77288  41.072  10.290   1.040
 9060W        W77289   3.278  13.818  10.641
 9061W        W77290  42.576  39.095   0.860
 9062W        W77291  12.112  28.366   3.625
 9063W        W77292  40.302   5.149   2.406
 9064W        W77293   0.171  18.120  11.421
 9065W        W77294  36.413  27.567  14.516
 9066W        W77295  11.738  40.773   0.534
 9067W        W77296  40.901  20.442  11.249
 9068W        W77297  40.413  30.111   0.321
 9069W        W77298  25.724  11.307   3.663
 9070W        W77299  39.053  11.497  11.617
 9071W        W77300  41.265  13.224  12.912
 9072W        W77301  16.696  41.054   4.410
 9073W        W77302  29.611  31.372  11.343
 9074W        W77303  44.916  12.553   2.670
 9075W        W77304  38.968  10.586   4.954
 9076W        W77305  16.695  44.222  10.693
 9077W        W77306  33.357   6.391   0.423
 9078W        W77307  28.036  22.598  10.888
 9079W        W77308  26.015  26.172   0.919
 9080W        W77309  26.161   6.705   1.566
 9081W        W77310  20.556  24.265   0.330
 9082W        W77311   9.210  24.534  11.636
 9083W        W77312  32.550  32.331  12.515
 9084W        W77313  43.955  10.426  14.474
 9085W        W77314  17.669  34.451  11.273
 9086W        W77315  41.053  33.293  13.524
 9087W        W77316  40.388  37.509   4.688
 9088W        W77317   0.684  14.694   0.559
 9089W        W77318  36.786   8.721  14.477
 9090W        W77319  18.783  23.311  12.469
 9091W        W77320  29.188  19.565  10.928
 9092W        W77321  16.757  41.259  14.559
 9093W        W77322   4.405   0.912  12.880
 9094W        W77323   2.903  42.278   4.524
 9095W        W77324  44.576  11.347  13.364
 9096W        W77325   0.280  22.202   3.632
 9097W        W77326  28.177  14.339   3.121
 9098W        W77327  20.160  33.871   4.146
 9099W        W77328   7.368  29.128  12.598
 9100W        W77329   5.219   6.915   3.205
 9101W        W77330  17.154  39.029  10.997
 9102W        W77331  31.418  39.489  12.769
 9103W        W77332   9.362  17.085   4.177
 9104W        W77333  11.529  29.050  12.485
 9105W        W77334  38.525  32.961  10.766
 9106W        W77335  32.503   2.231  13.922
 9107W        W77336  34.646  44.621   3.550
 9108W        W77337  20.037  42.821  13.914
 9109W        W77338  16.530   3.706  14.772
 9110W        W77339   7.169  20.159  10.693
 9111W        W77340  10.361  14.634  14.945
 9112W        W77341   8.193  23.415   2.239
 9113W        W77342  32.176   4.709  11.551
 9114W        W77343  22.220  25.958   2.243
 9115W        W77344   7.899  13.168   2.823
 9116W        W77345  40.931   8.727   3.866
 9117W        W77346  28.519  17.652   3.308
 9118W        W77347  18.246  42.890  14.498
 9119W        W77348  10.937   3.424  12.909
 9120W        W77349  20.371  29.974  10.324
 9121W        W77350  38.378   1.789   1.294
 9122W        W77351  23.729  34.056  11.445
 9123W        W77352  31.015  24.800  13.393
 9124W        W77353  42.583  40.638   3.296
 9125W        W77354  31.191  19.012   2.720
 9126W        W77355  36.699  26.699   4.881
 9127W        W77356  21.223   7.438  14.020
 9128W        W77357  40.771  33.141  14.537
 9129W        W77358   7.225  15.344  10.956
 9130W        W77359  14.066  12.893  11.025
 9131W        W77360  24.927   7.385  13.486
 9132W        W77361  29.079  11.185   0.419
 9133W        W77362  17.829   3.921  13.025
 9134W        W77363  15.256  34.568   4.564
 9135W        W77364  19.625  36.120   4.066
 9136W        W77365  38.354  21.109   0.427
 9137W        W77366   5.883  30.581  12.045
 9138W        W77367   9.219  11.149  13.398
 9139W        W77368   3.141  26.500  12.835
 9140W        W77369  36.124   5.549  11.751
 9141W        W77370  26.136  43.743   1.335
 9142W        W77371  44.016  33.529  10.605
 9143W        W77372   5.783  20.495   4.190
 9144W        W77373  28.587  44.449   4.528
 9145W        W77374  23.579  38.289   4.160
 9146W        W77375  39.498  23.160  14.994
 9147W        W77376   6.191  33.689  11.453
 9148W        W77377  40.501  19.740  10.699
 9149W        W77378  31.561  22.597   0.142
 9150W        W77379  27.939  37.792   2.592
 9151W        W77380  39.515   7.307   1.692
 9152W        W77381  32.041  22.260   1.273
 9153W        W77382  15.855  19.250  14.890
 9154W        W77383  24.524  12.746   2.377
 9155W        W77384  26.102   2.735   3.123
 9156W        W77385  41.321  17.266   1.324
 9157W        W77386  23.624  10.161   2.267
 9158W        W77387  21.219  14.635   3.245
 9159W        W77388  28.603  22.772   1.189
 9160W        W77389  37.868  34.770  13.435
 9161W        W77390  16.222  39.044   1.905
 9162W        W77391  18.552  16.757  14.980
 9163W        W77392  22.489  31.047  13.920
 9164W        W77393   6.396   9.232  12.797
 9165W        W77394  20.574  41.888  13.551
 9166W        W77395  24.555   9.999   5.106
 9167W        W77396  39.889  24.795   1.337
 9168W        W77397  33.024  20.759  13.425
 9169W        W77398  12.315  19.505  12.098
 9170W        W77399  29.419   6.853   4.932
 9171W        W77400  41.515  15.899   0.323
 9172W        W77401  38.991  14.652  13.897
 9173W        W77402  18.291  14.355  13.819
 9174W        W77403  34.515   0.986  13.817
 9175W        W77404  36.346  17.572   0.816
 9176W        W77405  20.131  12.095   1.321
 9177W        W77406  18.773   5.629   1.411
 9178W        W77407   5.705   7.135  12.421
 9179W        W77408  27.611  44.169   1.065
 9180W        W77409  43.359   9.182   2.637
 9181W        W77410  10.211  35.924  12.642
 9182W        W77411  34.555  34.310   2.577
 9183W        W77412  30.243   6.747   2.201
 9184W        W77413  44.827  35.894  14.353
 9185W        W77414   4.573   9.887   3.287
 9186W        W77415  34.322   4.464   0.264
 9187W        W77416   8.583   3.776   2.492
 9188W        W77417  36.001  25.264   0.504
 9189W        W77418   6.832   2.398  11.352
 9190W        W77419   5.004  37.279  12.410
 9191W        W77420  15.955  11.181  12.637
 9192W        W77421  30.570  33.714  11.940
 9193W        W77422  43.025  27.523   1.161
 9194W        W77423  30.419  44.847  12.874
 9195W        W77424  19.496   2.370  11.764
 9196W        W77425   2.916  16.135  12.845
 9197W        W77426  18.376  42.850  13.532
 9198W        W77427  13.568  36.436   0.876
 9199W        W77428  20.591  39.766  13.529
 9200W        W77429   9.476  36.194   3.203
 9201W        W77430  15.673  12.308   0.934
 9202W        W77431  31.910  24.250   0.947
 9203W        W77432  36.024  12.632  11.449
 9204W        W77433  34.070  17.854  12.073
 9205W        W77434  15.045  36.569  12.149
 9206W        W77435   8.768  35.378  10.891
 9207W        W77436  43.094  22.252  13.485
 9208W        W77437  31.199  27.201  14.246
 9209W        W77438  16.432   1.713  11.453
 9210W        W77439  12.973  31.564   1.873
 9211W        W77440  15.793   5.932   2.214
 9212W        W77441  40.263  41.851   2.681
 9213W        W77442  13.197  39.629   1.431
 9214W        W77443  28.433  11.162   4.206
 9215W        W77444  23.041  26.269  14.557
 9216W        W77445  29.006  43.546  10.799
 9217W        W77446   5.045  29.979   2.509
 9218W        W77447  42.473   8.289   0.984
 9219W        W77448  26.688   9.355   0.825
 9220W        W77449  28.373  31.859  12.048
 9221W        W77450  32.595  32.472   0.992
 9222W        W77451  31.013  28.459   0.475
 9223W        W77452   9.884  10.218  12.482
 9224W        W77453  14.229  23.606  10.400
 9225W        W77454  27.994   7.871   2.925
 9226W        W77455  14.289  10.330   3.168
 9227W        W77456  30.142  33.036   4.202
 9228W        W77457  25.732  13.999  12.991
 9229W        W77458  24.171  41.559  11.861
 9230W        W77459  27.137   7.243  14.829
 9231W        W77460  32.236   0.571  14.832
 9232W        W77461  31.986  38.438  14.808
 9233W        W77462  23.214   7.004  12.910
 9234W        W77463  37.751  13.823  14.102
 9235W        W77464  17.656  30.988   3.376
 9236W        W77465  10.395  40.983  14.698
 9237W        W77466  28.495   2.295   3.283
 9238W        W77467  17.071  38.403   1.899
 9239W        W77468  13.083  32.909   2.654
 9240W        W77469   9.683  33.941   4.090
 9241W        W77470  17.275  30.078   4.591
 9242W        W77471  23.841  28.127  14.755
 9243W        W77472  11.644  44.356   4.045
 9244W        W77473  43.972   4.731   3.211
 9245W        W77474  23.199  44.935   3.662
 9246W        W77475  40.396  27.918   4.519
 9247W        W77476  17.771  25.625   4.624
 9248W        W77477  44.804  42.022   0.015
 9249W        W77478  22.054  14.464   0.226
 9250W        W77479   5.805   5.579  14.741
 9251W        W77480  25.972   4.535   3.085
 9252W        W77481  32.038   4.846   4.552
 9253W        W77482  20.713  25.688   3.904
 9254W        W77483  32.701  21.050  11.565
 9255W        W77484  37.620   7.189   1.944
 9256W        W77485  13.699  11.216   4.959
 9257W        W77486  25.776  28.088   3.656
 9258W        W77487  11.991   7.633   0.894
 9259W        W77488  30.194   0.047   3.938
 9260W        W77489   4.880  26.720  13.906
 9261W        W77490  44.360  27.790   0.847
 9262W        W77491  34.392  23.752  11.990
 9263W        W77492  40.921  19.499   3.634
 9264W        W77493  41.598  18.796  11.227
 9265W        W77494  43.475  32.532  13.167
 9266W        W77495  28.983  37.562   4.079
 9267W        W77496  10.209  19.742  11.457
 9268W        W77497  21.089  39.462  11.119
 9269W        W77498  11.672  35.593  10.152
 9270W        W77499  36.354  10.146  12.419
 9271W        W77500  42.599   2.912   1.752
 9272W        W77501  18.042  33.570   0.052
 9273W        W77502   5.241  21.573  13.393
 9274W        W77503  29.727   1.476   1.912
 9275W        W77504  13.026  31.593   5.062
 9276W        W77505  30.226  36.553   3.365
 9277W        W77506  23.199  10.152  13.149
 9278W        W77507  20.137   3.464   1.501
 9279W        W77508   2.448  30.352  14.837
 9280W        W77509  20.491  32.923   1.945
 9281W        W77510   6.311  14.188  11.245
 9282W        W77511  17.252   6.929   1.808
 9283W        W77512   9.153  10.032  10.028
 9284W        W77513   1.050  36.575  11.629
 9285W        W77514  12.836  31.842  14.530
 9286W        W77515  43.861  44.742  14.975
 9287W        W77516  27.576  36.260   5.142
 9288W        W77517  11.645  28.104   0.544
 9289W        W77518  32.113  41.258  14.001
 9290W        W77519  43.046  26.341   5.006
 9291W        W77520  30.930   8.249   1.775
 9292W        W77521   1.789  15.057  13.056
 9293W        W77522   9.412  33.510  11.905
 9294W        W77523  22.203  36.869  13.525
 9295W        W77524   9.755   0.040   3.195
 9296W        W77525  21.165   5.170  13.486
 9297W        W77526  31.914  22.439  10.994
 9298W        W77527  11.077  26.794   1.826
 9299W        W77528   7.445  10.252  13.606
 9300W        W77529  28.199  29.247  14.059
 9301W        W77530  30.684  24.192  11.516
 9302W        W77531   1.715  38.437   5.056
 9303W        W77532  21.125  26.250   1.775
 9304W        W77533  40.132  31.015   1.621
 9305W        W77534  20.427   9.638   0.886
 9306W        W77535   5.003   7.904  11.612
 9307W        W77536  23.709  19.641   2.096
 9308W        W77537  15.384   2.176  13.472
 9309W        W77538  33.051   7.242   4.488
 9310W        W77539  20.914   5.860  13.802
 9311W        W77540  12.805  33.621  11.384
 9312W        W77541  24.336  23.589  12.374
 9313W        W77542  21.582  15.891  13.352
 9314W        W77543  33.926  30.092  11.894
 9315W        W77544  34.061   5.562  10.726
 9316W        W77545  30.406  19.508  11.039
 9317W        W77546   9.983   1.652  10.074
 9318W        W77547  40.378  24.773   4.136
 9319W        W77548   0.291  39.850   3.594
 9320W        W77549  33.687  21.087   0.777
 9321W        W77550  24.211   3.882  12.326
 9322W        W77551  37.001   1.659   1.326
 9323W        W77552  32.015   0.674   4.142
 9324W        W77553  28.271   3.243   3.349
 9325W        W77554  27.789   0.882   4.829
 9326W        W77555   4.349  40.509   2.186
 9327W        W77556  35.786  38.106  11.088
 9328W        W77557  18.021   5.453   0.818
 9329W        W77558   2.790  43.518   1.244
 9330W        W77559  26.480   5.370   3.151
 9331W        W77560  34.093  11.166   4.717
 9332W        W77561  17.227  21.579  11.195
 9333W        W77562  39.302  21.672  14.968
 9334W        W77563  13.217   5.923   0.185
 9335W        W77564  33.093   3.169   0.557
 9336W        W77565  16.857   9.718  10.737
 9337W        W77566  12.359  34.487  12.403
 9338W        W77567  27.573  14.862  10.899
 9339W        W77568  38.514  38.029   3.156
 9340W        W77569  17.411  26.226   2.255
 9341W        W77570  10.756  33.793  10.965
 9342W        W77571  23.475  29.915   1.560
 9343W        W77572  29.128  18.242   0.212
 9344W        W77573  44.252  11.600   3.187
 9345W        W77574  33.399  10.127  14.537
 9346W        W77575  15.006   7.281  10.786
 9347W        W77576  25.643   8.602   3.193
 9348W        W77577   1.219  36.916   0.607
 9349W        W77578  19.088   6.962   2.390
 9350W        W77579  21.950  24.638  13.142
 9351W        W77580  22.499  42.478   0.104
 9352W        W77581  30.823  39.772  11.294
 9353W        W77582  37.491  17.036   3.326
 9354W        W77583  20.011  18.097   0.330
 9355W        W77584  34.693  33.336  12.963
 9356W        W77585  18.061  31.672  10.790
 9357W        W77586  34.631  26.207  11.618
 9358W        W77587  28.155  27.059   4.298
 9359W        W77588  14.257  27.557   0.928
 9360W        W77589  17.313   6.176   9.653
 9361W        W77590  33.948  30.153  13.027
 9362W        W77591   0.903  17.129  13.970
 9363W        W77592  37.003   7.669   0.209
 9364W        W77593  34.278  19.787   2.798
 9365W        W77594  26.286   5.664  14.905
 9366W        W77595   1.984  37.185   4.565
 9367W        W77596  43.395   4.521  10.514
 9368W        W77597  13.049   2.401   0.378
 9369W        W77598  19.030  20.043   4.716
 9370W        W77599  18.813  17.598   3.821
 9371W        W77600  31.578  33.562  11.144
 9372W        W77601   7.084  41.969   3.122
 9373W        W77602  31.438   1.863   1.482
 9374W        W77603  14.557   1.065   4.591
 9375W        W77604  26.184  20.107   4.142
 9376W        W77605  21.480  11.087   3.668
 9377W        W77606  18.863  43.042  13.498
 9378W        W77607  37.198  35.633   1.641
 9379W        W77608   9.077  13.794   4.115
 9380W        W77609  17.356  18.101   2.898
 9381W        W77610  44.779  16.576  14.028
 9382W        W77611  33.382   5.083   1.220
 9383W        W77612  28.431  39.910   4.641
 9384W        W77613   5.692  34.666  12.140
 9385W        W77614  18.186  37.463  14.346
 9386W        W77615  44.272  11.895   0.714
 9387W        W77616  21.186  16.040  12.107
 9388W        W77617  36.154  22.263   4.239
 9389W        W77618  33.578  25.047   4.531
 9390W        W77619  30.526  32.107  14.512
 9391W        W77620  42.936  43.001   4.886
 9392W        W77621  41.174  36.090   1.377
 9393W        W77622  18.425  41.979   1.330
 9394W        W77623  17.309  10.656  13.800
 9395W        W77624   8.126  13.685   2.868
 9396W        W77625  10.485  31.933   3.712
 9397W        W77626  35.237  10.852  14.434
 9398W        W77627   7.185   2.935   4.665
 9399W        W77628   1.248  20.750   3.351
 9400W        W77629  36.073  43.150  10.525
 9401W        W77630  38.141  22.508  11.962
 9402W        W77631   2.409  40.057   1.238
 9403W        W77632  24.170  38.125  12.504
 9404W        W77633  43.513   9.299   4.649
 9405W        W77634   0.056  24.691  14.795
 9406W        W77635   3.005  13.698  13.780
 9407W        W77636   4.922  24.173   2.260
 9408W        W77637  30.926   9.459   1.297
 9409W        W77638   4.889  43.735  11.352
 9410W        W77639  15.411   0.298   0.396
 9411W        W77640  21.221   4.305  13.518
 9412W        W77641  25.098  37.067   3.727
 9413W        W77642  37.395   8.038   3.202
 9414W        W77643  26.973   5.248  13.436
 9415W        W77644  27.757  38.118  13.377
 9416W        W77645  43.774  30.705   0.415
 9417W        W77646  44.774   6.041  11.058
 9418W        W77647   7.324  12.315  10.769
 9419W        W77648  20.220  41.930  14.898
 9420W        W77649  14.989  36.359   2.824
 9421W        W77650  43.385  40.762  13.446
 9422W        W77651  34.332  35.406   3.693
 9423W        W77652  44.756  36.583   4.614
 9424W        W77653  13.688   4.209   2.612
 9425W        W77654  22.628  20.278   4.689
 9426W        W77655  41.450  13.199   3.714
 9427W        W77656  22.201   3.471   2.353
 9428W        W77657  18.641  14.608  10.821
 9429W        W77658  38.857  23.978  14.842
 9430W        W77659   1.186   7.824   4.637
 9431W        W77660  42.543  24.809   1.288
 9432W        W77661  12.472  21.591   3.413
 9433W        W77662  28.453  12.589   0.247
 9434W        W77663  16.252  12.714   4.543
 9435W        W77664  26.536  31.851   3.228
 9436W        W77665  18.138  11.044  11.455
 9437W        W77666  22.648   6.258  13.806
 9438W        W77667  13.282  35.497  14.178
 9439W        W77668  16.844  33.590  14.294
 9440W        W77669   3.056  22.581   0.510
 9441W        W77670  34.055  16.978  11.152
 9442W        W77671  38.949  38.802   4.820
 9443W        W77672  18.213  32.415   3.244
 9444W        W77673  22.940  37.533   4.194
 9445W        W77674  32.014  44.452   3.703
 9446W        W77675  39.901  40.936   4.200
 9447W        W77676  11.466  18.844  11.104
 9448W        W77677  19.808  31.582  12.057
 9449W        W77678  31.994   4.437   0.493
 9450W        W77679  22.528  24.029   2.827
 9451W        W77680  40.816  33.938  12.065
 9452W        W77681  44.244   9.340   2.658
 9453W        W77682  25.780  16.571   2.801
 9454W        W77683  38.492  12.297  12.625
 9455W        W77684  44.823   7.915   0.507
 9456W        W77685   4.938  18.107   3.648
 9457W        W77686  39.869  24.085   4.351
 9458W        W77687  20.253  34.522  12.563
 9459W        W77688  32.801   4.269  12.231
 9460W        W77689  43.348  32.037   0.722
 9461W        W77690  30.409  38.381   2.943
 9462W        W77691  42.761  32.903   0.731
 9463W        W77692  28.931  15.531   1.438
 9464W        W77693   8.842  41.565  14.871
 9465W        W77694  28.331   0.169   5.061
 9466W        W77695  26.892  21.981   0.779
 9467W        W77696  25.571  20.854  14.855
 9468W        W77697  21.195  11.824   4.618
 9469W        W77698   4.182  14.087   4.615
 9470W        W77699   8.725  41.853   5.097
 9471W        W77700  35.524  27.962  14.086
 9472W        W77701   7.419  39.764  12.757
 9473W        W77702  18.564  37.484   4.129
 9474W        W77703   1.825  29.671   3.209
 9475W        W77704  11.734  17.678   4.922
 9476W        W77705  16.451  33.925   5.042
 9477W        W77706  32.197   8.268   2.374
 9478W        W77707  39.954  21.315   3.803
 9479W        W77708  35.996  16.046   3.346
 9480W        W77709  12.838  34.388   1.734
 9481W        W77710  24.665  42.006  12.404
 9482W        W77711   6.601   8.799  14.027
 9483W        W77712  40.516   2.209   5.040
 9484W        W77713  28.615  13.700   3.777
 9485W        W77714   1.328  42.727   4.079
 9486W        W77715  43.550   4.383   1.165
 9487W        W77716  44.032   0.437  13.459
 9488W        W77717  28.034  23.536   3.165
 9489W        W77718   4.097   2.909   1.217
 9490W        W77719  35.113  38.657  12.943
 9491W        W77720   6.384  20.730   2.815
 9492W        W77721  13.385   6.349  13.573
 9493W        W77722  29.854  37.338  14.325
 9494W        W77723  42.736  15.439  13.246
 9495W        W77724  11.154  20.142   4.291
 9496W        W77725  28.438   4.384  12.041
 9497W        W77726  30.490  37.192   0.370
 9498W        W77727  42.572   0.251  11.924
 9499W        W77728  32.639   2.698   3.408
 9500W        W77729  41.655  36.367   3.649
 9501W        W77730  26.277  15.488  11.821
 9502W        W77731  18.781   6.762   1.219
 9503W        W77732  43.045  27.396  12.860
 9504W        W77733  43.291  24.993   4.733
 9505W        W77734   3.610  36.617   1.790
 9506W        W77735  44.588   8.768  11.779
 9507W        W77736  19.611  21.617   0.014
 9508W        W77737  21.681  20.925   2.789
 9509W        W77738  19.002  20.919  12.602
 9510W        W77739  24.129  16.697   3.372
 9511W        W77740  36.044  25.496   3.847
 9512W        W77741  42.936  20.090   2.756
 9513W        W77742  42.278  24.492   1.906
 9514W        W77743   7.183  10.621  14.778
 9515W        W77744  23.749  42.862   1.628
 9516W        W77745  39.083  36.795  13.375
 9517W        W77746   2.324  37.587  13.936
 9518W        W77747  37.483   1.803   1.157
 9519W        W77748  20.165  13.160  11.965
 9520W        W77749   4.434  43.619  11.000
 9521W        W77750  16.794  36.104   0.354
 9522W        W77751   8.136  19.894   1.062
 9523W        W77752  30.469   3.410  11.026
 9524W        W77753  32.107  13.717   3.710
 9525W        W77754  36.887  11.634   4.677
 9526W        W77755  23.192  41.909  13.438
 9527W        W77756  35.777  37.303   2.470
 9528W        W77757   0.228  11.612   3.372
 9529W        W77758  15.599  36.084  14.017
 9530W        W77759  38.025  17.863   2.317
 9531W        W77760   8.164  23.593   3.761
 9532W        W77761  35.023  28.144  13.436
 9533W        W77762  42.326  31.371   4.573
 9534W        W77763   9.797  32.048  14.319
 9535W        W77764  14.701  29.931   1.855
 9536W        W77765  22.801   9.730  14.001
 9537W        W77766  17.537   0.319  13.823
 9538W        W77767  17.368  41.321  13.917
 9539W        W77768  36.337   1.264   2.823
 9540W        W77769  36.711  41.546   1.699
 9541W        W77770  16.075  13.628  14.030
 9542W        W77771  33.979  37.440   2.713
 9543W        W77772  30.092  37.332   2.297
 9544W        W77773  19.337  28.340   4.534
 9545W        W77774  19.325  29.166  10.705
 9546W        W77775  38.829  25.621   3.338
 9547W        W77776  25.803   7.483  11.696
 9548W        W77777  42.991  16.698   3.327
 9549W        W77778   4.398   6.928   3.704
 9550W        W77779  29.582  40.111  14.468
 9551W        W77780  11.521  31.429   2.702
 9552W        W77781   2.911  13.948   4.060
 9553W        W77782  33.958  28.060   0.550
 9554W        W77783  24.599   3.209   1.359
 9555W        W77784  36.343  18.679  11.848
 9556W        W77785  11.807  40.751   4.151
 9557W        W77786  14.225  29.080  12.875
 9558W        W77787   7.947  24.025  11.574
 9559W        W77788  19.081  34.304   5.300
 9560W        W77789  32.651  24.959   4.049
 9561W        W77790  32.285  15.303  10.247
 9562W        W77791  15.375   6.626   3.582
 9563W        W77792  28.940  41.629  11.091
 9564W        W77793  22.387  28.629   4.811
 9565W        W77794  14.259   4.731   4.671
 9566W        W77795   7.776  44.787   0.001
 9567W        W77796  42.604  36.581   3.851
 9568W        W77797  43.565   1.159   4.376
 9569W        W77798  34.493  42.959   1.039
 9570W        W77799  19.632  44.612   0.276
 9571W        W77800  26.461   8.530   3.347
 9572W        W77801   6.730   8.441   3.913
 9573W        W77802   1.908  24.532   4.803
 9574W        W77803  16.090   1.877  13.971
 9575W        W77804  19.176  42.541   2.746
 9576W        W77805  20.965  15.604   0.757
 9577W        W77806   0.328  11.089  11.935
 9578W        W77807  31.453  43.834   3.361
 9579W        W77808  12.537   8.214  13.328
 9580W        W77809  44.803  35.705  10.087
 9581W        W77810  30.072  35.563   4.361
 9582W        W77811  21.142  15.856  14.854
 9583W        W77812   5.322  32.898   0.662
 9584W        W77813  41.931  40.722  13.921
 9585W        W77814  33.155   1.807   2.327
 9586W        W77815  22.340  11.247   2.115
 9587W        W77816  19.453  41.108  13.343
 9588W        W77817  12.659   0.943   3.277
 9589W        W77818  40.520  40.016  13.352
 9590W        W77819  27.448  16.224  13.265
 9591W        W77820  37.455  23.628  12.476
 9592W        W77821   1.426  15.671  12.154
 9593W        W77822  40.106   8.269   1.336
 9594W        W77823  24.134  19.252  10.632
 9595W        W77824  35.835   9.150  11.561
 9596W        W77825  38.451  10.873   3.636
 9597W        W77826  36.764  30.985  14.744
 9598W        W77827  38.413   1.274  13.617
 9599W        W77828   7.293  18.761  13.343
 9600W        W77829  44.451  29.655  12.530
 9601W        W77830  43.578  27.439  11.980
 9602W        W77831  33.931   9.698  13.980
 9603W        W77832  22.401  38.944  13.767
 9604W        W77833  12.261  23.078  11.204
 9605W        W77834  18.237  15.914   1.991
 9606W        W77835  35.410   6.207   0.049
 9607W        W77836  13.196  31.580   0.977
 9608W        W77837  14.314  13.280   2.869
 9609W        W77838  37.895  32.981   0.422
 9610W        W77839  34.020  30.609   3.211
 9611W        W77840  38.545  19.059  11.725
 9612W        W77841   9.223  34.927   1.383
 9613W        W77842   1.020  24.152  13.959
 9614W        W77843  29.142   2.561  12.128
 9615W        W77844  35.463   1.336   2.760
 9616W        W77845  38.104  31.029   9.746
 9617W        W77846  35.919  42.914  13.941
 9618W        W77847   0.303  37.430  12.964
 9619W        W77848  43.348  37.942  11.398
 9620W        W77849  36.430  44.494  10.608
 9621W        W77850  22.360   0.562  14.741
 9622W        W77851  16.982   4.386  14.423
 9623W        W77852   3.264  42.189  13.437
 9624W        W77853  18.088  23.149   3.624
 9625W        W77854  21.271  39.306   2.448
 9626W        W77855  20.384  39.436  14.738
 9627W        W77856  10.618  41.374  11.600
 9628W        W77857  21.629  38.762  10.762
 9629W        W77858   9.383  18.443   0.775
 9630W        W77859  34.831  13.742  11.246
 9631W        W77860  37.833  43.326   4.224
 9632W        W77861  41.641  29.103  11.834
 9633W        W77862  32.431  34.021   0.006
 9634W        W77863  23.535  39.370  14.592
 9635W        W77864  33.904  34.835   0.909
 9636W        W77865  33.935  34.662   0.063
 9637W        W77866   1.755  20.618   1.420
 9638W        W77867  44.533   9.449   1.728
 9639W        W77868  33.332   8.421   2.861
 9640W        W77869   0.304  10.686  10.604
 9641W        W77870  26.562   8.217  12.197
 9642W        W77871  40.099  23.089  11.881
 9643W        W77872  32.060  25.490   2.239
 9644W        W77873  22.143  11.611  14.429
 9645W        W77874  17.175  43.124   2.209
 9646W        W77875  26.416  22.995   3.800
 9647W        W77876  18.761  44.084  14.425
 9648W        W77877   4.029  42.295  14.897
 9649W        W77878  28.843  40.314   0.482
 9650W        W77879  26.485   4.818  11.132
 9651W        W77880  24.218  11.584   2.243
 9652W        W77881   6.912  42.841  14.039
 9653W        W77882  41.792  39.584  14.443
 9654W        W77883  43.100  39.821  14.277
 9655W        W77884  33.889   3.274   0.127
 9656W        W77885  37.576  41.497   3.662
 9657W        W77886  16.150  20.204  10.493
 9658W        W77887  31.828   4.326   2.467
 9659W        W77888  10.671   1.448  13.911
 9660W        W77889  15.552  41.919  14.002
 9661W        W77890  17.679  40.527  11.621
 9662W        W77891  36.578   2.247   0.627
 9663W        W77892  15.629  12.414   2.764
 9664W        W77893  35.123  44.319   4.326
 9665W        W77894  18.716  21.052   0.931
 9666W        W77895  33.916  39.548  10.483
 9667W        W77896   8.149  43.331  13.224
 9668W        W77897  18.713  37.605  14.611
 9669W        W77898  39.221  36.252  14.977
 9670W        W77899   7.722  19.791  11.980
 9671W        W77900  25.404  40.409  12.867
 9672W        W77901  16.527  19.936   1.117
 9673W        W77902  11.131  43.548  12.912
 9674W        W77903  28.957  27.143   1.411
 9675W        W77904  30.898  38.526  11.856
 9676W        W77905  36.304  17.294  13.538
 9677W        W77906  30.289  24.070  10.707
 9678W        W77907  19.062  21.280   3.711
 9679W        W77908  34.400   3.887   4.686
 9680W        W77909  12.145   2.950  13.899
 9681W        W77910   9.826  35.792  14.957
 9682W        W77911  13.172  36.703   4.235
 9683W        W77912  30.931   1.537   4.807
 9684W        W77913  30.655   9.945   1.405
 9685W        W77914   9.874  27.564   3.807
 9686W        W77915  15.498  32.569   0.710
 9687W        W77916  23.316  43.053  14.324
 9688W        W77917  40.779   5.654   1.640
 9689W        W77918  34.505  20.500   4.177
 9690W        W77919  33.398   9.956   2.963
 9691W        W77920   8.859  22.261   2.642
 9692W        W77921  39.840  37.348   1.310
 9693W        W77922  10.401  35.078  11.256
 9694W        W77923   2.841  25.725   2.138
 9695W        W77924   8.251   4.656   1.189
 9696W        W77925  44.890  15.838   3.262
 9697W        W77926  25.138  40.776  11.945
 9698W        W77927  33.479  18.689   2.780
 9699W        W77928  29.322  14.880  13.087
 9700W        W77929  29.048   0.251   0.719
 9701W        W77930   8.817  29.077  12.249
 9702W        W77931  35.092  38.145  12.961
 9703W        W77932  10.418  13.354  11.200
 9704W        W77933  18.557   0.134  10.816
 9705W        W77934   3.565  39.368   1.902
 9706W        W77935   1.976  42.880  10.517
 9707W        W77936  27.989  10.685  10.908
 9708W        W77937  16.109  11.331   0.730
 9709W        W77938  28.758  25.021   1.623
 9710W        W77939  14.832  28.535   2.811
 9711W        W77940  36.581  30.682  12.027
 9712W        W77941  31.482   0.559  11.102
 9713W        W77942  26.523   2.025  12.190
 9714W        W77943  42.406  19.575   0.680
 9715W        W77944  14.558  39.086   0.115
 9716W        W77945   9.662  39.853  10.475
 9717W        W77946  36.593  38.404  10.973
 9718W        W77947   3.161  20.308  13.511
 9719W        W77948  13.854   1.030   0.752
 9720W        W77949   6.309  31.077   4.776
 9721W        W77950  25.147  28.512  13.096
 9722W        W77951  20.449  27.134   2.238
 9723W        W77952  23.089  21.292   3.248
 9724W        W77953  23.111  31.497  13.587
 9725W        W77954  19.073  28.725   0.942
 9726W        W77955  43.423   8.787  12.428
 9727W        W77956  27.090  17.472   4.160
 9728W        W77957  23.532  34.187  13.863
 9729W        W77958  22.425  27.694  12.857
 9730W        W77959  39.559   7.152   2.590
 9731W        W77960   3.786  14.720   0.899
 9732W        W77961  44.551  21.765   0.396
 9733W        W77962  16.821  41.520   3.357
 9734W        W77963   4.338  40.618   1.256
 9735W        W77964  13.352  14.069   0.683
 9736W        W77965  40.373  37.388  13.564
 9737W        W77966  43.772  20.632   0.999
 9738W        W77967  16.050  27.846  12.409
 9739W        W77968   1.705  29.724   4.159
 9740W        W77969  20.262  40.905   0.849
 9741W        W77970  24.215  37.400   0.222
 9742W        W77971  30.689   5.292  11.539
 9743W        W77972  36.318  31.823   3.218
 9744W        W77973  28.192  22.946   0.293
 9745W        W77974   8.405  29.281   3.246
 9746W        W77975   4.671  43.810   0.815
 9747W        W77976  32.246  14.574   3.803
 9748W        W77977  16.081  20.334   4.161
 9749W        W77978  36.384  20.059   4.559
 9750W        W77979  39.037  34.834   1.405
 9751W        W77980   9.608  20.365  11.133
 9752W        W77981  41.426  15.854  12.522
 9753W        W77982  35.391  39.580  14.483
 9754W        W77983  24.617  33.912   4.171
 9755W        W77984  25.204  28.016   2.344
 9756W        W77985  40.009  15.292  14.721
 9757W        W77986  29.145  43.345  14.861
 9758W        W77987  16.956  28.103  10.816
 9759W        W77988  26.874  25.732  13.608
 9760W        W77989  22.788  21.191   4.454
 9761W        W77990  34.864  41.369   2.360
 9762W        W77991  36.471  44.081   0.082
 9763W        W77992   4.952  12.976  14.750
 9764W        W77993   7.756  10.746  14.579
 9765W        W77994  30.703  26.670  10.720
 9766W        W77995  27.140  32.878   4.801
 9767W        W77996   2.510  26.541   2.755
 9768W        W77997   8.987  11.537  14.597
 9769W        W77998   1.881  23.108  10.714
 9770W        W77999  40.770  29.982   2.307
 9771W        W78000   0.020  11.886  12.116
 9772W        W78001  13.306   8.853  11.636
 9773W        W78002  14.216  13.012  10.543
 9774W        W78003  41.785  29.544  13.398
 9775W        W78004   1.897  30.251  14.184
 9776W        W78005  11.777  12.896  12.981
 9777W        W78006  20.763  42.293   5.033
 9778W        W78007  10.129  38.843   4.207
 9779W        W78008  32.055  38.781   1.475
 9780W        W78009  14.833  39.420   0.407
 9781W        W78010  24.642  41.376  11.598
 9782W        W78011  12.518  29.782   3.289
 9783W        W78012  27.044  28.661   4.676
 9784W        W78013  36.909  23.036   3.567
 9785W        W78014  30.368  11.380  14.916
 9786W        W78015   4.613   9.752   2.150
 9787W        W78016   0.242  29.160   0.808
 9788W        W78017  38.448  27.502   0.965
 9789W        W78018   8.871  41.452   0.776
 9790W        W78019  29.723  41.259  11.481
 9791W        W78020  34.315  20.552  12.578
 9792W        W78021  37.831  33.139  14.410
 9793W        W78022  43.341  27.581  12.454
 9794W        W78023  27.873  15.801  11.091
 9795W        W78024  36.120  40.880  14.536
 9796W        W78025  27.146  43.910   3.788
 9797W        W78026   8.728  44.292  12.669
 9798W        W78027  40.731   7.508   4.450
 9799W        W78028  11.510  11.834   1.190
 9800W        W78029  29.442  13.065  10.706
 9801W        W78030   9.267  27.023   1.283
 9802W        W78031  23.684  10.335   1.162
 9803W        W78032  32.833  41.441   0.294
 9804W        W78033  20.503   0.484  12.478
 9805W        W78034  35.994  23.082  14.542
 9806W        W78035   6.786  34.383  14.576
 9807W        W78036   0.651  11.045  14.785
 9808W        W78037  36.165   0.310  12.668
 9809W        W78038   8.906  19.070  11.189
 9810W        W78039  44.968   5.328  10.587
 9811W        W78040  23.292  38.459   1.817
 9812W        W78041  18.415  36.841   3.126
 9813W        W78042  37.455  20.535   2.175
 9814W        W78043  26.580  14.019  13.050
 9815W        W78044  24.166  41.870  12.847
 9816W        W78045  14.077  13.982  12.966
 9817W        W78046  37.428  31.657  13.756
 9818W        W78047  41.946  29.374   1.282
 9819W        W78048   9.634  13.878  14.736
 9820W        W78049   3.947  31.593  13.590
 9821W        W78050   7.154  29.550  14.837
 9822W        W78051  32.594  13.741  13.361
 9823W        W78052  14.052  11.255  11.589
 9824W        W78053  14.674  17.694  13.002
 9825W        W78054  19.834  32.567  13.570
 9826W        W78055   1.982  15.307  12.632
 9827W        W78056   6.817  22.911  12.911
 9828W        W78057  20.805  25.614  14.584
 9829W        W78058   5.891  13.232  12.112
 9830W        W78059  20.423  28.205   3.289
 9831W        W78060   1.322   7.867  12.606
 9832W        W78061  28.680  14.235   2.957
 9833W        W78062  29.155  13.577   0.365
 9834W        W78063  17.801  18.952  14.441
 9835W        W78064  12.802  22.555   4.716
 9836W        W78065  29.953   0.284   1.795
 9837W        W78066  30.771   1.154  14.618
 9838W        W78067  37.611   0.858   1.863
 9839W        W78068  42.410  13.634  12.942
 9840W        W78069  19.623  11.621   4.770
 9841W        W78070  25.654  11.680   0.856
 9842W        W78071  13.084  37.377  13.317
 9843W        W78072  24.115  34.340  14.688
 9844W        W78073   6.336   2.531  11.536
 9845W        W78074  42.429  37.962   4.304
 9846W        W78075  20.208  16.254  13.681
 9847W        W78076  25.885  34.557   2.678
 9848W        W78077  42.365  20.153   1.334
 9849W        W78078   4.157   9.678   4.403
 9850W        W78079  10.760  12.199  12.446
 9851W        W78080  36.353  41.428  10.533
 9852W        W78081  40.482  36.559  13.206
 9853W        W78082  32.947  26.548  11.985
 9854W        W78083  11.416  10.885   4.554
 9855W        W78084  43.202  43.563  11.589
 9856W        W78085   5.808  44.444   3.056
 9857W        W78086  23.302   8.781   1.142
 9858W        W78087   8.401  10.632  13.586
 9859W        W78088  13.860  39.918   3.660
 9860W        W78089   1.422  41.395   0.787
 9861W        W78090  41.692  29.475   5.076
 9862W        W78091  35.854  17.259   2.337
 9863W        W78092  17.206   5.263  11.420
 9864W        W78093  27.791  22.714  11.770
 9865W        W78094  37.125  13.626  13.102
 9866W        W78095  37.567   0.488  14.012
 9867W        W78096  43.946  11.691   1.298
 9868W        W78097   1.391  34.341  10.250
 9869W        W78098  11.573   5.133   4.538
 9870W        W78099   6.872  13.611   1.241
 9871W        W78100  39.966  37.344   1.821
 9872W        W78101  40.002  40.579  11.358
 9873W        W78102  16.491  28.689  13.954
 9874W        W78103  14.703  14.914  12.589
 9875W        W78104  26.085   0.678  14.874
 9876W        W78105   6.631  31.997   0.096
 9877W        W78106  22.557  11.824  12.853
 9878W        W78107  12.670   8.102  12.067
 9879W        W78108  34.880  42.832   3.246
 9880W        W78109   9.461  15.357   1.766
 9881W        W78110  17.210   8.136  11.141
 9882W        W78111  36.607  25.791  13.917
 9883W        W78112  11.168  42.920  11.930
 9884W        W78113  34.418   1.815  13.943
 9885W        W78114  39.463  12.119   1.978
 9886W        W78115  34.295   8.046  13.881
 9887W        W78116  22.927  19.582   0.265
 9888W        W78117  17.190  30.955   1.649
 9889W        W78118  24.741  33.960  11.549
 9890W        W78119  38.720   6.659   3.212
 9891W        W78120  41.109   4.202   1.923
 9892W        W78121  10.935  33.062   0.387
 9893W        W78122  24.699  32.812  10.470
 9894W        W78123  42.356  14.295  14.753
 9895W        W78124  23.918  32.649   3.171
 9896W        W78125  17.491  31.369  12.393
 9897W        W78126  31.468  43.875  12.572
 9898W        W78127  43.361  20.532   1.397
 9899W        W78128  21.883  14.489   3.763
 9900W        W78129  36.573   1.965  12.460
 9901W        W78130  26.599  10.304   1.199
 9902W        W78131  24.081   7.799   4.364
 9903W        W78132  37.053   1.532  13.378
 9904W        W78133  39.630  28.130  11.241
 9905W        W78134  27.668  14.735  12.339
 9906W        W78135  42.554  34.092   1.723
 9907W        W78136  12.268  43.991   3.248
 9908W        W78137  20.662  31.148  10.780
 9909W        W78138  14.778  17.854  14.281
 9910W        W78139  42.396   8.175   2.065
 9911W        W78140  43.279   1.746  13.373
 9912W        W78141   8.226  18.153  11.665
 9913W        W78142   5.812  33.359  11.631
 9914W        W78143  36.053  30.968  12.093
 9915W        W78144  21.880  16.270   2.441
 9916W        W78145  40.733  19.561   2.776
 9917W        W78146   0.750   5.198  14.601
 9918W        W78147  35.659   1.146  14.947
 9919W        W78148   7.008  32.687   1.888
 9920W        W78149  33.601   8.830   3.791
 9921W        W78150  21.922   9.413   4.411
 9922W        W78151  16.315  39.440  13.448
 9923W        W78152  29.544  31.063   2.755
 9924W        W78153  19.750  30.683  10.732
 9925W        W78154  25.218  35.891  12.663
 9926W        W78155  13.175  42.853  13.437
 9927W        W78156  30.232  42.555   0.832
 9928W        W78157  18.908  41.146   2.218
 9929W        W78158  28.183  37.636   3.347
 9930W        W78159   8.974   7.521  13.926
 9931W        W78160  13.293  38.383   0.419
 9932W        W78161  19.358  22.985   4.179
 9933W        W78162  16.196   7.812  14.050
 9934W        W78163   7.354  41.583   3.339
 9935W        W78164  37.129   0.781   4.125
 9936W        W78165  23.174  16.188   0.670
 9937W        W78166   0.860   7.215  12.903
 9938W        W78167  20.321   6.936  11.359
 9939W        W78168   2.931   8.186  12.948
 9940W        W78169  28.033  23.770  10.957
 9941W        W78170  44.875  42.093   2.701
 9942W        W78171  33.214  38.514  10.236
 9943W        W78172   5.878  29.130  12.605
 9944W        W78173  38.853  21.021  11.981
 9945W        W78174  13.202  43.194   4.856
 9946W        W78175   5.139  37.166  13.562
 9947W        W78176  30.346   8.776  12.879
 9948W        W78177   7.520  16.543  12.131
 9949W        W78178  19.133   2.700   3.972
 9950W        W78179  28.184  30.504   3.270
 9951W        W78180  34.901  26.000   0.330
 9952W        W78181  37.882  42.741   4.819
 9953W        W78182   1.393  36.634   1.834
 9954W        W78183  10.173  10.121   5.057
 9955W        W78184  22.707  18.812  13.901
 9956W        W78185  30.545  11.877  10.964
 9957W        W78186   2.419  14.577   3.472
 9958W        W78187   0.084  44.297  13.429
 9959W        W78188  16.339  30.014   2.159
 9960W        W78189   8.875   0.512   4.594
 9961W        W78190  32.116   0.966   0.185
 9962W        W78191  37.332  35.374  13.609
 9963W        W78192  16.422   3.244  11.561
 9964W        W78193  17.375  41.971  14.316
 9965W        W78194   5.388   7.392  13.955
 9966W        W78195  12.683  18.848  12.467
 9967W        W78196  24.684  20.271  12.882
 9968W        W78197  40.680   3.083  12.549
 9969W        W78198  41.556   1.290  10.788
 9970W        W78199  36.047  30.684   2.881
 9971W        W78200  34.701  20.880   2.483
 9972W        W78201  36.440  17.059  12.601
 9973W        W78202  14.818  40.084  13.865
 9974W        W78203  36.565  34.571  10.690
 9975W        W78204  30.885  27.479  12.790
 9976W        W78205   8.985   1.989  10.724
 9977W        W78206  14.634  42.377   1.910
 9978W        W78207  33.237  29.415  11.580
 9979W        W78208  25.268  33.070   3.197
 9980W        W78209   5.472  23.523   4.316
 9981W        W78210   6.220  30.211   1.368
 9982W        W78211  37.052  25.758  12.960
 9983W        W78212  34.368  10.455  11.134
 9984W        W78213  17.955  42.324   4.045
 9985W        W78214   7.406  15.382  14.817
 9986W        W78215  36.714  11.161   4.093
 9987W        W78216  43.125  39.788   1.655
 9988W        W78217  26.082  43.065  13.539
 9989W        W78218  17.092  23.560  13.002
 9990W        W78219  24.667   6.764   1.161
 9991W        W78220   1.143  26.235  12.344
 9992W        W78221  17.491  16.502  10.285
 9993W        W78222  21.270   0.896   1.769
 9994W        W78223  40.725  22.090   0.794
 9995W        W78224  36.702  26.741   3.105
 9996W        W78225   0.423  24.829   0.156
 9997W        W78226   4.909  25.420  12.805
 9998W        W78227  20.589  13.999   3.443
 9999W        W78228  42.272  22.669   4.995
10000W        W78229  44.160  27.057   2.391
10001W        W78230  38.677   2.271   2.338
10002W        W78231  23.261  10.709   0.795
10003W        W78232  15.845  44.827  13.532
10004W        W78233  13.849  23.124  11.536
10005W        W78234   2.480  39.987   2.457
10006W        W78235  23.640  20.688  12.146
10007W        W78236  39.268  35.972  11.068
10008W        W78237  27.569  24.863   4.150
10009W        W78238  34.583  26.220   4.255
10010W        W78239  35.679  10.653   3.819
10011W        W78240  11.387   3.233   4.620
10012W        W78241   2.987   0.270  12.966
10013W        W78242  15.077  11.275  13.346
10014W        W78243   5.338  31.810   0.836
10015W        W78244  38.514  32.146  10.148
10016W        W78245  14.302  25.235  10.744
10017W        W78246  27.134  30.758   3.707
10018W        W78247  25.930  26.432   2.210
10019W        W78248  15.026  14.348  11.006
10020W        W78249  21.631   1.892  12.011
10021W        W78250   6.568  24.613   3.670
10022W        W78251  13.239  16.814   0.888
10023W        W78252  31.524  37.422   4.564
10024W        W78253   3.419  23.607   2.734
10025W        W78254  32.101  24.536  14.014
10026W        W78255  15.164   5.694   4.710
10027W        W78256  37.850  41.284   2.332
10028W        W78257  36.395  23.973   0.373
10029W        W78258  23.047  34.545   3.199
10030W        W78259  24.098  21.990  13.930
10031W        W78260   0.276   7.782   3.196
10032W        W78261  28.079   6.875   3.730
10033W        W78262  11.427  18.827  11.622
10034W        W78263   2.465  14.250  14.450
10035W        W78264  17.119   2.998   4.332
10036W        W78265  35.874   3.731   5.021
10037W        W78266  31.362   6.792  13.035
10038W        W78267  11.224  44.482   4.332
10039W        W78268  27.190  25.551  13.016
10040W        W78269  27.474  20.000   3.623
10041W        W78270  20.148   0.289   2.497
10042W        W78271   0.594  23.012   1.819
10043W        W78272  15.309  32.598  13.748
10044W        W78273   9.670  32.659   2.748
10045W        W78274  44.986  28.909   0.407
10046W        W78275  12.905  32.719   3.195
10047W        W78276  38.981   5.984  11.952
10048W        W78277  27.102  13.547  12.638
10049W        W78278  27.179  16.406  12.826
10050W        W78279  20.377  31.097   3.191
10051W        W78280  23.530   1.270   0.867
10052W        W78281   0.461   7.321  13.901
10053W        W78282  20.186   6.928  10.864
10054W        W78283   5.362   1.340  13.119
10055W        W78284  11.915  26.883  14.248
10056W        W78285  20.249  37.530  10.586
10057W        W78286  30.652  36.342   3.578
10058W        W78287  23.795   9.719  14.934
10059W        W78288   7.872  12.224   2.637
10060W        W78289  30.375  37.318   0.853
10061W        W78290  35.610   5.481  11.887
10062W        W78291  10.241  33.833   3.259
10063W        W78292  44.881  26.676   2.853
10064W        W78293  30.091  31.183   3.369
10065W        W78294  17.559  29.068  14.455
10066W        W78295   1.877  16.746   1.751
10067W        W78296   1.204  10.572  10.931
10068W        W78297  34.754  36.601   3.155
10069W        W78298   0.492  17.701   2.312
10070W        W78299  31.214  38.277  12.584
10071W        W78300  16.626  33.336   2.261
10072W        W78301  42.898   5.854  13.640
10073W        W78302   7.376  10.658  11.100
10074W        W78303  20.328  14.817  13.055
10075W        W78304  42.357  36.056   1.761
10076W        W78305  36.508   5.288  14.281
10077W        W78306  33.384  44.621   1.174
10078W        W78307   9.823  10.397   2.658
10079W        W78308  13.438  10.222  11.593
10080W        W78309  15.098  33.412  14.470
10081W        W78310  11.593  37.886   2.122
10082W        W78311   7.313  17.524   1.918
10083W        W78312   7.711   6.023   4.937
10084W        W78313   4.936  28.590   0.404
10085W        W78314  43.499   1.919  10.666
10086W        W78315   3.496  27.428   3.303
10087W        W78316  40.370  40.390  14.495
10088W        W78317  15.800   8.639  10.405
10089W        W78318  11.087   2.791   3.620
10090W        W78319  20.717  42.119   2.427
10091W        W78320  28.095  39.521   4.777
10092W        W78321  36.292   0.070   0.918
10093W        W78322  37.193  19.295  11.274
10094W        W78323  11.056   7.374   0.827
10095W        W78324   8.285  15.553  12.659
10096W        W78325  21.576  40.040   3.295
10097W        W78326  37.086   3.410   0.886
10098W        W78327  38.885  17.373   1.325
10099W        W78328  31.486  14.055   1.910
10100W        W78329  10.984   6.429   0.745
10101W        W78330  42.781   7.507   2.399
10102W        W78331  20.755   8.778   1.326
10103W        W78332  41.198  16.330  12.501
10104W        W78333   1.999  40.525   0.868
10105W        W78334   2.425  14.449  13.961
10106W        W78335  22.282   8.347   2.663
10107W        W78336  39.384  40.343  10.677
10108W        W78337  30.323  13.428   3.259
10109W        W78338  33.201  25.172  12.408
10110W        W78339  40.317  28.422  11.318
10111W        W78340  10.509  18.683  12.419
10112W        W78341  22.139   3.895  11.514
10113W        W78342  30.130  29.224  12.984
10114W        W78343  28.746   2.056   4.166
10115W        W78344  12.697  38.555   3.874
10116W        W78345   7.408  11.600  13.464
10117W        W78346  32.550  41.394   3.963
10118W        W78347  16.041  29.893  10.693
10119W        W78348   8.239  29.358   3.853
10120W        W78349  19.097  32.843  12.504
10121W        W78350   0.442   2.293  14.420
10122W        W78351  39.566  15.819  12.077
10123W        W78352  18.752   7.273  11.129
10124W        W78353  18.511  41.104   1.328
10125W        W78354   0.727  18.868   0.370
10126W        W78355   5.436  14.643   3.740
10127W        W78356   5.978   0.285   0.300
10128W        W78357  30.237  13.853  12.914
10129W        W78358  36.684  33.612   5.031
10130W        W78359  26.756  25.291   3.404
10131W        W78360  14.749  33.590  12.462
10132W        W78361  25.090  21.795  11.500
10133W        W78362  14.918  19.168  12.624
10134W        W78363  38.779  17.432   0.349
10135W        W78364   9.164  25.321  11.556
10136W        W78365  15.336  38.610   1.426
10137W        W78366  24.192  19.469  14.822
10138W        W78367   2.275  33.269   1.966
10139W        W78368   1.983   8.227   4.542
10140W        W78369  30.518  28.159   2.682
10141W        W78370   2.264  18.879   3.087
10142W        W78371  14.062   2.247   0.338
10143W        W78372   8.465  24.613  14.684
10144W        W78373   3.159   6.373  14.280
10145W        W78374  12.840  22.777   4.258
10146W        W78375   9.833  39.312   2.263
10147W        W78376   6.839  12.062   3.235
10148W        W78377  26.897  30.615  14.821
10149W        W78378  34.089  16.693  11.578
10150W        W78379  18.132  28.207   3.085
10151W        W78380  34.792  37.200  11.514
10152W        W78381  42.792  34.199   3.314
10153W        W78382  30.440  10.911  10.566
10154W        W78383  29.333  17.298   1.194
10155W        W78384  32.458  26.021  11.028
10156W        W78385  29.757  38.010  13.329
10157W        W78386  40.002  42.794   4.673
10158W        W78387  28.457  21.775   0.092
10159W        W78388  41.979  12.359   2.841
10160W        W78389  22.242   3.171   0.479
10161W        W78390  13.657   2.488  10.843
10162W        W78391  40.362  30.441   0.829
10163W        W78392  25.131  13.743   2.276
10164W        W78393  18.661  36.632   5.634
10165W        W78394  21.058  20.814  13.571
10166W        W78395  29.452   2.449  13.465
10167W        W78396  13.599  29.976  13.895
10168W        W78397  31.640  44.959   4.546
10169W        W78398   9.368  28.856  13.043
10170W        W78399  25.518  23.999  13.805
10171W        W78400   5.795  13.628   4.238
10172W        W78401  19.547  34.941  12.910
10173W        W78402  34.539   9.392  10.273
10174W        W78403  44.091  25.056   0.962
10175W        W78404  26.449  41.776   3.653
10176W        W78405   9.845   1.202  14.497
10177W        W78406  19.649  13.059  12.492
10178W        W78407  35.975  10.955   0.798
10179W        W78408   2.404   8.419   1.619
10180W        W78409   2.768  19.280   1.898
10181W        W78410   8.411  28.473   4.322
10182W        W78411   1.286  22.499  12.411
10183W        W78412  33.600  22.170  13.124
10184W        W78413  11.577  11.658   2.675
10185W        W78414   4.416  18.652   1.221
10186W        W78415  16.945   2.009   1.862
10187W        W78416  17.141  41.347  10.780
10188W        W78417  26.381  42.603   2.363
10189W        W78418   6.219  41.120  12.468
10190W        W78419  19.044   1.878  11.088
10191W        W78420  37.716  38.716  13.057
10192W        W78421  18.092  35.091  13.770
10193W        W78422  42.886  40.345   0.835
10194W        W78423  23.904   2.791  14.884
10195W        W78424  16.501  27.957   4.535
10196W        W78425  31.977  22.828   0.558
10197W        W78426  29.511   7.812  12.785
10198W        W78427  28.722  40.652   4.601
10199W        W78428  35.877  15.398   2.400
10200W        W78429   2.809   0.925   1.321
10201W        W78430  33.934  17.527  14.518
10202W        W78431   6.478  41.885  11.173
10203W        W78432  36.499  43.839   2.286
10204W        W78433  15.163  17.495  14.475
10205W        W78434  41.062  33.876   1.529
10206W        W78435   5.406  24.743   1.672
10207W        W78436  41.448  43.554   0.279
10208W        W78437  21.471  41.900  14.465
10209W        W78438   4.377  24.480   2.409
10210W        W78439  29.987  11.646   0.767
10211W        W78440  17.291  31.908  13.419
10212W        W78441  11.079  16.567   0.778
10213W        W78442  25.551  31.585   9.659
10214W        W78443  10.614  40.004  11.989
10215W        W78444  39.502  23.058   2.843
10216W        W78445  40.312  26.131   1.408
10217W        W78446  35.420   9.422  10.999
10218W        W78447   3.831  35.145  14.390
10219W        W78448  37.343   3.946   4.053
10220W        W78449   4.895  44.758  13.903
10221W        W78450   2.815  13.566  10.553
10222W        W78451  25.705  44.269   1.846
10223W        W78452   1.837  14.542  12.904
10224W        W78453  36.339  20.763  12.863
10225W        W78454  16.441   4.231  14.387
10226W        W78455  26.396  14.200  10.782
10227W        W78456   4.794  11.132   0.339
10228W        W78457   4.542  10.563  10.714
10229W        W78458   5.833  18.429  12.474
10230W        W78459  20.328  43.968  13.679
10231W        W78460   9.743   8.231  11.948
10232W        W78461   0.573   8.736  14.885
10233W        W78462  15.572  16.777   3.597
10234W        W78463  15.473  23.008  14.752
10235W        W78464  17.709  13.869   3.801
10236W        W78465  33.546  41.046  10.372
10237W        W78466  10.702   2.414  14.999
10238W        W78467  32.441  34.544  10.452
10239W        W78468   6.411  11.102   3.978
10240W        W78469  12.166  21.514  13.380
10241W        W78470  36.311   4.263   0.273
10242W        W78471  25.924  13.251   1.646
10243W        W78472   9.514   3.224  13.447
10244W        W78473  27.708  21.759   1.022
10245W        W78474  16.264  13.468   3.147
10246W        W78475  25.205  17.288   0.328
10247W        W78476  10.220  14.929   4.922
10248W        W78477  36.446  41.335  13.337
10249W        W78478  15.349  28.272   2.894
10250W        W78479  36.978  41.537  12.614
10251W        W78480  19.594  20.240   1.718
10252W        W78481  44.904  44.938   2.365
10253W        W78482   8.828   9.206  12.052
10254W        W78483  41.427   2.008  14.880
10255W        W78484  16.091  14.672  11.627
10256W        W78485  20.297  35.532   3.505
10257W        W78486   3.662  40.805  14.118
10258W        W78487  40.418  42.993  14.571
10259W        W78488   7.371  23.111   3.851
10260W        W78489  22.912   3.331   3.240
10261W        W78490  11.693  44.540   3.566
10262W        W78491  43.947  27.703  11.591
10263W        W78492  14.064   7.506   3.347
10264W        W78493  38.928  11.086  14.347
10265W        W78494  16.221   4.458  14.821
10266W        W78495  40.218  31.291   1.198
10267W        W78496  42.100  27.083  11.161
10268W        W78497  43.169  15.751  11.638
10269W        W78498   1.982   9.500   1.070
10270W        W78499   9.935  43.896   3.875
10271W        W78500  15.723  17.999   0.977
10272W        W78501   8.196  34.107  12.571
10273W        W78502  18.340  22.587   1.809
10274W        W78503  15.583  42.843  10.924
10275W        W78504   3.919  14.158  13.326
10276W        W78505  30.226  21.305  13.023
10277W        W78506  14.804  10.450   2.457
10278W        W78507  38.809  14.283  11.248
10279W        W78508  40.034  25.636   0.215
10280W        W78509  32.825   4.255   2.347
10281W        W78510   1.170  36.372  14.501
10282W        W78511  38.509  33.009   5.168
10283W        W78512  12.587  14.895   3.196
10284W        W78513  37.145  26.275  12.818
10285W        W78514   0.910   2.859   1.899
10286W        W78515  42.433   4.767   4.362
10287W        W78516  34.540   2.421   1.070
10288W        W78517  21.816  35.415  11.998
10289W        W78518  40.167  27.743  10.311
10290W        W78519  37.890   4.765   0.750
10291W        W78520  16.683  27.460   2.235
10292W        W78521   7.070   7.931   2.643
10293W        W78522  40.129   0.209  11.693
10294W        W78523  43.941  25.547   0.979
10295W        W78524  38.896  10.717  13.498
10296W        W78525  13.261  40.262   3.342
10297W        W78526  33.166  11.726   1.453
10298W        W78527   8.044  19.457   3.232
10299W        W78528  27.447  41.303   0.829
10300W        W78529  36.355  31.951  10.627
10301W        W78530  31.147  25.520   4.761
10302W        W78531   4.672  18.522  13.167
10303W        W78532  38.558  13.931  13.467
10304W        W78533  25.270  28.723  12.633
10305W        W78534  28.452   9.123   4.612
10306W        W78535  13.036  40.509   1.375
10307W        W78536  21.408  38.806  13.809
10308W        W78537  41.106  39.147   1.183
10309W        W78538  10.693  31.007   4.553
10310W        W78539  23.559  37.014  10.145
10311W        W78540   2.834   4.966   0.401
10312W        W78541  21.314  15.085  14.339
10313W        W78542   0.369  21.209  13.807
10314W        W78543   0.243  42.058  12.056
10315W        W78544   4.457  34.138  12.072
10316W        W78545   7.708  34.763   2.653
10317W        W78546  33.354  30.180   2.754
10318W        W78547  33.594  42.794   5.073
10319W        W78548  44.422  41.554   1.298
10320W        W78549   4.081  44.070   4.122
10321W        W78550  10.501  32.471  10.682
10322W        W78551  35.000  24.627  10.345
10323W        W78552  23.218  34.036   3.191
10324W        W78553   6.465  33.889   1.851
10325W        W78554  26.672   2.657  14.732
10326W        W78555  30.450  38.593  13.091
10327W        W78556  24.620   3.567  12.456
10328W        W78557  26.677  42.373   1.738
10329W        W78558   5.477  14.190   2.111
10330W        W78559  25.529  27.970  11.460
10331W        W78560  32.447   5.593  11.508
10332W        W78561   7.423  36.831  12.473
10333W        W78562  19.723  20.821  13.588
10334W        W78563  27.678   6.886  13.556
10335W        W78564  28.650   0.773   2.933
10336W        W78565   2.289  20.194   2.063
10337W        W78566  21.477  28.636  14.866
10338W        W78567  21.605  44.335   3.176
10339W        W78568  31.181  19.617  12.555
10340W        W78569  14.632  21.669   2.402
10341W        W78570   6.902  37.928   0.799
10342W        W78571  32.971  28.146   1.879
10343W        W78572  23.078  30.863  12.374
10344W        W78573   9.447   8.349   3.220
10345W        W78574  44.793  29.054  13.489
10346W        W78575  44.762  20.188  11.820
10347W        W78576   3.416  32.673  14.908
10348W        W78577   2.958  34.515   1.259
10349W        W78578  45.000  30.098  14.021
10350W        W78579  38.417  14.140   3.717
10351W        W78580  41.971  15.672  10.144
10352W        W78581  28.599  26.062  14.314
10353W        W78582  12.194  16.805  14.465
10354W        W78583  35.111  36.927   2.922
10355W        W78584  23.427  44.985  13.435
10356W        W78585  19.387   4.694  11.636
10357W        W78586  36.050  22.255  13.412
10358W        W78587  16.638  14.753   4.559
10359W        W78588  11.817   1.952  11.994
10360W        W78589  44.459  33.669  13.359
10361W        W78590  41.217  31.021  13.123
10362W        W78591  13.572  24.479  12.676
10363W        W78592  19.019   3.196   3.811
10364W        W78593  44.512   8.283  11.568
10365W        W78594  40.862  38.757  12.257
10366W        W78595   1.312  43.035  12.754
10367W        W78596  34.585  35.318  14.791
10368W        W78597  16.397  18.038  11.018
10369W        W78598  44.814  34.113   3.081
10370W        W78599  35.504   9.810  12.539
10371W        W78600   4.690  36.448  12.862
10372W        W78601  27.448  36.056   1.305
10373W        W78602   3.257  28.639  14.474
10374W        W78603  35.969  13.159   3.579
10375W        W78604  29.613   8.616   4.818
10376W        W78605   9.261  38.443   3.867
10377W        W78606  23.808   8.136  12.677
10378W        W78607   1.965  33.088  10.232
10379W        W78608  17.623   5.639  10.760
10380W        W78609  30.373  33.488  14.258
10381W        W78610  16.838  20.426   0.574
10382W        W78611   5.415  34.860   4.300
10383W        W78612  43.814  25.522   2.722
10384W        W78613  36.901  33.461  10.807
10385W        W78614  29.840   8.971  11.135
10386W        W78615  11.237  22.942  11.408
10387W        W78616  28.554  40.573   2.441
10388W        W78617  37.126  12.863  10.620
10389W        W78618  12.773  16.742   1.097
10390W        W78619  31.498  38.925  14.533
10391W        W78620  22.642  38.456  14.865
10392W        W78621  34.376  10.080   0.199
10393W        W78622  27.275  44.946   1.277
10394W        W78623  28.386  35.321   4.494
10395W        W78624   2.864  18.594  14.562
10396W        W78625   5.395  25.232   1.826
10397W        W78626  44.467  38.414  10.700
10398W        W78627  11.228   2.483  11.404
10399W        W78628  10.703  28.202  13.039
10400W        W78629  22.508  16.652  14.021
10401W        W78630  35.665  16.790  11.520
10402W        W78631   6.403   6.643   0.326
10403W        W78632  31.964  42.774   2.760
10404W        W78633  44.480  30.021  14.058
10405W        W78634   4.407   2.567  11.967
10406W        W78635  19.657  24.280  11.909
10407W        W78636  41.561  41.125   0.293
10408W        W78637  42.208  37.356  10.317
10409W        W78638  18.642  35.883   2.192
10410W        W78639  41.623  28.578   4.773
10411W        W78640   3.983  20.775   3.396
10412W        W78641  19.161  23.271   4.558
10413W        W78642  35.444   1.984   3.631
10414W        W78643   6.276  12.082  14.787
10415W        W78644  22.507   0.954   1.240
10416W        W78645   1.453   5.256   1.748
10417W        W78646   5.841  19.333  10.592
10418W        W78647  11.197  43.675   2.719
10419W        W78648  14.528   2.123   4.254
10420W        W78649  34.090   0.456   0.529
10421W        W78650  22.870  23.482  11.160
10422W        W78651  42.946  12.745  11.433
10423W        W78652  17.613  40.452   2.749
10424W        W78653  38.468  20.636   3.650
10425W        W78654  33.920  24.421   1.862
10426W        W78655   8.152  25.184  14.433
10427W        W78656  27.603  22.239  12.403
10428W        W78657  14.403   6.686  13.579
10429W        W78658   2.287  44.083  12.069
10430W        W78659  31.294  21.205   3.266
10431W        W78660  23.353  34.608   0.980
10432W        W78661   0.792  43.429  14.865
10433W        W78662   3.778  11.710  10.697
10434W        W78663  37.550  28.526  11.594
10435W        W78664  32.027   2.234   2.725
10436W        W78665   6.142   0.071  13.488
10437W        W78666  32.674   0.450  14.567
10438W        W78667  24.997   4.464   0.804
10439W        W78668  16.144  21.747  11.708
10440W        W78669  43.966  36.579   2.777
10441W        W78670  25.509   1.387  11.383
10442W        W78671   5.447  22.120   2.270
10443W        W78672  39.464  22.653  14.875
10444W        W78673  38.311  28.550  11.106
10445W        W78674  11.158  11.854   2.869
10446W        W78675   8.559  44.905  14.892
10447W        W78676  29.506  29.557  14.079
10448W        W78677   8.404  21.484  13.312
10449W        W78678  30.733   0.493  12.588
10450W        W78679  31.429  10.705  12.387
10451W        W78680  41.952   9.698   0.746
10452W        W78681   5.414  11.827  14.278
10453W        W78682  35.524  20.194  11.960
10454W        W78683  37.523   1.721  13.396
10455W        W78684   9.701   2.408  10.538
10456W        W78685   3.715  31.370   1.230
10457W        W78686  26.506  14.180   2.014
10458W        W78687  14.306   0.437   1.666
10459W        W78688  13.652  18.027   3.295
10460W        W78689   1.378   0.350  10.503
10461W        W78690  36.247  44.694   3.631
10462W        W78691  37.009  37.389  14.714
10463W        W78692  30.690   3.244   1.331
10464W        W78693  42.338  16.257   3.765
10465W        W78694  35.162  34.975   3.675
10466W        W78695  40.417  21.494   4.129
10467W        W78696  14.421  12.478   4.958
10468W        W78697  29.146  10.811   3.776
10469W        W78698   3.139  38.419  12.489
10470W        W78699  23.139   1.163  11.919
10471W        W78700  21.236  41.971  12.191
10472W        W78701  41.749  24.821  10.786
10473W        W78702  44.090   9.461  11.202
10474W        W78703  10.881  11.657  11.223
10475W        W78704   1.710   2.702   3.299
10476W        W78705  19.996  40.923   3.545
10477W        W78706  31.180  13.264   2.848
10478W        W78707  15.023   1.376  14.822
10479W        W78708  34.102  24.161  14.517
10480W        W78709  16.734  27.813  12.943
10481W        W78710  14.255  27.155   4.110
10482W        W78711  10.880  27.485   0.768
10483W        W78712  26.734  10.343   3.780
10484W        W78713  32.700   2.246   1.666
10485W        W78714   6.726  44.641   1.835
10486W        W78715  37.798  24.605   0.475
10487W        W78716   3.348  24.903  14.060
10488W        W78717  11.781  14.361   2.361
10489W        W78718  19.974  41.198  13.381
10490W        W78719   7.651  17.050  12.971
10491W        W78720  29.406  34.106  11.498
10492W        W78721   6.447  12.176   0.591
10493W        W78722   3.465   2.880   4.862
10494W        W78723   9.290  29.936   3.217
10495W        W78724  25.523   5.416  14.976
10496W        W78725  22.127  39.058   3.869
10497W        W78726  13.324  15.531  11.123
10498W        W78727  43.952  12.161   1.031
10499W        W78728  30.852  36.523  14.162
10500W        W78729  20.634  35.417   5.277
10501W        W78730  12.115  22.572   0.749
10502W        W78731  20.289  26.547   0.198
10503W        W78732  11.633  13.288   4.601
10504W        W78733   1.385  14.768  12.899
10505W        W78734   2.006  20.087   0.117
10506W        W78735  31.423  16.091   3.190
10507W        W78736  31.096   8.615  13.536
10508W        W78737  19.796  32.504  14.487
10509W        W78738  10.477  41.803   0.811
10510W        W78739  36.917  19.955   2.423
10511W        W78740  26.645  29.359  10.567
10512W        W78741  29.329  21.215  14.885
10513W        W78742   9.987  32.270   2.843
10514W        W78743  24.324  30.052   4.303
10515W        W78744   9.317  44.220   4.652
10516W        W78745  17.816   9.601  14.549
10517W        W78746  28.132   7.331  14.975
10518W        W78747   0.068  24.758  10.753
10519W        W78748  44.437   8.138   3.563
10520W        W78749  14.448  36.027   0.374
10521W        W78750  30.987  36.145   1.836
10522W        W78751  13.118  26.606   1.891
10523W        W78752  43.738  19.081   2.938
10524W        W78753  22.270   4.228   2.794
10525W        W78754  22.123  31.903  14.461
10526W        W78755   8.402   6.914   1.249
10527W        W78756  19.046  41.305  13.589
10528W        W78757  14.269   0.731   0.691
10529W        W78758  43.563  15.437   4.926
10530W        W78759  34.491   5.337   1.285
10531W        W78760  40.547  36.596   4.743
10532W        W78761   5.155  41.293  12.427
10533W        W78762  22.178   1.037   4.198
10534W        W78763  19.748   6.296  12.962
10535W        W78764   4.770  13.362  11.616
10536W        W78765   7.884  40.400   1.550
10537W        W78766  14.414  40.495   0.805
10538W        W78767   2.357  33.022  14.731
10539W        W78768  11.136   0.822  10.552
10540W        W78769  22.550  43.430   3.315
10541W        W78770  34.506  11.664  10.608
10542W        W78771  34.953  11.116  11.552
10543W        W78772  40.247  30.507   4.067
10544W        W78773  38.231  31.632   3.107
10545W        W78774  36.503  36.402   3.332
10546W        W78775  35.377  16.796   0.475
10547W        W78776  19.883  36.741  13.395
10548W        W78777  27.851  18.356  11.079
10549W        W78778  18.855  37.731   4.932
10550W        W78779  24.909  10.149   2.320
10551W        W78780   2.836  10.556  13.965
10552W        W78781  26.722  43.796   0.463
10553W        W78782  40.892  18.198   3.090
10554W        W78783  14.726  34.049   2.561
10555W        W78784  22.696  43.650   1.983
10556W        W78785  36.454  22.453   3.224
10557W        W78786   1.290  11.710  14.824
10558W        W78787  35.670  36.102  14.063
10559W        W78788  28.393  23.833  14.501
10560W        W78789  21.627  11.658   1.774
10561W        W78790   4.302  26.980   0.891
10562W        W78791  13.878  24.125   9.998
10563W        W78792  13.795  16.027   2.836
10564W        W78793   7.323  44.487  11.031
10565W        W78794  20.464   8.282   4.639
10566W        W78795  42.011   4.678  12.156
10567W        W78796  25.441  35.862  13.594
10568W        W78797  43.389  18.081   1.295
10569W        W78798  17.138   9.063  13.967
10570W        W78799  43.509  40.337  14.843
10571W        W78800  30.809   0.371   1.312
10572W        W78801  13.580  30.736   2.259
10573W        W78802  43.841   9.506   3.832
10574W        W78803   4.170  40.353  12.107
10575W        W78804  39.262  35.524  13.862
10576W        W78805   2.889   8.623  12.012
10577W        W78806  17.658  29.318  12.854
10578W        W78807  15.621  15.764   3.718
10579W        W78808  20.236  35.448   2.646
10580W        W78809  15.892   9.757   1.939
10581W        W78810  32.029  10.910   0.385
10582W        W78811  20.220  38.672  12.489
10583W        W78812   4.221  27.798  14.264
10584W        W78813   5.222  39.861  13.585
10585W        W78814  32.654   4.792   4.502
10586W        W78815  36.887   5.266  14.902
10587W        W78816   3.113  32.461   1.380
10588W        W78817  19.388   9.223  11.914
10589W        W78818  10.853  33.687  12.054
10590W        W78819  34.735  23.237  12.843
10591W        W78820  16.932  10.703   0.682
10592W        W78821  12.925  17.722  10.727
10593W        W78822  42.181   4.288   1.673
10594W        W78823  38.874  24.195  13.043
10595W        W78824  32.121  19.218   1.424
10596W        W78825  28.798  22.527  14.732
10597W        W78826  30.135  41.799   2.398
10598W        W78827  34.604  33.159   4.317
10599W        W78828  12.694  20.503   4.547
10600W        W78829  26.978  26.465  14.868
10601W        W78830   0.234  10.263  14.944
10602W        W78831  35.223   3.415  11.178
10603W        W78832  22.980  14.575  14.451
10604W        W78833  26.148  27.609  11.396
10605W        W78834  38.866   2.335  12.345
10606W        W78835  39.778  40.890   2.952
10607W        W78836   4.353  31.037   2.428
10608W        W78837   9.936  35.298  12.003
10609W        W78838   5.457  15.721  14.804
10610W        W78839  21.078   2.549   4.183
10611W        W78840  39.905  29.924  11.585
10612W        W78841  43.413  19.596   2.198
10613W        W78842  27.428   5.448  13.590
10614W        W78843  36.492  43.731   0.458
10615W        W78844  23.474  29.853   3.727
10616W        W78845   6.666  39.603  12.803
10617W        W78846   2.798  38.837   5.264
10618W        W78847  27.229  44.812   4.287
10619W        W78848  33.425   6.283  11.273
10620W        W78849  16.075  21.063  12.288
10621W        W78850  24.390  36.789  12.927
10622W        W78851  32.072  33.369  12.055
10623W        W78852  39.078   4.888  11.949
10624W        W78853  32.182  23.168   2.253
10625W        W78854  31.077  17.470  14.033
10626W        W78855  11.503  19.597  12.638
10627W        W78856   2.189  28.588   1.675
10628W        W78857  12.090  31.036  12.027
10629W        W78858  22.927  42.764  11.489
10630W        W78859  43.090  22.736  14.782
10631W        W78860  36.172  23.674   3.220
10632W        W78861   5.698   2.501   0.876
10633W        W78862   1.746  43.692   2.132
10634W        W78863  15.232   5.837   2.363
10635W        W78864  42.084  18.069   2.623
10636W        W78865  12.348   7.329   2.187
10637W        W78866  34.607  33.427  13.958
10638W        W78867  14.616  26.633   3.091
10639W        W78868  12.101  30.517  10.762
10640W        W78869  35.709  39.239  14.717
10641W        W78870   9.609  31.867  12.029
10642W        W78871  15.069  35.848   3.150
10643W        W78872   6.821  35.069   1.815
10644W        W78873  18.634  35.540  14.278
10645W        W78874  24.492  14.388  12.435
10646W        W78875  11.708  31.558   4.238
10647W        W78876  35.004  18.387   4.670
10648W        W78877  43.747  23.429   4.718
10649W        W78878  29.064  28.885   3.650
10650W        W78879  22.756  12.706   1.937
10651W        W78880  23.649  33.700  13.842
10652W        W78881   0.287  29.206  12.557
10653W        W78882  12.346  29.973  13.212
10654W        W78883  41.419   7.959  14.438
10655W        W78884   6.783  26.285   3.033
10656W        W78885  33.901  19.271   1.690
10657W        W78886  10.653  18.761  10.821
10658W        W78887  30.607  15.278   1.681
10659W        W78888  38.786  39.900  13.772
10660W        W78889  26.878  17.459  14.890
10661W        W78890   3.478  17.698   2.853
10662W        W78891   2.919   9.866   2.475
10663W        W78892  34.933  36.077   2.829
10664W        W78893  27.680  35.773  14.988
10665W        W78894  21.899  12.335   4.435
10666W        W78895  34.112   8.496  14.086
10667W        W78896  26.593  43.522  14.084
10668W        W78897  22.703  17.720   4.510
10669W        W78898  39.635  25.099  12.532
10670W        W78899  14.026  31.598  14.447
10671W        W78900   8.135  11.091   3.685
10672W        W78901  34.367  43.967  12.605
10673W        W78902   9.920  27.593  11.471
10674W        W78903  42.301  14.795  14.899
10675W        W78904   6.288  32.842   3.285
10676W        W78905  42.064   5.929   1.318
10677W        W78906  24.953   5.227   1.683
10678W        W78907   9.719  23.285   0.834
10679W        W78908  23.118  10.294   4.737
10680W        W78909  30.498  17.174   0.399
10681W        W78910  28.181  42.179  14.299
10682W        W78911   8.014  44.321  11.533
10683W        W78912  23.559   1.958  12.859
10684W        W78913   0.666  28.911   3.670
10685W        W78914   5.074  43.260   3.657
10686W        W78915   2.313  14.355  12.942
10687W        W78916  13.219  40.116  14.523
10688W        W78917  18.739  27.561  12.990
10689W        W78918  25.531  28.260   0.269
10690W        W78919  19.314  13.129  10.478
10691W        W78920  11.136   9.381   3.788
10692W        W78921   3.466  19.465  10.451
10693W        W78922   2.262   1.875  13.147
10694W        W78923  30.983  30.102  14.889
10695W        W78924  19.553  39.780  10.785
10696W        W78925   3.731  16.328   1.972
10697W        W78926  24.003  15.060  12.799
10698W        W78927  27.184  11.861   0.793
10699W        W78928  38.774   4.980  14.917
10700W        W78929  31.872   0.798  12.985
10701W        W78930  24.326  28.663  10.458
10702W        W78931  17.522  39.114   1.399
10703W        W78932   0.315  14.769  12.599
10704W        W78933  34.339  15.827   0.371
10705W        W78934  24.036   8.255   4.633
10706W        W78935  21.112  23.910  14.128
10707W        W78936   5.325  40.060   4.635
10708W        W78937  24.536  21.680   3.535
10709W        W78938  12.217  29.441   0.341
10710W        W78939   7.332  27.682  12.520
10711W        W78940  43.090  36.376   3.854
10712W        W78941   1.830  22.135  10.711
10713W        W78942  22.173   7.818  14.015
10714W        W78943  35.329  39.116  12.933
10715W        W78944  17.974  15.070   2.370
10716W        W78945  35.326   1.767   1.921
10717W        W78946   4.350  32.771  13.287
10718W        W78947   1.372  26.633   3.456
10719W        W78948   2.939  34.068  10.647
10720W        W78949  31.906  15.780  11.146
10721W        W78950  10.192   7.411  13.070
10722W        W78951  12.104  38.579   4.165
10723W        W78952  21.084  35.833   4.576
10724W        W78953   4.020   4.241   3.542
10725W        W78954  36.046   9.779   4.659
10726W        W78955  34.505  39.361   0.366
10727W        W78956  12.239  25.103   3.578
10728W        W78957  33.891  22.573   1.290
10729W        W78958   7.309  25.130   3.007
10730W        W78959  34.299  32.444  11.790
10731W        W78960   7.377  44.933  14.044
10732W        W78961   4.541  37.268  11.051
10733W        W78962  25.028  29.112   4.293
10734W        W78963  26.534  21.486  11.991
10735W        W78964  32.092  12.878   1.883
10736W        W78965  40.937  28.565   4.128
10737W        W78966   0.933  36.509  14.047
10738W        W78967  21.447  19.019   0.236
10739W        W78968  31.883   9.795   3.248
10740W        W78969  38.215  14.740  10.586
10741W        W78970   4.896  16.557  13.457
10742W        W78971  32.369  16.310  11.935
10743W        W78972  32.272  21.978  13.463
10744W        W78973  18.733  28.517  10.720
10745W        W78974   4.575  17.505   3.249
10746W        W78975  31.986  22.744  14.106
10747W        W78976  42.303  21.482  11.529
10748W        W78977   0.436  31.685   4.461
10749W        W78978  36.537   8.796  12.460
10750W        W78979  32.976  17.426   2.983
10751W        W78980  26.853  43.374   0.755
10752W        W78981  10.367   3.321   0.822
10753W        W78982  22.870  31.911  11.523
10754W        W78983  26.204  33.460  12.288
10755W        W78984   9.383  44.425   0.915
10756W        W78985  35.426  28.843  12.012
10757W        W78986  17.848  31.266  11.964
10758W        W78987  25.530  35.349   3.151
10759W        W78988  20.979  28.681   4.473
10760W        W78989  22.811  43.635   3.726
10761W        W78990  20.139  17.831  14.417
10762W        W78991   3.398  10.909  11.083
10763W        W78992  11.875   0.272  10.814
10764W        W78993  35.105  11.884  11.148
10765W        W78994  13.159  23.235  10.997
10766W        W78995   0.906  38.485   1.928
10767W        W78996  32.594  23.640  10.306
10768W        W78997  12.606  24.328  11.951
10769W        W78998  14.373  36.987   4.536
10770W        W78999   1.050  44.939  10.540
10771W        W79000  34.032   9.312   4.974
10772W        W79001  43.773  15.725  14.443
10773W        W79002   8.243  40.836  12.091
10774W        W79003  36.070  22.349  14.793
10775W        W79004  38.547  40.981   2.139
10776W        W79005   4.242  41.422   2.496
10777W        W79006  22.708  14.151  11.808
10778W        W79007  44.340   3.920  10.462
10779W        W79008   5.730  42.295  11.231
10780W        W79009  29.134  21.465  11.553
10781W        W79010  22.815  34.488  10.715
10782W        W79011  20.558  24.584  11.957
10783W        W79012  17.268  17.648   2.611
10784W        W79013  17.492   3.956   1.672
10785W        W79014  12.570  16.140   4.041
10786W        W79015  39.105  10.631   2.746
10787W        W79016   9.317  11.769   3.606
10788W        W79017  15.986   5.379   0.028
10789W        W79018  21.114  16.239   4.430
10790W        W79019  33.033  10.693  13.976
10791W        W79020  11.068  36.542   0.011
10792W        W79021  25.177   2.024  12.637
10793W        W79022  12.779  37.587   2.235
10794W        W79023   3.917  30.426  14.241
10795W        W79024   0.923   2.328   1.808
10796W        W79025  29.751  39.979   1.369
10797W        W79026  15.333   2.357   1.316
10798W        W79027  25.608   5.299   1.459
10799W        W79028  26.165  37.784  11.623
10800W        W79029  11.075  15.850  11.491
10801W        W79030  10.020  26.640   4.584
10802W        W79031  22.025  32.619  14.060
10803W        W79032  18.150   8.397  10.968
10804W        W79033  22.537  33.479   4.878
10805W        W79034  13.864  10.127  12.009
10806W        W79035  44.710  27.923   9.825
10807W        W79036   1.179  28.938   0.771
10808W        W79037  20.217  28.957  14.274
10809W        W79038   0.427  22.285   0.793
10810W        W79039  10.249  43.030  11.090
10811W        W79040  35.534  28.856  13.889
10812W        W79041   8.139   3.838  13.424
10813W        W79042  23.002  31.967  12.389
10814W        W79043  26.050  44.716   3.469
10815W        W79044  22.355  15.345  14.251
10816W        W79045  42.842   9.657  10.519
10817W        W79046  40.518   4.129  11.546
10818W        W79047  10.222  32.381  10.254
10819W        W79048  28.377  19.036  10.299
10820W        W79049   2.689   6.705   4.528
10821W        W79050  21.746   0.946   0.794
10822W        W79051  14.316  12.905   0.730
10823W        W79052  33.163  44.340   1.947
10824W        W79053  21.307   4.631   2.058
10825W        W79054   3.909  30.391  14.753
10826W        W79055  11.672  38.453   0.955
10827W        W79056  31.337   1.725  12.068
10828W        W79057  44.473   8.935   1.864
10829W        W79058  26.156  11.657  12.139
10830W        W79059  23.971   3.487   2.156
10831W        W79060  41.921  15.770  10.852
10832W        W79061   3.437  10.823   0.514
10833W        W79062  13.555   1.952  11.560
10834W        W79063   8.678  41.310   0.293
10835W        W79064  34.469  30.906  12.832
10836W        W79065   6.732  41.948   5.077
10837W        W79066  12.363  20.724  10.669
10838W        W79067  18.614  30.099   2.734
10839W        W79068  30.341  13.648   2.775
10840W        W79069   0.977   3.451  13.806
10841W        W79070  44.191  21.001   2.349
10842W        W79071   1.700  44.996   3.007
10843W        W79072  41.835  36.237  12.609
10844W        W79073  41.373  30.618   1.330
10845W        W79074   7.863   9.682  13.903
10846W        W79075   3.398  17.858   0.400
10847W        W79076  36.585  23.672   2.883
10848W        W79077  30.934  19.260   3.161
10849W        W79078   2.593  32.479  13.401
10850W        W79079  35.674  39.343   2.691
10851W        W79080   0.533  41.883   0.641
10852W        W79081  43.092  34.067   2.374
10853W        W79082  23.042  16.656   0.859
10854W        W79083   2.230   4.162  12.548
10855W        W79084  44.438  28.169  11.604
10856W        W79085   6.332   4.731   2.308
10857W        W79086   4.445  26.443   0.890
10858W        W79087  11.730  31.026   3.401
10859W        W79088  21.803  29.478  11.034
10860W        W79089   6.394  10.153  12.776
10861W        W79090  19.932  16.260  11.663
10862W        W79091  30.514  38.048  13.030
10863W        W79092  18.019  38.927   0.448
10864W        W79093  28.730  26.637   4.047
10865W        W79094  32.265   7.262   3.763
10866W        W79095  13.288  40.984   2.768
10867W        W79096   7.919  39.472  11.493
10868W        W79097  22.678  21.810  11.763
10869W        W79098  37.919   5.612  13.942
10870W        W79099  13.869  35.085   0.305
10871W        W79100   3.314  34.978  12.253
10872W        W79101   8.889  34.669  14.838
10873W        W79102  27.073  43.015   5.180
10874W        W79103  29.251   2.056  11.046
10875W        W79104  30.547  31.144  13.587
10876W        W79105   5.910  37.696  13.385
10877W        W79106  17.867  13.637  11.163
10878W        W79107  43.554  28.724   1.004
10879W        W79108  42.342  33.577  10.554
10880W        W79109  36.199   2.176  12.180
10881W        W79110  35.048   1.931   2.335
10882W        W79111  20.769  27.434   4.545
10883W        W79112  36.940  41.375  13.523
10884W        W79113   0.470  34.706   4.440
10885W        W79114   0.376  40.921  14.035
10886W        W79115  20.793  16.406  11.091
10887W        W79116   7.256  18.953   3.676
10888W        W79117  30.042  19.835   1.757
10889W        W79118  24.413  27.446  14.822
10890W        W79119   2.296  33.063  12.795
10891W        W79120  29.403   4.632   2.361
10892W        W79121   3.991  35.336  10.701
10893W        W79122  37.046   6.112   5.380
10894W        W79123  12.813   2.909   1.461
10895W        W79124   5.479  10.379   2.814
10896W        W79125  35.548  38.999  10.997
10897W        W79126  16.663   7.704  13.876
10898W        W79127  29.365  42.277  13.963
10899W        W79128   7.406   7.744  13.590
10900W        W79129   8.011  27.959   2.726
10901W        W79130   3.790   8.627   0.473
10902W        W79131   3.749   8.804  11.708
10903W        W79132  21.661  22.955   2.674
10904W        W79133  35.430  35.855   4.093
10905W        W79134   0.268  27.621   2.211
10906W        W79135  44.254  15.253  13.546
10907W        W79136  31.099  33.959  13.241
10908W        W79137  38.991  21.043  12.919
10909W        W79138  29.368  22.692   1.891
10910W        W79139  26.339   6.834  12.740
10911W        W79140  35.453   5.486   4.655
10912W        W79141   9.146  40.849   4.775
10913W        W79142  27.054   7.507   2.682
10914W        W79143   1.615  16.764  14.914
10915W        W79144  24.531  44.969  12.435
10916W        W79145  24.473  18.561  12.608
10917W        W79146  37.481  21.153   1.350
10918W        W79147  29.521  22.491  13.810
10919W        W79148  17.295  37.393  14.231
10920W        W79149  37.478  38.431  11.430
10921W        W79150  10.148  40.795  12.011
10922W        W79151  20.490  21.093  13.017
10923W        W79152  16.310  29.903  13.441
10924W        W79153  23.047  41.401   0.752
10925W        W79154  17.797   0.006  14.598
10926W        W79155  36.817   8.116   1.661
10927W        W79156  43.923  22.502  11.547
10928W        W79157  11.036  26.505  13.866
10929W        W79158   8.149  30.774   0.594
10930W        W79159  22.495   6.699  11.591
10931W        W79160  37.216  26.551  14.922
10932W        W79161  26.122  23.421   4.698
10933W        W79162   4.208   8.443   3.745
10934W        W79163   6.920   6.253   4.735
10935W        W79164   9.882  15.257   0.752
10936W        W79165   6.688  32.588  10.378
10937W        W79166  15.564  19.988   3.809
10938W        W79167  25.988  14.783  10.280
10939W        W79168   5.776  17.072  13.385
10940W        W79169   3.456   9.824  14.552
10941W        W79170  24.122  39.253   0.824
10942W        W79171   5.512  24.600  12.544
10943W        W79172   1.914  39.304   1.405
10944W        W79173   7.614  42.522  12.911
10945W        W79174  41.960   3.922   4.244
10946W        W79175  10.496  36.010   2.454
10947W        W79176  36.587  33.665  12.066
10948W        W79177   5.486  14.156   0.482
10949W        W79178   5.743  41.739  14.990
10950W        W79179  31.689  22.518  14.644
10951W        W79180   0.784  38.831   1.333
10952W        W79181  40.975  32.172  12.085
10953W        W79182  35.015  44.886  14.378
10954W        W79183  18.645  24.123  12.109
10955W        W79184  23.752   0.272  11.393
10956W        W79185   7.780  30.361  11.873
10957W        W79186  21.566   2.443  14.616
10958W        W79187  23.059  24.046   3.653
10959W        W79188  10.804  24.774  11.496
10960W        W79189  40.411  26.587   5.071
10961W        W79190  10.322  39.749  11.066
10962W        W79191  25.006  18.858  14.666
10963W        W79192   9.283  20.468   2.513
10964W        W79193  20.081  22.608   2.295
10965W        W79194  39.485  25.128  10.685
10966W        W79195  44.337  27.745   3.114
10967W        W79196   6.403  38.738  12.901
10968W        W79197  38.938   8.224   4.037
10969W        W79198  30.856  14.785   3.322
10970W        W79199   8.841  40.255   4.616
10971W        W79200  41.260  44.926   0.683
10972W        W79201  21.495  11.876   0.459
10973W        W79202  23.422  19.782  10.750
10974W        W79203  25.863  15.771   1.847
10975W        W79204  36.625  15.387  14.812
10976W        W79205  37.707  36.282  14.906
10977W        W79206  26.046   9.367  14.804
10978W        W79207   8.957  32.116   3.648
10979W        W79208   5.904   7.993   1.375
10980W        W79209  32.662  40.858  11.893
10981W        W79210   1.969  11.336  11.901
10982W        W79211  38.514  41.077   3.640
10983W        W79212  44.732  37.914   3.085
10984W        W79213  36.537  11.629  10.570
10985W        W79214  20.170  25.514   4.563
10986W        W79215  12.645  44.689  12.856
10987W        W79216   1.639  33.965  13.319
10988W        W79217  13.078  35.005   3.772
10989W        W79218  17.569  14.784  13.968
10990W        W79219   4.595  19.833   3.696
10991W        W79220  27.348  35.159   5.078
10992W        W79221  20.015  11.856   2.194
10993W        W79222  13.312   5.511   1.642
10994W        W79223  34.574  22.900  12.484
10995W        W79224  36.344  29.476   3.638
10996W        W79225  34.694   6.751  14.266
10997W        W79226  10.815  30.225  13.966
10998W        W79227  41.022   2.411  11.566
10999W        W79228  24.171  18.843   4.487
11000W        W79229  30.025  12.464  12.689
11001W        W79230  37.479   2.884  14.077
11002W        W79231  17.373  43.577  14.816
11003W        W79232  35.801  10.219  11.378
11004W        W79233  20.746  22.431   2.668
11005W        W79234  19.477   8.843   2.761
11006W        W79235   5.751  22.857  14.737
11007W        W79236  13.572  36.855   1.704
11008W        W79237  22.186  43.490  12.452
11009W        W79238  16.753   3.527   3.103
11010W        W79239  42.075  27.136   2.417
11011W        W79240  24.498  28.465   1.671
11012W        W79241  25.734  10.146   2.832
11013W        W79242  26.593   6.929  12.064
11014W        W79243  29.925  32.014  14.286
11015W        W79244  24.239  23.475   4.756
11016W        W79245  13.318  36.430  11.497
11017W        W79246  31.058  33.344   1.852
11018W        W79247   5.166  39.931  10.767
11019W        W79248   4.335  42.320  10.561
11020W        W79249  15.118  20.772  10.683
11021W        W79250   8.806   0.782  13.144
11022W        W79251  10.351  37.381  10.892
11023W        W79252  30.067  31.119   0.726
11024W        W79253  27.706  24.052  14.244
11025W        W79254  23.010  25.912  13.724
11026W        W79255  37.324  17.123   4.669
11027W        W79256  25.992  35.867  14.415
11028W        W79257  38.790  39.201  10.119
11029W        W79258   0.672  30.961   4.673
11030W        W79259  29.433  17.747   4.896
11031W        W79260   3.652  13.825   4.320
11032W        W79261  28.746  13.842   1.919
11033W        W79262   5.210   1.386  14.637
11034W        W79263  26.450   0.383  11.648
11035W        W79264  12.698  30.158  14.955
11036W        W79265  42.875   2.850  11.613
11037W        W79266  26.726  31.039   0.794
11038W        W79267   3.876   1.669   5.083
11039W        W79268  20.057  14.727   3.671
11040W        W79269  20.308  18.540  14.035
11041W        W79270  43.344  41.428   2.767
11042W        W79271   8.743  26.210  13.885
11043W        W79272  15.006  21.796   3.661
11044W        W79273  29.394   6.724   1.872
11045W        W79274   7.286   4.739  13.339
11046W        W79275  44.385  17.686   4.484
11047W        W79276   5.225   4.924  10.790
11048W        W79277  28.471  21.602   3.262
11049W        W79278   5.933  33.668  12.032
11050W        W79279  42.953  43.292   0.435
11051W        W79280  42.283  28.914   3.308
11052W        W79281  27.126  19.212   3.740
11053W        W79282   8.831   5.094  13.970
11054W        W79283  19.324  21.721   3.711
11055W        W79284  14.828  22.071   2.696
11056W        W79285  28.911   3.111   1.095
11057W        W79286  17.344  32.470  13.318
11058W        W79287  11.858  35.175  11.066
11059W        W79288  30.668  25.632  12.951
11060W        W79289  37.877  33.022  10.473
11061W        W79290  23.002  37.432   4.729
11062W        W79291   8.011  19.599  14.753
11063W        W79292   2.471  26.551  13.403
11064W        W79293  33.951  33.146  10.955
11065W        W79294   7.371  44.432  13.870
11066W        W79295   2.326  10.304  14.695
11067W        W79296  39.988   3.548   4.969
11068W        W79297   5.235   0.857  11.621
11069W        W79298  20.008  44.813   2.273
11070W        W79299  10.098  42.820   4.129
11071W        W79300  26.558  22.807   2.411
11072W        W79301  31.436  14.302  10.156
11073W        W79302  31.812  33.481   2.594
11074W        W79303  37.551  24.061  10.647
11075W        W79304  31.317  41.353   0.523
11076W        W79305   7.476  15.256  12.834
11077W        W79306  40.253   7.664   3.283
11078W        W79307  33.553  29.935  12.760
11079W        W79308  13.770   3.013  10.825
11080W        W79309  17.275   6.279  12.885
11081W        W79310  21.246   7.178   1.357
11082W        W79311  29.071  11.803   4.378
11083W        W79312   5.707  25.536   0.905
11084W        W79313   0.497  19.731   0.943
11085W        W79314  24.111  22.370  12.069
11086W        W79315  21.210   6.251   0.501
11087W        W79316  20.118  30.383   3.680
11088W        W79317  44.478  43.468   0.319
11089W        W79318  13.622  29.131  11.987
11090W        W79319  37.319  21.675  13.396
11091W        W79320  17.775  29.121   3.237
11092W        W79321  25.091   5.575  14.480
11093W        W79322  18.565  16.668   3.817
11094W        W79323  40.036  22.521  12.979
11095W        W79324  35.637  11.296  11.620
11096W        W79325  31.166  35.638   1.729
11097W        W79326  18.020  27.724   0.782
11098W        W79327   7.759  39.019   0.261
11099W        W79328  34.978  12.341  13.310
11100W        W79329   8.729  41.562   2.585
11101W        W79330  35.841  14.563  13.847
11102W        W79331  21.720  28.499  12.067
11103W        W79332   3.205  40.493   2.810
11104W        W79333   5.437  27.270  14.018
11105W        W79334  41.727  26.034  12.562
11106W        W79335  15.197  36.136  11.909
11107W        W79336  17.017  36.588   0.356
11108W        W79337  21.727  29.887   2.403
11109W        W79338  22.276  44.388   4.671
11110W        W79339   7.630   9.686   0.789
11111W        W79340   4.756  19.084   3.880
11112W        W79341  28.935  25.991  12.668
11113W        W79342  13.806  36.121   4.690
11114W        W79343   0.938   6.665  12.843
11115W        W79344   1.757  23.468  13.040
11116W        W79345  23.978   2.891   2.649
11117W        W79346  24.156   7.660   0.763
11118W        W79347  24.182  44.373  13.349
11119W        W79348   1.540  18.938   3.828
11120W        W79349  28.182  41.557   4.008
11121W        W79350  30.860  33.579  12.992
11122W        W79351  15.621   1.674  11.224
11123W        W79352  38.453  15.778  13.857
11124W        W79353  37.365  14.832  12.843
11125W        W79354   4.776  34.889  10.757
11126W        W79355   5.438  30.930  10.697
11127W        W79356  34.993  22.682   1.206
11128W        W79357  23.516  33.089   1.518
11129W        W79358  30.143  41.185   4.030
11130W        W79359  14.324  44.881  13.020
11131W        W79360   5.189   1.921   2.889
11132W        W79361  33.949  19.173  12.400
11133W        W79362  18.551  28.249   1.794
11134W        W79363  13.884  36.608  10.697
11135W        W79364   2.748  37.432   4.942
11136W        W79365   0.781  19.253   2.257
11137W        W79366  23.597  16.580  13.626
11138W        W79367  24.190  35.478  14.622
11139W        W79368   6.909   0.199  14.061
11140W        W79369  40.837  37.949  13.988
11141W        W79370  43.482  38.100   0.287
11142W        W79371  31.197   3.220   1.251
11143W        W79372  41.508  31.647   0.924
11144W        W79373  16.163  15.885  12.621
11145W        W79374   9.556  22.033  12.103
11146W        W79375  25.290  12.951  14.002
11147W        W79376  35.078  22.554  14.807
11148W        W79377  12.153  27.271  12.010
11149W        W79378  15.352  38.959  14.783
11150W        W79379  20.239  15.607  10.790
11151W        W79380  29.902  31.383  13.648
11152W        W79381   2.885  40.029  10.733
11153W        W79382  27.550  17.596   0.425
11154W        W79383  33.544  29.952   2.263
11155W        W79384  23.710  40.263   0.399
11156W        W79385  13.453  23.649  11.133
11157W        W79386  20.580  25.433   2.981
11158W        W79387   3.363  25.635  12.414
11159W        W79388  43.114  25.943  13.804
11160W        W79389  11.676  27.305   4.105
11161W        W79390  30.579  10.897   3.645
11162W        W79391  33.553  15.094   4.572
11163W        W79392  15.056  44.979   1.653
11164W        W79393  37.743  30.072  14.271
11165W        W79394   8.696  27.255  12.403
11166W        W79395   4.978   1.901   1.380
11167W        W79396  11.696  34.624   2.769
11168W        W79397  39.428  32.311   4.592
11169W        W79398  41.610   6.716   1.233
11170W        W79399  19.582  33.419  14.546
11171W        W79400  14.680  14.394   0.416
11172W        W79401  19.804  44.332   2.197
11173W        W79402  19.991  37.722   0.187
11174W        W79403  34.039  24.514  11.543
11175W        W79404  18.033  12.856   3.129
11176W        W79405  10.247  39.584  14.310
11177W        W79406  10.052  30.683  11.578
11178W        W79407  31.581  12.578  10.517
11179W        W79408  15.903  36.144  13.102
11180W        W79409   5.754  43.949   2.141
11181W        W79410  23.607  33.541   0.295
11182W        W79411  33.192  27.625   3.594
11183W        W79412  16.085  12.659   0.147
11184W        W79413  42.338  27.109   1.510
11185W        W79414   6.694  18.287  13.923
11186W        W79415   7.498  17.999  11.164
11187W        W79416  28.032  12.119   4.264
11188W        W79417  17.883   4.908   0.008
11189W        W79418   7.917  38.549   2.831
11190W        W79419  34.911  15.846  12.510
11191W        W79420  16.561   0.694  13.826
11192W        W79421   5.314  33.419   4.127
11193W        W79422  29.720  24.227  13.337
11194W        W79423   6.439  27.594   0.859
11195W        W79424  15.266   1.881   4.892
11196W        W79425  13.765  35.483  11.415
11197W        W79426  12.287  10.591  13.811
11198W        W79427  17.622  28.790  13.009
11199W        W79428  39.427  42.333  14.088
11200W        W79429  14.794   6.398  13.813
11201W        W79430  37.669  23.007  14.782
11202W        W79431  39.253  16.232  11.952
11203W        W79432   0.323  27.548  13.474
11204W        W79433  35.122   9.374   2.390
11205W        W79434  15.745  43.388   1.825
11206W        W79435  36.236  22.777   2.850
11207W        W79436  14.745  25.396  12.047
11208W        W79437   3.085  30.972   2.838
11209W        W79438   0.701  41.133   3.912
11210W        W79439  27.647  12.128   0.692
11211W        W79440  22.952  14.339  13.679
11212W        W79441  43.498  25.825   1.789
11213W        W79442  27.593  41.905   1.871
11214W        W79443  29.752  23.991  12.868
11215W        W79444   7.198   6.526   1.293
11216W        W79445  23.613   5.281  14.296
11217W        W79446   7.275  29.774  14.323
11218W        W79447  28.438   4.229  12.937
11219W        W79448  15.189   9.300  13.775
11220W        W79449   1.500  39.435  12.022
11221W        W79450  33.315   2.678  10.991
11222W        W79451  37.086  39.482  14.954
11223W        W79452   8.191  26.765  14.336
11224W        W79453  39.868  41.753   3.021
11225W        W79454  20.585  15.143  13.912
11226W        W79455   2.425  27.172  11.532
11227W        W79456   1.284  20.434  12.592
11228W        W79457  38.035  19.966  14.467
11229W        W79458  23.723   5.635  12.491
11230W        W79459  15.557  31.986  12.545
11231W        W79460   5.096   9.865  13.957
11232W        W79461  19.565  36.906  13.807
11233W        W79462  15.312  36.521  14.006
11234W        W79463  26.957  19.546   4.117
11235W        W79464   8.360  24.158   0.262
11236W        W79465  22.550  35.654   1.944
11237W        W79466  29.536  12.099   3.583
11238W        W79467  39.534  24.577  12.528
11239W        W79468  41.159   4.315  11.060
11240W        W79469  41.420  39.047   2.383
11241W        W79470  15.574  15.840  14.559
11242W        W79471   5.752  12.103  11.200
11243W        W79472  10.103  13.549  12.997
11244W        W79473  39.255   1.047   3.117
11245W        W79474  18.789  35.403   4.691
11246W        W79475  24.426  10.167  14.465
11247W        W79476   3.951  43.089  12.090
11248W        W79477  27.964   1.730  11.050
11249W        W79478  24.134  20.966  14.971
11250W        W79479  23.088  41.039  12.978
11251W        W79480  16.076  21.167   3.187
11252W        W79481  27.464   5.838  11.127
11253W        W79482  35.092  26.685  11.180
11254W        W79483  21.486  31.332  14.081
11255W        W79484   3.356  31.451  12.830
11256W        W79485  39.479  23.091   1.394
11257W        W79486  26.416  25.387   1.229
11258W        W79487   1.988  22.721   0.835
11259W        W79488  31.416  13.359   4.583
11260W        W79489  15.129   3.473  11.158
11261W        W79490  14.203  10.258  13.022
11262W        W79491  16.062  29.712  13.891
11263W        W79492  11.788  28.438  12.106
11264W        W79493  12.927  11.394  14.941
11265W        W79494   1.399  23.189  11.018
11266W        W79495  17.743  17.629  13.864
11267W        W79496  23.022  39.347  14.793
11268W        W79497  13.639  10.642   1.130
11269W        W79498  40.885  13.795   4.553
11270W        W79499  41.616  31.129   5.442
11271W        W79500  18.332   0.866   2.182
11272W        W79501  41.371  24.163   4.480
11273W        W79502  40.748  41.840   0.834
11274W        W79503  39.645  24.119  11.498
11275W        W79504   3.439  29.603  14.404
11276W        W79505   3.332   2.680   4.398
11277W        W79506  36.065   8.452   2.044
11278W        W79507  33.114   4.714  14.876
11279W        W79508  39.432  17.037  12.855
11280W        W79509  35.397   2.868  12.861
11281W        W79510  26.835  24.198  14.238
11282W        W79511  17.115  18.604  12.554
11283W        W79512  40.426  24.505  11.105
11284W        W79513  18.621  13.126   2.158
11285W        W79514   4.134  12.712  13.579
11286W        W79515   6.836  44.410   4.413
11287W        W79516  30.183  23.656  14.808
11288W        W79517  42.810  35.379  13.980
11289W        W79518  13.638  28.018   0.944
11290W        W79519  44.947  33.934   3.547
11291W        W79520  11.254  34.312   2.612
11292W        W79521   4.929  16.609   2.260
11293W        W79522  25.544  40.739   1.688
11294W        W79523  14.083   5.224   3.715
11295W        W79524  44.262  25.534  13.125
11296W        W79525  15.697  37.047   0.704
11297W        W79526  11.435  39.436   3.183
11298W        W79527   0.071   9.643   3.196
11299W        W79528  38.097  17.077   1.743
11300W        W79529   3.985  34.522   4.138
11301W        W79530  42.679  31.608   0.436
11302W        W79531  18.425  28.946  14.521
11303W        W79532  26.730  38.587  14.328
11304W        W79533  15.562  38.217  14.420
11305W        W79534  26.827   5.676   1.581
11306W        W79535  22.559   4.661   0.814
11307W        W79536  10.474   4.388  10.360
11308W        W79537  41.828  25.506  14.518
11309W        W79538  35.402  13.968  12.651
11310W        W79539  29.920  29.354  13.840
11311W        W79540   4.390  39.061  14.381
11312W        W79541  36.576  41.864   3.442
11313W        W79542   6.141   5.287   0.381
11314W        W79543  29.569  28.864  11.236
11315W        W79544   0.426  35.075  14.264
11316W        W79545   6.380  16.925  14.240
11317W        W79546   5.313   6.086  13.484
11318W        W79547  30.078  10.126  12.044
11319W        W79548  24.194  22.729   3.341
11320W        W79549  32.111  27.499   3.127
11321W        W79550  11.086  15.159   4.077
11322W        W79551  12.117  21.104   0.934
11323W        W79552  37.999   5.491  12.038
11324W        W79553  14.291  35.432  12.561
11325W        W79554  36.863   4.856  10.707
11326W        W79555   0.403   8.210  13.371
11327W        W79556   6.190  22.969   3.872
11328W        W79557  41.465  26.502  12.804
11329W        W79558  10.210   1.870   0.434
11330W        W79559   3.746  42.086   2.411
11331W        W79560  35.492   9.796   1.208
11332W        W79561  42.523  32.518   2.889
11333W        W79562  43.968   9.866  12.903
11334W        W79563  38.306  18.099  14.909
11335W        W79564  44.083  30.241   2.290
11336W        W79565  44.829  44.881   4.207
11337W        W79566  44.908  17.807   2.261
11338W        W79567  13.321  25.152  14.708
11339W        W79568   2.656  16.655   2.409
11340W        W79569   5.883  16.570  12.018
11341W        W79570  30.994  35.371   2.438
11342W        W79571  14.559   0.423   3.744
11343W        W79572   0.888  12.057  14.874
11344W        W79573  38.486  32.472  13.347
11345W        W79574   1.237  13.828   3.699
11346W        W79575  32.472   5.211  12.347
11347W        W79576   1.849  27.123   1.779
11348W        W79577  29.602  29.968   2.713
11349W        W79578   8.100  11.943   1.207
11350W        W79579  27.614  13.110  12.371
11351W        W79580  20.807  30.798   3.944
11352W        W79581  38.713  16.750  12.342
11353W        W79582  37.544  39.039  10.752
11354W        W79583  10.541   7.338  12.207
11355W        W79584  38.292  31.730   0.055
11356W        W79585   8.885  32.011   0.954
11357W        W79586   4.523  27.939  12.079
11358W        W79587  26.660   1.844  10.808
11359W        W79588  40.735  15.208   3.298
11360W        W79589  43.258  27.573  13.591
11361W        W79590  35.931  32.845  12.078
11362W        W79591   7.052  34.549  10.752
11363W        W79592   8.322  40.317   1.243
11364W        W79593  36.969  16.492   4.069
11365W        W79594  24.558   5.451   4.495
11366W        W79595   7.773  33.783  12.603
11367W        W79596   5.935  27.045  13.117
11368W        W79597  32.928  29.429  14.992
11369W        W79598  26.752  43.863   1.348
11370W        W79599  30.617  44.783  12.024
11371W        W79600  14.449  15.845  13.427
11372W        W79601  34.488  43.896  13.533
11373W        W79602  27.024   0.095  13.121
11374W        W79603  19.453  24.122   3.555
11375W        W79604  43.976  31.523  11.561
11376W        W79605  33.647  16.051   4.896
11377W        W79606  32.701  35.539   1.606
11378W        W79607  29.643   8.635   2.160
11379W        W79608  13.112   3.349  10.354
11380W        W79609  10.085   2.503   4.117
11381W        W79610  19.407  31.150  14.758
11382W        W79611  12.329  13.605  13.171
11383W        W79612  39.740  10.373  14.382
11384W        W79613  27.141  32.112   1.489
11385W        W79614  10.224  27.204  11.599
11386W        W79615  18.064  24.717   0.237
11387W        W79616   8.750  11.879  13.228
11388W        W79617  44.205  32.432  12.501
11389W        W79618   8.154  32.509   3.744
11390W        W79619  24.212  14.492   3.625
11391W        W79620  27.396  13.623  11.108
11392W        W79621  42.237  21.321  12.049
11393W        W79622  36.005  37.564  10.998
11394W        W79623   3.718  42.617  12.114
11395W        W79624   1.260   6.357   0.731
11396W        W79625  20.518  35.252  10.472
11397W        W79626  27.027  37.518   0.781
11398W        W79627   8.876   8.738  12.877
11399W        W79628  32.170  13.425  14.034
11400W        W79629  31.291  34.583  12.911
11401W        W79630  36.414  13.851  13.837
11402W        W79631  22.145  30.595  11.775
11403W        W79632  34.918  22.528   3.214
11404W        W79633  43.097  41.442  10.742
11405W        W79634  22.093   2.755  13.135
11406W        W79635  16.597  37.764  13.349
11407W        W79636  32.352   9.052  13.465
11408W        W79637  44.461   8.876   4.091
11409W        W79638  27.171  34.085   0.030
11410W        W79639   9.656  15.294  12.576
11411W        W79640  32.961  10.819   0.887
11412W        W79641  32.689  35.519  14.767
11413W        W79642  29.133  36.816   2.201
11414W        W79643   9.763  39.475   0.957
11415W        W79644  20.597  18.442  14.785
11416W        W79645  20.642  31.884  11.163
11417W        W79646  34.976  30.342   3.306
11418W        W79647  40.770  10.242  12.643
11419W        W79648  44.212  18.185  13.839
11420W        W79649  15.089  31.734   3.254
11421W        W79650  22.521  12.265   5.011
11422W        W79651  32.353  25.993   2.093
11423W        W79652  21.572  14.944   0.716
11424W        W79653  25.958   6.455   0.829
11425W        W79654  15.883  36.621  14.884
11426W        W79655  39.600   1.448  11.647
11427W        W79656  29.864  39.977  14.916
11428W        W79657  43.941   3.483  11.109
11429W        W79658  35.033  10.763  14.929
11430W        W79659  19.175  10.937   3.224
11431W        W79660   5.871  10.903  14.315
11432W        W79661  34.020  27.357  11.463
11433W        W79662  27.107  41.054   3.667
11434W        W79663   7.805  33.829   3.742
11435W        W79664  32.476   8.547   3.132
11436W        W79665  33.646  23.968   1.851
11437W        W79666   8.247  12.636  12.868
11438W        W79667  17.547   0.833  14.023
11439W        W79668  27.053  44.724   1.903
11440W        W79669  37.135   8.887   1.228
11441W        W79670  18.574  22.264  12.854
11442W        W79671  42.235  17.089  12.669
11443W        W79672   1.810  26.839  11.280
11444W        W79673  30.528  30.180   0.208
11445W        W79674  28.076  43.051   3.622
11446W        W79675  15.841  26.639   3.622
11447W        W79676  34.354   8.620   3.934
11448W        W79677   1.621  32.896   0.242
11449W        W79678  20.817   0.716   0.825
11450W        W79679  25.500  10.258   0.605
11451W        W79680  23.150  21.124  11.626
11452W        W79681  36.113  42.561  13.566
11453W        W79682  28.646   8.193   4.258
11454W        W79683  31.006  12.492   3.325
11455W        W79684  18.313   3.166  14.809
11456W        W79685  15.490  43.131   4.985
11457W        W79686  17.844   3.935  14.526
11458W        W79687  42.651  38.473   0.769
11459W        W79688   1.823  17.567   2.272
11460W        W79689   7.613  10.202   1.366
11461W        W79690   7.406  25.249  11.179
11462W        W79691   9.478  32.387  10.580
11463W        W79692  15.203   8.289  13.417
11464W        W79693  11.658  32.146  12.010
11465W        W79694  21.709  38.577   2.764
11466W        W79695  35.377  29.111   0.826
11467W        W79696  38.943  11.100   1.306
11468W        W79697  17.782  26.566  12.802
11469W        W79698  40.753  41.195   2.176
11470W        W79699   8.900  32.900  12.974
11471W        W79700  17.847  29.413  10.702
11472W        W79701   0.962  25.798  10.632
11473W        W79702  21.101   6.722  10.770
11474W        W79703  39.437  21.108  12.341
11475W        W79704  17.767   5.209   0.434
11476W        W79705   3.916   6.141  13.721
11477W        W79706  32.495   6.254   2.191
11478W        W79707  38.477  27.424   3.618
11479W        W79708  10.674  31.364   2.189
11480W        W79709  11.665   3.480   0.376
11481W        W79710  10.312  41.746   2.587
11482W        W79711   1.551  26.941  14.167
11483W        W79712  16.637   9.567  12.018
11484W        W79713  32.918  44.717   0.957
11485W        W79714  25.931  36.839   2.469
11486W        W79715  14.873  37.079  11.365
11487W        W79716   6.440  24.089   2.452
11488W        W79717   2.780  27.697  12.453
11489W        W79718  28.507  40.375  10.614
11490W        W79719  34.306  14.514   1.899
11491W        W79720  13.417  11.618  14.980
11492W        W79721   3.219  15.262  13.305
11493W        W79722  11.931  32.182  13.522
11494W        W79723  29.176  40.910   4.499
11495W        W79724  17.092  29.209  11.867
11496W        W79725  35.292  44.795   0.848
11497W        W79726   9.169   4.279  14.176
11498W        W79727   4.389  28.046  13.802
11499W        W79728  26.550  32.416   1.790
11500W        W79729  25.945  10.247  12.006
11501W        W79730  15.164  36.586   0.709
11502W        W79731   9.761  40.054  13.830
11503W        W79732  23.635  27.514  12.574
11504W        W79733   1.992   0.480   4.093
11505W        W79734  15.694  33.276   0.017
11506W        W79735  40.485  38.944   4.649
11507W        W79736  32.333  17.742   2.891
11508W        W79737   6.132   7.404   0.842
11509W        W79738  36.997  32.880  13.895
11510W        W79739  26.950   0.708  11.877
11511W        W79740   8.191   1.925   3.057
11512W        W79741  43.986  33.476  13.503
11513W        W79742  43.757  13.645  10.702
11514W        W79743   0.918  44.334  12.308
11515W        W79744  21.805  37.661  14.414
11516W        W79745  12.887  37.867   1.432
11517W        W79746  27.538   8.188  14.830
11518W        W79747  34.930  39.827   3.374
11519W        W79748  12.867  13.009  12.332
11520W        W79749  40.863  34.364  11.118
11521W        W79750  27.410  14.714   0.680
11522W        W79751  34.486  13.685  10.804
11523W        W79752   9.127  17.175  12.094
11524W        W79753  36.059   1.457   4.870
11525W        W79754   5.950  34.704  10.734
11526W        W79755  44.733  27.026   1.025
11527W        W79756  15.181   7.585  11.170
11528W        W79757  25.660  14.717  13.488
11529W        W79758   8.126  43.784  13.012
11530W        W79759  40.075  42.342  10.660
11531W        W79760  24.274  22.047   1.214
11532W        W79761  40.230  39.427   1.317
11533W        W79762   1.259  41.019  14.009
11534W        W79763  41.254  38.993  12.502
11535W        W79764  11.784  15.641  14.794
11536W        W79765  27.975  13.978  14.841
11537W        W79766  30.169  38.595  13.952
11538W        W79767  19.193  37.962   3.278
11539W        W79768  33.229  38.918   2.813
11540W        W79769  20.497  20.361  14.598
11541W        W79770  20.852  25.189   4.099
11542W        W79771  13.717   4.239   1.702
11543W        W79772  26.429  26.986  13.391
11544W        W79773  15.841  32.815   0.400
11545W        W79774  37.949   5.037  13.307
11546W        W79775  23.682  10.363   1.712
11547W        W79776   7.333  39.342  10.779
11548W        W79777  13.553  28.589   3.186
11549W        W79778  39.302  37.078   2.776
11550W        W79779  13.440  15.262  12.094
11551W        W79780  20.754  34.557  10.569
11552W        W79781   5.032  34.829  14.041
11553W        W79782   0.869  29.537   1.636
11554W        W79783  33.291  22.129   2.449
11555W        W79784  20.942  12.882  14.734
11556W        W79785  15.753  26.263  13.134
11557W        W79786   4.940  20.744   3.312
11558W        W79787  28.763  11.516  10.053
11559W        W79788  15.508  37.028  11.518
11560W        W79789  35.620  28.066   1.454
11561W        W79790   4.536  34.484  11.525
11562W        W79791   4.343  31.930   2.232
11563W        W79792   4.238  29.635   3.187
11564W        W79793  28.954  43.553   3.642
11565W        W79794  15.005  41.709  12.924
11566W        W79795  32.536  43.575  10.803
11567W        W79796   5.247  10.650   3.314
11568W        W79797  40.735  23.966   3.815
11569W        W79798   4.333  40.312  14.772
11570W        W79799   7.170  18.583   4.646
11571W        W79800   9.704   0.304   0.464
11572W        W79801  34.871   9.400  14.829
11573W        W79802  44.751   9.278   0.601
11574W        W79803  30.601   3.193  14.518
11575W        W79804   5.690  23.681   0.935
11576W        W79805  43.734   9.219  12.600
11577W        W79806   8.313  35.503  10.638
11578W        W79807  42.306  39.539   2.292
11579W        W79808  37.041  11.272   3.334
11580W        W79809  32.973  37.132  13.632
11581W        W79810  42.839   3.442   0.430
11582W        W79811  13.468  25.445   5.332
11583W        W79812  35.610  26.548  13.553
11584W        W79813  43.612  20.158   0.801
11585W        W79814  23.101  11.857  10.226
11586W        W79815  24.429   3.567   5.224
11587W        W79816  32.747  20.314  13.439
11588W        W79817  41.237  25.709   3.253
11589W        W79818  25.927  19.328   3.240
11590W        W79819  16.317   6.770   3.686
11591W        W79820  38.802   8.477  14.610
11592W        W79821   5.179  18.249  14.366
11593W        W79822  42.978  25.494  12.253
11594W        W79823  37.163  44.791  10.635
11595W        W79824  40.228  29.020  11.962
11596W        W79825  10.660  36.670   3.686
11597W        W79826  16.284  24.913  14.025
11598W        W79827  10.460   0.359  10.149
11599W        W79828  37.634  19.067   0.780
11600W        W79829   1.212  41.356  13.592
11601W        W79830   8.406  42.939  12.899
11602W        W79831   4.598  41.818   2.435
11603W        W79832  34.615   9.333   5.515
11604W        W79833  18.353  39.572   2.959
11605W        W79834  35.105  14.605  14.784
11606W        W79835  20.651  41.817  11.051
11607W        W79836  18.019  42.117  11.412
11608W        W79837  37.490  10.141   0.956
11609W        W79838  35.872   2.387   2.596
11610W        W79839  23.718  28.991  12.231
11611W        W79840  24.751  20.898  13.481
11612W        W79841  39.592   5.882  10.229
11613W        W79842  35.072  34.551  10.648
11614W        W79843  17.483   7.163  14.086
11615W        W79844  15.454  20.314   0.435
11616W        W79845  41.179  23.061   2.446
11617W        W79846  33.362   5.704  11.536
11618W        W79847   6.189  17.082   2.770
11619W        W79848  19.959  38.579   2.415
11620W        W79849  16.077  14.893  14.921
11621W        W79850   8.228  32.425  11.101
11622W        W79851  14.264  28.086  13.806
11623W        W79852  32.970  15.859   2.778
11624W        W79853  42.302  35.426  13.364
11625W        W79854   2.948  37.754  12.345
11626W        W79855  43.826  28.494   3.246
11627W        W79856  32.277  44.511   2.793
11628W        W79857  26.952  15.807   4.156
11629W        W79858  29.549  41.994  12.465
11630W        W79859  15.048  30.098   3.381
11631W        W79860   9.934  19.066   3.330
11632W        W79861  42.336   4.743   1.887
11633W        W79862  10.814  30.011  10.885
11634W        W79863  24.896  25.123   1.168
11635W        W79864  10.736  25.387  10.687
11636W        W79865  11.279  38.819   3.595
11637W        W79866  19.023  41.738   0.328
11638W        W79867  35.914  38.415   0.020
11639W        W79868  19.105  39.955  11.688
11640W        W79869   3.329  12.203   4.727
11641W        W79870  43.310   6.149  14.617
11642W        W79871  15.742  42.874   2.757
11643W        W79872  40.833  22.561  14.737
11644W        W79873  40.420  41.883  11.704
11645W        W79874  15.532  20.599  14.982
11646W        W79875  35.128  44.006   0.268
11647W        W79876   7.748  41.150   3.061
11648W        W79877  26.298  27.943  12.041
11649W        W79878   3.324  29.066  13.539
11650W        W79879  16.734  20.079  12.531
11651W        W79880  10.547  39.871   3.317
11652W        W79881  28.526  11.638  13.182
11653W        W79882   5.306   0.217  10.844
11654W        W79883   9.440  23.736   0.874
11655W        W79884  33.933  26.584  13.924
11656W        W79885  43.015  10.338   2.031
11657W        W79886   4.423  19.032   0.717
11658W        W79887   1.173  33.115   2.377
11659W        W79888  14.717  44.717   4.224
11660W        W79889   3.370   3.424  14.546
11661W        W79890   6.940  37.354   0.220
11662W        W79891  21.704   7.073  11.561
11663W        W79892  32.147  11.201  10.727
11664W        W79893  29.868  36.054   0.006
11665W        W79894  44.817  15.303   0.412
11666W        W79895   4.286  21.628   4.301
11667W        W79896  29.529  35.448  11.164
11668W        W79897  27.193  23.589  14.750
11669W        W79898  42.549   2.802   4.257
11670W        W79899  13.338  41.328   3.694
11671W        W79900  20.359  42.204   4.719
11672W        W79901  41.566   0.851  13.890
11673W        W79902  44.484  31.217   2.315
11674W        W79903  19.370  39.913  13.323
11675W        W79904   5.354  32.560  11.427
11676W        W79905  21.976  40.078  12.993
11677W        W79906   8.109  42.091   3.067
11678W        W79907  40.533   3.709   1.791
11679W        W79908  43.379  41.866  10.632
11680W        W79909  12.885  17.279   4.722
11681W        W79910  31.032   9.204   0.708
11682W        W79911   7.923  14.639  12.957
11683W        W79912   0.467  33.985   2.214
11684W        W79913   7.371   8.802  13.400
11685W        W79914  17.150  42.962   4.886
11686W        W79915  39.802  28.147   0.730
11687W        W79916  34.839  11.775  14.163
11688W        W79917  28.999   2.371   2.955
11689W        W79918  17.212  40.966  11.105
11690W        W79919  23.279  32.377  11.527
11691W        W79920  34.044  10.831  11.878
11692W        W79921  24.033  11.353   3.074
11693W        W79922  31.137   8.150   3.106
11694W        W79923   0.372  44.784  12.094
11695W        W79924  34.904  23.461  11.981
11696W        W79925   7.747  43.755  14.977
11697W        W79926  27.936  42.681  10.713
11698W        W79927  10.647  35.723  14.413
11699W        W79928  21.410  37.623   0.303
11700W        W79929  41.933  44.820   0.527
11701W        W79930  23.256   7.961   1.827
11702W        W79931  13.400   0.064   2.608
11703W        W79932  41.145  37.770  11.547
11704W        W79933  18.028  26.273  13.562
11705W        W79934  38.583  15.772   0.590
11706W        W79935   8.302  17.658   0.846
11707W        W79936  31.615  21.077   1.980
11708W        W79937   6.887   9.851  13.752
11709W        W79938  44.258  42.955  10.628
11710W        W79939  35.382  43.974  14.355
11711W        W79940  44.414   6.935   4.784
11712W        W79941  37.579  35.988   3.686
11713W        W79942   9.678  29.597  12.123
11714W        W79943  35.786  38.578  10.782
11715W        W79944  25.144  40.263  11.981
11716W        W79945  22.800  24.182   0.303
11717W        W79946  23.550   3.292   4.373
11718W        W79947   3.838  12.364  12.977
11719W        W79948  20.896   7.349  10.268
11720W        W79949  23.758  17.729  12.970
11721W        W79950  10.298  44.507  11.114
11722W        W79951   8.706  22.988  10.952
11723W        W79952   9.107  36.891  14.715
11724W        W79953   7.683  14.356  11.429
11725W        W79954  35.406   5.671  13.181
11726W        W79955   7.349  31.956  14.050
11727W        W79956   8.275  16.780   1.273
11728W        W79957  14.034  32.167  13.576
11729W        W79958  28.516  34.939   2.660
11730W        W79959   6.483  20.145  11.656
11731W        W79960  14.194   4.010   1.391
11732W        W79961  18.105  35.029  12.888
11733W        W79962  28.973  22.475  13.063
11734W        W79963   9.140   1.482  11.663
11735W        W79964  22.498  25.564   0.941
11736W        W79965  17.249  44.601   1.888
11737W        W79966   8.776   4.850  12.578
11738W        W79967  16.231  14.226   1.600
11739W        W79968  16.229  13.293  11.588
11740W        W79969   0.667  10.509   5.062
11741W        W79970  36.444  39.606   0.769
11742W        W79971  17.853  16.983   1.021
11743W        W79972  29.519  33.336   2.329
11744W        W79973  14.203  36.205   1.438
11745W        W79974  23.448  14.474   4.999
11746W        W79975   3.130  33.423  10.919
11747W        W79976  12.209  28.881   3.693
11748W        W79977  37.336  38.883   9.993
11749W        W79978  14.480  19.029   2.654
11750W        W79979  30.997  32.090  13.913
11751W        W79980  25.387   4.225  12.828
11752W        W79981  33.685  35.869  14.944
11753W        W79982   9.437  44.443   1.879
11754W        W79983  17.823  41.446   3.694
11755W        W79984  41.801  19.637  14.878
11756W        W79985   1.336  29.821   1.470
11757W        W79986  23.195  38.415   1.055
11758W        W79987  36.946  36.947   3.869
11759W        W79988  17.474  40.296   0.662
11760W        W79989  19.407  41.474   0.601
11761W        W79990   3.683   5.739  13.902
11762W        W79991  22.480   6.702  13.466
11763W        W79992  42.599  35.469  14.466
11764W        W79993  29.052   3.853   4.281
11765W        W79994  37.496   5.749  11.005
11766W        W79995  18.264  34.046  10.291
11767W        W79996  25.388  12.140   0.878
11768W        W79997  30.002  26.997  11.223
11769W        W79998  33.051   5.537  13.989
11770W        W79999  20.537  29.330   0.533
11771W        W80000   3.900  26.053   1.422
11772W        W80001  16.253  18.846  11.817
11773W        W80002  15.092   4.831  13.535
11774W        W80003   5.720  15.511   2.819
11775W        W80004  32.998   8.080   3.691
11776W        W80005  12.827  32.065   1.746
11777W        W80006   5.493   7.727   3.624
11778W        W80007   6.325   9.443  13.470
11779W        W80008  43.163  20.624  12.239
11780W        W80009  34.784  43.018  12.510
11781W        W80010  13.700  27.953  11.207
11782W        W80011  21.075  18.821  11.453
11783W        W80012  17.248   3.769  10.653
11784W        W80013  44.306  21.218  12.867
11785W        W80014  42.916   0.778   2.278
11786W        W80015  27.171  13.827  11.542
11787W        W80016  31.867  24.502   3.617
11788W        W80017  31.925  31.433   2.335
11789W        W80018  15.215  34.545   1.240
11790W        W80019  14.675  38.764   2.178
11791W        W80020  35.115  11.348  13.875
11792W        W80021  29.546  38.252   4.390
11793W        W80022  17.182  31.443   0.840
11794W        W80023  18.192  17.486  12.774
11795W        W80024  38.801  28.524   4.938
11796W        W80025  43.773  39.224  11.555
11797W        W80026  13.411  37.430   3.339
11798W        W80027  42.189   5.858   1.816
11799W        W80028  20.172  11.733   4.754
11800W        W80029  32.354  20.720   1.757
11801W        W80030  34.707  40.951   2.071
11802W        W80031  33.935  20.411   1.935
11803W        W80032  15.681  28.503   3.249
11804W        W80033   6.415  33.527   0.995
11805W        W80034   0.426  14.116   4.274
11806W        W80035  24.485  44.144  12.047
11807W        W80036  22.572  15.277  10.581
11808W        W80037   8.309  37.993   2.315
11809W        W80038   5.137  40.274   0.400
11810W        W80039   2.040  11.850  14.385
11811W        W80040  29.011  17.993  12.723
11812W        W80041  36.483  33.702   2.803
11813W        W80042   7.441  17.739  14.875
11814W        W80043  18.781  38.435  10.504
11815W        W80044  25.256  33.386   2.134
11816W        W80045  38.718  33.144   9.882
11817W        W80046  30.090  16.965  14.359
11818W        W80047  20.570  37.916  13.437
11819W        W80048  32.599  31.867  13.450
11820W        W80049  25.629  34.974   0.694
11821W        W80050  43.341  11.104   4.111
11822W        W80051   4.823  34.881   2.717
11823W        W80052  21.049  26.984  10.517
11824W        W80053  17.027  25.552   2.893
11825W        W80054  12.154  43.315  10.692
11826W        W80055   9.256   1.559  10.785
11827W        W80056   9.446  20.664   4.479
11828W        W80057   6.334  27.576  10.538
11829W        W80058  22.342   7.329  11.015
11830W        W80059   1.911  15.539  10.890
11831W        W80060  15.358  13.577   2.045
11832W        W80061  27.519  39.514   0.542
11833W        W80062  43.015  26.575  14.440
11834W        W80063  31.854   3.391   0.363
11835W        W80064  19.119   9.064  12.844
11836W        W80065  28.435  26.544  14.502
11837W        W80066  27.195  35.003  11.466
11838W        W80067   9.246  20.477  14.465
11839W        W80068  11.365  40.050   2.494
11840W        W80069  23.181   7.623  10.798
11841W        W80070   2.666  14.756  14.394
11842W        W80071  42.323   8.341   2.598
11843W        W80072   7.359   4.860   2.614
11844W        W80073  12.222  42.240  13.514
11845W        W80074  37.814  16.629  11.827
11846W        W80075  32.171  17.211   1.749
11847W        W80076  35.287  32.277   2.343
11848W        W80077  13.894  12.409  11.129
11849W        W80078   0.894  22.002   2.611
11850W        W80079  33.091  12.601   0.470
11851W        W80080   2.412  18.012   2.819
11852W        W80081  41.832  25.188   1.652
11853W        W80082   6.698  22.812  10.725
11854W        W80083  38.027  21.123   1.253
11855W        W80084  18.548  14.051   0.531
11856W        W80085  10.125  20.041   1.220
11857W        W80086  33.849   0.201  10.609
11858W        W80087  31.713  11.735  14.780
11859W        W80088  36.556  22.030   4.539
11860W        W80089  31.203   5.274  11.589
11861W        W80090   4.319  36.580  12.516
11862W        W80091  16.322  11.575  13.543
11863W        W80092  18.069  35.052   0.430
11864W        W80093  17.195  23.683  12.477
11865W        W80094  13.803   5.626   1.774
11866W        W80095  36.776  28.908   2.009
11867W        W80096  37.410  28.000  10.702
11868W        W80097   8.302   7.953   3.466
11869W        W80098   4.284  34.108  12.595
11870W        W80099   9.332  28.417  12.355
11871W        W80100  27.740   5.429   2.398
11872W        W80101   7.822  24.045   1.357
11873W        W80102  30.534  33.143   3.823
11874W        W80103  29.956  11.542   0.239
11875W        W80104  42.546  44.299  10.574
11876W        W80105  39.565  14.710  12.122
11877W        W80106  17.612  19.296   1.846
11878W        W80107   7.010   3.687  12.505
11879W        W80108  41.952  39.302   0.398
11880W        W80109   6.720   9.806  14.738
11881W        W80110  27.506  12.106  14.215
11882W        W80111  30.446  11.831   0.520
11883W        W80112   4.961  10.637   4.975
11884W        W80113   2.203  37.866   1.485
11885W        W80114  27.608  26.577  11.532
11886W        W80115  19.150  32.406   1.860
11887W        W80116  20.822  11.787  10.883
11888W        W80117   4.476  43.950   1.282
11889W        W80118  20.736   9.686  14.876
11890W        W80119  13.800  32.415   3.511
11891W        W80120  31.406   3.790  13.888
11892W        W80121  24.447  40.011   1.863
11893W        W80122  17.037  43.722  12.484
11894W        W80123  31.982  13.725   2.364
11895W        W80124  31.642  29.631   0.259
11896W        W80125  31.426  16.238   2.252
11897W        W80126  24.789  16.830   2.666
11898W        W80127   1.982   3.863   0.671
11899W        W80128  37.190  23.144  12.166
11900W        W80129  38.006  25.093  12.334
11901W        W80130   4.859  17.703   4.516
11902W        W80131  21.203  38.830  11.580
11903W        W80132  23.353  12.777  13.695
11904W        W80133  29.702  24.144   0.083
11905W        W80134  34.623   9.649   2.343
11906W        W80135   8.180   4.710   3.844
11907W        W80136   5.772  38.445   4.604
11908W        W80137  38.502  43.428  11.598
11909W        W80138  13.424  24.087   4.015
11910W        W80139  39.637   0.352   2.666
11911W        W80140  40.392  25.461   3.311
11912W        W80141  25.989  19.624   0.352
11913W        W80142  42.423  13.467  14.888
11914W        W80143  31.485  19.847   2.685
11915W        W80144   6.217  35.540  13.825
11916W        W80145  35.918  12.599  13.796
11917W        W80146   8.706  43.901  14.952
11918W        W80147  35.609   9.287  14.279
11919W        W80148  22.625  19.770   1.423
11920W        W80149  16.269  12.533  12.009
11921W        W80150  42.736  38.912  12.183
11922W        W80151  21.228  28.579   4.042
11923W        W80152  28.938  21.182   4.084
11924W        W80153  39.117  32.080   5.566
11925W        W80154  19.372   5.860  11.286
11926W        W80155  19.525   1.750   0.517
11927W        W80156   9.912   5.837   1.673
11928W        W80157  26.295   5.382   3.639
11929W        W80158   6.322  23.685  12.957
11930W        W80159  22.789   6.679   2.462
11931W        W80160  20.020   2.849   4.543
11932W        W80161  12.953  32.052  10.315
11933W        W80162  23.163   4.653   0.270
11934W        W80163   3.723  24.169  13.153
11935W        W80164  20.168  25.671   2.708
11936W        W80165  28.974  33.367   0.293
11937W        W80166  26.500  24.612   4.183
11938W        W80167  27.157  37.798  10.754
11939W        W80168  32.580  20.709  10.704
11940W        W80169  18.227  43.887  11.631
11941W        W80170  13.148  29.613  14.816
11942W        W80171  22.860  26.672   4.762
11943W        W80172  27.533  44.292   2.396
11944W        W80173  14.153  28.056  14.304
11945W        W80174  33.356   6.804   4.329
11946W        W80175  10.874   2.461   0.983
11947W        W80176  24.637  21.939  10.614
11948W        W80177  40.856  24.561  11.382
11949W        W80178  33.095   8.188   2.094
11950W        W80179  21.320  23.684   1.011
11951W        W80180  27.166  11.667  14.907
11952W        W80181   5.632  25.085  13.355
11953W        W80182  32.133   2.910   3.260
11954W        W80183  24.117  26.994  13.472
11955W        W80184   3.008  32.710  11.559
11956W        W80185  12.590   3.822   4.646
11957W        W80186  16.661  14.240  12.373
11958W        W80187  23.991  43.943  12.081
11959W        W80188  17.596   3.975   0.795
11960W        W80189  41.336  33.042   0.242
11961W        W80190   3.464  25.679  11.437
11962W        W80191  15.288  16.657   1.391
11963W        W80192   3.966  18.217   4.113
11964W        W80193   4.835  14.252  14.349
11965W        W80194  23.994  43.455  11.180
11966W        W80195   7.106  19.293  12.448
11967W        W80196   5.534   4.816   4.036
11968W        W80197  34.590  15.608  12.140
11969W        W80198  22.183  13.474  11.140
11970W        W80199  35.561   4.352   4.576
11971W        W80200   7.375  17.045   2.330
11972W        W80201  14.679   1.719  11.688
11973W        W80202  14.726   1.800   3.458
11974W        W80203  42.830  16.829   2.047
11975W        W80204   6.788  12.129  13.375
11976W        W80205  40.927  14.804  12.382
11977W        W80206  14.673  18.885  13.488
11978W        W80207  27.618  32.905  12.207
11979W        W80208  31.974  42.213  10.708
11980W        W80209   5.967  39.054   0.294
11981W        W80210  21.503  31.549   3.673
11982W        W80211  22.852  23.639  10.316
11983W        W80212  21.582  24.781  12.401
11984W        W80213  24.722  31.960   3.626
11985W        W80214  43.296  24.639   4.318
11986W        W80215  12.708  36.866   4.010
11987W        W80216  23.102  31.132  11.154
11988W        W80217  32.901  32.948   1.452
11989W        W80218  34.799   5.942   1.855
11990W        W80219   2.963  21.158  12.039
11991W        W80220  40.446  39.824  14.604
11992W        W80221  30.518  39.818   0.796
11993W        W80222  37.807  26.439   3.180
11994W        W80223  20.210   1.435  13.115
11995W        W80224  30.276  25.898  12.083
11996W        W80225   6.980   8.869   1.119
11997W        W80226  16.569  25.524   0.228
11998W        W80227  20.365  38.297   2.318
11999W        W80228  20.510  12.610  13.824
12000W        W80229  39.937  38.316   0.497
12001W        W80230  41.054  12.114  10.750
12002W        W80231  13.331  42.703   4.696
12003W        W80232  38.234  28.034   2.824
12004W        W80233  23.513  11.540  10.316
12005W        W80234  30.359  16.508  10.211
12006W        W80235   3.297   8.743  10.619
12007W        W80236  12.323  21.739   4.939
12008W        W80237  22.043   2.504   3.992
12009W        W80238  34.130  15.119   4.303
12010W        W80239   7.664  18.320   0.936
12011W        W80240  40.496   6.488  10.190
12012W        W80241  20.619  28.348  10.670
12013W        W80242  40.905   9.181  10.787
12014W        W80243  19.819  40.138  13.504
12015W        W80244  23.408  18.581   3.944
12016W        W80245   5.923  25.035   4.145
12017W        W80246  22.604  30.911   3.779
12018W        W80247  21.660   5.330   1.224
12019W        W80248  43.942  37.297  11.133
12020W        W80249  43.535  11.838   2.912
12021W        W80250   3.657  33.151   4.125
12022W        W80251   0.520  26.157   3.647
12023W        W80252  22.145  20.216   4.947
12024W        W80253  44.101  18.068   4.274
12025W        W80254  13.374   5.006  13.102
12026W        W80255  17.173  12.918   0.804
12027W        W80256  30.508  38.509   3.425
12028W        W80257   0.878  16.310  14.495
12029W        W80258  20.728   2.892   2.597
12030W        W80259   2.410  16.610   4.695
12031W        W80260  38.703   6.775  10.702
12032W        W80261   7.728  31.615   4.923
12033W        W80262  14.313  16.026  10.979
12034W        W80263  43.374   9.109  12.958
12035W        W80264  26.229  39.480  12.072
12036W        W80265  13.576  40.838   3.756
12037W        W80266   1.071  41.769   0.779
12038W        W80267   3.327   4.908  12.402
12039W        W80268   6.126  17.350   5.052
12040W        W80269  14.277  37.449   9.860
12041W        W80270   8.660  12.196  10.610
12042W        W80271  38.185  17.541   2.798
12043W        W80272  42.698  13.877   0.552
12044W        W80273  15.138  44.926   0.649
12045W        W80274  14.246   2.856   2.867
12046W        W80275  14.390  35.639  13.048
12047W        W80276   3.393  34.666  13.008
12048W        W80277  21.684  31.076   3.861
12049W        W80278   6.340   0.699   3.316
12050W        W80279  38.264  35.869   4.785
12051W        W80280  10.930  19.225  13.326
12052W        W80281  28.939  36.937  14.368
12053W        W80282  24.047  37.428  12.853
12054W        W80283  34.667  26.888  12.535
12055W        W80284  25.579  36.418   0.501
12056W        W80285   3.195  25.720   3.643
12057W        W80286   8.299   7.853  14.377
12058W        W80287  12.720   0.893  13.593
12059W        W80288   2.647  26.690   4.624
12060W        W80289  42.692  29.911   2.400
12061W        W80290  29.130  33.071   3.971
12062W        W80291   3.915  37.439  13.559
12063W        W80292  41.971  34.247  14.878
12064W        W80293   6.701  21.733   3.920
12065W        W80294   1.929  39.903   2.339
12066W        W80295  18.221  16.240  13.581
12067W        W80296  28.795  31.995  11.204
12068W        W80297  43.038  25.605   1.777
12069W        W80298  14.051  27.464   2.819
12070W        W80299  33.333  18.719  13.728
12071W        W80300   9.756  44.528  13.764
12072W        W80301  29.709  15.687   4.211
12073W        W80302   1.805   0.206   2.555
12074W        W80303   9.649  33.114  11.483
12075W        W80304  12.784  13.565   4.932
12076W        W80305  40.412  40.859   1.842
12077W        W80306   0.461   4.815  11.472
12078W        W80307  18.568   8.772  14.115
12079W        W80308  19.855  41.248   0.780
12080W        W80309  19.062  21.019  13.106
12081W        W80310  39.960  28.297   2.888
12082W        W80311   8.869  23.470  13.051
12083W        W80312  25.969  42.216   0.459
12084W        W80313  12.511   6.221  13.452
12085W        W80314  43.633  20.206   4.124
12086W        W80315  28.962  20.622  14.599
12087W        W80316  14.200  31.883   2.351
12088W        W80317   4.805   3.976  13.499
12089W        W80318  38.609   8.324   0.508
12090W        W80319  26.001  11.368   3.230
12091W        W80320  36.785  31.142  11.649
12092W        W80321  17.040  28.000  12.545
12093W        W80322  33.730  18.629  11.493
12094W        W80323   9.369  37.962  13.125
12095W        W80324   6.332  12.843   3.342
12096W        W80325  42.507  42.400  11.443
12097W        W80326  43.980  22.086   1.462
12098W        W80327  18.821  28.614   0.520
12099W        W80328  39.230  10.079   0.283
12100W        W80329  23.944  12.698  12.881
12101W        W80330  23.998   7.954  10.651
12102W        W80331  31.498  22.034   0.439
12103W        W80332  21.255  44.833  13.740
12104W        W80333  34.505  20.145  11.871
12105W        W80334   5.937  17.588   1.725
12106W        W80335  22.534  40.814   0.522
12107W        W80336  22.478  35.548  11.542
12108W        W80337  31.234  10.164  12.442
12109W        W80338  21.473  28.372   2.772
12110W        W80339  29.601   8.119  11.300
12111W        W80340   9.974  35.866  14.003
12112W        W80341   2.690  13.998  14.046
12113W        W80342  22.020   4.486   0.855
12114W        W80343  32.948  15.071  13.454
12115W        W80344  20.534  15.169   5.008
12116W        W80345   2.890  42.261  12.875
12117W        W80346  38.795  20.271  14.800
12118W        W80347   4.767  22.133  14.732
12119W        W80348   0.384  30.625  11.578
12120W        W80349  31.179   5.092  14.156
12121W        W80350   3.263  44.202  10.926
12122W        W80351  26.781  33.220   2.351
12123W        W80352  39.986  42.651  11.625
12124W        W80353   5.972   0.227  11.586
12125W        W80354  24.811  35.110   1.377
12126W        W80355  15.012  41.083   2.337
12127W        W80356  44.723   6.310  11.510
12128W        W80357  13.293  32.896  14.701
12129W        W80358   4.658  14.665  10.439
12130W        W80359  27.865  20.576   0.415
12131W        W80360  43.594  15.264  12.903
12132W        W80361  20.655  15.690  14.742
12133W        W80362  32.166  33.857  12.084
12134W        W80363  40.035   7.261   2.857
12135W        W80364  13.832  11.306   0.080
12136W        W80365  10.713  19.575  14.490
12137W        W80366  32.426  44.319   4.288
12138W        W80367  23.754  22.734  12.009
12139W        W80368  11.402  17.917   3.945
12140W        W80369  19.016  29.515  11.764
12141W        W80370  22.061   4.724  12.987
12142W        W80371  12.688  18.317  12.430
12143W        W80372  23.723  38.878  11.092
12144W        W80373  40.184  27.180   0.954
12145W        W80374  41.774  33.892  11.239
12146W        W80375  32.360   2.531  13.302
12147W        W80376  26.150  19.506  14.875
12148W        W80377  36.699  17.663  11.390
12149W        W80378  33.455   4.395  10.969
12150W        W80379  27.366  29.315  11.954
12151W        W80380  20.016  43.915   2.454
12152W        W80381  15.894  32.794   4.830
12153W        W80382  20.997   6.645   2.461
12154W        W80383  14.325  13.134  10.044
12155W        W80384  42.952   2.318   0.319
12156W        W80385  18.749  38.765   3.343
12157W        W80386   1.971  13.792  11.111
12158W        W80387  23.735   7.838   2.785
12159W        W80388  28.694  26.182   4.285
12160W        W80389  27.126   1.509  10.708
12161W        W80390  36.272  34.148   1.753
12162W        W80391  37.341  25.061  11.466
12163W        W80392  37.841   8.348   3.162
12164W        W80393  11.810   1.343   4.339
12165W        W80394  33.566  30.413  14.381
12166W        W80395  34.663  23.124  11.079
12167W        W80396  22.814  17.754  14.803
12168W        W80397  24.224  42.345   2.396
12169W        W80398  43.752   8.746  12.830
12170W        W80399  28.712   9.826   4.060
12171W        W80400  30.000  36.933   3.661
12172W        W80401   9.241  30.394  13.877
12173W        W80402   6.473  25.668   0.446
12174W        W80403  19.419   6.812   3.635
12175W        W80404  37.965   8.306   3.649
12176W        W80405   4.372  40.392  11.615
12177W        W80406  43.184  20.023   4.349
12178W        W80407   1.164  34.802  13.561
12179W        W80408   6.140   6.435  11.542
12180W        W80409  37.994   0.227   4.211
12181W        W80410   9.786  21.503   4.320
12182W        W80411  14.128   0.044   1.972
12183W        W80412  14.782  34.939  12.079
12184W        W80413  14.589   1.215  12.989
12185W        W80414  26.174  24.963   0.179
12186W        W80415  16.033  11.048   3.900
12187W        W80416   0.731  15.665  13.785
12188W        W80417   1.874  37.963   2.798
12189W        W80418  42.488  44.358   4.111
12190W        W80419  42.879  44.967  13.271
12191W        W80420  18.206   0.270   3.249
12192W        W80421  37.827   0.859  12.594
12193W        W80422   5.755  37.509  12.909
12194W        W80423  20.643  11.682   3.821
12195W        W80424   8.877  28.197   4.180
12196W        W80425  35.151  36.886  12.432
12197W        W80426   0.299  36.508   0.334
12198W        W80427  13.667  17.332  11.873
12199W        W80428  18.757  25.516   1.169
12200W        W80429  20.110   1.744   5.029
12201W        W80430  19.744  14.388  13.583
12202W        W80431  20.620  42.928  12.173
12203W        W80432   6.113  23.024  11.399
12204W        W80433  19.546   4.355  12.407
12205W        W80434   5.367  14.502  11.985
12206W        W80435  20.207   2.771   4.066
12207W        W80436  21.106  18.734  12.881
12208W        W80437   2.747   5.815   4.623
12209W        W80438   5.618  11.270   3.873
12210W        W80439  36.331  34.298   3.513
12211W        W80440   0.308   4.194   4.642
12212W        W80441  19.453  33.074   2.273
12213W        W80442  21.231  33.023  14.714
12214W        W80443  28.674   2.100  12.756
12215W        W80444  33.101  38.421  12.995
12216W        W80445  42.746  21.294  14.419
12217W        W80446  27.943  37.995  12.391
12218W        W80447  39.482  38.800   4.620
12219W        W80448   8.845  36.924  12.782
12220W        W80449  13.998  16.492   3.743
12221W        W80450  14.567   8.568  10.894
12222W        W80451  44.418  33.023   0.142
12223W        W80452   3.087   1.409  11.159
12224W        W80453   2.474  29.845  10.458
12225W        W80454  24.705  22.184  11.507
12226W        W80455   5.188   2.704  12.082
12227W        W80456  33.539  16.581  14.967
12228W        W80457   7.226   7.747   4.145
12229W        W80458  35.854  41.783   2.709
12230W        W80459  23.545  19.174   4.519
12231W        W80460  22.994  27.091   0.382
12232W        W80461  23.039  19.066   1.008
12233W        W80462  10.441  38.902   0.748
12234W        W80463   2.632  42.865   2.723
12235W        W80464  17.748  38.270   3.835
12236W        W80465  40.047   5.278  14.911
12237W        W80466  26.049  18.322   1.292
12238W        W80467   2.932  34.416  11.912
12239W        W80468   4.236   3.335  12.439
12240W        W80469   8.409  27.411  12.945
12241W        W80470  40.465   0.835   0.231
12242W        W80471  21.703  31.979  14.777
12243W        W80472  25.585  10.124   1.769
12244W        W80473   2.265  14.089   3.318
12245W        W80474  15.007   8.856   4.962
12246W        W80475  15.227  11.920  14.923
12247W        W80476  21.065  24.764  11.190
12248W        W80477  34.887  24.087  11.663
12249W        W80478  22.571  28.420   0.652
12250W        W80479  42.196   7.895  13.427
12251W        W80480   3.722  24.563  14.858
12252W        W80481   5.948  41.497   1.339
12253W        W80482   7.763  31.608   3.692
12254W        W80483  13.862  13.108   3.778
12255W        W80484  41.992  40.470   1.389
12256W        W80485  13.910   6.986  14.870
12257W        W80486  40.660  24.486   3.764
12258W        W80487   6.324  44.814   1.206
12259W        W80488  25.119   8.731   3.230
12260W        W80489  26.057  22.019   2.084
12261W        W80490  40.286  37.497  12.366
12262W        W80491  38.764  29.846  13.984
12263W        W80492  35.461   8.025  12.950
12264W        W80493  43.503  38.522   1.871
12265W        W80494   4.143  28.267   0.040
12266W        W80495  18.653  39.862  12.594
12267W        W80496  21.255  40.505   0.699
12268W        W80497  29.197  17.889   3.245
12269W        W80498   3.742   2.493  13.883
12270W        W80499  27.081   3.492   2.648
12271W        W80500   7.437  43.001  12.879
12272W        W80501  29.588  44.773   1.413
12273W        W80502   3.171  15.064   3.211
12274W        W80503   3.078  22.028   1.186
12275W        W80504   2.677  27.873   5.021
12276W        W80505  30.398   1.417   4.789
12277W        W80506  11.224  17.356   2.328
12278W        W80507   3.691  22.699  14.348
12279W        W80508  38.316  23.229   1.014
12280W        W80509  40.955  23.038   3.315
12281W        W80510  10.678  44.205  11.562
12282W        W80511  11.075  25.665  14.224
12283W        W80512  16.536   1.361   2.268
12284W        W80513  15.081   4.409   3.777
12285W        W80514   9.383  35.614   0.909
12286W        W80515  19.096  30.885  13.465
12287W        W80516  21.936  36.471  11.587
12288W        W80517  38.081  30.533  14.948
12289W        W80518  35.431  38.945   1.895
12290W        W80519  35.852   8.764  12.004
12291W        W80520   5.484  17.051  12.968
12292W        W80521  10.123  40.277  12.871
12293W        W80522   1.716  36.436  11.177
12294W        W80523   3.690  16.799   1.775
12295W        W80524   3.300  15.843   5.235
12296W        W80525  28.987  18.648   0.511
12297W        W80526  21.015  30.595   0.617
12298W        W80527  26.041  28.682   2.849
12299W        W80528  42.332  39.552  11.536
12300W        W80529   1.881  12.265   0.782
12301W        W80530  23.306  22.276   4.184
12302W        W80531  29.239  18.389   3.835
12303W        W80532  24.285  13.424   0.054
12304W        W80533  42.707  12.049  12.400
12305W        W80534   6.488  33.254  10.967
12306W        W80535   5.336  14.647   4.851
12307W        W80536  18.956  15.285  12.847
12308W        W80537  33.920  44.834  14.005
12309W        W80538  12.063  24.007  14.236
12310W        W80539   0.540  19.511  12.581
12311W        W80540   3.752   3.629  11.097
12312W        W80541  22.129   0.960   3.670
12313W        W80542  36.084   9.821   3.288
12314W        W80543   0.691  41.557   1.075
12315W        W80544  35.134  32.836   1.859
12316W        W80545  20.596  32.105  13.275
12317W        W80546  24.165  44.533   3.756
12318W        W80547  43.732   9.161  14.012
12319W        W80548  33.421  33.969  11.232
12320W        W80549   9.382  35.340  13.340
12321W        W80550  10.140  24.569   2.633
12322W        W80551  33.307  35.316   3.720
12323W        W80552   6.900   0.512  13.561
12324W        W80553  30.342   0.671  11.214
12325W        W80554  18.022  15.037   3.180
12326W        W80555  25.402  22.821  11.111
12327W        W80556  10.222  15.366   3.141
12328W        W80557  22.214  30.222   4.223
12329W        W80558  36.777  38.108  12.581
12330W        W80559  12.396  34.331   0.396
12331W        W80560   3.320  40.782   2.395
12332W        W80561  10.968   2.256  11.046
12333W        W80562   4.315  34.525  12.896
12334W        W80563  34.008  25.065  13.956
12335W        W80564  31.990   2.947   3.777
12336W        W80565  37.330   8.447  10.724
12337W        W80566   1.016  32.073  11.863
12338W        W80567   0.288  26.609  10.577
12339W        W80568  25.208   3.664   0.815
12340W        W80569  24.951  16.631  11.986
12341W        W80570   1.364   0.909  13.645
12342W        W80571  41.757  31.012  12.446
12343W        W80572  39.344  32.205   2.768
12344W        W80573   9.198  36.817  10.602
12345W        W80574  32.944  26.049  12.085
12346W        W80575  18.877  29.763   9.783
12347W        W80576   1.477  41.241  14.946
12348W        W80577   1.372  18.017  12.528
12349W        W80578  34.189  21.208   4.572
12350W        W80579  29.002  14.642   0.970
12351W        W80580  40.408  34.444   4.036
12352W        W80581   8.431  39.874   2.161
12353W        W80582  35.998  19.078   1.024
12354W        W80583  37.442   5.505  14.140
12355W        W80584   0.845   6.356  14.961
12356W        W80585   6.233  42.542   4.222
12357W        W80586  43.479  32.921   4.080
12358W        W80587  35.940  27.036   2.443
12359W        W80588  22.568  17.993  11.761
12360W        W80589   6.245  15.958   0.480
12361W        W80590  13.852  25.068  11.089
12362W        W80591  22.583  24.545  13.563
12363W        W80592   2.406  31.930  10.739
12364W        W80593  39.892   8.901  12.957
12365W        W80594  26.053  26.242   1.431
12366W        W80595  22.606  38.585   5.155
12367W        W80596   6.810  25.425  12.352
12368W        W80597  39.862   8.350   5.402
12369W        W80598   2.249  23.952   1.437
12370W        W80599  10.516  30.095  12.318
12371W        W80600  19.202  20.715  14.746
12372W        W80601   0.737  37.841   2.273
12373W        W80602  26.444  17.076   3.379
12374W        W80603  42.589  36.550  11.611
12375W        W80604  37.100  43.370  12.911
12376W        W80605  37.053  37.457   3.741
12377W        W80606  39.833  33.020  14.724
12378W        W80607   5.869   5.077  14.796
12379W        W80608  36.420   3.924   2.816
12380W        W80609  44.907   2.300  13.763
12381W        W80610  31.928   4.223  10.189
12382W        W80611  21.148  42.015  11.698
12383W        W80612  40.345  37.918   3.171
12384W        W80613  30.654  19.329  11.476
12385W        W80614  22.270  35.660   4.293
12386W        W80615  26.129  32.116  11.550
12387W        W80616  40.075  24.494   1.907
12388W        W80617  27.704   7.678   1.627
12389W        W80618   2.236  23.631  12.930
12390W        W80619  37.519  13.251   2.376
12391W        W80620   1.105  12.101   0.674
12392W        W80621  23.928  40.453  11.181
12393W        W80622  26.553  35.545   4.584
12394W        W80623  18.618   8.941  10.344
12395W        W80624   7.858  30.941  12.114
12396W        W80625  19.020  39.764  12.974
12397W        W80626  41.583  18.789  12.147
12398W        W80627  11.162   0.191  14.348
12399W        W80628  15.054  27.742  11.177
12400W        W80629  27.966  37.454   5.104
12401W        W80630  34.075   2.428   4.805
12402W        W80631   5.404  28.642   1.913
12403W        W80632  22.145  19.804   4.635
12404W        W80633  26.260  36.459   2.612
12405W        W80634  32.059  16.315   5.563
12406W        W80635  36.580  16.833   1.217
12407W        W80636   2.894  32.124   2.350
12408W        W80637  34.084   9.771  12.603
12409W        W80638  33.644  13.690   2.803
12410W        W80639  29.945   0.905   2.063
12411W        W80640  39.862   9.397  12.671
12412W        W80641  30.993  13.667   4.567
12413W        W80642  25.037  16.036  14.334
12414W        W80643  29.090   4.086   0.894
12415W        W80644  13.593   5.685   0.418
12416W        W80645  18.143   7.402   1.800
12417W        W80646  35.771  33.643  12.541
12418W        W80647  10.607   5.950  10.670
12419W        W80648  26.920   1.446  11.532
12420W        W80649  34.466  34.537   4.055
12421W        W80650  42.919  20.150  10.696
12422W        W80651   6.044   1.412   3.684
12423W        W80652  15.345   7.864  11.589
12424W        W80653   2.447  44.341   3.660
12425W        W80654  15.858  12.835   1.800
12426W        W80655  29.401  16.866   1.494
12427W        W80656   5.332  38.748   4.608
12428W        W80657  25.537  40.462   2.327
12429W        W80658  31.253   3.326  10.327
12430W        W80659  33.379  10.506  11.541
12431W        W80660   0.210  30.714  12.499
12432W        W80661  37.944  33.483   2.548
12433W        W80662  37.812  10.272   0.565
12434W        W80663   4.041   4.944   3.227
12435W        W80664  28.447  37.932   2.490
12436W        W80665  40.180   1.187   1.902
12437W        W80666  15.071  34.082  11.560
12438W        W80667  31.466  44.764   1.710
12439W        W80668  42.979  42.851  10.568
12440W        W80669   4.476  16.827  13.419
12441W        W80670  40.864   4.368  12.535
12442W        W80671  14.409  33.536   0.232
12443W        W80672  12.853  40.021   1.383
12444W        W80673  17.711   7.583  14.284
12445W        W80674  18.858  17.747  14.743
12446W        W80675  37.372   8.545   3.248
12447W        W80676  40.263  35.129   1.788
12448W        W80677  30.621  13.550  13.818
12449W        W80678  42.867  25.337   4.694
12450W        W80679  15.064  19.123  14.441
12451W        W80680  21.015  38.427  14.835
12452W        W80681  27.133  13.936   3.366
12453W        W80682  41.238  40.385  14.099
12454W        W80683  25.417  30.072   0.212
12455W        W80684  43.433   8.935  11.827
12456W        W80685  37.908   1.772   1.518
12457W        W80686  41.588  44.333  14.017
12458W        W80687  21.570  24.187  11.978
12459W        W80688  20.072  14.159  12.153
12460W        W80689  25.427  34.545   1.006
12461W        W80690  16.712  36.415   4.069
12462W        W80691  33.944  39.078  10.682
12463W        W80692  42.125  44.366  10.273
12464W        W80693  33.023   1.513   4.258
12465W        W80694  44.929   0.007   3.235
12466W        W80695  33.938   2.679   3.048
12467W        W80696  17.628  13.591  12.029
12468W        W80697   8.648  44.894   1.333
12469W        W80698  18.656  44.227   1.774
12470W        W80699  10.399  32.036   4.604
12471W        W80700  35.036   8.637  10.305
12472W        W80701  22.169  43.530  10.720
12473W        W80702  25.217  27.180  11.156
12474W        W80703  39.250  33.607  14.406
12475W        W80704  15.404   6.313   2.243
12476W        W80705  15.660  41.450  13.793
12477W        W80706  30.607  22.605  13.936
12478W        W80707   3.943  23.003   1.423
12479W        W80708  24.536  25.350   4.942
12480W        W80709   0.515  36.359   0.800
12481W        W80710   4.386   8.290   3.241
12482W        W80711  39.534  34.489  13.457
12483W        W80712  10.012   5.164   3.726
12484W        W80713  35.690   0.349  12.407
12485W        W80714  38.346   7.403   0.335
12486W        W80715  26.826  32.480  13.859
12487W        W80716   3.669  20.838   1.802
12488W        W80717  38.893  34.978   4.577
12489W        W80718  36.350  15.850   0.473
12490W        W80719  20.771  12.735   4.699
12491W        W80720  20.300  12.123   1.809
12492W        W80721  21.881  12.087   2.654
12493W        W80722   0.502   0.519  11.013
12494W        W80723  10.383  16.874   4.170
12495W        W80724  31.457  12.680   1.224
12496W        W80725  33.319  28.618  14.635
12497W        W80726  17.101  26.946  10.248
12498W        W80727  39.249  11.863  12.228
12499W        W80728  12.159  16.882   3.699
12500W        W80729   5.748  10.636  11.161
12501W        W80730  25.689  18.559  11.391
12502W        W80731  24.178  19.771   2.275
12503W        W80732  20.336   6.275   2.828
12504W        W80733  14.358  32.929  10.347
12505W        W80734  33.012  11.627   1.956
12506W        W80735  10.590   2.432   1.856
12507W        W80736   9.606   9.342   1.265
12508W        W80737  12.868   1.650  14.278
12509W        W80738   6.103  34.561  11.199
12510W        W80739   3.407  16.380  11.645
12511W        W80740  35.745  39.912  10.829
12512W        W80741  12.439  31.112  10.774
12513W        W80742   4.444  32.571   3.047
12514W        W80743  12.736  41.604  11.963
12515W        W80744  19.021  43.127  12.993
12516W        W80745  10.222   4.040   4.988
12517W        W80746  20.398  37.046  11.103
12518W        W80747  36.298   7.897  14.011
12519W        W80748  27.017  13.255   4.570
12520W        W80749  18.365   4.631   2.681
12521W        W80750  14.324   0.307  10.889
12522W        W80751   6.387  36.607   3.784
12523W        W80752  26.907  16.305  13.809
12524W        W80753  42.568  25.504   1.277
12525W        W80754  20.532  11.299   1.727
12526W        W80755  41.562  34.163  11.635
12527W        W80756  40.583  40.536   3.099
12528W        W80757  18.273  34.282   4.074
12529W        W80758  27.713  31.050   0.757
12530W        W80759  11.696   2.368   2.191
12531W        W80760   8.144  20.531   3.417
12532W        W80761   6.396  10.978  13.825
12533W        W80762  39.399  25.190  12.057
12534W        W80763  25.636  19.793   3.216
12535W        W80764  43.839  34.158   2.815
12536W        W80765  19.514   1.815   2.249
12537W        W80766  31.229  37.779  12.478
12538W        W80767  38.073  22.724  14.967
12539W        W80768  23.772  40.662   4.492
12540W        W80769  26.948  21.610  13.424
12541W        W80770  16.120  24.648   0.444
12542W        W80771  20.830   7.260  13.063
12543W        W80772  17.302   1.587   1.847
12544W        W80773   0.840  25.492   4.729
12545W        W80774  22.288  38.079   0.730
12546W        W80775   7.258  37.461   3.745
12547W        W80776  21.099   9.568   0.374
12548W        W80777  15.830  25.655  14.554
12549W        W80778  20.068  16.533   4.196
12550W        W80779  40.332  16.784  13.959
12551W        W80780   4.368   1.192  12.453
12552W        W80781  30.390  22.967  11.141
12553W        W80782  42.520  44.866   4.166
12554W        W80783  43.328  30.561   4.960
12555W        W80784  21.659   7.814  14.849
12556W        W80785  32.923  29.909  14.800
12557W        W80786   5.394   4.777   0.974
12558W        W80787  10.543  42.285   0.590
12559W        W80788  15.221  16.208   1.705
12560W        W80789  32.859  19.024   1.942
12561W        W80790  42.334  21.552  12.790
12562W        W80791  26.470  44.953  12.151
12563W        W80792  22.157  40.255  13.447
12564W        W80793   5.545   2.997  10.743
12565W        W80794  40.103  12.260   2.726
12566W        W80795  16.587  14.703  10.737
12567W        W80796  33.139  30.188  12.940
12568W        W80797  17.039  20.071   0.242
12569W        W80798  14.588   5.311   3.803
12570W        W80799  44.762  43.896   0.277
12571W        W80800  13.059  35.924  14.391
12572W        W80801   7.887   0.420  12.427
12573W        W80802  41.596  22.463  14.930
12574W        W80803   5.961  35.690  14.415
12575W        W80804   3.409  37.944  11.614
12576W        W80805  39.836  16.619   3.678
12577W        W80806  15.410   5.783   1.860
12578W        W80807  18.257  28.200   2.330
12579W        W80808  38.489  25.474  12.956
12580W        W80809  18.747  43.547   1.008
12581W        W80810   4.480  38.322  12.908
12582W        W80811   9.779  30.103  10.314
12583W        W80812  27.605  12.065  12.353
12584W        W80813   9.684  17.690  11.613
12585W        W80814  42.938  22.166  11.554
12586W        W80815  11.810  23.918  10.117
12587W        W80816  41.089  18.660  13.019
12588W        W80817  23.269  41.836   1.811
12589W        W80818   2.879  16.145  13.856
12590W        W80819  19.909  18.620   0.492
12591W        W80820   8.622  37.641  12.423
12592W        W80821  20.598   7.810   4.466
12593W        W80822  34.760  10.617   1.425
12594W        W80823  13.581  44.777  13.047
12595W        W80824  36.350  34.891   4.354
12596W        W80825  17.364  28.155   1.369
12597W        W80826   4.440  22.463   2.893
12598W        W80827  19.734   8.423  11.939
12599W        W80828  43.843  18.953   1.957
12600W        W80829  20.751  22.432   1.794
12601W        W80830   2.965  22.046  14.489
12602W        W80831   9.642  11.455  13.403
12603W        W80832   8.335  44.428  14.998
12604W        W80833   4.713   3.890   1.097
12605W        W80834  39.383  32.997  11.992
12606W        W80835  27.673  21.854  14.548
12607W        W80836  12.024  28.991  12.443
12608W        W80837  17.623  21.271   3.203
12609W        W80838   7.661   8.678   4.126
12610W        W80839  33.733  25.919   2.608
12611W        W80840  23.232  43.048   2.281
12612W        W80841  14.031  42.728  12.382
12613W        W80842   4.435  27.531   3.338
12614W        W80843   7.266  26.918  10.321
12615W        W80844  28.342   0.950  14.344
12616W        W80845  15.861  44.733   1.882
12617W        W80846  12.274  11.244   3.592
12618W        W80847  10.179  12.852   0.668
12619W        W80848  37.519  26.445  11.197
12620W        W80849  44.569  23.521  12.600
12621W        W80850  10.238   6.386  11.629
12622W        W80851  35.002  17.849   0.079
12623W        W80852   3.245  26.961  13.087
12624W        W80853  36.794   9.356  11.436
12625W        W80854  23.596  35.592   1.823
12626W        W80855  17.978  38.864  11.969
12627W        W80856  31.986  37.465   1.727
12628W        W80857  32.005  37.362  13.949
12629W        W80858  35.213  21.341  14.432
12630W        W80859  10.831  23.215  11.161
12631W        W80860  38.787  19.617   3.786
12632W        W80861  20.235   2.795  11.461
12633W        W80862  15.626   3.839  12.960
12634W        W80863  27.715   1.854  10.622
12635W        W80864  31.091  40.094  10.696
12636W        W80865   1.402   6.459  12.868
12637W        W80866  21.524  26.910   0.507
12638W        W80867  28.744  19.083   0.409
12639W        W80868  28.853  19.636  11.906
12640W        W80869   4.272  19.439   0.340
12641W        W80870  43.184  37.944   1.386
12642W        W80871   9.874   2.221   1.421
12643W        W80872   4.652  40.047  13.345
12644W        W80873  32.316  25.738  11.426
12645W        W80874   8.339  11.630  13.485
12646W        W80875  11.590  15.463  11.996
12647W        W80876  26.770  28.200  14.475
12648W        W80877  41.540  41.300   2.720
12649W        W80878  39.631  31.483  14.461
12650W        W80879  11.335  17.015  10.077
12651W        W80880  11.337   4.719  11.945
12652W        W80881  42.516  37.571   3.106
12653W        W80882  21.371  14.606   3.743
12654W        W80883   1.402  37.353   3.182
12655W        W80884  12.185   7.355  13.408
12656W        W80885  13.790   1.520   3.182
12657W        W80886  28.200   8.533  10.860
12658W        W80887   0.806  16.971  11.094
12659W        W80888   3.519  11.820  11.877
12660W        W80889  10.010  36.092   2.369
12661W        W80890  34.109  26.693   0.557
12662W        W80891  17.469  44.477  12.076
12663W        W80892  43.764  41.816  14.276
12664W        W80893  28.374   0.842  12.599
12665W        W80894  23.419  40.067  12.109
12666W        W80895  31.646   1.198  12.754
12667W        W80896  10.178  13.512  14.288
12668W        W80897  11.237  18.767  14.077
12669W        W80898  15.357  11.482   4.944
12670W        W80899  40.495   7.638   2.267
12671W        W80900  22.408  15.746  10.325
12672W        W80901   0.967  26.180   1.733
12673W        W80902  15.843  22.005  14.812
12674W        W80903  12.089   6.527   3.796
12675W        W80904  25.750  39.917   0.488
12676W        W80905   9.676  36.129  14.326
12677W        W80906  32.606   7.103  11.179
12678W        W80907  12.416  38.567  11.940
12679W        W80908  15.712  43.938  10.780
12680W        W80909  23.139  39.078   4.968
12681W        W80910   4.483  20.292  11.441
12682W        W80911   6.291   1.798   2.694
12683W        W80912  24.601  31.915  13.443
12684W        W80913  36.003  36.275  12.442
12685W        W80914  37.499   2.585   5.067
12686W        W80915  40.347  13.789   0.339
12687W        W80916  40.541  12.142  10.601
12688W        W80917  39.560  42.005  11.904
12689W        W80918  12.670  18.301   3.611
12690W        W80919   7.873  31.036  12.994
12691W        W80920  13.136  16.065   4.162
12692W        W80921  28.930  14.765  13.454
12693W        W80922  28.650  21.274   1.410
12694W        W80923  14.438   8.328  14.067
12695W        W80924  18.343  36.042   1.805
12696W        W80925  20.655  28.863  11.503
12697W        W80926  32.576  38.901   4.483
12698W        W80927  33.815  29.115   0.867
12699W        W80928  31.077  41.267  14.707
12700W        W80929  36.601   0.795  11.614
12701W        W80930  22.744  43.027   0.745
12702W        W80931  16.441  40.828  10.625
12703W        W80932  36.761  31.216  12.528
12704W        W80933  18.689  19.507  12.143
12705W        W80934  18.302  37.622  11.603
12706W        W80935  20.846  32.520  13.486
12707W        W80936   3.844  23.141   1.936
12708W        W80937  11.290  28.430   2.275
12709W        W80938  15.549  18.210   2.964
12710W        W80939  38.917   6.910   1.884
12711W        W80940  26.634   7.698   2.342
12712W        W80941  21.604   7.640  11.551
12713W        W80942  24.652  13.010  13.348
12714W        W80943  29.995  36.021  14.497
12715W        W80944  24.426  33.563  11.630
12716W        W80945  32.528  36.650  11.111
12717W        W80946  17.251   7.908  11.604
12718W        W80947  23.713   5.871   0.393
12719W        W80948  10.858  27.410  14.201
12720W        W80949  44.935  12.316   3.583
12721W        W80950  40.426  13.175   2.470
12722W        W80951  42.925  43.735  14.551
12723W        W80952  32.149  11.181  11.421
12724W        W80953  16.887  15.283  12.972
12725W        W80954  44.218  16.780   4.143
12726W        W80955  12.474  28.575   0.572
12727W        W80956   3.330  10.780  12.064
12728W        W80957  16.546  23.582  13.628
12729W        W80958  34.418  26.089   0.108
12730W        W80959  12.371  25.678   4.627
12731W        W80960  11.248   4.759  10.932
12732W        W80961  38.530  37.449  10.936
12733W        W80962  34.863  10.903  13.811
12734W        W80963   4.670  15.632  11.452
12735W        W80964   5.156  21.165   2.296
12736W        W80965  25.481  17.778  13.940
12737W        W80966  18.398   8.355  13.368
12738W        W80967  24.230  32.158   3.620
12739W        W80968  16.355  43.370  10.732
12740W        W80969  22.078  31.537  12.564
12741W        W80970  43.544  20.692   3.849
12742W        W80971  27.431   6.070   3.566
12743W        W80972  17.024  27.368  11.059
12744W        W80973  16.820  35.987  13.563
12745W        W80974  10.967  43.855  13.450
12746W        W80975  17.809   6.950   1.758
12747W        W80976  22.296  38.040  12.001
12748W        W80977  30.061   9.638  12.268
12749W        W80978   6.402  30.583   4.558
12750W        W80979  14.138   5.082  14.457
12751W        W80980  36.424  10.165   0.858
12752W        W80981  21.556   9.411   2.257
12753W        W80982  39.600  25.850   1.890
12754W        W80983  23.756   8.928   0.393
12755W        W80984  15.242   3.656  13.297
12756W        W80985   2.292  17.767   2.370
12757W        W80986  42.628   6.284  10.627
12758W        W80987  22.745  27.583   3.114
12759W        W80988  28.685   3.863   1.305
12760W        W80989  20.600  15.795   1.663
12761W        W80990  40.358  32.134  14.275
12762W        W80991  29.515  25.695   3.148
12763W        W80992  34.089  11.125   1.353
12764W        W80993  42.516  28.129  11.646
12765W        W80994  36.970  43.147  11.899
12766W        W80995  21.934  35.471   3.947
12767W        W80996  14.109  18.007  13.863
12768W        W80997  24.288   2.803  11.683
12769W        W80998   9.795  36.173   0.336
12770W        W80999  12.178  23.164   2.660
12771W        W81000  37.822  25.076  10.882
12772W        W81001  15.427  29.163  11.013
12773W        W81002  13.739  37.536   2.957
12774W        W81003  39.892  15.588   4.184
12775W        W81004  28.543  27.734  14.912
12776W        W81005  21.779  22.240  14.590
12777W        W81006  25.727  13.927  11.520
12778W        W81007  12.624  23.291   2.420
12779W        W81008  32.507  33.924   1.889
12780W        W81009  19.731  18.227   4.907
12781W        W81010  21.606  26.309   3.633
12782W        W81011   3.300   6.929   1.335
12783W        W81012  16.907   3.374   4.635
12784W        W81013  42.946   0.792  13.979
12785W        W81014  22.436  18.604   2.926
12786W        W81015  36.970  17.746  14.097
12787W        W81016  17.136   2.468  14.942
12788W        W81017  24.750  29.454  10.850
12789W        W81018  28.108   0.885  10.329
12790W        W81019   3.825  19.519   3.595
12791W        W81020  36.521  42.705  11.573
12792W        W81021  16.746  14.165  14.281
12793W        W81022  16.305   6.315  14.753
12794W        W81023  38.266  16.976  12.058
12795W        W81024  33.223  23.175   1.347
12796W        W81025  17.639  29.160  13.361
12797W        W81026   3.035  19.708   1.958
12798W        W81027  44.115  29.733   2.319
12799W        W81028  40.423  18.336   1.377
12800W        W81029  12.608   1.917  10.298
12801W        W81030  33.969  31.220  13.116
12802W        W81031   6.277  10.287  11.807
12803W        W81032   4.130  18.661  14.860
12804W        W81033  36.438   5.506  14.770
12805W        W81034  43.726  22.644  12.960
12806W        W81035  38.095  33.001  11.552
12807W        W81036  28.883  43.736   3.149
12808W        W81037   2.128  22.195   4.616
12809W        W81038  39.049  20.264  14.338
12810W        W81039  41.768   6.748   0.730
12811W        W81040  20.048  40.767   0.367
12812W        W81041  43.336  20.013  14.951
12813W        W81042  32.793  41.667   2.659
12814W        W81043  10.951   6.501  12.181
12815W        W81044  36.954  36.699  12.513
12816W        W81045  32.112  43.555  11.111
12817W        W81046  32.871  12.784  13.111
12818W        W81047  27.047  32.299   0.305
12819W        W81048  31.775  11.809   2.659
12820W        W81049   7.406  11.237  13.827
12821W        W81050  15.459  19.750   1.224
12822W        W81051   8.324  19.086   2.166
12823W        W81052  41.307  28.249  12.006
12824W        W81053  39.386  27.119   4.550
12825W        W81054  37.612  29.128  11.185
12826W        W81055  19.500   8.199   0.324
12827W        W81056  28.870  19.798   3.591
12828W        W81057  26.715   6.407  12.931
12829W        W81058  28.438  14.626   0.300
12830W        W81059   7.804   7.906  11.586
12831W        W81060   0.374  11.859  14.813
12832W        W81061  44.397  28.302  13.034
12833W        W81062  38.464   6.629   1.934
12834W        W81063  15.804  19.523   0.341
12835W        W81064   7.232  42.985   3.289
12836W        W81065  18.520  20.520   2.204
12837W        W81066  27.997   4.226  14.518
12838W        W81067   5.723  31.450   0.892
12839W        W81068  18.277  30.914   4.052
12840W        W81069  31.893  19.313   3.321
12841W        W81070  10.232  38.931   0.265
12842W        W81071   6.537  36.960   4.734
12843W        W81072  24.623  13.741  11.130
12844W        W81073   1.957  39.040   0.839
12845W        W81074   5.837   1.713  11.587
12846W        W81075   6.896  34.547   0.075
12847W        W81076   1.321  23.197   2.825
12848W        W81077  37.262  44.187   1.799
12849W        W81078   5.769  35.197  10.758
12850W        W81079  22.457  42.536  13.072
12851W        W81080   1.427  17.605  13.365
12852W        W81081   0.980  21.112  11.104
12853W        W81082  16.341  35.804   4.926
12854W        W81083  31.993  20.389  11.327
12855W        W81084  32.017  23.976  11.567
12856W        W81085  38.833  27.611  10.315
12857W        W81086  39.611  24.048  10.638
12858W        W81087  31.535  11.778   3.642
12859W        W81088  33.779   1.525  12.509
12860W        W81089  31.805  19.313  13.121
12861W        W81090  28.271  12.086  14.485
12862W        W81091  23.127  22.746  13.304
12863W        W81092  14.506   1.485  10.646
12864W        W81093   1.928  27.459   0.262
12865W        W81094  26.742  15.169   2.524
12866W        W81095  19.431  32.894  14.385
12867W        W81096  22.361  40.858  11.872
12868W        W81097   4.552   6.253   0.360
12869W        W81098  39.816  38.780  11.011
12870W        W81099   6.967  22.803   0.755
12871W        W81100  19.647  25.506   0.909
12872W        W81101   8.661  25.630   3.615
12873W        W81102  34.500   1.903  13.411
12874W        W81103  34.243   6.731   0.306
12875W        W81104  11.748  35.035   1.665
12876W        W81105  28.200  36.782   0.952
12877W        W81106  10.100  11.574   3.670
12878W        W81107  19.933  34.116  12.408
12879W        W81108  36.326  14.392  14.534
12880W        W81109  25.406  33.053   0.833
12881W        W81110  34.378  27.434  13.775
12882W        W81111  39.234  26.209  11.987
12883W        W81112  18.122   5.274   4.735
12884W        W81113  31.587  24.708   4.480
12885W        W81114  43.787  34.937  14.075
12886W        W81115  36.008   8.830   4.989
12887W        W81116  20.774   6.402  11.174
12888W        W81117  10.572  38.345  13.303
12889W        W81118   5.331  30.897   3.279
12890W        W81119   3.639  24.693   4.107
12891W        W81120  13.222  34.363   9.860
12892W        W81121  20.552   5.246  13.113
12893W        W81122  17.797  13.246   0.514
12894W        W81123  23.789  32.211  11.466
12895W        W81124  32.658  20.332   3.783
12896W        W81125  42.288   3.317  10.360
12897W        W81126  43.558  39.464   0.044
12898W        W81127   3.975   4.647   1.928
12899W        W81128  42.712  43.360   3.336
12900W        W81129  37.297  28.408  12.043
12901W        W81130  34.445  37.012  12.153
12902W        W81131  41.861  30.055  10.361
12903W        W81132  15.328  27.872   3.797
12904W        W81133  23.567  30.652  12.996
12905W        W81134  14.009  15.265  10.380
12906W        W81135  23.111  31.938   0.944
12907W        W81136   4.393  29.225  14.319
12908W        W81137  15.818  13.581   3.387
12909W        W81138  24.345  13.777  13.773
12910W        W81139  16.352  37.915  14.268
12911W        W81140  18.821  17.442   0.465
12912W        W81141   1.556  31.181  11.063
12913W        W81142  37.609  21.773  12.099
12914W        W81143  10.149  23.827  10.822
12915W        W81144  10.888   9.542  11.675
12916W        W81145  17.218  34.308  13.413
12917W        W81146  41.820  40.255   1.847
12918W        W81147  15.769  29.777  10.215
12919W        W81148  22.176  40.491  13.901
12920W        W81149  26.608  10.175   2.249
12921W        W81150  36.093   2.747   3.511
12922W        W81151  31.021  10.177   0.825
12923W        W81152  40.322  13.213   4.425
12924W        W81153   3.991  16.845  10.609
12925W        W81154  13.807   7.186  11.483
12926W        W81155   4.978   7.816   0.263
12927W        W81156  33.086  21.497  14.429
12928W        W81157  41.371   3.861  13.395
12929W        W81158  18.010  11.242  13.449
12930W        W81159  31.097  33.977  13.762
12931W        W81160  17.215  23.630   1.709
12932W        W81161   4.264  43.276  12.481
12933W        W81162  21.002   0.846   1.310
12934W        W81163  40.880  43.569  12.322
12935W        W81164  37.809  37.307   4.156
12936W        W81165   0.006  22.263  14.668
12937W        W81166  15.423  42.350   2.310
12938W        W81167  19.100  33.868  12.585
12939W        W81168  19.542   2.935   3.754
12940W        W81169   9.423   5.363  14.655
12941W        W81170  13.248  32.048   4.783
12942W        W81171  37.536  20.735  11.948
12943W        W81172  39.975  12.060   4.258
12944W        W81173  33.813   8.009  12.516
12945W        W81174  15.253  37.136   0.013
12946W        W81175   8.545  19.462   3.333
12947W        W81176  24.700  11.349   5.495
12948W        W81177  41.357  24.510   2.222
12949W        W81178   9.893  13.348   0.755
12950W        W81179   1.048  26.989  14.269
12951W        W81180  43.879  42.767  11.010
12952W        W81181   7.777  17.395   2.793
12953W        W81182  40.305  21.482   2.262
12954W        W81183   8.042  41.283  12.332
12955W        W81184   1.337   1.858  12.996
12956W        W81185  35.989  26.167   1.400
12957W        W81186  23.951  24.780  13.795
12958W        W81187   4.260  25.179  14.359
12959W        W81188  33.631   8.865  12.616
12960W        W81189   1.693  24.792   0.415
12961W        W81190  39.111   7.457  13.943
12962W        W81191  30.467  15.637   3.701
12963W        W81192  11.241  35.672  12.310
12964W        W81193   5.349  32.141   2.764
12965W        W81194  25.058  16.953   2.207
12966W        W81195   1.873  16.713  10.715
12967W        W81196   0.813  13.118   4.119
12968W        W81197  22.910  38.093   0.084
12969W        W81198   9.809  20.622  13.973
12970W        W81199  40.856  41.510  11.709
12971W        W81200  20.014  41.908  10.344
12972W        W81201   3.652  30.839   1.210
12973W        W81202  32.884  26.954  10.540
12974W        W81203   8.790  25.206   4.400
12975W        W81204  15.233   1.266  12.332
12976W        W81205   5.534  26.177  11.612
12977W        W81206   9.400   4.175   1.724
12978W        W81207  33.004  44.172  11.542
12979W        W81208  17.672   5.703   2.342
12980W        W81209  18.597  41.545  13.752
12981W        W81210   5.596  22.822   1.667
12982W        W81211  36.853   5.929  13.063
12983W        W81212  10.344  19.480   3.330
12984W        W81213  37.985  14.792   4.761
12985W        W81214  35.539  21.814   4.558
12986W        W81215   5.992  27.072  11.286
12987W        W81216  44.982  21.083   1.313
12988W        W81217  17.765  29.074   4.092
12989W        W81218  30.485   7.828  14.334
12990W        W81219  12.907  22.260   4.294
12991W        W81220  16.487  41.779   0.876
12992W        W81221  28.433  15.358   1.574
12993W        W81222  20.728  31.184  12.477
12994W        W81223  42.277  22.857   2.494
12995W        W81224  37.227   7.816  13.835
12996W        W81225   7.964   5.389   0.722
12997W        W81226   5.632  24.250   2.766
12998W        W81227  33.075  26.425   0.757
12999W        W81228  25.675  24.457  13.987
13000W        W81229  36.102  24.441   4.788
13001W        W81230  13.752  27.720   2.271
13002W        W81231  10.278  26.290   0.518
13003W        W81232  23.025  20.203  14.139
13004W        W81233  23.604  26.363  12.991
13005W        W81234   3.893  16.890   1.259
13006W        W81235  30.031  22.835  14.466
13007W        W81236  20.273  16.112   1.370
13008W        W81237  14.436  31.386   2.312
13009W        W81238  37.395  16.114   1.909
13010W        W81239  32.491   3.373  14.981
13011W        W81240  22.965   4.684   1.789
13012W        W81241   8.632   7.175  11.204
13013W        W81242  39.224  41.561   3.223
13014W        W81243  17.686  34.669  12.235
13015W        W81244  23.533  34.973  14.794
13016W        W81245  38.291  27.335  12.076
13017W        W81246  18.867  30.022   1.330
13018W        W81247  31.924  39.677  14.447
13019W        W81248  27.708  29.853  11.082
13020W        W81249  28.959   3.220   3.627
13021W        W81250  32.872  36.606  12.861
13022W        W81251   9.176  16.669  13.479
13023W        W81252  35.936  23.176   0.835
13024W        W81253  22.778  21.350  12.440
13025W        W81254   3.685  41.948   0.828
13026W        W81255  22.055   3.357   2.847
13027W        W81256   8.221  26.693   1.905
13028W        W81257  27.252  38.721   4.325
13029W        W81258  25.088  12.097   3.078
13030W        W81259  22.530  18.610  12.816
13031W        W81260   1.511   3.958  11.439
13032W        W81261  33.996  29.253  10.899
13033W        W81262  38.697  37.902  10.717
13034W        W81263   3.473   5.751  11.554
13035W        W81264  42.134  14.656  14.430
13036W        W81265  10.468  15.324  11.151
13037W        W81266  44.137  28.055  14.823
13038W        W81267  42.955  14.788  13.328
13039W        W81268  30.012  40.250  11.521
13040W        W81269   6.368  18.589   3.676
13041W        W81270  31.568  17.004  12.054
13042W        W81271  35.566  11.760  10.721
13043W        W81272  21.248  37.964   0.706
13044W        W81273  31.572  19.501  12.199
13045W        W81274   8.272  36.504  13.952
13046W        W81275   8.955  17.690   1.616
13047W        W81276  38.556  10.923   4.487
13048W        W81277  39.890  43.370   2.233
13049W        W81278   6.983  44.843  11.165
13050W        W81279   5.896   0.533  12.962
13051W        W81280  43.422   8.898   3.366
13052W        W81281  14.189  41.798  13.963
13053W        W81282  19.029  25.278   5.294
13054W        W81283  18.199   0.514   1.684
13055W        W81284  17.221  36.622  14.118
13056W        W81285  28.605  30.171  13.017
13057W        W81286  21.106  35.767   2.812
13058W        W81287  21.021  22.181  13.874
13059W        W81288  44.214  19.975   3.272
13060W        W81289  40.879  11.627   2.631
13061W        W81290  39.982  21.726  10.540
13062W        W81291   1.772  14.189   1.317
13063W        W81292  37.408  34.622   3.430
13064W        W81293  41.411   8.240  13.342
13065W        W81294  11.592   6.797  14.186
13066W        W81295  16.209  39.990   0.338
13067W        W81296  28.170   3.804   1.233
13068W        W81297  16.477  38.550   3.551
13069W        W81298  43.616  19.555  11.594
13070W        W81299   5.253  16.155   2.298
13071W        W81300  25.527  11.415  10.582
13072W        W81301  14.181  14.777  11.112
13073W        W81302   2.892  13.685   0.076
13074W        W81303  16.252   3.854   0.218
13075W        W81304  15.483  42.794   1.219
13076W        W81305  27.641  34.022  13.113
13077W        W81306   0.392  12.332  13.000
13078W        W81307  40.079   9.460  14.250
13079W        W81308  20.012  29.668  11.454
13080W        W81309  11.650   4.674  13.318
13081W        W81310  16.659   2.460   4.448
13082W        W81311   1.006   3.764  14.905
13083W        W81312  15.693  10.553   1.090
13084W        W81313  38.495  30.030   3.672
13085W        W81314  28.481  44.591   0.849
13086W        W81315   7.541   5.803  13.407
13087W        W81316   1.477   1.383   2.361
13088W        W81317  28.363   9.294  14.060
13089W        W81318  10.881   8.854  10.736
13090W        W81319  41.475  39.035  11.535
13091W        W81320   8.557  22.670   2.726
13092W        W81321  17.612  35.971   2.272
13093W        W81322  41.086  36.579   0.331
13094W        W81323  40.274   0.318   2.019
13095W        W81324  20.148  21.767  11.517
13096W        W81325   4.104  14.619   4.233
13097W        W81326   5.747   1.290   2.898
13098W        W81327  35.840  33.120   2.778
13099W        W81328  26.289   5.470   0.893
13100W        W81329  13.314  19.530  11.456
13101W        W81330  25.117   6.219   3.267
13102W        W81331  36.632  21.947  11.592
13103W        W81332  15.623   1.844   0.775
13104W        W81333  41.510  16.502   1.983
13105W        W81334  39.394   9.946  14.377
13106W        W81335  13.848   1.352   4.557
13107W        W81336  28.247  25.540   4.349
13108W        W81337  22.441  10.378  12.509
13109W        W81338  16.259  16.541   2.741
13110W        W81339   4.895  12.921   1.740
13111W        W81340  10.068  14.506   4.573
13112W        W81341  20.175  12.069   2.643
13113W        W81342  11.294   6.188   1.661
13114W        W81343  42.924   0.032  11.071
13115W        W81344  33.936  20.513  13.547
13116W        W81345  17.657   1.614   2.392
13117W        W81346  24.597  32.114  12.472
13118W        W81347  20.341  25.320  14.896
13119W        W81348  39.861  16.817  13.011
13120W        W81349  42.974  17.771   2.425
13121W        W81350  23.498  35.077   1.849
13122W        W81351  44.469  37.074   1.215
13123W        W81352  15.010  16.707   1.842
13124W        W81353  27.493  35.880   2.009
13125W        W81354  29.078  34.557  11.045
13126W        W81355  28.037  40.491   2.317
13127W        W81356   6.533  13.708  12.442
13128W        W81357  13.159  22.600   5.091
13129W        W81358  32.004  20.428   1.110
13130W        W81359  32.026  32.218   0.319
13131W        W81360   5.005  16.847  10.338
13132W        W81361  10.966  15.777  10.399
13133W        W81362  17.103  18.146   0.791
13134W        W81363   7.159  13.132   3.888
13135W        W81364  19.542   0.856   4.757
13136W        W81365  44.091  42.947  13.737
13137W        W81366  33.373  12.937   3.209
13138W        W81367  34.083  37.049  13.340
13139W        W81368  16.280   4.375   0.733
13140W        W81369  40.950  37.595  14.376
13141W        W81370  16.581  44.340  11.193
13142W        W81371  13.789  32.879  12.530
13143W        W81372   7.523  20.149  12.653
13144W        W81373  42.971  35.335   1.613
13145W        W81374  30.948   6.948  13.949
13146W        W81375  24.005  31.396   2.721
13147W        W81376  30.115  12.352   4.081
13148W        W81377   8.888  24.437  10.649
13149W        W81378   5.470   6.637  12.232
13150W        W81379  11.389  16.968   0.927
13151W        W81380  18.690   2.691   2.767
13152W        W81381  16.202  34.450   0.149
13153W        W81382  17.727  20.534   2.884
13154W        W81383  13.596  25.921   2.237
13155W        W81384  33.720  25.101  12.393
13156W        W81385   8.300  26.730   3.905
13157W        W81386  31.150  32.108   3.218
13158W        W81387  17.977  27.891   4.464
13159W        W81388  20.270  42.551  12.566
13160W        W81389  13.253  25.030   4.603
13161W        W81390   2.564  39.636  10.585
13162W        W81391  43.698   9.640  11.471
13163W        W81392  30.367  23.605   2.399
13164W        W81393  21.005  33.866   3.150
13165W        W81394  23.583  36.438  11.076
13166W        W81395  22.194  30.175   1.234
13167W        W81396  19.897  35.377   2.166
13168W        W81397   7.612  32.459   2.671
13169W        W81398  33.057  26.959   3.205
13170W        W81399  30.553   7.868  14.895
13171W        W81400  37.701  33.004  14.898
13172W        W81401  25.546  15.688   4.925
13173W        W81402  41.895  41.816  10.613
13174W        W81403  40.957  24.792   1.838
13175W        W81404  22.990  43.976   9.719
13176W        W81405   8.761  11.723  12.232
13177W        W81406  14.605   4.733  12.705
13178W        W81407  11.191  42.875   1.665
13179W        W81408  26.907  18.203   1.512
13180W        W81409  13.348  14.596   4.300
13181W        W81410   5.176  15.178   4.429
13182W        W81411  39.583  32.292   5.467
13183W        W81412  13.441  10.499  11.161
13184W        W81413  17.379  24.243   1.247
13185W        W81414   9.805  39.595   3.659
13186W        W81415  16.542   7.221  12.793
13187W        W81416   8.596   7.700  11.200
13188W        W81417   8.608  22.244   2.186
13189W        W81418  16.171  41.359   0.974
13190W        W81419   8.346  42.459   2.742
13191W        W81420  18.767  15.252   0.786
13192W        W81421   1.457  34.032  14.837
13193W        W81422  38.033  25.466   2.824
13194W        W81423  25.532  24.511   4.603
13195W        W81424  36.126  36.554  12.033
13196W        W81425   8.808  31.262   0.422
13197W        W81426  22.271  14.399   4.905
13198W        W81427  10.867  43.514  14.348
13199W        W81428  13.082  29.427  14.320
13200W        W81429  26.099  40.776   1.553
13201W        W81430  34.304  39.453   0.888
13202W        W81431  43.751  13.752  11.548
13203W        W81432   1.740  44.925   4.034
13204W        W81433  10.300  24.002  13.774
13205W        W81434  17.575  12.188   4.888
13206W        W81435  34.033  20.807   1.556
13207W        W81436   4.910   5.943   4.036
13208W        W81437  19.280   1.794  13.966
13209W        W81438   4.948  25.481  11.919
13210W        W81439  22.711  31.050   2.898
13211W        W81440   7.818  32.288  12.472
13212W        W81441  37.612   3.370   0.865
13213W        W81442  41.959   1.278  13.955
13214W        W81443  29.123  22.496  11.546
13215W        W81444   9.957  10.798   2.357
13216W        W81445  17.249  20.694   1.969
13217W        W81446  38.532   9.988  12.541
13218W        W81447  25.640  13.775   2.103
13219W        W81448   7.887   7.343  10.778
13220W        W81449  39.571  27.868   4.132
13221W        W81450  39.771  17.606  14.266
13222W        W81451  10.830  11.311  14.496
13223W        W81452  19.872  35.910   3.074
13224W        W81453  42.415  29.841  12.443
13225W        W81454  33.002  23.465  10.641
13226W        W81455  32.529  15.550   2.741
13227W        W81456  35.370  40.545  13.026
13228W        W81457   9.157  12.416  14.441
13229W        W81458  25.623  23.575   4.657
13230W        W81459  14.727   2.773   3.094
13231W        W81460   6.594  34.955   4.392
13232W        W81461   3.740  44.377  10.812
13233W        W81462  38.258  15.472   1.288
13234W        W81463  12.155   6.953   2.489
13235W        W81464   3.421  38.992  10.307
13236W        W81465  38.668  36.379   2.797
13237W        W81466  28.687  19.167   1.821
13238W        W81467   0.724  34.997   3.419
13239W        W81468  31.580  24.146   3.290
13240W        W81469  28.515  27.479  12.474
13241W        W81470   6.307  24.510   1.181
13242W        W81471   5.202  23.039   2.527
13243W        W81472  44.036   2.436   1.855
13244W        W81473  17.996  44.394   0.271
13245W        W81474  30.121  30.652  11.545
13246W        W81475  33.439   1.973   0.033
13247W        W81476  39.275  33.914   3.807
13248W        W81477  10.055  31.077   3.403
13249W        W81478  41.028  14.801   3.226
13250W        W81479  19.297  12.747   3.877
13251W        W81480  10.365  22.631   3.673
13252W        W81481  41.857   8.165  13.090
13253W        W81482  24.033   8.100   3.692
13254W        W81483  32.837  25.845  11.387
13255W        W81484  15.515  15.462   2.272
13256W        W81485   0.303   5.213   3.721
13257W        W81486  11.111   9.063   2.816
13258W        W81487  16.226   4.794  10.735
13259W        W81488  42.837  29.641  13.328
13260W        W81489   5.109  28.626  10.099
13261W        W81490  26.981  36.879  12.053
13262W        W81491  36.936  27.703   0.256
13263W        W81492  31.493   9.590   4.197
13264W        W81493  12.678  14.187   2.395
13265W        W81494   1.729  40.949   0.742
13266W        W81495  21.186  36.909  11.597
13267W        W81496  18.686  37.458  13.092
13268W        W81497  30.962  37.569  11.470
13269W        W81498  15.248   4.453   2.462
13270W        W81499  11.432  39.710  14.456
13271W        W81500  21.018  23.594  13.091
13272W        W81501   3.844   7.381   1.073
13273W        W81502   8.741  32.969  14.937
13274W        W81503   6.873   9.456   4.201
13275W        W81504  23.591   2.187   2.200
13276W        W81505  30.170  28.590   1.749
13277W        W81506  43.558  27.114  12.478
13278W        W81507  15.339  38.651  12.680
13279W        W81508  14.810  26.891  12.123
13280W        W81509   0.743  21.309   1.290
13281W        W81510  39.436  40.357   3.748
13282W        W81511  31.368  22.940  13.500
13283W        W81512  17.789   2.494  10.601
13284W        W81513  36.840  27.604   3.013
13285W        W81514  15.828  10.766   3.529
13286W        W81515  15.755  10.206   3.275
13287W        W81516  34.838  25.498  10.818
13288W        W81517  15.272  42.225  14.446
13289W        W81518  43.952  44.387  11.209
13290W        W81519  24.593  28.517   0.735
13291W        W81520  10.352  29.432   4.612
13292W        W81521  23.123  19.995   4.498
13293W        W81522  14.625   4.795   1.912
13294W        W81523  10.391   1.001   2.784
13295W        W81524   5.671   8.766   2.826
13296W        W81525  44.448   0.155  12.521
13297W        W81526  35.441   8.304   0.170
13298W        W81527  13.675  22.965   3.182
13299W        W81528  32.428  14.198  12.546
13300W        W81529  16.006   3.469  14.911
13301W        W81530  38.160  42.410  12.911
13302W        W81531  20.045   9.373  12.878
13303W        W81532   3.739  38.563   4.501
13304W        W81533  19.179  19.570   3.931
13305W        W81534  43.362  15.175   2.834
13306W        W81535  39.984   9.809  10.427
13307W        W81536   2.170  43.530   2.898
13308W        W81537  42.500  22.642  10.629
13309W        W81538   0.782  19.791   4.638
13310W        W81539  20.265   8.935   4.532
13311W        W81540  18.181  14.100   0.184
13312W        W81541  36.573   8.623  14.931
13313W        W81542  44.385   9.853  12.509
13314W        W81543  15.001  30.026   2.307
13315W        W81544  27.389   2.973  14.288
13316W        W81545  26.565  16.377  11.899
13317W        W81546   4.208  26.227   0.443
13318W        W81547  32.057  42.041   0.584
13319W        W81548   5.513  11.942   0.751
13320W        W81549   8.737  34.261  12.411
13321W        W81550  20.955  36.515  11.347
13322W        W81551   8.302   2.037   4.524
13323W        W81552  16.044   7.689   4.796
13324W        W81553  33.978  19.266   1.183
13325W        W81554  25.129  31.134  10.690
13326W        W81555  16.994   9.456   2.791
13327W        W81556  27.973  35.023   2.632
13328W        W81557  27.342   3.460   5.109
13329W        W81558  14.692  17.156   2.812
13330W        W81559  12.909  41.888   2.420
13331W        W81560  14.218   5.902   4.345
13332W        W81561  36.372  27.251  14.929
13333W        W81562  25.945  39.829   1.854
13334W        W81563  41.555   8.910  11.108
13335W        W81564  12.632  16.466  14.395
13336W        W81565   2.336  39.282  12.367
13337W        W81566  20.345   6.858   3.125
13338W        W81567  38.648  20.113  12.178
13339W        W81568  40.760  33.653   1.168
13340W        W81569   7.893  37.379  14.768
13341W        W81570  35.035  12.051   1.812
13342W        W81571  19.364  11.290  14.758
13343W        W81572  40.750  16.022  13.420
13344W        W81573   5.138   2.782   0.293
13345W        W81574  22.510  22.778  10.701
13346W        W81575  35.956  26.127  14.390
13347W        W81576  10.370   3.817   3.241
13348W        W81577  13.876  10.732  11.001
13349W        W81578   7.264  23.515   2.191
13350W        W81579  27.157  31.288   0.527
13351W        W81580  16.582  40.401  14.854
13352W        W81581  34.614  15.599   0.855
13353W        W81582  11.323  16.889   0.407
13354W        W81583  26.208  44.762   4.229
13355W        W81584  16.731   2.847  13.770
13356W        W81585  43.886  29.983   4.465
13357W        W81586  12.834   6.292  12.421
13358W        W81587  20.626  19.337   2.557
13359W        W81588  18.222   3.921  13.977
13360W        W81589  37.364   8.652  13.973
13361W        W81590  15.785  42.882  14.333
13362W        W81591  36.977  32.597  10.667
13363W        W81592  16.020  35.191   0.819
13364W        W81593  19.696  42.045   4.523
13365W        W81594   5.333  39.935   0.983
13366W        W81595   4.278  31.612   0.062
13367W        W81596   9.369  33.097  13.073
13368W        W81597  10.729  11.169  11.118
13369W        W81598  42.766  25.833   4.478
13370W        W81599  10.861  13.750  12.664
13371W        W81600  14.383  42.611   4.709
13372W        W81601  31.597  21.558   4.653
13373W        W81602   3.332  38.320   0.556
13374W        W81603   7.727  15.810   1.937
13375W        W81604  22.338  27.513  10.969
13376W        W81605  31.834  43.907   3.757
13377W        W81606  19.158  42.461   1.712
13378W        W81607  28.940   5.401  14.367
13379W        W81608  35.427   3.454  14.906
13380W        W81609  30.755  17.873   9.922
13381W        W81610  35.665  26.893   4.635
13382W        W81611  23.982  20.977  10.004
13383W        W81612  14.096   8.947  11.712
13384W        W81613  24.816   8.904   0.004
13385W        W81614  42.413  21.090  12.487
13386W        W81615  43.853  13.509   0.758
13387W        W81616  41.644  30.416   5.245
13388W        W81617  32.455  22.666  13.874
13389W        W81618  14.670  42.733   2.667
13390W        W81619  33.216   5.895   3.222
13391W        W81620  30.900  27.506  14.549
13392W        W81621  31.974  41.446  11.725
13393W        W81622  43.576  31.707  13.514
13394W        W81623  36.582  21.954   3.199
13395W        W81624  28.894  44.430   3.665
13396W        W81625  32.837   6.443   0.430
13397W        W81626  16.692  42.815   4.028
13398W        W81627   9.732  31.205   0.391
13399W        W81628  18.512  24.028   0.412
13400W        W81629   7.462  17.019   4.124
13401W        W81630  21.060  34.833   9.842
13402W        W81631   5.419  17.660   1.680
13403W        W81632  28.622  12.325   4.447
13404W        W81633   1.485  12.264  13.200
13405W        W81634  22.580  27.770   3.572
13406W        W81635   4.196  35.874  11.074
13407W        W81636   1.421   3.449  11.627
13408W        W81637  29.731  27.744   1.510
13409W        W81638  30.835   6.451  11.115
13410W        W81639   0.066   1.504  11.172
13411W        W81640  28.904  30.703  12.415
13412W        W81641   4.976  16.270   1.864
13413W        W81642  32.176  15.147   3.432
13414W        W81643  12.681  39.401   4.781
13415W        W81644  35.538  22.939  12.489
13416W        W81645  20.946  28.027   1.649
13417W        W81646  12.841  22.455   3.730
13418W        W81647  24.727  10.410   0.394
13419W        W81648  40.029  39.657   3.749
13420W        W81649  39.031  44.860   2.196
13421W        W81650   5.270  11.627   3.133
13422W        W81651  11.555  36.465  14.835
13423W        W81652  39.076  28.130  11.214
13424W        W81653  31.494  18.679   3.598
13425W        W81654  14.706  18.768  14.558
13426W        W81655  11.280  12.242   3.593
13427W        W81656  31.864  39.011  14.952
13428W        W81657  44.282  31.031  12.666
13429W        W81658  41.823  22.832   1.802
13430W        W81659  12.324  29.538  13.475
13431W        W81660   6.661   8.851  14.626
13432W        W81661  44.236   7.204   0.292
13433W        W81662   7.331  22.036   0.777
13434W        W81663  23.983  35.528   2.275
13435W        W81664  15.145  15.703   3.899
13436W        W81665  23.705  27.730   3.155
13437W        W81666  20.334  22.144   3.215
13438W        W81667   9.087  38.893   4.105
13439W        W81668   7.103  39.422   0.896
13440W        W81669  40.950   3.713   0.724
13441W        W81670  24.693  20.540   0.919
13442W        W81671  21.545  24.483  12.842
13443W        W81672   0.490  26.158  13.736
13444W        W81673  13.226  40.822  13.380
13445W        W81674  28.020  25.271   3.611
13446W        W81675  21.683   7.897  13.303
13447W        W81676   1.699  27.908   0.433
13448W        W81677  27.561   6.713   1.233
13449W        W81678  16.582  44.215  12.237
13450W        W81679  23.036  39.745  13.863
13451W        W81680  25.853  23.510  10.785
13452W        W81681  17.289  31.032  14.262
13453W        W81682  22.994  43.348   0.448
13454W        W81683  35.678  20.787  13.570
13455W        W81684  20.479  27.993  12.869
13456W        W81685  41.961  43.644  10.481
13457W        W81686   0.547  27.515  12.135
13458W        W81687  28.936  11.426   1.921
13459W        W81688  20.550  44.983  12.638
13460W        W81689  22.405  14.791  10.706
13461W        W81690  17.723  35.426  11.659
13462W        W81691   4.736  33.930   3.413
13463W        W81692   0.361  37.307  11.579
13464W        W81693   6.927  38.302   3.276
13465W        W81694  23.120  21.582  13.948
13466W        W81695   2.351  39.659   1.559
13467W        W81696  11.760  17.784  12.639
13468W        W81697  42.746   5.764  11.367
13469W        W81698  22.804  42.618  10.116
13470W        W81699   2.688   3.693   1.428
13471W        W81700   5.702  38.370  11.432
13472W        W81701  19.491  27.963  11.570
13473W        W81702  28.948  18.244   2.340
13474W        W81703  43.416  12.343   3.697
13475W        W81704  41.773  25.723  10.556
13476W        W81705  15.160   4.753   0.773
13477W        W81706  13.235  39.204  10.375
13478W        W81707  18.725   2.992   3.196
13479W        W81708  19.935  33.023  14.504
13480W        W81709  25.815  36.199  11.102
13481W        W81710  44.682   1.408  12.629
13482W        W81711  40.233  33.947  14.849
13483W        W81712   2.238   1.514  10.633
13484W        W81713   2.962  32.445  11.106
13485W        W81714  12.052  34.853   0.830
13486W        W81715  41.851  34.029   4.600
13487W        W81716  25.892  32.473   3.280
13488W        W81717  23.967  27.219  13.945
13489W        W81718   4.000  35.366  11.898
13490W        W81719  35.888  41.421   2.338
13491W        W81720  44.246  31.041   1.882
13492W        W81721   2.881  14.417  13.448
13493W        W81722  11.845   0.983  14.826
13494W        W81723  23.467  36.663   3.645
13495W        W81724  20.846   6.249   2.797
13496W        W81725  10.815   4.494  11.654
13497W        W81726  25.681  40.242   3.653
13498W        W81727  16.874  20.621   4.175
13499W        W81728  21.533  22.309  12.691
13500W        W81729  38.569  35.541  10.506
13501W        W81730  35.194  23.043  11.934
13502W        W81731   8.724  27.431   2.183
13503W        W81732  36.000  29.151   4.693
13504W        W81733   8.839  20.071   4.547
13505W        W81734  39.425  32.416   0.408
13506W        W81735  35.710  32.748  10.634
13507W        W81736   0.857   8.203   0.498
13508W        W81737  28.527  23.442   1.779
13509W        W81738  44.238  30.474   0.306
13510W        W81739   8.645  39.550   3.666
13511W        W81740  19.497  43.842   2.306
13512W        W81741  22.962  18.659  11.154
13513W        W81742  29.052   5.148  14.869
13514W        W81743  11.123  28.024   0.433
13515W        W81744  35.815  20.488  11.644
13516W        W81745  31.865  19.070  14.159
13517W        W81746  32.420  18.311   5.500
13518W        W81747  13.372  12.684   2.499
13519W        W81748   2.865   5.870   1.813
13520W        W81749  13.630   7.134   4.328
13521W        W81750  31.295  13.598   4.125
13522W        W81751  40.986   4.429   4.865
13523W        W81752  21.291  22.101  11.935
13524W        W81753  43.729  10.564  10.619
13525W        W81754   4.189  44.481  10.566
13526W        W81755   4.479   2.529  13.696
13527W        W81756  31.110  36.364  14.599
13528W        W81757  14.884  28.041  14.827
13529W        W81758  43.893  42.467  13.833
13530W        W81759   2.776  20.679   1.958
13531W        W81760  37.167  22.079   0.505
13532W        W81761  13.376  38.996   9.897
13533W        W81762  26.529   6.889  10.710
13534W        W81763  26.893  33.395  10.676
13535W        W81764  13.732   7.111  13.839
13536W        W81765  32.499  31.996   3.257
13537W        W81766  14.267  23.185  14.533
13538W        W81767   8.160  39.511   3.763
13539W        W81768  38.922  10.297  12.063
13540W        W81769   4.033  28.667  11.218
13541W        W81770   2.930  22.600   1.025
13542W        W81771  30.078   3.138  12.391
13543W        W81772   7.547  37.850  13.177
13544W        W81773  26.779  12.737   3.755
13545W        W81774  19.650   5.024   2.123
13546W        W81775  10.888  17.106  11.838
13547W        W81776  35.349  26.463   4.692
13548W        W81777  13.300  26.540  14.611
13549W        W81778  16.788  18.291  14.770
13550W        W81779  24.562  15.319   1.938
13551W        W81780  36.659  14.106  12.542
13552W        W81781   8.469  16.084  10.424
13553W        W81782  36.399  44.801   2.351
13554W        W81783  18.697  42.462   2.619
13555W        W81784  27.701  33.412  11.030
13556W        W81785  13.299   0.247  12.413
13557W        W81786  25.135   2.200   0.041
13558W        W81787  20.065   3.347  11.460
13559W        W81788  29.605   5.651  10.792
13560W        W81789  37.512  33.578   2.315
13561W        W81790  16.248   1.915  14.466
13562W        W81791  32.295  16.978  10.777
13563W        W81792  11.132  24.180   3.852
13564W        W81793  42.052  14.858   4.404
13565W        W81794   3.235   1.797  10.488
13566W        W81795  44.552  18.588   2.175
13567W        W81796  29.755  26.946  12.057
13568W        W81797   4.317  43.575   1.605
13569W        W81798   0.539  43.184   4.301
13570W        W81799  14.569  15.165  13.854
13571W        W81800  42.263  41.343  13.156
13572W        W81801  19.887  30.319  13.822
13573W        W81802   4.697  24.231  11.122
13574W        W81803  10.810  40.382  13.389
13575W        W81804   7.864   3.126   0.293
13576W        W81805   9.828   8.164   4.924
13577W        W81806  43.560   7.143  14.418
13578W        W81807  28.147  12.420   4.665
13579W        W81808   9.125  17.733   4.499
13580W        W81809   2.866  16.906   4.708
13581W        W81810   2.229  16.867  13.850
13582W        W81811  11.400  43.486  13.775
13583W        W81812  43.322  17.460  10.788
13584W        W81813  18.246  18.369   3.726
13585W        W81814  25.682  31.532  13.809
13586W        W81815  19.264  23.541  12.490
13587W        W81816  17.550  30.489   3.257
13588W        W81817  40.417  38.546   2.444
13589W        W81818  34.434  25.117  14.317
13590W        W81819  36.971  23.928   0.885
13591W        W81820   9.073  25.530  14.543
13592W        W81821   5.858   9.606   2.275
13593W        W81822  20.116   5.252   0.368
13594W        W81823  27.602  38.467   1.389
13595W        W81824  36.125  28.596  10.485
13596W        W81825  44.902  11.681  14.943
13597W        W81826  15.369  31.180   4.477
13598W        W81827  22.698  15.095   0.452
13599W        W81828  35.440  34.430   2.911
13600W        W81829  35.991  29.451  11.151
13601W        W81830  39.222   5.756   5.033
13602W        W81831  37.212   5.764   3.649
13603W        W81832  40.549  36.859  12.259
13604W        W81833  42.955  38.444   1.772
13605W        W81834  36.420  10.154   2.401
13606W        W81835   4.764  22.629  14.859
13607W        W81836   9.792  39.812   0.357
13608W        W81837  41.709  28.224   3.396
13609W        W81838   4.334  37.553  14.926
13610W        W81839  37.004   5.611  11.182
13611W        W81840  29.902  25.043  12.977
13612W        W81841  13.919  34.950   1.437
13613W        W81842  16.126  11.711   0.292
13614W        W81843  18.260  17.719   1.397
13615W        W81844   9.078  36.817  13.705
13616W        W81845  41.225  11.333  11.648
13617W        W81846  14.350  19.506   0.818
13618W        W81847  26.956  24.804   1.731
13619W        W81848  32.409  30.815   0.787
13620W        W81849  17.787  37.879   2.871
13621W        W81850  27.630  25.397  11.019
13622W        W81851  19.101  10.367  12.358
13623W        W81852   8.897  41.418  12.631
13624W        W81853  19.265  43.870  10.772
13625W        W81854   8.642   1.958   1.699
13626W        W81855  24.029  29.400   4.022
13627W        W81856  43.895   9.146   1.534
13628W        W81857  41.011  43.559   1.149
13629W        W81858  36.764   2.478  10.759
13630W        W81859  32.198  31.088  11.603
13631W        W81860  23.048  34.865   2.761
13632W        W81861  44.492   7.704   0.866
13633W        W81862   5.354  25.967  12.487
13634W        W81863  42.240  43.053  10.344
13635W        W81864  39.836  23.241   2.478
13636W        W81865  38.183   2.877  11.543
13637W        W81866  28.441  23.699  10.624
13638W        W81867  44.248  31.504   2.687
13639W        W81868   0.996  21.513   0.430
13640W        W81869  19.711  25.788   0.466
13641W        W81870  36.654   4.712   4.648
13642W        W81871  34.862  33.592  12.007
13643W        W81872  12.119  26.063   4.310
13644W        W81873  38.977  33.437  13.989
13645W        W81874  20.732  27.567   2.297
13646W        W81875  39.369   8.377   1.868
13647W        W81876  25.453   3.974  11.470
13648W        W81877  27.435  25.479   0.434
13649W        W81878  22.565  29.451  12.400
13650W        W81879  28.982  25.966   3.733
13651W        W81880  13.586  35.039   1.040
13652W        W81881   1.278  36.700  11.184
13653W        W81882   8.848   0.115  11.486
13654W        W81883  26.400  32.825   4.887
13655W        W81884  34.960  32.467  12.877
13656W        W81885  25.011  21.684   2.369
13657W        W81886  42.057  29.138   2.204
13658W        W81887   7.486   2.827  12.037
13659W        W81888  42.777  35.730  11.175
13660W        W81889  30.835   6.419   1.391
13661W        W81890  32.101  32.625   3.147
13662W        W81891   3.895  41.940   2.874
13663W        W81892  28.980  29.862   0.293
13664W        W81893  20.231   0.901   4.116
13665W        W81894  19.232   6.274   1.024
13666W        W81895  17.618  37.530  11.111
13667W        W81896  18.917   8.448  13.469
13668W        W81897  37.888  23.698  11.772
13669W        W81898  30.449  32.055  14.004
13670W        W81899   5.563   7.793   1.723
13671W        W81900  26.757  42.892  11.462
13672W        W81901  34.518   6.490   3.289
13673W        W81902  43.879  33.034   1.315
13674W        W81903  21.661  20.874   1.928
13675W        W81904   1.872  23.122   4.087
13676W        W81905  37.535  29.236  14.773
13677W        W81906  36.835  30.949   3.205
13678W        W81907  17.532  30.177   4.134
13679W        W81908   5.615  36.761   0.426
13680W        W81909  39.557  14.107   1.312
13681W        W81910   8.956   4.446   0.466
13682W        W81911   0.028  20.686  13.575
13683W        W81912  13.825  38.089   3.650
13684W        W81913   8.501   8.677   5.159
13685W        W81914  36.269  37.323  13.965
13686W        W81915   1.683   3.991  13.750
13687W        W81916  11.051  33.379  10.816
13688W        W81917  44.064  41.170  13.246
13689W        W81918  25.094   9.858   1.876
13690W        W81919   4.652   6.936  10.717
13691W        W81920  33.489   8.239  12.067
13692W        W81921  26.434  21.135   4.999
13693W        W81922   7.776  35.109  13.060
13694W        W81923  21.541  42.410   0.630
13695W        W81924  17.611  31.700   1.492
13696W        W81925  33.276  33.242   1.239
13697W        W81926   4.225  24.492   3.220
13698W        W81927  20.786  25.681   1.385
13699W        W81928   2.893  42.349  13.880
13700W        W81929  44.040  13.221  14.065
13701W        W81930   0.703  25.861   1.359
13702W        W81931  37.561  42.002  11.000
13703W        W81932  36.645  12.174   4.489
13704W        W81933  31.430   7.497  10.741
13705W        W81934  30.863   7.388  14.193
13706W        W81935  22.835  16.692  12.120
13707W        W81936  27.159   6.164  14.361
13708W        W81937  29.668  18.760   1.710
13709W        W81938  24.379  31.682  12.683
13710W        W81939  25.630  15.335   5.303
13711W        W81940  44.056  34.915  14.547
13712W        W81941  23.833  40.636   1.452
13713W        W81942  39.971  24.156  14.508
13714W        W81943  28.491   2.333   0.454
13715W        W81944   9.226   2.879  14.790
13716W        W81945  34.414   2.259   2.396
13717W        W81946  32.565   0.389   3.225
13718W        W81947  27.231  37.448   0.293
13719W        W81948   2.843  33.986   2.625
13720W        W81949  34.560  34.884  13.944
13721W        W81950  26.621  11.832   3.829
13722W        W81951  20.483  21.987   2.727
13723W        W81952   8.920  32.477   3.258
13724W        W81953   2.101  24.959  11.616
13725W        W81954   0.998  22.244  14.889
13726W        W81955  43.274  12.294   0.815
13727W        W81956  16.726  10.765   4.604
13728W        W81957  41.836   8.122  10.753
13729W        W81958  26.666   0.181   1.918
13730W        W81959  18.527  43.335  13.766
13731W        W81960  42.282  11.446  12.948
13732W        W81961   0.452  16.691   2.314
13733W        W81962  10.704  11.061  11.661
13734W        W81963  34.654   0.808   1.394
13735W        W81964   0.323  32.653  11.646
13736W        W81965   0.786   7.065  14.207
13737W        W81966   0.190  43.770  13.451
13738W        W81967  10.101  16.479   3.258
13739W        W81968  44.853  33.153   4.641
13740W        W81969   3.361  18.483  14.495
13741W        W81970  35.062   8.025  10.234
13742W        W81971  32.648  30.564   0.388
13743W        W81972  31.908  18.267   5.736
13744W        W81973   8.887   6.940  12.525
13745W        W81974  43.264   6.587   0.847
13746W        W81975  28.638   1.893  14.428
13747W        W81976   0.217  42.125  14.690
13748W        W81977   5.970   7.150   3.190
13749W        W81978  17.393  12.582   1.659
13750W        W81979  14.778  30.406  14.668
13751W        W81980  42.850  32.106  11.071
13752W        W81981  44.891   4.413   1.445
13753W        W81982  38.467  11.296  13.525
13754W        W81983  33.911   3.366  13.599
13755W        W81984   2.823   6.664   4.022
13756W        W81985  33.570  19.233   3.689
13757W        W81986   1.896  15.120   2.573
13758W        W81987  32.112  16.415   2.764
13759W        W81988   1.307  10.382  14.528
13760W        W81989  24.651  15.050   3.872
13761W        W81990  41.789  40.513  12.032
13762W        W81991  17.748  10.443  14.981
13763W        W81992  35.075  40.685   4.826
13764W        W81993  23.731  17.032   1.294
13765W        W81994  20.685  38.876  12.600
13766W        W81995   1.445  26.095   4.540
13767W        W81996   1.860   7.144  13.905
13768W        W81997  15.307  20.820   0.376
13769W        W81998  17.503  41.484   1.366
13770W        W81999  37.634  17.316  13.822
13771W        W82000   2.234  32.877   4.300
13772W        W82001  36.844  26.942  11.568
13773W        W82002   5.935  25.604   2.986
13774W        W82003  35.469  31.174   4.165
13775W        W82004  17.081  39.518  14.774
13776W        W82005  37.173  19.376   1.593
13777W        W82006  43.037   6.320   2.845
13778W        W82007  42.454   9.183  11.161
13779W        W82008  36.862  10.344   4.641
13780W        W82009  30.343  33.987  10.684
13781W        W82010  13.843   8.726   1.797
13782W        W82011  41.442  40.151  10.651
13783W        W82012  26.771  18.701   0.925
13784W        W82013  41.814  28.243  11.018
13785W        W82014   4.694  26.148   2.664
13786W        W82015  11.013  33.683   4.203
13787W        W82016   4.740  12.673   0.403
13788W        W82017  31.446  41.819   0.727
13789W        W82018  33.928  41.253   2.205
13790W        W82019  18.665   1.024   4.747
13791W        W82020  14.484  14.353  11.108
13792W        W82021  41.206   6.405  14.301
13793W        W82022  23.506   9.638   2.290
13794W        W82023  10.150  10.263   1.219
13795W        W82024  27.666  12.202   0.152
13796W        W82025  34.076  41.789   2.250
13797W        W82026  13.321  41.826  10.680
13798W        W82027  22.284   1.478  12.990
13799W        W82028  44.788  27.479   0.739
13800W        W82029  13.116  19.577  12.927
13801W        W82030  22.665  30.451  14.555
13802W        W82031   5.299   6.639   1.289
13803W        W82032  30.087   2.011  12.864
13804W        W82033  43.312   2.146   2.315
13805W        W82034  39.760  15.247   3.133
13806W        W82035  22.115  31.407  11.735
13807W        W82036  12.554  15.261  12.180
13808W        W82037  29.212  40.641  12.212
13809W        W82038  25.458  44.742  12.942
13810W        W82039  29.120  21.155  13.478
13811W        W82040  38.904  32.167   3.709
13812W        W82041  10.358  10.468  12.955
13813W        W82042   6.216  33.589  10.077
13814W        W82043  23.379  21.140  12.077
13815W        W82044  15.429   3.226  10.407
13816W        W82045  34.116  13.832   0.341
13817W        W82046  37.930  29.428  11.488
13818W        W82047  43.303  34.339   3.196
13819W        W82048  30.929  22.786  12.392
13820W        W82049  38.474  10.426  13.461
13821W        W82050  24.643  26.018  12.319
13822W        W82051  26.188  32.964   4.424
13823W        W82052  38.095  12.143  12.023
13824W        W82053  15.615  10.195   1.904
13825W        W82054   2.164   0.896  14.472
13826W        W82055  43.941  25.694   0.004
13827W        W82056  39.966  12.200  13.362
13828W        W82057  36.469   7.425   0.340
13829W        W82058  42.897  43.468   1.909
13830W        W82059  14.068   5.356  12.422
13831W        W82060  14.020  20.762  11.972
13832W        W82061  23.976  16.755  11.226
13833W        W82062  29.999  34.689  14.790
13834W        W82063   8.327   2.407  13.099
13835W        W82064  27.746  12.778   3.623
13836W        W82065   1.706  18.063   0.850
13837W        W82066  28.786   2.047  10.830
13838W        W82067  12.085  33.654  13.376
13839W        W82068  40.063  29.783   0.094
13840W        W82069  28.386  39.180  10.223
13841W        W82070  18.452  31.413   4.184
13842W        W82071   7.719  38.105   4.216
13843W        W82072  24.905  37.021   1.245
13844W        W82073   6.791  44.365  11.113
13845W        W82074  12.224  43.557  12.021
13846W        W82075  37.413  38.423   2.025
13847W        W82076  26.303   1.679  14.793
13848W        W82077  31.926  20.863  11.560
13849W        W82078  26.518  16.263   1.925
13850W        W82079  11.183  18.733   0.500
13851W        W82080  31.005  28.064  13.563
13852W        W82081  18.020  29.514   0.158
13853W        W82082  43.236   7.245  12.035
13854W        W82083  26.192  36.144  13.970
13855W        W82084  38.846  26.721   5.050
13856W        W82085  41.425  42.362  13.822
13857W        W82086  22.024  12.676   0.808
13858W        W82087   7.065   0.379   4.575
13859W        W82088   6.383  25.149  13.080
13860W        W82089  41.232   2.176  11.151
13861W        W82090   0.845  22.769  12.560
13862W        W82091   2.885  31.647  13.499
13863W        W82092  26.700  24.231  12.733
13864W        W82093   1.430  23.447   4.086
13865W        W82094  44.631  40.340  13.857
13866W        W82095  28.362   5.296  11.907
13867W        W82096  26.365  36.039  12.490
13868W        W82097   6.090  41.483   0.354
13869W        W82098   0.873   1.172  12.048
13870W        W82099  17.303  18.142  11.403
13871W        W82100  10.847   1.720   2.206
13872W        W82101  35.664  11.923   0.348
13873W        W82102  42.924  33.026  13.448
13874W        W82103  33.982   0.048  11.927
13875W        W82104   3.401  42.310  14.420
13876W        W82105  27.504   9.998   3.194
13877W        W82106   0.731  15.425   2.186
13878W        W82107  14.297  41.440   1.687
13879W        W82108  20.691  27.819  12.419
13880W        W82109  29.828  12.744  11.978
13881W        W82110  15.234  41.392   0.643
13882W        W82111  30.418  36.595   1.625
13883W        W82112  40.255  31.110  13.328
13884W        W82113  30.768  22.105  11.098
13885W        W82114   9.343  14.293   3.888
13886W        W82115  22.718   3.864   3.222
13887W        W82116   7.601   5.743   1.522
13888W        W82117  44.611   0.988  13.803
13889W        W82118  22.416  35.444  14.296
13890W        W82119  24.609  36.159   1.333
13891W        W82120  38.121   6.432   3.663
13892W        W82121  44.621   7.687  11.651
13893W        W82122   5.290  12.302  11.073
13894W        W82123   4.173  12.794   2.230
13895W        W82124  37.896  36.062  11.214
13896W        W82125  32.042  34.067   4.630
13897W        W82126  17.651   8.347   1.792
13898W        W82127  32.044  25.652  14.411
13899W        W82128   3.398   3.239   2.203
13900W        W82129   6.327  23.495  11.265
13901W        W82130  28.503  32.666   3.406
13902W        W82131  43.563  21.613   2.794
13903W        W82132   8.345   8.109  14.849
13904W        W82133  31.840  13.840  14.375
13905W        W82134  35.566  28.356   3.681
13906W        W82135  15.056  26.508  12.893
13907W        W82136  31.032   2.151  12.022
13908W        W82137  22.817  20.700   3.793
13909W        W82138  25.059  43.390  11.317
13910W        W82139  20.141  31.372   1.879
13911W        W82140  10.160  18.945  13.679
13912W        W82141   8.824   1.294  14.374
13913W        W82142  28.657  29.093  10.218
13914W        W82143  12.678  24.585  12.404
13915W        W82144  35.373  21.255  11.971
13916W        W82145  32.427  27.505   1.286
13917W        W82146  38.340  18.803   3.734
13918W        W82147  44.816  10.265   0.586
13919W        W82148  24.031  19.539  11.090
13920W        W82149  35.964  41.332   0.506
13921W        W82150   3.167   6.273   4.208
13922W        W82151   9.989  27.924   1.936
13923W        W82152  23.300  28.894  14.401
13924W        W82153  18.284  44.245   4.601
13925W        W82154  35.933   6.893  14.754
13926W        W82155   8.843  19.827  11.991
13927W        W82156  33.124  31.327   4.106
13928W        W82157  34.103  28.281   2.705
13929W        W82158  42.345  19.967   3.779
13930W        W82159  19.305  34.507   4.520
13931W        W82160  16.063  41.471  13.394
13932W        W82161  10.205   0.544  11.614
13933W        W82162   7.050  34.799   5.188
13934W        W82163  29.531  33.888  13.327
13935W        W82164   0.776  11.753   4.518
13936W        W82165   4.356  14.373  13.523
13937W        W82166  40.908  28.017   2.911
13938W        W82167  15.783  11.677  12.836
13939W        W82168  13.140  10.397  12.566
13940W        W82169  42.064   6.227   4.865
13941W        W82170   2.875  30.128   1.660
13942W        W82171   4.190  11.097  11.627
13943W        W82172  38.321  43.599   0.575
13944W        W82173  43.257  14.113  12.138
13945W        W82174  36.394  39.919   0.320
13946W        W82175  29.632  44.082   3.233
13947W        W82176  36.887  39.179   4.116
13948W        W82177  41.428  16.139   3.844
13949W        W82178  34.438  37.990   0.787
13950W        W82179  22.609  36.436  10.594
13951W        W82180  37.165  17.622   4.570
13952W        W82181  44.453  15.100  11.995
13953W        W82182  37.462  35.098  11.959
13954W        W82183  43.984  28.563   0.796
13955W        W82184  15.986  18.907   4.108
13956W        W82185  19.824   9.587  13.917
13957W        W82186  41.910  42.700   3.264
13958W        W82187   0.884  27.992  12.333
13959W        W82188  11.542  21.031   1.810
13960W        W82189  42.764  43.492  14.993
13961W        W82190  36.710  33.046  10.509
13962W        W82191  18.777  32.779  10.379
13963W        W82192   0.322   5.831  13.765
13964W        W82193   7.760  10.346  10.933
13965W        W82194  40.338   6.348   1.324
13966W        W82195   1.485   4.868  10.592
13967W        W82196  11.882  26.391  14.018
13968W        W82197  37.878  39.526  13.931
13969W        W82198   6.931  22.287   0.981
13970W        W82199   2.014  42.022  11.548
13971W        W82200  11.949   4.332   1.395
13972W        W82201  11.176   3.440  11.132
13973W        W82202   3.210  23.526  11.944
13974W        W82203  22.901  10.399  14.520
13975W        W82204  30.484  40.348   3.274
13976W        W82205  42.855  13.758   2.205
13977W        W82206  29.601  41.335   1.792
13978W        W82207   9.679   5.900   1.208
13979W        W82208  34.118   9.419  14.376
13980W        W82209   8.242   1.194  13.594
13981W        W82210  21.777  30.974   2.284
13982W        W82211   8.565  29.744   3.075
13983W        W82212  28.012  16.021   0.320
13984W        W82213  15.250  40.008   3.187
13985W        W82214  13.673  13.159   3.292
13986W        W82215  31.880  10.669  10.561
13987W        W82216   3.461  44.706  13.742
13988W        W82217  19.347  42.754   2.268
13989W        W82218  18.431   4.725   3.637
13990W        W82219  30.588  10.927  14.859
13991W        W82220  26.453  42.279   3.739
13992W        W82221  33.534   3.957   0.319
13993W        W82222  32.255   9.776   2.280
13994W        W82223  20.056  21.939   4.163
13995W        W82224  36.567  27.728   1.538
13996W        W82225  10.432  15.311   2.645
13997W        W82226  15.244  11.408  14.966
13998W        W82227   9.610   2.982  14.259
13999W        W82228  18.662  36.929   4.205
14000W        W82229   1.233   9.248   2.910
14001W        W82230  42.592  23.926  11.836
14002W        W82231  31.612  33.348  14.107
14003W        W82232  43.277  32.430  13.984
14004W        W82233  29.210  26.778  14.002
14005W        W82234   3.586  19.632   2.616
14006W        W82235  16.741   9.757   1.134
14007W        W82236  39.854  12.458   1.903
14008W        W82237  14.226  17.262   2.573
14009W        W82238  41.675  31.942   2.167
14010W        W82239  10.678  32.199  13.806
14011W        W82240  29.437   1.746   2.353
14012W        W82241  41.388  21.245  11.940
14013W        W82242  44.460  11.315   4.142
14014W        W82243   4.826  26.416   4.716
14015W        W82244  18.022  36.943  12.393
14016W        W82245   1.471   1.294   0.555
14017W        W82246  43.243   8.984  14.946
14018W        W82247  43.356   6.700  11.174
14019W        W82248  26.392  39.326  10.909
14020W        W82249  32.131  20.012  13.644
14021W        W82250  28.199  19.215  14.120
14022W        W82251  31.020  25.790   1.860
14023W        W82252  39.399   6.277  12.193
14024W        W82253  40.468  26.884  14.800
14025W        W82254  41.377  31.369  14.422
14026W        W82255   7.948  31.307   0.483
14027W        W82256   0.393  23.301   0.994
14028W        W82257  11.414   9.714   4.113
14029W        W82258  25.078   9.105   2.808
14030W        W82259  13.797  25.734   5.041
14031W        W82260   1.759  17.031  12.009
14032W        W82261  26.532   2.231  13.995
14033W        W82262  35.817  13.566   0.853
14034W        W82263   6.442  36.413  13.060
14035W        W82264  42.977  31.575  12.591
14036W        W82265   3.220  30.918  14.490
14037W        W82266  15.324  22.908   3.018
14038W        W82267   6.904  11.161  14.608
14039W        W82268  23.393  28.012  14.303
14040W        W82269   4.959  26.018   0.702
14041W        W82270  26.521   3.658  13.145
14042W        W82271  30.696   9.300  14.459
14043W        W82272  37.877  41.545  12.606
14044W        W82273   0.833  11.996   1.692
14045W        W82274  37.750  44.552   4.765
14046W        W82275  35.872  25.048  13.116
14047W        W82276   8.571  30.460  10.202
14048W        W82277   4.001  16.024   1.657
14049W        W82278  21.146  20.229   4.276
14050W        W82279  12.190  40.754   3.338
14051W        W82280  44.314  30.544  12.795
14052W        W82281   5.992  11.097   4.664
14053W        W82282   8.728  30.270  13.878
14054W        W82283  36.345  10.776   3.231
14055W        W82284  30.114  10.610  14.787
14056W        W82285  30.912  44.306   2.750
14057W        W82286  44.150  11.631   3.685
14058W        W82287  34.589  35.832  14.761
14059W        W82288  19.055  23.718   9.906
14060W        W82289   7.650   0.021   4.247
14061W        W82290  20.395  10.345   1.932
14062W        W82291  38.919  35.933   0.386
14063W        W82292  39.094  18.330   3.337
14064W        W82293  38.565  25.767   0.936
14065W        W82294  34.518  31.918   0.432
14066W        W82295  21.062  32.071  10.304
14067W        W82296  20.547   3.181   4.493
14068W        W82297  32.480  38.615   3.190
14069W        W82298   3.797  14.185   0.140
14070W        W82299  18.554  35.222   5.278
14071W        W82300  40.906  19.161  10.630
14072W        W82301  26.708  38.509  12.212
14073W        W82302   8.816  16.051   3.565
14074W        W82303  26.647   8.209   4.775
14075W        W82304   0.357  14.608  10.630
14076W        W82305   0.533   5.488   2.926
14077W        W82306  13.743  44.673   2.664
14078W        W82307  29.181   6.414  11.775
14079W        W82308  15.644  26.154  11.426
14080W        W82309  27.693  34.542  13.125
14081W        W82310   5.216  22.733  11.599
14082W        W82311   2.812  37.039   1.450
14083W        W82312   8.715  16.659   4.532
14084W        W82313  41.513  29.129   1.461
14085W        W82314  43.044  30.975   3.775
14086W        W82315  11.842  34.978  13.355
14087W        W82316  21.711  40.071   4.844
14088W        W82317  20.523  14.652  14.384
14089W        W82318  36.862  35.035   2.404
14090W        W82319  35.955  11.299  13.489
14091W        W82320  26.918   4.986   2.576
14092W        W82321  24.573  18.295  12.173
14093W        W82322   3.003  12.650  11.528
14094W        W82323  14.650  24.994  13.528
14095W        W82324  13.411  12.158  13.491
14096W        W82325  20.950  42.751  13.080
14097W        W82326  27.690  13.696   4.641
14098W        W82327  35.124  30.019   2.190
14099W        W82328   3.596  26.815   5.219
14100W        W82329  26.425   8.548   3.884
14101W        W82330  29.469   5.319   3.369
14102W        W82331  39.093   4.193   3.572
14103W        W82332  23.691   6.498  12.250
14104W        W82333  31.273  40.091   3.026
14105W        W82334  25.268  24.022   0.914
14106W        W82335  21.999  37.836   2.895
14107W        W82336  24.452  38.622   0.834
14108W        W82337  21.371  34.099   1.691
14109W        W82338  39.020  43.861   2.159
14110W        W82339  43.833  29.183  11.049
14111W        W82340  26.315  23.669  10.540
14112W        W82341  13.381  44.732   4.175
14113W        W82342  17.652  19.840  12.870
14114W        W82343   4.961  26.507  11.915
14115W        W82344  21.688  29.483  13.969
14116W        W82345  10.844  28.521  12.631
14117W        W82346  27.059   1.937   0.770
14118W        W82347  23.324  23.083   3.275
14119W        W82348  34.514  31.734  12.466
14120W        W82349   1.566  12.786  14.338
14121W        W82350   7.567   3.948  13.549
14122W        W82351  40.511   0.126  12.899
14123W        W82352  18.635   9.341  11.313
14124W        W82353  41.526  12.856   1.250
14125W        W82354  18.933  15.887  10.291
14126W        W82355  42.012  24.598  13.904
14127W        W82356  13.340  32.044   0.775
14128W        W82357  27.441  24.541   0.009
14129W        W82358  33.890   2.244   2.311
14130W        W82359  25.468  31.660  10.480
14131W        W82360  40.370  17.348   0.424
14132W        W82361   0.277  10.640   1.167
14133W        W82362  36.928  23.126   3.065
14134W        W82363   7.264  22.547   2.224
14135W        W82364  29.749   5.011  12.903
14136W        W82365  12.676  38.898   4.497
14137W        W82366  33.909   4.773  14.515
14138W        W82367  39.976  16.119  10.708
14139W        W82368  16.486  28.093  12.575
14140W        W82369   9.361  32.237   1.030
14141W        W82370  33.836  43.118  13.346
14142W        W82371  11.033  21.608  12.501
14143W        W82372  28.228  18.312   1.893
14144W        W82373  13.125   2.100  14.472
14145W        W82374  27.700  28.935   2.454
14146W        W82375  15.827  27.507   2.632
14147W        W82376  31.989  31.683  12.395
14148W        W82377  43.856  24.772   3.234
14149W        W82378   0.519  38.602   4.054
14150W        W82379  17.328  16.572   1.642
14151W        W82380   4.841  23.234   0.601
14152W        W82381  21.632  18.669   2.224
14153W        W82382  29.963  34.481   3.638
14154W        W82383  41.915  23.789  10.691
14155W        W82384   4.220   4.873  13.973
14156W        W82385   1.295  44.951   0.363
14157W        W82386   1.937  18.618  13.787
14158W        W82387  37.616  22.065  11.611
14159W        W82388  32.864  12.590   4.326
14160W        W82389  16.844  42.863  13.393
14161W        W82390  13.437  17.599  10.763
14162W        W82391  24.193  35.092   4.110
14163W        W82392  41.527  39.654   3.623
14164W        W82393  42.121  22.008   1.233
14165W        W82394  44.190  28.566   0.313
14166W        W82395   4.384  21.231   4.628
14167W        W82396  36.117  35.822   0.253
14168W        W82397  28.212  24.553  11.524
14169W        W82398  20.108  14.312  12.659
14170W        W82399  30.650  15.124  12.988
14171W        W82400   5.836  33.281  13.857
14172W        W82401  32.502  36.515   4.357
14173W        W82402  32.087  18.729  10.886
14174W        W82403  31.557  40.758   3.755
14175W        W82404   7.473  28.220   2.571
14176W        W82405   7.956   8.783  13.026
14177W        W82406  22.679  33.180   4.490
14178W        W82407   4.862   9.199  12.322
14179W        W82408  23.618  14.683  14.488
14180W        W82409  17.117  15.702   3.612
14181W        W82410  37.668   4.961   2.282
14182W        W82411  30.850  32.058   1.004
14183W        W82412  23.538  14.280  13.123
14184W        W82413   4.401   9.213  14.443
14185W        W82414  36.748  31.489  12.987
14186W        W82415   7.798  30.794  11.616
14187W        W82416  23.599  25.186   4.572
14188W        W82417   8.608   4.798   0.255
14189W        W82418  20.469  37.288   3.396
14190W        W82419  28.377  35.857  11.589
14191W        W82420  26.660  27.682  14.773
14192W        W82421  43.521  11.151   0.077
14193W        W82422   5.008  32.571   4.547
14194W        W82423   9.228  17.174   2.099
14195W        W82424  12.736  23.228  11.270
14196W        W82425  25.960  43.942  13.846
14197W        W82426  38.172  28.661   0.506
14198W        W82427   0.468  42.051   3.291
14199W        W82428  11.556  14.539   0.420
14200W        W82429  14.686   6.607   0.927
14201W        W82430  43.438  40.258   3.731
14202W        W82431  27.053  39.261   0.479
14203W        W82432  43.045  22.054   3.397
14204W        W82433  31.028  26.666   4.003
14205W        W82434  44.403   2.022  14.921
14206W        W82435  12.168  36.272   2.772
14207W        W82436   3.106  14.232   2.834
14208W        W82437  31.467   9.797  12.114
14209W        W82438   6.225  35.501  12.805
14210W        W82439  11.605  34.715   3.673
14211W        W82440  44.312  13.242   1.761
14212W        W82441  30.721  27.029  14.381
14213W        W82442   4.945  44.242   4.624
14214W        W82443  21.118  40.438   2.054
14215W        W82444  35.168   6.605  14.029
14216W        W82445  32.785  16.137   4.063
14217W        W82446  20.344  39.506   0.997
14218W        W82447   5.832   8.909   4.201
14219W        W82448  37.383   3.833   0.963
14220W        W82449  37.167  31.848   4.335
14221W        W82450  34.969  37.436   2.860
14222W        W82451  10.135  36.933   2.438
14223W        W82452  42.969   9.067   1.115
14224W        W82453  11.655   1.064   9.823
14225W        W82454  44.278  24.681  13.388
14226W        W82455   8.820   6.981   4.486
14227W        W82456   2.777  29.834  11.275
14228W        W82457  19.781   1.274  14.297
14229W        W82458  35.582  20.053  14.996
14230W        W82459   1.521  11.908   0.933
14231W        W82460  14.203  32.123   0.052
14232W        W82461  30.570  28.717   0.806
14233W        W82462   7.310  17.039   1.318
14234W        W82463  19.610  35.841   4.495
14235W        W82464  14.095  19.254   1.693
14236W        W82465  34.451  31.200   1.644
14237W        W82466  21.746   2.773  11.761
14238W        W82467  38.992  39.913  12.909
14239W        W82468  40.476  22.524  13.979
14240W        W82469  44.706   0.285  11.891
14241W        W82470  39.028  20.788  10.617
14242W        W82471  13.945  33.913  12.985
14243W        W82472  11.210  38.524   2.272
14244W        W82473  12.735  22.743   3.305
14245W        W82474  30.898  42.709  13.465
14246W        W82475   7.703  21.227  11.718
14247W        W82476  18.663  31.014   5.113
14248W        W82477   5.305  14.622  11.478
14249W        W82478  27.421  14.853   4.182
14250W        W82479   7.268  15.556  13.476
14251W        W82480   8.324  42.272   0.784
14252W        W82481  12.606  15.855  11.927
14253W        W82482   0.277  38.774   3.624
14254W        W82483  41.367  18.463   1.106
14255W        W82484  38.455  27.746   3.203
14256W        W82485  13.594   9.061  10.135
14257W        W82486  24.440   1.210  12.154
14258W        W82487  26.834  24.839   3.194
14259W        W82488  39.629  25.527  14.341
14260W        W82489   7.425   3.342  13.356
14261W        W82490  12.712  30.588   0.635
14262W        W82491  24.065  24.054   1.652
14263W        W82492  36.981  38.520   1.306
14264W        W82493  26.960  20.122   1.845
14265W        W82494  29.052   3.783   2.920
14266W        W82495  33.359  31.717  11.506
14267W        W82496  12.860  14.695  14.294
14268W        W82497  10.674  20.135   0.456
14269W        W82498  42.313  39.518   3.236
14270W        W82499  26.132  43.000   4.577
14271W        W82500  23.019   8.244  13.457
14272W        W82501  28.477  41.741  12.039
14273W        W82502  15.140  41.759  14.627
14274W        W82503  20.639   3.923   3.216
14275W        W82504  24.879  31.635  12.519
14276W        W82505  33.983  40.560  11.644
14277W        W82506   6.262  39.925  13.559
14278W        W82507  21.126  42.447  11.959
14279W        W82508   9.394  28.429   1.788
14280W        W82509  12.955  34.247   4.170
14281W        W82510  23.716   6.697   3.717
14282W        W82511  22.585  33.177   0.905
14283W        W82512  23.606  26.342   3.337
14284W        W82513  11.708   5.196   2.773
14285W        W82514  39.213   4.111  14.005
14286W        W82515  24.090  39.016   1.834
14287W        W82516  43.872  44.832   2.864
14288W        W82517  16.614  35.816   2.289
14289W        W82518  20.155  37.509   3.717
14290W        W82519  13.914  43.351  13.136
14291W        W82520  16.349  31.941   3.196
14292W        W82521  40.191  19.744  14.497
14293W        W82522  11.879  35.349  14.028
14294W        W82523  39.812  36.788  11.197
14295W        W82524  12.769  38.909  14.006
14296W        W82525   5.730   5.690  11.143
14297W        W82526  36.840  10.221   2.708
14298W        W82527   9.337  37.114   3.108
14299W        W82528  26.008  16.337  12.692
14300W        W82529  20.715  26.939   4.720
14301W        W82530  22.562  42.638  12.308
14302W        W82531  31.042  29.530   4.358
14303W        W82532  14.700  18.776  14.022
14304W        W82533  17.274  33.828  14.492
14305W        W82534  11.865  20.497  10.653
14306W        W82535  22.199  36.816  11.260
14307W        W82536   5.506   6.226   4.639
14308W        W82537   4.951  22.364  11.350
14309W        W82538  14.504  21.149   3.214
14310W        W82539  44.313   8.410   3.971
14311W        W82540   0.289  33.456   4.645
14312W        W82541  44.889  17.681   2.800
14313W        W82542   5.671  21.681   3.915
14314W        W82543  12.896  11.732   2.266
14315W        W82544  38.005  12.212   4.870
14316W        W82545   1.869   3.946  11.008
14317W        W82546  44.890  35.883   1.500
14318W        W82547  26.917  41.743   0.261
14319W        W82548  18.329  17.651  14.788
14320W        W82549  39.579  44.201  12.972
14321W        W82550  25.098  12.622   3.608
14322W        W82551  17.350  13.081   0.279
14323W        W82552  25.716   2.536   1.371
14324W        W82553  13.014  33.493   4.600
14325W        W82554  23.816  35.826   3.168
14326W        W82555  16.236  25.357  12.025
14327W        W82556   3.403  25.280  10.681
14328W        W82557   6.862  26.259  13.801
14329W        W82558  24.726  40.448   1.866
14330W        W82559  40.132   7.905  14.356
14331W        W82560  31.535   1.502  13.608
14332W        W82561   3.533  14.314  11.578
14333W        W82562  41.714  31.950   0.002
14334W        W82563   6.489  34.334   1.004
14335W        W82564  40.412   2.369   2.614
14336W        W82565   6.817  16.787   2.886
14337W        W82566  40.430  24.182   1.279
14338W        W82567  18.600  16.515   2.750
14339W        W82568  31.930   5.279   3.174
14340W        W82569  20.061  22.162  11.221
14341W        W82570  30.578  29.221   0.849
14342W        W82571  41.091  33.882   4.120
14343W        W82572   4.259  33.846   4.627
14344W        W82573   4.494   0.333   3.316
14345W        W82574  32.503  35.981   1.759
14346W        W82575   0.032  25.284  10.660
14347W        W82576  21.152  25.004   0.452
14348W        W82577  16.070  36.090   4.001
14349W        W82578  11.617  42.499  14.860
14350W        W82579  36.125  30.180   2.968
14351W        W82580  18.549  10.788   1.811
14352W        W82581  39.820  33.975  11.195
14353W        W82582  30.326  23.467  11.164
14354W        W82583   1.495   2.724   3.777
14355W        W82584  34.105   6.723   2.397
14356W        W82585  18.035  25.963   0.283
14357W        W82586  37.829  18.268  13.954
14358W        W82587  41.959  38.151   3.349
14359W        W82588  35.395  17.409   4.255
14360W        W82589  25.783  16.881  12.040
14361W        W82590   1.378  37.960  12.301
14362W        W82591  41.845  44.088  11.551
14363W        W82592   4.395  29.121   4.170
14364W        W82593   2.917  11.714  12.065
14365W        W82594  30.423  25.684  10.645
14366W        W82595  35.994  17.736  12.026
14367W        W82596  36.021  42.818   4.598
14368W        W82597  39.774  24.949   4.783
14369W        W82598  35.916   6.191   3.680
14370W        W82599  16.048  10.381  10.662
14371W        W82600  10.261  43.556  12.377
14372W        W82601  35.174  21.534  12.354
14373W        W82602  42.446  33.838   3.129
14374W        W82603  27.204  40.207   1.681
14375W        W82604  33.273   1.418  10.504
14376W        W82605  12.436  26.098  10.760
14377W        W82606   9.861  28.613   0.310
14378W        W82607  36.061  18.660   1.328
14379W        W82608  39.295  15.089  11.899
14380W        W82609  15.643  24.621  13.451
14381W        W82610   7.445  14.618  11.065
14382W        W82611  19.761   9.078  14.022
14383W        W82612  15.763   2.045  12.531
14384W        W82613   6.475  21.094  10.316
14385W        W82614  19.558  18.121  13.830
14386W        W82615  26.078   3.793   4.242
14387W        W82616  39.046  38.623  14.419
14388W        W82617   1.487  37.547   2.307
14389W        W82618   2.710  36.284  12.108
14390W        W82619  12.656  17.731   2.469
14391W        W82620  20.650  15.794   2.650
14392W        W82621   6.861  35.925   2.281
14393W        W82622  42.814  39.421   3.311
14394W        W82623  36.658   1.259  14.756
14395W        W82624  11.378  15.791  14.326
14396W        W82625  37.876  36.921  10.750
14397W        W82626  30.565   4.906   2.909
14398W        W82627  28.265  24.740   0.376
14399W        W82628  37.873  44.994   1.697
14400W        W82629   5.897  31.987  13.316
14401W        W82630  28.654  27.987  11.217
14402W        W82631  30.461  24.463  11.948
14403W        W82632  44.260  10.072  11.180
14404W        W82633  23.110   3.484   0.532
14405W        W82634  21.231   1.817  13.459
14406W        W82635  26.011  21.779   1.647
14407W        W82636  35.030  13.086  13.865
14408W        W82637  35.426   2.731   2.348
14409W        W82638  11.681  39.511   3.885
14410W        W82639  35.219  16.318   5.305
14411W        W82640  18.985   0.301  12.464
14412W        W82641  35.595  28.696  11.551
14413W        W82642  12.810   2.210  12.928
14414W        W82643  20.605  44.668   3.164
14415W        W82644   5.161  22.212   1.824
14416W        W82645   3.978  32.555   4.659
14417W        W82646  22.717   2.829   1.973
14418W        W82647  33.456  13.770  11.323
14419W        W82648   7.875  30.207   3.125
14420W        W82649  40.774  29.099  14.763
14421W        W82650   2.201  31.747   0.439
14422W        W82651  28.081  41.837  13.878
14423W        W82652  31.661  11.658   3.142
14424W        W82653   1.399   0.161   1.786
14425W        W82654   4.785  39.296   1.240
14426W        W82655  18.920  33.987   1.122
14427W        W82656  22.594   7.375   3.789
14428W        W82657  39.524   5.606   4.067
14429W        W82658  21.792  32.482   5.662
14430W        W82659  12.822  31.878   4.230
14431W        W82660  30.680  34.470  14.470
14432W        W82661  15.567  41.573   2.849
14433W        W82662   8.143   5.263   2.721
14434W        W82663  21.667  29.051  11.300
14435W        W82664   4.919   1.745   2.311
14436W        W82665  32.323  29.509   1.289
14437W        W82666  21.920  19.527   0.055
14438W        W82667  41.849  19.102  10.870
14439W        W82668  20.121  18.650   3.458
14440W        W82669  29.089  19.028  13.542
14441W        W82670  21.506   3.525  13.957
14442W        W82671  25.119  28.244   1.847
14443W        W82672  41.754  17.127   4.512
14444W        W82673   4.870  13.563  11.141
14445W        W82674  24.068   0.902   2.144
14446W        W82675  35.505  37.286   2.921
14447W        W82676  30.668  41.041   2.252
14448W        W82677  16.088  42.358   4.885
14449W        W82678  27.584   4.789   3.225
14450W        W82679  15.698  12.429  13.568
14451W        W82680  15.188  10.775   2.383
14452W        W82681  33.951  15.548   0.561
14453W        W82682  42.233  21.855   4.106
14454W        W82683  33.977  12.341   1.169
14455W        W82684  32.987  37.984  12.439
14456W        W82685  11.083  27.415   2.254
14457W        W82686  26.673  29.903  13.279
14458W        W82687  40.788  42.471   4.862
14459W        W82688   0.428   7.033   4.209
14460W        W82689   8.171  25.232  12.474
14461W        W82690   0.384  38.556  10.233
14462W        W82691   4.292   9.615  13.075
14463W        W82692  44.818   7.148   1.190
14464W        W82693  23.491  10.838   4.610
14465W        W82694  34.560  22.216  13.548
14466W        W82695  31.432  34.349  10.759
14467W        W82696  37.610  31.939   4.090
14468W        W82697   5.354  38.619  13.051
14469W        W82698  30.487   9.467  14.917
14470W        W82699  35.472  28.168  10.707
14471W        W82700   3.974  35.292   5.279
14472W        W82701  35.020   7.068  12.157
14473W        W82702  35.645  20.613   1.738
14474W        W82703  41.573  44.871   4.166
14475W        W82704  42.610  15.693  11.530
14476W        W82705   4.186  23.952   1.778
14477W        W82706  43.627  38.585   0.830
14478W        W82707  35.184  41.865  10.405
14479W        W82708  37.508  38.975   5.137
14480W        W82709  28.909  43.573   2.612
14481W        W82710  42.470  40.355   1.179
14482W        W82711  43.430  10.261   4.506
14483W        W82712   0.502  25.027  10.734
14484W        W82713  33.991   1.061  14.713
14485W        W82714  43.329  19.725  12.523
14486W        W82715  11.374   2.169  12.285
14487W        W82716  17.121  28.149  13.052
14488W        W82717  24.081  29.988  12.813
14489W        W82718  42.808  27.797   0.362
14490W        W82719  21.816  22.929   4.918
14491W        W82720   6.787  19.604  13.788
14492W        W82721  31.681   9.793  14.971
14493W        W82722  16.306  23.752   1.685
14494W        W82723   3.233  35.369   0.088
14495W        W82724   8.917  43.162  13.530
14496W        W82725  36.793  44.010   0.777
14497W        W82726  26.078  43.465   2.268
14498W        W82727  26.916  18.155   2.475
14499W        W82728  44.966  39.566   0.047
14500W        W82729  37.513  23.347   4.555
14501W        W82730  17.652  23.495   0.275
14502W        W82731  37.051  30.738   3.647
14503W        W82732  24.239  16.566   3.859
14504W        W82733  17.368  38.585   4.674
14505W        W82734  16.805  35.692  11.620
14506W        W82735  24.546  44.670  11.965
14507W        W82736   6.352  16.905  12.018
14508W        W82737  30.165   8.048   2.246
14509W        W82738   9.265   5.051   3.339
14510W        W82739   7.125   8.749   3.206
14511W        W82740  31.870  44.163   3.313
14512W        W82741  18.033  14.904   1.874
14513W        W82742  39.295  37.309  13.415
14514W        W82743   6.415  31.796  14.164
14515W        W82744   9.368  42.907  10.803
14516W        W82745  29.204  38.807   1.334
14517W        W82746  23.050  12.406   3.141
14518W        W82747   4.282  24.111   2.754
14519W        W82748  28.126  13.914  12.186
14520W        W82749  38.137  39.105   3.866
14521W        W82750  28.142  15.591   2.714
14522W        W82751  12.903   6.901   1.955
14523W        W82752  43.297   7.734  12.836
14524W        W82753  14.245  28.384   5.050
14525W        W82754  24.222   0.325  11.573
14526W        W82755  13.586   6.332  10.767
14527W        W82756  22.484   0.009  10.776
14528W        W82757  10.307  16.697  11.877
14529W        W82758  37.872  13.582   0.368
14530W        W82759  43.408  21.392   4.540
14531W        W82760   2.935   6.432  11.652
14532W        W82761  22.110  37.312   2.129
14533W        W82762  13.298   5.956  11.998
14534W        W82763  41.518   0.288   2.360
14535W        W82764  17.177  31.398   4.116
14536W        W82765   5.200  11.008   3.705
14537W        W82766  12.087  24.271  11.957
14538W        W82767   3.214  37.575   2.836
14539W        W82768  44.304  15.742  13.727
14540W        W82769  32.073  13.946  11.510
14541W        W82770  22.729  26.494  11.100
14542W        W82771  13.153  33.245  14.368
14543W        W82772  28.559  21.341  14.522
14544W        W82773  17.167  27.630   0.667
14545W        W82774  20.315  33.714  10.278
14546W        W82775  34.166  16.562  12.481
14547W        W82776   7.189  15.374  12.116
14548W        W82777  40.042  27.846  14.263
14549W        W82778  35.877  14.348  12.106
14550W        W82779   0.670   7.808   2.856
14551W        W82780   6.031   1.451  14.494
14552W        W82781  30.313  14.402   0.983
14553W        W82782   5.737  19.482  14.537
14554W        W82783  26.901  13.680  14.089
14555W        W82784  13.248  39.887   0.002
14556W        W82785  16.783   1.370  13.079
14557W        W82786  34.526  30.134  13.790
14558W        W82787  22.538  34.927  10.786
14559W        W82788  30.567  44.306  11.819
14560W        W82789  34.963  15.837   4.730
14561W        W82790  21.065   5.256   3.210
14562W        W82791  23.557  40.947   1.797
14563W        W82792  32.552   9.536  13.562
14564W        W82793  23.956  22.990  14.811
14565W        W82794  21.319  29.101  12.136
14566W        W82795  13.723  39.893   2.200
14567W        W82796  32.617  41.374  14.821
14568W        W82797  24.067  39.130   3.381
14569W        W82798  26.416  14.273   3.357
14570W        W82799  13.254  24.208  14.933
14571W        W82800   2.804  23.859  12.807
14572W        W82801  30.642  19.644   2.420
14573W        W82802  17.523  38.623   1.976
14574W        W82803   7.272  43.908  11.685
14575W        W82804  36.488  39.974  11.956
14576W        W82805   9.269  18.576   3.154
14577W        W82806  22.280  30.182  14.728
14578W        W82807  34.572  17.510   0.842
14579W        W82808  13.765   7.441   2.483
14580W        W82809  27.528  33.659   3.650
14581W        W82810   9.237  16.248   4.525
14582W        W82811   5.257  43.928  14.949
14583W        W82812  17.690   0.728   0.536
14584W        W82813  39.035   5.901  11.076
14585W        W82814  11.460   0.367   4.649
14586W        W82815  42.357  43.789  12.954
14587W        W82816  22.666  10.436   3.659
14588W        W82817   5.337   4.448   4.334
14589W        W82818   0.710   0.736  14.427
14590W        W82819   1.882  21.387  14.370
14591W        W82820  37.722   3.948   2.238
14592W        W82821  22.773  11.822   1.860
14593W        W82822   9.350  34.961   0.447
14594W        W82823  14.290  18.684   3.390
14595W        W82824  38.625  20.109  10.650
14596W        W82825   7.638  38.581   0.539
14597W        W82826   8.890  33.477   3.191
14598W        W82827   7.235  30.110   0.431
14599W        W82828  27.187  43.610  10.893
14600W        W82829  40.513  23.157  10.938
14601W        W82830  16.883  29.573  10.629
14602W        W82831   7.898  16.200   1.007
14603W        W82832  32.622   9.361  14.698
14604W        W82833   1.793  25.207  12.524
14605W        W82834  25.421  20.628  12.007
14606W        W82835   5.781   8.933  11.907
14607W        W82836  39.820  24.928  11.075
14608W        W82837   2.128  40.335  13.357
14609W        W82838  41.758  32.109   2.646
14610W        W82839  35.300  16.421   0.121
14611W        W82840  27.367  13.586  14.329
14612W        W82841  28.169  14.046   4.113
14613W        W82842  28.506   7.727   2.253
14614W        W82843  42.941  11.048  13.732
14615W        W82844  20.133   0.478   4.863
14616W        W82845  28.668   5.862  13.428
14617W        W82846  11.699  31.469  10.791
14618W        W82847  29.174   7.736  11.098
14619W        W82848  11.109  35.395  12.720
14620W        W82849  40.489   7.292  13.314
14621W        W82850  27.301   0.083   3.294
14622W        W82851  12.184  13.463  14.700
14623W        W82852  24.495  17.576  12.477
14624W        W82853  42.995  43.896   0.960
14625W        W82854  37.940  34.100   3.935
14626W        W82855  29.046  21.152  14.450
14627W        W82856   0.953  26.058  13.923
14628W        W82857  35.387  30.579  11.264
14629W        W82858  40.088   5.623  12.900
14630W        W82859  16.727  27.696   2.753
14631W        W82860   6.600   2.128  10.593
14632W        W82861   0.685  25.626  13.066
14633W        W82862  33.384  35.720   2.832
14634W        W82863  20.775   9.327  11.896
14635W        W82864   7.615   1.221  14.831
14636W        W82865  12.717  32.580  13.975
14637W        W82866  36.633   5.397   2.780
14638W        W82867   3.825  34.431   2.615
14639W        W82868  32.806  17.049   2.384
14640W        W82869  44.813   1.773  12.968
14641W        W82870   7.260  26.872  14.385
14642W        W82871  32.590  12.860   2.027
14643W        W82872   3.407  11.878  13.725
14644W        W82873  11.295  17.325   1.414
14645W        W82874   3.202  30.052   3.306
14646W        W82875   1.868  27.620   1.972
14647W        W82876  30.977  12.869  13.522
14648W        W82877  40.442  33.198   4.551
14649W        W82878   5.163  28.545   2.368
14650W        W82879   0.697  36.935  10.765
14651W        W82880   7.687  25.517  12.123
14652W        W82881  39.780  22.691   3.696
14653W        W82882  28.227  10.483   3.258
14654W        W82883  13.610   3.807   4.779
14655W        W82884   5.611  28.160  12.529
14656W        W82885   7.383  34.391  14.967
14657W        W82886  29.683  43.534  13.555
14658W        W82887  30.423  30.424   2.793
14659W        W82888  21.067   0.868   0.385
14660W        W82889  10.866   8.728   1.232
14661W        W82890   6.703  12.124   2.173
14662W        W82891  28.891  11.662  13.578
14663W        W82892   9.463  29.586   9.867
14664W        W82893  18.885  37.072  13.362
14665W        W82894  28.042  23.665  14.154
14666W        W82895   2.908  13.876   1.926
14667W        W82896  34.428  44.823   3.058
14668W        W82897  36.394   1.020   1.247
14669W        W82898  12.159  38.416  12.965
14670W        W82899  38.839   2.553  14.782
14671W        W82900  13.576  19.082   4.186
14672W        W82901   2.950  32.144  11.557
14673W        W82902  38.935  41.949  13.376
14674W        W82903   9.602  22.936  14.734
14675W        W82904  28.162  10.245  13.390
14676W        W82905  26.806  29.036  14.939
14677W        W82906  12.713  24.304   3.231
14678W        W82907  39.712  26.487  12.479
14679W        W82908   6.753   8.280   0.191
14680W        W82909  35.620  34.037   4.129
14681W        W82910  10.377  26.431  10.321
14682W        W82911  30.831   5.307   0.515
14683W        W82912  10.325   8.888  11.164
14684W        W82913  33.450  33.422   3.427
14685W        W82914   4.954  29.030  13.018
14686W        W82915   7.742  36.880   3.072
14687W        W82916  16.557  36.549   1.787
14688W        W82917  43.037  28.149   4.880
14689W        W82918  44.856  27.476   0.216
14690W        W82919  25.545  43.532   2.350
14691W        W82920   7.385   9.369   4.657
14692W        W82921   3.637  12.336  14.964
14693W        W82922  38.041  19.309   2.650
14694W        W82923  22.533   3.980  12.380
14695W        W82924   2.576   2.195  12.467
14696W        W82925  21.908  18.563   2.898
14697W        W82926   0.401  34.096   3.743
14698W        W82927  28.843   3.424   4.074
14699W        W82928  26.507  25.178  10.907
14700W        W82929  18.309  20.894   4.183
14701W        W82930  28.876  17.331   0.362
14702W        W82931  35.630  29.954   4.532
14703W        W82932  17.312  38.581  12.496
14704W        W82933  30.324  14.905   3.310
14705W        W82934  40.904  10.651   3.795
14706W        W82935  38.769   2.530   3.208
14707W        W82936  35.205  41.680  12.332
14708W        W82937  43.875  16.416   4.227
14709W        W82938  16.454  31.040   3.042
14710W        W82939   2.792  23.425   2.145
14711W        W82940   9.846   7.873   1.718
14712W        W82941  15.268  23.536   2.166
14713W        W82942  38.062   9.338   1.791
14714W        W82943   4.787  26.734  13.373
14715W        W82944  10.607  11.792  14.376
14716W        W82945  34.418  30.022   4.359
14717W        W82946  38.630   6.940   2.332
14718W        W82947  34.856  34.218  12.970
14719W        W82948   0.533  11.633   1.943
14720W        W82949  20.309  20.070   0.436
14721W        W82950   6.730  30.585  13.052
14722W        W82951  11.744  14.192  11.962
14723W        W82952  34.466  17.511  11.988
14724W        W82953  43.707  38.759  10.228
14725W        W82954   6.482   6.779   4.842
14726W        W82955  40.348  28.393   1.936
14727W        W82956  14.310   1.934  10.443
14728W        W82957  13.599  16.989   9.800
14729W        W82958  42.259   7.176   2.299
14730W        W82959  44.240  42.014   2.093
14731W        W82960   9.561  28.970   4.599
14732W        W82961  32.380  38.965  11.150
14733W        W82962   8.292  21.575   4.484
14734W        W82963  33.993   5.712  12.359
14735W        W82964  25.471   8.867  14.478
14736W        W82965  29.504  16.175   3.180
14737W        W82966  38.979   4.844  14.007
14738W        W82967  11.621  37.391  11.956
14739W        W82968  11.246  28.632  14.376
14740W        W82969  17.351  15.546   5.249
14741W        W82970  13.570  28.957  11.257
14742W        W82971  26.994  42.037   1.153
14743W        W82972  25.792  13.110   2.809
14744W        W82973   3.982  39.314  13.426
14745W        W82974  35.542  42.397  13.720
14746W        W82975   1.867   2.530  13.056
14747W        W82976   3.018  16.932  11.111
14748W        W82977  38.500  13.012   2.780
14749W        W82978  36.560  43.251   1.321
14750W        W82979   1.061  11.729  14.343
14751W        W82980  12.147  17.230  14.084
14752W        W82981  10.292  36.501   2.216
14753W        W82982  23.103  28.943  10.376
14754W        W82983   4.458   0.352   1.370
14755W        W82984  28.409  32.620   1.899
14756W        W82985  18.482  36.399  13.697
14757W        W82986   8.720  35.944   3.688
14758W        W82987  23.461  23.117  14.792
14759W        W82988  38.131   2.876   3.714
14760W        W82989  27.595  26.136   0.771
14761W        W82990  34.023  23.337  11.975
14762W        W82991  29.170  44.841   3.838
14763W        W82992  42.854  27.601  13.281
14764W        W82993   6.801   0.707  13.097
14765W        W82994  32.647  15.732   4.872
14766W        W82995   7.653   2.727   4.546
14767W        W82996  38.542  26.781   4.536
14768W        W82997  44.776  40.063   2.770
14769W        W82998   0.977  24.244  14.888
14770W        W82999  16.568   9.141   2.870
14771W        W83000   5.410  22.105   3.736
14772W        W83001  29.878   5.229  10.623
14773W        W83002   5.872  14.605   0.480
14774W        W83003  13.093  35.890   1.888
14775W        W83004  21.651  10.373  12.086
14776W        W83005  25.416  44.245   4.973
14777W        W83006  31.516   8.843   1.501
14778W        W83007  16.803   6.902  12.385
14779W        W83008  25.694   8.082   3.043
14780W        W83009  43.945  21.760  11.106
14781W        W83010  21.526  40.900  13.782
14782W        W83011  14.630  33.591   2.309
14783W        W83012  29.404   8.362   2.812
14784W        W83013  24.603   5.680  11.618
14785W        W83014   6.749  15.173  10.740
14786W        W83015  11.121  11.174   0.875
14787W        W83016  17.314  35.657   0.337
14788W        W83017  13.299  32.496   2.918
14789W        W83018  28.894  41.990  12.222
14790W        W83019   5.781  10.184  14.832
14791W        W83020  39.823  39.186  14.959
14792W        W83021  13.120  26.458   2.922
14793W        W83022   1.492   5.278  13.873
14794W        W83023   2.263  29.575   1.956
14795W        W83024  24.631  10.870   0.213
14796W        W83025  23.642   4.755   2.429
14797W        W83026  19.782   2.769  10.696
14798W        W83027  36.038  37.926   4.200
14799W        W83028  29.987   3.202  13.358
14800W        W83029   7.199  42.439   3.283
14801W        W83030  18.560  36.087   5.043
14802W        W83031  25.710  17.618   4.027
14803W        W83032  41.839  10.214  11.097
14804W        W83033   6.801  38.333   3.935
14805W        W83034  32.617  24.188   3.408
14806W        W83035  11.739  42.002  14.914
14807W        W83036  21.648  33.650   1.791
14808W        W83037  37.338  44.060  12.031
14809W        W83038  12.743  17.267   1.234
14810W        W83039   3.105  37.796  14.412
14811W        W83040  10.150   6.360   2.298
14812W        W83041  23.696  42.847   3.277
14813W        W83042  32.112  13.117   2.830
14814W        W83043   5.207  26.473  13.564
14815W        W83044  43.888  40.021   3.782
14816W        W83045  44.240  10.677   0.822
14817W        W83046  29.220  13.876   2.138
14818W        W83047  24.244  25.673  12.839
14819W        W83048  27.306   9.777  12.019
14820W        W83049  38.523  34.883   3.834
14821W        W83050  20.153  39.018   0.471
14822W        W83051  22.603  39.346  14.491
14823W        W83052  28.933  21.746   4.872
14824W        W83053  29.891   0.007   4.365
14825W        W83054  22.097  35.822  14.053
14826W        W83055  20.321   3.733   0.287
14827W        W83056  32.626  23.194   1.227
14828W        W83057  33.570  34.464  14.739
14829W        W83058  34.861  44.457   0.282
14830W        W83059   9.642  37.525  13.277
14831W        W83060  18.445  18.516   2.272
14832W        W83061  24.395  38.306   3.812
14833W        W83062   4.900  36.417   1.700
14834W        W83063   9.924   2.370  11.432
14835W        W83064  30.142  40.047   1.696
14836W        W83065  39.157  44.974  10.689
14837W        W83066  33.425  37.428   5.245
14838W        W83067  36.332  27.612  13.113
14839W        W83068  17.247  13.958   2.357
14840W        W83069  33.596  24.912   2.638
14841W        W83070  24.536  31.577  11.189
14842W        W83071   9.449  18.623  12.904
14843W        W83072  30.049  24.761  12.125
14844W        W83073   8.546  13.294   3.745
14845W        W83074  13.955  39.402   4.742
14846W        W83075  35.589   1.425   4.644
14847W        W83076  28.500  41.309   1.686
14848W        W83077  44.470  43.996   4.609
14849W        W83078   5.887   8.168   3.383
14850W        W83079  23.894  33.698   3.623
14851W        W83080  13.066  21.030   2.791
14852W        W83081  43.783  22.745  11.090
14853W        W83082  21.612  11.029  12.162
14854W        W83083  15.867   6.236   1.311
14855W        W83084   0.679  30.199   0.425
14856W        W83085  28.438  26.524  11.230
14857W        W83086   3.451  10.640   3.316
14858W        W83087  22.195  30.457  14.291
14859W        W83088  33.022   6.423  11.011
14860W        W83089  31.334  19.552  13.076
14861W        W83090   2.094  42.324  12.980
14862W        W83091  20.662   1.414   1.394
14863W        W83092  34.460  41.402   1.972
14864W        W83093  13.728   0.519   0.830
14865W        W83094  25.165  34.054   2.803
14866W        W83095  23.168  25.965   1.420
14867W        W83096   8.778   1.260   1.469
14868W        W83097  38.538  40.546   0.339
14869W        W83098  32.941   1.482  13.863
14870W        W83099  28.208  34.912  11.101
14871W        W83100  13.663  27.417  14.660
14872W        W83101  22.560  26.517   3.300
14873W        W83102  35.807   2.901   1.419
14874W        W83103  16.565   4.820  11.548
14875W        W83104   1.271  33.121  10.899
14876W        W83105  14.559  39.430   1.426
14877W        W83106  42.258  14.912  12.464
14878W        W83107  31.671  24.854  14.418
14879W        W83108  35.054  43.431   2.087
14880W        W83109   2.384  28.176   1.395
14881W        W83110   0.367  33.628  13.476
14882W        W83111  43.672  12.821   4.743
14883W        W83112  37.044  42.417  13.034
14884W        W83113   0.245  17.724   1.846
14885W        W83114  35.270   6.335  12.442
14886W        W83115   8.646  32.477   4.660
14887W        W83116  26.965  24.361   4.036
14888W        W83117  38.363  31.567  12.869
14889W        W83118  32.084   1.529  14.855
14890W        W83119  38.293  22.121  13.654
14891W        W83120  36.882  11.814  13.373
14892W        W83121  32.936  11.189   3.024
14893W        W83122  38.255  28.930   1.793
14894W        W83123   6.799  38.130  13.494
14895W        W83124  24.187  20.201   3.223
14896W        W83125  30.591  19.494   0.311
14897W        W83126  24.628   9.139  14.170
14898W        W83127  24.665  11.853   2.799
14899W        W83128  37.588  38.176   3.166
14900W        W83129  19.352  34.865   9.930
14901W        W83130  17.133  25.187  11.716
14902W        W83131   5.394  40.455   1.720
14903W        W83132  25.155  44.498   2.685
14904W        W83133  33.497  28.046   3.536
14905W        W83134   4.286  37.821   0.906
14906W        W83135  12.772  40.946   2.682
14907W        W83136  34.582  38.115   1.290
14908W        W83137  29.631  28.842  14.675
14909W        W83138   3.743  44.420  11.339
14910W        W83139   6.612  34.478  13.984
14911W        W83140  22.927   0.815  13.346
14912W        W83141  13.219   0.775  11.456
14913W        W83142  33.947  19.259  10.648
14914W        W83143  18.893  44.018  13.101
14915W        W83144  13.237  37.664  11.215
14916W        W83145  34.326  13.636   3.562
14917W        W83146   1.956  38.822   4.168
14918W        W83147  28.163  27.211  12.790
14919W        W83148  17.561   3.890  14.937
14920W        W83149  26.046  18.702   1.963
14921W        W83150  19.570   6.634   3.131
14922W        W83151  42.366  36.667  13.971
14923W        W83152  14.109   7.622   1.380
14924W        W83153  39.398   3.606   4.728
14925W        W83154  39.083  20.295  12.440
14926W        W83155  31.600  27.225   1.907
14927W        W83156  39.853  13.172  13.384
14928W        W83157  44.446  15.560   3.253
14929W        W83158   3.161   5.262   0.104
14930W        W83159  12.050  24.495  14.389
14931W        W83160  16.781  25.715   3.327
14932W        W83161  39.911  43.230   2.734
14933W        W83162  37.120  16.251   2.760
14934W        W83163  26.500   0.223   2.684
14935W        W83164  26.948  26.191   1.167
14936W        W83165  29.488   7.623  14.262
14937W        W83166  24.564  17.126  12.684
14938W        W83167  22.582  41.154   2.969
14939W        W83168   5.054  29.554   4.495
14940W        W83169  36.417  19.363   2.742
14941W        W83170  38.089  25.795  12.943
14942W        W83171  41.300  17.405   3.112
14943W        W83172  20.126  34.477   2.335
14944W        W83173  24.996  11.310   4.055
14945W        W83174  30.208  29.733  12.947
14946W        W83175  40.818  33.870   3.662
14947W        W83176  12.202   4.215  11.590
14948W        W83177  22.496   2.107   3.880
14949W        W83178  19.188   6.344  11.092
14950W        W83179  21.319   0.309   1.200
14951W        W83180   7.806  36.937   3.570
14952W        W83181   1.586  44.156   1.874
14953W        W83182  30.165  40.731  10.796
14954W        W83183  39.305   7.561  14.409
14955W        W83184  35.101   0.320   3.064
14956W        W83185   9.662   4.415   3.340
14957W        W83186  10.367  29.952   4.653
14958W        W83187  10.500  13.283  12.153
14959W        W83188  32.176  34.955  10.620
14960W        W83189  16.519  11.792   2.673
14961W        W83190  25.543  22.060   1.871
14962W        W83191  15.538   1.211   3.835
14963W        W83192   0.399  40.644  14.478
14964W        W83193   5.430  18.516  10.809
14965W        W83194  18.082  29.065  12.937
14966W        W83195  33.662  28.998   2.289
14967W        W83196  24.316  12.355   1.739
14968W        W83197  34.634  32.171   4.507
14969W        W83198   3.196  12.771   3.710
14970W        W83199  36.864  37.866   0.508
14971W        W83200  37.639  14.287  13.448
14972W        W83201  41.417  18.098  12.032
14973W        W83202  19.025  11.321  10.902
14974W        W83203  20.063  24.219   0.697
14975W        W83204  21.447  20.542  14.871
14976W        W83205   1.464  21.680  12.033
14977W        W83206  27.642  34.590  14.398
14978W        W83207   5.848  14.874  11.160
14979W        W83208  12.905  35.280   4.230
14980W        W83209  29.487  14.793   2.694
14981W        W83210  17.304   5.265  13.930
14982W        W83211  12.675  18.227  12.971
14983W        W83212   9.928  17.609  12.063
14984W        W83213  15.733  35.668   1.027
14985W        W83214  12.898  27.346  11.277
14986W        W83215  13.690  22.429   0.387
14987W        W83216  13.390  36.961   0.928
14988W        W83217  27.034  42.812  14.401
14989W        W83218  35.884  14.626   3.585
14990W        W83219  34.849  16.260  13.359
14991W        W83220  32.023  19.620   4.562
14992W        W83221   4.760  17.119  11.746
14993W        W83222  24.552  25.104   2.409
14994W        W83223  30.491   9.471   0.549
14995W        W83224  22.313  41.735  13.352
14996W        W83225  36.478  39.571   1.657
14997W        W83226  11.161  36.575   4.214
14998W        W83227  21.803   7.185  12.919
14999W        W83228  21.255  31.102  14.938
15000W        W83229  14.559  32.119  12.804
15001W        W83230  14.208  30.646   3.812
15002W        W83231   4.451  19.674   2.367
15003W        W83232   4.846  36.020   2.577
15004W        W83233  27.808  11.418  10.194
15005W        W83234  33.745  26.998   3.947
15006W        W83235  29.079   7.871  14.464
15007W        W83236  32.566  21.086   1.455
15008W        W83237  39.987   6.365   3.887
15009W        W83238   5.781  21.081  13.588
15010W        W83239  16.699  21.130  12.473
15011W        W83240  14.390  44.907   3.407
15012W        W83241   7.682   8.465   2.179
15013W        W83242  12.163  17.410   3.639
15014W        W83243  13.742  43.293   2.275
15015W        W83244  37.685  27.860   1.358
15016W        W83245  23.052  10.100  14.985
15017W        W83246   6.009  11.391   0.421
15018W        W83247  32.872  12.532  11.790
15019W        W83248  24.118  44.262   0.876
15020W        W83249  30.470   4.235  12.020
15021W        W83250  34.582   1.564  11.673
15022W        W83251   9.400  35.293  12.067
15023W        W83252  23.778  25.901  12.854
15024W        W83253  35.514   0.905  10.681
15025W        W83254  33.173   0.780  12.336
15026W        W83255  22.012   8.394  12.249
15027W        W83256  42.929  29.642   0.080
15028W        W83257  23.519  33.591   2.298
15029W        W83258  42.561   5.733   4.259
15030W        W83259   6.742   5.717  12.793
15031W        W83260  38.014  24.151  10.411
15032W        W83261  43.836   4.994  10.986
15033W        W83262  21.193  25.999  12.022
15034W        W83263   0.993   9.042  14.878
15035W        W83264  17.343   8.186   3.610
15036W        W83265  30.007  39.290  14.435
15037W        W83266   7.413  11.127  11.992
15038W        W83267  23.356  12.817   3.143
15039W        W83268  44.438   7.395  12.024
15040W        W83269  40.524  19.992   4.581
15041W        W83270  35.345  12.217  10.821
15042W        W83271   4.194  21.826   0.274
15043W        W83272  14.047  20.719   4.135
15044W        W83273  24.901  42.574   0.934
15045W        W83274  29.141  26.612  14.522
15046W        W83275  43.096  34.348  11.061
15047W        W83276  22.486   8.535   0.952
15048W        W83277  28.140   2.424   2.766
15049W        W83278  27.780  35.098  12.101
15050W        W83279   6.690  10.779  13.395
15051W        W83280  29.010  29.684  12.603
15052W        W83281   8.266   0.647   3.526
15053W        W83282  24.174  33.603  13.933
15054W        W83283  13.809  17.231   0.320
15055W        W83284   6.143  16.351  11.175
15056W        W83285  30.061   4.199   4.548
15057W        W83286  25.955  40.056   4.678
15058W        W83287  16.197  20.860   5.048
15059W        W83288  10.179  24.203   3.555
15060W        W83289  20.773  29.982   2.773
15061W        W83290  12.126  16.627  11.791
15062W        W83291  24.050  15.501   2.013
15063W        W83292  14.585  22.489  11.637
15064W        W83293  34.572  13.781  13.916
15065W        W83294  19.559   2.521   0.409
15066W        W83295   4.875   0.707   2.243
15067W        W83296  30.705  30.745   3.327
15068W        W83297  21.250   7.436   4.053
15069W        W83298  14.639   4.951   4.209
15070W        W83299   3.081  37.324  11.176
15071W        W83300  25.464  28.271   1.395
15072W        W83301   5.491  17.458  11.573
15073W        W83302  39.253   0.405   2.309
15074W        W83303  11.359  35.260  11.621
15075W        W83304   5.403   8.241   3.606
15076W        W83305  37.082  41.396   0.900
15077W        W83306  30.155  33.494   3.391
15078W        W83307  23.218  14.000   4.796
15079W        W83308   3.680   7.473   1.982
15080W        W83309  14.489  31.054   3.657
15081W        W83310   9.775  36.320  14.819
15082W        W83311  26.711  38.515  13.806
15083W        W83312  24.014  13.777   0.281
15084W        W83313   4.364   1.381   0.666
15085W        W83314   7.763  26.246   1.231
15086W        W83315  42.929  34.133   0.863
15087W        W83316   9.059  42.945  11.206
15088W        W83317  41.612  22.437  10.756
15089W        W83318   4.696   7.843   4.656
15090W        W83319  23.677   5.124  11.599
15091W        W83320  44.022  23.559   0.467
15092W        W83321  16.527   0.338  14.728
15093W        W83322  26.510  36.380  13.310
15094W        W83323  11.966   1.280  10.796
15095W        W83324  37.993  10.613  12.617
15096W        W83325  34.607  19.095  13.392
15097W        W83326   0.922   6.343   4.533
15098W        W83327   6.920  26.524  13.018
15099W        W83328   8.856  36.118   1.553
15100W        W83329   1.952  26.838  12.573
15101W        W83330  12.598  25.160  11.626
15102W        W83331  35.559   7.729  13.395
15103W        W83332  12.848  16.838  14.102
15104W        W83333  35.502  18.998  10.132
15105W        W83334  44.888   0.450   2.207
15106W        W83335  35.204  41.314  11.531
15107W        W83336  35.620  20.673  12.117
15108W        W83337  31.468   4.301  10.520
15109W        W83338  23.129  27.967  13.805
15110W        W83339  39.876  34.370  11.957
15111W        W83340  24.464   7.360   2.617
15112W        W83341  38.999   4.374   3.091
15113W        W83342  15.064  13.395  14.339
15114W        W83343  27.601  37.567  12.609
15115W        W83344   3.165  39.346   9.499
15116W        W83345  15.228   2.444   1.813
15117W        W83346  40.401  24.546   2.530
15118W        W83347  27.398  38.106  11.105
15119W        W83348  39.864  37.623   3.293
15120W        W83349  41.682  29.978  12.757
15121W        W83350  15.581  20.776   0.815
15122W        W83351  19.667  43.342   0.900
15123W        W83352  33.941  15.335   3.379
15124W        W83353  20.012   9.440  14.722
15125W        W83354  22.508  24.201  12.027
15126W        W83355  30.210  26.595   3.772
15127W        W83356  12.644  22.231   2.457
15128W        W83357  22.121  23.032  14.399
15129W        W83358  31.515   2.321  14.846
15130W        W83359  41.311  36.319  13.494
15131W        W83360  43.876  30.648   2.519
15132W        W83361   1.752  25.349   4.820
15133W        W83362  30.096  38.075  13.944
15134W        W83363  21.667  33.154   2.741
15135W        W83364  13.772  40.829   2.877
15136W        W83365  25.570  27.492   0.851
15137W        W83366  20.552   4.953   2.248
15138W        W83367  21.087  26.635   2.667
15139W        W83368   1.290  35.150  12.375
15140W        W83369   0.456  21.148  10.680
15141W        W83370  42.937  42.023   1.246
15142W        W83371  40.474  11.360   2.820
15143W        W83372  27.694  43.491   0.330
15144W        W83373   0.375  16.568   1.816
15145W        W83374  24.744   8.923  11.354
15146W        W83375  17.644  44.727  10.732
15147W        W83376  13.078  22.672  11.475
15148W        W83377  17.114  26.548  10.579
15149W        W83378  34.120  13.099   4.273
15150W        W83379  19.205  44.300   1.351
15151W        W83380  12.669   2.722  12.946
15152W        W83381  32.531  29.846  13.461
15153W        W83382  26.183  15.289  14.565
15154W        W83383  17.793  36.369   4.679
15155W        W83384  42.477  41.486   0.419
15156W        W83385  44.511   2.671   1.890
15157W        W83386   8.667  26.669  14.087
15158W        W83387  19.325   3.271   3.387
15159W        W83388  32.064  30.446   1.016
15160W        W83389  28.913   8.325  12.159
15161W        W83390  29.814  38.990   0.779
15162W        W83391  42.489   5.942   0.203
15163W        W83392   0.013   3.309  12.578
15164W        W83393  19.639  23.702   2.671
15165W        W83394  41.795  37.885   2.063
15166W        W83395  25.139  18.791   1.212
15167W        W83396  19.755  38.255  12.132
15168W        W83397  17.240  14.299   0.732
15169W        W83398   2.698  11.631  10.746
15170W        W83399  39.959  16.054  14.270
15171W        W83400   3.298  34.545  14.743
15172W        W83401  32.729  16.662  13.824
15173W        W83402  13.771   0.462   4.912
15174W        W83403  43.244   7.605   2.172
15175W        W83404  10.200  33.498   4.575
15176W        W83405  26.081  33.611  11.299
15177W        W83406  17.662   2.508  14.877
15178W        W83407  39.334  10.847  13.805
15179W        W83408  37.813  20.953  14.339
15180W        W83409  26.886   2.785   3.659
15181W        W83410  15.253  42.782   3.369
15182W        W83411  23.938  36.090  11.082
15183W        W83412  38.352   7.391  13.340
15184W        W83413  25.995  23.836  14.015
15185W        W83414  33.563  16.737   4.253
15186W        W83415  29.608  42.226  11.201
15187W        W83416   2.467  22.077  14.705
15188W        W83417   2.879  32.653   2.320
15189W        W83418   0.899  14.497   1.062
15190W        W83419   5.356  33.535  13.865
15191W        W83420  20.137  22.474   4.579
15192W        W83421  17.065  43.874  11.998
15193W        W83422  17.342  22.810  12.346
15194W        W83423   7.395  10.407   1.798
15195W        W83424  30.031   0.902   0.215
15196W        W83425  11.837  12.218   1.359
15197W        W83426  30.747   5.698   4.167
15198W        W83427  13.768  27.137  13.815
15199W        W83428   9.090  25.405   5.050
15200W        W83429  13.763   6.201   0.518
15201W        W83430   3.955   2.534  12.367
15202W        W83431  31.322  39.445  10.366
15203W        W83432   7.213  28.441  12.094
15204W        W83433  44.954  17.111   5.020
15205W        W83434  13.383  19.532  12.468
15206W        W83435   1.241  35.939  12.041
15207W        W83436  15.201  38.982   4.654
15208W        W83437  38.768  28.658   1.237
15209W        W83438  32.654  34.367   4.132
15210W        W83439  30.380  42.551   2.722
15211W        W83440  13.348  39.066   2.742
15212W        W83441  10.038  20.576   4.162
15213W        W83442   1.090   1.232   2.680
15214W        W83443   0.895  31.674   2.305
15215W        W83444  40.437  19.957  14.914
15216W        W83445  24.691  22.263  11.005
15217W        W83446   0.483  29.345   3.018
15218W        W83447   0.751  37.362  14.435
15219W        W83448   5.050   2.294   2.289
15220W        W83449  44.338  13.948  14.699
15221W        W83450  36.057  36.635   3.231
15222W        W83451  42.422  27.075   5.007
15223W        W83452  31.101   3.230  14.710
15224W        W83453  34.532  18.653   5.103
15225W        W83454  22.559   2.244   1.769
15226W        W83455  22.185  39.967   4.655
15227W        W83456  13.049   2.015  12.511
15228W        W83457  28.654  13.866  10.718
15229W        W83458   3.784  38.510   0.326
15230W        W83459   2.103  25.621   2.820
15231W        W83460   1.382  21.825   4.297
15232W        W83461  36.505  27.138   4.041
15233W        W83462  24.593  33.011   3.600
15234W        W83463  36.463  26.921   2.595
15235W        W83464  29.807  40.297   2.781
15236W        W83465  11.225  42.044  12.080
15237W        W83466  28.618  34.099  13.631
15238W        W83467  23.180  13.224   1.329
15239W        W83468  19.817  38.490  10.379
15240W        W83469  15.748  32.525  13.396
15241W        W83470  24.159  17.157   0.442
15242W        W83471  39.277   4.123  12.978
15243W        W83472  43.991  10.192   2.321
15244W        W83473  29.434  12.536  10.179
15245W        W83474   3.785  29.040   1.176
15246W        W83475   8.734   9.292   4.455
15247W        W83476  15.050  17.749   1.397
15248W        W83477   8.252  44.891  13.767
15249W        W83478  44.814  12.121  13.774
15250W        W83479  25.684  17.514  13.051
15251W        W83480  27.220  28.005   2.670
15252W        W83481  26.090   7.316  10.999
15253W        W83482   5.791  34.604  13.024
15254W        W83483  42.324  41.297   3.678
15255W        W83484  42.309  21.773   3.335
15256W        W83485  16.613  15.110  13.852
15257W        W83486  11.480  19.313   1.364
15258W        W83487  32.284   0.239   1.835
15259W        W83488  35.794  16.412  13.489
15260W        W83489   8.060  30.486   4.221
15261W        W83490  42.791  40.264  14.338
15262W        W83491  11.693  31.277   1.931
15263W        W83492  40.033  43.491  13.033
15264W        W83493  28.417  13.527   3.300
15265W        W83494  39.950   0.783   2.658
15266W        W83495  12.628   9.273  12.314
15267W        W83496  20.496  32.419   3.608
15268W        W83497  31.989   4.915  14.434
15269W        W83498  14.336   0.470   1.156
15270W        W83499  42.955   1.907  14.515
15271W        W83500   0.327   1.272  14.389
15272W        W83501  39.981  34.856   1.461
15273W        W83502  25.210   1.793  11.971
15274W        W83503  40.389  43.389  12.180
15275W        W83504  12.694  14.573   2.731
15276W        W83505  36.262  12.185   1.711
15277W        W83506   7.281  38.315   3.710
15278W        W83507   8.331  43.592  11.104
15279W        W83508   0.405  17.932  13.515
15280W        W83509  38.318  40.996  14.857
15281W        W83510  14.946   2.995  11.669
15282W        W83511  41.961  23.455  13.592
15283W        W83512  26.616  41.717  10.616
15284W        W83513   7.895  16.606  12.969
15285W        W83514  38.123  35.053   3.494
15286W        W83515  42.167   5.572  14.864
15287W        W83516  39.773   5.155  14.481
15288W        W83517  42.440  30.592  12.812
15289W        W83518   9.200  20.681  11.438
15290W        W83519  38.002  43.241   0.322
15291W        W83520   2.242  11.378  13.006
15292W        W83521  14.479  42.751   0.639
15293W        W83522  19.756  27.125  14.417
15294W        W83523  42.844  24.899   4.397
15295W        W83524  44.266  22.432   4.155
15296W        W83525  18.271   1.041  13.970
15297W        W83526  39.137  26.599  13.377
15298W        W83527  16.244  19.817  11.597
15299W        W83528  35.170   4.467  12.732
15300W        W83529  38.130  19.275   3.163
15301W        W83530  14.169  22.201  11.978
15302W        W83531  34.721   6.336   0.967
15303W        W83532  23.435  39.867   0.624
15304W        W83533  10.563  28.241  11.934
15305W        W83534  32.941   4.511   3.317
15306W        W83535  43.731  38.488  12.934
15307W        W83536  33.119  14.671  11.581
15308W        W83537  18.292  24.093  11.163
15309W        W83538   2.819  35.105   3.946
15310W        W83539  43.250  20.559  12.810
15311W        W83540  14.870  44.245   4.505
15312W        W83541  14.794  11.636  14.995
15313W        W83542  44.294  16.381  14.190
15314W        W83543   4.719  38.596  13.628
15315W        W83544   1.995  16.215   4.077
15316W        W83545  27.672   2.965   3.966
15317W        W83546  36.979  12.071  12.022
15318W        W83547  28.563  30.514  11.187
15319W        W83548   4.468   3.845  10.888
15320W        W83549  14.266  23.677   3.293
15321W        W83550  29.170  21.780   4.356
15322W        W83551  19.049  22.752   2.222
15323W        W83552  25.735  31.387  10.124
15324W        W83553  42.520  22.321   4.116
15325W        W83554  29.856   7.849   1.062
15326W        W83555  32.000   2.681  11.424
15327W        W83556  10.285   9.943   4.588
15328W        W83557  25.483  43.493   1.224
15329W        W83558  36.088  40.259  11.563
15330W        W83559   9.329   7.123   4.456
15331W        W83560  21.514  40.716  12.518
15332W        W83561   6.342  24.341  10.920
15333W        W83562  15.680  26.361   1.189
15334W        W83563  38.549  40.425   4.380
15335W        W83564  31.957  30.595  12.069
15336W        W83565  30.372  33.450  14.786
15337W        W83566  30.508   1.611  12.657
15338W        W83567  19.022  35.967  10.695
15339W        W83568  25.675   6.474   1.723
15340W        W83569  15.813  30.686  11.595
15341W        W83570  25.547  42.852  11.885
15342W        W83571  23.201   1.848   4.429
15343W        W83572   8.285  15.324   3.999
15344W        W83573   2.890   2.051  10.771
15345W        W83574  29.647   0.443  14.386
15346W        W83575  28.875  13.331  12.355
15347W        W83576   3.368  29.908   0.791
15348W        W83577  32.367   7.405   0.246
15349W        W83578  22.012  17.060   2.736
15350W        W83579   2.486  35.242  12.046
15351W        W83580  24.143   3.856  10.691
15352W        W83581   0.851   1.794   1.755
15353W        W83582  16.873   6.832   0.868
15354W        W83583  23.316   4.446   2.731
15355W        W83584  34.180  37.319   0.294
15356W        W83585   4.849  40.995   3.855
15357W        W83586   4.480  14.890   2.680
15358W        W83587  31.543   5.520  14.893
15359W        W83588   4.949  19.401  13.505
15360W        W83589  28.159   0.784   3.621
15361W        W83590  12.750   3.413   1.363
15362W        W83591  17.153  41.631  12.073
15363W        W83592  28.359  35.570  13.305
15364W        W83593  35.890  17.081  14.489
15365W        W83594  12.825  27.995  14.308
15366W        W83595  24.630  29.413  10.346
15367W        W83596   0.548  30.853  11.140
15368W        W83597   9.672  24.962   3.843
15369W        W83598  26.205  28.000   3.919
15370W        W83599  15.111  37.884  10.682
15371W        W83600  12.381  17.272   4.614
15372W        W83601  36.294   9.438   0.080
15373W        W83602   9.963  15.223  11.128
15374W        W83603  37.734   6.644  12.936
15375W        W83604  11.732   4.437  11.673
15376W        W83605  23.201  26.456   4.419
15377W        W83606   8.243  29.887   0.871
15378W        W83607  26.778  23.223   4.126
15379W        W83608  19.589  32.065   3.628
15380W        W83609  10.293  19.281   1.658
15381W        W83610   8.416   6.709  12.577
15382W        W83611  18.345  44.262  12.954
15383W        W83612  42.962  26.182  12.910
15384W        W83613  27.239  10.301   4.825
15385W        W83614  32.062  40.099   4.115
15386W        W83615  17.871  11.799   1.094
15387W        W83616  37.120  10.396  12.938
15388W        W83617   6.920  26.865   4.190
15389W        W83618  35.005  42.893   3.754
15390W        W83619  33.486  37.900   3.882
15391W        W83620  21.018  31.722   3.719
15392W        W83621  18.289  14.610   3.270
15393W        W83622  40.044   1.070   1.390
15394W        W83623  32.363  24.170  10.639
15395W        W83624  23.597  44.432  13.959
15396W        W83625   7.311   3.734   5.097
15397W        W83626  22.835  39.511  10.687
15398W        W83627   5.435  24.160  13.311
15399W        W83628  24.340  26.124  13.660
15400W        W83629  30.042  10.574   4.498
15401W        W83630  43.306  15.180  13.315
15402W        W83631  16.684  31.189  14.961
15403W        W83632  42.887  42.284   1.791
15404W        W83633  24.139  32.418   4.090
15405W        W83634   9.399  32.486   4.168
15406W        W83635  22.877   5.711  10.230
15407W        W83636   9.623  27.227   2.221
15408W        W83637  36.620  26.342  12.779
15409W        W83638   6.030  12.765   1.004
15410W        W83639   1.873  37.929   0.703
15411W        W83640   7.385  28.979   3.114
15412W        W83641   9.282  10.034   0.822
15413W        W83642  33.969  33.528  13.620
15414W        W83643  30.185   5.878   3.183
15415W        W83644  24.653  40.274   3.703
15416W        W83645   9.354  37.271  14.964
15417W        W83646  27.148  23.221  13.461
15418W        W83647  10.266  41.304  11.956
15419W        W83648   4.905  31.982   9.812
15420W        W83649  26.723  40.318   1.900
15421W        W83650  42.384  42.900  11.595
15422W        W83651  44.773  13.324   4.143
15423W        W83652  33.910  30.107   3.948
15424W        W83653  29.449  12.106   4.766
15425W        W83654  35.040  16.858   0.056
15426W        W83655  24.171  14.406   2.736
15427W        W83656   4.369  32.116  10.637
15428W        W83657  39.290  28.084   0.789
15429W        W83658   7.768  29.900  11.621
15430W        W83659  24.811  21.075   4.500
15431W        W83660  17.673   6.091   2.004
15432W        W83661  37.392  14.305   2.741
15433W        W83662  24.696   0.488  10.986
15434W        W83663  23.284  20.292   0.483
15435W        W83664  33.431  30.835  13.282
15436W        W83665   0.139  13.298  11.960
15437W        W83666  17.058  39.947  10.577
15438W        W83667  20.272  26.087  12.609
15439W        W83668  38.922  29.433  10.449
15440W        W83669   8.793  20.962   1.916
15441W        W83670  12.211  44.861  14.989
15442W        W83671  13.933  40.022  12.513
15443W        W83672  13.360   5.495  12.912
15444W        W83673  40.959  12.205  14.455
15445W        W83674  18.631  41.270  12.330
15446W        W83675   5.836  22.716   0.790
15447W        W83676  16.278   0.720   1.194
15448W        W83677   6.728  13.243  12.607
15449W        W83678  14.354  33.457  10.417
15450W        W83679   2.846  28.181   1.657
15451W        W83680  34.541  18.078  14.969
15452W        W83681  24.197  33.757  12.881
15453W        W83682   7.934  23.068   0.600
15454W        W83683  35.176  40.971  11.912
15455W        W83684  34.260  34.468  14.729
15456W        W83685  44.484   6.468   1.805
15457W        W83686  40.372   6.934   1.727
15458W        W83687   1.241  21.626   4.756
15459W        W83688  43.535  13.471   1.815
15460W        W83689  31.471  10.098   4.320
15461W        W83690   0.654   3.403  10.566
15462W        W83691  41.817  36.035   0.326
15463W        W83692   5.293  27.080   2.244
15464W        W83693  19.554  29.716   3.674
15465W        W83694  41.316  35.471   0.824
15466W        W83695  32.018  26.076  13.841
15467W        W83696  23.640  16.213   4.411
15468W        W83697  44.795  20.753   1.724
15469W        W83698  19.832  18.537  13.817
15470W        W83699  37.854  34.170  14.316
15471W        W83700  30.243  41.745   1.159
15472W        W83701  21.209   5.148  12.458
15473W        W83702  12.713  34.926   1.889
15474W        W83703  43.671  40.527   2.430
15475W        W83704  13.045  44.328   4.236
15476W        W83705  41.676  35.328   1.741
15477W        W83706   5.966   0.760   1.610
15478W        W83707  18.264  23.264  14.317
15479W        W83708   9.749  38.578   2.703
15480W        W83709  39.895   2.378  10.714
15481W        W83710  16.258  42.145   2.808
15482W        W83711  31.028  37.280  14.826
15483W        W83712   5.935  26.332  10.672
15484W        W83713  43.322  13.916   1.960
15485W        W83714  43.963   9.601   0.013
15486W        W83715  26.979  38.262  14.652
15487W        W83716  27.684  17.327   0.836
15488W        W83717  43.363  37.418  12.978
15489W        W83718  19.106  18.980   4.872
15490W        W83719  22.453  34.921   0.823
15491W        W83720   4.915   2.299  13.534
15492W        W83721  38.810  18.214   1.622
15493W        W83722  22.607  22.031   2.892
15494W        W83723  30.741  15.255   2.450
15495W        W83724  24.261   5.523   4.055
15496W        W83725  11.218  14.193   0.237
15497W        W83726  16.097  17.210   1.418
15498W        W83727  23.700  42.203  13.454
15499W        W83728   0.274  16.281  13.367
15500W        W83729  28.208  24.541  13.076
15501W        W83730  40.365  38.342   0.192
15502W        W83731  28.704   9.640  13.866
15503W        W83732  43.582  11.321   1.001
15504W        W83733  22.097  40.101   1.910
15505W        W83734  35.331  25.497   3.114
15506W        W83735  17.360  23.421  14.360
15507W        W83736   8.328  21.948   3.329
15508W        W83737  30.719   9.749   0.924
15509W        W83738   9.760  23.236   2.588
15510W        W83739  31.955  28.995   0.705
15511W        W83740  10.147   6.629  12.603
15512W        W83741   0.232  20.683   3.134
15513W        W83742  12.758  34.483   3.759
15514W        W83743  15.468   9.757   3.243
15515W        W83744  18.071  12.799  10.621
15516W        W83745  31.523  10.776   1.294
15517W        W83746  30.652  35.495   2.928
15518W        W83747  35.912  43.136   2.749
15519W        W83748  41.544   8.987  14.328
15520W        W83749  35.615  26.279   1.781
15521W        W83750  24.662  38.930   2.684
15522W        W83751  21.061  23.100   3.136
15523W        W83752  26.054  37.324  11.859
15524W        W83753  17.741  16.367  13.399
15525W        W83754  19.035  33.938  13.097
15526W        W83755  38.091  39.999   4.890
15527W        W83756   7.240  35.021  10.486
15528W        W83757  38.156  19.564  11.125
15529W        W83758  21.312  32.569   4.385
15530W        W83759   9.176  12.202  10.596
15531W        W83760  26.933   5.680   4.652
15532W        W83761  10.829  33.832   1.467
15533W        W83762   4.207  44.564  13.801
15534W        W83763  44.073  12.849  12.115
15535W        W83764  13.956  37.015  13.020
15536W        W83765  38.366  38.428   1.283
15537W        W83766  39.440  40.280   3.202
15538W        W83767  26.085  25.720   1.466
15539W        W83768   9.868   2.357  12.591
15540W        W83769  28.946  14.571   3.745
15541W        W83770  35.367  30.143   4.135
15542W        W83771  12.102  33.148   2.850
15543W        W83772  36.420  32.629   3.941
15544W        W83773  44.047  38.342  12.456
15545W        W83774  24.648  13.342  13.769
15546W        W83775  26.055  33.640  13.043
15547W        W83776  43.354  22.958   3.149
15548W        W83777   9.459  23.791  12.902
15549W        W83778  17.972  44.950   0.169
15550W        W83779  36.362  20.207   1.268
15551W        W83780  14.336   9.899   1.871
15552W        W83781   9.630  27.533   4.797
15553W        W83782  22.089  28.913   3.234
15554W        W83783  12.612  14.106   1.248
15555W        W83784  41.519  29.533  13.860
15556W        W83785  30.880  24.939  10.472
15557W        W83786  32.665  15.783  10.731
15558W        W83787  33.389  22.558   0.361
15559W        W83788  34.395  28.102   0.301
15560W        W83789  35.765  10.628   0.397
15561W        W83790  40.753  40.628  14.186
15562W        W83791  30.826  18.097  12.415
15563W        W83792  10.120  17.685   0.722
15564W        W83793  44.915   6.938  14.669
15565W        W83794  21.608  32.600  12.600
15566W        W83795   3.356  15.635  13.925
15567W        W83796   3.057  25.224   3.570
15568W        W83797   8.737  10.975  13.430
15569W        W83798  16.846  43.706  14.512
15570W        W83799  13.745  29.562   2.644
15571W        W83800  39.552  35.458  14.318
15572W        W83801  30.645  37.089  13.051
15573W        W83802  30.189  12.794   3.840
15574W        W83803  36.407  19.128   4.108
15575W        W83804  17.396  21.995  11.447
15576W        W83805   6.402  41.347  13.316
15577W        W83806  42.535  24.030  11.341
15578W        W83807  15.250  16.380   2.678
15579W        W83808  20.637   4.482   0.775
15580W        W83809  34.379  41.339  14.367
15581W        W83810  40.494  41.767  13.161
15582W        W83811  44.215   4.417  10.336
15583W        W83812  41.945  27.556  14.989
15584W        W83813  19.696  30.408  11.167
15585W        W83814  23.459   9.892   1.855
15586W        W83815  41.450  14.643  14.873
15587W        W83816  38.298   5.227  12.440
15588W        W83817  40.477   2.907   2.127
15589W        W83818  27.846  28.163   0.375
15590W        W83819  11.975  11.741  10.986
15591W        W83820  38.430   2.002   0.232
15592W        W83821  35.611  10.742   4.619
15593W        W83822  41.397  34.671   0.258
15594W        W83823  36.465  32.752  10.113
15595W        W83824   7.696  20.310  12.202
15596W        W83825  33.465   5.177  14.883
15597W        W83826  39.987   2.907  13.874
15598W        W83827  40.294  42.588   1.683
15599W        W83828  27.154  11.457  13.558
15600W        W83829   4.924  42.231  14.811
15601W        W83830  38.830  16.517  10.709
15602W        W83831  41.240  13.209  13.826
15603W        W83832  20.795   4.854  12.240
15604W        W83833  11.918  12.786  12.471
15605W        W83834   2.391  19.236   4.285
15606W        W83835   9.748  27.479   2.676
15607W        W83836  25.168  22.755   1.316
15608W        W83837  21.627  15.887  12.410
15609W        W83838  28.994   2.182  13.582
15610W        W83839  28.386  33.125  14.373
15611W        W83840   9.909  43.504   0.697
15612W        W83841   9.196  38.817  12.505
15613W        W83842  25.703  35.980   0.799
15614W        W83843  35.136  28.577  10.714
15615W        W83844  31.564  32.841  14.968
15616W        W83845  33.565  17.847   2.421
15617W        W83846   5.233   1.270   4.052
15618W        W83847  18.090   1.768  11.062
15619W        W83848  31.506  12.038  10.621
15620W        W83849  22.111  14.073   9.765
15621W        W83850   9.078   2.232  14.217
15622W        W83851  23.663  16.548   3.558
15623W        W83852  37.202  36.171  14.840
15624W        W83853  10.344  24.110  13.262
15625W        W83854  37.649  11.638   1.773
15626W        W83855  39.083  15.329  14.894
15627W        W83856  32.169  30.101   1.842
15628W        W83857  30.709  36.098  14.442
15629W        W83858   0.228   5.696  11.944
15630W        W83859  15.625   7.416  12.462
15631W        W83860  31.369  21.122  10.957
15632W        W83861  37.447  32.596  13.823
15633W        W83862  31.865  12.488  13.987
15634W        W83863  21.509   6.599  11.618
15635W        W83864  27.040   9.477  12.323
15636W        W83865  21.663  22.729  14.534
15637W        W83866   1.644  11.013  14.836
15638W        W83867  39.518  20.366  14.045
15639W        W83868  44.053  37.407  13.499
15640W        W83869  43.296   3.553   4.423
15641W        W83870   6.726  29.329  11.021
15642W        W83871  25.744  37.048  14.950
15643W        W83872   4.920  33.510  11.493
15644W        W83873   8.901  39.440   3.221
15645W        W83874  31.606  32.532   0.450
15646W        W83875  38.538  12.610  10.772
15647W        W83876  37.954   0.934   0.881
15648W        W83877  26.115  35.318   1.382
15649W        W83878  27.504  37.556  13.121
15650W        W83879   1.555  19.976   3.441
15651W        W83880   5.755  28.446  12.137
15652W        W83881   1.526  32.900  14.322
15653W        W83882  38.366  43.517   0.064
15654W        W83883  27.251  26.663  10.663
15655W        W83884  34.314  42.546  14.844
15656W        W83885  14.804  40.509   4.672
15657W        W83886   5.290  32.894   1.194
15658W        W83887  26.218   6.624   3.659
15659W        W83888  39.546  10.421   4.285
15660W        W83889  22.604  13.152   4.583
15661W        W83890  18.021  11.403  14.402
15662W        W83891  15.225  13.022  10.356
15663W        W83892  30.707   0.920  11.517
15664W        W83893  31.927  39.315  10.703
15665W        W83894  37.205   3.929   0.086
15666W        W83895   6.654  28.627   2.808
15667W        W83896   4.943  35.559   1.795
15668W        W83897   9.271   1.931   2.348
15669W        W83898  36.911  27.538  10.990
15670W        W83899  38.403  40.962   2.654
15671W        W83900  11.696  11.882  12.966
15672W        W83901  24.576  16.686  12.959
15673W        W83902   9.299  39.956   1.948
15674W        W83903   8.745   3.765  12.061
15675W        W83904   0.245  10.270   3.675
15676W        W83905   1.504  19.297  11.490
15677W        W83906  28.090  36.363   4.121
15678W        W83907   4.976  29.682   5.039
15679W        W83908   3.166  32.211  14.985
15680W        W83909  43.863  37.994  13.422
15681W        W83910  31.673  35.116   4.360
15682W        W83911  16.065  22.047   0.281
15683W        W83912  30.600   6.539  13.342
15684W        W83913  14.621   1.765   1.515
15685W        W83914  27.122  38.790  13.910
15686W        W83915  39.159  13.575  13.051
15687W        W83916  17.685   8.276  11.136
15688W        W83917  25.482   5.462  10.981
15689W        W83918  28.985  36.099  14.967
15690W        W83919   9.659   4.496  11.105
15691W        W83920  13.265  18.786   0.684
15692W        W83921  13.839  23.927  14.243
15693W        W83922  21.528  22.655   2.214
15694W        W83923   7.900  30.049  13.598
15695W        W83924   9.401  21.490   0.972
15696W        W83925  32.123  19.014   2.457
15697W        W83926  35.834  39.397   3.225
15698W        W83927  12.797  10.954  13.615
15699W        W83928  15.311   3.226   0.839
15700W        W83929   8.495  18.195  11.219
15701W        W83930  17.073  17.110   2.637
15702W        W83931  24.498  39.870  11.000
15703W        W83932  10.361  27.007  12.059
15704W        W83933  15.569  11.153  13.544
15705W        W83934  39.516  19.674  11.980
15706W        W83935  32.661  20.298   4.309
15707W        W83936  44.005   2.040  14.577
15708W        W83937  42.272  30.342   3.230
15709W        W83938  14.297  44.010   4.090
15710W        W83939  24.696  42.287   1.903
15711W        W83940  42.475  36.757  12.073
15712W        W83941   9.482  24.637  11.204
15713W        W83942   6.543  33.927  11.747
15714W        W83943  28.943   8.130  14.039
15715W        W83944   1.031  14.077  12.567
15716W        W83945  27.999  31.138  13.331
15717W        W83946  22.971  42.916   2.698
15718W        W83947  29.023  28.246  13.954
15719W        W83948  18.190  31.919  11.236
15720W        W83949  26.493  40.835  10.567
15721W        W83950  32.386  12.722   2.991
15722W        W83951  12.799  35.420   1.687
15723W        W83952   8.409   4.298  13.064
15724W        W83953  43.358  20.560   1.935
15725W        W83954  40.472  37.937  12.563
15726W        W83955  16.180  33.447   3.641
15727W        W83956  12.263  33.473   1.427
15728W        W83957  39.116  41.457  14.834
15729W        W83958  43.462  34.412   4.588
15730W        W83959   1.487   1.990  14.342
15731W        W83960  31.592  21.566  10.874
15732W        W83961  42.779  29.146  14.980
15733W        W83962   7.672  23.282  12.551
15734W        W83963  10.394  36.811   4.874
15735W        W83964  21.469  12.813  11.007
15736W        W83965   1.189  20.908  11.673
15737W        W83966   4.372  11.007   2.748
15738W        W83967  16.019  32.495  10.256
15739W        W83968  18.471  42.415  13.831
15740W        W83969   0.858  41.470   1.654
15741W        W83970  35.481  19.084   1.858
15742W        W83971  43.277  16.692   0.921
15743W        W83972  22.945  16.694   3.214
15744W        W83973  13.767  19.733  10.984
15745W        W83974  35.311  25.978   3.546
15746W        W83975  39.011  22.670   4.114
15747W        W83976  10.238  24.046  12.330
15748W        W83977  36.896  41.730  11.719
15749W        W83978   3.046  39.559   3.931
15750W        W83979  37.331  23.972   1.796
15751W        W83980  25.043   9.751  10.297
15752W        W83981   3.290  34.856   1.472
15753W        W83982  28.662  28.555  13.772
15754W        W83983   6.166  38.204  14.367
15755W        W83984  42.486  39.979  14.044
15756W        W83985  33.479   6.717  13.152
15757W        W83986  14.663   0.713   1.944
15758W        W83987   3.796  24.929   0.258
15759W        W83988  28.063   3.224   3.819
15760W        W83989   0.736  12.838   3.704
15761W        W83990  22.948  14.145   1.831
15762W        W83991  33.188  29.518   2.826
15763W        W83992  14.382  10.712   0.794
15764W        W83993   6.398   1.770  12.098
15765W        W83994   3.711  32.043  13.872
15766W        W83995   2.060  35.399   4.692
15767W        W83996   1.032  30.433   4.210
15768W        W83997  25.013  30.353  14.870
15769W        W83998  31.311  37.376   5.050
15770W        W83999  38.711   2.269   1.447
15771W        W84000  30.880  27.010  12.573
15772W        W84001   3.056  25.386   1.814
15773W        W84002  18.033   2.650  14.427
15774W        W84003   9.632  39.966   2.940
15775W        W84004  32.157  27.789   4.097
15776W        W84005  20.009  20.577   1.310
15777W        W84006  13.834  10.481   0.259
15778W        W84007  40.016  26.741  12.154
15779W        W84008  35.297  33.059   2.853
15780W        W84009  18.792  30.506   1.545
15781W        W84010  29.217  40.527   4.869
15782W        W84011   7.371  38.541   2.751
15783W        W84012  37.954   1.760   0.007
15784W        W84013  39.640   6.909   1.298
15785W        W84014  21.991  30.496   0.846
15786W        W84015   2.242  11.565  12.520
15787W        W84016  21.683  11.351   4.080
15788W        W84017  40.008  11.660   2.695
15789W        W84018  12.227   2.908  11.115
15790W        W84019  31.547  38.395   1.824
15791W        W84020   5.579  31.076  13.373
15792W        W84021  23.693   7.446   3.112
15793W        W84022  17.600  11.827   0.067
15794W        W84023  44.672   1.347   2.692
15795W        W84024  41.025  11.584   0.389
15796W        W84025  44.319  13.537   3.380
15797W        W84026  20.212  37.096  12.672
15798W        W84027  16.298   2.456   4.883
15799W        W84028  20.157  43.890   3.405
15800W        W84029  12.780  24.663   4.201
15801W        W84030  36.065  12.098   0.008
15802W        W84031  24.406   5.940   4.502
15803W        W84032   6.979   8.190  12.018
15804W        W84033  19.600   4.953  10.782
15805W        W84034  15.893   8.402  12.476
15806W        W84035  25.400  13.603  14.366
15807W        W84036  27.602  17.608   3.192
15808W        W84037   3.426  22.950   1.318
15809W        W84038  21.820  42.824   1.383
15810W        W84039  16.219   2.297  11.180
15811W        W84040  43.258   3.360  13.326
15812W        W84041  15.801  35.141  13.314
15813W        W84042  37.374  29.565  11.251
15814W        W84043  28.794  12.506  11.902
15815W        W84044   1.748   3.276  12.072
15816W        W84045   7.779  44.266  10.912
15817W        W84046  33.161  13.757  12.582
15818W        W84047   7.998  13.723  12.520
15819W        W84048  30.458   4.795  13.708
15820W        W84049  37.639  40.163   5.082
15821W        W84050  39.274   9.835   1.772
15822W        W84051  31.390  12.698   4.068
15823W        W84052   1.678   4.753   4.254
15824W        W84053  34.421  13.790  12.618
15825W        W84054  24.631  30.102   1.349
15826W        W84055   1.485   0.127  14.289
15827W        W84056  12.750  18.277  11.910
15828W        W84057   9.636  33.092   0.950
15829W        W84058  11.983   5.368  13.819
15830W        W84059  12.354   2.618  12.546
15831W        W84060  41.292  14.854  11.175
15832W        W84061  44.806  41.525   0.187
15833W        W84062  28.127  11.337   1.786
15834W        W84063  34.869  37.692  13.069
15835W        W84064  28.815  16.172  14.963
15836W        W84065   1.455   1.479   1.415
15837W        W84066  10.093  36.896  14.003
15838W        W84067  23.264   5.844  12.519
15839W        W84068  34.525  28.296  13.438
15840W        W84069  14.614  27.995  11.194
15841W        W84070  40.126  13.640  13.386
15842W        W84071  17.617  13.578   2.378
15843W        W84072  31.081  16.468  12.949
15844W        W84073  16.280  20.271  13.447
15845W        W84074  39.037  29.911   3.599
15846W        W84075   8.235  43.869  14.780
15847W        W84076  13.704  30.379   0.803
15848W        W84077  12.782  38.904   0.043
15849W        W84078  40.389   1.078   2.688
15850W        W84079  40.627  10.234  11.491
15851W        W84080  14.788  32.378   4.268
15852W        W84081  21.683  20.238   0.760
15853W        W84082   7.145   1.354   4.791
15854W        W84083  11.669   9.729   0.723
15855W        W84084  34.515  16.531  14.880
15856W        W84085  16.714  17.481   2.711
15857W        W84086  27.391  29.512   3.292
15858W        W84087  36.478  26.946   0.325
15859W        W84088  21.221   1.839   1.787
15860W        W84089  26.760  18.211  14.714
15861W        W84090  40.754  28.113   4.842
15862W        W84091  34.171  32.871   0.378
15863W        W84092  13.913  13.641   4.527
15864W        W84093   3.499   0.739  14.390
15865W        W84094  34.224  44.428   2.792
15866W        W84095  28.476  28.657   3.977
15867W        W84096  14.103  28.585  13.077
15868W        W84097  34.371  32.207   3.843
15869W        W84098  37.563   8.184  13.958
15870W        W84099   8.307   3.448  12.046
15871W        W84100  38.868  24.722   0.292
15872W        W84101  27.132   6.885  13.878
15873W        W84102   1.437  32.633  14.756
15874W        W84103  17.034  43.487   3.705
15875W        W84104  10.394   4.756   0.861
15876W        W84105   2.943  12.999   0.133
15877W        W84106   9.352  20.224  11.581
15878W        W84107  30.675  28.672   2.627
15879W        W84108   2.885  17.002   3.959
15880W        W84109  25.582   8.415   3.677
15881W        W84110  23.584  36.089  13.909
15882W        W84111  23.059  41.721   1.240
15883W        W84112  19.766  37.819   4.542
15884W        W84113  30.841  15.209  10.757
15885W        W84114   7.133  33.981  13.386
15886W        W84115  12.983  36.881   1.708
15887W        W84116  26.884  41.438  13.490
15888W        W84117  35.301  27.053  10.665
15889W        W84118  42.561  20.445  13.547
15890W        W84119  12.451  34.421   4.174
15891W        W84120  44.127  15.829  14.816
15892W        W84121  22.077  26.223  14.454
15893W        W84122  28.331   4.135   1.868
15894W        W84123  31.677  42.884  11.670
15895W        W84124  30.869  28.321   2.321
15896W        W84125   0.237   8.867  14.523
15897W        W84126  28.514  38.546  11.814
15898W        W84127   4.533  43.204   1.901
15899W        W84128  21.894   5.443  14.823
15900W        W84129  19.065  21.567   1.355
15901W        W84130   6.318  44.225   1.197
15902W        W84131  23.610  31.405  13.469
15903W        W84132  43.911  14.824   0.339
15904W        W84133  25.595  24.040  14.306
15905W        W84134  10.837  15.528   4.385
15906W        W84135   9.979  17.663   1.721
15907W        W84136  27.160   9.902  12.616
15908W        W84137  31.408  33.796  11.579
15909W        W84138  28.669  41.601   4.225
15910W        W84139  16.592  32.546  11.175
15911W        W84140  28.180  24.236   0.439
15912W        W84141  38.993   9.213   2.737
15913W        W84142  40.072  25.036   3.311
15914W        W84143  36.414  35.950  14.590
15915W        W84144   6.558  40.766   2.468
15916W        W84145  22.104  29.866  10.655
15917W        W84146  26.987  29.065  14.037
15918W        W84147  12.260  37.611   2.131
15919W        W84148  14.456  15.517   0.921
15920W        W84149   7.753  17.080   0.429
15921W        W84150  14.837  27.509   4.704
15922W        W84151  43.497   5.727   1.034
15923W        W84152   4.242   8.614   4.583
15924W        W84153   9.594  13.848   4.142
15925W        W84154  31.619  39.492  13.757
15926W        W84155  20.144  44.995   3.833
15927W        W84156  43.482  43.761   4.603
15928W        W84157  17.080  36.587   1.776
15929W        W84158  10.409  34.939   4.547
15930W        W84159  11.899  28.137   4.426
15931W        W84160  31.022  28.965   0.671
15932W        W84161  23.043  40.544   3.429
15933W        W84162  21.328  33.912  14.379
15934W        W84163   1.806  44.805   4.529
15935W        W84164  19.459  40.995   3.802
15936W        W84165  32.085   5.232  11.608
15937W        W84166  37.953  43.588  13.313
15938W        W84167  19.622  13.858  14.276
15939W        W84168  36.200   1.972   1.162
15940W        W84169  36.200  11.107   4.093
15941W        W84170  17.762  12.165   2.389
15942W        W84171  36.747  44.236  14.119
15943W        W84172  18.407  22.706  13.088
15944W        W84173   7.650  22.371  13.793
15945W        W84174  38.666  42.550   1.978
15946W        W84175  32.745  32.975  13.678
15947W        W84176   9.827  39.398  13.554
15948W        W84177  41.908  33.896   3.737
15949W        W84178  10.243  41.013   5.192
15950W        W84179  26.279  27.709  12.951
15951W        W84180  22.566  41.466   3.393
15952W        W84181   8.673  22.964   3.132
15953W        W84182   0.349   6.343  13.853
15954W        W84183  26.590  25.194   3.890
15955W        W84184  22.718   9.399   0.813
15956W        W84185  22.947  14.643   1.701
15957W        W84186   3.874  10.248   2.862
15958W        W84187  35.132  10.455  12.119
15959W        W84188  43.624  29.847   2.188
15960W        W84189  35.290  37.933   1.085
15961W        W84190  37.870  11.897  13.987
15962W        W84191  26.499  35.155  12.654
15963W        W84192   0.118  37.492   5.126
15964W        W84193  29.064   2.481  10.694
15965W        W84194  13.653  13.935   4.180
15966W        W84195  18.639  37.109  10.907
15967W        W84196  31.289  14.611  11.937
15968W        W84197  27.279  26.053   2.110
15969W        W84198  44.967  18.729  13.949
15970W        W84199  28.042   8.717   3.547
15971W        W84200  28.092  26.046  14.452
15972W        W84201  12.822   8.207  13.767
15973W        W84202  37.933  24.069   2.617
15974W        W84203  24.402  20.351  12.056
15975W        W84204  13.705  16.196   0.189
15976W        W84205   7.846  40.325  14.984
15977W        W84206  29.309  30.120  14.899
15978W        W84207  31.924  41.003   1.159
15979W        W84208  24.924   8.731  13.387
15980W        W84209  18.405  20.834  13.850
15981W        W84210  40.586  44.471   0.840
15982W        W84211  41.380  23.335  13.998
15983W        W84212  13.830  25.954   2.695
15984W        W84213  29.392  43.379  11.714
15985W        W84214   1.589   0.285   4.383
15986W        W84215   6.291  25.206   0.287
15987W        W84216  18.823  30.219  14.016
15988W        W84217   4.227  37.401   2.866
15989W        W84218  16.681  42.733  14.438
15990W        W84219  23.073   5.393   4.547
15991W        W84220  10.781  12.801  13.584
15992W        W84221  39.570  37.774   4.690
15993W        W84222  15.075  35.329   2.674
15994W        W84223   7.224  39.993  11.947
15995W        W84224  40.710  40.867   0.853
15996W        W84225   6.919  16.643   0.327
15997W        W84226  30.796  21.148  11.724
15998W        W84227  42.406   6.739  10.733
15999W        W84228  13.627  11.508   3.538
16000W        W84229  31.113  40.058   0.305
16001W        W84230  40.306  30.596   1.881
16002W        W84231  26.004  15.210   4.457
16003W        W84232  38.466  16.638   2.402
16004W        W84233   5.739  30.963   4.983
16005W        W84234  10.639  28.236  11.404
16006W        W84235  25.199  35.396  11.038
16007W        W84236  13.417   7.696   0.862
16008W        W84237  23.712  35.013   0.265
16009W        W84238  31.115  34.845   1.352
16010W        W84239   4.808  17.598  12.654
16011W        W84240  24.140  24.040  13.899
16012W        W84241  21.730   0.383  13.130
16013W        W84242  32.168  13.483  12.129
16014W        W84243  23.254  22.593  11.926
16015W        W84244  26.685   1.348  14.923
16016W        W84245  43.101  41.523   4.110
16017W        W84246  39.435   4.590  12.925
16018W        W84247  32.925  42.283   1.241
16019W        W84248  34.343  36.345  11.647
16020W        W84249  29.478  40.135   4.623
16021W        W84250   7.361  36.165   1.428
16022W        W84251  29.572   4.869   4.135
16023W        W84252  24.398  29.766   3.882
16024W        W84253  14.309  40.284   3.282
16025W        W84254  17.215  32.509   1.425
16026W        W84255   5.445   8.192  14.329
16027W        W84256  43.804  11.345   3.127
16028W        W84257  37.954  39.254  14.976
16029W        W84258   5.743   0.326   1.865
16030W        W84259  27.901  39.757   2.296
16031W        W84260  31.116  12.910   0.345
16032W        W84261   2.118   9.744  13.857
16033W        W84262  39.426  11.868  11.731
16034W        W84263   9.855   9.261  14.871
16035W        W84264  13.326   2.045  10.866
16036W        W84265  10.619  32.498  12.838
16037W        W84266  23.227   3.986   1.440
16038W        W84267  11.634  29.820  13.075
16039W        W84268  36.198  40.299  12.483
16040W        W84269  43.043  15.252  11.577
16041W        W84270  20.600  41.438  13.771
16042W        W84271  31.907  14.883  11.148
16043W        W84272  35.306  12.855  14.900
16044W        W84273  30.783  21.948  12.429
16045W        W84274  38.757  10.632  14.541
16046W        W84275  11.137  17.336   3.314
16047W        W84276  40.347  39.280  14.884
16048W        W84277  44.789  11.428  11.933
16049W        W84278   0.614  13.132  12.046
16050W        W84279   8.782   6.154  12.957
16051W        W84280  39.549  44.383  14.764
16052W        W84281  39.412  32.568  13.139
16053W        W84282  40.161  34.457  14.329
16054W        W84283  22.113  19.686   3.808
16055W        W84284  34.327  13.085  10.760
16056W        W84285  29.343  30.613   4.705
16057W        W84286  11.106  30.502   1.418
16058W        W84287  41.965  38.876  11.514
16059W        W84288  38.000   2.651   1.694
16060W        W84289   7.230   0.514  11.157
16061W        W84290  19.979  44.259  12.330
16062W        W84291  26.475  20.249   3.749
16063W        W84292  25.135  34.266   1.784
16064W        W84293   4.338  35.965  13.363
16065W        W84294  43.745   9.139   4.186
16066W        W84295  16.890   1.698   3.778
16067W        W84296  33.967  11.831   1.133
16068W        W84297  36.164   3.753   2.386
16069W        W84298  34.299   8.151  12.448
16070W        W84299  38.967  33.538  14.832
16071W        W84300   7.681  32.060   0.815
16072W        W84301  13.414  25.414   3.820
16073W        W84302   8.175  36.902   1.774
16074W        W84303  23.944  38.076   0.013
16075W        W84304  23.229  24.281  12.437
16076W        W84305  24.096  20.510   3.897
16077W        W84306  14.719  18.181  12.821
16078W        W84307   6.324   7.823   3.738
16079W        W84308  25.475  40.962  14.579
16080W        W84309  28.919  33.066   2.674
16081W        W84310  44.963  39.955  14.128
16082W        W84311  21.962  33.484  13.584
16083W        W84312  30.018  22.767  12.050
16084W        W84313  35.923  26.483   3.122
16085W        W84314  20.972  31.190  13.960
16086W        W84315  34.339   9.784  13.061
16087W        W84316  21.742  12.099  12.954
16088W        W84317  10.828  20.528   4.114
16089W        W84318  26.512   4.799  14.374
16090W        W84319  35.543  32.896  14.329
16091W        W84320  25.002  38.774   3.282
16092W        W84321  21.998  11.112   3.726
16093W        W84322  20.103  11.628   1.744
16094W        W84323  22.783  20.785   4.763
16095W        W84324   8.720  11.841  10.238
16096W        W84325  27.620  24.963  12.145
16097W        W84326  41.330  17.923   3.057
16098W        W84327  34.001  19.748   4.216
16099W        W84328  13.869  23.664   0.881
16100W        W84329  30.479  13.265  11.555
16101W        W84330   5.403  32.034   2.255
16102W        W84331  17.991  17.249  12.301
16103W        W84332  33.942   7.511   0.754
16104W        W84333  39.897  32.733   2.456
16105W        W84334  41.781  22.083  12.018
16106W        W84335  35.108  27.521   2.092
16107W        W84336  38.542  32.992   4.276
16108W        W84337  29.178   3.281   2.393
16109W        W84338  22.109  22.743  14.824
16110W        W84339  20.834  14.591   4.101
16111W        W84340  22.403  17.339   2.947
16112W        W84341  33.866  18.714  13.036
16113W        W84342  29.425  10.293  12.698
16114W        W84343   4.748  42.505   2.624
16115W        W84344   4.737   3.184  12.445
16116W        W84345  30.344  27.287   2.865
16117W        W84346  18.893  36.938   3.301
16118W        W84347  34.328  11.874   2.337
16119W        W84348  16.218  31.882   3.687
16120W        W84349  23.386  42.281  14.843
16121W        W84350   0.803  18.617   0.829
16122W        W84351  22.205  40.562   0.861
16123W        W84352  20.488  41.746   1.981
16124W        W84353  29.856  22.059  13.930
16125W        W84354  39.998  36.149  13.988
16126W        W84355  13.627  17.182  13.775
16127W        W84356  20.617  13.095  11.673
16128W        W84357  19.839   5.789  12.601
16129W        W84358  37.097   6.300   1.827
16130W        W84359  22.032  39.416  12.492
16131W        W84360  41.793  29.219  11.355
16132W        W84361  36.094  13.866  11.199
16133W        W84362   3.958  28.112   4.521
16134W        W84363  11.882  43.207   1.746
16135W        W84364  22.107   0.519  11.412
16136W        W84365  24.882  10.261   3.102
16137W        W84366   7.647  42.089  10.713
16138W        W84367  21.088   7.796  11.440
16139W        W84368  31.935   8.732  12.750
16140W        W84369   9.209  11.992  14.718
16141W        W84370  20.214  22.626  12.460
16142W        W84371  27.657  15.753   1.505
16143W        W84372  12.125   1.625  12.624
16144W        W84373  18.758   7.397  13.961
16145W        W84374  14.005  22.728  14.394
16146W        W84375  21.667   2.436  12.182
16147W        W84376  43.229   0.484  14.332
16148W        W84377  34.265  20.578  11.738
16149W        W84378   1.739  21.057   2.691
16150W        W84379  28.142  40.020  10.792
16151W        W84380  20.073  23.687   0.904
16152W        W84381  18.931  20.803  13.905
16153W        W84382  28.552  26.951  12.562
16154W        W84383  15.619  43.814   1.548
16155W        W84384   7.148  14.923   2.279
16156W        W84385  12.240  15.350  11.476
16157W        W84386  40.864  24.084   0.533
16158W        W84387   3.003  21.430  11.090
16159W        W84388  11.541  40.904   4.561
16160W        W84389  20.562  25.494   0.968
16161W        W84390   2.276  35.808  14.776
16162W        W84391  30.483   5.592  11.904
16163W        W84392  31.050  21.201   2.770
16164W        W84393   2.344  30.568  13.455
16165W        W84394  38.835  25.304  14.467
16166W        W84395   0.852  43.754  11.088
16167W        W84396   8.127   3.768   3.846
16168W        W84397  36.974  39.925  13.985
16169W        W84398  27.200   1.002  11.508
16170W        W84399  40.322  39.586   3.310
16171W        W84400   3.139  11.609   1.152
16172W        W84401  25.879  10.685   4.673
16173W        W84402  43.423  39.743   3.684
16174W        W84403  39.362   2.998  12.004
16175W        W84404   2.814  32.459   1.840
16176W        W84405  41.057   7.764  10.824
16177W        W84406  36.827   1.245  11.494
16178W        W84407  24.559  15.304   2.858
16179W        W84408  25.210  40.988   1.372
16180W        W84409  39.955   8.087   3.168
16181W        W84410  39.908  27.144   1.921
16182W        W84411  26.142  28.614  14.959
16183W        W84412  16.074  16.396   1.049
16184W        W84413   6.392   8.144   1.277
16185W        W84414  24.178   6.150   3.308
16186W        W84415   4.000   2.150   2.170
16187W        W84416  22.361  26.052   3.128
16188W        W84417  34.317  19.677   0.872
16189W        W84418   1.465  38.459  12.095
16190W        W84419  24.482  32.573   0.721
16191W        W84420  23.507   8.210   4.705
16192W        W84421  37.335   8.798   2.809
16193W        W84422  21.827  42.719   4.138
16194W        W84423  16.380  38.017   2.689
16195W        W84424  15.125  29.064   1.299
16196W        W84425   5.806  27.523   3.707
16197W        W84426  11.311  29.494  10.960
16198W        W84427  29.586  27.546   4.711
16199W        W84428   2.353  17.488   2.820
16200W        W84429  28.456  23.104  12.997
16201W        W84430  13.787  38.302  12.399
16202W        W84431  35.528  21.537   3.686
16203W        W84432   2.529  44.969   0.473
16204W        W84433  41.826  13.671   1.022
16205W        W84434  41.736  40.350   0.159
16206W        W84435  13.077  23.046   2.446
16207W        W84436  10.572  26.077  13.370
16208W        W84437  26.221  43.349  10.754
16209W        W84438  27.154   4.237   4.793
16210W        W84439   3.522  18.678   3.343
16211W        W84440  17.955  21.167  14.481
16212W        W84441  35.949  17.810   4.917
16213W        W84442  18.662  16.369  11.915
16214W        W84443   8.281   1.443  14.051
16215W        W84444  36.687   5.134   4.065
16216W        W84445  39.098  15.559  12.165
16217W        W84446  44.286  37.705  14.314
16218W        W84447  27.957   4.812  11.178
16219W        W84448  25.188  22.526   2.717
16220W        W84449   7.875  26.579   2.814
16221W        W84450   7.955   0.898  12.207
16222W        W84451  24.709  21.548   1.855
16223W        W84452  40.003  27.737  13.621
16224W        W84453  18.319   6.907   1.806
16225W        W84454  30.961   2.030   1.653
16226W        W84455  40.878  18.009   3.590
16227W        W84456   8.627  27.042  11.437
16228W        W84457  32.862  38.039   4.136
16229W        W84458   4.557   3.603  12.735
16230W        W84459  19.643   3.399  14.476
16231W        W84460   9.989  25.308   0.919
16232W        W84461  20.197  10.195   2.821
16233W        W84462  37.378  41.377  14.663
16234W        W84463  23.138   7.363   2.259
16235W        W84464  26.097  11.198  11.460
16236W        W84465  12.709  23.797   2.391
16237W        W84466  22.120  35.901   3.763
16238W        W84467   6.882   8.247   1.416
16239W        W84468   0.866  39.384   4.196
16240W        W84469   8.682  29.567   3.700
16241W        W84470  34.413  34.621  11.005
16242W        W84471  13.075  31.975  13.898
16243W        W84472   6.327  23.968   1.290
16244W        W84473  13.095  20.195   3.383
16245W        W84474   1.006  17.557   3.821
16246W        W84475  12.849  15.319  11.200
16247W        W84476  15.254   1.481   0.815
16248W        W84477  27.698  30.263   4.035
16249W        W84478  11.137  14.157  12.831
16250W        W84479  18.506  20.252  11.117
16251W        W84480  11.714  23.033   1.901
16252W        W84481  31.426  33.675   0.457
16253W        W84482  25.243  33.868  11.559
16254W        W84483  18.732   5.946  14.527
16255W        W84484  44.287  28.427  11.173
16256W        W84485  35.383  44.760  14.841
16257W        W84486  10.582  25.268  12.413
16258W        W84487   9.137  30.061  10.917
16259W        W84488  16.036  44.997  14.785
16260W        W84489  15.671  10.429  12.915
16261W        W84490  27.897  15.285  10.367
16262W        W84491  19.635  44.403  13.395
16263W        W84492  30.536   5.721  14.306
16264W        W84493  26.023  30.653   3.105
16265W        W84494  29.353  40.859  14.797
16266W        W84495  35.093  38.326   1.374
16267W        W84496  40.877  13.161  12.533
16268W        W84497   0.375   4.723  12.361
16269W        W84498   3.328  37.009   2.297
16270W        W84499   1.205  42.917   1.870
16271W        W84500  27.493  13.197   1.727
16272W        W84501   7.632   7.094  12.502
16273W        W84502  29.402  33.500   3.245
16274W        W84503  21.613  12.595  14.968
16275W        W84504  24.057  32.109   2.293
16276W        W84505  27.706  26.713   1.867
16277W        W84506  39.530   1.517  10.749
16278W        W84507   7.869  40.424   2.511
16279W        W84508  21.164  22.657  13.661
16280W        W84509  22.030  17.274   1.578
16281W        W84510  32.370  13.802  14.389
16282W        W84511   7.821  42.412   4.302
16283W        W84512  20.564  30.615   3.493
16284W        W84513  12.303   8.294  13.794
16285W        W84514  28.650  12.304  14.828
16286W        W84515  30.046  16.226  12.609
16287W        W84516  30.834  17.504   1.801
16288W        W84517  22.202   7.086  11.794
16289W        W84518  29.144   5.353   1.927
16290W        W84519  31.065  12.404   0.385
16291W        W84520  34.992   6.430   1.911
16292W        W84521  39.747  16.570  12.538
16293W        W84522  17.111  36.939  11.604
16294W        W84523  25.523  14.203  13.461
16295W        W84524   2.088  37.382  12.433
16296W        W84525  25.910  21.926  14.230
16297W        W84526  23.930  27.470  13.458
16298W        W84527  18.050  22.610  13.944
16299W        W84528   2.559   4.423   4.162
16300W        W84529  17.019   9.801  14.260
16301W        W84530  29.035   6.345  14.436
16302W        W84531  20.006  38.704  14.796
16303W        W84532  37.537  10.738  12.440
16304W        W84533  32.338   7.612  12.481
16305W        W84534  34.497   8.115   1.239
16306W        W84535   2.985  32.916   4.549
16307W        W84536  15.880   4.905   3.639
16308W        W84537   1.805  23.464   3.046
16309W        W84538  17.163  34.854   4.622
16310W        W84539   6.187  31.956   1.789
16311W        W84540  44.873  29.577   2.695
16312W        W84541  19.688  12.553   2.497
16313W        W84542  36.154  21.565  10.819
16314W        W84543  14.501  30.356   4.123
16315W        W84544   1.187  17.852  12.068
16316W        W84545  23.606  35.938  13.400
16317W        W84546  21.311  19.785  11.611
16318W        W84547  44.019  15.228   4.117
16319W        W84548  44.949  17.771  13.214
16320W        W84549  18.584  30.346  13.118
16321W        W84550  16.297  12.297  10.716
16322W        W84551  38.471  23.645  10.861
16323W        W84552  44.249   7.467   4.158
16324W        W84553  31.553  30.585   0.959
16325W        W84554  42.777   3.732  14.227
16326W        W84555  15.202  41.966   2.637
16327W        W84556  27.576   3.219   4.711
16328W        W84557  11.905  17.341   4.423
16329W        W84558  33.363  30.916  11.985
16330W        W84559  18.294   4.837   3.145
16331W        W84560  24.480  18.425   4.444
16332W        W84561  18.596  12.628  10.612
16333W        W84562   2.475   4.758   4.664
16334W        W84563   2.762  33.451  14.343
16335W        W84564  21.220  31.465   2.813
16336W        W84565   0.950  17.056  12.631
16337W        W84566   5.586  24.842   3.273
16338W        W84567  27.943  18.154   2.344
16339W        W84568  18.762  34.013   4.989
16340W        W84569  24.424  10.230  11.849
16341W        W84570  34.137  16.795   2.930
16342W        W84571  25.455  19.067  10.679
16343W        W84572  41.502  16.634   4.599
16344W        W84573  13.506  41.335  10.576
16345W        W84574   3.043  25.483  12.021
16346W        W84575   5.173  38.451  11.296
16347W        W84576  38.961  30.627   2.191
16348W        W84577   0.323  42.852   0.396
16349W        W84578  26.496  39.773  10.654
16350W        W84579  39.269   3.234  11.554
16351W        W84580  17.737   6.178  12.611
16352W        W84581   4.000  34.066   0.779
16353W        W84582  39.079   3.527   3.359
16354W        W84583   4.379  34.575  12.382
16355W        W84584   7.339  34.986  13.403
16356W        W84585  33.660  27.030   4.455
16357W        W84586  33.567  32.966  10.659
16358W        W84587  43.385  36.368  13.405
16359W        W84588  40.744  26.823  11.675
16360W        W84589  29.106  38.107  14.946
16361W        W84590   7.780  11.807   3.128
16362W        W84591  37.520  24.210   0.211
16363W        W84592  35.126  18.985  11.141
16364W        W84593  18.317  25.025  10.747
16365W        W84594  17.161  39.810  11.532
16366W        W84595  17.062  29.570   3.322
16367W        W84596   2.934  21.784  11.518
16368W        W84597  18.170  27.361   4.577
16369W        W84598   7.768  15.326  12.399
16370W        W84599  29.554  16.538  10.213
16371W        W84600   3.380  23.560  14.426
16372W        W84601  26.383   0.362  14.376
16373W        W84602  22.270  33.684   2.379
16374W        W84603  30.563  29.749   0.912
16375W        W84604  14.530  15.849   3.103
16376W        W84605  22.099  23.748   2.795
16377W        W84606  43.235  31.721  12.089
16378W        W84607  16.437  25.502  11.542
16379W        W84608  34.854  16.775   0.528
16380W        W84609  30.040   8.955  14.378
16381W        W84610  25.519  20.513  10.830
16382W        W84611  25.394  18.739   2.250
16383W        W84612   9.317  24.056  11.414
16384W        W84613   7.770   4.139  12.049
16385W        W84614  37.454  29.253  11.654
16386W        W84615  13.660  39.943  14.274
16387W        W84616  17.681   8.903   0.001
16388W        W84617  42.439  44.755  13.358
16389W        W84618  34.014  27.429  14.912
16390W        W84619  16.008  29.127   1.206
16391W        W84620  29.206  33.540   3.735
16392W        W84621  12.092  43.027   3.604
16393W        W84622   0.688  31.843  11.080
16394W        W84623  38.915  29.385   5.369
16395W        W84624  40.583  37.128   5.039
16396W        W84625   4.727  25.135  11.507
16397W        W84626  12.263  13.156   0.157
16398W        W84627  19.501  35.464   3.093
16399W        W84628  23.037   1.023   4.571
16400W        W84629   2.027  12.717   3.174
16401W        W84630   0.877   5.679  14.363
16402W        W84631  14.286  40.559  13.398
16403W        W84632  26.746  20.082  14.845
16404W        W84633  42.546  42.807  12.087
16405W        W84634  40.314  43.871   4.319
16406W        W84635  26.542  18.679   3.793
16407W        W84636  30.097  31.166  11.492
16408W        W84637  35.407  40.321   0.398
16409W        W84638   5.731  40.577  12.575
16410W        W84639  38.889  27.302  14.537
16411W        W84640   2.130  10.290   4.388
16412W        W84641  21.385   5.728   0.532
16413W        W84642  15.555  13.586   3.837
16414W        W84643  23.702   5.479  13.303
16415W        W84644  20.578  38.399   1.172
16416W        W84645  37.573  21.897   4.802
16417W        W84646   6.673  39.738  11.628
16418W        W84647  15.551  23.025  13.504
16419W        W84648   1.472  14.579   1.479
16420W        W84649   2.934  42.636   4.016
16421W        W84650  16.436  17.161  11.180
16422W        W84651  35.712  26.181  13.184
16423W        W84652  29.664  19.873   0.463
16424W        W84653   1.816  20.088   2.243
16425W        W84654  41.922  17.221   2.001
16426W        W84655  25.016  32.392  13.114
16427W        W84656  15.546  10.134   1.378
16428W        W84657  30.085  18.712   5.092
16429W        W84658  41.521  23.552  13.010
16430W        W84659  11.884  22.970   4.126
16431W        W84660  11.625  22.581   0.440
16432W        W84661  40.396  33.838   0.795
16433W        W84662   0.208  31.961   0.716
16434W        W84663  20.462  41.860   2.780
16435W        W84664  34.276  33.871  13.981
16436W        W84665   3.415  31.945   3.680
16437W        W84666   2.497  35.503   3.733
16438W        W84667  28.418  13.728  14.878
16439W        W84668  38.562   4.522  10.377
16440W        W84669   7.272   0.470   2.237
16441W        W84670   8.292  12.483   3.307
16442W        W84671  20.089  10.817  13.125
16443W        W84672  17.873  26.471   2.243
16444W        W84673  28.958  41.073   0.045
16445W        W84674  31.484  21.469   3.756
16446W        W84675  24.281  29.455  14.865
16447W        W84676  33.100   5.337  13.532
16448W        W84677  38.756  44.452  10.362
16449W        W84678  13.725  28.914   1.890
16450W        W84679   6.385  33.585   4.029
16451W        W84680  25.595   9.877  10.943
16452W        W84681   2.031  38.452  14.005
16453W        W84682  41.518  12.045  10.510
16454W        W84683  30.582   9.545   4.100
16455W        W84684  40.838  14.707   4.738
16456W        W84685  38.389  38.221   2.672
16457W        W84686   8.719  42.577  10.369
16458W        W84687  21.803   7.203  11.072
16459W        W84688  29.226  12.197  14.250
16460W        W84689  24.126  23.128  12.525
16461W        W84690  42.335  23.698   3.519
16462W        W84691  40.080  36.634  12.912
16463W        W84692  30.515  39.910   3.584
16464W        W84693   2.821  41.361   4.054
16465W        W84694   9.458  42.272  14.110
16466W        W84695   1.234  31.388  14.212
16467W        W84696   9.365  38.535  14.537
16468W        W84697  10.073  42.329  11.616
16469W        W84698   3.019   6.220  12.124
16470W        W84699  43.365  17.335   2.768
16471W        W84700  11.289  10.911   2.374
16472W        W84701  38.562  33.944   2.745
16473W        W84702  30.674  35.095  12.305
16474W        W84703  26.536  19.160  13.929
16475W        W84704   4.437  10.924  13.773
16476W        W84705  21.533  30.550  10.560
16477W        W84706  28.156  26.024   3.405
16478W        W84707  14.763  41.487  14.859
16479W        W84708  27.487  43.960   2.843
16480W        W84709  37.864  11.222  11.822
16481W        W84710  12.881   3.376   0.125
16482W        W84711  25.998   8.249   3.940
16483W        W84712  19.804  39.984   2.116
16484W        W84713   2.555  31.212  11.101
16485W        W84714   4.256  44.406  11.068
16486W        W84715   8.667  42.178   1.872
16487W        W84716  39.461  39.613   2.551
16488W        W84717   9.267  35.377  11.209
16489W        W84718   1.912  10.817   0.841
16490W        W84719  20.489  11.733   1.422
16491W        W84720  42.471  14.842   3.570
16492W        W84721  32.839  44.710  14.934
16493W        W84722   4.481   9.902  12.058
16494W        W84723  38.945   0.110  13.950
16495W        W84724  15.242  27.557  12.843
16496W        W84725  29.991  29.385  10.602
16497W        W84726  15.843   3.254   4.530
16498W        W84727  20.729  21.179   0.686
16499W        W84728  20.747   1.292   4.628
16500W        W84729  42.992   0.067   4.098
16501W        W84730   2.417   3.486  14.570
16502W        W84731   4.700  29.696  14.815
16503W        W84732  30.381  22.457  14.394
16504W        W84733  27.913   7.673  12.805
16505W        W84734  27.224   1.887   3.544
16506W        W84735  21.916  21.162  10.694
16507W        W84736  33.483  20.826  13.717
16508W        W84737  18.814  24.520  11.805
16509W        W84738   5.820  20.512  13.582
16510W        W84739  26.061  36.046  10.314
16511W        W84740   0.771  36.309   1.422
16512W        W84741  44.862  26.560   0.838
16513W        W84742  44.222  11.329  14.429
16514W        W84743  20.145   1.488  13.976
16515W        W84744  22.532  10.892  13.881
16516W        W84745   0.185   5.321   1.947
16517W        W84746  36.871   5.807  14.892
16518W        W84747  27.973  23.592  12.898
16519W        W84748  15.184  39.353   3.858
16520W        W84749  18.587  16.831  10.147
16521W        W84750  29.807  31.958   1.212
16522W        W84751  39.416  24.556   1.370
16523W        W84752   8.598  39.057   2.326
16524W        W84753  40.937  15.566   2.619
16525W        W84754   2.405  37.594   4.595
16526W        W84755   7.946  42.973   3.595
16527W        W84756  43.793   1.691   3.059
16528W        W84757  11.741  28.553   3.337
16529W        W84758  23.782  38.512  10.508
16530W        W84759  22.497   4.767  14.894
16531W        W84760  12.851  43.238   2.836
16532W        W84761  44.378  36.163  14.363
16533W        W84762   8.765  16.196   4.793
16534W        W84763  27.037  35.758   4.564
16535W        W84764  11.364  18.045  11.896
16536W        W84765  23.530  26.298   0.392
16537W        W84766   2.827  14.670   3.161
16538W        W84767  29.997  36.849   1.448
16539W        W84768  25.029  28.678   0.959
16540W        W84769   5.288  21.155  10.151
16541W        W84770  28.108  30.749  12.417
16542W        W84771   8.647  35.541   4.540
16543W        W84772   9.110   2.700   2.051
16544W        W84773   9.208   3.960  14.932
16545W        W84774   7.919   7.973   2.158
16546W        W84775  27.432  42.929  12.458
16547W        W84776  14.293  24.672   1.686
16548W        W84777  25.807   7.214  12.458
16549W        W84778  28.056   8.545  12.603
16550W        W84779   8.303  28.833  12.990
16551W        W84780  17.087  27.920   1.841
16552W        W84781  33.409  11.243   0.281
16553W        W84782  10.578  17.349   0.182
16554W        W84783  43.402  30.733   4.122
16555W        W84784  28.584  14.053  14.433
16556W        W84785  15.620  34.761   1.470
16557W        W84786   6.618  11.756   2.862
16558W        W84787  15.555   5.491  12.434
16559W        W84788  17.112  23.634   0.316
16560W        W84789  25.751  41.821   4.075
16561W        W84790  36.991  31.380   4.480
16562W        W84791  12.107  19.992  12.844
16563W        W84792  21.581   6.921  10.716
16564W        W84793  44.822  26.043  14.536
16565W        W84794  31.283  40.543   0.405
16566W        W84795  17.548   7.422   0.936
16567W        W84796  35.597  43.581  12.166
16568W        W84797  33.538   4.190  13.834
16569W        W84798   2.712  44.297  11.552
16570W        W84799  22.564  19.221   0.383
16571W        W84800  17.956  20.522   4.306
16572W        W84801  11.780   1.184   1.428
16573W        W84802  36.475  44.356  13.700
16574W        W84803  24.863  29.895   4.149
16575W        W84804  40.457  29.218   1.367
16576W        W84805   2.824  30.169   0.408
16577W        W84806  16.472  14.377  13.397
16578W        W84807   3.729  15.608  10.797
16579W        W84808  24.241  44.569   1.733
16580W        W84809  33.543  37.163   2.719
16581W        W84810  27.631  34.582   9.954
16582W        W84811  40.366  11.503   1.842
16583W        W84812  39.508   7.248   3.081
16584W        W84813  33.845  36.387   4.487
16585W        W84814   7.825  35.595  10.425
16586W        W84815  24.699   3.496   0.352
16587W        W84816  32.196  26.501   1.398
16588W        W84817  26.819   1.694   0.371
16589W        W84818  37.748   4.888  11.132
16590W        W84819   4.824  21.668   0.964
16591W        W84820  40.022  10.894   3.597
16592W        W84821   1.816   4.770  14.691
16593W        W84822  16.113   0.901   2.181
16594W        W84823  36.594   4.760  12.043
16595W        W84824  21.206  22.692   2.789
16596W        W84825  27.069  14.137  11.946
16597W        W84826   6.718  35.496  13.983
16598W        W84827  37.869  35.882   4.368
16599W        W84828  12.900  40.823  14.908
16600W        W84829  37.086  24.195   2.178
16601W        W84830  18.657   3.955   3.227
16602W        W84831  29.890  32.652   4.503
16603W        W84832  19.422  19.276  11.149
16604W        W84833  33.331  34.416  11.492
16605W        W84834  42.419  40.329   3.715
16606W        W84835   3.811   6.365   2.061
16607W        W84836  30.639  17.008  12.180
16608W        W84837  27.208  35.364   9.786
16609W        W84838  11.679  33.583   4.967
16610W        W84839  16.071  14.232  12.446
16611W        W84840   7.173  36.551   2.395
16612W        W84841  41.046  24.937  14.725
16613W        W84842  35.458  14.167   2.162
16614W        W84843  14.703  11.055  13.661
16615W        W84844   8.636  33.025   3.258
16616W        W84845  19.074  14.630  11.702
16617W        W84846  21.186  27.690   4.359
16618W        W84847  29.893   8.830  13.897
16619W        W84848   0.367  38.791   0.811
16620W        W84849  19.121  40.577   0.023
16621W        W84850  22.546  31.591  14.357
16622W        W84851  11.049  20.748  12.019
16623W        W84852  13.809  27.413  13.393
16624W        W84853  14.734  42.372   4.369
16625W        W84854  13.587  39.887   3.190
16626W        W84855  19.325  21.624   4.671
16627W        W84856  23.659  24.044   0.226
16628W        W84857  37.039  34.333  12.825
16629W        W84858  14.624  39.789   1.785
16630W        W84859  23.725  31.066  10.965
16631W        W84860  35.648  34.351  11.928
16632W        W84861  19.166   9.238   2.883
16633W        W84862   4.230  34.874   2.298
16634W        W84863   3.749  15.588   1.407
16635W        W84864  16.262  19.660   9.876
16636W        W84865  44.172   6.796  12.871
16637W        W84866  25.522   6.512  11.875
16638W        W84867   6.814  33.166   4.891
16639W        W84868  41.455  31.502  13.926
16640W        W84869  23.739  35.544   4.497
16641W        W84870   0.672  15.636   3.300
16642W        W84871   1.027   8.310   1.902
16643W        W84872  37.285  36.686  11.050
16644W        W84873  17.259  43.245   1.649
16645W        W84874  33.610   1.035   1.832
16646W        W84875  28.649  34.847  13.600
16647W        W84876  38.579   4.233  11.363
16648W        W84877   0.324  12.068  11.222
16649W        W84878  15.906  33.575   0.433
16650W        W84879  38.807   6.916   0.745
16651W        W84880  19.690  44.738   0.779
16652W        W84881  16.457  32.991  12.086
16653W        W84882  28.299  26.011  10.471
16654W        W84883  16.148  24.518  12.927
16655W        W84884  33.971  33.065  12.399
16656W        W84885  44.997   7.537   0.892
16657W        W84886  32.716  18.563   1.781
16658W        W84887   2.807  35.446  14.099
16659W        W84888  23.003   7.902  11.706
16660W        W84889   8.617  12.669   4.920
16661W        W84890  18.026  18.080  14.934
16662W        W84891  25.063   0.830  14.950
16663W        W84892  17.332   6.044   4.027
16664W        W84893   2.245  34.974   4.469
16665W        W84894  10.119  41.513   0.322
16666W        W84895  19.254   5.781  13.472
16667W        W84896  33.725  38.995   2.630
16668W        W84897   7.268  40.631  12.480
16669W        W84898  16.693  27.209   0.862
16670W        W84899  21.513  23.263  12.123
16671W        W84900  37.360   1.473   2.620
16672W        W84901   9.362   1.498   3.882
16673W        W84902   1.323  31.409   1.262
16674W        W84903  40.438  41.255  14.944
16675W        W84904  11.669  28.980   4.793
16676W        W84905  30.726  34.073   3.931
16677W        W84906   4.163  22.703  13.329
16678W        W84907  27.585   7.501   4.647
16679W        W84908  41.978  12.231  12.723
16680W        W84909   9.118  10.208  11.371
16681W        W84910   4.730  32.704  13.760
16682W        W84911  15.145  21.987  13.822
16683W        W84912   1.422  33.692  11.605
16684W        W84913  11.099  28.762   1.013
16685W        W84914  40.906   5.883  11.075
16686W        W84915  22.805  40.382   0.311
16687W        W84916  30.901   4.632   2.158
16688W        W84917   9.266  10.849   1.882
16689W        W84918   5.702  41.380   2.387
16690W        W84919  15.546  27.984   0.394
16691W        W84920  12.018  34.543   3.921
16692W        W84921   4.767  31.424  10.699
16693W        W84922  15.537  43.537  11.698
16694W        W84923  10.672  40.501   1.755
16695W        W84924  23.454  18.284  10.738
16696W        W84925  44.575  42.265   0.826
16697W        W84926  15.710  26.967   5.008
16698W        W84927   1.950  13.291  11.155
16699W        W84928  23.125   2.338   4.637
16700W        W84929  31.660  17.100   1.938
16701W        W84930  12.233  27.632  14.042
16702W        W84931  10.770  41.338   1.341
16703W        W84932  17.250  21.615  10.171
16704W        W84933  38.984  32.251   2.153
16705W        W84934   0.933  35.641   1.831
16706W        W84935  15.812  29.255   2.273
16707W        W84936  33.822  26.552   3.182
16708W        W84937  35.358  14.275   4.898
16709W        W84938  35.809  17.174  12.906
16710W        W84939  27.079  24.142   4.485
16711W        W84940  20.015  39.139   3.802
16712W        W84941   4.320   5.351   3.958
16713W        W84942  20.614  10.042   1.198
16714W        W84943   1.779  32.052   0.282
16715W        W84944   7.990  23.611  11.255
16716W        W84945  13.280  22.784   3.574
16717W        W84946  16.195  30.621   2.864
16718W        W84947  41.466   2.986   3.268
16719W        W84948  36.541  33.506  12.985
16720W        W84949   9.683  31.677  13.958
16721W        W84950  28.521   7.231  12.158
16722W        W84951  38.834  11.651  13.608
16723W        W84952   5.339  39.634  12.898
16724W        W84953   1.718  13.572   0.115
16725W        W84954  23.539  38.139   3.661
16726W        W84955  29.004  43.064   0.372
16727W        W84956  17.868   1.892   1.487
16728W        W84957  14.197  28.431   3.142
16729W        W84958  38.495  19.122   4.549
16730W        W84959  25.583  42.276  14.787
16731W        W84960  13.137   2.761  11.204
16732W        W84961   2.656  25.916  14.488
16733W        W84962   7.392   3.785  14.846
16734W        W84963  13.992  43.442   4.621
16735W        W84964  38.864  43.285   4.118
16736W        W84965  36.109   2.901  11.163
16737W        W84966  28.234   0.995   3.167
16738W        W84967  15.086  16.348   2.189
16739W        W84968  44.009   6.252  13.955
16740W        W84969   0.330  39.815  12.903
16741W        W84970  19.071  20.158   5.212
16742W        W84971  21.243  29.257  14.936
16743W        W84972  35.387  24.632  10.684
16744W        W84973  36.181  27.886   1.239
16745W        W84974   7.669  34.942  13.783
16746W        W84975  24.776   9.887  12.544
16747W        W84976  24.320  11.340  13.028
16748W        W84977  40.828  17.052   0.442
16749W        W84978  17.265   5.390   2.474
16750W        W84979   3.499  42.453  11.550
16751W        W84980  22.979  27.510   2.669
16752W        W84981   3.389   0.441  13.421
16753W        W84982  22.471  39.560   4.828
16754W        W84983  25.667  18.299   2.302
16755W        W84984   6.428  41.776   2.072
16756W        W84985  13.318  24.001   4.535
16757W        W84986  42.091  23.841  11.580
16758W        W84987   7.217  44.719  12.392
16759W        W84988   3.791  33.338  12.959
16760W        W84989  20.450  38.083   0.243
16761W        W84990  36.369  21.471   3.249
16762W        W84991  40.276  37.607   1.469
16763W        W84992   2.243  41.139  11.520
16764W        W84993  39.200  16.158   0.267
16765W        W84994  21.460  11.821   1.257
16766W        W84995  38.326  33.671   3.127
16767W        W84996  44.681  43.365  11.791
16768W        W84997   9.386  24.172  14.200
16769W        W84998   4.396  24.981   3.820
16770W        W84999  44.822   8.359   4.134
16771W        W85000  44.258  29.067  13.377
16772W        W85001  36.513  15.920  14.951
16773W        W85002  18.762  13.264   0.007
16774W        W85003  39.317   2.703   0.918
16775W        W85004  36.943  43.029  11.403
16776W        W85005  35.376  12.843  12.564
16777W        W85006  29.124  35.830  13.828
16778W        W85007  14.073   0.904   1.637
16779W        W85008  38.438  26.230   3.294
16780W        W85009  35.797  18.995   0.424
16781W        W85010   8.447   6.367  11.901
16782W        W85011  26.283  20.044  12.069
16783W        W85012   1.186  19.674   2.672
16784W        W85013   1.636   7.325   2.565
16785W        W85014   1.182  25.462  10.990
16786W        W85015  25.088   5.929  11.572
16787W        W85016  34.986  19.310  11.525
16788W        W85017   8.740  10.875   4.505
16789W        W85018   0.339   0.455  14.761
16790W        W85019  13.807   5.680  11.962
16791W        W85020  31.634  28.014  12.861
16792W        W85021   6.079   7.700   1.759
16793W        W85022  16.759   8.920   4.590
16794W        W85023  36.653  10.202  12.844
16795W        W85024  39.130   8.688  10.327
16796W        W85025  44.035  34.155   3.744
16797W        W85026   0.540  32.560   2.734
16798W        W85027   9.155  33.001   4.167
16799W        W85028   2.976  29.100  14.493
16800W        W85029   0.432  37.933  12.845
16801W        W85030  29.827   5.090  14.771
16802W        W85031  17.089  42.347   1.254
16803W        W85032  38.216  22.960  10.377
16804W        W85033  41.993   9.084  11.991
16805W        W85034  44.539  18.163   0.680
16806W        W85035  28.448  13.303  11.528
16807W        W85036  20.539   0.328   1.679
16808W        W85037   3.919  44.806  11.082
16809W        W85038  28.965  27.547  10.752
16810W        W85039  13.723   9.016  13.553
16811W        W85040  42.260  10.552  13.366
16812W        W85041  18.017  22.988  10.676
16813W        W85042  11.353   9.532  11.020
16814W        W85043  39.297  10.276   2.376
16815W        W85044  20.449  36.997   1.315
16816W        W85045  11.283  19.103   2.797
16817W        W85046  25.335  37.955   5.263
16818W        W85047  28.740  36.161  13.737
16819W        W85048  18.143   0.938  13.488
16820W        W85049  27.114  23.460  11.210
16821W        W85050   7.478  26.493  10.562
16822W        W85051  23.748  18.474  13.982
16823W        W85052  42.996  27.589  14.925
16824W        W85053   0.372   9.702   1.692
16825W        W85054  13.616   3.210  13.024
16826W        W85055   1.765  26.336   2.358
16827W        W85056  27.002  39.128   4.107
16828W        W85057  40.966  32.893  10.458
16829W        W85058  13.768   8.696  11.421
16830W        W85059   7.638  36.369  12.192
16831W        W85060  41.846   7.013   2.625
16832W        W85061  14.861  13.345   3.151
16833W        W85062  14.425  12.744   1.729
16834W        W85063   8.112  28.489  12.177
16835W        W85064  32.691  26.668   0.378
16836W        W85065   9.310  36.293   2.300
16837W        W85066  32.078   4.197  11.623
16838W        W85067   0.786   3.734   4.718
16839W        W85068  43.807   3.677   1.294
16840W        W85069   2.321   0.431  14.676
16841W        W85070  38.438  42.157  13.335
16842W        W85071  27.230  31.357   4.831
16843W        W85072   8.281  11.382  11.594
16844W        W85073  16.146   6.513   1.920
16845W        W85074  33.909  26.274  12.135
16846W        W85075  23.173   8.288   1.299
16847W        W85076   6.535   9.109   1.426
16848W        W85077  40.383  20.737   3.724
16849W        W85078  22.707   3.149   3.701
16850W        W85079  44.604  24.516  12.999
16851W        W85080  27.647  17.722   2.300
16852W        W85081  16.547   4.811   0.537
16853W        W85082  38.323  41.825  12.555
16854W        W85083   2.021   7.879   2.312
16855W        W85084  16.393   1.415  11.024
16856W        W85085   9.223  39.780  12.083
16857W        W85086  30.371   2.239   2.740
16858W        W85087   1.032  29.922   2.403
16859W        W85088  28.980  13.592  13.064
16860W        W85089  26.918  13.932   4.184
16861W        W85090  19.582  15.306   0.435
16862W        W85091  24.420  43.331   3.103
16863W        W85092  11.656  34.818   1.192
16864W        W85093   6.024   0.404  14.348
16865W        W85094  42.761   5.843   3.782
16866W        W85095  15.780  36.420   1.300
16867W        W85096  25.628  22.014   4.279
16868W        W85097  19.734  38.577  14.367
16869W        W85098  42.091   5.643   2.726
16870W        W85099  31.538  43.965  10.844
16871W        W85100  19.556  20.643  11.588
16872W        W85101  43.880   1.553  11.571
16873W        W85102   1.738   3.777  11.925
16874W        W85103  27.594  12.196   3.989
16875W        W85104   4.303  10.849   3.252
16876W        W85105  10.218  31.702  14.361
16877W        W85106  30.479  28.491  11.389
16878W        W85107   6.118  37.533  11.087
16879W        W85108   0.950  35.579   3.177
16880W        W85109   0.872   2.752  12.011
16881W        W85110   8.694  14.371  13.939
16882W        W85111  34.907  17.863   3.698
16883W        W85112  13.077  17.657   4.052
16884W        W85113  18.153  22.108  11.096
16885W        W85114  18.252  31.626  14.852
16886W        W85115  37.159  20.008   1.553
16887W        W85116  12.367   5.921  11.915
16888W        W85117   6.558  16.781   3.752
16889W        W85118  16.057  15.353  13.506
16890W        W85119  44.360  32.880   1.180
16891W        W85120  18.046  43.091  13.882
16892W        W85121   6.437  15.693  13.043
16893W        W85122  41.564   2.251   1.019
16894W        W85123  27.109  41.963  11.798
16895W        W85124  31.659  35.824   1.286
16896W        W85125  17.812   3.704  12.531
16897W        W85126  37.257  28.605   0.802
16898W        W85127   1.798   7.103   0.252
16899W        W85128   1.623  36.163   1.979
16900W        W85129  32.621  29.114  10.827
16901W        W85130  13.903  41.007  13.021
16902W        W85131  22.991  29.484   4.585
16903W        W85132  31.708  30.439   1.420
16904W        W85133  30.444  19.089   1.260
16905W        W85134  18.316  24.525   3.554
16906W        W85135   6.995   4.826  12.915
16907W        W85136  11.869  38.419  12.064
16908W        W85137  40.541  44.598  14.377
16909W        W85138   8.206  41.435   5.039
16910W        W85139   3.955  16.319  11.240
16911W        W85140  17.480  16.246  11.153
16912W        W85141   3.901  13.193   2.615
16913W        W85142  14.198  41.496  13.193
16914W        W85143  19.893  14.727   4.186
16915W        W85144  22.122  41.346   1.367
16916W        W85145  40.185   2.481   1.200
16917W        W85146  11.359  41.551   0.690
16918W        W85147  14.233  16.857  14.789
16919W        W85148  14.727  17.073  13.886
16920W        W85149  18.901  17.826  12.015
16921W        W85150   0.259  39.368  11.636
16922W        W85151   4.025   0.362   2.381
16923W        W85152  19.766  24.528   2.156
16924W        W85153  24.574   8.137   1.343
16925W        W85154  14.190  15.313  13.509
16926W        W85155  11.749   2.043   1.236
16927W        W85156  33.159  40.834  12.090
16928W        W85157   5.372  30.695  12.035
16929W        W85158  28.230  31.500   1.366
16930W        W85159   7.443  26.641   1.318
16931W        W85160   7.441  25.145   4.321
16932W        W85161   6.374   5.816   4.462
16933W        W85162  28.145  21.112   1.665
16934W        W85163  40.100  22.398   3.190
16935W        W85164  11.499  15.543   2.642
16936W        W85165  12.808  43.333   1.434
16937W        W85166   1.815   6.430   4.547
16938W        W85167  39.096   5.254  12.560
16939W        W85168  34.923  35.085  13.449
16940W        W85169  35.097  18.158  13.439
16941W        W85170   5.951  12.280  12.938
16942W        W85171  35.999  35.104  11.363
16943W        W85172   6.155  26.064  13.027
16944W        W85173  43.504   4.221  12.968
16945W        W85174  34.713  22.474   0.819
16946W        W85175  12.109  29.549   4.176
16947W        W85176   9.953  28.445   2.843
16948W        W85177  40.847  31.914  14.982
16949W        W85178  31.471  34.303  13.934
16950W        W85179  34.018   7.741   0.278
16951W        W85180  14.157  16.303   1.719
16952W        W85181   4.417  10.657   2.369
16953W        W85182  14.953   5.896  11.228
16954W        W85183  14.071   3.558  11.886
16955W        W85184  17.449  18.559  14.354
16956W        W85185  31.291  39.846  11.102
16957W        W85186  40.429  42.355  11.468
16958W        W85187  21.188  25.476   3.803
16959W        W85188  26.065  26.275   4.086
16960W        W85189   8.151  10.334   0.347
16961W        W85190  42.254  22.512   1.837
16962W        W85191  31.473  16.387   1.479
16963W        W85192  38.312   2.741   4.171
16964W        W85193  18.494   5.411   4.401
16965W        W85194  32.207  15.622  12.571
16966W        W85195  18.047  39.910   2.289
16967W        W85196  35.027  12.783   4.593
16968W        W85197  19.716  37.866   5.041
16969W        W85198   7.276   2.661   1.036
16970W        W85199  23.413   8.463  14.030
16971W        W85200  43.805  12.734   3.392
16972W        W85201  22.771   8.158  11.336
16973W        W85202   8.674  37.270   2.749
16974W        W85203  22.077  34.527  14.486
16975W        W85204   8.250  35.523  12.547
16976W        W85205  26.048  10.865  14.754
16977W        W85206  26.362  32.578  12.152
16978W        W85207  44.633  43.227  14.423
16979W        W85208  23.590  29.669   3.250
16980W        W85209  33.057  36.142  13.313
16981W        W85210  10.855  42.646  13.292
16982W        W85211  20.201  16.837  14.522
16983W        W85212  13.134  31.990  11.125
16984W        W85213   6.923  28.099   1.688
16985W        W85214   8.867  44.385   0.859
16986W        W85215  19.630  34.332  14.967
16987W        W85216   0.322   7.720   3.724
16988W        W85217  26.750   5.928   3.393
16989W        W85218   5.890   2.538  14.956
16990W        W85219  44.735  38.721  12.977
16991W        W85220  35.111  15.887  10.658
16992W        W85221  40.280  37.402  10.102
16993W        W85222  14.739  15.642  14.729
16994W        W85223   9.148  24.568   2.783
16995W        W85224  40.841  27.105   2.624
16996W        W85225  15.847  17.476   0.875
16997W        W85226   3.836  40.811   4.156
16998W        W85227  12.392  31.382  14.801
16999W        W85228  42.574   4.690  13.332
17000W        W85229  28.105  29.930   1.848
17001W        W85230  18.704  33.045   1.795
17002W        W85231  20.023   5.634  12.133
17003W        W85232   1.594  24.955  11.548
17004W        W85233  10.449  18.718   4.488
17005W        W85234  25.119  35.629  10.310
17006W        W85235   0.440   6.969   2.832
17007W        W85236  11.280  19.807   3.011
17008W        W85237  40.091  19.712  10.369
17009W        W85238   0.089  40.660   0.981
17010W        W85239  16.800  32.699   1.067
17011W        W85240  41.078  11.529  12.393
17012W        W85241  39.676  12.027   2.904
17013W        W85242  17.523  11.709   4.621
17014W        W85243  40.636  13.740  13.351
17015W        W85244  22.079  25.074  11.098
17016W        W85245   7.483  27.239   3.455
17017W        W85246  27.070  43.343  14.301
17018W        W85247  36.554   7.401   2.779
17019W        W85248   7.597  16.124  14.045
17020W        W85249  27.399   8.327  13.032
17021W        W85250  21.439  26.210   4.911
17022W        W85251   0.270  10.858   2.622
17023W        W85252   7.282  35.207  12.937
17024W        W85253  36.372  22.679  14.568
17025W        W85254   1.664  42.029   1.929
17026W        W85255  30.059  19.715  11.833
17027W        W85256  43.545  41.101   3.198
17028W        W85257  37.546  13.398  13.811
17029W        W85258  11.918  35.462  14.916
17030W        W85259   7.016  38.877   2.531
17031W        W85260  11.101  33.297  11.775
17032W        W85261   2.493  37.874   5.028
17033W        W85262  22.358  28.914   0.905
17034W        W85263  20.682  11.564   4.701
17035W        W85264  37.510  42.446  13.849
17036W        W85265  43.837  11.650  10.538
17037W        W85266  17.140  15.184   1.928
17038W        W85267   1.522  28.555   2.830
17039W        W85268  10.042  20.826  12.075
17040W        W85269  28.224  26.876   0.730
17041W        W85270  32.844  20.102   0.335
17042W        W85271  28.029   7.136  12.344
17043W        W85272  34.265  24.851   0.274
17044W        W85273  14.288  30.916  12.988
17045W        W85274  43.683  35.937  13.381
17046W        W85275  11.772  20.500   2.947
17047W        W85276  42.907  26.944   2.280
17048W        W85277  24.576  35.883  13.263
17049W        W85278  31.964  18.227   2.870
17050W        W85279  36.181  30.102  11.553
17051W        W85280  11.737  21.332  12.909
17052W        W85281  31.945  44.514   0.421
17053W        W85282  29.701  26.162   3.172
17054W        W85283  25.944  41.414   4.741
17055W        W85284  35.844  18.531  10.645
17056W        W85285   2.930  37.794  11.550
17057W        W85286  44.341  30.537   1.270
17058W        W85287  43.960  12.700  11.642
17059W        W85288  24.766  29.887  10.593
17060W        W85289  21.951  42.524  13.026
17061W        W85290  32.170   0.760   2.249
17062W        W85291   4.787  12.211   3.869
17063W        W85292  13.855  25.718   5.556
17064W        W85293   4.694   5.249   1.597
17065W        W85294  10.590  44.925  11.157
17066W        W85295   9.891  43.235   3.142
17067W        W85296   0.038  11.352  10.663
17068W        W85297  43.494  23.520   0.462
17069W        W85298  25.911  18.134  12.449
17070W        W85299  21.813  29.911  11.833
17071W        W85300  17.569   4.732   2.261
17072W        W85301  25.459  25.288  13.950
17073W        W85302   7.850   7.735   3.359
17074W        W85303   2.520  32.994  14.253
17075W        W85304   2.767   7.609   4.543
17076W        W85305   0.492  25.992   1.828
17077W        W85306  13.354  20.181   3.814
17078W        W85307   2.316  43.366   1.040
17079W        W85308  44.527  39.312  14.922
17080W        W85309  13.932  15.383   0.874
17081W        W85310  26.380  17.692  14.043
17082W        W85311   8.465  38.135   3.911
17083W        W85312   5.190   9.290   3.822
17084W        W85313   0.374   8.563   4.091
17085W        W85314  41.870  44.778   4.589
17086W        W85315  21.522  31.584  10.794
17087W        W85316   4.349  40.887   4.131
17088W        W85317  37.210  33.358   4.138
17089W        W85318  27.140  14.427  14.492
17090W        W85319  22.986   4.811   2.845
17091W        W85320  43.720  21.044   2.602
17092W        W85321  27.544   3.917  14.408
17093W        W85322  32.637  35.033   0.370
17094W        W85323   8.874  26.096   2.847
17095W        W85324  21.654  21.119   0.710
17096W        W85325  27.049  42.687   2.936
17097W        W85326  26.148  14.140  14.222
17098W        W85327  27.439   5.887   2.306
17099W        W85328  35.525  31.647   1.690
17100W        W85329  18.882  42.389  14.869
17101W        W85330  27.799  22.713   3.552
17102W        W85331  42.916  32.412  13.046
17103W        W85332   8.383  17.849   1.318
17104W        W85333  18.906  10.784   0.458
17105W        W85334  39.915  30.241  12.540
17106W        W85335   0.773  33.579   5.059
17107W        W85336  37.430   8.074   2.260
17108W        W85337  24.653  12.734  14.787
17109W        W85338  33.648  38.485  14.932
17110W        W85339  17.824   2.977  13.828
17111W        W85340  33.165  43.784   0.391
17112W        W85341   8.249  28.576   1.933
17113W        W85342  21.638  17.633   3.724
17114W        W85343   2.045  25.807  14.434
17115W        W85344  40.602  28.206  10.948
17116W        W85345  12.788  37.464  14.371
17117W        W85346  21.712  21.402  14.754
17118W        W85347  34.158  37.562  10.937
17119W        W85348  29.170   1.288   0.848
17120W        W85349   6.684  18.395   0.895
17121W        W85350   2.929  11.124  13.357
17122W        W85351  25.587   7.884  11.445
17123W        W85352  19.297   0.724  13.745
17124W        W85353  38.357  28.649  12.685
17125W        W85354  29.986  23.688  12.485
17126W        W85355  39.646  26.755  13.172
17127W        W85356  14.106   2.240  12.407
17128W        W85357  31.449   7.800  14.320
17129W        W85358  13.912  23.218  10.559
17130W        W85359  32.989  24.176  12.032
17131W        W85360   4.508  43.498  12.077
17132W        W85361  35.364  23.928  12.433
17133W        W85362   2.465  14.188   4.282
17134W        W85363  10.167  15.685   0.791
17135W        W85364  41.556  21.071   1.023
17136W        W85365   8.764  23.090   4.095
17137W        W85366  24.951  27.159  13.112
17138W        W85367  13.556  19.577  13.227
17139W        W85368   0.476  17.131  12.343
17140W        W85369   4.893   0.509  12.915
17141W        W85370  29.381  20.268  13.998
17142W        W85371  33.460  31.718  13.851
17143W        W85372  24.459   2.181   2.414
17144W        W85373  42.340  15.766   3.623
17145W        W85374   6.275  32.331  13.344
17146W        W85375  23.607  35.092  12.015
17147W        W85376   4.385  35.369   4.501
17148W        W85377  37.299  22.738   1.383
17149W        W85378  19.839  32.536   4.211
17150W        W85379  35.816  23.887   1.895
17151W        W85380  44.117  39.400  12.468
17152W        W85381  36.211  13.218   0.929
17153W        W85382  33.120   8.139   1.578
17154W        W85383   6.608  43.779   0.500
17155W        W85384  25.613   8.966  12.038
17156W        W85385   7.796  25.778  11.329
17157W        W85386  32.807  33.536   4.672
17158W        W85387  27.652  12.444   4.450
17159W        W85388  27.252  15.053  10.085
17160W        W85389   0.694  25.017   2.753
17161W        W85390   6.448  36.632  14.550
17162W        W85391  11.671   9.517  13.487
17163W        W85392  21.637   5.307   4.582
17164W        W85393  30.382  24.840  11.131
17165W        W85394  23.603  29.772   0.300
17166W        W85395  29.887  37.968   0.468
17167W        W85396   0.902  30.739  11.510
17168W        W85397  29.975  20.669   0.393
17169W        W85398  25.595  11.775  11.899
17170W        W85399   9.947  33.558   1.014
17171W        W85400   3.362  42.149   1.206
17172W        W85401  28.635   3.233   1.955
17173W        W85402  30.588  37.793  11.987
17174W        W85403  37.415  18.484   1.419
17175W        W85404  34.077   9.874   1.171
17176W        W85405   5.266  25.130   4.868
17177W        W85406  28.008  38.862  14.034
17178W        W85407  11.502  30.135  13.480
17179W        W85408  14.682  24.096   4.573
17180W        W85409  29.170   9.350   1.221
17181W        W85410  44.962  19.547   3.104
17182W        W85411  44.350  19.863  14.425
17183W        W85412  40.481  11.647  11.147
17184W        W85413  36.851  17.441   1.820
17185W        W85414  25.014  31.539  12.005
17186W        W85415  20.785  15.414  11.022
17187W        W85416  15.192  19.310   2.204
17188W        W85417   2.581  38.898  13.078
17189W        W85418  11.693   7.019   5.037
17190W        W85419   4.463  10.669  11.597
17191W        W85420   6.879  34.469   4.224
17192W        W85421  27.047  39.848  13.052
17193W        W85422   5.772  43.716   2.592
17194W        W85423   6.617  21.197   0.845
17195W        W85424   4.720  41.372   2.179
17196W        W85425  38.856  40.991  14.888
17197W        W85426  27.609  34.248  11.447
17198W        W85427   1.816  20.504  13.720
17199W        W85428  32.364  26.993   4.166
17200W        W85429  15.672  37.450   4.639
17201W        W85430  20.173  31.930   1.826
17202W        W85431  30.829  11.786  14.579
17203W        W85432  10.151   8.114   2.825
17204W        W85433  40.285  42.229  14.980
17205W        W85434  28.288   3.932  14.904
17206W        W85435   4.683  20.115   2.160
17207W        W85436  41.234  12.013  13.278
17208W        W85437  28.968  32.865  11.414
17209W        W85438  30.248   2.380  10.779
17210W        W85439  20.381  29.193   4.119
17211W        W85440   9.616   6.365   0.880
17212W        W85441  33.607   2.170   4.160
17213W        W85442  41.452  28.103   0.503
17214W        W85443   2.976  29.902  12.492
17215W        W85444  41.015  41.537  13.933
17216W        W85445   9.253  43.785  13.363
17217W        W85446   9.135  31.344   1.366
17218W        W85447  26.603   9.637  11.098
17219W        W85448  37.706  26.777  14.928
17220W        W85449  18.232   5.548  13.594
17221W        W85450   1.757   6.729  13.109
17222W        W85451   5.777  35.088   4.021
17223W        W85452  23.164  35.424   1.121
17224W        W85453  20.846  26.952  12.546
17225W        W85454   2.673   7.807  12.061
17226W        W85455  43.894  16.667  14.101
17227W        W85456   8.644  28.631   2.847
17228W        W85457  31.549  12.613   2.273
17229W        W85458  22.111  42.286  14.820
17230W        W85459  38.354  24.191  11.074
17231W        W85460  11.218   3.998   2.182
17232W        W85461  16.978  38.348   3.324
17233W        W85462  28.236   2.755   3.218
17234W        W85463  22.528  34.945  14.393
17235W        W85464  34.490  34.839   4.490
17236W        W85465   6.931  18.729  14.202
17237W        W85466  18.202  32.507  12.728
17238W        W85467  36.902   6.379  12.134
17239W        W85468  35.896  10.911  13.887
17240W        W85469   0.268  10.133  10.809
17241W        W85470  11.675   5.289   1.352
17242W        W85471   6.904  26.083  14.301
17243W        W85472  12.239  18.967  14.974
17244W        W85473   9.166  10.157  14.972
17245W        W85474  10.976  38.530  13.015
17246W        W85475   4.774  34.865   1.411
17247W        W85476  39.976   5.344   4.155
17248W        W85477   5.763   1.372  11.998
17249W        W85478   0.826  25.926   2.207
17250W        W85479  42.826  35.670   2.722
17251W        W85480   8.858  38.360   4.168
17252W        W85481  26.104  26.449  11.965
17253W        W85482  32.899  10.851  12.127
17254W        W85483  20.119  42.769  12.091
17255W        W85484   3.217  34.760   1.993
17256W        W85485  18.463  12.500   3.207
17257W        W85486  14.261  14.284   0.926
17258W        W85487  30.606  34.848  14.096
17259W        W85488  25.067  10.139   4.539
17260W        W85489  29.651  14.751   1.677
17261W        W85490  28.022  36.513   2.496
17262W        W85491   0.471  12.177  10.706
17263W        W85492  42.747  16.662   0.869
17264W        W85493  40.820  22.978   2.813
17265W        W85494  14.589  38.129   4.159
17266W        W85495  24.968  40.857   0.367
17267W        W85496   0.249  10.275  11.315
17268W        W85497   9.820  34.118  13.447
17269W        W85498   7.585  41.916  13.534
17270W        W85499   7.286  32.330  13.519
17271W        W85500  23.481  33.989  10.991
17272W        W85501  31.492   3.449  10.753
17273W        W85502  35.802  21.596   1.709
17274W        W85503  32.127  18.710   5.602
17275W        W85504  33.108  13.298   2.965
17276W        W85505   5.405  26.720  11.732
17277W        W85506   7.995  33.183  13.936
17278W        W85507  35.360  31.059  11.419
17279W        W85508  16.994  37.943   1.697
17280W        W85509  26.421  32.327   4.145
17281W        W85510  34.488  27.404   0.955
17282W        W85511  38.920  41.369  13.670
17283W        W85512   4.624  35.480  12.600
17284W        W85513  28.702   2.913   4.217
17285W        W85514  30.182  21.143   0.291
17286W        W85515  18.713   1.755  10.651
17287W        W85516  34.930  13.208  12.892
17288W        W85517  37.605  31.569   4.447
17289W        W85518  26.183  28.446   3.685
17290W        W85519  42.810  37.318   0.336
17291W        W85520   3.122   6.898  12.500
17292W        W85521  14.067  16.563   4.584
17293W        W85522  42.377  25.463  13.878
17294W        W85523  20.852   6.841   3.501
17295W        W85524  38.524  20.049   2.739
17296W        W85525  18.870  10.620   4.130
17297W        W85526  24.689  37.898  13.505
17298W        W85527   4.029   6.178   4.495
17299W        W85528  34.500  33.141  13.526
17300W        W85529  29.194  14.790  13.908
17301W        W85530   7.429  36.311  10.702
17302W        W85531   9.787  34.349  12.238
17303W        W85532  17.046  38.489   0.473
17304W        W85533   5.334  41.824  12.891
17305W        W85534  32.587  22.406   1.709
17306W        W85535  39.789  15.417  10.267
17307W        W85536  27.640  33.629   4.587
17308W        W85537   4.278  11.757   1.618
17309W        W85538  18.417  33.506  11.621
17310W        W85539  16.601  11.555  14.007
17311W        W85540  43.399  11.723  10.801
17312W        W85541  12.399  14.812  10.620
17313W        W85542  31.266  39.029   1.869
17314W        W85543  28.569  35.729   3.135
17315W        W85544  44.535  28.862  11.296
17316W        W85545  30.518  42.959   0.699
17317W        W85546  26.584   5.353  13.766
17318W        W85547  33.961  12.005   4.088
17319W        W85548  42.239   3.387   2.608
17320W        W85549   1.989  20.037  11.038
17321W        W85550   4.754   5.651  11.117
17322W        W85551  43.013  42.759   9.890
17323W        W85552  10.189  16.845   4.648
17324W        W85553  34.034  41.387   4.858
17325W        W85554  19.161   0.680  10.447
17326W        W85555  10.335  13.128  13.161
17327W        W85556   5.664  20.094  13.289
17328W        W85557  30.408   6.205  12.919
17329W        W85558  38.521  18.166  12.446
17330W        W85559  21.023   8.186   2.250
17331W        W85560  42.485  13.409  11.566
17332W        W85561   0.320  21.575  14.756
17333W        W85562  14.291  35.935  13.479
17334W        W85563  37.011  37.945  13.025
17335W        W85564  16.798  22.977  12.521
17336W        W85565  35.314  20.708  13.930
17337W        W85566   8.088  27.473  12.007
17338W        W85567  33.971  30.619   1.844
17339W        W85568  31.993   8.163  10.721
17340W        W85569   2.022  10.626  14.968
17341W        W85570   0.465  22.164  13.889
17342W        W85571  40.793  17.147  11.009
17343W        W85572  11.084  30.623  13.460
17344W        W85573  31.842   6.442   0.188
17345W        W85574  20.169  36.117   0.390
17346W        W85575  15.563  25.535   2.607
17347W        W85576   6.142  20.430  14.903
17348W        W85577  43.045  37.182  12.640
17349W        W85578  20.823  33.494   4.232
17350W        W85579  15.312  39.560   1.943
17351W        W85580   9.787  32.395   1.782
17352W        W85581   6.180  37.338  13.646
17353W        W85582  14.204  13.223   3.367
17354W        W85583  35.514   3.010   0.882
17355W        W85584  29.043  26.587  12.096
17356W        W85585   9.139  44.863   0.724
17357W        W85586  12.174  41.346  11.220
17358W        W85587  31.156  27.426  11.849
17359W        W85588  16.842   6.427   1.420
17360W        W85589   7.796  29.038   2.335
17361W        W85590  12.181  33.612  14.387
17362W        W85591  22.165   0.893  14.345
17363W        W85592  15.113  32.609  14.780
17364W        W85593  29.680  19.755   2.728
17365W        W85594   4.673  32.101   3.151
17366W        W85595  24.536  31.438  10.700
17367W        W85596  15.442  25.658  14.207
17368W        W85597  25.064  27.498   0.490
17369W        W85598  11.994  30.093  12.846
17370W        W85599  38.826  38.401  11.376
17371W        W85600   4.345   3.918  11.761
17372W        W85601   5.807  16.792   0.449
17373W        W85602  44.403  39.078  12.781
17374W        W85603   7.743   6.360   3.643
17375W        W85604  40.189  22.265  11.239
17376W        W85605   2.820   8.348   2.132
17377W        W85606  31.926  22.179  14.934
17378W        W85607  24.686   8.967   1.850
17379W        W85608  29.474  17.248   2.550
17380W        W85609  36.354   6.187   2.348
17381W        W85610  38.831  35.666  10.960
17382W        W85611  21.550   2.294  11.709
17383W        W85612  34.914  36.192  11.647
17384W        W85613  17.749  17.072  14.016
17385W        W85614  18.664  21.736  12.556
17386W        W85615   6.202  25.922  13.536
17387W        W85616   7.564  27.204   2.939
17388W        W85617   5.201   5.585  13.450
17389W        W85618  34.708  23.491  13.556
17390W        W85619   3.005  13.219   2.745
17391W        W85620  26.654  28.001   2.414
17392W        W85621   2.271  15.375  13.073
17393W        W85622  18.671  19.534   1.758
17394W        W85623   7.686  30.366   0.316
17395W        W85624  27.747  13.622  12.393
17396W        W85625  43.944  25.518  13.536
17397W        W85626  14.138  40.955  10.829
17398W        W85627  13.600  19.940   1.319
17399W        W85628  11.117  40.784   1.887
17400W        W85629  21.054   8.363   1.419
17401W        W85630  15.045   9.661   2.291
17402W        W85631  13.718   1.022   4.111
17403W        W85632   7.398   8.276   3.222
17404W        W85633  31.739  44.350   5.130
17405W        W85634  13.386  30.642   0.529
17406W        W85635  41.219  34.613   4.243
17407W        W85636  10.698  22.566  13.982
17408W        W85637  28.202  19.611   2.286
17409W        W85638  28.915  12.584   0.467
17410W        W85639   7.719   1.241  10.644
17411W        W85640  43.784  42.317  10.700
17412W        W85641  32.105  12.735  10.607
17413W        W85642  41.609   8.726  13.757
17414W        W85643  23.271  28.972   1.837
17415W        W85644  15.872   1.118  13.023
17416W        W85645  13.163  22.207  10.938
17417W        W85646  34.482  30.913  10.828
17418W        W85647   8.460  31.720   0.916
17419W        W85648  19.811  14.193  11.462
17420W        W85649   0.466   3.892  10.684
17421W        W85650   7.254   9.279   0.925
17422W        W85651  41.256   6.139  13.855
17423W        W85652  34.416  12.648  12.153
17424W        W85653  23.941  14.726   1.368
17425W        W85654  43.798   1.074  14.450
17426W        W85655  18.091   6.379   3.715
17427W        W85656  29.950  12.041   0.418
17428W        W85657   9.136   3.519   3.834
17429W        W85658  19.780  36.800   0.877
17430W        W85659   7.411  14.841  14.879
17431W        W85660  32.625   4.841   0.765
17432W        W85661  17.815  30.328   4.538
17433W        W85662   9.751  33.423   1.878
17434W        W85663  23.141   7.720  14.325
17435W        W85664   7.290  20.471   3.868
17436W        W85665  30.632  39.607  12.389
17437W        W85666  16.565  33.527  10.379
17438W        W85667   3.411  21.812  14.741
17439W        W85668   8.901   7.642   1.419
17440W        W85669  14.944   8.376  14.141
17441W        W85670   8.148  33.361   1.284
17442W        W85671  27.535  13.389   1.247
17443W        W85672   3.803   7.850   2.392
17444W        W85673   4.151  20.781   4.377
17445W        W85674   5.213  42.706  12.418
17446W        W85675  35.526  19.433  14.336
17447W        W85676  27.008  17.825   3.787
17448W        W85677  20.061   6.865   1.824
17449W        W85678   8.078  36.004   4.538
17450W        W85679  11.653  38.379  12.997
17451W        W85680  18.262  17.661   3.813
17452W        W85681  41.959  25.032  14.718
17453W        W85682   7.232  29.654   1.969
17454W        W85683  38.991  28.628   0.782
17455W        W85684  42.078  35.545   0.351
17456W        W85685  21.915  17.318   1.093
17457W        W85686  32.932  42.051  10.789
17458W        W85687   8.835  29.806  14.071
17459W        W85688  14.810  42.231  12.465
17460W        W85689  30.664  41.890   3.814
17461W        W85690   9.148  19.253  11.614
17462W        W85691  36.381  36.481  14.726
17463W        W85692   7.981  17.120   3.185
17464W        W85693  18.876  34.266   0.347
17465W        W85694  10.009  37.579  11.879
17466W        W85695   5.333  22.501   4.077
17467W        W85696  42.263  37.478   4.864
17468W        W85697  43.375  33.483   4.795
17469W        W85698  30.772   2.474  14.055
17470W        W85699   9.859  14.371  14.783
17471W        W85700  29.936  44.965   1.098
17472W        W85701  30.535  22.195  10.655
17473W        W85702  11.193  31.245   2.085
17474W        W85703  11.955  14.294  12.456
17475W        W85704  25.537  18.867   0.868
17476W        W85705  39.813   3.647  14.394
17477W        W85706  33.563  39.654   0.374
17478W        W85707  27.626  18.632   4.058
17479W        W85708   7.006   6.862   4.784
17480W        W85709  33.346  13.910   3.190
17481W        W85710  13.825  35.000  13.464
17482W        W85711  36.331  10.226   4.317
17483W        W85712  32.207  23.146  13.825
17484W        W85713  23.671  43.339   2.428
17485W        W85714  42.958  40.022   3.928
17486W        W85715  44.460  14.156   4.614
17487W        W85716  11.599  16.240  14.495
17488W        W85717  35.148  39.548   1.155
17489W        W85718  39.936  41.924   4.830
17490W        W85719  22.399  39.569  11.560
17491W        W85720  36.139  29.237   2.764
17492W        W85721   2.818  30.042  14.475
17493W        W85722   2.212  22.688   4.079
17494W        W85723  38.908  40.609  14.335
17495W        W85724  28.691  30.056  11.917
17496W        W85725   4.374  13.260  11.310
17497W        W85726  27.178   9.081   1.613
17498W        W85727  43.446   4.415   4.374
17499W        W85728  11.121   0.764   3.805
17500W        W85729  40.395  19.642   3.787
17501W        W85730  25.630  13.228   0.880
17502W        W85731   1.374  41.115   4.195
17503W        W85732  29.593  17.797  12.954
17504W        W85733   5.470  30.544   4.726
17505W        W85734  32.980  18.725   4.079
17506W        W85735  30.636  23.752   9.703
17507W        W85736  37.509  39.458  11.073
17508W        W85737  33.102   0.847   1.977
17509W        W85738  38.799  12.638  14.453
17510W        W85739  17.981  10.980  12.512
17511W        W85740  24.692   6.154   0.489
17512W        W85741  10.120   8.424   1.896
17513W        W85742  13.613  29.046   3.418
17514W        W85743  29.912  33.578   0.507
17515W        W85744   8.864  17.512  11.214
17516W        W85745   5.758  27.619   1.339
17517W        W85746  44.671  29.064  12.506
17518W        W85747  10.078  31.821  12.692
17519W        W85748  29.359  44.062  10.709
17520W        W85749  24.477   2.881   0.976
17521W        W85750   0.821  38.804   3.601
17522W        W85751  30.749  13.055   5.267
17523W        W85752  41.660  11.638   2.422
17524W        W85753  41.271  17.799   0.284
17525W        W85754  44.225  41.651  13.152
17526W        W85755   1.407  22.078  13.838
17527W        W85756  11.115  44.931  11.437
17528W        W85757   8.371  17.689  11.146
17529W        W85758  14.600   6.459   2.421
17530W        W85759  10.868  25.188  13.296
17531W        W85760  16.419  43.362   4.364
17532W        W85761   5.485   7.901  13.897
17533W        W85762   6.946  10.670  10.603
17534W        W85763  22.905  14.233  11.290
17535W        W85764   7.447  20.751   4.865
17536W        W85765  29.635  24.799   1.309
17537W        W85766   9.348   5.670   4.111
17538W        W85767  21.760   0.319   2.375
17539W        W85768   3.791  32.283   0.419
17540W        W85769  39.926  37.854   1.763
17541W        W85770  43.244  11.121  12.112
17542W        W85771  19.449   2.903   1.227
17543W        W85772  26.832  34.588  11.059
17544W        W85773  32.747  35.449  12.025
17545W        W85774  27.674  19.724   2.308
17546W        W85775  42.464  32.498  12.714
17547W        W85776  33.128   4.149   1.436
17548W        W85777   9.414  31.216   2.733
17549W        W85778   3.955  22.163  11.524
17550W        W85779   9.710  24.853  14.168
17551W        W85780   3.778   5.237   2.791
17552W        W85781  18.078  39.216  12.952
17553W        W85782  43.269  35.038   1.257
17554W        W85783   2.285   0.355   2.394
17555W        W85784  37.484  24.501   3.766
17556W        W85785  11.108  39.928   1.265
17557W        W85786  14.388  12.230  12.602
17558W        W85787  21.862  22.735   0.461
17559W        W85788  15.249  13.695   3.433
17560W        W85789  24.470  34.245   0.894
17561W        W85790  43.343  25.525   4.659
17562W        W85791  12.146  39.550   4.106
17563W        W85792  44.881  11.895   1.812
17564W        W85793   4.019   2.232  11.943
17565W        W85794   2.225  13.321   4.529
17566W        W85795  35.541  30.639   1.478
17567W        W85796  21.264  30.161   2.431
17568W        W85797   4.770   4.427   3.124
17569W        W85798  29.036  35.060   3.815
17570W        W85799  43.696  21.234  11.955
17571W        W85800  34.467  44.921  12.687
17572W        W85801  39.053  13.570   4.187
17573W        W85802  36.857  17.146  10.229
17574W        W85803  43.374  26.945   3.613
17575W        W85804  28.279  21.778   3.915
17576W        W85805  20.132  44.950  13.121
17577W        W85806   7.745  17.456   4.205
17578W        W85807   6.390   7.038  12.541
17579W        W85808  21.692  42.931  10.780
17580W        W85809   3.748  21.536  12.656
17581W        W85810  26.589  42.048   4.467
17582W        W85811  37.654  25.426  11.247
17583W        W85812  31.580   9.229   0.735
17584W        W85813  23.579  40.341  14.286
17585W        W85814   0.892  24.195   1.723
17586W        W85815  30.988  29.848   0.372
17587W        W85816  27.668  16.498   0.947
17588W        W85817  42.532  22.471  13.973
17589W        W85818   5.283  22.696  14.887
17590W        W85819  21.226   3.665  11.688
17591W        W85820  32.420  25.452   1.869
17592W        W85821   5.908  19.078   1.802
17593W        W85822  28.093  43.212   3.098
17594W        W85823  36.242  43.353   0.872
17595W        W85824  23.682   6.258  13.158
17596W        W85825   6.460   1.988   2.184
17597W        W85826   3.308  39.848  10.964
17598W        W85827  42.346  14.770   0.413
17599W        W85828  15.879  14.184  14.858
17600W        W85829  10.485  36.045   3.349
17601W        W85830   8.384  28.807  12.482
17602W        W85831  31.511   2.792   1.343
17603W        W85832  14.302  13.778   3.624
17604W        W85833  36.848  18.510  13.232
17605W        W85834  30.681   0.405  13.379
17606W        W85835   5.031  23.695   4.113
17607W        W85836   6.471  31.073  11.581
17608W        W85837  24.202  18.449   3.497
17609W        W85838  22.089  38.940   0.263
17610W        W85839  26.121  19.405   4.571
17611W        W85840  26.896  20.159  13.433
17612W        W85841  31.804  17.803   4.204
17613W        W85842  16.914  14.362   1.165
17614W        W85843   9.510  24.988   1.898
17615W        W85844  25.906  10.302   3.318
17616W        W85845  36.975  29.649  10.577
17617W        W85846   4.784  25.762  10.943
17618W        W85847  14.715  12.598   4.551
17619W        W85848  28.949  18.687  10.702
17620W        W85849  44.917   4.734  14.347
17621W        W85850  35.338  17.581  14.369
17622W        W85851  11.373  31.003  10.754
17623W        W85852  32.904  31.986  11.102
17624W        W85853  14.170   2.213   2.137
17625W        W85854  39.633  41.476  13.818
17626W        W85855  22.244  12.333  11.103
17627W        W85856   4.561  24.024  13.231
17628W        W85857  36.394  19.671  13.201
17629W        W85858   4.415  19.616   4.526
17630W        W85859  18.282  31.384   4.979
17631W        W85860  32.606  26.934   3.699
17632W        W85861  30.379  32.203   3.315
17633W        W85862  27.701  15.686   4.658
17634W        W85863  33.940  21.885  14.579
17635W        W85864   2.247  18.785  11.736
17636W        W85865  43.738  17.134   1.284
17637W        W85866  10.768  10.423   0.739
17638W        W85867   4.435   5.181  14.838
17639W        W85868  25.822  35.891  12.662
17640W        W85869  17.702   8.379  14.998
17641W        W85870  37.002  24.428   0.818
17642W        W85871  36.314   3.742  12.044
17643W        W85872   7.651  23.441  14.755
17644W        W85873   6.963  39.946  14.786
17645W        W85874   6.829  23.308   5.040
17646W        W85875   7.460   5.259  13.422
17647W        W85876  16.637  33.791   3.624
17648W        W85877  30.400   4.681   1.021
17649W        W85878  36.317  41.583  11.025
17650W        W85879  44.567  14.616  12.136
17651W        W85880   5.291  15.060  14.038
17652W        W85881  11.389  44.931  13.337
17653W        W85882  15.861  10.200  13.811
17654W        W85883  43.007  37.541   3.270
17655W        W85884  24.562  44.775  12.917
17656W        W85885   1.324  16.748  11.851
17657W        W85886  29.580  30.983  12.534
17658W        W85887   4.422   2.443   1.402
17659W        W85888  22.960  19.240   2.286
17660W        W85889  31.693  37.552  12.400
17661W        W85890  33.618  14.560  12.393
17662W        W85891  26.692  13.146   3.047
17663W        W85892  24.113  18.722  10.563
17664W        W85893   6.059  21.709  11.526
17665W        W85894  32.403  28.633  14.076
17666W        W85895   0.200   0.765  14.341
17667W        W85896  40.090  39.388  12.912
17668W        W85897  39.914  22.144   4.514
17669W        W85898  22.118  27.915   3.399
17670W        W85899  25.494  13.896  14.797
17671W        W85900  30.621  31.556   0.249
17672W        W85901  38.005  43.218  14.816
17673W        W85902  38.093  10.169   4.135
17674W        W85903   1.689   6.211   2.482
17675W        W85904  18.049  41.961  10.511
17676W        W85905   9.705  24.218   3.265
17677W        W85906  13.807  43.245   3.634
17678W        W85907  37.632  20.193   1.381
17679W        W85908  24.562  11.846  14.028
17680W        W85909  15.725  18.078  13.083
17681W        W85910  44.073  34.365   1.343
17682W        W85911  44.050  14.706  12.093
17683W        W85912   8.140  18.560  13.443
17684W        W85913  24.052  33.921   0.956
17685W        W85914   1.662  39.750  12.931
17686W        W85915  19.899  29.126  10.709
17687W        W85916   2.678  24.654   2.237
17688W        W85917   7.638  15.337   4.612
17689W        W85918  23.037  40.804  13.815
17690W        W85919  13.194  41.519   4.149
17691W        W85920  41.773  42.445   2.727
17692W        W85921  42.490  24.363  12.111
17693W        W85922  14.734  26.120   0.140
17694W        W85923   7.832   0.892   3.288
17695W        W85924  12.669  38.329   2.805
17696W        W85925   1.323  39.808  12.456
17697W        W85926  43.394  23.286  11.436
17698W        W85927  25.729   7.391   0.796
17699W        W85928  43.784  40.889   1.477
17700W        W85929   2.537  38.604  14.056
17701W        W85930  39.424   8.747   0.196
17702W        W85931   4.902  34.851  11.576
17703W        W85932  33.602  33.891   4.668
17704W        W85933  25.487  39.393   9.892
17705W        W85934  16.293  29.645  12.152
17706W        W85935  35.785  21.482  11.759
17707W        W85936  32.872  37.066  11.558
17708W        W85937  16.149   5.954   2.898
17709W        W85938   5.927   7.643   3.339
17710W        W85939   5.502  24.015  12.197
17711W        W85940  44.491  20.088  12.482
17712W        W85941  15.348  17.659   0.877
17713W        W85942  20.549  17.106   3.244
17714W        W85943  11.717  26.594   3.178
17715W        W85944  29.052  44.954  10.652
17716W        W85945  17.602   7.217  13.575
17717W        W85946  18.248  19.223   2.540
17718W        W85947   0.820  11.072   2.638
17719W        W85948  28.711  36.744  11.480
17720W        W85949  27.621  23.754   3.376
17721W        W85950   4.002   4.004  12.119
17722W        W85951  43.888  28.547  12.144
17723W        W85952  24.066  14.549  14.192
17724W        W85953   9.030  19.293   3.430
17725W        W85954  38.235  44.910   0.041
17726W        W85955  18.797  19.753   1.296
17727W        W85956  24.179  16.797   1.385
17728W        W85957  16.542  24.586   1.403
17729W        W85958   4.355  18.039   1.934
17730W        W85959   9.974  18.482  14.934
17731W        W85960  21.985  13.061   3.800
17732W        W85961   5.388  42.951  11.046
17733W        W85962  30.999  32.924   4.629
17734W        W85963   0.858  42.357   2.582
17735W        W85964   4.900   8.496  13.026
17736W        W85965  10.426   0.490  13.896
17737W        W85966  41.409   0.350  13.911
17738W        W85967  30.510  43.695   1.457
17739W        W85968   2.405  44.470   0.202
17740W        W85969  41.462  21.739   3.370
17741W        W85970   2.341  25.516  12.399
17742W        W85971  24.988  31.981   4.465
17743W        W85972  44.087  23.401  12.501
17744W        W85973   1.557  17.679  13.865
17745W        W85974  28.783   2.732   4.718
17746W        W85975  39.002  11.362   1.749
17747W        W85976  24.134  41.018  14.706
17748W        W85977  26.907  14.860   4.198
17749W        W85978  38.544  14.390  12.563
17750W        W85979   4.516   3.509   3.325
17751W        W85980  41.711  41.708   2.993
17752W        W85981  13.197   9.362  14.426
17753W        W85982  12.701  22.702  12.598
17754W        W85983  22.061  27.110   1.519
17755W        W85984  21.488   8.831   0.740
17756W        W85985  15.324   0.528   4.698
17757W        W85986  26.478  32.153  14.065
17758W        W85987   2.769  14.801   2.187
17759W        W85988  43.280  10.323  13.940
17760W        W85989   6.189  21.195  14.459
17761W        W85990   3.497  29.904   3.736
17762W        W85991  12.183  17.707  11.533
17763W        W85992  34.850  43.989  10.653
17764W        W85993  41.037  19.218   0.202
17765W        W85994  15.544  15.261  11.038
17766W        W85995  26.574   1.722   4.167
17767W        W85996   5.183  33.576  10.870
17768W        W85997   5.727  12.712   2.241
17769W        W85998  37.485   4.663  13.922
17770W        W85999  26.423  18.645  13.977
17771W        W86000  37.336  14.097  11.133
17772W        W86001  23.589  24.672   3.263
17773W        W86002  19.598  35.955  14.385
17774W        W86003  12.782  15.274  13.627
17775W        W86004  44.153  33.557   5.049
17776W        W86005  10.572  18.774  11.905
17777W        W86006  19.208  42.445   1.188
17778W        W86007   2.289   9.401   0.284
17779W        W86008  37.060  17.319  14.816
17780W        W86009  23.719  43.816   4.856
17781W        W86010  31.369  30.537   1.805
17782W        W86011  39.594   8.778   5.251
17783W        W86012   3.442  34.810   3.467
17784W        W86013   3.174   4.819   1.319
17785W        W86014  21.548  37.103  12.960
17786W        W86015   3.493  16.890  10.754
17787W        W86016  34.092  22.474  10.806
17788W        W86017  24.955   3.902   4.709
17789W        W86018  14.007   5.856   2.208
17790W        W86019   7.079   4.572  11.638
17791W        W86020  12.819  43.845  12.593
17792W        W86021   2.745  36.379   2.422
17793W        W86022  17.712   7.188   3.306
17794W        W86023  13.191  35.516   0.672
17795W        W86024  20.739  16.204  14.768
17796W        W86025  27.565  24.155  11.543
17797W        W86026  21.510  17.580  12.871
17798W        W86027  26.108  43.875  14.358
17799W        W86028  22.834  35.890  10.216
17800W        W86029  21.602  11.500  12.374
17801W        W86030   2.927  25.072  10.776
17802W        W86031  36.471  43.537  14.947
17803W        W86032  40.582  16.656   3.131
17804W        W86033   5.303  15.572   3.185
17805W        W86034   1.099  14.754   0.191
17806W        W86035  17.809   8.319  12.645
17807W        W86036  29.356  37.025  11.194
17808W        W86037  37.994  25.089   0.354
17809W        W86038  35.086  22.112   1.914
17810W        W86039  37.442  14.742  12.344
17811W        W86040  29.861  22.303  13.042
17812W        W86041  41.437  32.403   2.066
17813W        W86042  26.474  40.888  12.395
17814W        W86043   6.186  26.471   0.946
17815W        W86044  14.309  15.513  14.433
17816W        W86045  18.089   1.617  12.338
17817W        W86046  33.671  25.493   3.249
17818W        W86047   6.908   3.435  10.826
17819W        W86048  16.611  41.144   4.919
17820W        W86049  11.332  19.081  13.020
17821W        W86050  19.351   2.902  12.844
17822W        W86051  39.587  26.869   1.616
17823W        W86052  36.791  31.347   2.565
17824W        W86053   0.497  44.738  13.483
17825W        W86054  41.512  29.551  11.615
17826W        W86055   1.843   0.206  10.765
17827W        W86056  31.440  30.133  13.480
17828W        W86057   0.653  14.408  13.356
17829W        W86058  37.897   7.308   3.784
17830W        W86059   6.377  12.439   0.142
17831W        W86060  38.165   4.578  10.031
17832W        W86061  35.410  39.522  11.511
17833W        W86062  22.657  13.393   1.417
17834W        W86063  35.805  16.596   0.272
17835W        W86064  43.370  14.628   1.268
17836W        W86065   8.401   8.003  12.895
17837W        W86066  39.671   6.892  13.318
17838W        W86067  41.559  28.642   0.849
17839W        W86068   6.652   7.439   0.761
17840W        W86069   8.701  32.163   1.408
17841W        W86070  27.775  24.091   1.851
17842W        W86071  33.493  44.505   2.443
17843W        W86072  30.996  14.672   4.710
17844W        W86073  23.032  11.670   9.744
17845W        W86074  40.326  31.828   2.328
17846W        W86075  27.962  10.098  12.921
17847W        W86076  44.031  28.115  11.896
17848W        W86077  34.354  36.163  13.230
17849W        W86078  31.030  43.289   2.794
17850W        W86079  37.524  12.202  14.268
17851W        W86080  13.334  29.444   1.365
17852W        W86081   8.308   4.763  13.838
17853W        W86082   8.910  31.630  13.444
17854W        W86083   5.729  20.775  14.020
17855W        W86084  35.013  28.742  13.973
17856W        W86085  27.741  40.932  13.836
17857W        W86086   4.923  21.739   0.033
17858W        W86087   5.790  38.133   2.266
17859W        W86088  17.154  33.107   3.617
17860W        W86089  14.169   6.466  13.977
17861W        W86090  19.125  10.462  13.837
17862W        W86091  38.603   7.778  14.767
17863W        W86092   8.227  24.667   3.618
17864W        W86093  27.680   9.662   0.822
17865W        W86094   3.868   7.332   0.574
17866W        W86095   6.319   6.643  10.191
17867W        W86096  28.065  29.401   0.782
17868W        W86097  35.165  37.355   0.893
17869W        W86098  24.936  16.084   3.703
17870W        W86099  27.717  36.682  14.334
17871W        W86100  21.536   1.922   3.603
17872W        W86101  34.552  35.732  12.912
17873W        W86102  24.513  10.318   3.569
17874W        W86103  36.412  13.316  13.979
17875W        W86104   3.676  35.337  12.307
17876W        W86105  40.499  44.550   2.732
17877W        W86106  19.749  40.749   0.815
17878W        W86107   7.311  24.249  13.166
17879W        W86108  32.921  39.228   1.233
17880W        W86109  24.599   8.473  14.863
17881W        W86110   8.257  10.860   3.224
17882W        W86111  30.125   3.921   4.114
17883W        W86112  14.570  27.963   0.850
17884W        W86113  16.144  31.962   1.904
17885W        W86114  27.265  37.438  11.110
17886W        W86115  34.606  15.548   2.353
17887W        W86116  14.219  41.879   3.573
17888W        W86117  44.000   1.279   4.660
17889W        W86118   0.287   6.164  12.547
17890W        W86119   6.897  24.529   0.333
17891W        W86120   6.802  17.483   4.661
17892W        W86121  26.795  31.071   4.963
17893W        W86122  35.901  39.785   2.875
17894W        W86123  15.363   9.230   2.332
17895W        W86124  10.570  23.696   2.757
17896W        W86125  21.343   7.687   3.194
17897W        W86126  19.796  20.269  12.370
17898W        W86127  18.075  16.383   2.199
17899W        W86128  42.782  39.844  13.421
17900W        W86129  14.299   5.301  14.872
17901W        W86130  22.915   4.699   3.344
17902W        W86131  36.627  28.390  13.395
17903W        W86132  30.864  23.067  14.909
17904W        W86133  22.132  23.097  12.941
17905W        W86134  13.142  29.917   0.236
17906W        W86135  26.396  19.621   4.203
17907W        W86136  44.944   0.818   4.327
17908W        W86137  14.760  35.116  11.056
17909W        W86138  36.341   2.747   4.663
17910W        W86139  22.629  33.163  13.037
17911W        W86140  32.648  11.959   1.817
17912W        W86141  39.088  21.207  14.785
17913W        W86142  22.641  23.262  13.011
17914W        W86143  25.957  12.449  11.189
17915W        W86144   5.288  43.106  11.536
17916W        W86145  18.547  28.913  13.350
17917W        W86146  25.237  27.597  13.071
17918W        W86147   6.715   9.708   2.759
17919W        W86148  18.211  15.560   2.376
17920W        W86149  24.662  18.227   3.582
17921W        W86150  11.812  10.615  14.333
17922W        W86151  29.368  36.021  10.035
17923W        W86152  37.446  36.915  12.350
17924W        W86153  28.543   8.140  14.367
17925W        W86154  39.070   3.836   2.954
17926W        W86155  13.157  34.891  10.722
17927W        W86156  31.655  19.667  13.480
17928W        W86157   4.143  24.198   4.889
17929W        W86158  26.287   0.708   1.347
17930W        W86159   1.177  23.638  11.924
17931W        W86160  17.198  32.986  12.444
17932W        W86161  18.749   2.921   2.282
17933W        W86162  13.096  39.291  13.902
17934W        W86163  16.094  27.140  12.947
17935W        W86164  38.473  40.892   0.791
17936W        W86165   9.742  38.451  14.878
17937W        W86166  25.465  26.226  11.698
17938W        W86167  43.745  21.812   2.349
17939W        W86168  23.901  14.500  12.852
17940W        W86169  17.242  40.416  10.700
17941W        W86170   9.705   5.522  13.985
17942W        W86171  20.540  42.338  13.845
17943W        W86172  27.641  36.608  13.492
17944W        W86173  15.386  41.245  12.816
17945W        W86174   0.103  17.907  14.965
17946W        W86175  28.669  42.146   2.237
17947W        W86176  21.783   0.363   0.423
17948W        W86177  30.169  40.819  14.488
17949W        W86178  31.704  30.339   3.219
17950W        W86179  22.721  32.358  13.355
17951W        W86180  35.530  39.745  14.035
17952W        W86181  34.806   4.662  13.067
17953W        W86182   9.421   9.806   2.156
17954W        W86183  20.655  28.934  14.569
17955W        W86184  33.678  17.058  14.800
17956W        W86185  43.513   8.263   2.791
17957W        W86186   3.829   8.753   2.848
17958W        W86187  28.316   1.431   0.613
17959W        W86188   0.417  16.848  11.495
17960W        W86189  43.773  14.293   1.228
17961W        W86190   0.729  28.344  11.128
17962W        W86191  38.894   3.743   0.529
17963W        W86192  43.291   0.715  10.168
17964W        W86193  40.028  34.596  14.815
17965W        W86194  42.928   4.260   4.776
17966W        W86195   4.824  37.354  11.453
17967W        W86196  39.620  30.675   3.519
17968W        W86197   8.297  29.633   4.669
17969W        W86198  13.218  29.932  12.079
17970W        W86199  16.160  25.019   3.910
17971W        W86200   0.259  38.826  12.924
17972W        W86201  31.146  43.186  13.478
17973W        W86202  23.198  42.821  10.769
17974W        W86203  36.329  16.278   4.539
17975W        W86204  19.816  21.510   0.942
17976W        W86205  20.874  34.069   3.641
17977W        W86206  38.005  25.099   3.303
17978W        W86207  40.607  23.664   2.891
17979W        W86208  37.133   2.232   0.438
17980W        W86209  10.360  31.640  11.091
17981W        W86210  28.142  11.047   2.235
17982W        W86211  10.595  33.395  11.703
17983W        W86212  23.634  32.646   1.779
17984W        W86213   0.258  32.534  11.129
17985W        W86214  34.577  18.130   1.790
17986W        W86215  10.411   1.054   0.780
17987W        W86216  21.664  44.900   1.224
17988W        W86217  15.713   2.855  14.009
17989W        W86218  14.680  13.882  12.548
17990W        W86219  26.247  10.801  14.292
17991W        W86220   6.447  22.731   1.627
17992W        W86221  19.233  19.759  11.096
17993W        W86222   8.604   7.482   3.710
17994W        W86223  17.216  18.637  11.994
17995W        W86224  42.275  11.748   3.086
17996W        W86225  31.177   6.840  14.405
17997W        W86226   6.322  40.925  13.600
17998W        W86227  25.441   2.921   0.316
17999W        W86228  17.223  23.201  12.669
18000W        W86229  37.417   9.360   2.753
18001W        W86230   8.675  32.677   1.427
18002W        W86231  16.724  42.723   5.025
18003W        W86232  34.889  39.697   2.863
18004W        W86233  43.350  18.573  14.239
18005W        W86234  42.281  35.893  13.550
18006W        W86235   5.844  25.535   2.448
18007W        W86236   1.720  38.076  14.945
18008W        W86237  40.054  36.716   2.497
18009W        W86238  21.161   9.077   4.211
18010W        W86239  39.143   1.112   1.670
18011W        W86240  24.475   5.746   2.218
18012W        W86241  29.964  34.345  10.752
18013W        W86242  17.521  37.046   1.790
18014W        W86243   9.608  37.619   0.271
18015W        W86244  43.395  36.034  12.954
18016W        W86245  37.248   9.325   4.407
18017W        W86246  28.150  22.102   1.816
18018W        W86247  34.486  31.393   1.122
18019W        W86248  26.992   9.863   1.912
18020W        W86249  41.160  35.292   1.682
18021W        W86250  35.411  21.779  11.963
18022W        W86251  37.122   3.624   1.387
18023W        W86252  14.874  36.952   1.345
18024W        W86253  44.416  23.728   4.776
18025W        W86254  44.543  13.546  13.426
18026W        W86255  38.045   5.610   4.991
18027W        W86256  11.417  28.037  14.019
18028W        W86257   0.928   2.292   3.047
18029W        W86258   1.731  11.920  13.519
18030W        W86259  15.758  37.799   0.293
18031W        W86260  38.098  14.840   3.293
18032W        W86261   6.042  24.757   3.529
18033W        W86262  13.821   9.810   0.843
18034W        W86263  25.524  19.672  13.596
18035W        W86264  43.959  43.363   0.259
18036W        W86265  33.289  37.947   4.895
18037W        W86266  28.399  40.331  11.132
18038W        W86267  17.060  30.376   4.176
18039W        W86268  11.598  30.205   2.421
18040W        W86269  29.583  27.105  14.886
18041W        W86270   1.955  15.221   0.324
18042W        W86271  33.084  42.521   2.203
18043W        W86272  20.149  32.403  11.474
18044W        W86273  35.178  39.216   2.830
18045W        W86274   4.163  18.062  11.940
18046W        W86275  39.293  40.006  13.910
18047W        W86276   4.776  37.083   3.215
18048W        W86277  34.619   4.328  14.755
18049W        W86278  12.529  23.068   4.602
18050W        W86279  25.185  11.138   5.441
18051W        W86280  17.555  39.503   1.804
18052W        W86281  34.917  27.441   3.137
18053W        W86282  43.215  22.176  12.021
18054W        W86283  13.180   4.186   3.476
18055W        W86284   3.621  29.986   1.325
18056W        W86285  27.483   7.302   2.462
18057W        W86286  18.850   4.152  11.206
18058W        W86287  43.494  25.478   0.265
18059W        W86288  31.085  37.138  10.945
18060W        W86289  41.299  39.379   4.612
18061W        W86290  12.277  32.719  14.440
18062W        W86291  40.004   1.771   4.656
18063W        W86292   5.863   9.817   2.772
18064W        W86293   6.549   3.531  13.536
18065W        W86294   3.777  12.154   4.135
18066W        W86295   0.087  23.308   1.748
18067W        W86296  29.624  24.767   0.164
18068W        W86297  25.305  15.602  14.517
18069W        W86298  15.554  32.606   3.605
18070W        W86299  17.115  41.267   4.795
18071W        W86300  12.707  24.657  13.767
18072W        W86301   1.730  29.408  11.874
18073W        W86302  23.691  28.622  14.886
18074W        W86303  31.214  28.168   0.044
18075W        W86304  10.816  42.885   1.292
18076W        W86305  20.521  19.185  14.073
18077W        W86306  11.644  31.924   0.170
18078W        W86307   9.715  28.280  11.126
18079W        W86308   9.989  42.333  13.445
18080W        W86309  33.908  24.229   3.732
18081W        W86310  16.832  13.736  11.115
18082W        W86311  34.592   8.973  13.579
18083W        W86312  18.113  40.601  14.058
18084W        W86313  29.105  13.878  14.470
18085W        W86314   8.654   0.043   4.511
18086W        W86315  22.075  25.298   0.022
18087W        W86316  34.090  39.246  12.127
18088W        W86317  31.857  24.716   4.938
18089W        W86318   8.380  31.695   4.161
18090W        W86319  35.974  41.315   2.889
18091W        W86320  24.935  32.986   1.395
18092W        W86321  24.532   4.465  11.042
18093W        W86322  37.832  43.450  12.468
18094W        W86323  36.837  33.334  11.750
18095W        W86324   5.960  20.194  12.477
18096W        W86325   4.342  42.215  14.436
18097W        W86326  24.442  40.284  12.951
18098W        W86327  30.071  37.945  12.066
18099W        W86328  17.607  17.199  14.498
18100W        W86329  13.771   4.282   4.097
18101W        W86330  22.721  18.738  14.800
18102W        W86331  22.469  22.010  13.517
18103W        W86332  33.032   2.190   2.671
18104W        W86333   3.419  22.226  13.548
18105W        W86334   1.328  38.855   1.319
18106W        W86335  31.080  13.775   3.660
18107W        W86336  21.016  42.800  11.021
18108W        W86337   8.269   7.662  11.620
18109W        W86338   9.891  15.064  12.983
18110W        W86339  34.488  31.701  14.719
18111W        W86340  37.480  33.768   0.276
18112W        W86341  26.940  33.373   1.347
18113W        W86342  38.893  40.890  11.422
18114W        W86343  42.500  41.484   2.870
18115W        W86344  25.708   6.200  13.576
18116W        W86345  30.055  42.984   0.462
18117W        W86346   6.657  11.851  11.993
18118W        W86347  44.072  17.226   3.959
18119W        W86348   8.644  23.616  13.999
18120W        W86349  42.449   3.198  14.928
18121W        W86350  28.704  22.645   3.239
18122W        W86351  20.734  34.126   4.158
18123W        W86352   1.764  43.010  10.973
18124W        W86353  40.332  12.422  11.472
18125W        W86354  41.977   7.409   3.036
18126W        W86355  42.043  41.393   2.687
18127W        W86356  42.761   9.822  14.557
18128W        W86357  30.944  29.209  11.419
18129W        W86358  33.076  20.433  13.025
18130W        W86359  37.521  17.944   4.823
18131W        W86360   8.994  40.749  11.115
18132W        W86361   7.145   9.061  14.743
18133W        W86362  32.697   0.914  13.215
18134W        W86363  26.598   6.798  13.751
18135W        W86364  17.397  26.439   1.020
18136W        W86365  29.044  15.202  14.207
18137W        W86366  30.841  41.504  12.055
18138W        W86367  29.823  33.855  10.641
18139W        W86368  26.559  15.381   1.329
18140W        W86369  35.313  37.474  12.939
18141W        W86370  33.613  29.060  14.861
18142W        W86371   1.260   6.500   2.390
18143W        W86372  14.380  19.171  12.546
18144W        W86373  11.329  23.206  12.040
18145W        W86374  35.506  23.543   1.129
18146W        W86375  22.658  39.099  11.603
18147W        W86376   1.500   3.444  12.609
18148W        W86377  36.585  25.703   1.667
18149W        W86378  26.046  26.639  10.374
18150W        W86379  41.807  38.642  14.450
18151W        W86380  21.141  35.596  12.463
18152W        W86381   0.854   9.901  10.978
18153W        W86382  37.588  44.241   3.160
18154W        W86383  34.947  28.223   4.426
18155W        W86384  23.480  29.082  14.896
18156W        W86385   3.739   1.758   0.195
18157W        W86386  20.268   0.988  14.004
18158W        W86387   5.178  41.595   2.348
18159W        W86388   5.429  12.104   3.076
18160W        W86389  41.494  24.500  12.379
18161W        W86390  13.613   6.678  14.611
18162W        W86391  19.680  13.930  11.064
18163W        W86392  25.745  21.546  13.912
18164W        W86393  22.974  10.463  12.507
18165W        W86394  11.260  34.308  14.505
18166W        W86395  21.571  19.986  12.019
18167W        W86396  39.854  39.955   2.419
18168W        W86397  22.970  36.796  14.447
18169W        W86398  39.468  19.864  14.026
18170W        W86399  44.792   0.895   2.479
18171W        W86400   6.014  38.978   2.193
18172W        W86401  31.664  11.729  13.560
18173W        W86402  42.308  12.892   1.983
18174W        W86403   3.358  32.561   1.837
18175W        W86404  24.938  26.147   0.217
18176W        W86405  41.236  40.831   0.935
18177W        W86406   2.725   2.922  12.999
18178W        W86407  11.345   6.152   0.441
18179W        W86408  15.227   3.356  13.766
18180W        W86409  26.608  19.686  14.500
18181W        W86410  21.992  42.319   3.167
18182W        W86411   3.906  35.043  10.226
18183W        W86412  19.133  35.633   0.865
18184W        W86413   8.858  31.783   0.485
18185W        W86414   7.148  32.992   3.051
18186W        W86415  16.985  17.380   3.636
18187W        W86416   1.051   3.954   3.291
18188W        W86417  10.164   5.242  10.783
18189W        W86418   6.173  15.028   0.735
18190W        W86419  39.984  25.075  14.491
18191W        W86420  14.133   4.186   0.477
18192W        W86421  24.547  18.788   1.875
18193W        W86422   6.601  12.630  13.373
18194W        W86423  13.324  24.150   2.658
18195W        W86424   6.775  36.385   2.939
18196W        W86425   7.677  21.291   1.361
18197W        W86426  16.338   1.766   1.958
18198W        W86427   5.345   9.449   0.079
18199W        W86428  37.444  30.349   3.805
18200W        W86429   1.633  36.894   4.801
18201W        W86430  15.590   1.376   4.722
18202W        W86431  34.889   0.654  10.782
18203W        W86432  18.731   3.683  11.382
18204W        W86433  39.447  12.331  12.131
18205W        W86434  30.926  43.810  14.908
18206W        W86435  29.363  41.736  11.482
18207W        W86436  23.785  34.295  12.176
18208W        W86437  34.354  35.565   0.170
18209W        W86438  42.506  29.361   4.313
18210W        W86439  36.061  23.479  13.759
18211W        W86440  41.376  42.453   3.333
18212W        W86441  21.143  25.412  11.925
18213W        W86442  12.856  33.450   3.694
18214W        W86443   1.940   0.007   1.689
18215W        W86444  16.818  15.898   2.603
18216W        W86445   0.391  14.997   3.377
18217W        W86446  27.602  31.583  14.260
18218W        W86447  43.511   7.741  14.956
18219W        W86448   2.018  26.688  10.436
18220W        W86449  41.516  37.736  11.947
18221W        W86450  29.435  36.504  11.966
18222W        W86451  14.327  22.657  14.790
18223W        W86452   9.632  38.553   1.797
18224W        W86453  26.475  13.175   1.667
18225W        W86454  21.342  32.032   0.879
18226W        W86455  42.650  33.396  11.921
18227W        W86456  15.067  43.347   0.322
18228W        W86457  35.417  26.351   3.870
18229W        W86458  15.562  24.624   3.818
18230W        W86459   1.030  28.941  14.433
18231W        W86460  29.580  17.737  13.510
18232W        W86461  35.061  10.490  14.063
18233W        W86462  14.142  34.629   4.600
18234W        W86463  26.061   0.494  13.121
18235W        W86464   9.160   8.925   4.480
18236W        W86465   1.812   4.299  11.680
18237W        W86466  43.289  36.044  10.435
18238W        W86467  23.684   4.707   3.344
18239W        W86468  26.976  28.612  13.475
18240W        W86469  39.393   1.300  11.197
18241W        W86470  34.598   0.208   4.400
18242W        W86471  26.941  32.162   0.815
18243W        W86472  37.598  41.742  10.565
18244W        W86473  41.966  10.113  13.547
18245W        W86474  24.722   1.499  13.775
18246W        W86475  29.392  14.368   3.637
18247W        W86476  21.474  26.302  14.043
18248W        W86477   9.360  16.059   1.301
18249W        W86478  21.197   3.926   1.277
18250W        W86479  13.135   0.466  11.979
18251W        W86480  44.504  13.247   4.576
18252W        W86481  34.949  14.555  12.879
18253W        W86482   8.255  39.930  12.060
18254W        W86483   1.863   5.836   1.433
18255W        W86484   8.198  36.408  13.430
18256W        W86485  22.152  11.767   0.888
18257W        W86486  28.147  15.166   0.725
18258W        W86487  16.746  23.987  12.460
18259W        W86488  18.321  20.980  14.828
18260W        W86489  11.183  16.526  12.770
18261W        W86490  12.866  39.374  11.565
18262W        W86491  37.362  19.579  10.884
18263W        W86492  30.163  31.712   3.194
18264W        W86493  27.875  20.823  13.653
18265W        W86494  10.285  17.987  12.056
18266W        W86495  32.575  17.221   3.246
18267W        W86496   4.611  40.176  11.149
18268W        W86497   1.927  42.023  13.949
18269W        W86498  42.725   0.716  14.468
18270W        W86499  27.714   6.280  11.884
18271W        W86500  39.444  13.304  11.180
18272W        W86501  28.279   1.925  10.696
18273W        W86502  10.263  16.948   1.581
18274W        W86503  42.346  14.859   1.437
18275W        W86504  32.567  15.886  13.490
18276W        W86505  44.023  21.207   1.734
18277W        W86506  28.805  36.423  10.006
18278W        W86507  39.855   8.988  13.469
18279W        W86508  18.363   0.242   4.140
18280W        W86509  30.445  19.727  14.427
18281W        W86510  35.992  31.162   2.756
18282W        W86511  34.868  44.442   1.174
18283W        W86512   9.846  37.183   3.271
18284W        W86513  44.671  17.503  13.562
18285W        W86514  27.241  33.516   0.918
18286W        W86515  23.566  12.619   0.736
18287W        W86516  44.063  28.475   2.780
18288W        W86517  11.737  26.471  10.229
18289W        W86518   3.562  19.246  12.149
18290W        W86519  43.448  28.048   1.572
18291W        W86520   7.135  17.330  14.787
18292W        W86521  10.722  17.586  11.611
18293W        W86522  14.967  19.933   5.557
18294W        W86523   8.888  18.602   4.623
18295W        W86524  38.848  16.764   2.796
18296W        W86525   7.855   1.883   4.226
18297W        W86526  29.354  44.527   0.492
18298W        W86527  15.195  20.687   2.638
18299W        W86528  22.373   0.400  14.256
18300W        W86529   1.221  16.698  13.984
18301W        W86530  16.040   6.836   1.344
18302W        W86531  10.683  22.416  13.119
18303W        W86532  22.280   1.480   4.641
18304W        W86533  33.424   1.650  11.164
18305W        W86534  21.598  19.560   3.761
18306W        W86535  43.891  39.507   3.726
18307W        W86536  33.841  17.958  10.102
18308W        W86537   1.021  34.576   4.456
18309W        W86538   6.767  36.646  12.073
18310W        W86539  30.711  14.651  11.670
18311W        W86540  36.997  13.320  11.217
18312W        W86541  26.060  42.598   3.705
18313W        W86542  39.693  40.673  11.752
18314W        W86543  20.060   5.214  14.341
18315W        W86544  10.058  33.364  14.595
18316W        W86545  24.603   6.875  10.906
18317W        W86546  29.858  30.349   4.992
18318W        W86547  41.389  36.870  13.407
18319W        W86548  10.843  37.123   4.674
18320W        W86549  22.127  16.905  10.981
18321W        W86550  23.557  21.589   0.285
18322W        W86551  22.321   9.794  11.487
18323W        W86552  21.248  42.427  12.451
18324W        W86553  37.377  32.573   3.767
18325W        W86554   3.788  14.310  11.115
18326W        W86555  17.823   4.471   0.871
18327W        W86556   4.708  21.499  11.295
18328W        W86557   7.768   7.387   4.649
18329W        W86558  28.421   8.102  10.700
18330W        W86559   4.414  42.345  11.467
18331W        W86560  26.995  43.906   0.900
18332W        W86561  23.129  12.476   2.220
18333W        W86562  44.250  34.779   3.314
18334W        W86563   4.938   1.214   4.478
18335W        W86564  35.797  42.316   2.009
18336W        W86565  23.665   9.597   4.343
18337W        W86566  12.668  26.253   3.637
18338W        W86567  13.908  25.981  10.431
18339W        W86568  35.096  29.334  11.107
18340W        W86569  11.449  18.569  12.655
18341W        W86570  13.158  12.135  13.949
18342W        W86571  42.657  11.058   3.776
18343W        W86572  25.350  31.436   0.902
18344W        W86573  10.921  12.279  14.503
18345W        W86574  20.449   2.836  14.394
18346W        W86575  28.366  32.388  12.126
18347W        W86576  43.448  41.554   4.499
18348W        W86577  27.585   1.411  13.816
18349W        W86578   5.725  27.975  13.454
18350W        W86579  24.027  36.861  13.836
18351W        W86580  14.096  41.060   2.001
18352W        W86581  25.667  26.970  10.373
18353W        W86582  15.867  28.988  12.959
18354W        W86583  24.048  29.497  11.596
18355W        W86584   5.053  23.205   4.292
18356W        W86585  43.035  24.105  11.553
18357W        W86586  30.525  40.054  12.629
18358W        W86587   7.479  10.531  12.752
18359W        W86588  27.983   5.089  12.977
18360W        W86589  40.800  44.467  11.881
18361W        W86590   7.160  10.360   4.378
18362W        W86591  36.968   8.660   0.276
18363W        W86592  13.074  44.527  13.074
18364W        W86593  25.741   8.740  11.598
18365W        W86594  29.697  36.561   1.123
18366W        W86595  19.544  14.703   0.351
18367W        W86596  12.294  42.272   0.726
18368W        W86597  26.141  31.481   1.305
18369W        W86598   9.122  28.852   2.832
18370W        W86599   9.556  37.547  12.778
18371W        W86600  40.812   7.220   1.827
18372W        W86601   1.185  14.819   0.688
18373W        W86602   0.304  16.865   2.789
18374W        W86603  35.337  21.158  10.685
18375W        W86604  23.224  37.887   4.863
18376W        W86605  36.793  11.972  12.886
18377W        W86606  37.799  44.373  14.130
18378W        W86607  39.197   5.181   2.861
18379W        W86608  44.701  17.276  10.410
18380W        W86609  26.524  19.369  12.559
18381W        W86610  39.302  37.830   2.873
18382W        W86611  27.675  12.219  13.266
18383W        W86612  15.401  10.923  11.736
18384W        W86613  34.902  19.612   1.487
18385W        W86614   0.401  29.726  12.578
18386W        W86615   8.811  44.991   2.178
18387W        W86616  38.831  13.856   2.829
18388W        W86617   9.663   1.857  12.710
18389W        W86618  35.886  32.589   3.189
18390W        W86619  17.851  44.601   2.761
18391W        W86620   1.434  44.344  13.486
18392W        W86621  43.751  37.065  12.953
18393W        W86622  29.573   5.216  11.069
18394W        W86623  15.582  20.707  12.985
18395W        W86624  21.152  10.823  14.794
18396W        W86625  11.843   0.309   4.155
18397W        W86626  11.084  14.577  14.501
18398W        W86627  40.161   1.447  11.588
18399W        W86628  10.218  19.057  12.165
18400W        W86629  19.924  24.327   4.947
18401W        W86630  42.205  31.429   0.488
18402W        W86631  14.603  23.305  11.253
18403W        W86632  27.942  33.607   2.780
18404W        W86633  29.365   5.314  11.993
18405W        W86634  12.766  23.201  12.531
18406W        W86635  23.954  13.543   4.535
18407W        W86636  22.164  37.475  10.444
18408W        W86637  32.055  15.284   5.737
18409W        W86638  29.017  23.005  13.812
18410W        W86639  10.826  22.663   2.425
18411W        W86640  35.903  21.261   2.173
18412W        W86641  15.767  30.873   0.464
18413W        W86642  21.927  44.025  12.472
18414W        W86643  39.513   3.680  12.894
18415W        W86644   7.153  25.133  11.641
18416W        W86645   7.604   4.447  11.690
18417W        W86646  21.811  33.404  12.077
18418W        W86647  18.102  20.139   0.466
18419W        W86648  13.809  33.928   2.773
18420W        W86649  14.326  36.823  14.766
18421W        W86650  24.251  30.947   2.824
18422W        W86651  22.615  30.575   1.961
18423W        W86652   9.771  21.529   4.879
18424W        W86653   8.947  10.693   4.921
18425W        W86654  23.064  13.704  11.049
18426W        W86655   3.958  34.988   0.808
18427W        W86656  43.683   9.237  10.502
18428W        W86657  41.275  40.842   4.111
18429W        W86658  42.688   9.203  10.698
18430W        W86659   0.281  37.595  11.167
18431W        W86660  38.643  35.682   1.212
18432W        W86661  22.521  15.929   1.307
18433W        W86662   3.009  35.540   3.709
18434W        W86663   6.303  15.250   3.061
18435W        W86664  16.638  35.399  12.947
18436W        W86665  31.228   0.911  14.917
18437W        W86666  11.225  31.473  10.580
18438W        W86667  10.257  26.136   4.522
18439W        W86668  40.434  44.920   3.357
18440W        W86669  27.425  44.807   2.324
18441W        W86670  20.342  41.379   2.908
18442W        W86671   8.302  38.648   2.494
18443W        W86672  34.968  20.517   2.918
18444W        W86673  29.708  16.245   2.697
18445W        W86674   7.416  42.547  13.834
18446W        W86675   8.755  44.532   4.585
18447W        W86676  30.417  34.665  12.189
18448W        W86677  12.595  28.065   3.915
18449W        W86678   8.274  21.090   4.671
18450W        W86679   7.476  37.171   4.354
18451W        W86680  24.931  33.439  11.584
18452W        W86681  19.033  41.833  13.507
18453W        W86682  41.015  41.954  12.020
18454W        W86683  25.390   0.108   0.320
18455W        W86684  44.654  40.409   4.182
18456W        W86685  29.390  39.018  13.519
18457W        W86686   8.791  39.555   2.373
18458W        W86687   4.754  30.104  11.538
18459W        W86688  11.357   4.343  14.023
18460W        W86689  20.050  25.276  11.061
18461W        W86690  30.020  12.845   2.427
18462W        W86691  39.749   6.657  11.750
18463W        W86692  34.821  27.723  13.673
18464W        W86693  33.596  12.068  12.034
18465W        W86694  20.040  32.126  14.864
18466W        W86695  31.614  27.445  11.550
18467W        W86696  39.530  40.831  14.706
18468W        W86697   1.555  28.959  14.413
18469W        W86698   2.859   1.931  11.255
18470W        W86699  21.314   4.850   0.323
18471W        W86700  15.554  27.154  13.112
18472W        W86701  22.604   3.338  11.132
18473W        W86702  18.557  29.955  13.470
18474W        W86703   5.376  16.463   0.422
18475W        W86704  28.102   8.717   4.589
18476W        W86705  20.081  24.620  10.646
18477W        W86706  43.381  10.382   0.733
18478W        W86707  41.753   4.774   3.219
18479W        W86708  15.177  34.032   1.340
18480W        W86709  16.747   5.091   4.115
18481W        W86710  36.935  33.267   0.069
18482W        W86711  27.198  22.625  13.044
18483W        W86712  27.069  43.529  10.377
18484W        W86713   1.422  42.628  14.285
18485W        W86714  27.913  42.648  14.261
18486W        W86715  41.730  22.049   2.650
18487W        W86716  29.422  34.527  13.939
18488W        W86717  18.049  44.666   2.215
18489W        W86718   7.487  17.562   0.360
18490W        W86719  40.013  35.547  12.581
18491W        W86720  32.513   6.638   1.822
18492W        W86721  25.196  29.730  14.253
18493W        W86722  41.447  16.986  13.112
18494W        W86723  39.088  40.089  11.165
18495W        W86724  16.016  29.647  13.054
18496W        W86725  42.555  30.958  13.175
18497W        W86726  14.784   9.676  13.310
18498W        W86727  22.753  10.173   4.117
18499W        W86728  24.492   9.790  13.002
18500W        W86729   6.863  12.187  13.888
18501W        W86730  40.869   6.275  10.744
18502W        W86731  19.262   0.959   3.404
18503W        W86732  36.051  33.189  11.683
18504W        W86733  21.942  12.189  13.865
18505W        W86734   5.066   7.813   1.871
18506W        W86735  27.178  44.910  14.817
18507W        W86736  20.090  23.044   4.812
18508W        W86737  33.539  38.281  10.596
18509W        W86738  37.340  30.556  10.882
18510W        W86739   4.875   4.864   2.821
18511W        W86740  28.739  39.194   0.873
18512W        W86741   3.784  38.555  14.771
18513W        W86742   6.986  12.693   1.132
18514W        W86743  39.888  25.337  12.000
18515W        W86744  23.970  25.245   2.291
18516W        W86745  15.514  40.995   0.401
18517W        W86746  39.819  21.637   4.737
18518W        W86747  23.253   0.811  12.331
18519W        W86748  37.820  35.662   0.864
18520W        W86749  12.157  31.883  10.242
18521W        W86750  23.729   7.802   1.978
18522W        W86751  22.531   7.907   2.552
18523W        W86752  21.018  43.441   4.932
18524W        W86753  10.635  38.965   4.170
18525W        W86754   8.455   3.340   1.326
18526W        W86755   1.701  32.408  12.514
18527W        W86756  34.495  10.247  13.258
18528W        W86757  20.200  17.776   1.957
18529W        W86758  11.086  10.178   4.133
18530W        W86759   3.986  40.534   3.663
18531W        W86760  39.859  32.498  14.536
18532W        W86761   4.343  44.556  13.301
18533W        W86762  33.112  43.602   4.139
18534W        W86763  27.963   3.940   4.472
18535W        W86764   8.944  24.038  12.006
18536W        W86765  29.614  22.541  14.333
18537W        W86766  24.891  42.925  11.472
18538W        W86767  29.663   5.336   1.947
18539W        W86768  38.825  20.955  11.061
18540W        W86769  17.022  12.455   2.067
18541W        W86770  20.891  19.785   2.429
18542W        W86771  29.425   0.493   2.837
18543W        W86772  26.644  28.865   1.267
18544W        W86773   0.353   1.553   1.869
18545W        W86774  44.792  17.775  10.577
18546W        W86775  37.926  33.896  10.464
18547W        W86776  19.470   1.434   2.621
18548W        W86777   9.133  17.687  11.633
18549W        W86778  40.061  39.756  13.449
18550W        W86779  42.098  33.586  13.276
18551W        W86780  32.552  19.522  13.042
18552W        W86781   4.710  43.269  14.817
18553W        W86782  26.142  30.966  11.379
18554W        W86783   4.656  20.711  11.143
18555W        W86784  42.857   0.868   2.775
18556W        W86785  24.348  21.159   4.687
18557W        W86786  44.849  30.636  14.615
18558W        W86787  20.013  37.699   1.401
18559W        W86788  29.452  14.805  11.995
18560W        W86789  38.150  39.503  12.550
18561W        W86790  39.289  19.557   2.410
18562W        W86791  38.959  32.678  10.802
18563W        W86792  28.643  28.081   0.753
18564W        W86793  17.834   3.228   4.488
18565W        W86794   0.973  25.464   4.232
18566W        W86795  38.872  18.597  10.750
18567W        W86796   7.931  41.728   2.162
18568W        W86797  34.385   9.856   2.767
18569W        W86798   9.747  25.498  12.817
18570W        W86799  39.813  10.820  13.451
18571W        W86800   8.109  34.654  12.982
18572W        W86801  22.238  31.737  12.092
18573W        W86802  13.331  32.439  10.385
18574W        W86803  21.234  40.441  10.993
18575W        W86804  35.945  10.338   3.386
18576W        W86805  35.947  14.747   0.327
18577W        W86806  23.577  32.657  12.900
18578W        W86807  19.226  28.454  14.592
18579W        W86808  42.104   7.403   1.139
18580W        W86809   4.982  14.130   2.250
18581W        W86810   5.889  22.280  13.961
18582W        W86811  24.405  20.969  13.856
18583W        W86812  29.158  27.413   4.248
18584W        W86813  15.243  37.497  12.153
18585W        W86814  31.881  17.539  13.320
18586W        W86815  29.000  11.435   5.026
18587W        W86816  18.107   2.241   4.140
18588W        W86817   6.370  25.639  12.166
18589W        W86818   7.741   6.364  14.787
18590W        W86819  40.548  43.032   1.756
18591W        W86820  40.657   8.832   4.273
18592W        W86821   5.824  35.171  14.531
18593W        W86822  42.407   9.675  12.456
18594W        W86823   9.968  17.929  10.816
18595W        W86824  25.515  10.872  14.839
18596W        W86825  28.073  21.931  11.480
18597W        W86826  42.836   2.324   4.384
18598W        W86827  43.508  18.794  13.393
18599W        W86828   3.805  16.234  13.414
18600W        W86829  35.176  34.485  12.657
18601W        W86830  15.857   0.240  14.350
18602W        W86831   8.438  41.949  14.332
18603W        W86832  32.622  39.045  11.984
18604W        W86833  36.973  10.848  10.705
18605W        W86834  42.741  13.167  11.191
18606W        W86835  28.196  16.581  10.749
18607W        W86836  13.165  26.442   2.393
18608W        W86837  33.442  36.310   0.907
18609W        W86838  43.058  40.882   3.281
18610W        W86839  41.405  43.817   4.033
18611W        W86840  24.064   5.702  12.053
18612W        W86841  17.344  39.595  14.336
18613W        W86842   5.881  37.805   2.634
18614W        W86843   5.389   5.217  11.644
18615W        W86844  40.548  27.727   4.070
18616W        W86845  21.349  40.070  14.845
18617W        W86846  18.840  21.395   4.680
18618W        W86847  17.673  22.267   0.905
18619W        W86848  30.657  39.356   3.257
18620W        W86849  25.062  27.973   1.270
18621W        W86850   3.699   4.830   2.348
18622W        W86851  13.386  18.053  13.380
18623W        W86852  13.842  13.310  11.191
18624W        W86853  27.257   7.198   0.860
18625W        W86854  40.499   9.342  14.916
18626W        W86855   6.155  32.023  12.053
18627W        W86856  20.277  11.703  11.720
18628W        W86857  34.821   3.405   2.071
18629W        W86858  31.738  32.126   4.595
18630W        W86859   9.413  37.980   3.698
18631W        W86860  23.787  34.327   2.760
18632W        W86861  38.299  17.705  14.487
18633W        W86862  33.893  33.644   3.320
18634W        W86863  11.766  19.520   0.725
18635W        W86864  20.278  40.532  10.837
18636W        W86865  25.809   7.693  12.644
18637W        W86866  19.926  15.629   3.358
18638W        W86867  25.239  16.436  11.598
18639W        W86868  39.244  33.398   1.384
18640W        W86869   4.178  37.988  14.268
18641W        W86870   5.647   3.286  14.654
18642W        W86871   3.691  33.361  10.234
18643W        W86872  38.307  42.494   1.395
18644W        W86873   0.416  27.717  13.963
18645W        W86874  36.622  16.582  14.238
18646W        W86875  37.529  39.868   2.615
18647W        W86876  21.155  43.237  11.467
18648W        W86877   2.321  15.104   2.232
18649W        W86878  30.071   4.605   3.605
18650W        W86879  40.399  17.175  12.040
18651W        W86880  39.871  32.742   1.397
18652W        W86881  22.283  40.825  14.302
18653W        W86882  30.676  39.443  14.872
18654W        W86883   7.221   9.309  12.156
18655W        W86884  34.145  17.913   5.503
18656W        W86885  20.752  43.847   0.813
18657W        W86886   7.781  11.353   2.889
18658W        W86887  22.904  39.597  11.600
18659W        W86888   5.722  31.609   2.297
18660W        W86889  23.016  36.380   3.711
18661W        W86890  36.603  38.076  11.492
18662W        W86891   8.166  39.494   4.579
18663W        W86892  40.776   8.373  12.745
18664W        W86893  23.736  15.190   2.334
18665W        W86894  29.083  16.088   2.738
18666W        W86895  30.102   9.126  14.917
18667W        W86896  18.105  10.645   1.235
18668W        W86897  26.740  34.088   1.159
18669W        W86898  19.902  38.808   9.928
18670W        W86899  22.732   3.587  14.373
18671W        W86900  29.602  18.323  10.269
18672W        W86901  18.218  41.945   0.192
18673W        W86902  39.092  40.447   4.178
18674W        W86903  30.627  22.450   2.292
18675W        W86904  35.117  19.198   2.276
18676W        W86905  35.508   8.106  12.163
18677W        W86906  19.770  23.270   2.941
18678W        W86907   2.732   6.308   3.247
18679W        W86908  18.503  35.853  12.020
18680W        W86909   7.884  44.521   0.876
18681W        W86910  23.384  22.500   1.771
18682W        W86911   8.303  15.087   0.814
18683W        W86912  17.567  42.679   4.862
18684W        W86913   5.649  16.655   0.907
18685W        W86914  32.646  24.683   1.202
18686W        W86915  13.216  25.969  11.771
18687W        W86916   0.259  15.845  10.151
18688W        W86917  28.902  38.584  14.923
18689W        W86918  39.419   8.342   3.846
18690W        W86919  33.035  36.653  13.424
18691W        W86920  39.773  32.947   3.780
18692W        W86921  26.607   1.309  13.495
18693W        W86922  35.889  34.669  11.041
18694W        W86923  20.210  38.633   3.787
18695W        W86924  21.415  40.382  14.348
18696W        W86925   2.917  24.996   4.297
18697W        W86926  14.922  44.406   2.705
18698W        W86927  39.789  35.906  14.391
18699W        W86928  34.916  20.465   3.850
18700W        W86929  24.276   7.363  14.569
18701W        W86930  40.089   8.384   2.210
18702W        W86931  43.826   6.777  11.500
18703W        W86932  28.664  35.574   1.798
18704W        W86933   6.666  23.218   2.421
18705W        W86934  40.029  33.136  11.836
18706W        W86935  13.708  15.769   0.527
18707W        W86936   0.892  15.154  11.714
18708W        W86937  20.292  37.723   1.832
18709W        W86938   9.642   7.194   3.374
18710W        W86939   0.813   2.679   1.410
18711W        W86940   5.415  32.427  14.942
18712W        W86941  25.719   9.086  12.757
18713W        W86942  21.054  25.925   3.572
18714W        W86943   0.126  14.532   0.042
18715W        W86944  22.654  27.669   1.351
18716W        W86945  43.404  29.032   2.726
18717W        W86946  10.247  15.676   2.282
18718W        W86947  38.492  38.263   0.490
18719W        W86948  32.057  22.689   0.047
18720W        W86949  19.803  33.600  12.021
18721W        W86950  29.908  40.737  13.432
18722W        W86951  44.005  14.868  14.474
18723W        W86952  33.566   2.956   2.152
18724W        W86953   9.729  40.322   2.193
18725W        W86954  38.353  12.672  13.130
18726W        W86955  43.300  26.816   1.787
18727W        W86956   7.787  27.469  13.367
18728W        W86957  33.413  39.600   1.864
18729W        W86958  44.312  40.313   2.829
18730W        W86959  32.029  43.806  10.672
18731W        W86960  27.229  26.531   1.931
18732W        W86961  39.306  21.641   3.335
18733W        W86962   9.033   8.139   1.736
18734W        W86963   9.395  19.780  12.553
18735W        W86964  39.997  16.307  12.952
18736W        W86965  27.603   2.907  11.995
18737W        W86966   2.439  10.402   1.717
18738W        W86967  27.483  24.984   1.189
18739W        W86968  28.311  21.286  14.986
18740W        W86969  30.773  16.522  10.514
18741W        W86970   2.434  41.317  11.986
18742W        W86971  27.489  40.855  10.572
18743W        W86972   7.011  13.129  14.472
18744W        W86973  26.042  26.758   1.351
18745W        W86974  10.153  32.604  13.104
18746W        W86975   1.526   0.244  13.781
18747W        W86976  19.714  42.793   0.890
18748W        W86977  14.573  11.429  13.354
18749W        W86978  17.331   6.268   1.374
18750W        W86979  22.480  15.458  14.776
18751W        W86980  34.166  38.444  11.602
18752W        W86981  17.565  43.447   2.418
18753W        W86982  29.352  39.434   2.576
18754W        W86983  43.431  29.999   3.492
18755W        W86984  32.158  11.766   2.980
18756W        W86985   1.168  26.540  14.036
18757W        W86986   1.659  30.668  13.975
18758W        W86987  28.937  30.682  12.932
18759W        W86988  26.006  39.989  13.959
18760W        W86989  24.777  30.216  11.609
18761W        W86990  22.335  21.741   1.873
18762W        W86991  17.227  13.941  11.963
18763W        W86992  33.105   7.976  11.167
18764W        W86993  22.203  30.990   3.048
18765W        W86994  14.494  34.927  14.782
18766W        W86995  18.754   9.492   1.295
18767W        W86996  43.734   8.812   4.658
18768W        W86997  39.599   8.563  13.270
18769W        W86998   2.129   7.838   1.306
18770W        W86999  11.150  27.114   0.416
18771W        W87000  31.014   2.299  14.489
18772W        W87001  42.887  36.571   4.317
18773W        W87002   9.226  22.884  11.765
18774W        W87003  31.913  40.595  12.548
18775W        W87004  40.353  28.139  11.850
18776W        W87005  27.458  12.305  12.803
18777W        W87006  33.889  13.376  14.389
18778W        W87007   9.045   5.242   4.207
18779W        W87008  27.562  30.925  13.483
18780W        W87009  41.567  41.931   1.500
18781W        W87010  35.293  38.094   3.702
18782W        W87011  10.188  23.120   4.977
18783W        W87012   5.555  41.516   0.431
18784W        W87013  19.345  44.790  10.718
18785W        W87014  24.948   4.943   4.455
18786W        W87015  41.303  44.713   3.769
18787W        W87016  37.259  44.322  13.213
18788W        W87017  22.715  36.150  13.306
18789W        W87018   5.700  42.985  14.077
18790W        W87019  20.280  41.248   0.445
18791W        W87020   8.537  28.015   4.527
18792W        W87021  43.417   4.383   3.364
18793W        W87022  17.239  44.492   0.961
18794W        W87023  10.582  41.264  11.092
18795W        W87024  11.884  26.555  12.631
18796W        W87025  44.150  17.640   0.136
18797W        W87026  12.974  11.736  13.031
18798W        W87027  11.462  14.695   1.266
18799W        W87028  18.710  20.836   4.553
18800W        W87029  15.305  30.583  14.721
18801W        W87030   7.289  21.269   3.574
18802W        W87031   1.912   8.948  12.060
18803W        W87032  34.201  18.617   3.426
18804W        W87033  19.722  41.485   2.428
18805W        W87034  23.103  37.750  12.410
18806W        W87035   0.293  15.502   0.330
18807W        W87036  26.770  41.871  14.325
18808W        W87037  17.532   9.391   1.690
18809W        W87038  18.195   1.328  13.178
18810W        W87039  35.654  34.861   3.733
18811W        W87040  10.811  39.627  12.917
18812W        W87041   7.712  11.616  14.081
18813W        W87042  22.581   3.757  14.849
18814W        W87043  20.370  14.593   1.205
18815W        W87044  26.029  19.173  13.937
18816W        W87045  21.024  16.078   1.817
18817W        W87046  35.813   1.024   0.436
18818W        W87047  41.682  13.440  13.921
18819W        W87048  10.214  25.320   0.392
18820W        W87049   0.142  37.538   3.714
18821W        W87050   7.769  38.666   1.979
18822W        W87051  29.067  13.818  12.064
18823W        W87052  36.709  41.889   0.371
18824W        W87053   7.058  22.564  13.620
18825W        W87054  18.167   8.406   1.690
18826W        W87055  15.148  18.484  12.400
18827W        W87056  27.061  13.410   3.325
18828W        W87057   0.828  33.544   2.310
18829W        W87058  26.713  19.240   1.938
18830W        W87059  26.438   2.727  13.366
18831W        W87060  14.646  24.019   2.250
18832W        W87061   9.818  13.625   2.772
18833W        W87062  23.718  25.160   3.146
18834W        W87063  23.109  30.014   1.207
18835W        W87064  32.486  25.153   3.628
18836W        W87065  42.542   7.921   4.127
18837W        W87066  10.230   2.544  14.853
18838W        W87067  44.121  29.666   3.199
18839W        W87068  40.908   9.743   1.707
18840W        W87069  35.610  17.248  11.013
18841W        W87070  15.847   9.918   4.584
18842W        W87071  12.566   8.818  11.094
18843W        W87072   8.594  21.174   0.818
18844W        W87073   3.380  44.536   2.226
18845W        W87074  15.893   4.959  13.947
18846W        W87075  19.318   4.447   0.734
18847W        W87076  25.098  27.955   3.251
18848W        W87077  28.293   1.933   4.383
18849W        W87078  11.825  28.012   3.283
18850W        W87079   6.175  21.957   1.479
18851W        W87080  37.232  19.045  12.104
18852W        W87081  39.476  37.782   0.960
18853W        W87082   2.839  31.612  10.920
18854W        W87083  42.575  29.791  13.768
18855W        W87084  38.283  20.242  13.608
18856W        W87085  16.886   3.199   2.691
18857W        W87086  35.348  14.134  14.529
18858W        W87087  23.055   2.441  14.382
18859W        W87088  19.566  14.576   2.300
18860W        W87089  42.792  10.277  12.561
18861W        W87090  20.217   8.739   0.360
18862W        W87091  11.875  35.145  12.860
18863W        W87092  37.049  38.119  13.965
18864W        W87093  39.598  31.607  13.516
18865W        W87094   2.422  11.971  11.045
18866W        W87095  34.574  10.191   3.211
18867W        W87096  38.037   3.364  12.468
18868W        W87097   6.801  18.372  10.719
18869W        W87098   5.891  40.427  11.645
18870W        W87099  16.963  13.422  12.653
18871W        W87100   1.076  17.300  14.447
18872W        W87101  28.689  15.812  10.730
18873W        W87102  18.318  19.085  10.745
18874W        W87103  25.933   1.805  14.433
18875W        W87104  19.005  27.021   3.161
18876W        W87105  30.060  22.114   0.741
18877W        W87106  25.014  21.184   2.659
18878W        W87107  20.045  16.803   3.737
18879W        W87108  24.291  33.417   1.830
18880W        W87109  44.868   1.288   0.859
18881W        W87110  28.572   2.142   2.782
18882W        W87111  22.521   3.870   2.540
18883W        W87112  22.190  43.986   2.732
18884W        W87113   5.944  10.998   4.150
18885W        W87114  26.485  44.545  13.800
18886W        W87115  35.542   2.290   3.213
18887W        W87116  16.852  16.055  14.964
18888W        W87117  29.985   0.032  14.392
18889W        W87118  32.138  34.780  11.134
18890W        W87119  43.504  20.186  12.348
18891W        W87120  24.040  21.927  12.995
18892W        W87121   8.843   1.979   4.535
18893W        W87122  15.056  20.133  11.525
18894W        W87123  11.247  22.751  12.389
18895W        W87124  31.677  23.077  13.882
18896W        W87125  43.464  16.259  10.762
18897W        W87126  15.644  25.782   0.040
18898W        W87127  37.350  20.818  13.056
18899W        W87128   7.863   8.516   2.793
18900W        W87129  16.114  20.653  10.730
18901W        W87130  37.172   9.698   4.031
18902W        W87131   9.297   1.998   3.778
18903W        W87132  23.744   2.814   4.313
18904W        W87133   8.872  23.060  12.081
18905W        W87134  18.719  44.651  14.219
18906W        W87135  33.513  24.969  14.512
18907W        W87136  43.206  35.616   4.170
18908W        W87137   9.157  18.215  13.088
18909W        W87138  33.700  29.364   4.051
18910W        W87139  42.509  39.796   3.666
18911W        W87140   7.395  12.304  14.026
18912W        W87141  16.291  18.693   3.624
18913W        W87142  39.021  44.230   3.101
18914W        W87143  38.533   1.414  11.528
18915W        W87144  10.943  13.485  14.330
18916W        W87145  20.816  33.555   0.791
18917W        W87146   6.615  31.949  11.186
18918W        W87147  15.283   0.088   3.575
18919W        W87148   0.481   3.510  13.866
18920W        W87149  22.457  38.452  13.372
18921W        W87150  19.662   4.142  10.468
18922W        W87151  19.770  38.348   3.682
18923W        W87152  12.172  12.677  11.159
18924W        W87153  27.869  36.907  13.100
18925W        W87154  40.389   8.259   5.412
18926W        W87155   0.419   0.776   1.300
18927W        W87156  39.361  14.977   3.265
18928W        W87157  10.847  25.524   3.126
18929W        W87158  31.545  15.681   4.925
18930W        W87159  28.555  36.334   4.575
18931W        W87160  17.187  12.162  14.097
18932W        W87161  23.560   9.165   1.393
18933W        W87162  24.631  20.114   3.541
18934W        W87163  24.617  41.148  14.573
18935W        W87164  38.494  36.375   1.840
18936W        W87165  14.159  35.162  14.453
18937W        W87166  25.023  26.081   1.452
18938W        W87167  37.312  37.609   2.434
18939W        W87168  28.248  27.464   4.649
18940W        W87169  17.524  43.680   3.746
18941W        W87170  28.413  32.363   2.985
18942W        W87171   7.924  39.535  12.018
18943W        W87172  41.603  42.835  11.989
18944W        W87173  16.286  16.760   0.265
18945W        W87174  14.771  38.228  13.417
18946W        W87175  22.954  24.572  11.122
18947W        W87176  10.243   9.611   2.732
18948W        W87177   5.375  25.176  14.718
18949W        W87178  15.683  30.572   3.038
18950W        W87179   9.348   6.785  14.246
18951W        W87180  32.017  30.646   2.822
18952W        W87181  14.294   0.459   2.221
18953W        W87182   8.776  40.299   1.475
18954W        W87183   8.601  38.977   1.359
18955W        W87184  28.515  33.479  13.831
18956W        W87185  39.050  27.393  13.414
18957W        W87186  40.819   1.830   4.239
18958W        W87187   0.281  15.146  14.840
18959W        W87188  42.802  43.957  13.233
18960W        W87189  37.894  30.719  11.722
18961W        W87190   3.869  23.302   2.478
18962W        W87191  35.907  31.195  12.961
18963W        W87192  31.203  21.677   1.915
18964W        W87193   1.745   1.631  11.895
18965W        W87194   7.702  10.665   4.073
18966W        W87195  11.338  41.285  14.337
18967W        W87196   5.319   2.176  12.166
18968W        W87197  26.857  37.908   1.406
18969W        W87198  41.326  41.161   3.707
18970W        W87199  33.537  14.051   4.826
18971W        W87200  11.011  24.161  13.398
18972W        W87201  40.873  30.386   1.019
18973W        W87202   1.864  12.800  11.869
18974W        W87203  12.655  28.485  14.289
18975W        W87204  33.548  40.686   3.921
18976W        W87205  28.172  24.661  11.025
18977W        W87206  43.790  28.242   0.209
18978W        W87207   0.898   7.615  10.688
18979W        W87208   9.782  35.371   2.215
18980W        W87209  40.743  23.738  12.413
18981W        W87210  31.494  33.332  12.432
18982W        W87211   9.103   2.390  13.726
18983W        W87212   7.235  14.428   2.426
18984W        W87213  12.512  38.027   4.706
18985W        W87214   3.726  21.063   2.296
18986W        W87215  22.683  19.902  11.589
18987W        W87216   7.251  22.729  13.122
18988W        W87217  43.745  15.651  10.470
18989W        W87218  25.193  10.491   9.786
18990W        W87219  37.788   3.858  11.457
18991W        W87220  31.567  21.627  11.385
18992W        W87221  30.218   1.000  11.628
18993W        W87222  43.929  37.533   4.414
18994W        W87223  13.092   2.222   4.284
18995W        W87224  43.285  28.454   2.342
18996W        W87225   3.641  27.014   4.565
18997W        W87226  37.863  13.036  12.052
18998W        W87227  14.627   3.707  12.096
18999W        W87228   3.417  30.904   1.847
19000W        W87229  27.710  23.994  11.995
19001W        W87230  13.831  16.016   3.755
19002W        W87231  38.896  42.787  13.790
19003W        W87232  27.458  36.831  14.779
19004W        W87233  28.556   1.778   3.209
19005W        W87234   2.536  44.607   4.115
19006W        W87235  21.101  39.341   0.338
19007W        W87236  13.668   0.056   1.722
19008W        W87237   2.872   3.414  11.819
19009W        W87238  26.693  15.374  14.477
19010W        W87239  42.754  26.091  14.376
19011W        W87240  14.366  30.938  10.716
19012W        W87241  37.779   2.556  13.375
19013W        W87242  22.111  42.371   2.653
19014W        W87243  18.124  27.194  13.792
19015W        W87244  38.013  36.360  11.630
19016W        W87245  29.565   0.335  12.602
19017W        W87246  37.946  37.338  13.369
19018W        W87247  43.452   8.852   1.653
19019W        W87248  20.055  35.054   0.294
19020W        W87249  14.921  11.832  13.397
19021W        W87250  43.411   3.345  14.780
19022W        W87251  26.768  42.977   3.313
19023W        W87252  42.852   1.890   2.238
19024W        W87253  10.783  21.019   4.754
19025W        W87254  29.375  32.078   1.839
19026W        W87255  44.484  15.625   4.983
19027W        W87256  30.975   8.412   4.992
19028W        W87257   5.526   3.314  13.649
19029W        W87258  22.656  31.445   1.430
19030W        W87259   8.307  42.519  12.007
19031W        W87260  13.732  12.277   4.196
19032W        W87261  27.941  23.081  13.887
19033W        W87262   1.834  26.532  11.697
19034W        W87263   6.248   8.071   5.073
19035W        W87264  23.665  44.454  12.573
19036W        W87265  43.838  24.727  14.992
19037W        W87266   7.725  26.413  14.878
19038W        W87267  35.911  24.171  14.649
19039W        W87268  33.345  24.420   1.723
19040W        W87269   6.891  10.238   0.937
19041W        W87270  35.163  42.470   0.649
19042W        W87271  18.719  16.356  10.348
19043W        W87272  38.473   0.413   0.580
19044W        W87273  23.474  13.584   1.002
19045W        W87274   0.156   3.715   2.177
19046W        W87275  26.016   4.453   3.588
19047W        W87276  31.313  29.957   4.195
19048W        W87277  15.242  20.760   4.988
19049W        W87278  32.059   0.523  10.817
19050W        W87279   3.260  14.620   2.183
19051W        W87280  15.676   5.019  11.663
19052W        W87281  41.146  42.799  11.093
19053W        W87282  18.456  22.464  12.337
19054W        W87283  22.967   6.113  12.849
19055W        W87284  35.102  25.705   0.724
19056W        W87285  43.890   2.995  13.432
19057W        W87286   3.705  10.421  14.028
19058W        W87287   6.789  18.217   3.750
19059W        W87288  11.802  41.243   0.757
19060W        W87289  31.488  21.774  11.886
19061W        W87290  35.960  19.699  14.323
19062W        W87291  17.460  16.545  13.806
19063W        W87292  29.907  32.081  12.995
19064W        W87293  33.391   7.399   2.214
19065W        W87294   2.891  24.532   4.557
19066W        W87295  27.019  35.088  10.993
19067W        W87296   4.788  24.233   0.354
19068W        W87297  12.271  20.698   4.860
19069W        W87298  10.925  42.926  10.555
19070W        W87299  11.886  38.825  13.159
19071W        W87300  42.575  43.265  13.004
19072W        W87301   3.132  29.694   2.897
19073W        W87302  34.598  10.711  11.650
19074W        W87303  38.370   4.059  12.033
19075W        W87304  43.349  42.467  14.094
19076W        W87305  18.617  26.434   1.446
19077W        W87306  42.547   8.407  12.222
19078W        W87307   8.633   1.172   4.311
19079W        W87308   9.227  30.021   0.306
19080W        W87309  44.350   9.220  11.586
19081W        W87310  23.954  23.381  13.339
19082W        W87311   8.580  26.235  11.985
19083W        W87312  16.699  21.298  10.518
19084W        W87313  24.758  44.865   2.564
19085W        W87314  34.498   5.820   0.936
19086W        W87315  18.337  26.218  14.933
19087W        W87316  24.903  13.103   2.507
19088W        W87317  31.051  33.043  14.913
19089W        W87318  29.399  28.029   3.270
19090W        W87319  13.745   7.951   4.053
19091W        W87320  26.730   1.260   1.884
19092W        W87321  14.088  33.557   2.260
19093W        W87322  15.335  31.000   2.294
19094W        W87323  13.700  13.529   1.937
19095W        W87324  19.921  27.999  14.029
19096W        W87325  34.497  18.279  12.389
19097W        W87326  40.371  20.166  10.953
19098W        W87327  38.850   4.071  10.185
19099W        W87328   1.267  43.748   1.869
19100W        W87329  40.378  43.869  13.536
19101W        W87330  32.143  33.546   2.972
19102W        W87331  41.916  37.803  10.619
19103W        W87332  12.916  17.338   0.364
19104W        W87333  14.105  33.571   1.422
19105W        W87334  20.202  19.213  11.270
19106W        W87335  37.970  14.699   4.211
19107W        W87336  33.628  24.510   1.304
19108W        W87337  32.031   1.472  13.778
19109W        W87338  43.277  10.834   0.976
19110W        W87339   8.867  44.399  14.080
19111W        W87340  22.968  22.701   0.807
19112W        W87341  18.760  15.756  14.013
19113W        W87342  33.039  32.923  10.695
19114W        W87343   9.376  27.890  14.063
19115W        W87344   4.449  29.533   1.227
19116W        W87345   1.761  29.530   2.154
19117W        W87346  19.277  39.328  10.691
19118W        W87347  36.301  28.154  13.068
19119W        W87348  33.057  17.344   3.491
19120W        W87349  44.913   2.276  12.881
19121W        W87350  42.464  37.845  11.172
19122W        W87351   5.730  14.093   0.002
19123W        W87352  29.591   9.291  12.486
19124W        W87353  35.465  20.520  14.751
19125W        W87354  28.472  17.807  14.693
19126W        W87355  32.820  43.810  14.969
19127W        W87356  16.282  26.024  10.256
19128W        W87357  25.615  42.782   1.932
19129W        W87358  25.545  18.629  10.918
19130W        W87359  33.423  21.637   4.178
19131W        W87360   4.443  35.467   1.793
19132W        W87361   4.728   5.370  13.378
19133W        W87362  15.388   4.355   2.949
19134W        W87363  42.924  35.414  13.473
19135W        W87364  27.757   9.756  11.197
19136W        W87365  43.769  42.026  12.871
19137W        W87366  14.363   8.735   2.683
19138W        W87367   1.300  26.280  13.622
19139W        W87368  23.595  35.829   1.248
19140W        W87369   1.382   5.457   3.121
19141W        W87370  25.065  17.991   3.804
19142W        W87371  16.151  31.195   0.268
19143W        W87372  33.590  39.490  12.833
19144W        W87373   9.620   9.122  13.495
19145W        W87374  26.988  29.617  12.908
19146W        W87375  39.629  42.406   3.155
19147W        W87376  36.491  17.781   4.026
19148W        W87377  36.401   1.533   3.624
19149W        W87378   3.710  29.658   0.430
19150W        W87379  43.822  29.666   3.643
19151W        W87380  36.110  16.753  10.482
19152W        W87381  35.119   4.837   0.314
19153W        W87382  36.441  32.849  14.323
19154W        W87383  34.297  24.112   2.529
19155W        W87384  15.312  28.531  12.408
19156W        W87385  17.253  28.408   2.723
19157W        W87386  36.260  12.254   5.138
19158W        W87387  11.917  25.759   1.408
19159W        W87388   0.276  16.704   3.819
19160W        W87389   7.366  35.672  14.745
19161W        W87390  34.823  27.119  11.447
19162W        W87391  24.143  11.203   4.062
19163W        W87392  24.470  43.358   1.301
19164W        W87393  12.597  12.932   5.449
19165W        W87394  32.600   3.839   0.766
19166W        W87395  39.906  24.539   4.099
19167W        W87396  17.830   2.921  12.044
19168W        W87397  16.254  34.067   4.242
19169W        W87398  34.293  38.535   4.180
19170W        W87399   9.337  14.765  11.964
19171W        W87400   9.853  17.240  14.431
19172W        W87401  33.293  21.108  14.810
19173W        W87402  32.212  38.910   3.522
19174W        W87403  24.582  36.636  11.176
19175W        W87404  19.104  42.245  14.411
19176W        W87405  28.877   0.212  13.842
19177W        W87406  11.453  33.085   4.530
19178W        W87407  30.825  34.487   2.284
19179W        W87408  36.683   5.794  14.417
19180W        W87409   7.915  41.212   2.115
19181W        W87410  27.014   0.380  12.327
19182W        W87411  18.053  29.537   3.132
19183W        W87412  28.187  15.619  10.698
19184W        W87413  41.798  11.329   0.793
19185W        W87414  41.297  19.678  14.957
19186W        W87415  20.097  35.363   0.732
19187W        W87416  44.563  19.200   3.728
19188W        W87417  37.966  27.984   3.263
19189W        W87418  35.048   1.783  13.418
19190W        W87419   3.326   3.375  11.591
19191W        W87420  18.050  11.543   4.602
19192W        W87421  24.606  20.729  14.872
19193W        W87422  34.107  25.448   1.829
19194W        W87423  18.615   9.389  14.908
19195W        W87424  27.996  14.180   1.044
19196W        W87425  26.986  10.653  13.341
19197W        W87426   1.722  40.227   2.691
19198W        W87427   8.312   7.182   0.751
19199W        W87428  21.745   9.245   2.719
19200W        W87429  39.554  24.517  13.506
19201W        W87430  10.739  21.276  13.436
19202W        W87431  15.706  34.310  14.893
19203W        W87432  16.527  14.669   1.614
19204W        W87433   8.375  36.572  11.083
19205W        W87434   7.929  22.749   0.090
19206W        W87435   9.140  19.672  12.995
19207W        W87436  36.784  33.923  14.261
19208W        W87437  36.030  44.938   2.719
19209W        W87438  20.136   3.086   1.844
19210W        W87439   7.138   8.803  12.874
19211W        W87440  15.233  36.614   3.412
19212W        W87441  31.592   4.319   1.048
19213W        W87442  20.118  24.530   0.285
19214W        W87443  13.762  31.376  14.851
19215W        W87444   1.280  40.954  11.740
19216W        W87445   1.722  22.992   3.226
19217W        W87446   0.422  26.344  11.931
19218W        W87447  37.832  21.664  14.864
19219W        W87448  34.945  37.463   4.709
19220W        W87449   6.859  20.712   3.712
19221W        W87450   9.731  21.075   4.613
19222W        W87451   4.259  23.960   0.950
19223W        W87452  32.286  40.066   3.297
19224W        W87453  22.340   0.364  12.109
19225W        W87454  13.642  41.799  12.435
19226W        W87455  13.059   6.262   3.714
19227W        W87456  11.317   9.361  14.709
19228W        W87457   3.792  13.145  13.562
19229W        W87458  16.849  36.045  12.525
19230W        W87459   0.025  12.769  13.517
19231W        W87460  35.313  37.537   3.850
19232W        W87461  31.543  23.306  12.143
19233W        W87462   4.676  30.019  12.060
19234W        W87463  38.211  33.760  12.453
19235W        W87464  20.544  42.707   4.774
19236W        W87465   6.355  40.644  11.582
19237W        W87466  36.393  22.978   4.707
19238W        W87467  22.697  36.096   2.192
19239W        W87468  29.510   3.317  10.661
19240W        W87469  13.836  42.411  14.215
19241W        W87470   5.451   9.369  11.191
19242W        W87471  42.105   6.188  10.690
19243W        W87472  31.163  25.928   3.407
19244W        W87473  35.695  16.559   9.799
19245W        W87474   1.801   1.759   2.515
19246W        W87475  15.601  11.793  11.066
19247W        W87476  26.016  36.687   0.354
19248W        W87477  26.993   1.029  12.798
19249W        W87478   6.241  37.383   4.748
19250W        W87479  43.586   6.396   2.736
19251W        W87480   0.324  35.809   1.791
19252W        W87481  25.969  21.630   4.201
19253W        W87482  44.691   3.832  12.004
19254W        W87483  43.517  20.643  13.405
19255W        W87484  14.792  30.057   3.818
19256W        W87485  32.130   6.892  12.440
19257W        W87486  28.496   6.026   2.847
19258W        W87487   0.271  41.695  12.452
19259W        W87488   3.034  35.089   2.356
19260W        W87489  15.647  38.393  11.126
19261W        W87490   8.136   3.902  12.901
19262W        W87491   6.808  32.003  11.663
19263W        W87492  14.138  33.990   4.022
19264W        W87493  40.382  26.660  14.332
19265W        W87494  44.550  21.086  12.425
19266W        W87495  22.640  38.437   2.852
19267W        W87496  18.077   0.757   3.104
19268W        W87497  37.173  28.286  13.886
19269W        W87498  14.000  30.105   1.121
19270W        W87499  15.549  12.686  10.132
19271W        W87500   6.268   5.226   2.331
19272W        W87501  41.935  31.910  10.657
19273W        W87502  10.665  34.568  13.837
19274W        W87503   6.874  39.086  12.152
19275W        W87504  25.202  36.039  14.058
19276W        W87505  16.056  12.027   2.782
19277W        W87506   6.404  20.621   4.759
19278W        W87507  42.789  42.776  14.397
19279W        W87508  25.646  42.350  13.546
19280W        W87509  43.908  22.656   1.775
19281W        W87510  25.950  17.013  14.795
19282W        W87511  44.997  41.140  12.903
19283W        W87512  29.519  33.291  14.760
19284W        W87513  11.796  34.065  14.336
19285W        W87514  24.317  29.200  14.415
19286W        W87515  30.116  42.302   2.348
19287W        W87516   3.870  13.231  12.193
19288W        W87517   1.511  20.145   1.329
19289W        W87518  18.697   3.399  10.008
19290W        W87519  10.307  18.507  13.412
19291W        W87520  43.115  23.036  14.139
19292W        W87521  11.775  25.279   3.834
19293W        W87522  10.978  32.069   3.718
19294W        W87523   5.146   3.008  13.369
19295W        W87524  28.065  20.734  10.271
19296W        W87525  18.544  19.130  11.821
19297W        W87526  35.585  28.892  12.505
19298W        W87527   9.150   2.990   3.777
19299W        W87528  12.298  19.075   1.248
19300W        W87529   3.416  11.845   0.194
19301W        W87530  39.856  20.939   1.998
19302W        W87531  33.997  20.023   4.666
19303W        W87532  21.654  43.882   1.251
19304W        W87533   5.031  28.969   1.808
19305W        W87534   4.984  29.018   3.310
19306W        W87535  12.235  14.931   2.839
19307W        W87536  44.475  31.371  12.990
19308W        W87537  28.996  43.705   4.510
19309W        W87538   1.763  11.132   3.082
19310W        W87539  40.739  39.987   0.777
19311W        W87540  44.943  10.774  14.211
19312W        W87541  33.614  43.030   3.702
19313W        W87542  15.605   9.339   1.728
19314W        W87543  14.365   8.810  13.192
19315W        W87544  32.078   4.053   5.007
19316W        W87545  34.010  43.622  13.375
19317W        W87546  14.260  38.055  13.415
19318W        W87547  35.419  36.360  11.623
19319W        W87548  24.654   3.484  11.091
19320W        W87549  11.013  24.545   1.031
19321W        W87550  10.475   9.583   3.262
19322W        W87551  16.221  11.647  12.525
19323W        W87552   2.181  34.283   0.919
19324W        W87553  33.055  34.431  14.423
19325W        W87554  19.662   8.880  12.178
19326W        W87555  38.320  18.032   2.762
19327W        W87556  41.937   4.788  11.667
19328W        W87557   5.885  40.204   3.162
19329W        W87558  12.700  34.641  13.062
19330W        W87559  30.105  20.298   3.177
19331W        W87560  44.737  19.107   3.241
19332W        W87561   7.683  27.545   1.829
19333W        W87562   1.216  40.801  14.917
19334W        W87563   3.847   5.008  13.248
19335W        W87564   9.486  39.891  14.942
19336W        W87565  18.892  38.748  12.963
19337W        W87566  14.091  39.827  11.535
19338W        W87567  38.922  40.221   2.296
19339W        W87568   8.829  13.582  10.746
19340W        W87569  13.230   3.604   1.273
19341W        W87570  34.126  38.398   3.345
19342W        W87571  32.334   1.813   3.813
19343W        W87572  41.868  34.457   0.353
19344W        W87573  19.027  12.631  13.133
19345W        W87574   1.771  40.068   0.910
19346W        W87575  38.112  42.513  11.653
19347W        W87576   9.581  26.640   0.233
19348W        W87577  28.844  24.955  14.863
19349W        W87578  43.528   3.892   3.557
19350W        W87579  42.374  10.741  11.804
19351W        W87580  39.985   7.822  11.903
19352W        W87581   2.403  15.885  10.521
19353W        W87582  27.870  15.515   0.242
19354W        W87583  16.404  15.730   2.270
19355W        W87584  31.365  38.847   4.070
19356W        W87585  34.062   3.190  11.439
19357W        W87586   4.310  35.404  14.986
19358W        W87587  40.863  33.391  10.569
19359W        W87588   2.422   0.753   0.992
19360W        W87589   4.209  43.873   4.591
19361W        W87590   1.927  31.915  11.936
19362W        W87591  43.431  28.808  13.462
19363W        W87592   7.350  12.602  12.962
19364W        W87593  18.678  44.323   1.253
19365W        W87594  33.878   6.221  12.407
19366W        W87595  28.916   1.729  11.888
19367W        W87596  39.975  25.034  10.582
19368W        W87597  29.592  43.533  14.457
19369W        W87598  44.220  33.140   2.122
19370W        W87599  39.778  39.089   3.010
19371W        W87600  39.293  10.291  11.118
19372W        W87601  25.740  29.865  13.522
19373W        W87602  31.424  11.602   4.114
19374W        W87603  25.558  18.000   3.716
19375W        W87604  15.331   0.330   1.368
19376W        W87605  30.025  31.491  14.871
19377W        W87606  19.408   1.000  12.934
19378W        W87607  17.439  15.755  11.314
19379W        W87608  34.848  16.620  10.238
19380W        W87609   0.027   6.161   2.660
19381W        W87610   8.392   1.826   3.527
19382W        W87611  25.574  24.114  14.839
19383W        W87612  36.918  20.511  13.990
19384W        W87613  33.011   8.239  12.817
19385W        W87614   6.714  35.306  11.633
19386W        W87615   6.491  19.062  11.056
19387W        W87616  16.537   4.202   1.864
19388W        W87617  35.301  18.949   4.721
19389W        W87618  40.030  24.725  12.587
19390W        W87619   4.386   3.014  14.459
19391W        W87620   5.682  22.321   1.785
19392W        W87621  18.201  13.130  14.298
19393W        W87622  22.518  12.832  13.985
19394W        W87623  16.674  30.674   0.005
19395W        W87624   7.918  26.292  11.505
19396W        W87625  44.288  22.514   3.254
19397W        W87626  28.745  25.384   2.681
19398W        W87627  31.079   8.071  13.538
19399W        W87628   4.364  44.441   2.451
19400W        W87629   5.274  40.024   2.007
19401W        W87630  24.293  10.654   0.558
19402W        W87631  11.452  34.580   0.750
19403W        W87632   6.301  13.825   4.298
19404W        W87633   5.572   6.079   0.308
19405W        W87634  14.357  25.619   2.278
19406W        W87635  27.134  22.205  10.659
19407W        W87636  42.830  22.208  13.040
19408W        W87637  16.094   4.474  13.394
19409W        W87638   2.366   0.652  10.285
19410W        W87639  39.365  41.889  14.663
19411W        W87640  35.871  17.535   1.015
19412W        W87641  10.150  11.715  13.079
19413W        W87642  43.408  24.456  13.839
19414W        W87643  38.892  41.955   3.161
19415W        W87644   1.301  39.118   2.688
19416W        W87645   5.357  39.398   3.495
19417W        W87646  38.780  33.234  12.969
19418W        W87647  14.965  39.779   2.827
19419W        W87648   6.217  24.113   4.943
19420W        W87649  31.939   3.415   1.846
19421W        W87650  18.024  38.533   1.894
19422W        W87651  25.194  27.951  13.452
19423W        W87652  32.429  17.722  12.091
19424W        W87653  33.007  11.214   4.100
19425W        W87654  10.419  44.894   0.256
19426W        W87655   6.183  16.059   1.325
19427W        W87656  43.746   2.480  12.497
19428W        W87657  44.547  15.306   0.869
19429W        W87658   5.651  11.808  12.135
19430W        W87659  20.798  44.899  12.200
19431W        W87660   2.563  18.126   3.885
19432W        W87661  36.193  32.509   9.703
19433W        W87662  23.215  44.667   0.263
19434W        W87663  13.741  18.447   2.439
19435W        W87664  38.130  38.818  11.896
19436W        W87665  31.387   9.758   4.692
19437W        W87666   5.695  28.204   2.711
19438W        W87667  26.670  10.628  12.049
19439W        W87668  11.536  41.388   2.436
19440W        W87669  43.532  24.382   2.233
19441W        W87670  38.559  29.660   1.336
19442W        W87671  32.216   1.839   3.304
19443W        W87672  10.766  44.347  13.423
19444W        W87673  12.098  16.860   4.517
19445W        W87674   5.065  17.366  10.224
19446W        W87675  41.442  43.611  12.422
19447W        W87676  28.670  31.498  11.221
19448W        W87677   9.702  39.392   4.777
19449W        W87678  10.755  34.137  12.364
19450W        W87679  34.952  25.451   4.864
19451W        W87680  42.809  32.449   1.623
19452W        W87681   6.300  10.349   2.296
19453W        W87682   0.262   5.157  12.602
19454W        W87683  13.246  32.146  14.370
19455W        W87684   6.872  26.761  13.941
19456W        W87685   1.011  18.227  14.411
19457W        W87686  38.335  42.776   3.142
19458W        W87687   6.446  12.995  13.711
19459W        W87688  39.490  21.745   1.737
19460W        W87689  18.340  26.614   4.101
19461W        W87690  44.857  25.600   1.339
19462W        W87691  31.027   6.207   4.648
19463W        W87692  35.565  12.669  10.700
19464W        W87693  22.689  29.893  12.157
19465W        W87694  12.696   1.249   1.359
19466W        W87695   8.860  31.872   1.823
19467W        W87696  29.896  31.761  12.178
19468W        W87697  35.115  14.175   3.097
19469W        W87698  13.742  41.477  12.874
19470W        W87699  26.093  33.101  13.078
19471W        W87700  13.611  36.316  11.932
19472W        W87701  28.626  16.574   0.243
19473W        W87702   5.860   4.010  12.085
19474W        W87703  27.708  35.588   0.470
19475W        W87704  13.216  37.183  11.965
19476W        W87705  19.261  28.633   2.331
19477W        W87706  32.504  20.313  11.993
19478W        W87707  39.620  12.744  13.549
19479W        W87708  13.641  40.353   4.971
19480W        W87709  40.459  28.152  14.378
19481W        W87710   2.783  12.750  12.686
19482W        W87711  32.568  35.880   1.239
19483W        W87712   0.931  29.700   1.148
19484W        W87713  25.206  28.159  10.504
19485W        W87714  44.042  44.762  11.552
19486W        W87715  38.941  10.776   3.448
19487W        W87716  41.442  24.623  12.880
19488W        W87717  21.145  36.368  13.271
19489W        W87718  31.243  15.901   4.022
19490W        W87719  25.811   6.641   3.013
19491W        W87720  20.019   6.824  12.486
19492W        W87721  25.128   5.964   0.875
19493W        W87722  11.668   5.472   0.867
19494W        W87723  42.327  29.998   0.721
19495W        W87724   8.489   0.362  11.203
19496W        W87725  34.150  19.277   0.198
19497W        W87726  25.596  11.376   1.319
19498W        W87727   4.901  18.137  13.911
19499W        W87728  30.544   9.671  11.997
19500W        W87729  36.954  19.487  12.128
19501W        W87730  20.495   9.770   2.812
19502W        W87731  37.964   0.714   3.263
19503W        W87732  29.330  16.127  11.562
19504W        W87733  38.415   2.944  14.737
19505W        W87734  13.169  38.257   3.698
19506W        W87735   0.900  32.633  11.497
19507W        W87736   6.686  43.863   1.371
19508W        W87737   0.357  11.216  11.053
19509W        W87738  13.595  35.610   0.200
19510W        W87739  28.960  22.200   4.551
19511W        W87740  15.216  14.818  13.230
19512W        W87741  30.619   6.367   1.877
19513W        W87742   8.206   5.280  10.721
19514W        W87743  16.891   0.774   4.220
19515W        W87744  18.621  44.903   1.915
19516W        W87745   2.330   8.682   2.606
19517W        W87746  43.517  20.056  11.518
19518W        W87747  41.047  27.593   3.179
19519W        W87748  33.656   4.769  11.673
19520W        W87749   5.195  10.454  11.195
19521W        W87750   0.800  17.573   0.740
19522W        W87751  11.848  37.438  14.613
19523W        W87752   5.147  21.745  11.989
19524W        W87753  16.512  43.460  11.388
19525W        W87754  13.863  41.966  14.941
19526W        W87755  23.437  43.081  13.820
19527W        W87756   5.829  42.811  13.075
19528W        W87757  41.374  20.155   3.302
19529W        W87758   0.428  10.712  11.093
19530W        W87759  29.814  44.419   3.587
19531W        W87760  33.435  17.466  14.372
19532W        W87761  33.473  37.496   0.933
19533W        W87762  19.642   1.348  13.287
19534W        W87763   8.101  12.359  11.624
19535W        W87764  25.956  31.602  10.592
19536W        W87765  22.641   7.820  12.063
19537W        W87766  16.860  35.667   3.755
19538W        W87767   8.018  19.955  10.464
19539W        W87768   3.351  43.324  14.558
19540W        W87769  40.878   0.803  11.271
19541W        W87770  15.026  23.466   0.378
19542W        W87771  23.036  26.410  13.552
19543W        W87772  13.361  14.870  13.509
19544W        W87773  19.521  13.552   2.287
19545W        W87774   7.727  44.775  10.745
19546W        W87775  22.282  29.229  13.578
19547W        W87776  40.775  38.540  14.560
19548W        W87777   5.065   1.419  14.139
19549W        W87778  32.872   1.706   2.758
19550W        W87779   0.887  29.319   3.376
19551W        W87780  44.291  25.904  11.618
19552W        W87781  22.165   6.438   3.684
19553W        W87782  24.764  37.107  11.263
19554W        W87783  10.741  29.333  14.380
19555W        W87784  35.002   9.164  11.131
19556W        W87785  33.738  27.646  14.512
19557W        W87786  18.693  10.744  14.065
19558W        W87787  40.132  19.720   1.835
19559W        W87788   6.222   4.463   1.870
19560W        W87789   3.036  18.240  10.948
19561W        W87790  29.979   0.494   1.131
19562W        W87791  22.360  26.524   0.279
19563W        W87792  19.293  22.075  10.265
19564W        W87793  12.813   3.300  14.096
19565W        W87794  38.260  42.244   1.859
19566W        W87795  20.922  35.773  12.034
19567W        W87796  44.220  30.143  14.497
19568W        W87797  31.420   2.041  14.300
19569W        W87798   8.421   5.411  14.500
19570W        W87799  38.881   1.735   0.206
19571W        W87800  39.594  34.956  13.076
19572W        W87801  40.714   9.806  13.551
19573W        W87802  39.497  42.887   2.668
19574W        W87803  22.725  29.172  10.635
19575W        W87804  20.593  16.678  10.679
19576W        W87805  38.682  31.415  14.949
19577W        W87806   7.886   2.513  10.621
19578W        W87807  19.474   9.470  11.146
19579W        W87808  23.792  28.511   4.471
19580W        W87809  13.247  38.641   1.302
19581W        W87810  39.620  40.487   4.246
19582W        W87811  28.331  44.533  13.048
19583W        W87812  14.728   0.215  11.580
19584W        W87813  12.770  19.518  10.770
19585W        W87814   1.011   9.331  14.371
19586W        W87815  22.128  11.581  11.545
19587W        W87816  17.713  33.663   1.890
19588W        W87817  29.559  38.530  13.311
19589W        W87818  11.393  25.700  12.391
19590W        W87819  32.651  42.915  13.032
19591W        W87820  28.848  36.585   0.051
19592W        W87821   3.337  11.329  11.966
19593W        W87822  36.783  19.559  14.503
19594W        W87823   1.184  27.569  14.795
19595W        W87824   2.914   7.927   3.642
19596W        W87825  27.806  35.253   3.071
19597W        W87826  29.450  13.642   2.534
19598W        W87827  25.021  24.542  12.192
19599W        W87828  12.357  35.385  11.669
19600W        W87829  15.101  34.137  14.890
19601W        W87830   0.404  20.602   3.664
19602W        W87831   9.822  14.627   1.224
19603W        W87832  34.630  12.839  11.102
19604W        W87833  35.040  32.989  14.528
19605W        W87834  38.378  23.946   3.821
19606W        W87835  26.481  19.244  13.050
19607W        W87836  29.602  30.731  14.966
19608W        W87837   7.625  15.660   2.876
19609W        W87838  19.284  21.574  14.599
19610W        W87839  11.305   7.159  10.376
19611W        W87840  14.280   3.205   0.065
19612W        W87841  42.451  18.845  12.094
19613W        W87842  34.128  10.344   1.930
19614W        W87843   5.549  39.071   1.984
19615W        W87844  41.765  24.215   0.696
19616W        W87845  32.423  19.544   1.134
19617W        W87846  25.945  31.591   1.770
19618W        W87847  16.737  29.687  11.908
19619W        W87848  32.222   5.431  13.525
19620W        W87849   7.967  20.796   4.953
19621W        W87850   5.776   9.886   3.296
19622W        W87851  31.908  27.933   0.537
19623W        W87852   9.416  41.395   1.424
19624W        W87853   7.801   0.396   2.262
19625W        W87854  23.870  13.586  13.728
19626W        W87855  15.114  20.567   0.785
19627W        W87856  39.417   4.895   1.479
19628W        W87857  23.222  38.828  12.302
19629W        W87858   9.168  27.084   3.352
19630W        W87859  25.105  43.592   0.900
19631W        W87860   8.084  12.740   1.382
19632W        W87861  33.928   5.512   3.549
19633W        W87862  28.030  38.396  13.747
19634W        W87863  19.074  21.710   2.265
19635W        W87864  28.118  20.752  14.098
19636W        W87865  42.053  32.523  11.889
19637W        W87866   8.357  19.278  12.976
19638W        W87867   7.497  15.708  10.249
19639W        W87868  18.626   9.920  13.060
19640W        W87869  28.198   4.464  11.577
19641W        W87870  30.005  42.810   1.495
19642W        W87871  33.444   9.580  13.501
19643W        W87872  37.292  12.705  14.362
19644W        W87873  25.427  20.213   2.830
19645W        W87874  10.024  35.361  13.947
19646W        W87875  14.259  37.532   1.907
19647W        W87876  39.859   1.691   3.642
19648W        W87877  28.014  44.073  12.941
19649W        W87878  24.190   2.350  14.933
19650W        W87879  30.922  17.746  13.622
19651W        W87880   3.221   0.345  11.609
19652W        W87881  38.099  34.987  11.199
19653W        W87882   6.116   0.936  13.525
19654W        W87883  19.209   4.628   2.825
19655W        W87884  41.266  31.102  14.856
19656W        W87885  43.676  43.813  13.983
19657W        W87886  35.067  21.803   3.655
19658W        W87887  22.356  39.871   3.780
19659W        W87888  42.816  15.382  14.535
19660W        W87889   1.314  24.500  13.676
19661W        W87890  33.401  12.235  14.925
19662W        W87891   1.452  11.719  13.958
19663W        W87892  36.356  23.308  12.852
19664W        W87893  24.648   9.397   0.136
19665W        W87894  41.639  16.632  12.043
19666W        W87895   4.154  39.779  12.570
19667W        W87896  30.863  25.176  11.705
19668W        W87897  40.472  35.683  11.593
19669W        W87898  31.740   0.758  14.858
19670W        W87899  20.630  29.299  11.135
19671W        W87900  14.869  35.158  13.300
19672W        W87901  41.897  37.815   4.099
19673W        W87902  30.807  25.057  13.998
19674W        W87903  23.688  42.323  11.715
19675W        W87904  35.937  23.212   4.562
19676W        W87905  13.785  40.346   3.337
19677W        W87906   1.498   8.844   2.222
19678W        W87907  36.655  27.454  13.648
19679W        W87908  14.162  25.561   4.706
19680W        W87909  24.520  11.443   1.710
19681W        W87910  14.120  43.973   1.256
19682W        W87911   0.311  36.690   3.106
19683W        W87912  39.228   9.751  14.826
19684W        W87913  36.529  22.661   3.709
19685W        W87914  18.307  43.717   3.110
19686W        W87915  14.034  19.329   4.135
19687W        W87916  22.912  36.601  13.147
19688W        W87917  41.539  25.075  13.336
19689W        W87918  11.603  35.037  14.894
19690W        W87919   9.507  27.497  10.664
19691W        W87920  28.048   0.500   3.181
19692W        W87921  44.252   5.320  10.974
19693W        W87922   9.874  24.706   0.928
19694W        W87923  24.812   0.353  14.795
19695W        W87924  36.660  44.241  12.532
19696W        W87925  22.221   0.944   1.729
19697W        W87926   7.697  20.557   0.838
19698W        W87927  20.472  44.278  14.951
19699W        W87928  39.486  11.641   0.474
19700W        W87929  17.976  29.009  12.410
19701W        W87930   2.760  38.875   0.416
19702W        W87931  18.330   7.234   0.614
19703W        W87932  27.401  20.960  13.906
19704W        W87933   1.964  39.102   4.608
19705W        W87934  15.070  11.742   0.439
19706W        W87935  31.665  15.277  13.083
19707W        W87936  22.229  32.322  10.648
19708W        W87937  36.550  10.786  14.928
19709W        W87938  21.791   5.414   0.714
19710W        W87939  44.855  17.794  12.501
19711W        W87940  24.646   5.188  12.500
19712W        W87941   2.479  16.858  11.057
19713W        W87942  26.437   5.854   4.606
19714W        W87943  13.201  15.322  13.350
19715W        W87944  44.770  19.760   2.674
19716W        W87945  39.822   3.722   3.561
19717W        W87946  44.397  21.462   3.149
19718W        W87947  18.965   1.453   2.773
19719W        W87948  31.871   3.919  14.077
19720W        W87949   9.945  31.514   1.697
19721W        W87950  13.370  43.751  13.556
19722W        W87951  11.576   9.210   4.142
19723W        W87952  26.231  30.100   0.787
19724W        W87953   6.257  10.171   4.160
19725W        W87954   0.866  27.046  10.978
19726W        W87955  35.630   9.893  11.011
19727W        W87956  19.153  30.007   2.687
19728W        W87957  14.876  40.953   4.392
19729W        W87958   4.836  31.435  14.058
19730W        W87959  27.602  14.794  12.835
19731W        W87960  44.431  18.637  12.181
19732W        W87961  17.497   2.245  11.551
19733W        W87962  23.591  30.844   3.898
19734W        W87963  12.079   1.490   0.684
19735W        W87964  24.626  25.261   2.919
19736W        W87965  43.804  26.080   2.734
19737W        W87966  32.965  29.942   1.238
19738W        W87967  20.849  16.622   1.736
19739W        W87968  24.727  16.211  12.692
19740W        W87969  28.610   0.095  14.282
19741W        W87970  17.300   9.175   3.114
19742W        W87971  30.995   3.299  11.286
19743W        W87972  15.355  12.205  13.921
19744W        W87973  21.477  12.574   1.795
19745W        W87974   5.490   4.180   0.297
19746W        W87975  14.345  44.245  12.012
19747W        W87976  23.911  41.256  12.213
19748W        W87977  15.251  18.802  12.815
19749W        W87978  27.998  32.918   3.312
19750W        W87979  37.084   0.840   1.803
19751W        W87980  21.805  20.920  14.881
19752W        W87981  40.037  17.010   4.601
19753W        W87982  23.140  19.787   3.153
19754W        W87983  26.602   6.929   1.751
19755W        W87984  15.906  26.646   0.817
19756W        W87985  25.669  39.850   1.401
19757W        W87986  36.348  20.040  11.690
19758W        W87987  15.784  43.988  11.661
19759W        W87988   7.685  37.182   1.726
19760W        W87989   1.822  35.290   4.240
19761W        W87990  35.103   5.344  14.779
19762W        W87991  27.495   3.939   3.694
19763W        W87992  22.216  18.248  11.374
19764W        W87993  18.759  22.930   2.943
19765W        W87994   1.617  15.745  12.657
19766W        W87995  27.111  38.394   0.726
19767W        W87996  25.056   2.241   1.018
19768W        W87997  36.911  23.134  13.529
19769W        W87998  25.499   0.449  11.869
19770W        W87999   1.436   3.297   1.786
19771W        W88000  44.168  26.735   4.085
19772W        W88001  19.649   4.251  12.917
19773W        W88002  27.593   3.225   0.722
19774W        W88003  32.554   5.905  10.467
19775W        W88004  15.510   3.447   3.662
19776W        W88005  19.474   0.871   1.350
19777W        W88006  42.028   5.997  13.931
19778W        W88007  31.318  39.437   2.739
19779W        W88008  25.017  39.446  11.476
19780W        W88009   4.912   5.452   0.711
19781W        W88010  23.186  21.680   2.327
19782W        W88011  12.931   7.379  11.659
19783W        W88012  29.220  19.222  12.618
19784W        W88013  10.612  34.512   3.222
19785W        W88014  31.145  16.124   1.804
19786W        W88015   3.701  30.322  13.789
19787W        W88016  24.526   9.144   1.308
19788W        W88017  12.411  33.432  11.062
19789W        W88018  11.120  17.640   4.270
19790W        W88019   9.093  23.511  14.322
19791W        W88020  42.475   6.815  14.857
19792W        W88021  38.558  27.488   9.884
19793W        W88022  31.768  10.242  10.819
19794W        W88023  13.653  21.048  14.864
19795W        W88024  29.543  29.200  10.859
19796W        W88025   6.564   0.731   4.997
19797W        W88026  23.835  31.315   1.728
19798W        W88027  15.956  43.498   1.289
19799W        W88028  16.858  37.047  12.047
19800W        W88029  19.090  18.733  11.130
19801W        W88030  19.526  25.743  11.593
19802W        W88031   3.511   7.948  12.156
19803W        W88032  17.743  19.338   3.232
19804W        W88033  20.978  40.599  12.421
19805W        W88034  34.468  32.580   1.787
19806W        W88035  28.558  14.849   1.422
19807W        W88036  22.615  11.147   3.212
19808W        W88037   2.168  32.947   3.220
19809W        W88038  25.269  19.711   2.833
19810W        W88039  32.405   1.913   2.826
19811W        W88040  12.129  13.135  10.815
19812W        W88041   6.698  27.183   2.734
19813W        W88042  21.982  16.744   4.135
19814W        W88043  16.768   6.742   1.817
19815W        W88044  17.370  16.846   2.070
19816W        W88045  15.601  13.062  12.907
19817W        W88046  12.273  18.190   4.940
19818W        W88047  44.777  36.346  14.673
19819W        W88048   2.388  30.513   3.732
19820W        W88049   9.389  18.772  11.134
19821W        W88050  31.065  33.507  14.057
19822W        W88051  42.137  16.234  10.706
19823W        W88052  35.596  41.638  11.580
19824W        W88053  39.595  27.420  14.921
19825W        W88054  21.603  37.664  11.077
19826W        W88055  23.753  26.490   4.179
19827W        W88056  23.648  16.886  13.217
19828W        W88057  29.482   9.553   3.755
19829W        W88058  13.177  19.575   2.800
19830W        W88059  32.552  36.372   2.911
19831W        W88060  40.145  25.229  12.507
19832W        W88061  18.621  13.307   3.563
19833W        W88062  39.124  41.641   1.763
19834W        W88063  10.732  38.751  12.523
19835W        W88064   9.156  41.227  11.799
19836W        W88065  39.401  39.512   1.112
19837W        W88066  40.603  14.021  14.916
19838W        W88067  19.067   1.343  11.182
19839W        W88068  15.227  38.475  13.539
19840W        W88069  43.068   3.507  11.035
19841W        W88070  39.501  25.482   2.866
19842W        W88071  36.126  38.615   2.260
19843W        W88072   3.969  43.911   0.240
19844W        W88073  33.455  23.984   3.754
19845W        W88074  12.774  40.731   4.093
19846W        W88075  28.081  29.914   4.113
19847W        W88076   6.079  44.030   2.854
19848W        W88077  42.812  44.350   4.545
19849W        W88078  19.350  29.938   2.215
19850W        W88079  21.050  34.994  10.421
19851W        W88080  34.463  27.896   2.652
19852W        W88081  39.659  37.484   2.763
19853W        W88082  26.958   1.489  12.563
19854W        W88083  11.759  42.372  12.503
19855W        W88084  35.884   7.120   2.624
19856W        W88085  28.493   1.918  11.661
19857W        W88086  30.431  40.889   0.444
19858W        W88087  19.702  18.386  11.014
19859W        W88088  27.706   1.753  14.251
19860W        W88089  40.410   3.302  10.638
19861W        W88090  31.703  41.865  11.544
19862W        W88091  44.341  28.389   2.324
19863W        W88092  36.725  16.880   2.159
19864W        W88093  29.655  22.716  14.854
19865W        W88094  36.540   4.401  10.697
19866W        W88095  27.585   7.367   0.457
19867W        W88096  15.804  40.209   0.589
19868W        W88097  24.171  17.266  11.000
19869W        W88098   4.719   7.492   0.572
19870W        W88099  11.430  28.095  13.129
19871W        W88100  29.559   9.829  12.470
19872W        W88101  40.063   4.224   3.929
19873W        W88102  42.774  19.207  13.938
19874W        W88103  35.387  38.750   2.729
19875W        W88104  29.298   1.831  13.289
19876W        W88105   9.360   0.994  14.422
19877W        W88106   4.841  18.699   0.268
19878W        W88107  24.906  22.952   4.613
19879W        W88108  18.897  12.883  11.485
19880W        W88109  33.547  35.169   3.246
19881W        W88110  26.682   5.760  11.523
19882W        W88111  40.744  25.738   0.980
19883W        W88112  19.175  25.577   4.477
19884W        W88113  27.179  25.311   0.936
19885W        W88114  41.615  34.968  12.982
19886W        W88115  29.285   3.830   3.799
19887W        W88116  16.710  30.110   3.886
19888W        W88117  37.600   5.805   0.807
19889W        W88118  37.345  38.035  11.081
19890W        W88119  10.560  14.606   0.470
19891W        W88120  12.255  11.641   1.707
19892W        W88121  31.035  44.053  13.888
19893W        W88122  26.572  28.858  10.685
19894W        W88123  14.347  32.565   2.906
19895W        W88124  43.538  12.650   1.717
19896W        W88125  20.165  14.324  13.900
19897W        W88126  33.552  37.936   1.187
19898W        W88127  34.577  10.694   3.493
19899W        W88128   8.703   5.958   4.493
19900W        W88129   4.822   1.301   0.443
19901W        W88130   1.249  25.260  11.838
19902W        W88131  30.695   5.386  14.835
19903W        W88132  11.326  12.771  13.876
19904W        W88133  16.007   1.380  11.357
19905W        W88134  13.581   8.136  14.298
19906W        W88135   0.933  20.212   4.900
19907W        W88136   0.453  13.773   1.791
19908W        W88137  16.153   8.436  10.757
19909W        W88138  38.194   2.216   1.490
19910W        W88139  30.145   8.132   0.269
19911W        W88140  15.371   2.335   0.761
19912W        W88141  33.923  37.077   2.332
19913W        W88142  20.646  28.619   1.736
19914W        W88143  10.661   2.511  12.021
19915W        W88144  23.027  12.151   5.046
19916W        W88145   6.354  27.516  13.814
19917W        W88146   7.864  32.039  12.919
19918W        W88147  15.055  33.002   1.450
19919W        W88148  38.463  21.227  13.382
19920W        W88149  27.070  35.822  12.030
19921W        W88150  26.507  18.489  12.983
19922W        W88151  12.880  30.591  12.966
19923W        W88152   7.933   6.960  14.329
19924W        W88153  44.455  25.712   1.786
19925W        W88154  13.086  17.854   2.199
19926W        W88155  38.066  11.905  10.638
19927W        W88156  15.690  16.086   3.304
19928W        W88157  32.656  13.733  12.351
19929W        W88158  14.207  37.204   3.307
19930W        W88159  28.482  13.849  11.502
19931W        W88160  35.247  12.758  11.592
19932W        W88161  30.579  38.531  11.444
19933W        W88162   0.676  37.348   3.653
19934W        W88163  36.174  21.735  11.583
19935W        W88164  22.469   7.800  11.577
19936W        W88165  44.283   9.118   3.653
19937W        W88166  27.562   4.315   2.282
19938W        W88167  27.035   9.380  12.824
19939W        W88168  15.373   9.152   4.706
19940W        W88169   4.165  39.410   4.153
19941W        W88170  22.702  44.833   0.287
19942W        W88171   9.838  44.529   3.272
19943W        W88172   1.507  41.774   2.345
19944W        W88173   6.478  25.994   2.224
19945W        W88174  12.067   9.818   3.599
19946W        W88175   3.273  44.477   1.184
19947W        W88176   5.282  37.947   0.205
19948W        W88177  44.859  30.524   3.313
19949W        W88178  28.427  14.558  13.444
19950W        W88179  34.926  38.466   3.690
19951W        W88180  25.603  42.844   1.016
19952W        W88181  14.050  44.898  14.435
19953W        W88182  25.765  25.464   2.923
19954W        W88183  15.753   7.834  10.648
19955W        W88184   9.628  26.140  14.882
19956W        W88185  28.867  34.036   4.137
19957W        W88186  26.023  31.875  12.538
19958W        W88187  10.976   1.312  13.496
19959W        W88188  25.783  32.537  12.329
19960W        W88189  14.052  39.376  10.577
19961W        W88190  35.860   5.008   1.412
19962W        W88191  42.735  28.556   1.657
19963W        W88192  37.385   3.044  10.802
19964W        W88193  24.200  17.069   0.954
19965W        W88194   0.833  24.597   0.941
19966W        W88195   4.277  16.200  14.778
19967W        W88196  17.123  15.467  14.469
19968W        W88197   3.915  38.034  14.709
19969W        W88198  28.867   1.658  14.024
19970W        W88199  27.161  11.387  11.641
19971W        W88200  32.600  27.925  12.785
19972W        W88201   1.327  33.865   9.711
19973W        W88202   3.495  10.835   1.645
19974W        W88203   8.850  40.969   3.507
19975W        W88204  41.150  38.267  11.694
19976W        W88205  11.331   0.240  12.932
19977W        W88206  10.110  26.460   1.142
19978W        W88207  10.302  25.889  13.849
19979W        W88208  25.070  41.729  12.238
19980W        W88209  34.302  21.788   0.371
19981W        W88210   1.851  41.838   3.867
19982W        W88211  32.971  14.303   3.908
19983W        W88212  44.701  30.095   4.401
19984W        W88213  29.578  24.131   0.585
19985W        W88214   1.527  43.818  10.516
19986W        W88215  22.209  43.088   0.850
19987W        W88216  22.038  40.901  12.575
19988W        W88217   4.175  34.966  11.593
19989W        W88218   5.299  22.258   0.168
19990W        W88219  24.027  40.119  14.414
19991W        W88220  31.592  25.049  12.414
19992W        W88221  19.944  35.879   3.745
19993W        W88222  18.087   8.687   2.178
19994W        W88223  13.621  24.813   3.661
19995W        W88224   2.930  12.103   0.394
19996W        W88225  35.124   9.783  13.506
19997W        W88226  21.087  24.169   2.795
19998W        W88227   1.251   2.775  13.087
19999W        W88228  13.810  36.609   2.073
20000W        W88229  37.514  11.690  10.507
20001W        W88230  13.207  39.861  11.996
20002W        W88231  12.109  31.936   2.345
20003W        W88232  31.032  11.439   2.392
20004W        W88233   4.398  14.496   3.805
20005W        W88234  34.738  36.630   1.387
20006W        W88235   6.520   0.278  12.366
20007W        W88236   2.969  21.200  12.907
20008W        W88237  23.575  17.686   4.660
20009W        W88238  23.191  26.765  11.989
20010W        W88239  33.993  31.001   1.448
20011W        W88240  30.491  28.087   3.303
20012W        W88241  29.515  36.678  13.810
20013W        W88242   9.547   1.237   0.989
20014W        W88243  26.024   8.266   3.424
20015W        W88244  35.356  32.583   4.059
20016W        W88245  27.387  42.487  14.023
20017W        W88246  15.988  14.225  13.360
20018W        W88247  29.405  12.635   0.662
20019W        W88248  24.586  44.039  13.388
20020W        W88249  42.243   2.501  12.341
20021W        W88250  18.818  41.783  11.696
20022W        W88251  42.522  32.526  14.388
20023W        W88252  10.756   6.972   2.871
20024W        W88253  17.888  36.013   2.730
20025W        W88254  28.060  11.425   5.103
20026W        W88255  10.712  41.273  14.970
20027W        W88256   3.206  22.704  14.546
20028W        W88257  22.093  15.885  11.609
20029W        W88258  28.166  23.955  14.970
20030W        W88259  13.306  27.045  14.736
20031W        W88260  25.915   0.265  14.598
20032W        W88261   3.832   4.269  12.524
20033W        W88262  33.452  34.978   2.752
20034W        W88263   5.387  14.589  13.836
20035W        W88264  18.401  21.805  13.020
20036W        W88265  40.323   5.428   3.635
20037W        W88266  40.200  21.003   4.110
20038W        W88267  12.997  37.447  11.608
20039W        W88268   2.415  22.844  11.055
20040W        W88269  42.109  19.202  13.533
20041W        W88270   0.732   4.384  11.623
20042W        W88271  13.718  24.036  11.397
20043W        W88272  39.645  37.156   0.293
20044W        W88273  35.025   3.281  11.671
20045W        W88274  41.329  12.615  11.990
20046W        W88275   1.810  36.852   1.308
20047W        W88276  26.123  21.383   4.627
20048W        W88277  24.959   4.203   3.566
20049W        W88278  26.636  22.755  11.496
20050W        W88279  29.500   9.064   1.510
20051W        W88280   6.910  11.912   0.397
20052W        W88281   4.912  27.566  12.084
20053W        W88282   0.675  41.825  11.116
20054W        W88283  33.024  39.910  10.445
20055W        W88284   9.431  12.502   0.394
20056W        W88285  34.971  32.212  14.366
20057W        W88286  28.856  38.699  14.051
20058W        W88287   6.403   1.739  12.967
20059W        W88288   7.798   0.662   4.625
20060W        W88289  25.162  26.947   2.356
20061W        W88290  14.760  39.792  13.440
20062W        W88291  15.171  28.549  11.612
20063W        W88292  41.351  44.139  14.459
20064W        W88293  29.930  16.176   4.997
20065W        W88294  27.666  33.315   2.431
20066W        W88295  42.851  26.708  12.958
20067W        W88296   6.254  24.102  11.431
20068W        W88297  23.006  24.812  12.395
20069W        W88298  17.172  31.461   1.362
20070W        W88299  33.431  10.956  10.134
20071W        W88300  40.332  28.988  11.466
20072W        W88301  22.593  38.871   0.164
20073W        W88302  32.889  29.920   2.793
20074W        W88303  13.809  14.652  14.271
20075W        W88304  24.213   9.171   1.729
20076W        W88305  17.440  29.144   0.596
20077W        W88306  20.740   2.276  13.003
20078W        W88307  31.150   0.205  11.359
20079W        W88308  20.069  25.685  12.348
20080W        W88309  32.968  21.641  13.403
20081W        W88310   9.390   3.847  11.981
20082W        W88311  21.779   9.674  14.765
20083W        W88312  35.813  39.225  12.957
20084W        W88313  25.642  37.890  10.766
20085W        W88314  39.854   6.862   4.627
20086W        W88315   5.927  27.915   4.803
20087W        W88316  20.381  30.195  12.385
20088W        W88317  38.011  22.815  12.410
20089W        W88318  23.936  22.521  11.591
20090W        W88319  34.118  19.465   2.417
20091W        W88320  17.857  43.567  14.566
20092W        W88321   1.865   5.702   0.216
20093W        W88322  33.402  19.010   4.122
20094W        W88323  34.022  30.631  14.432
20095W        W88324  26.861  44.397   4.648
20096W        W88325   0.225  17.565  12.158
20097W        W88326  43.769  35.670  12.932
20098W        W88327  25.042  34.986   3.784
20099W        W88328  29.143  37.252   0.329
20100W        W88329  19.183  38.511  11.940
20101W        W88330   0.942   6.328  10.400
20102W        W88331  23.508   1.315  14.534
20103W        W88332  14.171   4.253  13.303
20104W        W88333  15.906  30.652   1.753
20105W        W88334  17.701  30.965   2.885
20106W        W88335   8.039  43.450   1.893
20107W        W88336  25.754  43.053   2.390
20108W        W88337  19.131   4.712  10.735
20109W        W88338  16.352  22.893   5.447
20110W        W88339  26.486  11.595   4.274
20111W        W88340  14.380   1.393  13.583
20112W        W88341  40.237  14.862   1.160
20113W        W88342  34.685   1.570  11.176
20114W        W88343  40.025  17.179   0.004
20115W        W88344   3.549  19.238   1.462
20116W        W88345  35.670  37.981   4.640
20117W        W88346  35.929   4.229  13.471
20118W        W88347  40.813  28.175  10.471
20119W        W88348  43.390   2.989   3.181
20120W        W88349  12.157   5.757  11.009
20121W        W88350  15.178  30.890  13.880
20122W        W88351  23.506  25.660  13.600
20123W        W88352  15.377   4.915   3.656
20124W        W88353  24.684  30.976   1.883
20125W        W88354  23.423   8.249  13.048
20126W        W88355   5.753  35.619  12.982
20127W        W88356  24.981   0.919   3.739
20128W        W88357  43.928  29.660  10.854
20129W        W88358   1.499  41.589  14.565
20130W        W88359  36.955  19.785   3.705
20131W        W88360  14.838  40.911  14.625
20132W        W88361  36.896  41.219   1.346
20133W        W88362  27.332  43.733   3.296
20134W        W88363  38.086   7.818  13.505
20135W        W88364  28.993  40.039   0.031
20136W        W88365  24.487  18.808  12.153
20137W        W88366  28.515  14.586  12.120
20138W        W88367   9.311  11.545  13.807
20139W        W88368  35.851   1.270  11.816
20140W        W88369  29.865  21.155  13.926
20141W        W88370  36.822  41.348  10.781
20142W        W88371  29.697   2.457   0.308
20143W        W88372  28.937  24.847   3.340
20144W        W88373  19.798   8.452   2.472
20145W        W88374   1.470  37.556  13.489
20146W        W88375  25.946  17.114   1.152
20147W        W88376  34.516  42.472   2.758
20148W        W88377  25.108  14.312  13.942
20149W        W88378   6.496   3.869   1.055
20150W        W88379  38.471  29.409   1.795
20151W        W88380  35.167  35.956  13.934
20152W        W88381  28.407  34.691   9.815
20153W        W88382   3.859  33.956  11.153
20154W        W88383   4.319  11.323  12.077
20155W        W88384   0.419  39.811  13.926
20156W        W88385  23.669  22.074   1.659
20157W        W88386  21.504  26.561  12.405
20158W        W88387  10.812  28.738  13.113
20159W        W88388  44.478  12.097   2.347
20160W        W88389  30.119   3.487  14.806
20161W        W88390  34.176  23.293  11.110
20162W        W88391   1.027  19.308   0.355
20163W        W88392  33.590  14.325  13.309
20164W        W88393  22.654  39.332  11.139
20165W        W88394  13.250   7.992  10.520
20166W        W88395  23.756  14.826   5.396
20167W        W88396   2.397   1.407   0.308
20168W        W88397  19.279   3.313   0.724
20169W        W88398   4.194  39.607  10.627
20170W        W88399  42.790  39.824   4.903
20171W        W88400  17.054  11.682   1.315
20172W        W88401  22.842  15.226  14.504
20173W        W88402   8.518   4.828  11.921
20174W        W88403  35.115  17.369   3.770
20175W        W88404   2.997  44.008   1.348
20176W        W88405  20.943   4.435  14.472
20177W        W88406   4.750  12.076   4.765
20178W        W88407  26.265  43.700  12.473
20179W        W88408  25.690  33.665  12.300
20180W        W88409  16.525  21.965   2.757
20181W        W88410   5.886  14.142   4.354
20182W        W88411  35.535  44.941   1.865
20183W        W88412  29.268  21.763  11.141
20184W        W88413   7.533   7.299  14.239
20185W        W88414   5.411  26.062  14.772
20186W        W88415   8.814  31.975  14.757
20187W        W88416  42.573  34.786  12.892
20188W        W88417  20.014  27.950   4.512
20189W        W88418  27.680  36.354   2.133
20190W        W88419  44.702  32.991   2.165
20191W        W88420   7.870  19.379  13.410
20192W        W88421  29.065   0.583  10.999
20193W        W88422  43.939  42.834   0.890
20194W        W88423  35.487  17.860   1.120
20195W        W88424   1.806  22.322  14.052
20196W        W88425  42.488  10.665  14.431
20197W        W88426  32.657  14.111   0.730
20198W        W88427  37.498  24.135   5.112
20199W        W88428  23.476  41.415   5.043
20200W        W88429   1.698  12.602   2.724
20201W        W88430   8.615  13.275   2.054
20202W        W88431  30.485  23.121   4.142
20203W        W88432  10.898  29.159   2.597
20204W        W88433   8.145  36.916  13.214
20205W        W88434   4.838  13.310  14.349
20206W        W88435  18.195  40.231  11.600
20207W        W88436  42.334  34.289  12.033
20208W        W88437  26.969   0.640   0.325
20209W        W88438  26.603  38.534   0.428
20210W        W88439  44.973  15.545  10.467
20211W        W88440  12.235  17.256   1.432
20212W        W88441   1.774  12.142  14.000
20213W        W88442  32.984  27.520   4.541
20214W        W88443   2.220  20.227   4.312
20215W        W88444  27.666  30.627   4.994
20216W        W88445   4.288  16.365  11.691
20217W        W88446  41.352  11.669   0.006
20218W        W88447  10.889  31.764  11.359
20219W        W88448   5.728  13.927  14.314
20220W        W88449  38.555  22.032  12.156
20221W        W88450  41.254   7.964  12.351
20222W        W88451  44.258   1.068   2.571
20223W        W88452   1.325  44.439   2.254
20224W        W88453   5.676  32.359  14.014
20225W        W88454  34.972  30.017   1.146
20226W        W88455  43.319  11.670  14.419
20227W        W88456   8.839  32.894   1.874
20228W        W88457  38.125  18.110  13.412
20229W        W88458  15.220  35.349  10.325
20230W        W88459  29.159  37.498  11.103
20231W        W88460  12.796   9.711  12.610
20232W        W88461  38.854  23.504   9.881
20233W        W88462  21.312   9.433  12.441
20234W        W88463  38.513  44.397   4.209
20235W        W88464  41.056   5.242   4.059
20236W        W88465  31.450  40.302  11.899
20237W        W88466  23.201   2.406  13.389
20238W        W88467  19.050  39.496  11.111
20239W        W88468  29.004  29.438  13.502
20240W        W88469  37.133  44.821   4.148
20241W        W88470   5.733  26.132  13.438
20242W        W88471   2.573  38.508  10.167
20243W        W88472  16.509  41.363  11.352
20244W        W88473  40.682  10.150   0.748
20245W        W88474  41.866  14.542   0.474
20246W        W88475  12.849  16.311  11.195
20247W        W88476  38.861  37.843  12.042
20248W        W88477  13.549  40.302   3.781
20249W        W88478  17.649  11.867  10.800
20250W        W88479  10.253   1.798   4.675
20251W        W88480  12.329  10.945  13.417
20252W        W88481  28.242   9.752   2.731
20253W        W88482  25.392  40.594   3.191
20254W        W88483   6.538  15.055  14.360
20255W        W88484  38.919  21.763   4.649
20256W        W88485  24.192   3.388   2.657
20257W        W88486  41.256   1.455  11.195
20258W        W88487   0.899  22.932  11.125
20259W        W88488  28.983  41.362  12.894
20260W        W88489  44.862  37.279  14.953
20261W        W88490   8.341   6.848   3.245
20262W        W88491  38.865  24.536   2.286
20263W        W88492  36.321  37.125   1.696
20264W        W88493  20.804  14.195   0.439
20265W        W88494   6.391  23.192   1.845
20266W        W88495  42.319  32.245  13.751
20267W        W88496  20.336   7.176   2.116
20268W        W88497  20.092  31.549   3.249
20269W        W88498   1.966   7.340   1.190
20270W        W88499  12.375  11.632  10.308
20271W        W88500  41.419  41.858   2.035
20272W        W88501  33.456   3.465  14.369
20273W        W88502   4.177   2.557   2.433
20274W        W88503  38.139  15.851  12.478
20275W        W88504   1.010   9.922  13.842
20276W        W88505  26.551  14.042  13.916
20277W        W88506   6.164  31.923   3.136
20278W        W88507   9.244   4.539   2.109
20279W        W88508  22.336   3.585  13.580
20280W        W88509  29.064  16.623   3.653
20281W        W88510   4.191  39.276  12.505
20282W        W88511  33.498  18.954  12.191
20283W        W88512   1.878  43.683   4.363
20284W        W88513  27.967  11.273   9.717
20285W        W88514  22.545  37.382   4.476
20286W        W88515  19.520  28.417  12.625
20287W        W88516  14.318  37.423   1.417
20288W        W88517   2.708  10.172   1.349
20289W        W88518  39.489  10.227  13.965
20290W        W88519  11.613  32.442  10.671
20291W        W88520  42.964   6.833  13.687
20292W        W88521  41.220  34.996   2.503
20293W        W88522  41.954  18.024   4.009
20294W        W88523  37.171  33.238   4.958
20295W        W88524  25.857  19.345  13.256
20296W        W88525  32.127   5.405   2.681
20297W        W88526  26.069   7.878  10.701
20298W        W88527  28.270  20.784  12.422
20299W        W88528   3.257  42.941   2.615
20300W        W88529  22.265  11.823  11.114
20301W        W88530  17.310  11.364   4.264
20302W        W88531  13.692   2.829  14.516
20303W        W88532  28.023  10.951   4.598
20304W        W88533  32.995  24.329   2.941
20305W        W88534   6.118  44.741   4.011
20306W        W88535  28.013  19.301  12.050
20307W        W88536   1.861   0.957  10.976
20308W        W88537  42.426  36.969   2.374
20309W        W88538  20.708  18.285  10.451
20310W        W88539   4.418  12.781   4.385
20311W        W88540  12.245  37.968   2.835
20312W        W88541  32.827  30.244  11.454
20313W        W88542  25.308  31.338  14.955
20314W        W88543  31.185  39.757  14.460
20315W        W88544  42.911  20.195  14.696
20316W        W88545  19.785  19.315  12.507
20317W        W88546  23.588  10.778   2.321
20318W        W88547   9.677  19.261   2.332
20319W        W88548  34.916  39.558  12.101
20320W        W88549  26.653  18.612  13.500
20321W        W88550  10.684  17.738  12.471
20322W        W88551   2.469  27.098  14.220
20323W        W88552  31.081  38.416  11.309
20324W        W88553  40.907  28.631   5.092
20325W        W88554  40.892  39.044   3.843
20326W        W88555  43.414  25.231   2.918
20327W        W88556  12.732  16.278  10.678
20328W        W88557  31.728  13.058   3.171
20329W        W88558  18.663  42.252  11.140
20330W        W88559   6.252  44.122   0.652
20331W        W88560  26.921  14.391   3.472
20332W        W88561  33.105  44.699  14.474
20333W        W88562  21.223   2.149   2.819
20334W        W88563  33.352   9.063  13.233
20335W        W88564   6.761  15.859  12.562
20336W        W88565  20.128   4.884   3.235
20337W        W88566  23.479  14.247  12.563
20338W        W88567  12.955  21.952   2.863
20339W        W88568  33.460  37.584  13.995
20340W        W88569  19.125  31.775   4.908
20341W        W88570  40.864   0.806  14.873
20342W        W88571  11.067  43.335  13.381
20343W        W88572  16.797  21.569  12.156
20344W        W88573  40.945  14.586  10.853
20345W        W88574   1.489  35.431   0.940
20346W        W88575  32.664  35.525  12.975
20347W        W88576  27.438   8.750   0.631
20348W        W88577  31.135  27.022  12.147
20349W        W88578  41.965   9.059   2.451
20350W        W88579   2.246  20.565   4.871
20351W        W88580   0.172  36.031  10.947
20352W        W88581  35.126  42.408   3.591
20353W        W88582   4.851  38.772  12.878
20354W        W88583  19.544  35.168   1.832
20355W        W88584  38.773  11.601  14.504
20356W        W88585  30.045  44.815  10.722
20357W        W88586  36.270  21.610  13.358
20358W        W88587  16.904  16.933  10.674
20359W        W88588  21.314  21.974   0.424
20360W        W88589  20.694  27.917   4.367
20361W        W88590  37.377  31.652   1.477
20362W        W88591   8.391  17.779  13.866
20363W        W88592  37.210  35.419   2.425
20364W        W88593  14.152  40.320  14.716
20365W        W88594  41.398   0.281   2.931
20366W        W88595  43.127  31.185  11.914
20367W        W88596   8.721   9.200  14.098
20368W        W88597  36.746   0.726   2.306
20369W        W88598  35.442  28.107   3.228
20370W        W88599  33.326  21.829   1.791
20371W        W88600   4.302  28.120   0.533
20372W        W88601   8.088  12.283   3.764
20373W        W88602  14.926  44.404   0.460
20374W        W88603  25.411  36.845   3.057
20375W        W88604  35.341  41.418  10.649
20376W        W88605   3.687  11.861   4.562
20377W        W88606  17.413  21.635   5.083
20378W        W88607  39.398  40.774  12.968
20379W        W88608  34.938  11.199   0.229
20380W        W88609  19.259  30.462  12.531
20381W        W88610  34.953   7.732  10.633
20382W        W88611  28.175  38.938  11.514
20383W        W88612  26.260  44.463  11.496
20384W        W88613  20.704  41.951   1.542
20385W        W88614  43.331  21.798  13.306
20386W        W88615  19.349  32.420  13.527
20387W        W88616  21.290   3.858   1.847
20388W        W88617  43.824  20.740   1.546
20389W        W88618   9.249  19.761   4.638
20390W        W88619  27.057  11.707  12.627
20391W        W88620   1.304  28.491  14.406
20392W        W88621   9.879  35.751  10.725
20393W        W88622  43.688  28.157   3.608
20394W        W88623  13.811  21.020   3.774
20395W        W88624  39.977  12.108  14.841
20396W        W88625  42.978  17.485   1.989
20397W        W88626  40.508  11.290  13.339
20398W        W88627  41.124  28.167  13.752
20399W        W88628  44.471  19.399   4.257
20400W        W88629   4.418  35.011  10.018
20401W        W88630  41.319  34.352   1.594
20402W        W88631  40.525  22.029  11.566
20403W        W88632   0.914  38.413  13.935
20404W        W88633  34.410   7.651   2.025
20405W        W88634  16.575  30.526   4.194
20406W        W88635  24.470  24.562   0.561
20407W        W88636  30.211  17.320  12.171
20408W        W88637  28.957  35.432  12.902
20409W        W88638  12.759  19.704  11.812
20410W        W88639  13.293  23.017   1.404
20411W        W88640  42.816  14.191  14.571
20412W        W88641  16.475   2.364  14.289
20413W        W88642  22.855  44.254  13.106
20414W        W88643  12.662  30.325   2.503
20415W        W88644   5.441  28.187  13.877
20416W        W88645   8.790  40.305   1.977
20417W        W88646   1.199  17.134   4.078
20418W        W88647   0.519  10.184   1.878
20419W        W88648  19.292  17.563   0.336
20420W        W88649  39.780  33.586   4.274
20421W        W88650  44.206  28.954  14.903
20422W        W88651  30.074   1.924  14.400
20423W        W88652  29.935  31.205   4.405
20424W        W88653  39.442  13.641   3.289
20425W        W88654  31.500  33.641   4.581
20426W        W88655   0.385   0.783  12.105
20427W        W88656  16.734   3.311  11.159
20428W        W88657  42.517  33.906   4.139
20429W        W88658  29.198  30.973   2.353
20430W        W88659  29.207   1.413  12.803
20431W        W88660  43.387  30.677  13.430
20432W        W88661   3.376  31.435  12.315
20433W        W88662  40.403  19.516  12.631
20434W        W88663  37.058  18.481   3.211
20435W        W88664   0.475   9.151  13.333
20436W        W88665  21.541  19.886   1.745
20437W        W88666  35.912  38.521  13.540
20438W        W88667  38.433  31.207   1.376
20439W        W88668  19.303  27.373  14.430
20440W        W88669  20.493  38.458   4.187
20441W        W88670  13.695  32.662  12.980
20442W        W88671  25.239   2.437   2.858
20443W        W88672   8.931  42.113  11.115
20444W        W88673  40.646  43.427   3.642
20445W        W88674  10.318  41.623  12.366
20446W        W88675  26.066  34.394  12.404
20447W        W88676  40.528  23.107   3.628
20448W        W88677  13.764  16.872  10.289
20449W        W88678  19.712  31.925   3.146
20450W        W88679  39.942  41.592   3.596
20451W        W88680  24.334   3.596   3.210
20452W        W88681  43.546  37.568   0.309
20453W        W88682  11.070  18.534  11.035
20454W        W88683  37.796  42.832   0.759
20455W        W88684   9.086   6.009  13.346
20456W        W88685  31.863  29.545   0.724
20457W        W88686  20.664  44.903  13.134
20458W        W88687   3.268   3.206  14.098
20459W        W88688  17.546   4.949  12.089
20460W        W88689  40.250  38.298  13.325
20461W        W88690  40.381   1.070  11.948
20462W        W88691  17.753  16.371  12.004
20463W        W88692   7.724   6.891   4.434
20464W        W88693  42.228  40.515   0.177
20465W        W88694  21.773  35.633   3.218
20466W        W88695  16.081  25.711  10.727
20467W        W88696  32.061   5.960  12.210
20468W        W88697  16.226  43.500   2.569
20469W        W88698   3.475  31.428   0.374
20470W        W88699  11.042  14.713  12.334
20471W        W88700   7.712  28.550  14.303
20472W        W88701  28.092   1.107  12.259
20473W        W88702  14.359  36.949   1.247
20474W        W88703  37.154  11.643  14.833
20475W        W88704  37.798  13.761  12.471
20476W        W88705   9.381  18.962   0.692
20477W        W88706  26.147  21.733  12.956
20478W        W88707   5.665  27.037   3.555
20479W        W88708   9.299  42.499  11.174
20480W        W88709   1.696  23.248  11.493
20481W        W88710  29.690   9.804   0.769
20482W        W88711  40.795  36.116   0.444
20483W        W88712   3.188  13.908   1.026
20484W        W88713  41.700  39.881   2.760
20485W        W88714  18.310  36.577   0.633
20486W        W88715  26.615  25.033  10.428
20487W        W88716  12.200  28.113   2.626
20488W        W88717   3.845  37.519   0.855
20489W        W88718   3.790   8.764   4.408
20490W        W88719  17.739  33.145   1.876
20491W        W88720  10.128  18.913   4.855
20492W        W88721  10.109  19.364  14.830
20493W        W88722  32.651   4.304   4.320
20494W        W88723  39.395  15.359   4.195
20495W        W88724  15.120  43.797   3.160
20496W        W88725  15.815  23.071   3.133
20497W        W88726   9.752   7.700  11.964
20498W        W88727   1.379  26.005  11.767
20499W        W88728  29.958  20.983  11.187
20500W        W88729  19.172  13.612  14.375
20501W        W88730   6.711  27.970   1.234
20502W        W88731  12.998  23.542   2.732
20503W        W88732  37.339  42.620  14.568
20504W        W88733  37.031  33.838   0.021
20505W        W88734   6.735  35.103  10.738
20506W        W88735   7.270   3.440   0.233
20507W        W88736   2.478   0.021   4.677
20508W        W88737   5.268  15.856   1.733
20509W        W88738   5.653   5.941  13.895
20510W        W88739   0.278  26.536  13.450
20511W        W88740  14.884   6.821   0.052
20512W        W88741  16.816  36.978  11.140
20513W        W88742  31.947  16.520  13.441
20514W        W88743  17.788   2.771   2.193
20515W        W88744  31.099  17.724   2.304
20516W        W88745  41.943  17.068  11.910
20517W        W88746   4.493   4.758   0.980
20518W        W88747   3.219   8.749   1.220
20519W        W88748  10.909  18.580   4.296
20520W        W88749  13.898  30.569   0.325
20521W        W88750  12.717  14.860  11.437
20522W        W88751  39.873   1.561  11.155
20523W        W88752  16.039  33.006  11.772
20524W        W88753  39.572  14.641   0.950
20525W        W88754   9.824  39.087   2.731
20526W        W88755  14.750  12.800  11.614
20527W        W88756  31.001  37.067   0.306
20528W        W88757   3.470  12.180  12.646
20529W        W88758  30.458  43.723   4.102
20530W        W88759  44.984  15.135   4.325
20531W        W88760  14.230   7.285   2.362
20532W        W88761  34.168  26.181   3.315
20533W        W88762  25.478  15.114   4.320
20534W        W88763   2.198  21.179  12.835
20535W        W88764  32.168  12.168  13.526
20536W        W88765  27.189   1.447   0.061
20537W        W88766  19.537  37.143   4.251
20538W        W88767  12.653  32.351  11.734
20539W        W88768   1.830  19.772  12.346
20540W        W88769  24.415  36.593  10.651
20541W        W88770  33.047  13.382  12.208
20542W        W88771  35.920   9.413  14.704
20543W        W88772  34.016   6.383  12.894
20544W        W88773   6.841  42.038   2.252
20545W        W88774   4.428  25.219   4.815
20546W        W88775   8.278  42.517   1.801
20547W        W88776  15.807   6.965  11.516
20548W        W88777  32.883  33.919   4.265
20549W        W88778  23.666  32.592   4.567
20550W        W88779  29.448   4.790  12.543
20551W        W88780  15.349   6.803  12.332
20552W        W88781  17.622  11.591   3.208
20553W        W88782  18.553  37.605  12.066
20554W        W88783  35.368  10.874  11.766
20555W        W88784  13.309  42.237   0.730
20556W        W88785  13.705  17.833  12.010
20557W        W88786  43.089  10.675  12.370
20558W        W88787  37.898  17.873  12.969
20559W        W88788  32.888   7.714  11.584
20560W        W88789   8.009  23.824  13.394
20561W        W88790  20.611  41.124   4.195
20562W        W88791  10.407  28.893   0.331
20563W        W88792  42.070   1.511   0.550
20564W        W88793  17.654  29.660  13.232
20565W        W88794  11.104   7.288  13.042
20566W        W88795  38.826  15.347   2.704
20567W        W88796   9.380  17.701  11.183
20568W        W88797  26.454  21.365  12.761
20569W        W88798  32.656  10.649   0.219
20570W        W88799  41.286   1.477  14.355
20571W        W88800  26.879  18.089   0.988
20572W        W88801  15.570  36.846  14.299
20573W        W88802  19.684   5.244   1.648
20574W        W88803  37.378  44.414   1.365
20575W        W88804  15.481  31.524  10.339
20576W        W88805  24.709  21.157   5.068
20577W        W88806  21.538  42.485   3.309
20578W        W88807  24.884  40.394  14.813
20579W        W88808  31.582  23.735  11.652
20580W        W88809  26.819  31.653  10.200
20581W        W88810  37.466  11.915  11.912
20582W        W88811  28.515  18.763  14.732
20583W        W88812  36.672   4.666  10.269
20584W        W88813  25.757  31.517  14.746
20585W        W88814  20.560  11.656  14.062
20586W        W88815  28.886  17.739  13.912
20587W        W88816   5.736  38.615   2.450
20588W        W88817   9.832  22.074   1.229
20589W        W88818  39.271  10.133   4.608
20590W        W88819  26.000  12.810  14.390
20591W        W88820   5.187  35.078   0.379
20592W        W88821  38.081   8.870   2.296
20593W        W88822  26.733  41.302   1.452
20594W        W88823  36.508  24.064   3.244
20595W        W88824   7.980  21.214  13.202
20596W        W88825  34.114  29.560   3.336
20597W        W88826  24.141  33.921   0.023
20598W        W88827  42.562  10.736   4.680
20599W        W88828  14.233  30.474  10.487
20600W        W88829  23.156  35.826  11.594
20601W        W88830   1.616  14.211  13.403
20602W        W88831  29.687   2.677  13.914
20603W        W88832  14.689  32.459   3.279
20604W        W88833   8.646  30.145  14.425
20605W        W88834  26.109  31.828   3.768
20606W        W88835  42.632   1.176   2.109
20607W        W88836  32.748  31.473   1.620
20608W        W88837   2.549  10.745  14.948
20609W        W88838   1.035  25.679   1.788
20610W        W88839  20.805   8.173  11.705
20611W        W88840   6.946   8.354   2.928
20612W        W88841  19.649  44.501   4.481
20613W        W88842  24.149   6.154   2.226
20614W        W88843  24.787  12.834   1.950
20615W        W88844   0.842  15.100   3.658
20616W        W88845  30.867  41.536   4.787
20617W        W88846  25.460  33.437   0.335
20618W        W88847  20.705   2.220   0.016
20619W        W88848  38.029  21.323   3.756
20620W        W88849  13.631  15.330  13.092
20621W        W88850  18.268   3.763   3.854
20622W        W88851  44.977  15.058   2.672
20623W        W88852  34.077   9.077  11.103
20624W        W88853  28.066  33.934   3.154
20625W        W88854  31.968   6.435  14.345
20626W        W88855  31.016  31.070   1.165
20627W        W88856  28.591   0.493  10.732
20628W        W88857  35.118  39.870   0.727
20629W        W88858  16.144  27.692  11.523
20630W        W88859  22.488  38.805   0.670
20631W        W88860  37.999  38.505   1.653
20632W        W88861  37.344  36.480   3.692
20633W        W88862  36.436  42.378  14.251
20634W        W88863   7.284  12.800   2.471
20635W        W88864  23.851  30.722   4.771
20636W        W88865  25.892  21.665  13.409
20637W        W88866  16.766  17.944   1.734
20638W        W88867  13.871  41.433   2.327
20639W        W88868  32.920  12.791   2.967
20640W        W88869  22.045  39.546   4.020
20641W        W88870  24.119  11.732   2.737
20642W        W88871  15.193  29.268   3.776
20643W        W88872  25.758   1.728   3.161
20644W        W88873   6.137  26.740  10.919
20645W        W88874   5.807   4.284  13.524
20646W        W88875  25.718  36.412  10.212
20647W        W88876  19.723  31.542  14.569
20648W        W88877   5.823  44.399  12.741
20649W        W88878  29.876  29.844   3.161
20650W        W88879   7.264   2.979  12.933
20651W        W88880  20.924  21.631   0.416
20652W        W88881  28.141   6.253   2.489
20653W        W88882  22.515  32.928  14.049
20654W        W88883  18.997  12.921   4.737
20655W        W88884  26.163  36.273  12.008
20656W        W88885  33.988  29.684  12.782
20657W        W88886  24.600   0.871  14.206
20658W        W88887  39.001   7.237  11.659
20659W        W88888  15.176  14.555   1.837
20660W        W88889  18.044  36.663  13.780
20661W        W88890  14.777  15.703  12.916
20662W        W88891  14.172   5.242  11.054
20663W        W88892  34.588  41.667   0.972
20664W        W88893  11.951  27.928  11.558
20665W        W88894   3.661  34.407   2.117
20666W        W88895  17.457  30.553  10.754
20667W        W88896   7.873  18.102  12.043
20668W        W88897  19.748  28.005  11.120
20669W        W88898  44.426  10.924  14.177
20670W        W88899   8.693  20.808  11.036
20671W        W88900  32.152  25.680   4.541
20672W        W88901   1.028  27.958   9.920
20673W        W88902  12.440  42.781  14.814
20674W        W88903   6.988  42.002   4.057
20675W        W88904   0.029  41.334   3.281
20676W        W88905  38.846  19.717  11.572
20677W        W88906  40.946  36.939  11.888
20678W        W88907  43.957  18.521   0.519
20679W        W88908  26.625   0.980  12.196
20680W        W88909  18.992  34.107   3.265
20681W        W88910   7.646  25.210  12.548
20682W        W88911  32.670  33.313  12.872
20683W        W88912  40.444  28.827   4.159
20684W        W88913   4.937   8.274   3.330
20685W        W88914   0.003  20.198  12.844
20686W        W88915  37.026  14.158  10.397
20687W        W88916   6.919  29.208   3.816
20688W        W88917  40.992  20.687   1.377
20689W        W88918   1.735  13.729   0.790
20690W        W88919   5.621  40.035   0.457
20691W        W88920   2.376  32.719   0.529
20692W        W88921  33.329  33.894  12.673
20693W        W88922   8.592  42.201   3.222
20694W        W88923  38.135  36.928   0.260
20695W        W88924   2.747  39.597  13.616
20696W        W88925  16.369  14.222  10.549
20697W        W88926  36.995   5.863  12.126
20698W        W88927  13.077  23.792   1.736
20699W        W88928   7.347  26.400   0.264
20700W        W88929  25.207  21.113  13.330
20701W        W88930  12.698  20.667   4.024
20702W        W88931  43.986  28.528   4.997
20703W        W88932  12.436  13.461  12.185
20704W        W88933  24.010  44.785   0.796
20705W        W88934  10.722  25.485  12.881
20706W        W88935   4.807  13.026  11.184
20707W        W88936  43.979  17.807   3.336
20708W        W88937  30.646  15.871   3.289
20709W        W88938  32.195  16.770  13.852
20710W        W88939  30.514  29.264  14.888
20711W        W88940   4.163  12.616   3.633
20712W        W88941  42.866  33.609   1.485
20713W        W88942  40.003  29.852   2.733
20714W        W88943   8.493  36.116  11.954
20715W        W88944  39.408   7.020   3.762
20716W        W88945   3.707  44.322   2.740
20717W        W88946  21.694  23.185  13.192
20718W        W88947   2.799  20.658   0.909
20719W        W88948  17.348  19.067   2.873
20720W        W88949  33.671  40.974  11.667
20721W        W88950  39.146  24.593   1.823
20722W        W88951  14.597  26.282  14.173
20723W        W88952  23.005  36.880  12.298
20724W        W88953  33.636  15.170   0.758
20725W        W88954  34.525  28.124  12.910
20726W        W88955   5.859  41.308  12.066
20727W        W88956  20.713  42.347  13.360
20728W        W88957  26.975  21.445  14.840
20729W        W88958  10.076  12.335  14.582
20730W        W88959  35.030  35.290   3.258
20731W        W88960   4.766  21.542   4.817
20732W        W88961  36.034  19.691  11.988
20733W        W88962  24.821  32.408   0.302
20734W        W88963  18.077  36.048   3.230
20735W        W88964  21.989  39.617   5.001
20736W        W88965   5.527  37.363   3.244
20737W        W88966  36.452  31.784  11.118
20738W        W88967  38.817  12.610   0.276
20739W        W88968   7.028  29.515   1.090
20740W        W88969  38.319  24.661   0.443
20741W        W88970   5.218  18.668  14.808
20742W        W88971   2.750  36.529   1.426
20743W        W88972  39.248  43.926  12.513
20744W        W88973  42.913  32.666   2.086
20745W        W88974  41.410  21.542   0.402
20746W        W88975  21.052  43.464   0.627
20747W        W88976  37.855  22.417   4.857
20748W        W88977  33.956  14.338   4.877
20749W        W88978  33.396  39.366  10.333
20750W        W88979  33.523  32.000  14.970
20751W        W88980  17.089  11.191   0.856
20752W        W88981   4.622  23.876  12.735
20753W        W88982  28.878  30.258  13.911
20754W        W88983  41.511   8.341   0.987
20755W        W88984  32.850  30.907  12.068
20756W        W88985  22.913  20.665   2.342
20757W        W88986   8.337  20.873  14.631
20758W        W88987  20.514  33.873   3.314
20759W        W88988  13.970  18.695   0.881
20760W        W88989  25.509  39.845   2.739
20761W        W88990   6.222  40.600   4.631
20762W        W88991  16.603  16.151  12.790
20763W        W88992  25.038  41.329   1.737
20764W        W88993  38.502  39.027   2.307
20765W        W88994  11.850   1.052   0.776
20766W        W88995  22.805  35.741  11.963
20767W        W88996  28.514  12.223   3.515
20768W        W88997  26.070  16.326   4.350
20769W        W88998  38.768   2.389   4.818
20770W        W88999   2.895   4.454   0.400
20771W        W89000  12.376  34.980  12.029
20772W        W89001  25.002  15.250  13.695
20773W        W89002  10.437   6.696   3.191
20774W        W89003   5.530   3.771   0.766
20775W        W89004  12.188  36.719   4.186
20776W        W89005  41.206   6.706  11.603
20777W        W89006   0.227   9.143   3.254
20778W        W89007   4.729  42.876  13.144
20779W        W89008  27.647  38.473   1.940
20780W        W89009  34.056  31.885   0.728
20781W        W89010  30.986  24.122   4.528
20782W        W89011  17.882  43.776   3.371
20783W        W89012  22.476  16.087  12.418
20784W        W89013  25.499   0.823   2.469
20785W        W89014  32.976   8.231  12.296
20786W        W89015   6.403   6.867   2.759
20787W        W89016  34.190  40.960   1.872
20788W        W89017  27.730  27.237   4.626
20789W        W89018  41.639  20.079  13.269
20790W        W89019  36.175  22.279  11.631
20791W        W89020  15.638   2.545  11.513
20792W        W89021  16.169  38.583   0.792
20793W        W89022  36.937  30.559  14.302
20794W        W89023  37.040  37.818   4.333
20795W        W89024  10.351  22.126  13.397
20796W        W89025   4.570  42.292   1.758
20797W        W89026  26.288  38.087   5.746
20798W        W89027  17.685  21.498  10.695
20799W        W89028  13.845  23.997   1.288
20800W        W89029   0.590  44.023  11.441
20801W        W89030  41.049  24.055  11.925
20802W        W89031  29.215  19.539   2.615
20803W        W89032  18.850  37.993  11.042
20804W        W89033  33.782  40.249   0.106
20805W        W89034   4.666  36.886   1.649
20806W        W89035  11.861  30.614   0.306
20807W        W89036  22.128  31.022   3.564
20808W        W89037  16.783  40.545  13.093
20809W        W89038  34.141   5.698  14.398
20810W        W89039  16.991  21.197  14.000
20811W        W89040  42.533  10.216   1.325
20812W        W89041  26.513  23.059   3.277
20813W        W89042  42.057  16.680  11.214
20814W        W89043  31.095  13.088   4.301
20815W        W89044  14.261  14.613  14.573
20816W        W89045  31.656   5.200   3.749
20817W        W89046   3.182  16.429   2.825
20818W        W89047  11.292  10.903  12.708
20819W        W89048  41.936  21.552   0.536
20820W        W89049   9.380  27.036   4.841
20821W        W89050  12.799  25.188  14.411
20822W        W89051  40.397  12.414   0.674
20823W        W89052  13.871  22.648  12.089
20824W        W89053  33.529  29.999  14.709
20825W        W89054  15.704   2.165   1.655
20826W        W89055  15.708  21.160   4.465
20827W        W89056  27.134  23.986  12.902
20828W        W89057  16.718  11.266   1.436
20829W        W89058  23.005  11.179   0.916
20830W        W89059  24.395   4.804  13.930
20831W        W89060  40.025  18.639   1.506
20832W        W89061  23.458   0.736   4.487
20833W        W89062  15.320  39.490  12.467
20834W        W89063  25.852   5.102   4.518
20835W        W89064  17.901  33.424  11.686
20836W        W89065  32.012  13.227   1.497
20837W        W89066  12.323   1.279   2.174
20838W        W89067  30.283  17.617   2.545
20839W        W89068  14.636  21.296  11.072
20840W        W89069  22.129  23.726  14.713
20841W        W89070  26.655  39.255   3.712
20842W        W89071  18.676  40.411   3.679
20843W        W89072  35.072  24.123   0.368
20844W        W89073   9.674  37.549  13.797
20845W        W89074  25.222  25.772  13.013
20846W        W89075   3.952   5.409   0.786
20847W        W89076   7.686  40.512  12.088
20848W        W89077  32.553   8.719   0.902
20849W        W89078  16.626  23.405   0.358
20850W        W89079  33.093  37.582   4.107
20851W        W89080   2.390  14.982   2.751
20852W        W89081   0.925  11.861  11.045
20853W        W89082   9.683  37.852   2.294
20854W        W89083  24.871  23.692   0.932
20855W        W89084   2.145  22.163  12.829
20856W        W89085   2.454   9.846  13.369
20857W        W89086  13.102  31.570  13.098
20858W        W89087  36.366   4.756   4.196
20859W        W89088  36.976  15.546  11.317
20860W        W89089  41.051  36.879  11.148
20861W        W89090  32.327  31.384   1.968
20862W        W89091  17.355  37.485   3.568
20863W        W89092  24.203  19.743   0.673
20864W        W89093   7.274  22.654   4.064
20865W        W89094  28.284  43.799  12.283
20866W        W89095  35.508  36.162  14.949
20867W        W89096  14.536  38.096   0.179
20868W        W89097   9.173  35.121   2.836
20869W        W89098   9.147  20.134  11.123
20870W        W89099  27.994  16.370   1.880
20871W        W89100  11.561  17.205   3.059
20872W        W89101  34.384   0.422   2.697
20873W        W89102   3.693  15.213   0.748
20874W        W89103   2.552   2.675  11.514
20875W        W89104  25.903  20.412   4.497
20876W        W89105  11.447   0.231  11.149
20877W        W89106  32.778  31.631   0.299
20878W        W89107  25.748  29.635  14.426
20879W        W89108  24.236   8.999   0.862
20880W        W89109  11.806  43.385   2.217
20881W        W89110   8.882  39.210   4.486
20882W        W89111  12.382  37.530  13.868
20883W        W89112  27.128  31.038   2.862
20884W        W89113  17.218  36.085   0.025
20885W        W89114  20.211   2.173   0.263
20886W        W89115  43.878  10.834   3.199
20887W        W89116  43.334  27.529  14.085
20888W        W89117  38.856  39.735   2.148
20889W        W89118   3.903  38.792  10.177
20890W        W89119   9.234  25.936   3.213
20891W        W89120  32.956  20.276   1.355
20892W        W89121   4.299   6.664   0.620
20893W        W89122  14.364  21.640  14.847
20894W        W89123  38.252  24.226   1.474
20895W        W89124  18.433  27.186   3.149
20896W        W89125  42.610  34.056  13.961
20897W        W89126  31.994  30.184  14.819
20898W        W89127  14.722  10.118  11.903
20899W        W89128   9.463  30.943   1.344
20900W        W89129  30.145  36.440   0.826
20901W        W89130  33.474  10.052   2.469
20902W        W89131  19.028  34.331  11.490
20903W        W89132  31.525  11.063   0.410
20904W        W89133  14.670  27.903  14.382
20905W        W89134  35.899  31.496  14.905
20906W        W89135  28.095  36.896  13.589
20907W        W89136  39.551  17.519   3.186
20908W        W89137  37.168  21.683  12.380
20909W        W89138  26.852   4.659  12.362
20910W        W89139  36.810  12.817  11.038
20911W        W89140  34.029  13.794  10.575
20912W        W89141  33.380  33.653   2.223
20913W        W89142   2.011  22.187   1.747
20914W        W89143  13.067  24.334   1.793
20915W        W89144  11.408  36.620   1.345
20916W        W89145   1.441  34.500   1.417
20917W        W89146   1.463  28.082   4.699
20918W        W89147  16.108  35.607   4.159
20919W        W89148  10.090  25.515   2.751
20920W        W89149   6.739  15.399   2.079
20921W        W89150  18.866  18.468   4.021
20922W        W89151  12.801  13.328   3.584
20923W        W89152  21.630  18.037   4.535
20924W        W89153   5.740  41.281   4.133
20925W        W89154  29.808  17.369  10.257
20926W        W89155   7.785  10.654   0.552
20927W        W89156  18.128  40.160  13.673
20928W        W89157  44.430  36.668  14.393
20929W        W89158  22.154   6.688   1.262
20930W        W89159  33.669  22.325  14.555
20931W        W89160  25.208  23.782   2.265
20932W        W89161  38.252   3.448   2.044
20933W        W89162  26.443  14.992   1.681
20934W        W89163   7.830  42.831   4.675
20935W        W89164  34.135   5.883  11.118
20936W        W89165   4.443   4.329  11.196
20937W        W89166  37.027  16.446  11.608
20938W        W89167  31.089  12.422   2.432
20939W        W89168  28.680  35.579  14.260
20940W        W89169  34.584  38.876  13.421
20941W        W89170  42.965   4.833  11.045
20942W        W89171  12.399  14.803   4.162
20943W        W89172  36.657  28.055  14.367
20944W        W89173  35.094  33.064   0.573
20945W        W89174   3.941  28.462  10.767
20946W        W89175  28.571   7.486   0.736
20947W        W89176  21.217  24.569  12.072
20948W        W89177  20.945  24.157   0.916
20949W        W89178  38.560   4.320   4.315
20950W        W89179  31.002  37.048  11.427
20951W        W89180   6.653   0.312   3.672
20952W        W89181  33.961   6.738  13.360
20953W        W89182  34.492  23.158   3.403
20954W        W89183   8.871  25.365   1.252
20955W        W89184  40.057  25.629  13.767
20956W        W89185  16.358  15.897  14.982
20957W        W89186  34.559  37.615  14.426
20958W        W89187   9.663  38.910  13.418
20959W        W89188  12.909  37.312   2.654
20960W        W89189  41.279  23.766  11.091
20961W        W89190   8.510  24.280  11.971
20962W        W89191   5.285  10.107   3.200
20963W        W89192  30.088  11.288  10.467
20964W        W89193   3.286  34.499  13.828
20965W        W89194  36.973   5.965   4.065
20966W        W89195  26.641  41.603   3.208
20967W        W89196  21.486  29.080  13.150
20968W        W89197  37.582   8.738  13.517
20969W        W89198  13.187   2.614   1.255
20970W        W89199  20.261  22.588  13.879
20971W        W89200  26.805  15.868  14.317
20972W        W89201  38.055  32.015  14.359
20973W        W89202  38.427  19.799   1.421
20974W        W89203   5.970  28.140  13.913
20975W        W89204  20.118  34.443   0.971
20976W        W89205   4.180  25.526   0.804
20977W        W89206  31.996  11.271  12.899
20978W        W89207  35.386  14.422  14.078
20979W        W89208  39.636  35.925   1.419
20980W        W89209   0.011   9.441   1.975
20981W        W89210  16.148  43.908   2.234
20982W        W89211  13.567  21.901  11.051
20983W        W89212  42.602   8.271  12.754
20984W        W89213  19.670  37.184  14.240
20985W        W89214   2.956   6.531  13.455
20986W        W89215  34.999  11.111  10.679
20987W        W89216  19.685  13.408   4.344
20988W        W89217  11.401  38.409   3.284
20989W        W89218  22.564  14.147   4.541
20990W        W89219  25.906  23.133   3.859
20991W        W89220  23.041  13.362   0.838
20992W        W89221  44.906  18.531  12.013
20993W        W89222   3.436  21.667   1.771
20994W        W89223  19.238  31.393   2.626
20995W        W89224  32.494  16.809  14.277
20996W        W89225  29.040  29.917   3.751
20997W        W89226  13.154   9.921  12.312
20998W        W89227  30.448   5.306   3.210
20999W        W89228  26.487  44.050  14.022
21000W        W89229   2.200  22.793   3.109
21001W        W89230  25.399  13.485  10.849
21002W        W89231  31.483  13.146  10.544
21003W        W89232   6.449   3.714   3.168
21004W        W89233  23.996  39.819  13.983
21005W        W89234  15.118  33.475   2.082
21006W        W89235   7.851  39.478   1.399
21007W        W89236  30.293  26.977  13.386
21008W        W89237  40.782  14.109  13.003
21009W        W89238   4.471  15.381   1.883
21010W        W89239   3.476  26.485  13.294
21011W        W89240  28.660   5.210  11.468
21012W        W89241  17.757  16.050   1.789
21013W        W89242  23.594   9.596   1.015
21014W        W89243  21.718  42.434  13.457
21015W        W89244   2.339  23.651   4.533
21016W        W89245   7.645  12.412  11.335
21017W        W89246  27.152  14.857  11.661
21018W        W89247  15.696  18.726   1.736
21019W        W89248  30.485   5.326  11.092
21020W        W89249  29.591  25.844  12.661
21021W        W89250   0.897  22.283  10.340
21022W        W89251  10.253  41.117   3.341
21023W        W89252   2.488  35.041   1.182
21024W        W89253  43.605  10.245  12.053
21025W        W89254  16.176  11.182   4.784
21026W        W89255  11.681   1.705  14.276
21027W        W89256  25.636  43.260  13.703
21028W        W89257  28.514  39.354  14.030
21029W        W89258  26.597   2.984   3.272
21030W        W89259  38.559  34.012   0.936
21031W        W89260   8.243  12.762   0.842
21032W        W89261  40.328   0.416  13.311
21033W        W89262  11.781   7.270  10.953
21034W        W89263  31.369  28.708  10.930
21035W        W89264  25.738  38.970   2.891
21036W        W89265  44.301  11.838  10.716
21037W        W89266  21.599  26.150  10.728
21038W        W89267  30.113  39.700  10.764
21039W        W89268  11.701  44.600   4.582
21040W        W89269  25.130  28.965   0.480
21041W        W89270  42.362   2.333   4.578
21042W        W89271  37.545  18.752   4.111
21043W        W89272  12.909   2.289  11.084
21044W        W89273   8.695  43.827  11.407
21045W        W89274  36.966   5.742   3.179
21046W        W89275  37.249   5.396   9.970
21047W        W89276   5.650  32.488   1.442
21048W        W89277  10.708  36.866   2.757
21049W        W89278  19.169  23.543  12.997
21050W        W89279  12.214  10.644   1.784
21051W        W89280  31.614  32.881   4.138
21052W        W89281  41.683  20.490   1.835
21053W        W89282  40.046  11.163  14.978
21054W        W89283  23.464  32.838   5.014
21055W        W89284   0.020  40.131   0.951
21056W        W89285  31.437  29.002   4.890
21057W        W89286  38.150  12.079   1.371
21058W        W89287   0.436   1.804  10.734
21059W        W89288  18.774  13.870   1.239
21060W        W89289  43.048  21.100   0.792
21061W        W89290  42.842   8.290   1.766
21062W        W89291  27.658  29.885  10.209
21063W        W89292  27.702   3.371  14.372
21064W        W89293  34.564  38.646  14.438
21065W        W89294  31.129   9.419  12.861
21066W        W89295  11.762   4.411   1.863
21067W        W89296  30.065  43.878  12.523
21068W        W89297  18.102   5.833   2.101
21069W        W89298   6.791  22.178  14.508
21070W        W89299   1.003  40.336   3.667
21071W        W89300   7.825  22.274  11.078
21072W        W89301  21.764   0.916  11.474
21073W        W89302  22.827   9.850  11.699
21074W        W89303  40.161  25.528  14.283
21075W        W89304  19.995  23.078  14.817
21076W        W89305  18.148  23.067   1.744
21077W        W89306  24.377   6.250   4.092
21078W        W89307  17.965  43.514  12.929
21079W        W89308  10.463  32.817  12.463
21080W        W89309  18.530  33.477  14.905
21081W        W89310  18.573  17.270   2.436
21082W        W89311   7.381  18.899  11.244
21083W        W89312  36.358   7.874   2.853
21084W        W89313  35.241   3.716  12.493
21085W        W89314  17.779   8.649   0.454
21086W        W89315  23.791  26.695  10.930
21087W        W89316  20.622  29.283  14.168
21088W        W89317  35.779  14.600   0.811
21089W        W89318  43.743  39.442   4.617
21090W        W89319  20.061   4.409   4.844
21091W        W89320   8.321  16.233   1.409
21092W        W89321   6.126   1.775  12.525
21093W        W89322  15.200   9.782  13.969
21094W        W89323  21.508  44.536   0.716
21095W        W89324   2.478  22.475   2.810
21096W        W89325  37.923  43.760   0.274
21097W        W89326  30.591  27.391   3.986
21098W        W89327   7.061   7.099  13.513
21099W        W89328  34.130   7.186   4.093
21100W        W89329  33.629  13.574   5.010
21101W        W89330  16.168   9.395  13.680
21102W        W89331  44.760   5.233  14.378
21103W        W89332  10.570  38.108   1.731
21104W        W89333  18.126  20.546   9.850
21105W        W89334  15.992  42.786  10.145
21106W        W89335  15.889  20.582   0.420
21107W        W89336  29.361  20.651   1.486
21108W        W89337  19.259  27.462   3.188
21109W        W89338   4.446   6.732   0.152
21110W        W89339  41.562  18.959   2.876
21111W        W89340  26.958   6.824   2.097
21112W        W89341   6.486  23.557  10.757
21113W        W89342   1.809  21.992   2.701
21114W        W89343   6.149  39.146   2.661
21115W        W89344  18.782  29.572  10.822
21116W        W89345  19.696  11.338   0.486
21117W        W89346  33.651  32.880  10.144
21118W        W89347  36.898  17.345   4.941
21119W        W89348  18.024   4.947   0.895
21120W        W89349  12.209   1.283   1.146
21121W        W89350   7.350  23.042   1.271
21122W        W89351  33.655  41.406  13.883
21123W        W89352  25.416  11.321  12.977
21124W        W89353  21.850  24.654   2.455
21125W        W89354  38.041  18.166  10.306
21126W        W89355   4.720   6.593   4.575
21127W        W89356   3.058  20.150   1.400
21128W        W89357   7.391  38.157   2.397
21129W        W89358  18.184   9.974   3.679
21130W        W89359  27.117  13.389   0.940
21131W        W89360  14.197  40.985  12.614
21132W        W89361  35.281  22.088  14.598
21133W        W89362  37.480  29.918   4.188
21134W        W89363  41.089  26.013   3.655
21135W        W89364  14.822  23.217  14.009
21136W        W89365  12.737  44.497   3.203
21137W        W89366  27.213   0.484   1.249
21138W        W89367  28.558  16.772   4.203
21139W        W89368  18.543  22.567  11.828
21140W        W89369  22.669   2.708   4.677
21141W        W89370   4.470   9.125  11.364
21142W        W89371   7.259   5.399   1.358
21143W        W89372  10.244   2.305   4.613
21144W        W89373   3.282  31.924   4.571
21145W        W89374  17.552  34.486   2.243
21146W        W89375  35.389  26.741   0.818
21147W        W89376  27.226  18.407  14.495
21148W        W89377  29.082   7.305  10.420
21149W        W89378  38.165  33.327   2.130
21150W        W89379  28.896  37.489  13.320
21151W        W89380  24.760  21.941   2.756
21152W        W89381  12.904  14.784  13.784
21153W        W89382  27.185  32.924   0.205
21154W        W89383  36.063  10.148   0.384
21155W        W89384  28.550  15.278   1.083
21156W        W89385   4.353   5.351   1.973
21157W        W89386  32.426  11.305  12.072
21158W        W89387   9.586  23.575   4.304
21159W        W89388  19.558   4.116   4.314
21160W        W89389  26.490  13.357  11.351
21161W        W89390  26.335  26.451   4.955
21162W        W89391   8.283   6.691  14.044
21163W        W89392  14.617  38.345   1.833
21164W        W89393  10.248  41.501  14.819
21165W        W89394   3.550  33.579  13.941
21166W        W89395  30.368   0.995  14.338
21167W        W89396  31.098  16.746  12.049
21168W        W89397  38.945   4.744  13.088
21169W        W89398   9.745  12.649   2.416
21170W        W89399  31.554  21.993  13.991
21171W        W89400  15.089   4.232   0.850
21172W        W89401  22.372   1.961   0.559
21173W        W89402  12.582   5.838  10.720
21174W        W89403  40.011  20.325  11.735
21175W        W89404  16.284  21.033   0.310
21176W        W89405  21.786  16.889   1.855
21177W        W89406  36.779  38.229  14.444
21178W        W89407  15.561  22.975   4.541
21179W        W89408  41.810  35.384  14.920
21180W        W89409   4.746  11.445   2.699
21181W        W89410  38.429  41.844  14.272
21182W        W89411   9.567   5.900  10.648
21183W        W89412  22.016  25.161   2.690
21184W        W89413  21.991  38.546  11.081
21185W        W89414  26.708   4.646   0.350
21186W        W89415   9.958  16.543   4.037
21187W        W89416   2.236  41.627  14.031
21188W        W89417  32.273  32.472  10.727
21189W        W89418  42.019  33.594   0.728
21190W        W89419  23.411   1.977  12.337
21191W        W89420  32.152  12.299   4.132
21192W        W89421  43.983  41.910   4.947
21193W        W89422  27.101  31.165  13.500
21194W        W89423  29.851  31.871   2.743
21195W        W89424  23.771  21.524   1.678
21196W        W89425   8.372  27.182   1.781
21197W        W89426  33.624  24.180   5.395
21198W        W89427  17.110  11.678  12.991
21199W        W89428  38.008  21.662   4.202
21200W        W89429  15.077  16.091  11.228
21201W        W89430  31.610  34.687   2.790
21202W        W89431  25.981   2.333   2.281
21203W        W89432   2.383  21.834   1.642
21204W        W89433  11.150  39.025  13.508
21205W        W89434  38.378  24.411  13.878
21206W        W89435  31.329  35.982   0.896
21207W        W89436   8.043  39.570   2.884
21208W        W89437  16.604  13.168   2.390
21209W        W89438   3.316  30.359   0.527
21210W        W89439  10.766  20.244  11.594
21211W        W89440  21.138  20.981  10.947
21212W        W89441  22.744  32.547   0.361
21213W        W89442  33.120   7.237  14.425
21214W        W89443  17.143  10.180   4.167
21215W        W89444  38.092  20.262   3.794
21216W        W89445  34.823  41.894   0.471
21217W        W89446   6.645  22.293   1.445
21218W        W89447  31.410  25.581   3.088
21219W        W89448  17.324  36.869  12.089
21220W        W89449  36.637  20.565   3.656
21221W        W89450   3.211  26.186  10.635
21222W        W89451  35.761  31.827  10.582
21223W        W89452  25.387   9.700  13.382
21224W        W89453   4.135   0.891   0.974
21225W        W89454  24.922  38.948  12.160
21226W        W89455  32.998  39.273   3.183
21227W        W89456  19.773  26.398  14.963
21228W        W89457  15.530  15.620   4.596
21229W        W89458  12.989  20.069   2.894
21230W        W89459  13.249   5.081  14.386
21231W        W89460   6.315  21.808  13.367
21232W        W89461  16.197  40.374   4.821
21233W        W89462  40.519  10.276  13.517
21234W        W89463  30.753  42.500   0.872
21235W        W89464  15.621  12.320   4.559
21236W        W89465  19.227   4.386   1.920
21237W        W89466  37.610  22.305   0.890
21238W        W89467  37.867  29.731  12.078
21239W        W89468   9.371  33.087   2.802
21240W        W89469  31.952  22.099   3.526
21241W        W89470  13.833  31.780  11.551
21242W        W89471  37.899   1.299  10.889
21243W        W89472  43.128  15.727   4.140
21244W        W89473  18.519   7.315  10.651
21245W        W89474  40.384  37.942   2.639
21246W        W89475  22.742  24.651   0.510
21247W        W89476  12.853  20.643  13.744
21248W        W89477  11.180  13.308  12.411
21249W        W89478  11.766  10.303  10.830
21250W        W89479  19.275  24.950  14.049
21251W        W89480  41.064  18.179  12.385
21252W        W89481  29.983  24.177   4.943
21253W        W89482  32.858  23.216   0.426
21254W        W89483  24.475   6.837   0.667
21255W        W89484  27.805  34.860  13.508
21256W        W89485   4.425   1.302  10.423
21257W        W89486   1.602   5.306  14.391
21258W        W89487  26.046  28.062   4.408
21259W        W89488  36.797  17.251  13.431
21260W        W89489  41.596  38.620  12.542
21261W        W89490  16.321  12.729  14.245
21262W        W89491  22.010  43.380   3.300
21263W        W89492  17.025  16.853  12.378
21264W        W89493  19.566  19.532   0.800
21265W        W89494  33.921   3.340  14.628
21266W        W89495   1.373  25.051  12.838
21267W        W89496   9.835  41.460  12.542
21268W        W89497  26.615  24.668  12.990
21269W        W89498  23.249  34.928   0.479
21270W        W89499  24.756  30.019   2.802
21271W        W89500  36.850  35.072  14.335
21272W        W89501  34.844  25.104  13.479
21273W        W89502  22.118  40.886   0.270
21274W        W89503   7.388   1.342  11.031
21275W        W89504  20.246  38.031  12.136
21276W        W89505  23.004  43.257   1.842
21277W        W89506   0.805  18.527   4.177
21278W        W89507  35.576  35.380   4.943
21279W        W89508  11.606  28.824  11.516
21280W        W89509  18.720  32.024   3.620
21281W        W89510   1.411  31.095   3.385
21282W        W89511  17.576  13.112   1.483
21283W        W89512   8.240   9.335   0.189
21284W        W89513  40.313  37.017   4.578
21285W        W89514  18.608  26.216  14.471
21286W        W89515  20.745  19.106  13.079
21287W        W89516  40.009  20.445  13.907
21288W        W89517  36.173   1.949   5.007
21289W        W89518   5.686  34.365  13.905
21290W        W89519  37.378  41.609  13.384
21291W        W89520   4.709  19.568   5.010
21292W        W89521  14.664  37.613  10.754
21293W        W89522  10.262  14.816   3.894
21294W        W89523  18.761  32.687   3.739
21295W        W89524  30.705  14.644  14.867
21296W        W89525  41.854   4.384  13.433
21297W        W89526  28.678  28.319   4.294
21298W        W89527  11.652   2.583   2.924
21299W        W89528  31.150  21.193   1.746
21300W        W89529  12.748  13.268  12.793
21301W        W89530  34.897  10.094   4.668
21302W        W89531  38.316   0.307   3.790
21303W        W89532  15.579  42.338  13.660
21304W        W89533   2.754   2.113   2.853
21305W        W89534  22.583   5.016   1.681
21306W        W89535  32.267  24.049   4.357
21307W        W89536  39.149  29.461   0.650
21308W        W89537  40.591  31.374  13.627
21309W        W89538  39.323  21.812  11.119
21310W        W89539   3.453  24.205   2.208
21311W        W89540  31.979  24.455  11.410
21312W        W89541  11.977  36.653   2.454
21313W        W89542   5.543  13.530  12.583
21314W        W89543  23.355  35.282   2.802
21315W        W89544  36.622  29.996   5.378
21316W        W89545  13.989  27.928   1.855
21317W        W89546   1.803  38.972   2.686
21318W        W89547   7.744  13.576   3.767
21319W        W89548  39.435  42.245   0.702
21320W        W89549  23.957  43.359   1.373
21321W        W89550  26.922  19.091   2.394
21322W        W89551  40.106   8.498  13.271
21323W        W89552   5.404  40.507   4.322
21324W        W89553  25.529  18.044   2.759
21325W        W89554  15.352   7.921   1.874
21326W        W89555  17.042  16.565   0.081
21327W        W89556  20.602  22.759  14.529
21328W        W89557  24.076  28.528  13.481
21329W        W89558  15.343  22.540  14.935
21330W        W89559  30.387  35.675  14.508
21331W        W89560  20.931  20.153  12.909
21332W        W89561   5.349  28.923  13.353
21333W        W89562  29.049  24.417  10.473
21334W        W89563  20.202  34.896  11.152
21335W        W89564  23.439  33.172  11.560
21336W        W89565   2.784  35.579   4.177
21337W        W89566  37.556   1.011   2.576
21338W        W89567  40.851  25.997   4.657
21339W        W89568  38.899   4.478  11.682
21340W        W89569  14.058   8.579  10.985
21341W        W89570  26.207   9.702  13.070
21342W        W89571  32.994  32.061  13.170
21343W        W89572   2.903  19.214  11.633
21344W        W89573  34.898  21.653  13.518
21345W        W89574  10.294  22.028   9.953
21346W        W89575  30.862  24.983   2.236
21347W        W89576   8.421  39.032   4.652
21348W        W89577   5.225   3.422   2.044
21349W        W89578  39.081  34.981  13.069
21350W        W89579  38.534   9.308  14.021
21351W        W89580  34.237  34.120  10.990
21352W        W89581   5.201   3.191   2.599
21353W        W89582   9.462  22.690   3.159
21354W        W89583   7.935   9.887   2.438
21355W        W89584  16.139   2.351  14.698
21356W        W89585  34.053  38.911   5.028
21357W        W89586  44.296  13.276   2.915
21358W        W89587   9.770  37.989  13.519
21359W        W89588   4.488  34.363   3.187
21360W        W89589  31.532  18.561  12.151
21361W        W89590  44.651  16.092   3.660
21362W        W89591  15.083  13.272  13.537
21363W        W89592  14.206   0.764  12.412
21364W        W89593  12.130  24.712  10.670
21365W        W89594  23.153  25.235   0.478
21366W        W89595  14.544  38.957  11.192
21367W        W89596  28.700  23.277  11.236
21368W        W89597  43.283  33.050  12.479
21369W        W89598  28.076  42.610   1.739
21370W        W89599  28.315  43.505  13.324
21371W        W89600  17.045  12.863   3.323
21372W        W89601  29.059  14.882   4.565
21373W        W89602  10.222  34.069  10.965
21374W        W89603  16.714  44.375  13.211
21375W        W89604  25.181  15.473  11.246
21376W        W89605   1.636   1.407  13.018
21377W        W89606  16.820  33.044  11.125
21378W        W89607  19.565  26.261   4.111
21379W        W89608  14.260  15.817  14.874
21380W        W89609  43.349  42.573   1.863
21381W        W89610  37.414  23.255   1.248
21382W        W89611  17.348  37.386  11.521
21383W        W89612  19.726  41.419  12.504
21384W        W89613  20.068  33.472  13.787
21385W        W89614  30.994  38.334   0.653
21386W        W89615   5.911  12.343  12.073
21387W        W89616  36.473   2.968  11.646
21388W        W89617  31.006   7.885  14.045
21389W        W89618  30.058  19.768  13.945
21390W        W89619   6.865   3.806   0.257
21391W        W89620  29.091   0.443  13.423
21392W        W89621  15.598  15.337  13.252
21393W        W89622  32.588  15.018   2.706
21394W        W89623  16.486  22.108  12.857
21395W        W89624  40.259  30.949   0.760
21396W        W89625   7.791  23.101  12.075
21397W        W89626  16.795  14.276   2.193
21398W        W89627  41.011  31.972  12.584
21399W        W89628   7.399  22.121   4.664
21400W        W89629  35.679   5.965  13.477
21401W        W89630   7.853   4.441  11.204
21402W        W89631   9.192  44.791  12.082
21403W        W89632  29.284   3.413   5.269
21404W        W89633  12.086   8.557  11.027
21405W        W89634  33.872  27.686  13.139
21406W        W89635  30.591  22.319   2.843
21407W        W89636   2.439  34.545   1.313
21408W        W89637   5.655  43.547  14.938
21409W        W89638   5.212   2.808   2.251
21410W        W89639  23.949  14.636  11.950
21411W        W89640   0.317  11.385   3.845
21412W        W89641  25.237  41.297   2.686
21413W        W89642  41.879   2.432   3.815
21414W        W89643   4.711   9.156  11.822
21415W        W89644  31.367  44.991  13.318
21416W        W89645  41.027  14.310   4.444
21417W        W89646  23.179  38.029   4.364
21418W        W89647  21.085  16.147  13.445
21419W        W89648  11.918  36.216  13.938
21420W        W89649  22.352  41.251  13.499
21421W        W89650  33.098   6.331  13.818
21422W        W89651  23.158  32.162   1.421
21423W        W89652  13.721   6.227  12.708
21424W        W89653  42.714  34.972  11.503
21425W        W89654  38.808  22.264   4.458
21426W        W89655   6.997   2.975  14.931
21427W        W89656  31.131  26.850   3.332
21428W        W89657  34.948  26.916   0.196
21429W        W89658  40.886  14.551   0.401
21430W        W89659  26.198  29.626  10.572
21431W        W89660  41.306  43.907  12.863
21432W        W89661  41.372  22.582   4.744
21433W        W89662  42.481  12.352   3.757
21434W        W89663  43.485  30.269  11.597
21435W        W89664  44.327  24.596  14.865
21436W        W89665  20.584  23.910  12.609
21437W        W89666  43.600  15.607  11.215
21438W        W89667  44.447  36.293  12.862
21439W        W89668  29.709  37.181   2.682
21440W        W89669  28.144  28.766   3.210
21441W        W89670  36.364  11.873   2.503
21442W        W89671  20.275  44.462  14.493
21443W        W89672   6.723  13.693  10.608
21444W        W89673  16.589  19.560   0.747
21445W        W89674  38.256  21.045   3.333
21446W        W89675  17.481  28.938  12.544
21447W        W89676  10.585  39.313   4.750
21448W        W89677  27.529  29.050   5.028
21449W        W89678  39.604  13.962  13.838
21450W        W89679  36.198  39.348   2.863
21451W        W89680  11.840  30.084   0.056
21452W        W89681   6.127  27.628   1.688
21453W        W89682  18.469  38.073   1.428
21454W        W89683  32.063  15.319  11.402
21455W        W89684   7.175  35.451  13.367
21456W        W89685  21.096  19.641   1.838
21457W        W89686  22.251  31.939   3.113
21458W        W89687  19.157  14.325   1.687
21459W        W89688  33.101  24.187  13.442
21460W        W89689  38.011  26.094  12.012
21461W        W89690   8.465  39.332   4.188
21462W        W89691   5.893   4.322  11.183
21463W        W89692   2.907  12.422   4.172
21464W        W89693  14.043   6.225  14.414
21465W        W89694  35.155  39.920   3.826
21466W        W89695  36.652   6.298  12.607
21467W        W89696  24.674  28.982  12.589
21468W        W89697   0.526  43.340   0.304
21469W        W89698   8.374  24.509  10.632
21470W        W89699   7.584  14.102   0.245
21471W        W89700  26.131  33.837   2.152
21472W        W89701  39.116  28.623   1.626
21473W        W89702  21.580  44.007  10.973
21474W        W89703  35.797   6.253   4.188
21475W        W89704   9.194   2.470  10.766
21476W        W89705  21.057  22.634   3.377
21477W        W89706  25.640   8.753  10.717
21478W        W89707  30.567  40.980  13.554
21479W        W89708  29.050  41.530   0.957
21480W        W89709  29.280  34.172  10.033
21481W        W89710  17.087  14.791  13.011
21482W        W89711  35.568  31.946   3.691
21483W        W89712  26.213  11.772   2.280
21484W        W89713  30.727  19.836  12.379
21485W        W89714   9.613  36.615  12.702
21486W        W89715  44.010  38.374   2.796
21487W        W89716  39.937  31.950   3.737
21488W        W89717  18.603  31.919   3.134
21489W        W89718  30.965   3.347  10.778
21490W        W89719  27.041  38.518  11.135
21491W        W89720  37.513  39.801   0.102
21492W        W89721  13.589   0.924   4.655
21493W        W89722  42.422  23.529   4.540
21494W        W89723  13.021  36.217   4.303
21495W        W89724   7.413   1.881   4.621
21496W        W89725  38.310  25.712   3.208
21497W        W89726   0.508  21.284   1.975
21498W        W89727  18.768  41.072   4.976
21499W        W89728   6.729  40.435  14.027
21500W        W89729  29.192  19.656  12.320
21501W        W89730  43.467  36.571  11.942
21502W        W89731  22.766  38.544  11.593
21503W        W89732   9.221  26.044  13.936
21504W        W89733  33.350   9.392  11.619
21505W        W89734   2.445  44.255   1.686
21506W        W89735  24.789  19.637   0.782
21507W        W89736  37.875  37.842  14.417
21508W        W89737  16.843  15.712  14.113
21509W        W89738  35.364   5.227   0.635
21510W        W89739   0.263  31.838  12.943
21511W        W89740  37.531  15.665  13.436
21512W        W89741  26.972  15.091   1.712
21513W        W89742  21.606  41.609   2.155
21514W        W89743   3.431  13.555  11.054
21515W        W89744  32.420  28.847   0.927
21516W        W89745   3.457   9.628  10.658
21517W        W89746   6.265  24.431   4.491
21518W        W89747  35.920  34.446   3.156
21519W        W89748  35.851  37.771  12.490
21520W        W89749   3.919  31.918  11.552
21521W        W89750  44.862  16.081  14.823
21522W        W89751  15.876  12.351   4.120
21523W        W89752  39.330  14.603   3.646
21524W        W89753  44.029  14.517  14.092
21525W        W89754   6.788  26.906   2.174
21526W        W89755   7.732  10.944  13.527
21527W        W89756  26.596  34.101  11.221
21528W        W89757   5.404  28.264  11.494
21529W        W89758   7.518  35.494  11.262
21530W        W89759  11.175  38.417   0.911
21531W        W89760  29.215  22.304  12.033
21532W        W89761  33.544  23.734  13.994
21533W        W89762  28.303  38.213   0.777
21534W        W89763  17.892  27.108  11.396
21535W        W89764   5.537  15.202  13.124
21536W        W89765   7.861  24.906  13.461
21537W        W89766  33.530  14.131   3.652
21538W        W89767  44.200   8.674   2.237
21539W        W89768  33.963  33.025  13.436
21540W        W89769  28.212  26.548   4.079
21541W        W89770   8.035  15.548   3.230
21542W        W89771  21.494  20.154  13.885
21543W        W89772   1.456  32.557   2.203
21544W        W89773  28.486   1.804  11.160
21545W        W89774  22.682  24.075  14.343
21546W        W89775  44.811  42.587  13.828
21547W        W89776  15.214  32.797  13.288
21548W        W89777   0.996  29.456  14.341
21549W        W89778  31.925   0.626   5.037
21550W        W89779  15.860  34.095   0.366
21551W        W89780  41.783  30.391  14.469
21552W        W89781  42.569  12.734   2.818
21553W        W89782  36.656   0.967   4.143
21554W        W89783  27.148  13.405   5.048
21555W        W89784   0.253  35.429  14.888
21556W        W89785   6.331  11.987  13.866
21557W        W89786  31.313   2.822  14.931
21558W        W89787  11.649  20.108  11.613
21559W        W89788   8.120  23.696  14.782
21560W        W89789  18.319  10.592   0.190
21561W        W89790  32.009  43.250   0.975
21562W        W89791  34.836  13.890   1.784
21563W        W89792  35.573  35.822   2.265
21564W        W89793  40.246  33.914  13.431
21565W        W89794  30.374  42.450  11.460
21566W        W89795  16.244  40.887   3.110
21567W        W89796   5.301  26.177  13.134
21568W        W89797  10.707  41.846  14.353
21569W        W89798  32.717   6.752  10.767
21570W        W89799  28.145  31.637  11.303
21571W        W89800  44.355  35.974   4.268
21572W        W89801  39.790  31.131   0.662
21573W        W89802  18.593  13.673   2.257
21574W        W89803   7.952  44.281  13.864
21575W        W89804   2.272  31.446   1.269
21576W        W89805  44.221  43.297   3.270
21577W        W89806  43.472  38.778  13.837
21578W        W89807  21.127  33.487   3.455
21579W        W89808  25.168  25.711   4.071
21580W        W89809  32.122  40.285   0.433
21581W        W89810  42.497   8.909  12.115
21582W        W89811  41.915   4.381  11.352
21583W        W89812  43.480   3.707  12.067
21584W        W89813  39.285  41.862  13.786
21585W        W89814  24.854  22.932  14.595
21586W        W89815  15.363  35.516  11.607
21587W        W89816   5.766  19.562   3.236
21588W        W89817  39.797  29.113   3.251
21589W        W89818  35.896   2.802  11.616
21590W        W89819  14.542  11.699   1.660
21591W        W89820   7.761   3.621   0.238
21592W        W89821  26.122  33.193   0.413
21593W        W89822  35.529  18.709   5.125
21594W        W89823  14.711  13.187   1.810
21595W        W89824  26.707   0.748   1.868
21596W        W89825   5.651   9.953   0.320
21597W        W89826  13.577   7.134   0.230
21598W        W89827  11.412  40.734   1.482
21599W        W89828   8.834   3.102   5.110
21600W        W89829   2.785  40.022   0.818
21601W        W89830   3.917  28.883   0.706
21602W        W89831  44.611   9.722  14.393
21603W        W89832  42.406  17.772  14.404
21604W        W89833  20.570  31.436   0.081
21605W        W89834  17.660  36.774  11.444
21606W        W89835   7.952   9.691  11.104
21607W        W89836  42.750   9.749   1.429
21608W        W89837  42.364  30.982   0.702
21609W        W89838  24.535  44.239   4.327
21610W        W89839  26.658  32.894   0.295
21611W        W89840   6.384  39.515   4.147
21612W        W89841   8.570   6.240  14.219
21613W        W89842  15.872  33.915  14.464
21614W        W89843  36.912  33.858  12.931
21615W        W89844  23.966  11.054  12.175
21616W        W89845  14.963  19.286   4.137
21617W        W89846   5.921  21.545   1.727
21618W        W89847  33.830  24.692   0.486
21619W        W89848  15.807  23.185  11.628
21620W        W89849  33.012  13.525  10.695
21621W        W89850   3.840  16.713   4.068
21622W        W89851  10.862  33.739   1.981
21623W        W89852  23.263  18.247   2.738
21624W        W89853  22.536   3.657   4.475
21625W        W89854  30.611  39.601  13.382
21626W        W89855  31.421  31.222   2.383
21627W        W89856   9.203  22.854  13.847
21628W        W89857  38.257  44.489   0.444
21629W        W89858  39.913  19.248   1.787
21630W        W89859  38.491  39.379   3.352
21631W        W89860   3.276  36.749   5.802
21632W        W89861  17.084  21.822  12.511
21633W        W89862   1.970  10.710   3.377
21634W        W89863  22.168  36.605  10.784
21635W        W89864   5.192  26.464   2.312
21636W        W89865  27.388  34.908   4.554
21637W        W89866  36.965   8.252  14.291
21638W        W89867  33.336  43.875  14.909
21639W        W89868  10.733  37.234  14.724
21640W        W89869  39.978  30.921   2.626
21641W        W89870  42.243   3.365  12.030
21642W        W89871  37.901  38.986   1.847
21643W        W89872  13.153   4.365   2.757
21644W        W89873  37.078  39.304  10.842
21645W        W89874   8.120   3.422  12.578
21646W        W89875   2.827  10.266  13.513
21647W        W89876  16.588  40.347  13.523
21648W        W89877  38.868  31.667  10.783
21649W        W89878  33.441  19.646   1.922
21650W        W89879  32.284  34.846  14.258
21651W        W89880  18.466   3.669  14.885
21652W        W89881  37.043  36.914  12.013
21653W        W89882  15.558  26.945   3.194
21654W        W89883   2.543  26.473  12.090
21655W        W89884  38.445   3.290   3.637
21656W        W89885   9.856  17.115   4.361
21657W        W89886  42.853   3.743   3.187
21658W        W89887   8.109  12.613   2.396
21659W        W89888  32.821   8.284   0.408
21660W        W89889  39.586  33.891   2.176
21661W        W89890  11.242  34.776  11.744
21662W        W89891  18.618  44.985   4.540
21663W        W89892   5.007   3.298  12.880
21664W        W89893  22.577  39.473  12.536
21665W        W89894   9.856  22.303  13.379
21666W        W89895   6.639  13.414   1.786
21667W        W89896   6.628  37.146  13.450
21668W        W89897  40.430  36.160   1.749
21669W        W89898   0.970  43.170  11.796
21670W        W89899   3.705  23.770   2.311
21671W        W89900  22.247  18.126   2.757
21672W        W89901  30.585  19.237   0.774
21673W        W89902  36.824   3.315   0.399
21674W        W89903   5.253   5.887  11.198
21675W        W89904  32.052   4.389   3.399
21676W        W89905  28.032  22.676   4.462
21677W        W89906  10.462   2.897  12.465
21678W        W89907  15.247   1.545  14.330
21679W        W89908  35.871   2.379   1.251
21680W        W89909  21.249  21.426   1.181
21681W        W89910  36.662  16.781  11.472
21682W        W89911  28.325  43.626  12.809
21683W        W89912  30.459  43.029  12.483
21684W        W89913  18.339   7.387  14.299
21685W        W89914  21.620  31.538   2.433
21686W        W89915  24.163   6.080  13.294
21687W        W89916  17.157  41.879  11.588
21688W        W89917  38.882   7.260  14.450
21689W        W89918  28.578  41.288  14.752
21690W        W89919   9.254  39.787   0.411
21691W        W89920   4.459  18.256   3.954
21692W        W89921  13.636  10.602  12.468
21693W        W89922  10.085  12.173   0.047
21694W        W89923  33.446  30.596   4.537
21695W        W89924  13.975  10.962  10.075
21696W        W89925  27.755  36.134   3.340
21697W        W89926  35.518  18.837  13.817
21698W        W89927  36.178   5.738   3.659
21699W        W89928  14.049  44.478   0.564
21700W        W89929  24.220  33.182  10.904
21701W        W89930  27.721  36.341  14.717
21702W        W89931   2.305  23.598   4.030
21703W        W89932   5.636  17.220   1.492
21704W        W89933   6.199  36.135   3.755
21705W        W89934  10.883  37.427  12.577
21706W        W89935  39.152  42.986  12.363
21707W        W89936  25.120  37.027  12.677
21708W        W89937   2.847   5.921  14.434
21709W        W89938  30.956   7.725  14.572
21710W        W89939  15.291  28.083  14.009
21711W        W89940  22.951  26.649   2.969
21712W        W89941  22.487  30.764   2.483
21713W        W89942  39.119   0.995  12.930
21714W        W89943  42.968   2.986  13.097
21715W        W89944  36.892  42.323  14.512
21716W        W89945   5.760   1.234   4.070
21717W        W89946  41.840  39.427  11.575
21718W        W89947  25.749  12.644  13.921
21719W        W89948  39.801   4.251  13.289
21720W        W89949  21.517   4.157  12.417
21721W        W89950  37.369  19.969   0.169
21722W        W89951  35.702  16.536   0.799
21723W        W89952  31.143  38.730   4.526
21724W        W89953  13.675  28.247  11.947
21725W        W89954  13.931  21.563  12.950
21726W        W89955  42.275  13.291   2.615
21727W        W89956  27.724   3.023   0.248
21728W        W89957   3.462   8.808   3.586
21729W        W89958  39.542  24.068   2.784
21730W        W89959  11.574  44.724  11.571
21731W        W89960  10.075  26.740   0.304
21732W        W89961   6.997  35.406   2.222
21733W        W89962  20.654  36.865   4.256
21734W        W89963  35.443  35.874   1.418
21735W        W89964   3.518  22.044   1.420
21736W        W89965  28.581  39.861  14.755
21737W        W89966   2.146  44.386  10.538
21738W        W89967  28.844  22.059  13.854
21739W        W89968  38.295  37.868  12.031
21740W        W89969  11.843  19.151  10.936
21741W        W89970  42.355  20.489   3.866
21742W        W89971  23.308   7.240  14.244
21743W        W89972  35.783  13.092   0.635
21744W        W89973  34.516  32.245  12.544
21745W        W89974  39.389  21.041  13.270
21746W        W89975  24.914  37.780  12.787
21747W        W89976  10.754  20.829  14.386
21748W        W89977   6.968   1.716  10.750
21749W        W89978  23.055   2.494  11.063
21750W        W89979  44.181  12.741   3.811
21751W        W89980  25.093   1.843   1.952
21752W        W89981  14.743   9.772  12.280
21753W        W89982  36.385   1.688  14.927
21754W        W89983  31.193  19.836  12.084
21755W        W89984   5.898  31.480  13.378
21756W        W89985  27.929  40.384   1.423
21757W        W89986  19.253   4.271   2.419
21758W        W89987  39.455   0.459  12.053
21759W        W89988  41.746   2.100  11.063
21760W        W89989  26.555  18.881  12.664
21761W        W89990  25.674  28.092  13.368
21762W        W89991   0.062  42.061   1.405
21763W        W89992  11.387  24.423   1.360
21764W        W89993   8.419  36.041  12.990
21765W        W89994   0.880   4.837   2.344
21766W        W89995  41.774  10.164   3.302
21767W        W89996  42.725  17.181   3.250
21768W        W89997   3.479  38.959  11.595
21769W        W89998  30.331  31.834  11.068
21770W        W89999  35.344  17.352   2.464
21771W        W90000  16.274  26.530  12.367
21772W        W90001  11.285  32.281   4.581
21773W        W90002   6.312   2.742  12.811
21774W        W90003  33.523  16.060  14.825
21775W        W90004  42.463  30.687  11.968
21776W        W90005   7.558  13.340  10.605
21777W        W90006  17.063   0.639  12.500
21778W        W90007   3.325   4.176   0.241
21779W        W90008  34.291   5.857   1.973
21780W        W90009   8.361  10.318   1.896
21781W        W90010  19.712  37.823   2.814
21782W        W90011  25.642  13.474  11.305
21783W        W90012  11.672  44.299  12.888
21784W        W90013  33.989  38.559  10.719
21785W        W90014  41.511  36.621  12.532
21786W        W90015  43.766  39.531   2.398
21787W        W90016   5.148  11.132   2.160
21788W        W90017  23.463  34.823   4.561
21789W        W90018  17.015  14.392  13.356
21790W        W90019  36.102  25.795  13.999
21791W        W90020  12.083  15.765   0.677
21792W        W90021  27.380  40.104  11.279
21793W        W90022  39.792  21.245   2.470
21794W        W90023   9.634  20.132   1.304
21795W        W90024   5.211  44.496   1.714
21796W        W90025  32.867  38.765   9.935
21797W        W90026  40.980  23.170   4.277
21798W        W90027  23.633  26.674  14.052
21799W        W90028  42.901  39.057  13.099
21800W        W90029  37.300  12.824  11.106
21801W        W90030  14.328  30.414  12.910
21802W        W90031  16.271   1.909  14.979
21803W        W90032  41.824  43.793  13.000
21804W        W90033  13.686  42.045   3.664
21805W        W90034   1.855  36.950   1.849
21806W        W90035   3.500   0.362  12.917
21807W        W90036  16.582  23.577   2.671
21808W        W90037  28.064  43.524  13.826
21809W        W90038  37.594  42.401  11.594
21810W        W90039   0.713   7.889  11.090
21811W        W90040  27.467  23.584  12.957
21812W        W90041  25.573  42.791   3.844
21813W        W90042  34.863  41.471   4.236
21814W        W90043   4.829   3.226  14.267
21815W        W90044   9.267  41.959   4.426
21816W        W90045  42.795  40.523  13.003
21817W        W90046  14.262  24.974  13.913
21818W        W90047   2.139  16.292  10.636
21819W        W90048   1.922   7.609  10.675
21820W        W90049  36.819  19.420  10.462
21821W        W90050  14.463  33.950  13.047
21822W        W90051  18.067  20.513  14.745
21823W        W90052  11.794   4.002  11.389
21824W        W90053   4.227  22.669  10.780
21825W        W90054  15.160  13.401  13.054
21826W        W90055   0.484  21.490   0.296
21827W        W90056   4.204  37.012  13.459
21828W        W90057   3.548  23.703  13.397
21829W        W90058   5.377  22.281   4.542
21830W        W90059  19.243   0.064   2.780
21831W        W90060   3.911   8.676   3.378
21832W        W90061  43.270  26.212   2.635
21833W        W90062  22.369   3.974   1.692
21834W        W90063  27.704   1.731  11.508
21835W        W90064  23.583   8.672   4.483
21836W        W90065  39.051  19.661   3.350
21837W        W90066  26.918  11.387  14.547
21838W        W90067  36.879  24.392   2.616
21839W        W90068  38.077  29.079  12.846
21840W        W90069  39.508  12.815  10.412
21841W        W90070   9.026  16.692  10.275
21842W        W90071  11.989   8.126   1.781
21843W        W90072  12.371   7.377  13.912
21844W        W90073   8.974  35.967  13.874
21845W        W90074  25.152  23.135  12.537
21846W        W90075  14.211  18.710  12.422
21847W        W90076  40.837  25.080  11.212
21848W        W90077  18.765  25.875  13.461
21849W        W90078  26.234   9.849  12.585
21850W        W90079  34.386  44.470  14.393
21851W        W90080  14.871  27.629   3.184
21852W        W90081   2.566  10.856   2.560
21853W        W90082   4.845  14.101  13.266
21854W        W90083  41.431  22.196   2.222
21855W        W90084  13.342  20.977  13.196
21856W        W90085  35.367  29.074  13.451
21857W        W90086  36.831  22.489  14.392
21858W        W90087  25.766  43.712   4.167
21859W        W90088  13.237  22.539   1.664
21860W        W90089   1.538  24.759   2.623
21861W        W90090  25.473   6.641  14.844
21862W        W90091   8.278  24.194   2.712
21863W        W90092   9.294   7.456  12.114
21864W        W90093  43.539  11.578   0.368
21865W        W90094  15.824   0.435   4.568
21866W        W90095  33.811  37.523  14.963
21867W        W90096  11.636  20.796   2.320
21868W        W90097  11.305  28.523  12.850
21869W        W90098   5.194  19.593   4.108
21870W        W90099  29.947  23.591  11.473
21871W        W90100  10.091  20.610  11.078
21872W        W90101  26.767   8.292  11.343
21873W        W90102  30.167  39.559  14.874
21874W        W90103  39.527   1.668   4.839
21875W        W90104   7.898  31.615  14.399
21876W        W90105  36.934  34.735  14.735
21877W        W90106  38.119  31.023   1.783
21878W        W90107  28.006  20.828   4.169
21879W        W90108   6.401   6.334   2.753
21880W        W90109  38.918  19.110   3.781
21881W        W90110  11.280  18.861   0.008
21882W        W90111   6.296  34.348  14.376
21883W        W90112  33.640   1.716   0.440
21884W        W90113  43.872  32.803  12.311
21885W        W90114  26.079  27.493   4.831
21886W        W90115  25.313  37.535   3.638
21887W        W90116   7.866  33.857   2.887
21888W        W90117   4.163  13.000   3.986
21889W        W90118  40.976   6.736   3.661
21890W        W90119   4.524   2.154   2.270
21891W        W90120  15.689  12.799   4.324
21892W        W90121  24.451  29.586   4.710
21893W        W90122   4.412  21.957   3.571
21894W        W90123  34.963  32.044   0.717
21895W        W90124  33.934  32.542  13.645
21896W        W90125  18.268  29.721   4.552
21897W        W90126   5.155  33.841  13.072
21898W        W90127  24.733  43.408  11.721
21899W        W90128  23.505   7.185   1.465
21900W        W90129   2.114  42.213   4.099
21901W        W90130  11.691  33.980   1.403
21902W        W90131  30.107  14.103   4.828
21903W        W90132  19.983   9.220   1.537
21904W        W90133  34.636  14.358   3.228
21905W        W90134  28.029  34.938  14.684
21906W        W90135   5.436  23.711   0.026
21907W        W90136   5.390  34.371   0.952
21908W        W90137  43.503  10.063  13.042
21909W        W90138  15.782   6.984  14.897
21910W        W90139   5.690  44.560  14.577
21911W        W90140  32.502  30.148  11.843
21912W        W90141  21.841  28.392   0.196
21913W        W90142  12.335   5.008  13.899
21914W        W90143  27.564  36.984   4.583
21915W        W90144  30.794   2.897  14.934
21916W        W90145  38.743  34.107   0.466
21917W        W90146   8.353  44.468   4.152
21918W        W90147   2.201  24.291  11.130
21919W        W90148  40.407  40.250  12.898
21920W        W90149  23.223  16.770   0.357
21921W        W90150   2.827   1.257   1.713
21922W        W90151  35.016  23.580   4.539
21923W        W90152  35.967  29.699  10.659
21924W        W90153  41.264  44.146   2.340
21925W        W90154  36.508   6.888   0.478
21926W        W90155  11.166  37.536  11.102
21927W        W90156  17.346  13.409   0.689
21928W        W90157  13.295  23.167  11.516
21929W        W90158  10.222  21.871  12.034
21930W        W90159  19.510  13.702   0.302
21931W        W90160   1.441   2.626   0.730
21932W        W90161  37.762  10.201   2.236
21933W        W90162  40.575   5.115  10.888
21934W        W90163   8.271  27.430   0.434
21935W        W90164   2.888  24.719   3.605
21936W        W90165  33.650   8.716  11.201
21937W        W90166  11.847   7.257   1.286
21938W        W90167   0.543  12.167   4.886
21939W        W90168  21.437  19.113   1.293
21940W        W90169   5.501  20.226   2.951
21941W        W90170  25.550  39.281  11.616
21942W        W90171   7.174   6.120   0.374
21943W        W90172  43.549   4.299   0.222
21944W        W90173  37.626  43.621  12.033
21945W        W90174  19.150  40.637  12.450
21946W        W90175  39.931  15.539  14.271
21947W        W90176   3.677  23.435   1.311
21948W        W90177  33.298   8.956   2.892
21949W        W90178  20.633  23.943  13.945
21950W        W90179  14.727  38.489  11.696
21951W        W90180  37.158  30.175  11.657
21952W        W90181  16.157  31.474   2.184
21953W        W90182  27.036  29.492  14.331
21954W        W90183  38.308  33.757  11.066
21955W        W90184  29.310  38.118  13.546
21956W        W90185  27.223  32.448  10.556
21957W        W90186  23.543  14.817  10.230
21958W        W90187  34.154  38.433  14.187
21959W        W90188  38.786   8.894  14.273
21960W        W90189  10.701  27.836  14.411
21961W        W90190  29.931  35.589  14.776
21962W        W90191  12.851  15.708   3.841
21963W        W90192  23.561  41.240  10.726
21964W        W90193   1.358  35.891  12.922
21965W        W90194   9.743  29.069  12.388
21966W        W90195  29.575   1.679  14.386
21967W        W90196  26.915  42.647  13.078
21968W        W90197  21.691  24.719  11.888
21969W        W90198   9.712  41.544  14.956
21970W        W90199  37.150  13.183  14.086
21971W        W90200  34.995  36.423   1.800
21972W        W90201  11.614  39.337  14.101
21973W        W90202  25.989  38.161   0.807
21974W        W90203  41.575   6.601  13.376
21975W        W90204   2.402   2.675  12.510
21976W        W90205  16.853  42.774  11.312
21977W        W90206  41.922  24.442  12.097
21978W        W90207  20.499   1.404  12.395
21979W        W90208  13.142  22.971   1.938
21980W        W90209  26.671  30.262  14.413
21981W        W90210   6.135   6.950  11.660
21982W        W90211   4.164  35.480  12.385
21983W        W90212  37.385  20.288  13.023
21984W        W90213   9.202  36.178  11.331
21985W        W90214  11.626  27.096   3.623
21986W        W90215   4.625  37.051   9.753
21987W        W90216  15.343  32.475   1.197
21988W        W90217  28.986   2.036   3.392
21989W        W90218   6.945  16.174   1.369
21990W        W90219   9.597  29.083  14.535
21991W        W90220  35.995  43.619  10.730
21992W        W90221  43.875  32.459   2.167
21993W        W90222  23.486  14.602   0.995
21994W        W90223  30.531  35.184  14.523
21995W        W90224  38.404  42.631   4.672
21996W        W90225  32.579  43.353   2.252
21997W        W90226  31.534  36.866   0.379
21998W        W90227  29.014  18.764   4.095
21999W        W90228  21.259  12.700  14.309
22000W        W90229  17.812   3.548  13.412
22001W        W90230  18.133  37.528  10.251
22002W        W90231   7.013  22.148   3.147
22003W        W90232  40.100  44.222   0.768
22004W        W90233   2.984   7.132   2.830
22005W        W90234  15.808  36.922   1.190
22006W        W90235  30.626   8.229   3.145
22007W        W90236  28.451  17.557  14.226
22008W        W90237  17.263  32.834   1.828
22009W        W90238  22.632  29.491  11.386
22010W        W90239   6.935  21.261  11.236
22011W        W90240  38.879  29.935  10.341
22012W        W90241  33.503   6.219   2.339
22013W        W90242  16.842   8.123   1.989
22014W        W90243  44.809  13.409  11.109
22015W        W90244  35.593  25.775  14.521
22016W        W90245  24.965  29.571  13.259
22017W        W90246  37.556  10.899   5.134
22018W        W90247  34.451  21.769  13.282
22019W        W90248  11.398  18.577  13.191
22020W        W90249  16.555  33.418  10.880
22021W        W90250  33.178  28.669   4.150
22022W        W90251  17.421  15.193  13.025
22023W        W90252  37.766   9.778   1.900
22024W        W90253  43.205  39.863   2.804
22025W        W90254  19.127  16.096   3.138
22026W        W90255   8.061  26.141  12.742
22027W        W90256  18.900  36.110   2.822
22028W        W90257  43.837  12.153   1.566
22029W        W90258   8.171  40.364  12.328
22030W        W90259  20.559  30.019  14.777
22031W        W90260  40.521  14.536  14.957
22032W        W90261  29.113   2.952  10.418
22033W        W90262  25.237  27.602  12.138
22034W        W90263  40.587  39.355  13.864
22035W        W90264  38.604  17.536  11.623
22036W        W90265  21.465   1.535  10.618
22037W        W90266   8.796  41.776  13.005
22038W        W90267  44.308  32.651  12.046
22039W        W90268  24.994  16.070   1.844
22040W        W90269   8.682   7.951   2.834
22041W        W90270  42.543  18.488  11.698
22042W        W90271   9.778  35.025   1.314
22043W        W90272  22.706  16.724  13.035
22044W        W90273  19.997  16.142  14.524
22045W        W90274   9.310   8.400  14.239
22046W        W90275  22.856  28.590   0.277
22047W        W90276  11.912   3.247   4.548
22048W        W90277  22.904  38.525   1.484
22049W        W90278  31.209  37.064   4.200
22050W        W90279  17.345   8.919   0.398
22051W        W90280   6.865  40.073  12.888
22052W        W90281   1.008  18.162   1.552
22053W        W90282  17.109   7.439  10.759
22054W        W90283  21.461  10.558   3.634
22055W        W90284  29.764   5.396   1.433
22056W        W90285  16.773  34.602  13.364
22057W        W90286  24.191  40.749  13.068
22058W        W90287  11.841   8.983   1.261
22059W        W90288  25.057  26.520   0.592
22060W        W90289  13.416  10.112   1.751
22061W        W90290  20.849  43.288  11.865
22062W        W90291  29.184  21.165  10.767
22063W        W90292  31.950  23.699   1.830
22064W        W90293  35.546  14.890  14.992
22065W        W90294  38.003  38.813  13.495
22066W        W90295   7.373   2.829  13.425
22067W        W90296  37.064  27.653  13.409
22068W        W90297   8.152  22.995  11.712
22069W        W90298   1.479  32.562   2.746
22070W        W90299  41.979  25.894   0.736
22071W        W90300  32.418  26.757   5.055
22072W        W90301  22.531  15.248  13.535
22073W        W90302  23.092  28.536   0.932
22074W        W90303   6.504  22.468  12.046
22075W        W90304  24.922  28.048  13.008
22076W        W90305  11.715  14.051  10.481
22077W        W90306  16.511   6.714   2.285
22078W        W90307  21.940  42.333  13.899
22079W        W90308  25.464   6.902  12.277
22080W        W90309  31.002  37.604  10.636
22081W        W90310  33.466  42.031  12.435
22082W        W90311  19.830  28.877   2.221
22083W        W90312   0.174   4.277  12.537
22084W        W90313  36.239  44.747  13.476
22085W        W90314   1.869  18.648  12.862
22086W        W90315   6.421  22.132   3.780
22087W        W90316   5.719  17.372  12.571
22088W        W90317  27.918  26.544  14.428
22089W        W90318  34.374  30.441  11.641
22090W        W90319  27.866  21.449  14.836
22091W        W90320  12.394  34.984   3.225
22092W        W90321  16.825  19.561   0.296
22093W        W90322  30.128  23.141   1.704
22094W        W90323  17.458  36.965   2.853
22095W        W90324  41.081  37.256  11.489
22096W        W90325  36.807  37.792   4.837
22097W        W90326  20.803  23.984  14.802
22098W        W90327   4.276   9.149   4.558
22099W        W90328  43.545  44.401   2.233
22100W        W90329  10.661   3.322   0.393
22101W        W90330  25.024  22.752   3.819
22102W        W90331   4.945   9.361   1.321
22103W        W90332   1.695  34.727  10.150
22104W        W90333   3.634  11.200  10.549
22105W        W90334  14.422  27.015   1.694
22106W        W90335  18.132  11.163  10.429
22107W        W90336  35.599  14.134   1.294
22108W        W90337  13.112  25.908   3.713
22109W        W90338  11.219  11.821  12.113
22110W        W90339  11.302  44.339   0.491
22111W        W90340  35.054   2.023   4.128
22112W        W90341  32.595  35.387   1.088
22113W        W90342  37.989   0.014   4.749
22114W        W90343   1.388  36.398  13.786
22115W        W90344  33.655  21.649   2.180
22116W        W90345  17.261   6.274  14.368
22117W        W90346   3.242  17.671  11.142
22118W        W90347  36.292   8.752  14.353
22119W        W90348   6.427   1.759   1.256
22120W        W90349  25.837  34.474  13.567
22121W        W90350  16.571  24.554  11.699
22122W        W90351  42.009  42.224  13.038
22123W        W90352  12.754  44.877   1.780
22124W        W90353  14.519  14.712  11.485
22125W        W90354  17.360  20.175  13.267
22126W        W90355  11.756   7.867  14.448
22127W        W90356  42.272   7.938  12.922
22128W        W90357   1.739  13.245  13.833
22129W        W90358  34.442  12.766   2.349
22130W        W90359  26.121  22.173   3.098
22131W        W90360   2.009  43.281   4.735
22132W        W90361  44.596  12.101   4.523
22133W        W90362  25.710  29.643   0.022
22134W        W90363   8.151  14.193  12.183
22135W        W90364  17.542  13.890   1.949
22136W        W90365   7.312  36.632  12.944
22137W        W90366  24.461  18.221  10.592
22138W        W90367  23.068   9.207  12.150
22139W        W90368  21.740   1.994   0.935
22140W        W90369  26.159   0.157   4.574
22141W        W90370  32.289  38.852   1.946
22142W        W90371  38.831  30.962  12.453
22143W        W90372  29.920  42.386   4.340
22144W        W90373   9.229  25.623   0.838
22145W        W90374  29.133  18.461  13.357
22146W        W90375   1.882  44.193  14.492
22147W        W90376   7.369  26.787  14.890
22148W        W90377  17.243  42.770   3.923
22149W        W90378  24.125   0.292  12.300
22150W        W90379   3.442  24.774  10.686
22151W        W90380   4.721  39.257  12.883
22152W        W90381  12.353  34.372   1.922
22153W        W90382  40.120  42.312   2.423
22154W        W90383  32.121  20.499  13.447
22155W        W90384  28.361  16.252  12.542
22156W        W90385  29.275   7.104   2.452
22157W        W90386  38.203  28.893   4.557
22158W        W90387  44.244  14.235  11.925
22159W        W90388   6.300  44.240   5.221
22160W        W90389   7.756   3.301  11.594
22161W        W90390  24.580  22.639   2.248
22162W        W90391   7.188  40.860  10.767
22163W        W90392  12.600   1.920   1.626
22164W        W90393  14.648  19.562  10.402
22165W        W90394  44.539  42.600  12.911
22166W        W90395  34.154  14.499  11.712
22167W        W90396  16.372  32.434  12.088
22168W        W90397  26.489  11.623   3.175
22169W        W90398   7.734  38.036   1.406
22170W        W90399  13.800  15.534  14.536
22171W        W90400   3.803  35.320   0.283
22172W        W90401  30.718  20.039   5.028
22173W        W90402  20.786  39.895  11.136
22174W        W90403   3.869  44.878  14.019
22175W        W90404  10.799  41.002   2.699
22176W        W90405   7.468   1.737   3.880
22177W        W90406   9.719  31.898   1.947
22178W        W90407  41.931  38.415   1.981
22179W        W90408  34.623  42.556   3.649
22180W        W90409   0.005  32.506   0.326
22181W        W90410  33.900   4.327   3.064
22182W        W90411  42.201  35.587   3.294
22183W        W90412  23.702  30.315   0.326
22184W        W90413  12.075  39.614  12.476
22185W        W90414  29.277  27.058  11.916
22186W        W90415   8.646  17.293  12.999
22187W        W90416   6.934  31.046   3.930
22188W        W90417  34.795  10.734   4.282
22189W        W90418   2.630  12.990   2.217
22190W        W90419   1.257   6.339  14.206
22191W        W90420  20.374  31.150   1.206
22192W        W90421  12.457  28.156  14.765
22193W        W90422  11.970  41.014   3.731
22194W        W90423  21.714  36.936  11.535
22195W        W90424  16.051  38.324  14.471
22196W        W90425  35.839  28.434  14.012
22197W        W90426   2.846   2.227  14.790
22198W        W90427  22.537  13.855  11.066
22199W        W90428   8.276   1.669   1.489
22200W        W90429  29.745  44.756   3.181
22201W        W90430   9.442  17.576  14.841
22202W        W90431  18.566  25.559   1.647
22203W        W90432  38.329  10.923   2.251
22204W        W90433   4.034  28.616  13.548
22205W        W90434  35.859  44.892  12.592
22206W        W90435   1.399  15.180  11.932
22207W        W90436  24.554  28.197  11.637
22208W        W90437  40.761  17.309  12.445
22209W        W90438  22.115  42.952  12.492
22210W        W90439   7.962  41.316  10.457
22211W        W90440  32.634  11.057  13.091
22212W        W90441  10.806   7.763  12.406
22213W        W90442  41.731  19.612  12.524
22214W        W90443  38.046   8.751  14.993
22215W        W90444  14.310  33.779   2.719
22216W        W90445  12.184  30.779   5.097
22217W        W90446   9.797  12.253   1.305
22218W        W90447  37.986  24.047  13.112
22219W        W90448  30.503   6.860  14.835
22220W        W90449  39.816   8.708  10.710
22221W        W90450  21.613  43.936  10.469
22222W        W90451   6.201  37.876  13.815
22223W        W90452  36.879  17.128   4.435
22224W        W90453   3.302  13.687   3.839
22225W        W90454  36.327  24.005   4.996
22226W        W90455   4.416  31.185   2.915
22227W        W90456  30.238  36.038  12.066
22228W        W90457   9.609  16.566   3.630
22229W        W90458   7.754  33.159  11.238
22230W        W90459  33.513  24.013   1.357
22231W        W90460   1.385  23.043  13.597
22232W        W90461  26.176  34.989   0.859
22233W        W90462  32.371  22.200   3.824
22234W        W90463  29.158  21.594   3.851
22235W        W90464  12.321  32.193  12.372
22236W        W90465  12.834  14.160  13.430
22237W        W90466  34.825  40.876  14.044
22238W        W90467  27.302  21.582   1.707
22239W        W90468  36.896  35.173  12.383
22240W        W90469  26.711  38.606   2.806
22241W        W90470  31.581   8.733   2.495
22242W        W90471  37.432  42.597   5.030
22243W        W90472  20.171  28.491   2.918
22244W        W90473   5.801  12.284   4.595
22245W        W90474   1.108  17.322   3.229
22246W        W90475  12.271  42.991  12.939
22247W        W90476  26.420  26.689   0.471
22248W        W90477  12.680  29.506   0.953
22249W        W90478  10.187  25.591  11.600
22250W        W90479  19.246  27.286  12.049
22251W        W90480  26.373  23.444  14.426
22252W        W90481   3.169   2.907  13.359
22253W        W90482   8.986  36.153  11.803
22254W        W90483  36.602  42.562  13.819
22255W        W90484  38.829  11.726  13.066
22256W        W90485  38.108  36.841   1.768
22257W        W90486   6.252  18.751  12.403
22258W        W90487  16.635  17.449  13.139
22259W        W90488   0.418  10.827   4.212
22260W        W90489  13.885  44.518   0.070
22261W        W90490  28.587  25.491   0.687
22262W        W90491  10.185  37.763   1.681
22263W        W90492  40.052  15.602   2.923
22264W        W90493  18.153  19.275  14.212
22265W        W90494  21.268  17.517   3.264
22266W        W90495  11.270  19.719   0.786
22267W        W90496   8.959  42.780   1.937
22268W        W90497  44.718   6.161  13.440
22269W        W90498  29.195  15.556   4.192
22270W        W90499  12.322  32.145   1.897
22271W        W90500  18.808  29.609   4.684
22272W        W90501  14.845   2.265   3.196
22273W        W90502  22.134  42.805   2.358
22274W        W90503  24.254  13.901   2.645
22275W        W90504  15.338   9.315  14.259
22276W        W90505  36.580  28.841  11.678
22277W        W90506  10.404  23.643  12.062
22278W        W90507  44.802  24.105   4.728
22279W        W90508  22.314  35.594  12.018
22280W        W90509  42.501  32.540  12.153
22281W        W90510  44.225  27.765   3.986
22282W        W90511   6.487  44.199  10.721
22283W        W90512  29.971  20.048  11.296
22284W        W90513  21.590  20.196   3.255
22285W        W90514   6.833  21.694  14.195
22286W        W90515  21.158  16.018   0.500
22287W        W90516  33.903  22.224   3.240
22288W        W90517  27.473  22.720   1.392
22289W        W90518  35.112   6.653   2.353
22290W        W90519  15.263   1.142  13.403
22291W        W90520  18.943   8.266   2.635
22292W        W90521  10.635  34.949   2.664
22293W        W90522  19.131  37.523  13.436
22294W        W90523   3.153  19.305  10.823
22295W        W90524   4.794  31.956   0.543
22296W        W90525  40.436   0.651  10.541
22297W        W90526  37.409   6.951  11.718
22298W        W90527   9.109  15.078  14.276
22299W        W90528  12.696   2.760  10.933
22300W        W90529  28.559   3.520  11.538
22301W        W90530  35.378  28.869   3.880
22302W        W90531  26.200   6.067  13.484
22303W        W90532  34.498  19.160   0.903
22304W        W90533  27.219  34.423  12.416
22305W        W90534  39.530  22.258   1.746
22306W        W90535   1.967  43.358  13.075
22307W        W90536   5.330  21.412   0.945
22308W        W90537  18.267  20.475  12.827
22309W        W90538  39.869   8.931  12.433
22310W        W90539  43.277  40.984   1.704
22311W        W90540  20.044  27.237  13.998
22312W        W90541   8.830  43.292   0.772
22313W        W90542  19.231   5.838   4.666
22314W        W90543  14.602  27.866   3.560
22315W        W90544  26.087  30.130  11.824
22316W        W90545  20.812  14.710  12.132
22317W        W90546  28.580  44.901   3.621
22318W        W90547   9.250  21.859   4.880
22319W        W90548   3.112  41.361  12.880
22320W        W90549  38.453  16.309   4.658
22321W        W90550  15.195   6.766   0.939
22322W        W90551  22.704  17.261  10.740
22323W        W90552   6.393  38.294  12.088
22324W        W90553  37.904  17.783  13.815
22325W        W90554  25.182  41.019   0.845
22326W        W90555  22.785  43.836  14.106
22327W        W90556  38.613  24.241   0.238
22328W        W90557   3.520  23.234   0.067
22329W        W90558  34.198   3.700  14.376
22330W        W90559  36.324  10.799  12.535
22331W        W90560  20.671   4.111   0.237
22332W        W90561  42.492  16.561  11.437
22333W        W90562  11.944  14.829   4.509
22334W        W90563  43.021  35.957   1.235
22335W        W90564  42.293  35.781   2.813
22336W        W90565   7.896  30.718   2.372
22337W        W90566  24.086   1.231   1.738
22338W        W90567  22.852  27.473  11.132
22339W        W90568  25.693  30.470   0.400
22340W        W90569  15.523   0.732   1.643
22341W        W90570  18.764   7.390   2.595
22342W        W90571  15.347  44.054   0.663
22343W        W90572   1.767  40.289   4.511
22344W        W90573   1.446  23.643  14.379
22345W        W90574  10.349  29.843   3.801
22346W        W90575  24.298  31.591   3.662
22347W        W90576  35.012   1.496  12.953
22348W        W90577  18.747   4.847   0.337
22349W        W90578   5.033  10.026  12.151
22350W        W90579  27.020  10.277   3.360
22351W        W90580   6.235  26.997  12.159
22352W        W90581  44.254  20.463  10.775
22353W        W90582   1.847  23.683   4.848
22354W        W90583   8.471   2.619   1.418
22355W        W90584   1.918  20.081   0.668
22356W        W90585  14.906  33.719   1.670
22357W        W90586  18.114  28.786   4.499
22358W        W90587  13.558   9.638   3.359
22359W        W90588   7.323  42.500  10.661
22360W        W90589  30.997  31.657  11.713
22361W        W90590  27.597   7.141  13.068
22362W        W90591  34.466  15.357   2.838
22363W        W90592   9.199  29.255  14.823
22364W        W90593   8.936  15.214  11.481
22365W        W90594  17.562  39.482   0.729
22366W        W90595   5.455  34.833   0.759
22367W        W90596  28.769  12.367   3.103
22368W        W90597   2.864  16.323   4.694
22369W        W90598   6.156   7.642  14.456
22370W        W90599  33.557  31.431   3.204
22371W        W90600  13.752   6.585   1.454
22372W        W90601  28.954  18.739   0.013
22373W        W90602  36.473  24.655  11.203
22374W        W90603   8.272  15.779   4.282
22375W        W90604  16.567  42.036   2.384
22376W        W90605  35.185  42.778  13.454
22377W        W90606   6.303  40.949   2.873
22378W        W90607  24.237  24.787  14.264
22379W        W90608   1.241  10.766  13.914
22380W        W90609  23.566  31.895   0.319
22381W        W90610  42.766   0.334   1.768
22382W        W90611   8.865  42.305   2.787
22383W        W90612  36.478  44.524   5.024
22384W        W90613  41.362  13.701  12.002
22385W        W90614  33.885  12.304  12.460
22386W        W90615  34.867  15.674   3.803
22387W        W90616  21.993  22.670  11.632
22388W        W90617  10.162  21.769   3.135
22389W        W90618  39.682  38.408  13.018
22390W        W90619  13.060  35.984  11.573
22391W        W90620  21.659   2.217   3.162
22392W        W90621  19.524   2.819  14.437
22393W        W90622  39.107   3.507  14.908
22394W        W90623  27.134  43.992  13.293
22395W        W90624  41.606  30.163   3.974
22396W        W90625  17.086  39.936  12.531
22397W        W90626   0.370  17.706  14.058
22398W        W90627  28.861  42.089   4.183
22399W        W90628  14.391  12.121   5.329
22400W        W90629  37.748   2.534   2.207
22401W        W90630   4.778   1.805  10.976
22402W        W90631   6.712   3.282   2.729
22403W        W90632  39.727  21.191   4.258
22404W        W90633  40.695  28.650   0.486
22405W        W90634  31.661  13.634  14.836
22406W        W90635  21.920  22.910  12.091
22407W        W90636  27.220  17.349   3.653
22408W        W90637  15.825  13.549   2.223
22409W        W90638  33.650  39.114   1.729
22410W        W90639  43.556  32.138   1.732
22411W        W90640  35.870  12.899  11.044
22412W        W90641   6.871  38.607  13.065
22413W        W90642  17.621  40.054  11.479
22414W        W90643  32.122  14.832  11.602
22415W        W90644  26.910  30.879   0.312
22416W        W90645  33.525   9.429   4.795
22417W        W90646  39.863  25.960  14.133
22418W        W90647  12.895  18.070   2.790
22419W        W90648  43.064   2.438  11.871
22420W        W90649  39.164   3.177   4.583
22421W        W90650  38.473  24.630  14.923
22422W        W90651  43.557  27.959  11.977
22423W        W90652  23.176  11.642  13.987
22424W        W90653  34.060  16.707  10.715
22425W        W90654   0.814  26.939  13.801
22426W        W90655  35.626  30.351   2.809
22427W        W90656  32.188  10.449   0.538
22428W        W90657  20.799   3.811   1.614
22429W        W90658  35.904   4.869   0.883
22430W        W90659  22.902  11.161  11.405
22431W        W90660   6.199  40.804  10.367
22432W        W90661   3.441  21.871  12.365
22433W        W90662  17.233  38.677  14.048
22434W        W90663  28.383  13.426   1.282
22435W        W90664  36.663  20.122   1.678
22436W        W90665  11.224  25.254   1.732
22437W        W90666  13.186  19.364   4.013
22438W        W90667  17.800  39.801  14.319
22439W        W90668   0.535   4.759   3.615
22440W        W90669  41.131  28.624  10.314
22441W        W90670  29.676  43.267  13.069
22442W        W90671   0.209  27.115   3.669
22443W        W90672  42.499  23.270  13.499
22444W        W90673  25.793  22.702   0.249
22445W        W90674  11.341   1.280  13.108
22446W        W90675  28.919   1.098  11.073
22447W        W90676  40.752  25.929   3.238
22448W        W90677  42.220  17.220  13.597
22449W        W90678  14.965  41.431   3.568
22450W        W90679  19.592  14.255   1.346
22451W        W90680   1.019   5.631  13.034
22452W        W90681   5.679   7.501  12.780
22453W        W90682  44.634  11.939  11.114
22454W        W90683  32.830  27.824   2.263
22455W        W90684   6.576   1.729   1.750
22456W        W90685  23.179  37.347  11.902
22457W        W90686  18.100   7.328  13.349
22458W        W90687   4.818  27.962   1.638
22459W        W90688  36.456  14.254   2.271
22460W        W90689  16.129  15.667   0.435
22461W        W90690  27.928   4.793   1.654
22462W        W90691  36.209   7.659  14.927
22463W        W90692  33.956  27.942  14.077
22464W        W90693  27.949  17.295   4.923
22465W        W90694  12.312  11.311   9.884
22466W        W90695  27.499  26.508  13.644
22467W        W90696   7.654  13.853   0.824
22468W        W90697  19.789  28.871   3.104
22469W        W90698  42.919  24.639   2.819
22470W        W90699  18.667  26.040   1.787
22471W        W90700   7.923  19.300  10.637
22472W        W90701  33.943  20.043  11.745
22473W        W90702  39.875  31.541   2.374
22474W        W90703   4.232  40.180  14.268
22475W        W90704  21.150  36.910   0.634
22476W        W90705  36.083   6.683   0.230
22477W        W90706  35.114  20.474  13.497
22478W        W90707   1.703  24.957   3.995
22479W        W90708   4.264  16.376   4.070
22480W        W90709  42.034   9.257   4.433
22481W        W90710   7.652   9.843  14.875
22482W        W90711  20.544   6.455   3.339
22483W        W90712  10.041   7.296   9.887
22484W        W90713   0.207   2.873  14.841
22485W        W90714  29.603  21.744  11.626
22486W        W90715  36.615  30.868  11.244
22487W        W90716   6.135   5.036  13.804
22488W        W90717   9.182  23.586   4.639
22489W        W90718  41.247  37.371  13.488
22490W        W90719  15.523  22.158  10.184
22491W        W90720  37.362  43.559   4.278
22492W        W90721  10.658  44.325   3.687
22493W        W90722  43.761   7.664  13.103
22494W        W90723   7.592  21.586   0.051
22495W        W90724   1.347   4.480   1.230
22496W        W90725  16.108  38.822  13.882
22497W        W90726  35.428  43.726   3.274
22498W        W90727   5.426  37.906  11.488
22499W        W90728  13.166  44.435   1.374
22500W        W90729  26.047   5.333  13.081
22501W        W90730   1.992  26.535  10.920
22502W        W90731  17.843  39.522  12.599
22503W        W90732  30.219  41.457  11.429
22504W        W90733  32.351  36.520  14.932
22505W        W90734  20.243  40.584   1.656
22506W        W90735  18.168  12.370   0.623
22507W        W90736  12.621  42.228   0.277
22508W        W90737  43.756   4.783   0.269
22509W        W90738  40.426   5.609  14.001
22510W        W90739  34.932   6.360  13.369
22511W        W90740  28.326  39.998  10.299
22512W        W90741   1.499  44.884  11.871
22513W        W90742   2.911  41.450   0.749
22514W        W90743  40.089  41.453  13.037
22515W        W90744  27.976  39.949  14.066
22516W        W90745  11.771   1.561   1.083
22517W        W90746  27.085  16.810  11.421
22518W        W90747  14.727  10.177   2.029
22519W        W90748   8.266  41.361   2.450
22520W        W90749   1.154  39.477   4.607
22521W        W90750   5.180  19.223  13.090
22522W        W90751   1.768  42.766   0.544
22523W        W90752   1.508  25.601  12.114
22524W        W90753  41.505   3.789   1.960
22525W        W90754   0.882  41.847  12.429
22526W        W90755  15.254  38.350   2.045
22527W        W90756  33.940  32.931  14.919
22528W        W90757  13.101  36.719   2.521
22529W        W90758  12.337  26.177   4.787
22530W        W90759   4.742   2.961  11.971
22531W        W90760  13.130   7.370   1.697
22532W        W90761  40.633   1.532  11.902
22533W        W90762  20.302  31.828   1.012
22534W        W90763  26.772  27.218  13.010
22535W        W90764  38.947   2.443  13.219
22536W        W90765  23.146  10.218   0.499
22537W        W90766  17.192  17.114  13.205
22538W        W90767  38.251  42.015  13.797
22539W        W90768  34.133   0.948   4.070
22540W        W90769  10.715  15.232   3.108
22541W        W90770   5.916  33.478   2.885
22542W        W90771  17.421  30.847  12.456
22543W        W90772  17.754  13.864  14.289
22544W        W90773  17.303  37.513   1.721
22545W        W90774  16.724  26.172   2.632
22546W        W90775  41.475  15.712   3.078
22547W        W90776   7.878  21.077   2.823
22548W        W90777  39.312   2.084  12.225
22549W        W90778  11.727  29.589   0.181
22550W        W90779  23.679  26.048  11.511
22551W        W90780  18.044  16.056  13.125
22552W        W90781  24.961  32.086   5.000
22553W        W90782  13.367  42.444  14.563
22554W        W90783  11.803  37.350   3.871
22555W        W90784  12.884  21.057  14.582
22556W        W90785  35.519   8.981   2.905
22557W        W90786  34.353  13.577  13.488
22558W        W90787  37.559  27.086   1.634
22559W        W90788  33.907  12.132  13.030
22560W        W90789   2.013   7.460   4.935
22561W        W90790   3.440  13.977  11.959
22562W        W90791  18.803  43.337  14.925
22563W        W90792  31.057  13.804   3.114
22564W        W90793  23.143  41.417  11.540
22565W        W90794   5.324  36.316   0.966
22566W        W90795  11.274  15.490  14.735
22567W        W90796  22.245  44.901   2.625
22568W        W90797  37.765  38.974   0.368
22569W        W90798   2.743  38.365   4.416
22570W        W90799  26.613  26.135  13.842
22571W        W90800  35.435  23.624  12.001
22572W        W90801  41.955   4.760  14.407
22573W        W90802   1.413   5.376   0.226
22574W        W90803  27.771  25.430   1.799
22575W        W90804  13.040  11.784  13.567
22576W        W90805  43.778  25.229  14.886
22577W        W90806   5.413   5.787   3.334
22578W        W90807  11.158   1.831   4.545
22579W        W90808  20.072  32.333   2.725
22580W        W90809   9.316  30.700   0.873
22581W        W90810   3.572  43.823  10.705
22582W        W90811   8.828  10.954  12.898
22583W        W90812  11.224   4.757  11.450
22584W        W90813   3.013  24.672  14.441
22585W        W90814  38.265   3.983   3.076
22586W        W90815  22.708   7.276   1.430
22587W        W90816  20.596  22.247  11.224
22588W        W90817   5.084  23.606   4.671
22589W        W90818  26.034  24.326  14.334
22590W        W90819  37.205  22.065  11.996
22591W        W90820   1.271   8.392  13.776
22592W        W90821  22.205  44.322  11.997
22593W        W90822  26.633  43.410   0.100
22594W        W90823  18.385  31.356  10.266
22595W        W90824  35.414   5.314   1.138
22596W        W90825  39.689  17.681  11.986
22597W        W90826  14.791  40.295  13.347
22598W        W90827  25.305  44.360  10.473
22599W        W90828   0.731  39.358   2.242
22600W        W90829  43.322  18.194   0.052
22601W        W90830   8.680  17.301  13.893
22602W        W90831  41.078   9.831   0.763
22603W        W90832   3.593  13.094   5.039
22604W        W90833  43.190  38.122  14.854
22605W        W90834  11.260  10.393  10.091
22606W        W90835  43.842  28.375  12.995
22607W        W90836  43.803   8.383   3.773
22608W        W90837  27.180   3.810  14.014
22609W        W90838  11.676  33.537  13.628
22610W        W90839  40.729   4.859   2.420
22611W        W90840  17.257  15.698  14.912
22612W        W90841  42.415  17.110   9.989
22613W        W90842  38.670   3.786  12.893
22614W        W90843   2.637  30.104   1.212
22615W        W90844  24.291  29.013   0.497
22616W        W90845  32.108  19.326   3.777
22617W        W90846  41.265  30.468  14.369
22618W        W90847  21.769  33.731  11.644
22619W        W90848   3.014  31.525   4.781
22620W        W90849  19.652  31.144   1.893
22621W        W90850  44.279   0.846   4.926
22622W        W90851  15.806  42.886   4.605
22623W        W90852  18.470  17.868  13.504
22624W        W90853  13.744   7.782  13.051
22625W        W90854  43.403  14.833   0.753
22626W        W90855   8.545  23.120  14.538
22627W        W90856  27.117   8.387   2.290
22628W        W90857  23.057  35.890   0.939
22629W        W90858  17.020   0.180   2.656
22630W        W90859  16.330  30.720  11.553
22631W        W90860   9.843  33.088  13.799
22632W        W90861   6.814  34.942   3.892
22633W        W90862  27.630  33.293  11.885
22634W        W90863  23.542  31.022   3.403
22635W        W90864  21.668  29.413   1.152
22636W        W90865  22.575  12.874  11.688
22637W        W90866  10.813  20.521   1.689
22638W        W90867  21.762  12.764   4.173
22639W        W90868  36.865  21.216  11.053
22640W        W90869  16.077  15.634   4.536
22641W        W90870  25.540  44.375  11.846
22642W        W90871  39.989  34.960  10.506
22643W        W90872  22.606  31.153   1.007
22644W        W90873  43.704  29.215   0.794
22645W        W90874  15.437  35.049  12.442
22646W        W90875  27.035  17.203  12.018
22647W        W90876  37.398  30.634   2.435
22648W        W90877   5.268  42.797  14.413
22649W        W90878  23.127  29.916  10.910
22650W        W90879  10.829  22.780   3.789
22651W        W90880  21.551  12.527  13.892
22652W        W90881  27.824  27.917  11.383
22653W        W90882  29.344  32.616   1.809
22654W        W90883  26.108   4.281  14.575
22655W        W90884  10.319  42.259   2.649
22656W        W90885  31.985  15.022   3.882
22657W        W90886  15.367   1.349  13.879
22658W        W90887  10.134  29.413  12.340
22659W        W90888  19.712  27.562  12.867
22660W        W90889   9.406   8.178   0.891
22661W        W90890  18.969   0.346  13.824
22662W        W90891  35.589  15.727   0.834
22663W        W90892  43.995   5.786  11.382
22664W        W90893  33.433   1.241   1.344
22665W        W90894  32.635  44.949  14.447
22666W        W90895  19.703   0.589  11.958
22667W        W90896   7.836  21.338   4.876
22668W        W90897  28.061   9.706  13.255
22669W        W90898  17.087  12.597  12.895
22670W        W90899   2.809  17.376   2.642
22671W        W90900  31.898   5.812  14.025
22672W        W90901  42.948  22.676  13.776
22673W        W90902  38.881  29.657  14.843
22674W        W90903  13.066  33.513   0.696
22675W        W90904  41.069  42.731   0.390
22676W        W90905  22.601  32.358   4.037
22677W        W90906   1.014  34.357  10.938
22678W        W90907  26.940  23.657  12.138
22679W        W90908  31.391  10.143   0.274
22680W        W90909  22.711  39.826  12.893
22681W        W90910  43.828  21.344   2.199
22682W        W90911  40.437  42.279  13.176
22683W        W90912   0.006  30.554   4.304
22684W        W90913   8.932  17.197   4.457
22685W        W90914  36.061  31.846   3.698
22686W        W90915  10.943  31.505   1.279
22687W        W90916  39.823  11.107   2.379
22688W        W90917  30.582  43.965  13.460
22689W        W90918  37.557   4.314  12.997
22690W        W90919  11.620   1.532   3.878
22691W        W90920   2.085   1.983   4.964
22692W        W90921  36.727  44.370  13.232
22693W        W90922   0.201  22.575   4.225
22694W        W90923  33.566   8.201  11.206
22695W        W90924  36.332   6.974   1.885
22696W        W90925  14.583  36.574   1.546
22697W        W90926   4.323  32.515  14.045
22698W        W90927  18.996  24.245   4.767
22699W        W90928  18.624  16.454  11.111
22700W        W90929  37.942  29.118   0.699
22701W        W90930  15.211  14.679   3.109
22702W        W90931   0.234  31.025   0.242
22703W        W90932  10.418  32.823   2.235
22704W        W90933   8.434  39.072   3.745
22705W        W90934  39.634  26.563   3.716
22706W        W90935  18.299  19.820  13.548
22707W        W90936  15.432  19.916   4.512
22708W        W90937  32.348  40.929  11.087
22709W        W90938  25.175  15.836  10.461
22710W        W90939  38.994  27.995   2.322
22711W        W90940  15.460   6.161   0.095
22712W        W90941  18.224  30.359  12.145
22713W        W90942  38.327  22.573   0.399
22714W        W90943  39.053  42.770  14.724
22715W        W90944   5.216  44.998   1.845
22716W        W90945  42.484  20.258  14.405
22717W        W90946  11.261  36.983  10.920
22718W        W90947  34.291   2.415  13.342
22719W        W90948  33.021  15.738  11.935
22720W        W90949  36.542  13.517   1.188
22721W        W90950  13.205  39.908  10.300
22722W        W90951  41.446  44.859  12.422
22723W        W90952  41.345  16.426  11.614
22724W        W90953  23.801  14.771   4.688
22725W        W90954  31.032  42.712  13.957
22726W        W90955  26.202  33.034  11.971
22727W        W90956  14.750   3.533   1.401
22728W        W90957  32.784   2.930  14.738
22729W        W90958  19.109  13.848  13.908
22730W        W90959   1.384  10.053   1.770
22731W        W90960  24.954  10.969  11.663
22732W        W90961   0.051  27.211  13.135
22733W        W90962  27.489  42.063  11.457
22734W        W90963   3.311  20.398   4.251
22735W        W90964  35.562  14.917  14.084
22736W        W90965   2.836  42.905  10.960
22737W        W90966   3.786  29.043   2.625
22738W        W90967  41.879   3.960   1.288
22739W        W90968   4.998  33.448   3.196
22740W        W90969  30.099  43.026   1.028
22741W        W90970  42.247  12.538   5.299
22742W        W90971   9.948  23.721   0.937
22743W        W90972   6.563   7.205   2.383
22744W        W90973  22.743  32.836   4.125
22745W        W90974  38.322   5.850   4.625
22746W        W90975   1.642  42.428  13.837
22747W        W90976   1.176   7.672  11.120
22748W        W90977  16.092  29.278  11.852
22749W        W90978   2.898  43.249  12.990
22750W        W90979   2.724   0.220   2.676
22751W        W90980  16.557  44.262  11.714
22752W        W90981  14.158  21.708  11.618
22753W        W90982  16.433  32.438   9.778
22754W        W90983   4.775  41.677  12.495
22755W        W90984   2.978  11.091   4.658
22756W        W90985  28.194   4.382   3.192
22757W        W90986  37.846  20.346  13.351
22758W        W90987  16.728   8.959  14.289
22759W        W90988  15.510  34.296   2.163
22760W        W90989  34.478  19.536  10.650
22761W        W90990  10.372   3.440  10.653
22762W        W90991  23.928  23.422  11.107
22763W        W90992  33.001   1.815  10.920
22764W        W90993  36.919  22.107  14.034
22765W        W90994  21.362  26.567   1.271
22766W        W90995  43.759   9.883   0.494
22767W        W90996  41.748   6.280   0.973
22768W        W90997  12.275  40.227  13.480
22769W        W90998  26.887  39.816   2.277
22770W        W90999   8.601  36.496   3.285
22771W        W91000  17.796  28.228  11.953
22772W        W91001  40.579  24.522   0.531
22773W        W91002  39.542   3.391   4.259
22774W        W91003  39.844   5.730  13.343
22775W        W91004  27.629  32.445  12.432
22776W        W91005  33.956  44.226  14.598
22777W        W91006   4.264  15.798   2.680
22778W        W91007  35.459  10.215   3.976
22779W        W91008   3.797   7.879  13.509
22780W        W91009   4.313  20.710  10.703
22781W        W91010  32.457  41.822   0.005
22782W        W91011  27.641  34.265   3.305
22783W        W91012   0.349  39.870  11.413
22784W        W91013  31.007  13.248  10.724
22785W        W91014   1.166   4.457   4.223
22786W        W91015  17.748   1.423   4.258
22787W        W91016  18.722  14.152  13.342
22788W        W91017  41.894  39.398  13.963
22789W        W91018   4.011  18.477  11.164
22790W        W91019  11.815   0.279   1.480
22791W        W91020  16.739   0.393  12.940
22792W        W91021  18.001  27.533  12.495
22793W        W91022  11.233  42.216   2.652
22794W        W91023   8.133  40.833  12.584
22795W        W91024  18.008  35.756   4.064
22796W        W91025   1.318  33.976  11.161
22797W        W91026  28.928  17.862  14.427
22798W        W91027  14.859  22.744  14.896
22799W        W91028  33.585   9.720   1.356
22800W        W91029   5.873  15.309   1.406
22801W        W91030  22.067  15.684   3.089
22802W        W91031  34.214   9.304   3.323
22803W        W91032  15.174   4.252  14.981
22804W        W91033  34.887   6.260  14.372
22805W        W91034  13.534  23.482  12.592
22806W        W91035  26.355  44.207  10.528
22807W        W91036  24.173  37.292   0.736
22808W        W91037  32.702   5.376  11.903
22809W        W91038  23.214  39.770   1.094
22810W        W91039  33.482  34.100  13.630
22811W        W91040  35.609  35.826   0.330
22812W        W91041  39.266  28.352   3.317
22813W        W91042  13.882   1.334   0.339
22814W        W91043  39.902  18.117  10.644
22815W        W91044   4.701  44.701  11.631
22816W        W91045  38.716  40.004  10.280
22817W        W91046  10.837  16.353  13.103
22818W        W91047  25.913   1.356  11.716
22819W        W91048  40.676   9.766  11.692
22820W        W91049  25.151  42.730  14.137
22821W        W91050  14.655  36.840  12.455
22822W        W91051  32.606  16.620   3.921
22823W        W91052  33.665  38.125   0.710
22824W        W91053  37.580  26.560   2.739
22825W        W91054  29.543  33.836  14.702
22826W        W91055  23.838  21.144   4.703
22827W        W91056  38.236   3.385  13.624
22828W        W91057  30.474  25.632  14.331
22829W        W91058  28.938  19.536   1.174
22830W        W91059  20.580  35.164   1.529
22831W        W91060  44.531  13.636   1.483
22832W        W91061  22.993  36.003   4.630
22833W        W91062  17.073  29.548  14.912
22834W        W91063  22.713  44.532   3.419
22835W        W91064  39.802   7.068  11.445
22836W        W91065  38.734  37.625   2.455
22837W        W91066  39.362  29.863   2.303
22838W        W91067  31.714  13.671   1.660
22839W        W91068   4.606  23.327   3.351
22840W        W91069  24.612  34.410  11.286
22841W        W91070  10.248   4.208   4.523
22842W        W91071   6.854   4.283  13.018
22843W        W91072  36.964  22.538  10.533
22844W        W91073  15.057  36.408  13.569
22845W        W91074  13.191  16.187  13.504
22846W        W91075  38.058  36.610   0.925
22847W        W91076  19.575  25.229  14.545
22848W        W91077  37.420  38.419  11.960
22849W        W91078   2.150  13.385   0.336
22850W        W91079  16.621  39.640   2.186
22851W        W91080  19.866  44.936   1.223
22852W        W91081  15.236  37.937   3.638
22853W        W91082  42.081   9.260   3.419
22854W        W91083  32.899  31.928   1.856
22855W        W91084   1.287   0.673   1.844
22856W        W91085  20.913  13.852   2.112
22857W        W91086  18.136  14.368   1.285
22858W        W91087  22.288  43.990   0.938
22859W        W91088   1.781  20.887  14.186
22860W        W91089  32.338   4.916  13.523
22861W        W91090   4.511  27.461   4.233
22862W        W91091  36.952  41.708  13.100
22863W        W91092  33.113   7.656   1.391
22864W        W91093  14.306  17.787   0.913
22865W        W91094   9.427  25.929   4.189
22866W        W91095   6.686  32.628  13.252
22867W        W91096   0.112  40.400  13.612
22868W        W91097  37.056  43.535   2.376
22869W        W91098  10.868   1.305  14.402
22870W        W91099  12.100  29.556  13.930
22871W        W91100  11.777  30.205   9.824
22872W        W91101  13.400   3.851  13.833
22873W        W91102  29.438   6.217   3.264
22874W        W91103   7.406  23.219  13.059
22875W        W91104   6.135  19.401  13.102
22876W        W91105  23.045  41.404  12.059
22877W        W91106  31.926   2.005  10.252
22878W        W91107  38.994  25.240   0.372
22879W        W91108   5.479  10.370  12.949
22880W        W91109  15.603   1.552  11.718
22881W        W91110  31.918  20.219   0.134
22882W        W91111   6.875   9.782  14.242
22883W        W91112  27.672  33.552  12.346
22884W        W91113   0.310   9.609  13.104
22885W        W91114  37.983  41.790   2.291
22886W        W91115  13.722  36.779  13.397
22887W        W91116  26.032   6.940  10.605
22888W        W91117  16.883  41.618   2.487
22889W        W91118  16.746  29.623  13.297
22890W        W91119  14.004   4.453  11.410
22891W        W91120  22.085  16.183   4.111
22892W        W91121  17.766  15.590  11.680
22893W        W91122  16.251  42.427  10.706
22894W        W91123  12.327   3.458  10.477
22895W        W91124   6.631  10.392   0.457
22896W        W91125  18.653  17.219  12.840
22897W        W91126  38.019   8.563   1.320
22898W        W91127  14.683  42.811   1.633
22899W        W91128  42.081  27.930  13.473
22900W        W91129  43.536  19.806   0.391
22901W        W91130  19.659  21.814  11.084
22902W        W91131  26.480  35.650   1.189
22903W        W91132  31.053  15.502  14.900
22904W        W91133   8.904   1.445   0.294
22905W        W91134  39.005  12.048   3.544
22906W        W91135  28.458  20.147  12.411
22907W        W91136   8.720  34.872   1.975
22908W        W91137  35.544  10.150   1.611
22909W        W91138  38.075  38.263  14.885
22910W        W91139  37.849  33.986  11.899
22911W        W91140   9.630  32.226  12.570
22912W        W91141   8.116  18.810   4.357
22913W        W91142   5.855  43.425   2.162
22914W        W91143   1.437  27.407  12.950
22915W        W91144  28.712  16.169  12.162
22916W        W91145  36.803  26.868  14.881
22917W        W91146  24.273  26.950  12.573
22918W        W91147  26.011  15.310  14.086
22919W        W91148  12.044  39.321  14.419
22920W        W91149  38.482  10.637  12.748
22921W        W91150  21.294  20.055  12.452
22922W        W91151  32.947  32.584   0.226
22923W        W91152  42.363  22.434   1.036
22924W        W91153  30.031  42.848   5.064
22925W        W91154  44.363  30.903  13.155
22926W        W91155   0.346  13.536  11.415
22927W        W91156  15.696   3.446  12.047
22928W        W91157  34.879  27.945  12.050
22929W        W91158  39.344  14.239  10.816
22930W        W91159  42.905  19.165   0.203
22931W        W91160  25.650   4.419  14.971
22932W        W91161  20.442  24.307  10.410
22933W        W91162  30.901   7.622  12.409
22934W        W91163  43.276  25.575  11.507
22935W        W91164  29.277  19.574   0.324
22936W        W91165  20.175  12.621  11.892
22937W        W91166  11.191  38.325   3.744
22938W        W91167  12.467  25.665   4.128
22939W        W91168  15.203  26.503  11.108
22940W        W91169  15.837  39.238   0.236
22941W        W91170  39.953  22.710   2.758
22942W        W91171  44.314  10.237   2.711
22943W        W91172   9.179  31.393   3.792
22944W        W91173  14.211  29.075   4.094
22945W        W91174  36.537  42.939  12.065
22946W        W91175  28.000  39.334  13.783
22947W        W91176   3.968  42.911  13.871
22948W        W91177   0.537  38.424  12.062
22949W        W91178  29.971   3.486  10.469
22950W        W91179   1.866   6.213  12.944
22951W        W91180  18.985  42.017   1.386
22952W        W91181  28.178  31.977  13.638
22953W        W91182  30.145  11.100   3.888
22954W        W91183  34.497  12.553   2.825
22955W        W91184  36.700  11.071  11.523
22956W        W91185  28.031  35.994   2.240
22957W        W91186  36.953   8.814  11.478
22958W        W91187  22.571  36.382  12.410
22959W        W91188  32.163  33.115   2.371
22960W        W91189  30.815  20.068   4.528
22961W        W91190  39.154  35.106   1.892
22962W        W91191  38.904   1.110  13.759
22963W        W91192  36.274  16.590  13.827
22964W        W91193  17.807  16.362  10.676
22965W        W91194  43.352   3.918   1.219
22966W        W91195   0.718   4.513   4.486
22967W        W91196  40.107  33.996   2.148
22968W        W91197  30.653   7.132   4.706
22969W        W91198   3.466  18.023  13.571
22970W        W91199  33.433   9.455   2.846
22971W        W91200  14.873   4.810   9.954
22972W        W91201  35.927   7.818  13.033
22973W        W91202  17.745  15.660   1.454
22974W        W91203  44.517  14.260  11.471
22975W        W91204  29.531  18.807  11.566
22976W        W91205  14.100  36.155  12.185
22977W        W91206  43.524   3.036   0.614
22978W        W91207   4.313  14.204   1.917
22979W        W91208  23.162  26.108   0.079
22980W        W91209  42.004  39.798  11.132
22981W        W91210  11.889  14.885  10.694
22982W        W91211  15.591  26.906   1.828
22983W        W91212   7.361  33.191  10.586
22984W        W91213  44.451  19.501  11.826
22985W        W91214   0.297  23.889  14.321
22986W        W91215   0.942   4.042  10.284
22987W        W91216  18.158   5.202  10.529
22988W        W91217  20.100  39.295   4.985
22989W        W91218  27.085  39.715   1.822
22990W        W91219  16.551  23.754  14.100
22991W        W91220  37.316   6.183   1.362
22992W        W91221  38.230  14.307   3.278
22993W        W91222  25.733   6.261  10.655
22994W        W91223   9.892  41.772  14.508
22995W        W91224  24.177   6.086  10.853
22996W        W91225  17.255  31.407  13.311
22997W        W91226   1.885  11.558   2.747
22998W        W91227   3.842  36.327   3.771
22999W        W91228  34.454  39.039   4.146
23000W        W91229  42.845   2.280   3.335
23001W        W91230  43.337  15.745  10.800
23002W        W91231  19.259   4.132  11.584
23003W        W91232   0.904  25.161  13.030
23004W        W91233  17.090  24.607  10.789
23005W        W91234  33.912   1.853   3.564
23006W        W91235   7.555  33.342   3.716
23007W        W91236  27.462  40.267  11.764
23008W        W91237  22.902  44.898  11.068
23009W        W91238  31.072   8.566  10.398
23010W        W91239  17.705  39.367  10.877
23011W        W91240  28.123  41.920   3.571
23012W        W91241  12.240  20.018   1.367
23013W        W91242  23.197  36.620  14.882
23014W        W91243  39.808  13.631   1.061
23015W        W91244  44.525  35.395   2.635
23016W        W91245  36.343  25.064   2.177
23017W        W91246  13.284  41.052  11.072
23018W        W91247  39.350  44.364   1.453
23019W        W91248  11.261   6.893   4.762
23020W        W91249   8.744  34.712   3.399
23021W        W91250  38.393  31.146   3.166
23022W        W91251  10.517  21.248   0.535
23023W        W91252  40.968  40.448   0.672
23024W        W91253   7.447   6.933  14.596
23025W        W91254  30.393   0.314  13.838
23026W        W91255  36.471  31.965   1.832
23027W        W91256   9.614  22.013  11.527
23028W        W91257   2.718  25.773   1.638
23029W        W91258  19.570   5.801  13.035
23030W        W91259  44.354  16.764  13.792
23031W        W91260  43.599  30.950  12.047
23032W        W91261  20.063  28.992   4.521
23033W        W91262  34.171  41.399   0.245
23034W        W91263  10.844   7.962   1.821
23035W        W91264  40.395  24.107   0.776
23036W        W91265  28.944  21.318  10.327
23037W        W91266  39.771  32.460   0.940
23038W        W91267  20.356  31.439  11.114
23039W        W91268   5.267  42.406  10.968
23040W        W91269  35.391  38.241   2.768
23041W        W91270   1.510  20.636   2.889
23042W        W91271  12.155  17.754   3.192
23043W        W91272  13.936  12.081  13.539
23044W        W91273  14.769  16.807  12.664
23045W        W91274   1.752  31.970  14.349
23046W        W91275  20.032  36.392  14.777
23047W        W91276  32.670  30.041   4.693
23048W        W91277  20.187  22.232   1.452
23049W        W91278  27.878   0.759   0.418
23050W        W91279  27.401  18.685  11.655
23051W        W91280   3.131   4.744   0.804
23052W        W91281   7.764  42.937  14.651
23053W        W91282   1.524  18.135   1.726
23054W        W91283  20.105  13.084   3.689
23055W        W91284  40.049  13.581   4.159
23056W        W91285  39.796  18.648  13.473
23057W        W91286  39.720   6.650  10.673
23058W        W91287  33.076  21.252   1.374
23059W        W91288  36.098  10.988  12.069
23060W        W91289  19.658  40.454  13.883
23061W        W91290  10.566  25.568  13.494
23062W        W91291  26.115  39.514   0.310
23063W        W91292  18.486  12.826   0.064
23064W        W91293   4.420  30.003  12.563
23065W        W91294  35.050  44.057   1.445
23066W        W91295  10.771   8.845   1.737
23067W        W91296  26.515  20.498   4.217
23068W        W91297  36.026  25.151  11.631
23069W        W91298  14.635  43.043   5.031
23070W        W91299   1.624  17.155  10.699
23071W        W91300  19.613   3.409   4.844
23072W        W91301  20.041  44.300   1.714
23073W        W91302  44.821   5.768   2.374
23074W        W91303  20.689  29.145   0.059
23075W        W91304  34.327  15.324  11.428
23076W        W91305   4.456  36.441  14.844
23077W        W91306  42.144  16.166  14.654
23078W        W91307   8.223  10.038  13.746
23079W        W91308  26.958  20.163  12.616
23080W        W91309  15.683  40.905  11.714
23081W        W91310   9.375  35.990  14.716
23082W        W91311  29.519  16.390   4.165
23083W        W91312  37.130  21.251   2.765
23084W        W91313  13.909  43.546  11.966
23085W        W91314  14.077  25.491  12.012
23086W        W91315   0.935  28.431  10.135
23087W        W91316   7.240  19.492   1.347
23088W        W91317  16.104  41.287   2.815
23089W        W91318  43.856   4.036   0.915
23090W        W91319  24.670  41.736   3.706
23091W        W91320  44.223  24.668   1.803
23092W        W91321   8.640  19.678  10.349
23093W        W91322  24.775  10.660   2.213
23094W        W91323  13.178  20.485  12.416
23095W        W91324  15.900  44.734   2.594
23096W        W91325  31.531  20.318   0.826
23097W        W91326  34.177  32.942  13.912
23098W        W91327  23.356  28.581   4.181
23099W        W91328   9.710   8.583   0.456
23100W        W91329  36.313  44.129   3.617
23101W        W91330  27.685  43.043  11.327
23102W        W91331  28.627   2.501   3.875
23103W        W91332  20.327  39.950   3.708
23104W        W91333   1.158  42.025  11.978
23105W        W91334   6.660  15.105   4.983
23106W        W91335  44.525  41.456   4.819
23107W        W91336  31.333  40.925   0.049
23108W        W91337   2.940  35.610  14.656
23109W        W91338  26.577   5.456   4.284
23110W        W91339  23.897  42.475   1.024
23111W        W91340  37.521  41.132  13.400
23112W        W91341   6.680  41.438   1.761
23113W        W91342  31.701  28.200   0.925
23114W        W91343  41.368  18.641   3.826
23115W        W91344   2.998  24.535  10.837
23116W        W91345  13.223   9.719   1.172
23117W        W91346  27.622   6.174   2.700
23118W        W91347  38.481  19.626   4.368
23119W        W91348  27.515  23.146  11.662
23120W        W91349  10.101  13.693  14.860
23121W        W91350  32.608  17.723  11.624
23122W        W91351  28.188  19.604  11.136
23123W        W91352  40.088  44.839  13.401
23124W        W91353  17.246  32.086   3.810
23125W        W91354   7.721  26.749   4.662
23126W        W91355  22.144  44.034  12.960
23127W        W91356  30.952  21.076   1.274
23128W        W91357  42.368  31.860  12.845
23129W        W91358  43.261  25.282  14.834
23130W        W91359  20.018  34.237   5.001
23131W        W91360   1.052  40.996  12.748
23132W        W91361   4.327  23.450  11.976
23133W        W91362   0.590  18.163  11.695
23134W        W91363  29.540  14.267   1.948
23135W        W91364  27.870  16.176  12.347
23136W        W91365  40.926  39.150  11.509
23137W        W91366  34.704  29.040  12.457
23138W        W91367  44.587  17.869  14.910
23139W        W91368  31.103  30.105  13.058
23140W        W91369  21.251  34.214   4.082
23141W        W91370   1.702  20.475   3.324
23142W        W91371  29.909  19.027  11.267
23143W        W91372  35.814  10.672   1.305
23144W        W91373  13.378  15.475   1.470
23145W        W91374  17.101  18.049  10.883
23146W        W91375  14.008  28.134  13.327
23147W        W91376  44.299  30.865  14.941
23148W        W91377  36.154  40.006  14.228
23149W        W91378  17.089  29.477   3.818
23150W        W91379  15.251  25.012  11.205
23151W        W91380  13.065  42.558   2.327
23152W        W91381  34.865  18.048   2.255
23153W        W91382  18.963  36.855  12.454
23154W        W91383   4.422  44.884  11.190
23155W        W91384  41.212  26.229   3.208
23156W        W91385  24.107  44.423  14.090
23157W        W91386   2.437  27.322   4.044
23158W        W91387   4.789  26.839   0.791
23159W        W91388  27.433  40.333   3.291
23160W        W91389  33.121  29.088  10.940
23161W        W91390  16.026  44.935   1.179
23162W        W91391   5.833  33.577  11.101
23163W        W91392  36.371  31.508   2.794
23164W        W91393  33.958  24.421   0.908
23165W        W91394  14.168  18.180   3.314
23166W        W91395  20.616  12.243   1.402
23167W        W91396  23.687  20.514   1.850
23168W        W91397  30.436  31.584  12.887
23169W        W91398  19.726  13.971  13.266
23170W        W91399  16.675  12.211  12.004
23171W        W91400   2.237  39.918   0.779
23172W        W91401  33.300  35.810   0.817
23173W        W91402   7.362  29.079  14.887
23174W        W91403   7.751  18.291   2.006
23175W        W91404  22.104  11.811   4.482
23176W        W91405  36.368  25.346   4.815
23177W        W91406  27.071   8.432  12.350
23178W        W91407  21.986  10.584  14.554
23179W        W91408  15.316  44.041   2.709
23180W        W91409  39.284   2.962   4.107
23181W        W91410  44.199  24.473  14.311
23182W        W91411   3.812  18.543  12.032
23183W        W91412  11.774  20.522   4.880
23184W        W91413   9.184  12.787   2.656
23185W        W91414   5.662  17.614  12.055
23186W        W91415  35.463  37.625  13.412
23187W        W91416  26.998  28.903   2.765
23188W        W91417   8.324   5.565   0.029
23189W        W91418  15.522  36.621  10.792
23190W        W91419  30.031   3.483  13.783
23191W        W91420  43.743  26.568  11.161
23192W        W91421  34.615  19.744  14.484
23193W        W91422  11.228  30.993  11.602
23194W        W91423  23.027  42.518   2.366
23195W        W91424   7.298  17.337   4.507
23196W        W91425  17.669  13.980   4.303
23197W        W91426  14.905  30.916  14.833
23198W        W91427  25.859  31.944   1.408
23199W        W91428  27.546  12.846  12.823
23200W        W91429  23.180  39.011   3.950
23201W        W91430   3.858  21.720  11.150
23202W        W91431   1.560  44.504   0.551
23203W        W91432  16.344  37.693   0.753
23204W        W91433  26.135  30.993  12.356
23205W        W91434  16.241  22.457  13.976
23206W        W91435   0.164  25.122  11.121
23207W        W91436  35.046  36.043  10.828
23208W        W91437  29.282  39.906   3.254
23209W        W91438  12.338   3.948  10.664
23210W        W91439  18.021  41.423   4.168
23211W        W91440  33.920   7.050   3.641
23212W        W91441  31.881   0.548   2.761
23213W        W91442  34.632   3.247  12.410
23214W        W91443   3.810  31.892   1.305
23215W        W91444   6.356   2.995   4.427
23216W        W91445  28.088  32.150  10.717
23217W        W91446  44.233   9.792   2.927
23218W        W91447   6.457  33.020  12.999
23219W        W91448  17.977   6.945   0.897
23220W        W91449   6.733  15.326   1.562
23221W        W91450  44.751  35.062  10.899
23222W        W91451   7.460  25.980  14.980
23223W        W91452   6.807  10.524   2.546
23224W        W91453   2.859  30.715   3.556
23225W        W91454   9.568  43.258  12.883
23226W        W91455   7.962  37.791  14.469
23227W        W91456  28.587   2.608  12.889
23228W        W91457  40.863  27.722  12.481
23229W        W91458  19.334   2.692   1.711
23230W        W91459  23.037  20.605   1.410
23231W        W91460  12.111  42.369   1.642
23232W        W91461  20.136   4.995  12.887
23233W        W91462   7.824  24.603  13.995
23234W        W91463  39.876  32.579   1.944
23235W        W91464  30.510  41.372   3.015
23236W        W91465  38.270  23.233   2.239
23237W        W91466  21.175   0.002  13.246
23238W        W91467  13.654  37.351   3.819
23239W        W91468  23.640  18.482   0.855
23240W        W91469  18.650  11.671  11.100
23241W        W91470  23.079  27.453  13.900
23242W        W91471   7.634  14.232   1.704
23243W        W91472  25.917  29.485   1.333
23244W        W91473   7.249  42.301   2.740
23245W        W91474  40.536  12.259  12.600
23246W        W91475   2.985  24.144   4.237
23247W        W91476  26.958  16.304   2.177
23248W        W91477  38.403  14.392   1.277
23249W        W91478  24.783  33.152  13.398
23250W        W91479   3.275  24.199   5.078
23251W        W91480  34.360   9.626  11.567
23252W        W91481   9.220  38.810  14.973
23253W        W91482  35.980  13.554  13.862
23254W        W91483  14.835   9.187   2.332
23255W        W91484   7.879  19.755   1.509
23256W        W91485   2.817  11.305   1.705
23257W        W91486   7.980   0.457   0.857
23258W        W91487  20.972   8.129   3.170
23259W        W91488   9.229  17.951   0.751
23260W        W91489   7.469  32.456  13.987
23261W        W91490  41.007  29.004   3.779
23262W        W91491  26.524  29.439   3.301
23263W        W91492  18.557   8.339  13.860
23264W        W91493   0.520  16.639  12.540
23265W        W91494  29.885  32.424   1.928
23266W        W91495  29.993  35.471   2.305
23267W        W91496  40.352  44.827  13.845
23268W        W91497  43.347  39.494  11.682
23269W        W91498  12.940   6.924   4.918
23270W        W91499  26.140  13.408   4.139
23271W        W91500   6.691  12.201  12.497
23272W        W91501   4.468   2.078  11.782
23273W        W91502  34.015   6.764  12.041
23274W        W91503  11.977  16.749  10.782
23275W        W91504  41.984  37.472  11.791
23276W        W91505  19.577  25.714  13.625
23277W        W91506  40.497  33.592   4.865
23278W        W91507  42.424  32.394  14.901
23279W        W91508   1.692  17.515   0.900
23280W        W91509  13.779  31.391   0.894
23281W        W91510  31.131  16.698   1.286
23282W        W91511  18.219  32.894   1.921
23283W        W91512  37.836  32.999   2.350
23284W        W91513  15.308  35.691   0.038
23285W        W91514   7.801  25.799   3.238
23286W        W91515  22.524  35.863  12.425
23287W        W91516  13.774   5.088   4.114
23288W        W91517  32.133  27.111  12.905
23289W        W91518  14.390   2.676   0.381
23290W        W91519   1.677  27.354  14.785
23291W        W91520  37.441  11.664   4.487
23292W        W91521  34.348  26.466  12.895
23293W        W91522  24.228   4.411  12.380
23294W        W91523  22.382  13.901   4.973
23295W        W91524  25.874  19.316  10.874
23296W        W91525  17.570  12.242  13.414
23297W        W91526  11.521  41.519  11.798
23298W        W91527  31.153  39.567   1.944
23299W        W91528  10.989  19.193   0.326
23300W        W91529  34.457  22.737  14.478
23301W        W91530  13.123  21.789  13.080
23302W        W91531   5.789  14.350  12.885
23303W        W91532  30.231  12.630  10.708
23304W        W91533  37.969  35.923   2.847
23305W        W91534  12.653  31.483  11.595
23306W        W91535  21.107  35.245  14.233
23307W        W91536  32.907  31.027  14.500
23308W        W91537  21.655  34.165   2.132
23309W        W91538   0.868  18.305  10.761
23310W        W91539   0.954  43.609   2.292
23311W        W91540   0.425  26.642   1.973
23312W        W91541  40.501  18.311  14.231
23313W        W91542   2.469  17.634  10.783
23314W        W91543  30.547   1.301   3.114
23315W        W91544  33.759  25.864   1.821
23316W        W91545   6.396   8.142   4.184
23317W        W91546  20.530   3.482  13.927
23318W        W91547  15.680  41.904   2.444
23319W        W91548  44.250  37.483   2.118
23320W        W91549  34.661  25.540   1.878
23321W        W91550   6.698  14.351   0.775
23322W        W91551  38.249  33.068   3.632
23323W        W91552  10.073  31.731   1.239
23324W        W91553   9.397  35.314   3.810
23325W        W91554  35.651  39.876  13.565
23326W        W91555  32.970  27.740  13.587
23327W        W91556  20.340  39.305  10.648
23328W        W91557  43.402  23.251  14.959
23329W        W91558  16.751   2.280   3.483
23330W        W91559  21.982  31.479   3.794
23331W        W91560  14.301   2.248  11.456
23332W        W91561  35.036  24.632   3.402
23333W        W91562   9.137  28.364   0.913
23334W        W91563  18.146  28.239   0.739
23335W        W91564   6.769  42.880   0.510
23336W        W91565   7.685  29.448  11.337
23337W        W91566  29.601   8.043  13.595
23338W        W91567  33.228  19.709   5.767
23339W        W91568  38.489  21.551  13.878
23340W        W91569  27.131  28.601  11.476
23341W        W91570  29.947   3.473   0.922
23342W        W91571  25.089  28.815  14.454
23343W        W91572   2.689  41.893   1.933
23344W        W91573   3.742  27.471  14.538
23345W        W91574   9.113  24.545   0.439
23346W        W91575  44.290  25.139  10.641
23347W        W91576  41.034  25.129   2.692
23348W        W91577   8.049  34.035   2.402
23349W        W91578  41.596  33.615  12.107
23350W        W91579   6.581  35.853  12.994
23351W        W91580   5.671  38.477   0.898
23352W        W91581  36.287  18.382  10.860
23353W        W91582  19.039  21.151   5.093
23354W        W91583  17.003  42.803   1.827
23355W        W91584  26.969   8.648   1.835
23356W        W91585  11.254  38.254  10.541
23357W        W91586  19.738  15.651  10.641
23358W        W91587  33.020  27.887  14.946
23359W        W91588  39.985   6.232  13.434
23360W        W91589  42.575  24.645   0.385
23361W        W91590  40.752   9.295  12.479
23362W        W91591  23.940  24.004   2.548
23363W        W91592   5.476  42.520  13.995
23364W        W91593   6.357  31.461  12.531
23365W        W91594  35.841  21.245  12.640
23366W        W91595  34.588  19.288   2.283
23367W        W91596  14.633   6.152   1.169
23368W        W91597   9.513  28.991   0.170
23369W        W91598  37.936  20.836   3.873
23370W        W91599   2.935  23.129  12.877
23371W        W91600  29.197  28.562  14.337
23372W        W91601  38.973  25.500  13.922
23373W        W91602   7.347   3.298  14.720
23374W        W91603  18.345  37.790   4.531
23375W        W91604  13.052  24.535   2.866
23376W        W91605   7.643  18.727   4.528
23377W        W91606  33.163  34.859   4.184
23378W        W91607  43.300  37.348  10.748
23379W        W91608  37.061  28.706   3.820
23380W        W91609  35.863  14.720   1.748
23381W        W91610  40.246  17.493  13.453
23382W        W91611   2.962  35.804   0.184
23383W        W91612  13.669  33.908  10.687
23384W        W91613   4.905  21.279  14.740
23385W        W91614  31.162  24.347  13.124
23386W        W91615   1.363   8.104  14.626
23387W        W91616   1.048  12.636   3.346
23388W        W91617  38.618  12.433   2.239
23389W        W91618  20.815  12.307   1.868
23390W        W91619  15.476   1.739   4.026
23391W        W91620   5.714  17.708   1.264
23392W        W91621  39.100   6.466  13.908
23393W        W91622  20.625  11.903  13.258
23394W        W91623  40.561  25.083   2.424
23395W        W91624  17.048  30.550  12.242
23396W        W91625  28.867  32.492   2.135
23397W        W91626   8.827   9.775   1.471
23398W        W91627  35.079   0.452   0.259
23399W        W91628  38.512  12.705  11.281
23400W        W91629  22.143   9.262   3.524
23401W        W91630  40.946  23.196   0.055
23402W        W91631  16.245   8.176   4.747
23403W        W91632   6.348  44.470   3.616
23404W        W91633  38.769   5.163   0.800
23405W        W91634  23.611  31.984  11.022
23406W        W91635  24.248  26.121   2.666
23407W        W91636   3.760  41.851  14.951
23408W        W91637  20.172  27.868  12.307
23409W        W91638  16.777  42.529  10.712
23410W        W91639  11.301  10.856  11.736
23411W        W91640  33.801  22.084  14.120
23412W        W91641  10.783  28.389  13.543
23413W        W91642  13.962   4.715   1.389
23414W        W91643   2.949  10.279  12.655
23415W        W91644  11.632   9.169   4.923
23416W        W91645  16.949  29.074   1.439
23417W        W91646  30.746  42.378  14.291
23418W        W91647  18.771  26.423   0.937
23419W        W91648  27.379  29.827  11.992
23420W        W91649   6.265  23.525   3.172
23421W        W91650  33.495   2.949   0.264
23422W        W91651  35.142  17.793   2.618
23423W        W91652  20.131   7.790  11.532
23424W        W91653  29.952  30.869  11.114
23425W        W91654  44.784  31.644  14.947
23426W        W91655  20.826  25.046   1.803
23427W        W91656  34.856  38.612   0.526
23428W        W91657   4.296   8.736   2.189
23429W        W91658  11.137   0.761   0.146
23430W        W91659  18.145  17.205   1.707
23431W        W91660  39.160   2.419  12.760
23432W        W91661   6.244  43.343   5.046
23433W        W91662  27.986  12.596   0.032
23434W        W91663  42.988  15.306   0.368
23435W        W91664   0.174   4.850   1.436
23436W        W91665   7.895  20.109  14.775
23437W        W91666  33.394   3.379  13.471
23438W        W91667   5.317  26.217   1.801
23439W        W91668  10.128  22.056  11.456
23440W        W91669   8.226  28.420   3.643
23441W        W91670  24.695  18.706   4.809
23442W        W91671   4.241  20.203   3.585
23443W        W91672  13.540  37.810  12.430
23444W        W91673  20.449  15.529   0.690
23445W        W91674  34.102  15.824   4.872
23446W        W91675  11.886  24.177  12.518
23447W        W91676   6.835  28.230   3.787
23448W        W91677   1.541  24.320   2.231
23449W        W91678  21.109  25.768   4.243
23450W        W91679  36.958  29.075  11.931
23451W        W91680  37.103  27.593   4.045
23452W        W91681  22.486  27.093  11.209
23453W        W91682  11.633  26.582  10.716
23454W        W91683  22.643  18.617   2.191
23455W        W91684  31.739  17.115  14.814
23456W        W91685  11.916  17.350  13.532
23457W        W91686  16.088  16.211  11.036
23458W        W91687   6.479  24.008   3.195
23459W        W91688  41.943  31.225   1.908
23460W        W91689  32.862  39.530  11.625
23461W        W91690  39.850   3.535   0.260
23462W        W91691  25.089   6.189  12.017
23463W        W91692  27.064   1.422  13.104
23464W        W91693  22.546  43.897   4.620
23465W        W91694  10.760   8.230   4.792
23466W        W91695  20.319  35.406  13.475
23467W        W91696  15.728  35.185   3.222
23468W        W91697  38.237   4.953  11.048
23469W        W91698  15.410  21.796  14.292
23470W        W91699  16.757  29.863  12.847
23471W        W91700  28.094  32.439   3.629
23472W        W91701  34.289   2.025  12.948
23473W        W91702  12.344  30.699   1.658
23474W        W91703  14.673  17.435   2.337
23475W        W91704   7.874  35.025  12.155
23476W        W91705   3.738   6.644   1.373
23477W        W91706  12.836  43.475   3.282
23478W        W91707  39.508   1.367   0.013
23479W        W91708  32.148   3.690  13.419
23480W        W91709   8.272  40.235  14.651
23481W        W91710   1.159  37.500   2.732
23482W        W91711  18.693  28.154  10.269
23483W        W91712  31.095   4.182  10.923
23484W        W91713  13.427  43.551  11.091
23485W        W91714  25.746  25.434  14.340
23486W        W91715   0.319   1.266  11.552
23487W        W91716  20.591  30.303   3.907
23488W        W91717   1.361  20.758   4.368
23489W        W91718  36.989  22.084  13.514
23490W        W91719   7.435  14.024   3.681
23491W        W91720   4.902   1.765  11.922
23492W        W91721   3.487  16.643  13.436
23493W        W91722  22.665   6.234   4.534
23494W        W91723  12.159  34.999  14.877
23495W        W91724  26.177  17.312   2.972
23496W        W91725  31.693  43.027  14.280
23497W        W91726  32.198  30.930   1.242
23498W        W91727  33.163  10.296   2.134
23499W        W91728  27.277  43.931  11.511
23500W        W91729  23.476  22.708   2.246
23501W        W91730  17.260  41.331   0.914
23502W        W91731  16.728  26.262   0.836
23503W        W91732  31.781  38.908   1.906
23504W        W91733  42.007   3.440  14.806
23505W        W91734  24.684   0.765   4.514
23506W        W91735  19.115  35.186   1.180
23507W        W91736  21.736   6.183  12.514
23508W        W91737  34.925  34.862   1.880
23509W        W91738  34.687  30.910   1.234
23510W        W91739  26.078  39.052   4.948
23511W        W91740  29.715  44.038  14.478
23512W        W91741  22.119  14.152  12.471
23513W        W91742  37.429  16.118   1.382
23514W        W91743  16.060  38.174  12.391
23515W        W91744  15.977  22.007  12.950
23516W        W91745  42.631   3.795   3.636
23517W        W91746   5.679  40.351   2.638
23518W        W91747  15.817  19.023  10.281
23519W        W91748   8.691  12.601  11.985
23520W        W91749  13.431   6.947   1.726
23521W        W91750  11.419  43.512   1.014
23522W        W91751  34.031  16.785  12.961
23523W        W91752  39.518   7.292  11.830
23524W        W91753  28.730  17.345   4.553
23525W        W91754  25.068  35.024   2.890
23526W        W91755  41.462   7.305  12.834
23527W        W91756   9.649  25.710  14.551
23528W        W91757  11.959  15.285  11.045
23529W        W91758  33.829   5.261  14.305
23530W        W91759  21.097  32.107  11.195
23531W        W91760  10.751  38.575   3.828
23532W        W91761  16.389  24.094  11.550
23533W        W91762  15.821  20.907  11.053
23534W        W91763  30.962  22.153  13.950
23535W        W91764  10.835  30.456  11.132
23536W        W91765  17.574  24.731   1.410
23537W        W91766  42.733  26.064  12.421
23538W        W91767  22.313  24.694   3.668
23539W        W91768   0.999  34.728  13.095
23540W        W91769  31.745  10.309  12.509
23541W        W91770  17.259  21.977  14.851
23542W        W91771  17.684   1.016  11.214
23543W        W91772  35.368   4.038  11.044
23544W        W91773  29.025  23.923   3.392
23545W        W91774   0.010  14.210  12.409
23546W        W91775   2.021   9.213  10.739
23547W        W91776  16.791   0.735  12.071
23548W        W91777  38.915  40.449  11.922
23549W        W91778  34.637  40.105   1.464
23550W        W91779  37.480   8.962  11.542
23551W        W91780  17.747   9.603  13.053
23552W        W91781   7.571  41.987  12.174
23553W        W91782  33.491  30.087   3.651
23554W        W91783  42.372   3.110   1.321
23555W        W91784  25.312   9.678   4.555
23556W        W91785  20.971  17.521   0.903
23557W        W91786   1.251   4.467   2.195
23558W        W91787   8.275  13.870  11.479
23559W        W91788  44.587   1.935   1.442
23560W        W91789  37.813  15.176  14.337
23561W        W91790  38.045  15.092  12.916
23562W        W91791  10.348  24.510  12.162
23563W        W91792  10.820  22.986  12.532
23564W        W91793   6.791  32.055   3.670
23565W        W91794  34.237  14.134   1.078
23566W        W91795  21.960  34.011   0.874
23567W        W91796  33.393  24.684  12.402
23568W        W91797  31.033  38.623   3.257
23569W        W91798   1.328  30.890   1.150
23570W        W91799  35.531  19.638   2.172
23571W        W91800  12.804  32.151   0.756
23572W        W91801   4.832   1.511  10.138
23573W        W91802   2.996   5.321   0.734
23574W        W91803  11.736   2.814   2.464
23575W        W91804  33.913  38.058  12.822
23576W        W91805  23.672   8.159   1.321
23577W        W91806   7.144  37.464  11.961
23578W        W91807  35.550  42.506   4.670
23579W        W91808  44.090  31.294  13.877
23580W        W91809  36.407  19.020  12.351
23581W        W91810  32.619   8.568  12.525
23582W        W91811  41.884  28.692   3.636
23583W        W91812  12.868  29.143  14.921
23584W        W91813  21.705  12.723   4.695
23585W        W91814  14.698  39.334   2.936
23586W        W91815   4.839  42.907  10.287
23587W        W91816  12.149  22.557   0.239
23588W        W91817   4.324  32.376  12.957
23589W        W91818  14.106  18.119  10.300
23590W        W91819  23.662  29.583  14.033
23591W        W91820  27.970   2.937   5.055
23592W        W91821  19.820  39.013  13.465
23593W        W91822  16.634  44.762  11.742
23594W        W91823  13.223   8.000  12.432
23595W        W91824  34.514  21.580   4.336
23596W        W91825   4.240   5.368   3.464
23597W        W91826  24.747  26.752   4.638
23598W        W91827  44.914  35.372  11.484
23599W        W91828   7.911  25.674  12.567
23600W        W91829  27.740  25.895  11.154
23601W        W91830   9.168  22.476  12.648
23602W        W91831  17.338  39.939   4.655
23603W        W91832   1.355  34.901   4.211
23604W        W91833   0.695   6.837  14.986
23605W        W91834  28.616  41.327   1.109
23606W        W91835  10.325  12.216  13.088
23607W        W91836  16.097  43.036   0.739
23608W        W91837  40.072  29.050  11.042
23609W        W91838  39.829   6.407   1.231
23610W        W91839  25.413  38.421   3.670
23611W        W91840  14.149  22.710   1.215
23612W        W91841  31.719  22.712   1.042
23613W        W91842  28.559   0.764   1.502
23614W        W91843  15.565  34.951   1.003
23615W        W91844   9.169  24.758  13.068
23616W        W91845  21.470  11.928  10.632
23617W        W91846  32.561  12.939  11.843
23618W        W91847   2.556  16.661   1.141
23619W        W91848   9.832  21.814  14.837
23620W        W91849  19.053  27.149   4.140
23621W        W91850   3.481  11.165   2.949
23622W        W91851  11.244  14.884   3.653
23623W        W91852  36.133  35.328  14.508
23624W        W91853   6.696  33.474  14.074
23625W        W91854  16.882  30.066   0.565
23626W        W91855  39.033   6.678   0.302
23627W        W91856  27.024  38.746  14.821
23628W        W91857  10.432  39.353  11.365
23629W        W91858  11.053   5.217   4.638
23630W        W91859  24.999  14.882   3.185
23631W        W91860   2.882   3.031  10.659
23632W        W91861   2.322  26.055  13.543
23633W        W91862  24.961  12.246  11.535
23634W        W91863  12.206  43.998  12.903
23635W        W91864   1.765  40.943  11.559
23636W        W91865  16.671  27.455   3.213
23637W        W91866  39.088  17.229   0.894
23638W        W91867   8.220  13.022  13.799
23639W        W91868  43.247   0.957   4.038
23640W        W91869  37.065  19.378   4.618
23641W        W91870  13.499   3.086  12.117
23642W        W91871  26.123  39.417  14.249
23643W        W91872   7.281  33.448   3.288
23644W        W91873  27.421  26.429  13.114
23645W        W91874  25.565  40.834  10.673
23646W        W91875  20.349  27.648   4.740
23647W        W91876  25.450   5.782   1.241
23648W        W91877  27.985   6.383  12.318
23649W        W91878  11.153   6.160   4.237
23650W        W91879  22.546  35.854   0.823
23651W        W91880  17.551  22.153  12.873
23652W        W91881  44.000  27.470   3.615
23653W        W91882  36.046   9.773  14.342
23654W        W91883  13.147  17.190   3.850
23655W        W91884   1.500   4.386  12.118
23656W        W91885  44.924   1.676   4.583
23657W        W91886   5.979   2.484   2.740
23658W        W91887  15.076   8.390   2.928
23659W        W91888  39.745  37.359   0.795
23660W        W91889  12.819  24.378  14.672
23661W        W91890  33.083  11.264  12.947
23662W        W91891  44.311  31.930   3.734
23663W        W91892   7.708  16.796  12.534
23664W        W91893  29.840  40.986  14.835
23665W        W91894  43.177  28.120   2.730
23666W        W91895  32.909   7.370  12.050
23667W        W91896  31.618  23.136   1.370
23668W        W91897  24.007   1.280  12.450
23669W        W91898  25.718   4.199   4.196
23670W        W91899  39.369  14.809   4.181
23671W        W91900   9.214  17.683   2.088
23672W        W91901  13.783   8.519  13.533
23673W        W91902   8.187  44.980   4.161
23674W        W91903   9.413  32.667   0.746
23675W        W91904  36.544  23.455   1.342
23676W        W91905  28.604  35.011   3.542
23677W        W91906  38.042   4.489   2.350
23678W        W91907  33.828  15.981   0.293
23679W        W91908  22.314  41.913   1.926
23680W        W91909  24.811   1.712  12.787
23681W        W91910   3.482  22.636   0.898
23682W        W91911  24.410  42.317   3.264
23683W        W91912  21.947  28.636   2.799
23684W        W91913  21.125   2.983   3.247
23685W        W91914  37.579  33.447  10.578
23686W        W91915  28.213   0.067  12.480
23687W        W91916   1.766  38.237  13.044
23688W        W91917  38.539  24.150  13.440
23689W        W91918  18.358  39.320   0.306
23690W        W91919  29.224   8.171   3.618
23691W        W91920   1.308  23.691  11.080
23692W        W91921  40.868  31.191  12.172
23693W        W91922  23.228   3.475  12.124
23694W        W91923  22.237  26.909  13.709
23695W        W91924  14.255  32.714   3.472
23696W        W91925   1.766  34.480  11.565
23697W        W91926   3.489  13.055   3.402
23698W        W91927   4.690  13.074   0.869
23699W        W91928  18.199  21.234  11.151
23700W        W91929  38.394  14.188   2.811
23701W        W91930  26.675  21.106  11.035
23702W        W91931  38.406   0.949  10.610
23703W        W91932  13.921  16.198  12.862
23704W        W91933  13.570  27.683   2.807
23705W        W91934  18.266  44.317  11.981
23706W        W91935  16.748   9.209  11.263
23707W        W91936  20.206  34.468  12.044
23708W        W91937  36.538  14.040   1.204
23709W        W91938  24.688  11.155  11.066
23710W        W91939  37.983   5.379   2.355
23711W        W91940   1.069  29.317   0.360
23712W        W91941   8.778  21.489   1.928
23713W        W91942   1.237  14.746   4.866
23714W        W91943   0.971  38.378   4.195
23715W        W91944  20.199   3.199  12.190
23716W        W91945  24.555  19.150   1.459
23717W        W91946  37.417   1.442  10.780
23718W        W91947  19.518  17.790   3.319
23719W        W91948  36.268  18.124   9.881
23720W        W91949  17.953   0.245  12.447
23721W        W91950  25.638  11.590   2.899
23722W        W91951  15.997   8.356   3.108
23723W        W91952  42.928  28.643  13.515
23724W        W91953  27.102  26.965  14.934
23725W        W91954   0.870  37.597  10.645
23726W        W91955  36.981  33.911  10.454
23727W        W91956   3.292   1.854  11.002
23728W        W91957  26.718   8.868  10.684
23729W        W91958  25.081  35.470   2.150
23730W        W91959  18.831   6.228   2.009
23731W        W91960  43.375  32.925  10.870
23732W        W91961  39.127  39.435   0.679
23733W        W91962   6.766  43.874   3.795
23734W        W91963   9.353   4.054   2.231
23735W        W91964  21.588  22.573  10.928
23736W        W91965  36.115  18.627   2.894
23737W        W91966  39.296   6.750   2.930
23738W        W91967  34.158  34.964  10.729
23739W        W91968  12.156   1.942   0.937
23740W        W91969  33.747   5.384   2.131
23741W        W91970  34.466  25.061  14.832
23742W        W91971   9.686  44.541  10.433
23743W        W91972   8.089  38.974   1.294
23744W        W91973  21.252  40.782   4.125
23745W        W91974   8.911  31.557   4.253
23746W        W91975  21.419  21.363  10.675
23747W        W91976  28.423  19.199   0.009
23748W        W91977  30.765  11.035   2.196
23749W        W91978   3.761  43.178   4.986
23750W        W91979  27.069  36.913   3.281
23751W        W91980  16.666  37.263  13.382
23752W        W91981  17.822   1.051  12.880
23753W        W91982  24.681   7.755   0.723
23754W        W91983  10.037  15.495   0.300
23755W        W91984  14.742  14.930   3.171
23756W        W91985  25.137  31.512   4.282
23757W        W91986  10.237  39.339   3.976
23758W        W91987  29.684  12.819   3.728
23759W        W91988  24.641   5.916  10.646
23760W        W91989  24.098  38.023   4.214
23761W        W91990   3.147  35.816  11.893
23762W        W91991  23.512   6.224   3.687
23763W        W91992  32.605   9.011  14.322
23764W        W91993  43.054  28.931   2.353
23765W        W91994   3.282  31.010   3.319
23766W        W91995  37.033  27.535   1.654
23767W        W91996  13.467  20.029  11.263
23768W        W91997  10.828  23.886   0.436
23769W        W91998  39.957  14.636   0.208
23770W        W91999  16.107  10.615   2.426
23771W        W92000  22.077   3.528   4.807
23772W        W92001  16.033   3.027   2.566
23773W        W92002  13.556  15.823   1.025
23774W        W92003   6.120  15.666  14.046
23775W        W92004  28.117  23.470   1.178
23776W        W92005  17.274  17.316  11.530
23777W        W92006  32.376  22.141   4.776
23778W        W92007  13.572   5.619   2.413
23779W        W92008  32.090  41.733  12.153
23780W        W92009   4.021  26.585   2.670
23781W        W92010   1.382   5.356   1.232
23782W        W92011  31.365  34.647   4.540
23783W        W92012  19.392  25.696  10.091
23784W        W92013  11.338  26.092  11.679
23785W        W92014   4.263  14.744   0.693
23786W        W92015  18.416  34.594   4.494
23787W        W92016  31.559  10.271  14.780
23788W        W92017  32.635   5.231  13.819
23789W        W92018  19.849  31.101   3.225
23790W        W92019  10.089  25.429  13.636
23791W        W92020  38.933  19.711   2.862
23792W        W92021  20.271  35.978   2.782
23793W        W92022  20.936   3.268  11.561
23794W        W92023  42.994  44.351   0.320
23795W        W92024  33.429  28.530  11.637
23796W        W92025  27.755  37.084  12.376
23797W        W92026  39.450  18.303  11.329
23798W        W92027  16.034   4.397   1.750
23799W        W92028   6.399  34.574  14.912
23800W        W92029  22.593  30.854  13.400
23801W        W92030   6.279   1.021  10.772
23802W        W92031   7.420  42.776  13.339
23803W        W92032  37.297  14.856   0.197
23804W        W92033  14.146  10.247   0.752
23805W        W92034  35.138  23.064   0.275
23806W        W92035  38.214  43.013  11.635
23807W        W92036   9.499   2.049  10.876
23808W        W92037   4.871  40.459  11.546
23809W        W92038  23.615  11.633   0.691
23810W        W92039  43.858  27.248  10.766
23811W        W92040  25.548  20.509   1.339
23812W        W92041  25.051  31.906  14.040
23813W        W92042  11.069  44.941   2.974
23814W        W92043  15.621  32.886  12.050
23815W        W92044   6.688  10.461   4.174
23816W        W92045  27.659  11.480  13.426
23817W        W92046  12.575   5.007  11.697
23818W        W92047  34.588  41.893  12.099
23819W        W92048  40.515  40.538  13.337
23820W        W92049  41.842  13.177  11.150
23821W        W92050  26.097  32.911  12.482
23822W        W92051  28.678  34.806  13.063
23823W        W92052  37.584  32.905  12.467
23824W        W92053  22.431   4.460  12.756
23825W        W92054  11.255  25.008   2.633
23826W        W92055   8.758  22.949  11.487
23827W        W92056  12.307   4.103   0.436
23828W        W92057   0.914   6.979   4.063
23829W        W92058  44.135  11.675  14.793
23830W        W92059   4.314  31.390   4.284
23831W        W92060  10.182  18.279   3.283
23832W        W92061  16.339  14.383   3.630
23833W        W92062  24.149  23.526  12.864
23834W        W92063  15.404  37.895  12.870
23835W        W92064  17.115  37.541  14.686
23836W        W92065  25.913  35.429   0.730
23837W        W92066  28.937  26.078  12.113
23838W        W92067  25.010  44.830   3.214
23839W        W92068  27.728  37.808  11.383
23840W        W92069  25.244   7.331   1.031
23841W        W92070  34.696  10.560   4.764
23842W        W92071  34.546  15.774  14.388
23843W        W92072  30.090  23.820  14.198
23844W        W92073  42.686  25.375  12.984
23845W        W92074  15.089  40.035   1.767
23846W        W92075  25.904  24.154   1.227
23847W        W92076   0.892  42.284  12.836
23848W        W92077  42.832  42.177  12.371
23849W        W92078  17.045   8.659  12.117
23850W        W92079  37.419  37.052   2.371
23851W        W92080   1.035  42.676  11.947
23852W        W92081  37.062  40.712  11.584
23853W        W92082  21.945  23.881  13.407
23854W        W92083   4.518  14.430  12.555
23855W        W92084  16.046   2.737  12.446
23856W        W92085  33.573   6.427  13.585
23857W        W92086  40.227  26.132  13.751
23858W        W92087  33.610  43.066  12.862
23859W        W92088   4.740  28.168   4.133
23860W        W92089  11.078  12.237   0.017
23861W        W92090  14.854   4.303  12.590
23862W        W92091  18.227  38.040   1.909
23863W        W92092  23.723  36.058  11.845
23864W        W92093  31.001  14.177  11.805
23865W        W92094   9.607   3.543  14.326
23866W        W92095   6.401  42.295   2.325
23867W        W92096  14.845  40.510   2.367
23868W        W92097   0.376  40.062   3.123
23869W        W92098  36.976   6.423  10.794
23870W        W92099  22.901  35.394  10.755
23871W        W92100  10.102  16.133   1.746
23872W        W92101  42.237   9.852  14.528
23873W        W92102  21.409  23.697   2.056
23874W        W92103  18.986   2.178  13.510
23875W        W92104   2.297   6.979   1.404
23876W        W92105  37.536   0.751  13.551
23877W        W92106   0.960  17.468  11.196
23878W        W92107  36.643  42.194  11.596
23879W        W92108   0.979  20.099  11.261
23880W        W92109   2.197  42.779   1.192
23881W        W92110  28.938  38.003  11.232
23882W        W92111  14.893   4.705  12.258
23883W        W92112   6.127  31.773  11.183
23884W        W92113  40.862  32.385   4.597
23885W        W92114  17.833  40.096   4.594
23886W        W92115   0.281   2.728   2.311
23887W        W92116  34.677   7.005   3.256
23888W        W92117  36.340  39.116   3.784
23889W        W92118  42.819  32.081   0.587
23890W        W92119   3.274  25.047   2.621
23891W        W92120  22.001  28.156   3.839
23892W        W92121  36.418   1.156   4.593
23893W        W92122  31.279  11.802   2.805
23894W        W92123  17.178   4.384   2.208
23895W        W92124  18.174   7.750  11.998
23896W        W92125   1.402  27.504   0.273
23897W        W92126  19.094  38.527  13.814
23898W        W92127  28.397  32.956   0.755
23899W        W92128   5.868  29.715  11.157
23900W        W92129   5.346  13.390   4.762
23901W        W92130  22.484   5.903  12.920
23902W        W92131   3.035  18.563   3.195
23903W        W92132  43.754  13.398  11.163
23904W        W92133  31.349   6.660   1.396
23905W        W92134  16.664  22.992   4.859
23906W        W92135  41.082  19.220  14.685
23907W        W92136  12.707  19.162  13.423
23908W        W92137  36.621  26.866  12.023
23909W        W92138  29.659  38.940  11.669
23910W        W92139  19.791  21.923  13.406
23911W        W92140  39.893  14.768   4.397
23912W        W92141   2.323  38.876  12.060
23913W        W92142   7.624  30.922  13.430
23914W        W92143  12.596   7.468  14.389
23915W        W92144  14.690  35.318  14.467
23916W        W92145  31.774  20.120   2.339
23917W        W92146  34.694   2.352   0.570
23918W        W92147  27.470  14.620   0.155
23919W        W92148  34.899   0.034   4.828
23920W        W92149  24.605  25.312  12.026
23921W        W92150  34.943  24.119   3.245
23922W        W92151  34.578  24.288  12.005
23923W        W92152  41.941  43.352   1.817
23924W        W92153  10.384  18.805  14.905
23925W        W92154  23.823  21.014   0.843
23926W        W92155  19.218  14.761   1.953
23927W        W92156  22.035   0.354  12.529
23928W        W92157  23.924  23.967  14.793
23929W        W92158  30.667   8.549   4.286
23930W        W92159   0.065  38.481  12.309
23931W        W92160   1.689  29.534   0.627
23932W        W92161  24.271  32.362  11.536
23933W        W92162  19.636   4.578   4.621
23934W        W92163  10.712   2.042  12.607
23935W        W92164  26.441  10.819  11.618
23936W        W92165  42.747  28.699   3.352
23937W        W92166  27.784  40.360  14.338
23938W        W92167   4.511  35.862   2.181
23939W        W92168  15.427  16.424   4.559
23940W        W92169  10.807  26.655  11.218
23941W        W92170   7.226   6.845   4.296
23942W        W92171  10.347  28.176  14.260
23943W        W92172  43.311  24.032   3.159
23944W        W92173  29.631   7.129  14.465
23945W        W92174  39.528   4.020   0.709
23946W        W92175  22.619  34.542  13.606
23947W        W92176   3.748  24.162   2.664
23948W        W92177  21.941  39.296  13.422
23949W        W92178  19.572   0.590   3.220
23950W        W92179  44.460  41.032   3.158
23951W        W92180  39.072  20.781   4.688
23952W        W92181   6.316   8.738   4.064
23953W        W92182  37.973  18.803  10.764
23954W        W92183  18.607  37.007  12.819
23955W        W92184   3.468  11.404  10.998
23956W        W92185  13.361   4.423   2.278
23957W        W92186  32.877  41.878  14.055
23958W        W92187  26.069  18.043   2.106
23959W        W92188  39.954  23.997   1.922
23960W        W92189  34.544  22.705   3.643
23961W        W92190  39.811   7.503  14.495
23962W        W92191  15.681  42.308   4.066
23963W        W92192  25.009   1.176  14.365
23964W        W92193  24.717  43.094   2.330
23965W        W92194  37.568  39.468   2.940
23966W        W92195  29.402  24.090   3.710
23967W        W92196  18.629  31.441   0.801
23968W        W92197  43.881  26.723  14.164
23969W        W92198   2.897  32.093  10.701
23970W        W92199   2.355  43.611   4.188
23971W        W92200  28.113  27.368   0.673
23972W        W92201  13.661  20.609   4.510
23973W        W92202   2.189  21.487  11.028
23974W        W92203  30.500  16.105   1.146
23975W        W92204  31.472  30.655  11.112
23976W        W92205  15.665  15.305  14.212
23977W        W92206   0.226   9.264   3.752
23978W        W92207  22.743  30.223   3.242
23979W        W92208  35.402  24.018   2.931
23980W        W92209  14.850  40.865  11.503
23981W        W92210   3.494  25.532  13.319
23982W        W92211  42.233  16.703  14.311
23983W        W92212   6.692  37.011  14.882
23984W        W92213  43.768  29.391  12.344
23985W        W92214  44.728   9.938   2.843
23986W        W92215  16.774  30.454  11.480
23987W        W92216  38.333  30.589   1.970
23988W        W92217  19.838  16.883  11.106
23989W        W92218  15.206  16.537  14.509
23990W        W92219  28.199  31.180   3.888
23991W        W92220  30.335   1.826  12.065
23992W        W92221  32.187  10.206   3.200
23993W        W92222  41.501  40.884   4.568
23994W        W92223   9.322  31.365  14.226
23995W        W92224  19.666  42.410   0.290
23996W        W92225  44.339  28.074   0.318
23997W        W92226  13.670  40.114  14.775
23998W        W92227  44.836   5.180  12.972
23999W        W92228  25.956  21.131   2.036
24000W        W92229   7.880   6.254  12.571
24001W        W92230   8.414  29.173  13.429
24002W        W92231   3.750  25.157  14.289
24003W        W92232  15.016  30.278   4.211
24004W        W92233  33.809   3.370  10.678
24005W        W92234  44.329   5.335  13.037
24006W        W92235   3.831  25.948  14.999
24007W        W92236  10.266  27.508  12.029
24008W        W92237   9.162   6.953  14.775
24009W        W92238  28.023  24.358   0.963
24010W        W92239  31.219  15.985  14.789
24011W        W92240  38.907  15.504  13.087
24012W        W92241   3.406  19.108   2.715
24013W        W92242  14.609  16.277  14.593
24014W        W92243  42.926  43.353   2.836
24015W        W92244  13.682   1.712  13.170
24016W        W92245   6.878  13.872   3.538
24017W        W92246   2.482  40.084   4.766
24018W        W92247  27.220  30.571   2.647
24019W        W92248  34.966   9.141   2.822
24020W        W92249  10.574  11.606   1.512
24021W        W92250   7.221  40.272  11.205
24022W        W92251  30.093  31.998   2.287
24023W        W92252  37.342  27.881  12.102
24024W        W92253  25.247  40.772  11.080
24025W        W92254  41.958  28.082  14.863
24026W        W92255  19.765   5.000  13.502
24027W        W92256  30.953  33.095   3.193
24028W        W92257  14.543   7.375   3.202
24029W        W92258  26.999   8.192  14.979
24030W        W92259  13.406  19.730   1.795
24031W        W92260  31.226   3.123   2.213
24032W        W92261  22.289   0.360   2.373
24033W        W92262  16.887  21.674   5.060
24034W        W92263  10.107  40.490  11.461
24035W        W92264  12.150  10.472   2.319
24036W        W92265  42.279  20.552   0.967
24037W        W92266  44.958  39.558   1.871
24038W        W92267  17.726   4.135   3.088
24039W        W92268  40.980  13.177   0.981
24040W        W92269  13.515  20.094  14.362
24041W        W92270  22.151   6.677   0.225
24042W        W92271  11.554   5.854  11.605
24043W        W92272  29.569  39.604  14.369
24044W        W92273  37.708  39.855  12.517
24045W        W92274   3.629  20.064   2.289
24046W        W92275  41.320  39.515  11.574
24047W        W92276  13.813  37.121  10.748
24048W        W92277  31.391  40.010  14.875
24049W        W92278  28.003  29.377   5.005
24050W        W92279  27.825   7.960   3.879
24051W        W92280  35.608  27.191   2.846
24052W        W92281  20.428  39.322  13.200
24053W        W92282  30.333   3.651   1.256
24054W        W92283  28.848   9.662   1.783
24055W        W92284  13.234  24.723   1.509
24056W        W92285  36.787  25.510   4.471
24057W        W92286  43.815  42.822   0.338
24058W        W92287  30.210  40.399  11.960
24059W        W92288  23.613   3.690  14.752
24060W        W92289  11.702  42.755   0.365
24061W        W92290  10.109  43.436  14.847
24062W        W92291  22.710  26.139   0.454
24063W        W92292  30.508  31.373   1.710
24064W        W92293  40.765  30.079  14.047
24065W        W92294   9.370  38.584  10.977
24066W        W92295   0.379  30.416  13.328
24067W        W92296  18.617   5.405  11.585
24068W        W92297  44.901   6.909   4.068
24069W        W92298  39.798   4.786  14.952
24070W        W92299  37.647  22.702  14.069
24071W        W92300  16.555  31.528   0.347
24072W        W92301   1.871   0.674  10.550
24073W        W92302   7.305  39.373   4.414
24074W        W92303  24.260  34.095   2.304
24075W        W92304  40.030   4.972   0.390
24076W        W92305  40.399  26.819  11.204
24077W        W92306  20.774   0.365   4.536
24078W        W92307   8.340   2.401   2.310
24079W        W92308   5.425   9.315   2.345
24080W        W92309  41.312  32.130  14.714
24081W        W92310   1.654   0.969  14.452
24082W        W92311  29.231  18.787  12.948
24083W        W92312  11.085  32.500  10.705
24084W        W92313  28.504  17.209  11.518
24085W        W92314   8.434  11.801   4.382
24086W        W92315  10.610  36.764  14.913
24087W        W92316  37.369  32.995   0.880
24088W        W92317  30.012  32.984  12.128
24089W        W92318   6.923   9.731   3.777
24090W        W92319   0.375  16.119   4.163
24091W        W92320   8.268   7.234   4.602
24092W        W92321  30.994  29.491   0.792
24093W        W92322  37.832  22.273  13.861
24094W        W92323   8.572  16.901  12.624
24095W        W92324   0.772  31.434   3.588
24096W        W92325   9.368  27.500   4.200
24097W        W92326   8.968  44.239   1.907
24098W        W92327  10.289  10.638   2.727
24099W        W92328  23.477  15.780  13.925
24100W        W92329  15.498   1.563  14.779
24101W        W92330  23.191  23.495   4.572
24102W        W92331  15.029  27.230   0.126
24103W        W92332  34.890  26.396  14.961
24104W        W92333  27.287  20.667  14.721
24105W        W92334   0.332  34.792   0.798
24106W        W92335  12.543  41.995  11.109
24107W        W92336  24.208  30.445  11.908
24108W        W92337  40.132   1.008  10.284
24109W        W92338  19.576  34.974   2.330
24110W        W92339   3.361  34.658  10.643
24111W        W92340  38.837  34.289   3.404
24112W        W92341  26.989  41.449   2.306
24113W        W92342   2.214  14.199   1.650
24114W        W92343  22.154  29.560  11.616
24115W        W92344  24.070  24.692  12.164
24116W        W92345  35.094  24.088   0.941
24117W        W92346  37.957  28.213   0.632
24118W        W92347  44.957   3.842  13.344
24119W        W92348  10.049   7.713   3.680
24120W        W92349  33.563   1.969  14.517
24121W        W92350   2.435  12.646   2.890
24122W        W92351   8.149  44.413  12.467
24123W        W92352  25.659  28.534  13.048
24124W        W92353  26.121  28.518   4.199
24125W        W92354  22.262  31.766   1.349
24126W        W92355  28.510  43.549  11.533
24127W        W92356   0.718  12.132  13.405
24128W        W92357   0.984   2.777   2.855
24129W        W92358  40.981  15.166   2.252
24130W        W92359  32.459  21.778  10.665
24131W        W92360  41.854  33.804   0.248
24132W        W92361  19.615  33.790  13.566
24133W        W92362   2.412  42.163   0.339
24134W        W92363  10.436  10.418   4.693
24135W        W92364  44.462  16.819  10.574
24136W        W92365  24.978  14.972  10.538
24137W        W92366  40.352  34.146   4.565
24138W        W92367  17.078  24.101  10.992
24139W        W92368   4.182  37.774  12.103
24140W        W92369  24.257  28.157   3.748
24141W        W92370   9.406  34.334  11.879
24142W        W92371  21.501  18.582   1.373
24143W        W92372  44.977  33.895   4.080
24144W        W92373   2.744  24.776  12.593
24145W        W92374   1.533  20.058  13.861
24146W        W92375  14.630   0.299  12.997
24147W        W92376  15.431  14.532   2.281
24148W        W92377  22.779  27.124   0.856
24149W        W92378  33.626   7.236   4.002
24150W        W92379   9.163  15.127   0.279
24151W        W92380  28.158  22.120  10.629
24152W        W92381  24.426  16.644  11.984
24153W        W92382  12.813   7.868  11.489
24154W        W92383   8.933  11.784  10.792
24155W        W92384  30.444   7.872  12.419
24156W        W92385  39.313  35.443  10.957
24157W        W92386  37.895  14.101   2.662
24158W        W92387  30.994  37.614   3.421
24159W        W92388  29.604  21.367  11.279
24160W        W92389  20.069  18.537   3.967
24161W        W92390  25.161  39.589   3.273
24162W        W92391  41.490  13.833   1.979
24163W        W92392  43.612   2.707   0.993
24164W        W92393  25.677  23.204   2.299
24165W        W92394  43.455  24.263  11.848
24166W        W92395  30.160  34.666  14.302
24167W        W92396   7.320  15.364   0.664
24168W        W92397  23.421  28.636   4.829
24169W        W92398  23.798   1.316  13.037
24170W        W92399  25.420  29.395   3.232
24171W        W92400  28.039  14.921  13.494
24172W        W92401  36.766  14.324   0.807
24173W        W92402  24.187  32.074   4.526
24174W        W92403  39.770  28.105  12.958
24175W        W92404  22.325  13.514   3.762
24176W        W92405  13.774   6.141   4.249
24177W        W92406  30.509  29.525   1.712
24178W        W92407  39.985  19.072   4.658
24179W        W92408  36.860  27.570  14.281
24180W        W92409  13.168  26.418   3.660
24181W        W92410  42.061  36.576  11.637
24182W        W92411  35.428   4.195  13.544
24183W        W92412  35.391  31.718  12.290
24184W        W92413  16.227  13.918   3.393
24185W        W92414  16.329  43.089   1.222
24186W        W92415  15.037   2.604  12.553
24187W        W92416  40.524   4.691  11.644
24188W        W92417   9.897  19.120  12.925
24189W        W92418  16.284   1.759  10.620
24190W        W92419  12.605  11.824   2.678
24191W        W92420  21.431  10.069  12.454
24192W        W92421  27.660   4.939  11.979
24193W        W92422  36.688   7.428  14.854
24194W        W92423  19.720  33.589   3.436
24195W        W92424  20.600  30.730   0.894
24196W        W92425  21.539  15.372  12.504
24197W        W92426  41.201  12.963  13.383
24198W        W92427  14.286   1.441  12.635
24199W        W92428  14.321  43.278  11.828
24200W        W92429  39.611  27.299  11.048
24201W        W92430  41.181  44.041  12.379
24202W        W92431  42.477  14.223   1.175
24203W        W92432  23.234  22.082  14.040
24204W        W92433   0.731  29.185   5.089
24205W        W92434   8.156  31.593   2.751
24206W        W92435  25.507   0.046  10.972
24207W        W92436   5.883  10.742  12.941
24208W        W92437  21.994  38.416  10.569
24209W        W92438  14.504  44.724   1.832
24210W        W92439  18.594  26.591   2.824
24211W        W92440  41.907   7.509   2.533
24212W        W92441  28.172  30.401   5.036
24213W        W92442   4.358  28.045   3.218
24214W        W92443   1.825  36.681  13.857
24215W        W92444  43.496  20.095  12.846
24216W        W92445  14.270  33.656  12.667
24217W        W92446  28.722   6.614  11.869
24218W        W92447  13.603  25.977  14.395
24219W        W92448  19.818  41.526   4.640
24220W        W92449  34.147  24.729  14.581
24221W        W92450   6.868   2.756  13.579
24222W        W92451  33.883  35.268  11.064
24223W        W92452  19.086  13.281   2.374
24224W        W92453  30.697  28.533  12.463
24225W        W92454  30.915  43.406  11.264
24226W        W92455  31.327   2.014  12.929
24227W        W92456  27.030  32.004  10.761
24228W        W92457   5.930  17.351   4.138
24229W        W92458   4.934  37.853   4.765
24230W        W92459  18.392  32.827  14.480
24231W        W92460  37.436   5.283   3.693
24232W        W92461   6.371   4.892  14.682
24233W        W92462  25.037   9.872  12.988
24234W        W92463   5.495   3.374  11.094
24235W        W92464  14.052  29.196   0.322
24236W        W92465  11.223  24.425  14.731
24237W        W92466  28.486  18.751   1.249
24238W        W92467  22.885  12.125   4.555
24239W        W92468   7.941  29.525  12.410
24240W        W92469   6.831  18.897  10.690
24241W        W92470  38.003   3.908  12.412
24242W        W92471  32.033  39.539  13.434
24243W        W92472  10.647  35.152  14.567
24244W        W92473  19.684  17.584  12.616
24245W        W92474  41.751  44.824   2.376
24246W        W92475  32.599  34.867  11.336
24247W        W92476   0.289  31.656   3.701
24248W        W92477   4.244  41.849  11.485
24249W        W92478  42.068  17.918   1.220
24250W        W92479  33.989   3.618   4.529
24251W        W92480  39.778   0.687  14.518
24252W        W92481  39.666  29.139  14.094
24253W        W92482  23.522  13.413  12.928
24254W        W92483  36.103  40.963   3.312
24255W        W92484  27.825  16.451  13.953
24256W        W92485  30.435  19.102  13.483
24257W        W92486   4.753  37.724  10.992
24258W        W92487  37.918  11.623   1.298
24259W        W92488  42.358  15.124  14.456
24260W        W92489  15.232  19.534   0.804
24261W        W92490  23.513  32.740   2.293
24262W        W92491  15.652   5.207  11.155
24263W        W92492  21.677  35.986  11.581
24264W        W92493  38.982  10.191   1.395
24265W        W92494   0.438  34.560  13.919
24266W        W92495  41.088  32.700  13.324
24267W        W92496  15.746  10.776  13.853
24268W        W92497  25.726  39.112  12.494
24269W        W92498  25.149  21.148   3.218
24270W        W92499  11.105  21.761  11.484
24271W        W92500  27.960   9.892  14.275
24272W        W92501  18.247  34.574  13.798
24273W        W92502  23.149  32.231   0.468
24274W        W92503   8.102  24.387   4.030
24275W        W92504  18.254  32.013   1.457
24276W        W92505   4.977  26.599   2.785
24277W        W92506  24.010  38.026  13.977
24278W        W92507  24.564  35.338   3.559
24279W        W92508  30.259  41.837   2.893
24280W        W92509  17.760  34.903   0.827
24281W        W92510  44.740  15.518  13.538
24282W        W92511  19.502  23.062   0.015
24283W        W92512  29.589  19.161  12.984
24284W        W92513  27.676   4.254   4.064
24285W        W92514  28.193  11.606  11.899
24286W        W92515  24.780  16.242   0.012
24287W        W92516  11.813  42.777  13.956
24288W        W92517   6.656   5.976  10.874
24289W        W92518  36.613  44.849   4.078
24290W        W92519  12.176   4.072   1.770
24291W        W92520  44.354  40.954  12.355
24292W        W92521  38.738   6.218   0.190
24293W        W92522  15.767  10.700  11.414
24294W        W92523   4.123  40.946   4.612
24295W        W92524   0.283  34.460  10.431
24296W        W92525  32.184   2.560  12.758
24297W        W92526  14.205  31.452  11.694
24298W        W92527  42.901  14.274   2.832
24299W        W92528  10.540  19.674   5.034
24300W        W92529   3.812  20.630  12.106
24301W        W92530  12.909  30.168   1.849
24302W        W92531  30.345  18.694   3.361
24303W        W92532  40.095   0.056   1.185
24304W        W92533  11.893  24.742   3.679
24305W        W92534  39.244  31.703   3.998
24306W        W92535  30.731  36.178   2.281
24307W        W92536  36.987  44.898   1.197
24308W        W92537  28.471   4.785   3.395
24309W        W92538  15.039  41.313  10.689
24310W        W92539  42.456   5.270   1.856
24311W        W92540  24.663   1.330   4.491
24312W        W92541   1.393  33.027   1.915
24313W        W92542  10.219  34.003   0.861
24314W        W92543  35.270  11.067  11.145
24315W        W92544  43.011  44.228  12.386
24316W        W92545  44.738  31.089  10.806
24317W        W92546  44.244  13.718   1.041
24318W        W92547  18.648  31.677  13.451
24319W        W92548  27.303  18.088  11.922
24320W        W92549   3.830  10.344  13.122
24321W        W92550  40.732   8.980   2.556
24322W        W92551  11.778  39.789  10.213
24323W        W92552  35.533  10.226  10.618
24324W        W92553  30.023  41.602   1.624
24325W        W92554  25.220   1.370  13.924
24326W        W92555   0.772  13.573  10.613
24327W        W92556  34.997  39.571   0.311
24328W        W92557  35.935  17.605   0.486
24329W        W92558  41.319  14.303   4.022
24330W        W92559  34.627  41.448  12.343
24331W        W92560   9.882  40.117  12.440
24332W        W92561   2.335   0.756  11.156
24333W        W92562  33.546  16.141  13.881
24334W        W92563  24.809  15.856   4.174
24335W        W92564   6.806  21.495  12.656
24336W        W92565   8.955   8.352   3.103
24337W        W92566  24.637   5.726  12.482
24338W        W92567  30.550  16.196  13.915
24339W        W92568  38.479   6.328  13.419
24340W        W92569  13.863  21.621  14.768
24341W        W92570  18.628   7.824  13.052
24342W        W92571  20.276  26.110  13.139
24343W        W92572  15.837  29.817   1.271
24344W        W92573   3.854  27.690   2.267
24345W        W92574  16.902  32.249  13.467
24346W        W92575  25.463  43.021   4.656
24347W        W92576  39.800  42.051  14.937
24348W        W92577   5.691  12.135  12.519
24349W        W92578  17.317  13.021  12.574
24350W        W92579  33.024  26.812  11.046
24351W        W92580  25.814  11.427   2.442
24352W        W92581  29.507  31.595   0.984
24353W        W92582  31.041  38.791  14.774
24354W        W92583  20.335   1.951  13.836
24355W        W92584  31.628  40.129   0.341
24356W        W92585  22.746  42.945   0.223
24357W        W92586  16.360  15.567  12.256
24358W        W92587  38.703  16.423  13.284
24359W        W92588   1.916  26.019  10.797
24360W        W92589  37.346  38.248   1.042
24361W        W92590  14.193  16.162  13.851
24362W        W92591   1.666  25.835   2.578
24363W        W92592   5.874  40.046   3.669
24364W        W92593  20.697  37.102  12.906
24365W        W92594  25.239   2.827   3.771
24366W        W92595   8.102   6.453  13.319
24367W        W92596  29.861   8.998  12.839
24368W        W92597  34.419  21.997  14.835
24369W        W92598  16.510  35.497   2.751
24370W        W92599   9.701  33.574   3.674
24371W        W92600   9.277  27.505   1.501
24372W        W92601  24.194  13.174  13.008
24373W        W92602   9.932  43.391  11.964
24374W        W92603  27.031  31.966  11.797
24375W        W92604  21.813  14.637   4.963
24376W        W92605  32.415  28.911  14.513
24377W        W92606  13.692   7.730  10.746
24378W        W92607  37.724  15.082  11.920
24379W        W92608  24.049  17.449   0.031
24380W        W92609  35.053   3.365   4.139
24381W        W92610  16.738  13.769  12.130
24382W        W92611  43.396  37.469  11.700
24383W        W92612  13.633  22.337  13.501
24384W        W92613  14.042  12.705   4.117
24385W        W92614  28.523  22.992  11.629
24386W        W92615  40.053  30.226  14.802
24387W        W92616  30.068  17.976  13.506
24388W        W92617  34.917  41.498   3.316
24389W        W92618  40.340   1.616   0.197
24390W        W92619   9.534  15.584   0.479
24391W        W92620  14.305  42.486  11.131
24392W        W92621  39.345   1.570  13.399
24393W        W92622  32.592   9.009   2.316
24394W        W92623  44.130  31.142  12.207
24395W        W92624  31.705  23.661   2.831
24396W        W92625  29.975  41.045   0.743
24397W        W92626  44.061  12.584   1.792
24398W        W92627  17.575  39.244   3.590
24399W        W92628  30.688   5.760   3.156
24400W        W92629   0.848  34.610   0.841
24401W        W92630  26.161  41.828  12.985
24402W        W92631   3.240  13.503   4.345
24403W        W92632  20.083   0.173  12.538
24404W        W92633  22.226   3.096  14.594
24405W        W92634  41.303  13.407   0.654
24406W        W92635   7.661  35.529   3.142
24407W        W92636  18.092   4.792   2.263
24408W        W92637  28.324  24.921  14.867
24409W        W92638   3.406  24.043   0.608
24410W        W92639  35.594  16.647  14.399
24411W        W92640  30.499  40.950  12.628
24412W        W92641  16.574  12.640   2.424
24413W        W92642  19.568  31.848  11.303
24414W        W92643  44.798  21.921  11.036
24415W        W92644  28.005   2.859   0.665
24416W        W92645  16.889  31.039  12.121
24417W        W92646  11.900  43.657  13.662
24418W        W92647  19.677   0.211   2.278
24419W        W92648  36.756  37.157  13.684
24420W        W92649  30.095  19.321   0.874
24421W        W92650  44.870  27.802  12.459
24422W        W92651  34.394  26.541   5.032
24423W        W92652   9.930  25.698   4.258
24424W        W92653  20.324  39.710  10.984
24425W        W92654  38.743  29.482   0.308
24426W        W92655  23.817   0.782   0.876
24427W        W92656  29.178  13.056   2.754
24428W        W92657  32.815  43.300   1.219
24429W        W92658  20.365  27.379   0.007
24430W        W92659  10.664  34.962   4.068
24431W        W92660  20.697  21.164  11.193
24432W        W92661  15.378  25.176   1.467
24433W        W92662  24.403  40.996  10.710
24434W        W92663  13.430  14.617   1.052
24435W        W92664   4.542  28.577  10.767
24436W        W92665  34.318  33.464   3.085
24437W        W92666  44.444  39.849   2.341
24438W        W92667  14.801  12.418  14.316
24439W        W92668  26.644  31.069  14.904
24440W        W92669   5.681   8.661   2.323
24441W        W92670  12.561   8.309  14.242
24442W        W92671   6.644  10.738  12.441
24443W        W92672  40.581  33.653  14.029
24444W        W92673  16.005  32.371   2.190
24445W        W92674  25.164  37.985  11.610
24446W        W92675   4.269  11.731  12.476
24447W        W92676  21.427  11.528  13.691
24448W        W92677  22.534  40.491  11.134
24449W        W92678  11.450  24.485   4.228
24450W        W92679  22.350  18.831   3.799
24451W        W92680  43.701  44.687   3.657
24452W        W92681  31.488  37.538  12.889
24453W        W92682  20.653   6.775   2.090
24454W        W92683  29.428  44.959  14.444
24455W        W92684  37.458  22.109  14.720
24456W        W92685   0.906  40.888   4.344
24457W        W92686  16.096  42.011  14.347
24458W        W92687  24.588  19.690  11.931
24459W        W92688  39.807   8.766   4.486
24460W        W92689  25.709   4.434  14.070
24461W        W92690  12.070  27.484   4.894
24462W        W92691  41.468   2.273   4.614
24463W        W92692  32.048  39.219   1.208
24464W        W92693   1.042  28.682  13.441
24465W        W92694  22.008  38.454   0.499
24466W        W92695  15.487  22.224  12.951
24467W        W92696  32.140   1.861   0.323
24468W        W92697   7.256  44.774   4.612
24469W        W92698   6.897   2.952  10.614
24470W        W92699  34.209   2.874  12.177
24471W        W92700  21.045  32.996   3.324
24472W        W92701  17.362  42.871  12.505
24473W        W92702  21.012  30.492   2.747
24474W        W92703  37.485  40.806  12.516
24475W        W92704   4.376  27.940   2.337
24476W        W92705  27.016  32.052  12.310
24477W        W92706  22.082   1.269   1.041
24478W        W92707  33.432  30.934  10.614
24479W        W92708   9.709  12.562  11.932
24480W        W92709  19.513  14.719   2.790
24481W        W92710  14.183   8.967   3.401
24482W        W92711   5.836  42.710   2.772
24483W        W92712   9.667  21.540  14.424
24484W        W92713   6.392  32.293   3.401
24485W        W92714  30.563  39.415  11.035
24486W        W92715  37.751   7.201   4.797
24487W        W92716  10.581  11.043   4.952
24488W        W92717  37.394   7.094   4.447
24489W        W92718  26.348  42.773  11.765
24490W        W92719   5.995   2.024   4.537
24491W        W92720  26.672  34.619   1.227
24492W        W92721   3.718   7.903  12.609
24493W        W92722  19.316  13.178  11.490
24494W        W92723  33.803  41.964   2.708
24495W        W92724  33.453   9.317   4.269
24496W        W92725  28.229  31.012   0.841
24497W        W92726   9.179  37.900   2.753
24498W        W92727  31.110  36.316  12.569
24499W        W92728  12.614  12.211   4.137
24500W        W92729  25.181  35.926   3.399
24501W        W92730  30.147  30.743   4.152
24502W        W92731  38.518  38.983   4.215
24503W        W92732  30.086  13.791   3.667
24504W        W92733  26.221  39.399   1.820
24505W        W92734  35.114   8.358   2.352
24506W        W92735   1.033  33.374   2.814
24507W        W92736  15.422  21.546  11.882
24508W        W92737  27.570  25.902   1.710
24509W        W92738   8.070  35.563  13.016
24510W        W92739   8.401  17.142  13.413
24511W        W92740   6.339  20.035   3.711
24512W        W92741   4.703  36.818  13.693
24513W        W92742  27.852   5.405  11.841
24514W        W92743  36.306  40.529  12.932
24515W        W92744  10.820  34.873   1.817
24516W        W92745   2.404  32.855  10.475
24517W        W92746  26.935  31.572   0.923
24518W        W92747  28.681  16.225  12.970
24519W        W92748   6.415  36.529  11.676
24520W        W92749  23.324  31.189   1.739
24521W        W92750  14.295  35.589   4.639
24522W        W92751  16.115  33.595  10.664
24523W        W92752  26.297   8.216   4.387
24524W        W92753   2.544  30.653   0.840
24525W        W92754   4.822  28.167  10.900
24526W        W92755  37.103   2.955   3.775
24527W        W92756  13.759  24.245   4.846
24528W        W92757  39.836   6.970  14.985
24529W        W92758  20.138  11.095   1.194
24530W        W92759  21.258  24.894  13.843
24531W        W92760  30.937   2.414   4.720
24532W        W92761  19.832   9.863  11.152
24533W        W92762  14.815   6.782  10.745
24534W        W92763  14.328  31.940  11.481
24535W        W92764  29.669  10.510  13.119
24536W        W92765  24.401  19.726   4.188
24537W        W92766   7.791  21.781  11.924
24538W        W92767  33.476  15.624   3.672
24539W        W92768  44.512  22.761  13.378
24540W        W92769  31.530  29.005   4.269
24541W        W92770   4.065  16.069   0.262
24542W        W92771  27.082  43.225   0.286
24543W        W92772   4.261  22.019  14.737
24544W        W92773  12.034   5.717   4.236
24545W        W92774   3.833   4.590  12.938
24546W        W92775  18.243  36.272  10.189
24547W        W92776  15.117   0.520  14.036
24548W        W92777  10.884  36.065  10.520
24549W        W92778  21.004  15.420   5.029
24550W        W92779  14.790   3.398   1.931
24551W        W92780  35.383  14.059   0.439
24552W        W92781  35.651  15.214   1.885
24553W        W92782  28.625  34.453  12.677
24554W        W92783  23.083  22.097  11.682
24555W        W92784  33.706   4.702  12.554
24556W        W92785  39.420  20.048  10.493
24557W        W92786  16.205  16.094  13.109
24558W        W92787  38.209   5.345   1.740
24559W        W92788  25.706   8.977   0.855
24560W        W92789  42.064  44.457  13.225
24561W        W92790  23.373  34.768  10.596
24562W        W92791  34.925  11.623  11.563
24563W        W92792  15.542   3.250   2.695
24564W        W92793   9.475  44.007  14.645
24565W        W92794  16.698   5.403   4.505
24566W        W92795  23.838  24.029   3.841
24567W        W92796   5.708  32.906   3.585
24568W        W92797   5.252  35.575   5.054
24569W        W92798  14.412   4.460  12.307
24570W        W92799  10.790  34.300  11.072
24571W        W92800  38.875  32.963   1.486
24572W        W92801   0.232  21.718  13.834
24573W        W92802  22.398  22.656  12.889
24574W        W92803  43.349  30.415   1.299
24575W        W92804  43.582  28.521  10.586
24576W        W92805   3.838  17.276   1.607
24577W        W92806  40.001  35.390   2.876
24578W        W92807   2.788  34.035  11.147
24579W        W92808  20.125  18.502   0.017
24580W        W92809  30.975  30.901  13.418
24581W        W92810  22.057   5.001   4.734
24582W        W92811   3.047   0.013   0.324
24583W        W92812   2.981  35.810  13.746
24584W        W92813  25.906   1.465   0.328
24585W        W92814   8.406  10.172   0.783
24586W        W92815   4.109  10.703  12.683
24587W        W92816  27.790   2.276  14.358
24588W        W92817  43.934   6.399   1.879
24589W        W92818  31.968   9.397  12.559
24590W        W92819  15.699  40.060  11.170
24591W        W92820  35.347   6.877   4.953
24592W        W92821   7.159  19.135   0.979
24593W        W92822  32.701   8.069  13.465
24594W        W92823  26.090  40.768   0.425
24595W        W92824  11.700  28.534   1.916
24596W        W92825  32.375  24.973  12.061
24597W        W92826   3.283  39.612   2.611
24598W        W92827  16.826  24.043  12.985
24599W        W92828   4.248  14.396  14.951
24600W        W92829   6.193   9.657  11.303
24601W        W92830  34.058  33.163   3.468
24602W        W92831  36.548  17.673  14.904
24603W        W92832  20.544   7.831   0.897
24604W        W92833  28.730  27.493  11.210
24605W        W92834  31.597  24.218  11.848
24606W        W92835  36.486   9.092  14.707
24607W        W92836  24.455  35.922  14.510
24608W        W92837  16.509  14.575   4.085
24609W        W92838  36.754  22.975   2.201
24610W        W92839   8.315  36.786  11.543
24611W        W92840  20.652  44.497  10.936
24612W        W92841  31.910  18.326   0.917
24613W        W92842  23.583  19.220   3.651
24614W        W92843  38.403  26.749   3.244
24615W        W92844  15.320  42.501   2.792
24616W        W92845  10.181   4.975  11.584
24617W        W92846   9.008  43.714   1.932
24618W        W92847  35.467  38.407  14.742
24619W        W92848  33.984  39.301  14.010
24620W        W92849  38.828   3.814  14.164
24621W        W92850  43.169  13.753   4.753
24622W        W92851   5.132  13.871   4.798
24623W        W92852  23.546   7.670  14.035
24624W        W92853  22.764  29.039  11.655
24625W        W92854   0.398  41.021   4.336
24626W        W92855  23.484  27.514   2.686
24627W        W92856  21.822  42.022  13.046
24628W        W92857  29.410  31.565   2.709
24629W        W92858   2.240  20.549   3.892
24630W        W92859  40.625  25.022  12.478
24631W        W92860  44.973   5.656  14.139
24632W        W92861  16.281  22.146   9.717
24633W        W92862   5.362  35.226  11.119
24634W        W92863  42.476   5.331   2.913
24635W        W92864  32.488  13.753  12.848
24636W        W92865   8.678  32.543   3.744
24637W        W92866  19.712  30.260   4.807
24638W        W92867  21.961  38.359  13.281
24639W        W92868  30.814   3.518  13.338
24640W        W92869  22.647  28.807  14.851
24641W        W92870   1.957  28.576  10.712
24642W        W92871  31.181  10.351   3.536
24643W        W92872   3.779  36.314  11.938
24644W        W92873  41.938   3.057  11.145
24645W        W92874   0.891  34.979   1.982
24646W        W92875  11.859   5.438   3.220
24647W        W92876  44.802  37.602  12.088
24648W        W92877  30.067  27.722   1.061
24649W        W92878  37.417  14.872  11.509
24650W        W92879  21.060  39.845  13.258
24651W        W92880  24.542  19.599   4.722
24652W        W92881  40.498  27.603   0.834
24653W        W92882  19.431   2.408  10.770
24654W        W92883   8.980   7.330  10.869
24655W        W92884  43.551  30.344  10.741
24656W        W92885   5.376  37.405   0.068
24657W        W92886  25.407  11.651  11.032
24658W        W92887  12.099  36.980  12.479
24659W        W92888  21.647  42.042  10.819
24660W        W92889  13.383  14.156   3.779
24661W        W92890  41.390  24.775   0.839
24662W        W92891  32.140  40.331  13.959
24663W        W92892  25.602  27.969  14.426
24664W        W92893  34.786  29.685   2.631
24665W        W92894  35.740   7.729   3.662
24666W        W92895  13.328  37.422  10.697
24667W        W92896  24.717  37.279   0.259
24668W        W92897  33.373  41.374  14.312
24669W        W92898  27.721   2.922   1.112
24670W        W92899  18.809  42.716   2.168
24671W        W92900  40.425   3.348   3.605
24672W        W92901  13.314  16.295   0.965
24673W        W92902  32.927  38.104  11.077
24674W        W92903  17.968  40.399  11.185
24675W        W92904  28.475  38.063  10.988
24676W        W92905   7.712  16.608   4.316
24677W        W92906  25.099   9.300  14.284
24678W        W92907  41.521  16.132  13.456
24679W        W92908  42.905   6.938  11.764
24680W        W92909  37.260  43.631   0.932
24681W        W92910  33.609   9.728  11.290
24682W        W92911  23.061   7.476  13.856
24683W        W92912   7.853  28.484  14.799
24684W        W92913   4.607  34.620  13.767
24685W        W92914   4.031   3.169  11.094
24686W        W92915   9.593  34.484   0.547
24687W        W92916  27.946   3.781   0.240
24688W        W92917  15.717   3.179   1.214
24689W        W92918  39.894  37.736  12.084
24690W        W92919  38.982  36.513   4.586
24691W        W92920   0.296   4.447   1.109
24692W        W92921   5.725  39.286  12.980
24693W        W92922   9.474  11.049  13.829
24694W        W92923  36.992  26.679   3.562
24695W        W92924  19.861   1.393   0.708
24696W        W92925  42.982  39.895   3.430
24697W        W92926  17.889  22.871  12.303
24698W        W92927  17.747  18.307   0.313
24699W        W92928  16.970  34.081  14.852
24700W        W92929  16.132   2.398  13.919
24701W        W92930  26.878  25.044  13.924
24702W        W92931  14.222  19.479  12.129
24703W        W92932  18.643  44.361   0.666
24704W        W92933   7.414  20.926   2.643
24705W        W92934   1.564  15.700  11.233
24706W        W92935  31.858  29.187  13.409
24707W        W92936  24.200  28.487   0.411
24708W        W92937  13.752  38.388  14.629
24709W        W92938  33.815  25.853  14.463
24710W        W92939  22.038  27.540  13.196
24711W        W92940  20.452  40.760   3.746
24712W        W92941   6.336  22.030  14.816
24713W        W92942  36.470  42.503   1.757
24714W        W92943  38.857  13.127  13.039
24715W        W92944   5.833  34.101  14.315
24716W        W92945  38.483  41.244  11.436
24717W        W92946   9.554   4.660   1.680
24718W        W92947   1.050   5.824  12.516
24719W        W92948  16.305  36.876   3.811
24720W        W92949  27.066  12.083   1.273
24721W        W92950  26.239   3.421   0.589
24722W        W92951   2.339  15.376  10.627
24723W        W92952  35.806  37.324  11.635
24724W        W92953  17.597  29.532  14.774
24725W        W92954  44.514  23.022  13.916
24726W        W92955  19.686   3.671   3.341
24727W        W92956   4.154  16.632   3.641
24728W        W92957  39.500   8.748   3.541
24729W        W92958  31.607  15.705   9.847
24730W        W92959  34.932  32.954   1.056
24731W        W92960  44.720  14.630   1.737
24732W        W92961  26.465  32.980   0.797
24733W        W92962   3.445  35.203   1.874
24734W        W92963  25.929  42.315  13.995
24735W        W92964  16.201  44.369  14.956
24736W        W92965  36.036  19.574   3.026
24737W        W92966  27.789  29.527   1.710
24738W        W92967  21.048  30.438   3.674
24739W        W92968   3.319   5.006   2.648
24740W        W92969   4.757  43.514   1.263
24741W        W92970  10.592  13.246  10.209
24742W        W92971   8.062  26.268   1.647
24743W        W92972  18.336  24.106  14.710
24744W        W92973  27.950  19.657   3.765
24745W        W92974   0.354  35.623  12.236
24746W        W92975  15.357  12.641  11.042
24747W        W92976  17.264  32.519  10.984
24748W        W92977  18.025  40.017  12.540
24749W        W92978  30.529   7.646  11.012
24750W        W92979  24.629   0.932  10.486
24751W        W92980  14.593  38.982  11.697
24752W        W92981   1.315  13.407  13.527
24753W        W92982  39.518  40.828  11.246
24754W        W92983  39.494  10.247  14.815
24755W        W92984  43.011   9.730   0.025
24756W        W92985   6.731  22.575  12.502
24757W        W92986  36.890  24.516  12.409
24758W        W92987  27.020  43.471  13.761
24759W        W92988  34.815  10.649  12.471
24760W        W92989  12.235   5.382  12.832
24761W        W92990  14.109  13.700  14.033
24762W        W92991  10.375  29.420   0.341
24763W        W92992  17.412  32.859  14.726
24764W        W92993  25.266  39.805   3.723
24765W        W92994  22.768   8.938   1.768
24766W        W92995   5.910  33.042  14.315
24767W        W92996  34.638   2.287   3.247
24768W        W92997  29.395  19.130   2.301
24769W        W92998  21.226   9.318  10.414
24770W        W92999   4.699   8.660   3.047
24771W        W93000  30.166  44.778   3.504
24772W        W93001  41.024  25.557   3.862
24773W        W93002  42.993  12.142  12.830
24774W        W93003  13.896  41.349  12.362
24775W        W93004  36.265  19.882   2.661
24776W        W93005  38.211   5.918   3.591
24777W        W93006  26.993  28.654  14.350
24778W        W93007  44.681  15.076   3.563
24779W        W93008  14.170  39.264   3.133
24780W        W93009   1.471  41.862  13.748
24781W        W93010  39.116  11.389   0.781
24782W        W93011  26.251  33.334   2.276
24783W        W93012   6.880  12.124   4.769
24784W        W93013  39.447  22.581   2.678
24785W        W93014  21.637  27.179  13.036
24786W        W93015  19.228  23.993  11.051
24787W        W93016   1.854   0.212  11.673
24788W        W93017  18.122  22.562  11.395
24789W        W93018   6.053  32.447   1.905
24790W        W93019  43.724  26.760  10.660
24791W        W93020  20.786  15.071  11.409
24792W        W93021  41.325  44.055   0.380
24793W        W93022  23.983   0.693   0.397
24794W        W93023  24.560   0.023   3.011
24795W        W93024  44.784  14.252   0.379
24796W        W93025  30.399  15.509  11.224
24797W        W93026  38.382  13.449   1.413
24798W        W93027   3.810  34.553  14.796
24799W        W93028  16.216  26.676   2.421
24800W        W93029  28.643   7.753  12.182
24801W        W93030  36.944  10.374  10.513
24802W        W93031  12.728  42.028   4.834
24803W        W93032  35.470  37.814  11.676
24804W        W93033  31.443  18.717   0.815
24805W        W93034  22.151  44.434   2.393
24806W        W93035  42.782   3.937   2.343
24807W        W93036  18.230  18.132   1.706
24808W        W93037  17.221  21.033   4.128
24809W        W93038  39.340  36.580  11.701
24810W        W93039  32.691  17.159   1.825
24811W        W93040  40.940  15.058   0.405
24812W        W93041  28.610  25.131   3.649
24813W        W93042  38.256  37.867   1.800
24814W        W93043  38.052   0.810  12.111
24815W        W93044   2.387  11.814   4.616
24816W        W93045  24.524  41.510   2.335
24817W        W93046  32.614  12.614   3.430
24818W        W93047  20.065  20.503  11.725
24819W        W93048  41.411  16.047  14.369
24820W        W93049  15.859   9.850  12.406
24821W        W93050  44.415  34.404  13.944
24822W        W93051  12.974  19.233   0.527
24823W        W93052  32.064   6.062   0.484
24824W        W93053  26.153  36.584  11.118
24825W        W93054  21.765  40.576  13.415
24826W        W93055  15.742  41.447   0.458
24827W        W93056  25.170  24.481  11.664
24828W        W93057   8.368   4.683   3.373
24829W        W93058  32.415   2.878   2.795
24830W        W93059  25.615   4.388   1.338
24831W        W93060   6.199  30.526  10.772
24832W        W93061  30.561  29.210   4.882
24833W        W93062  11.283  27.579   2.719
24834W        W93063  40.565  23.807  14.455
24835W        W93064  24.279  18.363   1.736
24836W        W93065   8.898  39.718  11.692
24837W        W93066  40.407   0.045  11.299
24838W        W93067  34.019  27.054  13.772
24839W        W93068  31.566   6.205   1.680
24840W        W93069   9.481  24.676  12.060
24841W        W93070  14.092  17.827  10.733
24842W        W93071   2.231  19.770   2.394
24843W        W93072  23.409   7.787   0.497
24844W        W93073  42.042  19.230   4.517
24845W        W93074  24.666  22.137  14.692
24846W        W93075  23.119   2.496  12.330
24847W        W93076  25.618  40.782   2.742
24848W        W93077   2.268  29.215   3.764
24849W        W93078  28.263  25.075   1.838
24850W        W93079  34.380   9.037   0.497
24851W        W93080  37.505   4.202  14.409
24852W        W93081   9.922  33.967   4.544
24853W        W93082  37.101  24.910   0.903
24854W        W93083  19.203  16.607   0.319
24855W        W93084  33.406  23.013   2.822
24856W        W93085  40.094  30.140   1.683
24857W        W93086  15.778  34.180  10.187
24858W        W93087   8.511  15.094   2.140
24859W        W93088  27.878   0.210  12.072
24860W        W93089  14.203  16.833   5.045
24861W        W93090  13.157  11.029   1.771
24862W        W93091  36.837  44.893  12.551
24863W        W93092  41.319  24.958   3.954
24864W        W93093  15.349   4.931   2.309
24865W        W93094  34.939  40.105   0.306
24866W        W93095  11.104  26.575   1.315
24867W        W93096  23.016   8.781  14.075
24868W        W93097  36.757  37.771   3.444
24869W        W93098   6.080  31.262  11.262
24870W        W93099  36.870  39.026  13.780
24871W        W93100  11.694   6.280   1.985
24872W        W93101  21.527  19.282   3.113
24873W        W93102  24.078  13.258   0.503
24874W        W93103  15.055  16.248  12.184
24875W        W93104  33.002  13.168  11.730
24876W        W93105  19.503  41.580  13.569
24877W        W93106  15.768  38.825   2.804
24878W        W93107  38.127  40.495  13.077
24879W        W93108  35.520  37.346   0.474
24880W        W93109  24.482  37.514   4.433
24881W        W93110  24.146   4.765  10.932
24882W        W93111  18.128  18.757   3.404
24883W        W93112  24.251  28.037   1.863
24884W        W93113  20.700  37.071  14.918
24885W        W93114  14.619  25.466   4.525
24886W        W93115  26.650  18.104  13.308
24887W        W93116  10.828  19.259   3.246
24888W        W93117  26.607  44.536  14.293
24889W        W93118  14.143  41.889  12.368
24890W        W93119  39.096  43.417  13.317
24891W        W93120  19.734  35.628   2.626
24892W        W93121   9.904  12.209  10.915
24893W        W93122  33.113   4.049  12.579
24894W        W93123  22.674   5.373  13.518
24895W        W93124  22.894  13.746   5.131
24896W        W93125   2.093  39.023  13.099
24897W        W93126   2.850  35.988  14.222
24898W        W93127  37.467  36.619  13.801
24899W        W93128  20.997  10.647  10.440
24900W        W93129  42.991  16.239   4.128
24901W        W93130  25.212  41.030  13.678
24902W        W93131   1.035  44.895  14.457
24903W        W93132  41.420   0.250  10.612
24904W        W93133   0.079  30.045  10.752
24905W        W93134  31.160   1.957  13.414
24906W        W93135  28.811  10.917   0.771
24907W        W93136  40.314  12.304   0.187
24908W        W93137  10.296  39.581  13.408
24909W        W93138   2.328  13.818   4.700
24910W        W93139  23.448  10.572  13.355
24911W        W93140   1.324  10.366   4.032
24912W        W93141  44.288  40.116   5.151
24913W        W93142  19.456  16.743  13.890
24914W        W93143  26.978  12.118  12.928
24915W        W93144  37.201  10.864   3.611
24916W        W93145  19.402  21.653  12.962
24917W        W93146  34.444  40.558  11.875
24918W        W93147  43.447  17.620  12.759
24919W        W93148   9.822  43.598  13.458
24920W        W93149  41.890  35.187  10.075
24921W        W93150  35.916  44.270   1.839
24922W        W93151  36.413  35.518  14.907
24923W        W93152   4.183  30.384  12.897
24924W        W93153  17.634  19.528   2.763
24925W        W93154   3.905  31.384  14.082
24926W        W93155  12.746   9.106   1.402
24927W        W93156  32.990  27.424  12.200
24928W        W93157  36.014  25.647   1.480
24929W        W93158   5.741  35.192   4.562
24930W        W93159   2.383  38.498   0.167
24931W        W93160  26.647  13.849   1.215
24932W        W93161  31.093  22.606  10.017
24933W        W93162  31.711  32.636  12.227
24934W        W93163  10.737   3.031  12.051
24935W        W93164  16.703   1.857   0.849
24936W        W93165  21.737  23.975   0.800
24937W        W93166  11.587  25.147  12.578
24938W        W93167  25.701  24.905   4.907
24939W        W93168  15.969  22.716  10.377
24940W        W93169   7.908  21.999  12.956
24941W        W93170  39.110  27.820   4.317
24942W        W93171  42.959  24.718   3.386
24943W        W93172   4.229  37.015   1.355
24944W        W93173  15.152  31.329  12.128
24945W        W93174   4.153  20.632  11.196
24946W        W93175  14.858  24.191   2.717
24947W        W93176  28.991  13.874  13.495
24948W        W93177  14.509  39.237  10.763
24949W        W93178  13.284  38.046   4.187
24950W        W93179  11.622  16.194   2.822
24951W        W93180  31.871  36.543  11.196
24952W        W93181  11.642  22.645   0.970
24953W        W93182  35.991  27.894   4.385
24954W        W93183  23.641   2.819  13.386
24955W        W93184  15.293  44.339   4.020
24956W        W93185   9.098  21.348   3.933
24957W        W93186  22.472  43.029   2.683
24958W        W93187  38.499  29.910   0.479
24959W        W93188  42.627   2.192   2.670
24960W        W93189  41.829  28.187   4.477
24961W        W93190   1.777   5.497  11.095
24962W        W93191  12.258  13.285   0.919
24963W        W93192  39.970   7.476  14.997
24964W        W93193   7.759   0.752   0.039
24965W        W93194   4.845  42.887  11.659
24966W        W93195  44.074  30.722   4.765
24967W        W93196  39.647   3.817  13.907
24968W        W93197  15.590  13.333   0.785
24969W        W93198   5.683   3.030   3.828
24970W        W93199  37.768  25.557  12.531
24971W        W93200  25.577   5.103   4.081
24972W        W93201   3.333  17.115   4.729
24973W        W93202  22.220  38.016   3.803
24974W        W93203  44.871  19.571   2.143
24975W        W93204  21.136  12.336   1.461
24976W        W93205  11.356   1.272   4.587
24977W        W93206  35.144  39.854  14.879
24978W        W93207  12.856  14.523   4.118
24979W        W93208  14.201   6.790   1.695
24980W        W93209  31.167  44.823   1.286
24981W        W93210  39.066   3.757  13.243
24982W        W93211   4.605   8.940   1.218
24983W        W93212  12.173  17.754   4.643
24984W        W93213  31.755  21.986  13.503
24985W        W93214  42.424   1.284  12.975
24986W        W93215   6.968   5.726  14.360
24987W        W93216  20.588  40.330   4.526
24988W        W93217  16.043  20.738   4.578
24989W        W93218  30.263   9.254   3.242
24990W        W93219  28.603  13.211   4.502
24991W        W93220  37.885  16.655   3.141
24992W        W93221  39.039  12.825  10.680
24993W        W93222  40.176   4.911  12.534
24994W        W93223  22.495   6.284   0.237
24995W        W93224   0.045  24.233   1.697
24996W        W93225  14.128  14.718   3.681
24997W        W93226  29.354  41.955  11.975
24998W        W93227   7.575  37.873   3.762
24999W        W93228  27.535  23.245  14.833
25000W        W93229   0.963   0.862  13.995
25001W        W93230   7.578   6.172   1.236
25002W        W93231  21.655  38.609   1.002
25003W        W93232  42.928  37.781   2.378
25004W        W93233  20.000  34.396  14.608
25005W        W93234  13.789  16.123   4.659
25006W        W93235   9.470  41.216  10.285
25007W        W93236  16.349  20.761   4.119
25008W        W93237  27.029  10.986  10.119
25009W        W93238   3.749  10.528  11.803
25010W        W93239  19.712  32.034   4.136
25011W        W93240  34.326  13.628   5.053
25012W        W93241  40.670   4.624   1.031
25013W        W93242  33.611  31.231   4.135
25014W        W93243  36.707  29.128   3.758
25015W        W93244  28.467  18.692  11.610
25016W        W93245  29.181  44.042   0.319
25017W        W93246  27.587  39.027  13.730
25018W        W93247  34.421  22.275  13.055
25019W        W93248  26.596   9.761  14.918
25020W        W93249   2.266  28.285   4.179
25021W        W93250   4.724  33.034   4.474
25022W        W93251  18.578  16.746  11.555
25023W        W93252  23.966  18.113  11.625
25024W        W93253  41.868  22.045   0.738
25025W        W93254   3.846   3.193  14.474
25026W        W93255  17.671  10.222   4.893
25027W        W93256  26.103  38.141  13.478
25028W        W93257  35.547  15.721  10.817
25029W        W93258   7.814  20.328   0.234
25030W        W93259   1.808  39.849   4.204
25031W        W93260  42.259  37.545   2.095
25032W        W93261  15.351  18.012  12.433
25033W        W93262  24.153   6.226  10.361
25034W        W93263  39.264  12.532  13.214
25035W        W93264  38.431  42.992   0.047
25036W        W93265  35.106  11.795   3.666
25037W        W93266  23.964  20.073   2.762
25038W        W93267   1.786  33.970  10.431
25039W        W93268  19.183  10.725   4.543
25040W        W93269  19.502  21.844   3.152
25041W        W93270   4.373  43.118   1.403
25042W        W93271  30.816  40.896   0.002
25043W        W93272  17.377   1.360   3.194
25044W        W93273  12.267  30.323   4.586
25045W        W93274  37.915   4.890  10.637
25046W        W93275  13.708  16.506  11.499
25047W        W93276  38.094   4.755   4.807
25048W        W93277  43.634  10.072  14.237
25049W        W93278  37.424  41.311  12.435
25050W        W93279  21.796  13.820  11.957
25051W        W93280  18.621  42.040  12.094
25052W        W93281  37.865  42.952   1.309
25053W        W93282  12.751  36.027   2.364
25054W        W93283  17.809   5.940   3.812
25055W        W93284  17.193  19.050   1.706
25056W        W93285  42.628  29.244  11.077
25057W        W93286  19.229   1.531  10.740
25058W        W93287  24.999   6.942   0.779
25059W        W93288  31.219  18.268   4.504
25060W        W93289   3.300  27.508   2.156
25061W        W93290  23.916  21.038   1.797
25062W        W93291   6.886  20.765   0.427
25063W        W93292  19.588  21.056  14.454
25064W        W93293  17.515  27.882  11.639
25065W        W93294  17.761  23.251   3.212
25066W        W93295   8.377  37.783  14.778
25067W        W93296   9.609  19.128   0.254
25068W        W93297  23.509  32.717  14.860
25069W        W93298   5.734  37.111  13.444
25070W        W93299   5.301  44.325   0.318
25071W        W93300  10.763  38.836   2.162
25072W        W93301  34.842  29.064  10.715
25073W        W93302  31.581  38.133  14.069
25074W        W93303   5.336   8.763  12.920
25075W        W93304  28.920  39.067   1.748
25076W        W93305  40.519  18.099  13.745
25077W        W93306  24.721  26.271   2.801
25078W        W93307  34.002  10.297  13.400
25079W        W93308  38.458  37.913  14.336
25080W        W93309  36.118  28.374  13.526
25081W        W93310   8.983  10.769   2.657
25082W        W93311   9.624  27.198   0.335
25083W        W93312   4.504  22.211  11.552
25084W        W93313  27.279  24.269  13.462
25085W        W93314  22.017  21.724   3.636
25086W        W93315  24.033  28.558  11.613
25087W        W93316  14.431  11.920  13.537
25088W        W93317  16.380  17.377   1.010
25089W        W93318   7.871  10.682   1.888
25090W        W93319   6.913  27.034  10.675
25091W        W93320  14.328  26.279  13.721
25092W        W93321  24.836  29.265  14.313
25093W        W93322  36.423  13.721   3.122
25094W        W93323  20.801  18.814   0.897
25095W        W93324  31.478   8.977  11.698
25096W        W93325   7.664  17.301  10.772
25097W        W93326  40.033  11.916   3.735
25098W        W93327  41.507  22.926   0.821
25099W        W93328  31.924  27.662   1.236
25100W        W93329  30.523   2.276   2.214
25101W        W93330  15.549  37.598  10.841
25102W        W93331   6.734  12.316  14.800
25103W        W93332  24.470   5.983  12.904
25104W        W93333  34.027  42.192   0.533
25105W        W93334  35.707  12.794  13.351
25106W        W93335   3.907  32.466  11.168
25107W        W93336  39.588   9.940   2.713
25108W        W93337  18.252  34.931  12.387
25109W        W93338  29.331   6.204  13.928
25110W        W93339   5.737   9.290   2.764
25111W        W93340   6.676  10.851  14.979
25112W        W93341  30.342  35.246   1.969
25113W        W93342   2.804  36.803  11.886
25114W        W93343   2.671  11.257  14.828
25115W        W93344   7.380  43.443   0.456
25116W        W93345   2.766  39.086   3.845
25117W        W93346  24.688   3.712  13.663
25118W        W93347  43.807   3.448  12.719
25119W        W93348  41.498  30.655  11.969
25120W        W93349  39.804  33.892  12.079
25121W        W93350   5.200  24.671  12.146
25122W        W93351   8.269   3.306  13.610
25123W        W93352  10.284  41.187  13.800
25124W        W93353  34.281  18.102   9.843
25125W        W93354  39.348  30.442  14.286
25126W        W93355   9.843  22.063   0.311
25127W        W93356   6.800  35.351   0.462
25128W        W93357   2.890  24.973   0.910
25129W        W93358  10.771   6.684  13.319
25130W        W93359  23.027  11.135  10.927
25131W        W93360  15.588   8.735  12.686
25132W        W93361  13.791   5.166  11.957
25133W        W93362  13.004  10.207  11.323
25134W        W93363   8.967  33.403  12.875
25135W        W93364  16.852   0.895  10.717
25136W        W93365   5.855  35.815  12.519
25137W        W93366   0.728  18.604   3.652
25138W        W93367  43.835  19.066   0.462
25139W        W93368   1.573   4.455  11.239
25140W        W93369  32.016  31.300   0.524
25141W        W93370  31.962  26.541   0.953
25142W        W93371   2.261  41.797   0.963
25143W        W93372  26.440  10.071   4.108
25144W        W93373  16.710  13.295  10.874
25145W        W93374  21.287  44.300   1.203
25146W        W93375  14.565  16.744  11.910
25147W        W93376  24.701  27.598  13.074
25148W        W93377  11.597  16.845   4.503
25149W        W93378  38.167  40.051  12.587
25150W        W93379  25.612   1.717  12.669
25151W        W93380   3.693  23.654  12.351
25152W        W93381  27.198  10.952  14.567
25153W        W93382  38.631  18.173  13.515
25154W        W93383  12.408  21.514  11.115
25155W        W93384  18.340   7.895   1.776
25156W        W93385  20.697  31.470   4.526
25157W        W93386  14.749   3.376   0.675
25158W        W93387  23.349  34.957   3.213
25159W        W93388  30.894   3.465  13.845
25160W        W93389  37.228   4.383   1.801
25161W        W93390  36.075  44.436  13.085
25162W        W93391  12.059   7.814  14.013
25163W        W93392  23.210  44.528  10.909
25164W        W93393  18.004   8.838   3.704
25165W        W93394  23.994  18.189  13.033
25166W        W93395  21.487  10.625  12.503
25167W        W93396  24.720  26.614   1.458
25168W        W93397   9.764  41.344   4.626
25169W        W93398   1.730  11.655  12.550
25170W        W93399  16.574  34.586   3.233
25171W        W93400  33.582  35.716   9.962
25172W        W93401  31.656  19.761   4.969
25173W        W93402  37.611  37.004   0.191
25174W        W93403  40.514  19.807  10.068
25175W        W93404  27.501  28.274  12.856
25176W        W93405   9.776  44.310   2.293
25177W        W93406  13.542   9.366   0.918
25178W        W93407  28.532   4.426   0.893
25179W        W93408  19.468  15.549   2.445
25180W        W93409  36.303   2.974  13.155
25181W        W93410   4.334   4.412  14.351
25182W        W93411  22.373  36.884   2.771
25183W        W93412  16.949  19.925   0.765
25184W        W93413   7.995  12.105   4.447
25185W        W93414  27.051  34.824   0.354
25186W        W93415  42.471  14.310   3.654
25187W        W93416  34.827  41.495  10.608
25188W        W93417  35.857  37.514  10.501
25189W        W93418  27.114  17.721   2.294
25190W        W93419  28.105  40.847   2.702
25191W        W93420  25.442  30.714  10.659
25192W        W93421   5.974  16.731  10.587
25193W        W93422  38.993   0.421   0.457
25194W        W93423  24.564  22.764  11.040
25195W        W93424  42.948  21.221   1.842
25196W        W93425   7.337  38.508  10.639
25197W        W93426  14.263  14.663   3.173
25198W        W93427  25.039  31.048   4.508
25199W        W93428  39.096  35.441   0.270
25200W        W93429   0.357   6.339  12.052
25201W        W93430  32.225   0.851  11.560
25202W        W93431  15.218   8.884   0.859
25203W        W93432  20.202  27.615   2.369
25204W        W93433  26.215  40.324   1.800
25205W        W93434  40.575   7.793  10.606
25206W        W93435  12.743  17.970   1.076
25207W        W93436  33.536  30.972  12.801
25208W        W93437  14.343  43.665   0.827
25209W        W93438  37.352  36.004  12.082
25210W        W93439  15.052   0.422   3.875
25211W        W93440  32.494  35.070  13.845
25212W        W93441  26.677   0.684   4.108
25213W        W93442  34.472  34.922  11.990
25214W        W93443  20.230  25.179   3.263
25215W        W93444   7.659  12.143  10.419
25216W        W93445  26.622  37.035   4.685
25217W        W93446  13.210  42.832  13.949
25218W        W93447   9.102   2.917   4.693
25219W        W93448  11.339  43.602   2.227
25220W        W93449  18.063  18.522  11.707
25221W        W93450   0.963  20.588  10.928
25222W        W93451   9.614   2.890   4.710
25223W        W93452  34.160   5.853  11.882
25224W        W93453  23.810  13.046  13.792
25225W        W93454  18.316   2.473   3.115
25226W        W93455  39.966  24.505  11.316
25227W        W93456  31.431  42.909   4.037
25228W        W93457  17.762   9.239   3.494
25229W        W93458   7.445  38.377  14.862
25230W        W93459   2.707  44.818  15.000
25231W        W93460  25.553  17.548  14.424
25232W        W93461  23.710  17.050   4.305
25233W        W93462   1.866  32.503   0.038
25234W        W93463  20.604  39.556  11.861
25235W        W93464   6.649  32.438  11.396
25236W        W93465  11.370   3.257   0.773
25237W        W93466  17.592  37.848  11.541
25238W        W93467  39.939  13.845   1.525
25239W        W93468  31.825  40.181   4.949
25240W        W93469  20.986  21.017  13.115
25241W        W93470  36.122  27.490  12.470
25242W        W93471   3.281  19.649  11.238
25243W        W93472  24.027  23.581   3.638
25244W        W93473  42.097  40.427   3.300
25245W        W93474   6.734  37.263  12.936
25246W        W93475   1.990  36.363  11.624
25247W        W93476   0.629  37.885  14.334
25248W        W93477  34.033  13.609   4.276
25249W        W93478   6.652  29.694   2.661
25250W        W93479  19.291  15.440  12.446
25251W        W93480  11.754  19.594   3.140
25252W        W93481   4.377  35.172   2.710
25253W        W93482  40.298  27.730   1.801
25254W        W93483  44.772  31.716   4.111
25255W        W93484  21.573  33.712   3.392
25256W        W93485  24.540   5.639   0.452
25257W        W93486   8.677  24.966   1.494
25258W        W93487   7.606   9.219   0.536
25259W        W93488  26.872  17.583   4.622
25260W        W93489  35.971  39.695  12.868
25261W        W93490  23.626  17.212  14.785
25262W        W93491  39.721  44.672   1.275
25263W        W93492   3.929  22.263  13.373
25264W        W93493  29.382  38.500  11.780
25265W        W93494   0.761  34.868   0.080
25266W        W93495  32.557  21.231  14.096
25267W        W93496   7.777  29.202   1.498
25268W        W93497  28.030  38.876  13.522
25269W        W93498  15.137  13.989  10.607
25270W        W93499   6.383   6.179   9.930
25271W        W93500  43.465  42.482   4.107
25272W        W93501  41.706  18.267   3.137
25273W        W93502  40.981   8.377   1.140
25274W        W93503   5.605  28.470   3.709
25275W        W93504  10.774  32.424   4.044
25276W        W93505   0.674  10.930   1.406
25277W        W93506  38.293  19.745  12.347
25278W        W93507  28.745  42.927   0.914
25279W        W93508  11.707   3.548  11.135
25280W        W93509  33.344   3.865  13.039
25281W        W93510  26.430  37.053  11.055
25282W        W93511   9.389  27.456  14.883
25283W        W93512  34.106  14.618   0.133
25284W        W93513  22.823  31.955   2.744
25285W        W93514  26.144   2.449  13.030
25286W        W93515  24.751  42.928   1.413
25287W        W93516  39.381   2.980  11.137
25288W        W93517  25.753  26.848   2.980
25289W        W93518  14.617  30.615   4.551
25290W        W93519  17.783   4.397  14.859
25291W        W93520  11.556  10.916  11.305
25292W        W93521  27.664  11.109   4.970
25293W        W93522  29.430  39.052   1.772
25294W        W93523   9.562  31.161  14.763
25295W        W93524  29.634  39.514  10.923
25296W        W93525   6.405  41.383  11.046
25297W        W93526  42.340  18.028   0.781
25298W        W93527   0.984  20.238  14.733
25299W        W93528  26.381  31.273  14.487
25300W        W93529  22.215  23.416  13.340
25301W        W93530  21.049   7.196  13.586
25302W        W93531   6.333   3.895   0.483
25303W        W93532  31.171  11.444   0.360
25304W        W93533  40.541  42.067  12.718
25305W        W93534  33.429  28.957   4.845
25306W        W93535   0.773   6.053  13.955
25307W        W93536  42.467  18.190   0.319
25308W        W93537  43.791  43.827   0.465
25309W        W93538  11.660  21.248  13.985
25310W        W93539  19.509   0.650   3.730
25311W        W93540  26.649   0.161  12.616
25312W        W93541   6.973  27.069  13.069
25313W        W93542   7.326  11.692   3.395
25314W        W93543  31.419  19.032  12.935
25315W        W93544  26.724  35.874   3.386
25316W        W93545  44.913  18.708  13.429
25317W        W93546  31.587  36.760  13.568
25318W        W93547  17.291   7.967   2.677
25319W        W93548  44.199  14.034   1.437
25320W        W93549  22.532   9.482  10.327
25321W        W93550  10.360  36.916  14.439
25322W        W93551  35.838  36.215   4.527
25323W        W93552   9.845  39.882  10.963
25324W        W93553   7.753  12.915   1.014
25325W        W93554  33.596  17.522   3.350
25326W        W93555   0.539  15.705  11.166
25327W        W93556  10.655  40.771   4.966
25328W        W93557  32.838   3.717   2.844
25329W        W93558  15.278  33.603  13.128
25330W        W93559  30.841  43.273   1.437
25331W        W93560  16.485   0.074  12.597
25332W        W93561  42.356  24.058   4.674
25333W        W93562  40.380   8.159   4.032
25334W        W93563  30.167   3.974   3.215
25335W        W93564  22.134  39.421  11.156
25336W        W93565  25.328   8.825   2.322
25337W        W93566  21.151  16.546  11.981
25338W        W93567   9.951  12.411  11.421
25339W        W93568  32.378  44.394   3.299
25340W        W93569  30.521  20.550   3.377
25341W        W93570  40.124  29.764  12.595
25342W        W93571  22.219  17.213   2.033
25343W        W93572  27.092  30.071   4.596
25344W        W93573  38.766   6.785  11.530
25345W        W93574   0.143  33.468  12.537
25346W        W93575  20.133   8.487  14.798
25347W        W93576  17.361  27.136  12.523
25348W        W93577  10.224  22.767  11.593
25349W        W93578  18.982   1.315   1.699
25350W        W93579  31.160  38.096   0.213
25351W        W93580  19.417  24.924  13.530
25352W        W93581  33.267  29.964  11.508
25353W        W93582  11.364  42.353  13.054
25354W        W93583  39.391  27.893  14.864
25355W        W93584  18.754  14.113   3.374
25356W        W93585  24.110  16.938   4.648
25357W        W93586  29.611  28.695  10.740
25358W        W93587  43.478   3.207  11.218
25359W        W93588  40.156  25.617  12.850
25360W        W93589  13.621  26.066  11.427
25361W        W93590  31.777  35.223  12.033
25362W        W93591   8.206  14.627  13.382
25363W        W93592   3.982  44.278   3.653
25364W        W93593  14.189  31.020  13.584
25365W        W93594   9.333  15.142  14.775
25366W        W93595  27.940  39.946   2.777
25367W        W93596  19.823  37.968   1.823
25368W        W93597  41.268  30.670   0.804
25369W        W93598  31.402   4.721  13.590
25370W        W93599   6.430  20.357   0.450
25371W        W93600  19.553  40.592  13.345
25372W        W93601  29.692  13.531   2.085
25373W        W93602  17.452  16.111   1.340
25374W        W93603  21.950  35.961  12.046
25375W        W93604  36.136  19.730   4.204
25376W        W93605  20.252  33.873   5.354
25377W        W93606  12.588  32.408   0.312
25378W        W93607  37.024  30.090   1.942
25379W        W93608  40.168  23.784   1.499
25380W        W93609  34.116  42.598  14.290
25381W        W93610   8.232  11.424   3.143
25382W        W93611  17.046  12.869   2.404
25383W        W93612  40.805   0.559  14.393
25384W        W93613  36.145  22.526   2.018
25385W        W93614  29.112   7.316  14.503
25386W        W93615  37.337  14.209  11.629
25387W        W93616  24.012  10.911  11.536
25388W        W93617   0.396  18.846   4.345
25389W        W93618  43.287  32.972   0.815
25390W        W93619  14.207  11.159   4.828
25391W        W93620  38.359  27.270  14.465
25392W        W93621  20.978  21.044   9.948
25393W        W93622   6.221   0.501   2.793
25394W        W93623  14.305  21.722  13.290
25395W        W93624  41.680   3.425   5.093
25396W        W93625  41.904  25.500  11.347
25397W        W93626  16.155  30.150  12.418
25398W        W93627  12.409   5.485  11.646
25399W        W93628  14.077  18.632   5.251
25400W        W93629  17.100  42.403  11.616
25401W        W93630   0.943  23.187  12.078
25402W        W93631  15.583  13.815  11.623
25403W        W93632  18.597   5.376   4.923
25404W        W93633  17.661  13.859  12.830
25405W        W93634  28.788  17.206  11.080
25406W        W93635  23.160  12.267   0.838
25407W        W93636  12.826  34.057   0.399
25408W        W93637   3.896  15.794   4.069
25409W        W93638  31.609  14.634  13.433
25410W        W93639  40.327  35.093   4.195
25411W        W93640   3.354  22.606  13.941
25412W        W93641  22.897  38.037   1.295
25413W        W93642  41.410  16.046   1.222
25414W        W93643  35.398  36.347  10.585
25415W        W93644   6.231  16.235   0.005
25416W        W93645  18.634  27.179  13.853
25417W        W93646  36.330  16.643   1.937
25418W        W93647  40.340  44.472   3.606
25419W        W93648  10.419  26.697  12.470
25420W        W93649   7.430   7.810   4.684
25421W        W93650  38.842  29.950  12.972
25422W        W93651  37.094   0.227  12.219
25423W        W93652  14.311   8.940  11.246
25424W        W93653   2.993   4.870  10.687
25425W        W93654   9.694  15.237   1.267
25426W        W93655  16.090  40.535  13.526
25427W        W93656   6.603  39.522  12.311
25428W        W93657  40.522  17.226   4.647
25429W        W93658  14.816  44.834  12.847
25430W        W93659  18.635  19.524   0.847
25431W        W93660  13.529  11.414   0.482
25432W        W93661  28.674   9.661  12.360
25433W        W93662  29.875   2.321   4.928
25434W        W93663   9.246   8.754   0.598
25435W        W93664  17.148  24.469  13.936
25436W        W93665   1.042  30.123  14.986
25437W        W93666   4.214  38.416  13.969
25438W        W93667  15.123  44.297  11.588
25439W        W93668  15.232  22.918  13.118
25440W        W93669  34.780  36.347  11.179
25441W        W93670  25.190  38.626   2.290
25442W        W93671  44.873  35.912  11.945
25443W        W93672  15.808  20.791   4.128
25444W        W93673   9.685  22.299   0.775
25445W        W93674   1.556   0.354   3.835
25446W        W93675  16.159   5.265   0.528
25447W        W93676  11.635  32.399   0.457
25448W        W93677  40.955  33.375   1.798
25449W        W93678  15.782  31.126   3.694
25450W        W93679  11.433  21.168   3.431
25451W        W93680  33.877   5.528  11.582
25452W        W93681  18.927  44.773   1.386
25453W        W93682  16.334  21.059  10.979
25454W        W93683   4.695  44.442  10.646
25455W        W93684  42.585  12.422  11.643
25456W        W93685  31.998  42.771   4.248
25457W        W93686   8.671  30.270  10.660
25458W        W93687   6.755  44.265  14.277
25459W        W93688  16.797  30.193   1.997
25460W        W93689   6.179  14.900   2.187
25461W        W93690  44.448  38.207  14.474
25462W        W93691   5.900  23.195  14.358
25463W        W93692  27.505  42.519   0.046
25464W        W93693  20.088  25.362   2.254
25465W        W93694  41.979  37.261   2.430
25466W        W93695  10.642  16.563   2.353
25467W        W93696  29.782  28.854  13.886
25468W        W93697  44.478  35.558  12.633
25469W        W93698  33.480  17.040  14.079
25470W        W93699  39.327  17.643  14.566
25471W        W93700   6.946  17.578   0.221
25472W        W93701  40.572  18.222   2.524
25473W        W93702   7.349   1.258  12.488
25474W        W93703  44.058   4.323   0.361
25475W        W93704   5.989  11.668  10.500
25476W        W93705   4.809  22.016   1.387
25477W        W93706  41.228  16.773   0.620
25478W        W93707  16.152   1.933   4.622
25479W        W93708   1.823  37.410  14.389
25480W        W93709  19.664  17.820   1.224
25481W        W93710  36.136  18.701   4.272
25482W        W93711   4.221  21.584  14.428
25483W        W93712  13.149  28.126   0.678
25484W        W93713  38.425  18.148   1.275
25485W        W93714  44.826  19.755  10.631
25486W        W93715  11.695  18.092  14.807
25487W        W93716   9.676  25.119  10.646
25488W        W93717  29.832  39.910  11.176
25489W        W93718  18.088  39.280   4.369
25490W        W93719   8.892  19.040  13.461
25491W        W93720  23.034  11.411  12.325
25492W        W93721  17.838  27.302  10.418
25493W        W93722   2.693  20.111   2.370
25494W        W93723  36.734  16.153  14.529
25495W        W93724  41.861  18.324   0.962
25496W        W93725  42.992   2.503  11.002
25497W        W93726  31.125  24.896   5.044
25498W        W93727   3.186  22.057   0.401
25499W        W93728  44.807   6.339   4.091
25500W        W93729  16.783  25.653   5.437
25501W        W93730  36.126  39.576  10.751
25502W        W93731   6.051   7.226   2.347
25503W        W93732  24.995  21.269  14.286
25504W        W93733  13.592  18.182  11.576
25505W        W93734  36.769  19.197   0.507
25506W        W93735   5.975   1.492  10.764
25507W        W93736  38.312  31.003  12.441
25508W        W93737  33.298  34.882  14.535
25509W        W93738  24.201  18.640   5.047
25510W        W93739  44.424   0.229   0.471
25511W        W93740  30.363  23.683  12.888
25512W        W93741  31.315  36.058  12.990
25513W        W93742  44.929  28.181  14.695
25514W        W93743  24.000   4.814   4.749
25515W        W93744  12.481  17.233   2.375
25516W        W93745  37.624   4.807  12.001
25517W        W93746  10.746  34.785   1.293
25518W        W93747  21.287  15.277  11.148
25519W        W93748  38.087  17.501  12.114
25520W        W93749  33.484  28.960  13.313
25521W        W93750  25.776  33.128   4.125
25522W        W93751  23.979  41.337   3.300
25523W        W93752  32.450  17.025  12.546
25524W        W93753  33.591  18.279   1.826
25525W        W93754  29.567   2.640   0.830
25526W        W93755  12.683   5.282  12.604
25527W        W93756  33.162   7.837  12.004
25528W        W93757  35.154  19.340   5.054
25529W        W93758  34.970  41.257   3.789
25530W        W93759   0.886   5.288   1.074
25531W        W93760  10.666  39.728   1.037
25532W        W93761  24.462  13.685  11.994
25533W        W93762  33.206   4.914   4.547
25534W        W93763  42.054  22.208  14.385
25535W        W93764   7.466  27.410  12.958
25536W        W93765  27.993  27.908   3.817
25537W        W93766  42.008  44.885  12.199
25538W        W93767  24.196  27.959   0.376
25539W        W93768  27.219   5.796  10.671
25540W        W93769   3.592  18.844   0.226
25541W        W93770  33.613  38.826  11.030
25542W        W93771  17.041   3.002  14.269
25543W        W93772  37.322   0.835  11.435
25544W        W93773   9.744  30.624  14.734
25545W        W93774  26.668  16.632   0.212
25546W        W93775  18.568  16.076  13.033
25547W        W93776  13.182   5.008   4.585
25548W        W93777  28.059  16.597   2.862
25549W        W93778  12.728  11.375  13.314
25550W        W93779  14.341  21.692  10.688
25551W        W93780  25.571  30.500   4.036
25552W        W93781   2.144  19.699   4.323
25553W        W93782  11.921   5.932  14.429
25554W        W93783  19.226  17.707  12.414
25555W        W93784  14.352  10.153  13.945
25556W        W93785  27.943   5.872  12.064
25557W        W93786  24.130  28.704   0.891
25558W        W93787  17.163   9.830   0.824
25559W        W93788  35.550  38.326  11.743
25560W        W93789   2.152  26.753   9.922
25561W        W93790  20.409   2.823   2.186
25562W        W93791   9.859  40.376   4.565
25563W        W93792  29.492  20.229   2.803
25564W        W93793  21.636  21.724  12.818
25565W        W93794  20.347  15.946  11.748
25566W        W93795  44.463  10.532  12.043
25567W        W93796  22.648  14.796  12.144
25568W        W93797   4.324  39.841   0.797
25569W        W93798   5.221  42.851   1.943
25570W        W93799  37.492  14.379   1.315
25571W        W93800  22.444  40.077   5.075
25572W        W93801   2.966  41.075  14.540
25573W        W93802  30.184  25.308  11.138
25574W        W93803   1.340  14.863  10.668
25575W        W93804   8.309  24.454   2.230
25576W        W93805  19.371  26.012   4.687
25577W        W93806   6.408  37.795  13.355
25578W        W93807  12.644  19.549  14.367
25579W        W93808  39.434  15.692  10.650
25580W        W93809  23.668  27.645  14.584
25581W        W93810  36.055  36.114   5.018
25582W        W93811  36.651  11.186   4.995
25583W        W93812  26.535  35.758   0.291
25584W        W93813  18.994   1.917  14.494
25585W        W93814  40.153  37.530   2.851
25586W        W93815   7.166  18.648   2.677
25587W        W93816   0.445  44.449  13.064
25588W        W93817  39.011  33.183  10.730
25589W        W93818   9.073  36.826  14.210
25590W        W93819  30.260   0.034  11.761
25591W        W93820  33.209  18.680  11.544
25592W        W93821  19.211  44.015   2.699
25593W        W93822  30.013  37.373   0.247
25594W        W93823  39.672  23.655  13.914
25595W        W93824  18.205  30.350  14.890
25596W        W93825  21.455  24.488  11.505
25597W        W93826   9.655  17.297   2.873
25598W        W93827  36.927   3.933   3.729
25599W        W93828  22.506  26.016  10.577
25600W        W93829   0.362  39.808  11.919
25601W        W93830  16.133   0.018   3.658
25602W        W93831  21.322   3.792  13.545
25603W        W93832   6.631   4.248  14.323
25604W        W93833  36.055  42.758  12.298
25605W        W93834   7.272  30.506  10.710
25606W        W93835  12.351  10.080  11.971
25607W        W93836  26.730  37.895   3.276
25608W        W93837  36.436  41.090   1.640
25609W        W93838  39.260  37.034   4.574
25610W        W93839  24.574  25.975   1.214
25611W        W93840  40.562  22.281   0.330
25612W        W93841  37.912  28.588  12.971
25613W        W93842  40.260  32.511   1.121
25614W        W93843  18.232  19.773  14.485
25615W        W93844  41.951  12.703  12.911
25616W        W93845  34.482   7.427  10.525
25617W        W93846   5.685   8.462  12.650
25618W        W93847  44.813  24.948  13.949
25619W        W93848  28.153  44.560  10.445
25620W        W93849  32.175  10.416  12.757
25621W        W93850   9.135  38.566   1.884
25622W        W93851   8.653  34.136   4.653
25623W        W93852  16.715  10.601  11.998
25624W        W93853  42.746  12.701  10.962
25625W        W93854  27.717  24.085  13.740
25626W        W93855  11.836   6.943   0.889
25627W        W93856  39.307  25.106  14.357
25628W        W93857   2.295  25.020  12.591
25629W        W93858  36.068  13.693   3.486
25630W        W93859  24.954  12.318  14.812
25631W        W93860  26.400  41.284  13.528
25632W        W93861   4.932  29.775   3.646
25633W        W93862   8.402  31.149   2.743
25634W        W93863  38.880  10.427   0.917
25635W        W93864  40.899  19.178   5.086
25636W        W93865  19.071  38.863   4.176
25637W        W93866  30.778  38.437  10.467
25638W        W93867  39.943   1.945   0.297
25639W        W93868  38.669  16.234  13.767
25640W        W93869  23.530  37.561  11.558
25641W        W93870   8.536  23.954   5.126
25642W        W93871  17.763  15.792  14.837
25643W        W93872  27.959  35.607   4.608
25644W        W93873   7.243  22.034   2.228
25645W        W93874  19.083  39.022   3.660
25646W        W93875  32.369   8.643   2.644
25647W        W93876  43.504  16.271  14.857
25648W        W93877   3.360  26.955   3.106
25649W        W93878  19.919   2.176  12.693
25650W        W93879  15.197  44.337   2.271
25651W        W93880   0.034  21.973   2.436
25652W        W93881  21.329  14.891  14.885
25653W        W93882  29.594   7.883   2.736
25654W        W93883   2.045  20.503  12.129
25655W        W93884  33.597  21.117  14.383
25656W        W93885  13.218  41.830   2.003
25657W        W93886  43.854   2.795   4.401
25658W        W93887  34.015  22.612   3.965
25659W        W93888  27.613  16.363   0.399
25660W        W93889  11.859   2.545   1.315
25661W        W93890   3.508   6.727  14.426
25662W        W93891   3.805  37.543  14.946
25663W        W93892  17.252   2.937  14.747
25664W        W93893   7.347  31.350   3.793
25665W        W93894  31.912  41.459   2.128
25666W        W93895  12.549  43.458  13.544
25667W        W93896   5.412   5.180   2.119
25668W        W93897  44.704   1.458  13.605
25669W        W93898  15.426  35.961  12.882
25670W        W93899  42.426  11.371  12.463
25671W        W93900  22.696  25.664   4.798
25672W        W93901  10.783  15.325   2.248
25673W        W93902  26.064   5.628   0.420
25674W        W93903  21.575  42.386  14.282
25675W        W93904  10.359  21.172  14.456
25676W        W93905   8.304  14.611   2.385
25677W        W93906  37.649  39.339  12.485
25678W        W93907  41.008  17.828   0.852
25679W        W93908   0.037   7.380  13.345
25680W        W93909  40.470   6.879   3.685
25681W        W93910  16.144   8.352   0.743
25682W        W93911  17.394  22.070   2.747
25683W        W93912  32.568   7.093   4.601
25684W        W93913  13.083  12.964   3.332
25685W        W93914   9.250  26.224  11.176
25686W        W93915  43.477   0.283   0.494
25687W        W93916  34.567  10.135  12.760
25688W        W93917   0.229  12.761   3.682
25689W        W93918  30.499  12.063   1.859
25690W        W93919   3.762  30.116  11.985
25691W        W93920   4.898  41.338  12.926
25692W        W93921   0.911  14.052  13.084
25693W        W93922   1.983  38.331   1.453
25694W        W93923  21.535   2.201  11.213
25695W        W93924  21.375  33.166  12.365
25696W        W93925   1.457  25.647   2.109
25697W        W93926  31.841  41.887   4.302
25698W        W93927   1.787  10.662   2.884
25699W        W93928  26.540   4.454  11.957
25700W        W93929  20.280  17.667   2.456
25701W        W93930  36.485  15.074  12.347
25702W        W93931   9.848  27.437   0.910
25703W        W93932  23.371  12.842  12.058
25704W        W93933   5.443  19.132   4.074
25705W        W93934   1.073  43.488  14.428
25706W        W93935  31.040  11.007  13.210
25707W        W93936  18.156  25.598  10.956
25708W        W93937  25.860  44.470  14.574
25709W        W93938  11.601  27.687   1.324
25710W        W93939  35.084  39.433   4.252
25711W        W93940  17.320   3.416  13.364
25712W        W93941  13.770  34.417   3.640
25713W        W93942  36.403   3.001   3.162
25714W        W93943  35.056  30.169  13.487
25715W        W93944   8.224  17.333   1.240
25716W        W93945  36.639  28.398   4.338
25717W        W93946  14.306  29.552  10.447
25718W        W93947  25.077   8.125   1.866
25719W        W93948   7.805  42.433  14.736
25720W        W93949   3.347   9.936  11.041
25721W        W93950  31.040   7.458  11.115
25722W        W93951  42.681  17.728  13.087
25723W        W93952  36.395  12.071  13.304
25724W        W93953  43.409  22.476   1.796
25725W        W93954  20.954  15.802  13.045
25726W        W93955  44.204  19.088  12.093
25727W        W93956  33.686  26.341  13.141
25728W        W93957   2.442  28.210   1.965
25729W        W93958  44.981   5.699   0.841
25730W        W93959  10.392  30.413  12.862
25731W        W93960  19.075  22.806   0.189
25732W        W93961  28.761  44.066   2.425
25733W        W93962  34.323  11.833  13.962
25734W        W93963  40.450   7.645   0.728
25735W        W93964  26.579  31.842  13.196
25736W        W93965   3.192  17.717  11.999
25737W        W93966  15.248  16.185   4.127
25738W        W93967  36.115  33.754  10.749
25739W        W93968   2.943  36.356   0.498
25740W        W93969  11.105  28.152  11.139
25741W        W93970  33.398   1.687  14.049
25742W        W93971  23.197  27.526  14.398
25743W        W93972  29.395  11.790  14.497
25744W        W93973  38.846  37.827  13.963
25745W        W93974  33.899  25.032  14.929
25746W        W93975  10.552  31.920   1.376
25747W        W93976   3.141  15.688  13.026
25748W        W93977   9.752  24.035  12.523
25749W        W93978   4.757  22.528   4.930
25750W        W93979  21.955   9.741  12.986
25751W        W93980   7.140   1.897  13.436
25752W        W93981   8.190  21.549  12.817
25753W        W93982   9.756  38.009  10.571
25754W        W93983   6.360  38.571   4.053
25755W        W93984  43.766   9.644   4.355
25756W        W93985  35.412  40.312   3.991
25757W        W93986  12.811  39.118   0.529
25758W        W93987  38.978  11.875   0.775
25759W        W93988  13.246  37.151  11.115
25760W        W93989  29.386  13.412  13.777
25761W        W93990  32.646  23.670  13.744
25762W        W93991  24.102  25.255   0.023
25763W        W93992   6.146  34.367   2.404
25764W        W93993  24.818  11.080   9.665
25765W        W93994  25.745  24.040   1.708
25766W        W93995   7.195  36.365  12.509
25767W        W93996  39.418   9.193   4.929
25768W        W93997  20.610  38.401  11.044
25769W        W93998  34.891   5.810  14.942
25770W        W93999  16.927  29.368   4.367
25771W        W94000  36.006  30.398  13.315
25772W        W94001  24.692  14.278   1.283
25773W        W94002  36.294  21.099  12.426
25774W        W94003  41.354  13.162  11.988
25775W        W94004  34.377  19.807   4.961
25776W        W94005  22.249   4.594  14.442
25777W        W94006   8.973  34.070  14.468
25778W        W94007  38.316  12.858   2.278
25779W        W94008   7.075  35.692  12.877
25780W        W94009  20.768  43.566  10.450
25781W        W94010  24.171  32.406  12.592
25782W        W94011  29.514   6.344   4.229
25783W        W94012  17.799  20.135   2.182
25784W        W94013  19.972  14.904   2.323
25785W        W94014  14.490  18.304  13.335
25786W        W94015  42.360  13.679  13.461
25787W        W94016  26.653  16.746   3.738
25788W        W94017  18.578  35.980  14.017
25789W        W94018  24.423   2.787   0.057
25790W        W94019   6.714  22.499   2.841
25791W        W94020  20.356  21.305  11.535
25792W        W94021  37.679  32.961   1.495
25793W        W94022   9.794  27.141   3.441
25794W        W94023  13.768  32.335  10.700
25795W        W94024  26.938  11.577  11.198
25796W        W94025  32.533  29.030   0.452
25797W        W94026  29.456  13.727  14.822
25798W        W94027   8.754   7.614  14.416
25799W        W94028  40.912  37.041  13.257
25800W        W94029  21.916  28.948  10.845
25801W        W94030   5.092  15.825  10.626
25802W        W94031  20.046  35.236   1.650
25803W        W94032  40.910  27.056   3.132
25804W        W94033  40.883  21.224   0.368
25805W        W94034   3.331  35.152   3.069
25806W        W94035  38.941   3.041  14.816
25807W        W94036  31.562   8.059   1.213
25808W        W94037  30.004  44.012  11.134
25809W        W94038   3.642   0.801   3.148
25810W        W94039  38.624  19.755  11.033
25811W        W94040  15.337  12.707   0.878
25812W        W94041  32.669  17.140   4.069
25813W        W94042  38.607  23.143  10.720
25814W        W94043  16.389  26.467   5.328
25815W        W94044  35.963   8.872   0.805
25816W        W94045   4.309   3.418   1.799
25817W        W94046  29.631  27.138   3.121
25818W        W94047  10.510  20.966   1.650
25819W        W94048  10.371  24.186   1.738
25820W        W94049  43.943  29.692   0.841
25821W        W94050   9.198  22.637  14.874
25822W        W94051  20.752  17.031  14.508
25823W        W94052   7.376   1.893  13.889
25824W        W94053  13.556  22.698  11.664
25825W        W94054  41.550  10.739   2.827
25826W        W94055  30.161  28.985   4.430
25827W        W94056  14.076  27.220   0.416
25828W        W94057  13.250  33.119   3.650
25829W        W94058  29.058  21.609   2.733
25830W        W94059  14.505   6.776   4.537
25831W        W94060  22.586   8.728   4.281
25832W        W94061   8.150  37.329   1.504
25833W        W94062  25.450   8.671  13.505
25834W        W94063  35.921  40.453   1.101
25835W        W94064  42.865  12.254   1.225
25836W        W94065  18.739   8.143  10.642
25837W        W94066  18.794  42.298  10.647
25838W        W94067  13.879  16.846   2.483
25839W        W94068   2.432  42.840   4.070
25840W        W94069  35.893   7.187   1.606
25841W        W94070  33.487  23.919   2.774
25842W        W94071  44.804  32.935  10.469
25843W        W94072  16.589  18.611  12.499
25844W        W94073  33.960   4.131   4.376
25845W        W94074  22.725  24.655   4.544
25846W        W94075  21.439  32.039   3.557
25847W        W94076  11.364  33.547   1.942
25848W        W94077  29.319  20.688  13.339
25849W        W94078  16.333  28.614  12.563
25850W        W94079   9.868  29.373   1.879
25851W        W94080  22.060  39.341   1.169
25852W        W94081  26.709   3.371  10.216
25853W        W94082  34.903  35.399   1.913
25854W        W94083  38.574  33.285   4.698
25855W        W94084  31.161  34.936   2.144
25856W        W94085  14.320  20.000   1.008
25857W        W94086  38.426  37.591  12.462
25858W        W94087  35.030  19.147   0.832
25859W        W94088  19.459  36.066   1.555
25860W        W94089  15.655  16.148   0.343
25861W        W94090  22.662  19.677   2.221
25862W        W94091   1.757   8.203   1.005
25863W        W94092  17.620  11.162   3.508
25864W        W94093  38.192  38.325  13.524
25865W        W94094  33.062  31.055   2.376
25866W        W94095  25.929  33.146  11.527
25867W        W94096  20.131  40.272  13.910
25868W        W94097  31.985  19.059  11.257
25869W        W94098  17.722  38.446  13.757
25870W        W94099   0.477   5.960   0.832
25871W        W94100   2.789   4.714  13.969
25872W        W94101   7.921   6.085  11.083
25873W        W94102  18.068  35.902  10.517
25874W        W94103  35.966  19.624   0.199
25875W        W94104  40.489  35.374   3.385
25876W        W94105  41.918  10.374   2.862
25877W        W94106   1.216  35.032   2.560
25878W        W94107   0.192  20.675  10.717
25879W        W94108   1.896   9.924   0.725
25880W        W94109   7.182  28.610   2.828
25881W        W94110  29.901  12.552   1.522
25882W        W94111  16.140  23.450  12.901
25883W        W94112   6.265  25.148   3.772
25884W        W94113  12.527  24.873  12.819
25885W        W94114  35.510  21.123   1.859
25886W        W94115  39.446  37.901  11.338
25887W        W94116   4.898  15.876  11.088
25888W        W94117   9.056  21.963   2.270
25889W        W94118   1.694  28.550   1.581
25890W        W94119   7.517  34.421   0.935
25891W        W94120  14.814  18.902   0.433
25892W        W94121  35.347   0.263  12.774
25893W        W94122  19.455  38.578   3.200
25894W        W94123  35.273  12.414   1.531
25895W        W94124  44.336  22.811  11.671
25896W        W94125  42.994   8.259  11.976
25897W        W94126  30.379  23.949   0.995
25898W        W94127   2.833  10.047  13.993
25899W        W94128  19.985  29.000  12.977
25900W        W94129   9.195  28.301   3.780
25901W        W94130  18.487  29.372   3.712
25902W        W94131  12.615  15.097  14.644
25903W        W94132  34.096  44.928   0.402
25904W        W94133   3.320  31.199  14.921
25905W        W94134  43.327  33.718  14.779
25906W        W94135  44.888  32.839   0.725
25907W        W94136  35.156  26.217  12.500
25908W        W94137  34.369   0.252   0.918
25909W        W94138  41.569  22.413   4.265
25910W        W94139   2.922  29.048   0.520
25911W        W94140  11.987  30.336   1.795
25912W        W94141  24.122  37.799   0.823
25913W        W94142  34.167  21.713   2.171
25914W        W94143  33.898   8.249   0.221
25915W        W94144  12.827  34.456  12.604
25916W        W94145   3.483  38.938   2.204
25917W        W94146   2.757  18.576  13.382
25918W        W94147  16.691  30.313   0.989
25919W        W94148  12.897  44.929   2.344
25920W        W94149  19.238  32.606  12.948
25921W        W94150  30.781  42.302  13.768
25922W        W94151   6.461  40.413  12.848
25923W        W94152  18.525  36.179  13.198
25924W        W94153  30.461  26.118  13.977
25925W        W94154  10.215  27.179   3.726
25926W        W94155  20.703  12.195   2.763
25927W        W94156  27.494  37.426   4.878
25928W        W94157   5.742  18.065   1.792
25929W        W94158  15.620  43.967   4.826
25930W        W94159  30.702  32.109   2.919
25931W        W94160  23.208   9.105  12.965
25932W        W94161  29.927  27.820  11.618
25933W        W94162  44.313   9.935   1.426
25934W        W94163  10.856  26.346   3.174
25935W        W94164  28.668  37.649   3.158
25936W        W94165  28.624  12.165  12.994
25937W        W94166  18.665  10.749  13.526
25938W        W94167   3.888   9.077  14.525
25939W        W94168  10.819  22.286   2.801
25940W        W94169  26.450  20.231   1.969
25941W        W94170   2.568  23.386  12.645
25942W        W94171  34.392   6.125   2.471
25943W        W94172  36.462  43.023  11.152
25944W        W94173  21.182  31.233   3.909
25945W        W94174   2.912  38.507   1.840
25946W        W94175  18.087  25.929   2.995
25947W        W94176  11.671  36.112  12.513
25948W        W94177  33.890  36.649   3.254
25949W        W94178  33.372  44.338   0.723
25950W        W94179   1.093  26.698   3.894
25951W        W94180  37.484  27.382  13.497
25952W        W94181   0.386  34.608  11.364
25953W        W94182  21.429  23.418  12.814
25954W        W94183  36.978  25.221  10.586
25955W        W94184  30.048  38.295  12.928
25956W        W94185   8.741  38.236  14.307
25957W        W94186   4.155  18.232  14.230
25958W        W94187  39.603  27.632  14.442
25959W        W94188   7.912  43.034  10.369
25960W        W94189   1.158  27.920   1.848
25961W        W94190  32.718  38.957  10.775
25962W        W94191  33.269   3.153   4.149
25963W        W94192  28.622  31.393  12.119
25964W        W94193  18.173  13.273   0.861
25965W        W94194  44.821  22.614  11.626
25966W        W94195   6.962  16.333   0.793
25967W        W94196  30.107  40.099   4.112
25968W        W94197  41.848  32.365   1.314
25969W        W94198  27.315  42.171   4.143
25970W        W94199  25.087  28.446  13.605
25971W        W94200  41.076  34.838   3.774
25972W        W94201  24.895  37.553   2.811
25973W        W94202  39.076   8.830   5.122
25974W        W94203  39.079  11.866   1.725
25975W        W94204   9.863  43.206  14.408
25976W        W94205  22.538  38.651   1.918
25977W        W94206  36.370  30.151   0.234
25978W        W94207   8.074  27.393  14.918
25979W        W94208   7.318  23.594  10.482
25980W        W94209  22.520  41.291   4.333
25981W        W94210  27.858  12.634  10.185
25982W        W94211  24.767  21.466   1.358
25983W        W94212  39.576  44.113  11.629
25984W        W94213  29.158  28.201  13.036
25985W        W94214  39.676  39.584   2.033
25986W        W94215  30.881  14.427   0.340
25987W        W94216  24.527  26.689   3.316
25988W        W94217  10.377  22.485   2.897
25989W        W94218  26.111  24.165  14.834
25990W        W94219  18.520  40.977  10.693
25991W        W94220  38.697   6.630   4.054
25992W        W94221  24.558  38.053  13.965
25993W        W94222  30.515   5.930   3.665
25994W        W94223   1.743  35.450  14.019
25995W        W94224  19.823  10.550   2.741
25996W        W94225  42.994   6.293  12.936
25997W        W94226  29.529  12.072  12.412
25998W        W94227  20.303   0.169  10.794
25999W        W94228   0.855  28.755   4.797
26000W        W94229  19.149  19.803  13.770
26001W        W94230   2.682  37.353  14.224
26002W        W94231  21.369  41.841   5.105
26003W        W94232   3.488  26.436   2.880
26004W        W94233  32.643  39.140   1.706
26005W        W94234  35.918   3.257  14.788
26006W        W94235  11.899  16.192  11.039
26007W        W94236  17.071  41.136  11.923
26008W        W94237  33.522  32.025   4.960
26009W        W94238   6.220  26.590   3.732
26010W        W94239  26.959  27.680   4.744
26011W        W94240  24.944  17.856  12.433
26012W        W94241  17.236  32.277  14.350
26013W        W94242  23.808  31.657  13.067
26014W        W94243   6.457  25.980  14.045
26015W        W94244   5.808  28.471  12.988
26016W        W94245  42.641  35.594  12.492
26017W        W94246  37.250  31.485   2.716
26018W        W94247  13.726  34.911  12.916
26019W        W94248  28.025   1.370   4.805
26020W        W94249  12.818  26.343  13.273
26021W        W94250  40.942  18.330  13.934
26022W        W94251   1.559  28.958  11.524
26023W        W94252  42.404  36.274   4.215
26024W        W94253  29.592   1.198  14.598
26025W        W94254   2.478  11.889   3.550
26026W        W94255  28.451   2.946   2.406
26027W        W94256   0.696  20.084   3.651
26028W        W94257  36.228  11.916  14.544
26029W        W94258   9.672   7.591   0.858
26030W        W94259  22.011   7.366  13.823
26031W        W94260  18.466  28.061  10.730
26032W        W94261  38.953  34.429   1.707
26033W        W94262  33.984   8.847   3.195
26034W        W94263  37.443   8.350  14.474
26035W        W94264   8.483  40.868  11.094
26036W        W94265   7.037  24.608  11.573
26037W        W94266  23.955  32.758  14.106
26038W        W94267   6.562  13.632  11.951
26039W        W94268  39.012  13.074   2.912
26040W        W94269  31.426  40.421  13.360
26041W        W94270  32.219  21.147  13.121
26042W        W94271   0.181  30.994   4.527
26043W        W94272  37.572  23.465   0.019
26044W        W94273  41.895  24.318  10.720
26045W        W94274   2.822  30.075   4.805
26046W        W94275  12.779  19.226   1.159
26047W        W94276  23.881  12.671   3.651
26048W        W94277   2.932  25.701  10.695
26049W        W94278  30.561  28.935  12.746
26050W        W94279  14.906  26.979   1.538
26051W        W94280  29.545  14.576  10.776
26052W        W94281  25.781  14.689   2.052
26053W        W94282  44.276  14.640  12.558
26054W        W94283  26.179  32.461   4.578
26055W        W94284  38.437  13.801   3.306
26056W        W94285  25.604   0.178  11.452
26057W        W94286  22.051  22.228  12.523
26058W        W94287  18.744  34.824   0.849
26059W        W94288  26.698  14.585  13.878
26060W        W94289  24.516  31.409   2.755
26061W        W94290  13.308   9.333  11.870
26062W        W94291  23.962   6.188   0.706
26063W        W94292  28.322   7.202  14.505
26064W        W94293   2.521  40.477  10.181
26065W        W94294  32.177  19.489   2.264
26066W        W94295  27.925   1.235  11.131
26067W        W94296  12.460   4.290   1.373
26068W        W94297  35.408  26.511   2.398
26069W        W94298  30.397  37.104  12.592
26070W        W94299  13.484   3.753   1.705
26071W        W94300  22.628  12.336   4.069
26072W        W94301  20.519  10.660   3.745
26073W        W94302  31.679   1.813   0.017
26074W        W94303  11.904  34.792   3.231
26075W        W94304  35.395  23.689  11.084
26076W        W94305  39.515   2.206   0.950
26077W        W94306  40.742   4.334  11.986
26078W        W94307  40.083   9.088   3.185
26079W        W94308   3.862  43.439   4.557
26080W        W94309   3.516  29.121  13.034
26081W        W94310  13.158   8.901   0.261
26082W        W94311   2.349  34.370  12.623
26083W        W94312  17.064  15.344   3.220
26084W        W94313  34.195  32.044   4.275
26085W        W94314  20.023  13.646   0.255
26086W        W94315   5.808  25.235  11.609
26087W        W94316  32.387  22.794  12.409
26088W        W94317  20.320  33.496   2.164
26089W        W94318  38.568  32.864  12.569
26090W        W94319  41.563  27.273   2.373
26091W        W94320  28.426  44.948   0.438
26092W        W94321  21.804  22.032   4.561
26093W        W94322  26.847  14.095   1.643
26094W        W94323  11.208  19.774   3.522
26095W        W94324  18.627  34.647  11.543
26096W        W94325  27.628  25.479  14.954
26097W        W94326   9.779  23.557  10.599
26098W        W94327  10.263  40.333  14.017
26099W        W94328  40.276  23.593  11.083
26100W        W94329   5.414  26.569   1.403
26101W        W94330  25.036  32.432  14.041
26102W        W94331  29.269  26.645  11.096
26103W        W94332  43.469   0.378  10.539
26104W        W94333  42.303  32.370   4.325
26105W        W94334  21.986  37.561  13.556
26106W        W94335  24.690  34.040  13.506
26107W        W94336  33.456   0.914   4.684
26108W        W94337  40.203  16.065   3.189
26109W        W94338  20.485   6.729   0.256
26110W        W94339  30.044  39.826  14.434
26111W        W94340  28.432   7.203   2.213
26112W        W94341  21.531  20.962   3.698
26113W        W94342  42.622  38.434  10.970
26114W        W94343  23.120  14.855  11.891
26115W        W94344  21.601  18.581  10.476
26116W        W94345   1.459   8.278   4.585
26117W        W94346  19.474   3.720  10.694
26118W        W94347  30.338  36.994   1.927
26119W        W94348  36.859  28.181   3.864
26120W        W94349  28.543  27.524   2.662
26121W        W94350  44.299  42.459   3.822
26122W        W94351  27.466  42.503   1.293
26123W        W94352  40.248  12.757   2.747
26124W        W94353  42.904  37.376  13.951
26125W        W94354  32.255   5.705  14.879
26126W        W94355  40.945  33.834  12.705
26127W        W94356  31.887   8.351  13.915
26128W        W94357  24.797   6.386  12.402
26129W        W94358  23.005  24.609  13.275
26130W        W94359  39.003  23.004   1.861
26131W        W94360  41.816  43.972   3.679
26132W        W94361  28.058  42.447  12.042
26133W        W94362  26.049  26.553   4.504
26134W        W94363  40.969  23.553  14.256
26135W        W94364  41.077  39.583  11.126
26136W        W94365  20.750   0.379  12.027
26137W        W94366  33.531  39.558  13.862
26138W        W94367  39.095  22.230   2.518
26139W        W94368  20.684   9.342  13.725
26140W        W94369  40.855  35.012   0.581
26141W        W94370  27.119   2.330  14.800
26142W        W94371  22.964  28.912   3.174
26143W        W94372   8.732  38.111  13.314
26144W        W94373  11.036  26.956  14.095
26145W        W94374  21.021  24.678   4.098
26146W        W94375  44.549  23.861  10.389
26147W        W94376  40.895  41.417   3.823
26148W        W94377  42.019  32.394   2.290
26149W        W94378  18.783  11.936   3.733
26150W        W94379  31.378   1.257   3.149
26151W        W94380  17.304  35.098   4.194
26152W        W94381  21.744   2.985   2.691
26153W        W94382  30.671  38.392  10.967
26154W        W94383  37.991  25.199  13.865
26155W        W94384  12.188  21.601  14.830
26156W        W94385  26.934  37.046  13.604
26157W        W94386  31.767  11.352  11.083
26158W        W94387  12.808  43.989   3.204
26159W        W94388   3.635  26.489  10.590
26160W        W94389   2.931  29.040  12.501
26161W        W94390  37.149   1.341  14.557
26162W        W94391  15.550  31.536   3.152
26163W        W94392  16.784  41.447   0.426
26164W        W94393  30.085   1.326   2.888
26165W        W94394  26.456  22.493  11.924
26166W        W94395  35.445  15.713   1.340
26167W        W94396  14.836  24.601   0.783
26168W        W94397  28.082  10.238  14.683
26169W        W94398   3.299  20.409   0.765
26170W        W94399   8.208  19.950   3.300
26171W        W94400  27.598   9.911   1.285
26172W        W94401  44.861   5.357   1.559
26173W        W94402  25.419  38.919  12.946
26174W        W94403   1.528   5.719  11.503
26175W        W94404   7.777  11.935   2.202
26176W        W94405  43.443  24.986  13.066
26177W        W94406  39.754  12.633   2.827
26178W        W94407  39.811  18.610   3.784
26179W        W94408  29.674  29.140  12.095
26180W        W94409  38.231   1.819  12.936
26181W        W94410  21.230  23.236   2.668
26182W        W94411  13.027   3.983   0.941
26183W        W94412  24.572  28.227   1.172
26184W        W94413  38.116  30.863   0.349
26185W        W94414  24.204  42.516   3.703
26186W        W94415  35.542  24.131   3.950
26187W        W94416   1.609  28.693  12.441
26188W        W94417  26.839  34.886   3.334
26189W        W94418  23.183  37.785   0.373
26190W        W94419  15.041   2.221   4.117
26191W        W94420  40.631  25.708  13.043
26192W        W94421  31.193  19.727  14.979
26193W        W94422  26.034  44.573   2.232
26194W        W94423   5.148  14.770  10.598
26195W        W94424  15.726  30.910   1.357
26196W        W94425  21.188   4.870  14.313
26197W        W94426  15.774  44.796  12.042
26198W        W94427  34.577  23.492  12.418
26199W        W94428  42.761  30.590   3.562
26200W        W94429  10.707  13.229  12.634
26201W        W94430   1.223   9.790  12.697
26202W        W94431  18.736   3.772   1.722
26203W        W94432  40.313  15.614  10.337
26204W        W94433   9.213  36.695  13.194
26205W        W94434  44.047  37.980   1.348
26206W        W94435  43.540  22.722   2.716
26207W        W94436  35.134   2.375   4.506
26208W        W94437  36.975  20.687  10.673
26209W        W94438   7.649  32.527  12.897
26210W        W94439  24.321  40.489  10.847
26211W        W94440  35.034  27.961   2.400
26212W        W94441   9.065   3.820  11.501
26213W        W94442  18.704  23.228  14.014
26214W        W94443  33.467  22.014  12.129
26215W        W94444  31.640  41.800   3.786
26216W        W94445   1.338  23.759  12.934
26217W        W94446  34.924  37.181  12.792
26218W        W94447   9.638  10.189   1.200
26219W        W94448  21.636  34.818   1.291
26220W        W94449  27.249  29.522  13.852
26221W        W94450  35.619  38.300   1.282
26222W        W94451  13.782  14.704  14.770
26223W        W94452  10.505  32.094  12.489
26224W        W94453  28.474  16.887   1.095
26225W        W94454  17.048  10.881  13.421
26226W        W94455  24.004  24.078   1.146
26227W        W94456  27.398  22.281   3.319
26228W        W94457  30.525  35.954   2.701
26229W        W94458  15.205  23.768  14.432
26230W        W94459  44.117  32.562   4.923
26231W        W94460  33.764  16.235   9.856
26232W        W94461   8.354   4.759  13.305
26233W        W94462  37.545  17.319  11.599
26234W        W94463  25.625  34.112   1.736
26235W        W94464  28.171  27.646   1.342
26236W        W94465  21.117  11.333   9.839
26237W        W94466  21.415  38.356  11.654
26238W        W94467  40.517   0.600   2.779
26239W        W94468  41.852  19.875   3.999
26240W        W94469  43.867   4.598  12.007
26241W        W94470  44.286  42.980   3.752
26242W        W94471  34.920  36.891   0.917
26243W        W94472  40.660  11.180   4.611
26244W        W94473  12.716  28.532   1.639
26245W        W94474  40.462  21.719  12.013
26246W        W94475  27.573  28.482   2.204
26247W        W94476  12.345  10.737   1.288
26248W        W94477  24.151  13.302   4.113
26249W        W94478  13.513  16.969  11.481
26250W        W94479  27.215  41.813   0.716
26251W        W94480  17.639  37.782   3.878
26252W        W94481  44.609  11.867   3.535
26253W        W94482  20.119   4.298  11.124
26254W        W94483  30.529  22.715  11.564
26255W        W94484  15.328  11.223   0.434
26256W        W94485   3.354  38.306  14.530
26257W        W94486  18.715  37.434   1.944
26258W        W94487   9.620   2.752   3.818
26259W        W94488  30.020  30.251   4.478
26260W        W94489  17.516  42.813   1.838
26261W        W94490  18.725  22.516  10.692
26262W        W94491  25.723   1.203   3.147
26263W        W94492  14.811  10.216   2.911
26264W        W94493  21.031  23.231  12.308
26265W        W94494  34.422  30.083   3.846
26266W        W94495  24.244  34.045  11.482
26267W        W94496  14.640  41.513  13.896
26268W        W94497  39.788  17.829  12.952
26269W        W94498  13.098  22.560   2.576
26270W        W94499  23.413  29.871  14.440
26271W        W94500  33.955  17.062  13.871
26272W        W94501   6.417  37.760   0.974
26273W        W94502  16.205   6.460   2.744
26274W        W94503  39.271  29.969   0.003
26275W        W94504  28.688  28.186  10.726
26276W        W94505  38.476  25.035  10.660
26277W        W94506  39.780  16.302  11.133
26278W        W94507  29.501  32.606  12.926
26279W        W94508  25.522  21.037   0.397
26280W        W94509   0.478  24.327   1.983
26281W        W94510   3.894   1.463   0.882
26282W        W94511   4.159  26.670   1.285
26283W        W94512   7.228  15.618   1.978
26284W        W94513  31.941  21.974  10.697
26285W        W94514  28.045  12.838  13.564
26286W        W94515  25.975   4.770   0.223
26287W        W94516  28.113  35.618  13.781
26288W        W94517  39.016   1.928  12.609
26289W        W94518  25.694  23.773  10.359
26290W        W94519  32.706   4.636  11.650
26291W        W94520  41.992  33.080   3.314
26292W        W94521   9.904  23.126  14.322
26293W        W94522  13.886   1.278  11.240
26294W        W94523   0.918   3.908   3.784
26295W        W94524  20.962  38.476  11.895
26296W        W94525  24.186  32.577   4.594
26297W        W94526   9.865  43.884  14.975
26298W        W94527  32.457  19.086  11.031
26299W        W94528  36.110  19.258  13.359
26300W        W94529  21.103  26.766   1.675
26301W        W94530   4.879  20.022   4.205
26302W        W94531  41.064  19.295  13.642
26303W        W94532   5.499  15.079   4.028
26304W        W94533  33.611  25.949   4.043
26305W        W94534  30.457   0.953   3.857
26306W        W94535  13.187   8.811   4.116
26307W        W94536  15.690   0.755   0.425
26308W        W94537  23.082  36.420   0.849
26309W        W94538  12.449   8.338   1.676
26310W        W94539  23.063  29.312  14.195
26311W        W94540  11.856   2.520  11.160
26312W        W94541  33.937   8.276   4.059
26313W        W94542  32.081  17.146  14.402
26314W        W94543  26.510  14.304  13.472
26315W        W94544  21.392   8.912  12.344
26316W        W94545  43.171  34.849  14.701
26317W        W94546  12.058  14.186  10.115
26318W        W94547  19.112   6.393   1.519
26319W        W94548   3.278   5.697   4.356
26320W        W94549  16.616  16.255  14.440
26321W        W94550  13.873  35.001  11.187
26322W        W94551  44.053   6.137  12.163
26323W        W94552  10.308  10.896  11.054
26324W        W94553  37.948   9.558  14.627
26325W        W94554  15.265  28.644   0.522
26326W        W94555  23.265   7.362   0.202
26327W        W94556   5.761  40.363   4.687
26328W        W94557  19.734  21.948   0.666
26329W        W94558  36.528  17.650  10.890
26330W        W94559   1.107  38.902  13.854
26331W        W94560   2.683  36.032   1.731
26332W        W94561  21.367  36.021   3.271
26333W        W94562  29.441  27.567  14.694
26334W        W94563  24.893  22.329  13.870
26335W        W94564   3.394   8.793  13.444
26336W        W94565  25.127   7.801  10.714
26337W        W94566  23.519  40.315  13.313
26338W        W94567  14.325   4.106  11.222
26339W        W94568  24.826   8.285   4.155
26340W        W94569  26.442  27.797   4.632
26341W        W94570  29.955  13.082  10.709
26342W        W94571  34.923  37.137   1.390
26343W        W94572   6.813  37.384   1.204
26344W        W94573  27.157  42.175   1.634
26345W        W94574  24.600  13.270   1.691
26346W        W94575  36.900  26.115  14.211
26347W        W94576  19.623  17.256  13.888
26348W        W94577  35.798   5.284   3.800
26349W        W94578   4.728  13.795   0.412
26350W        W94579   7.111  29.993   1.309
26351W        W94580  22.491  43.410  13.987
26352W        W94581  35.431  15.226   4.379
26353W        W94582  21.384  34.137   3.601
26354W        W94583   4.034  38.561  12.972
26355W        W94584  17.663  22.273  11.088
26356W        W94585  32.595  20.415  12.854
26357W        W94586  36.030  32.368   1.848
26358W        W94587  27.952  40.269   5.033
26359W        W94588   8.671  19.167  12.494
26360W        W94589  37.427  32.090  14.010
26361W        W94590   7.363  31.097  12.048
26362W        W94591  35.101   7.199  12.956
26363W        W94592  30.417  31.473   3.677
26364W        W94593  42.928  29.433   2.380
26365W        W94594  13.636  40.947   2.381
26366W        W94595  12.814  19.575   2.442
26367W        W94596  29.442  35.460  13.065
26368W        W94597  43.075  11.343  13.332
26369W        W94598  28.956  41.526  14.497
26370W        W94599  22.187  38.915  10.501
26371W        W94600  10.818  35.832  10.972
26372W        W94601  18.634   6.314   2.485
26373W        W94602  19.053  29.238  11.135
26374W        W94603  25.667  39.526   3.106
26375W        W94604  36.322   5.254   3.723
26376W        W94605  19.738  12.440  14.252
26377W        W94606  44.425  22.217   4.610
26378W        W94607  11.036  33.499  14.428
26379W        W94608  15.849  18.410  13.596
26380W        W94609   7.969  13.212   0.651
26381W        W94610   3.463  43.444   1.955
26382W        W94611   3.323  43.519  13.087
26383W        W94612  36.403   1.875   2.084
26384W        W94613  39.491  22.484  14.350
26385W        W94614  15.931   0.987   0.009
26386W        W94615  12.072  23.653   1.356
26387W        W94616  44.543  13.729  12.073
26388W        W94617   0.965  42.771   0.969
26389W        W94618  44.287   7.161   3.764
26390W        W94619   7.670  33.574  10.371
26391W        W94620  43.651  28.738  14.284
26392W        W94621  29.143  10.648   1.592
26393W        W94622   4.077  21.184  14.877
26394W        W94623   9.425  24.172  11.934
26395W        W94624   3.058  18.758   0.380
26396W        W94625  17.620   1.555  12.022
26397W        W94626  19.589  23.252  11.991
26398W        W94627  43.314  11.792  13.484
26399W        W94628  28.180  12.719   2.697
26400W        W94629  42.088   1.616   0.029
26401W        W94630   1.943   8.514   0.286
26402W        W94631  37.428  14.557  14.776
26403W        W94632  36.586  27.386  10.644
26404W        W94633  30.606   1.856   3.922
26405W        W94634   7.594   3.962  10.382
26406W        W94635   8.326  30.974  11.895
26407W        W94636  12.055  13.128  12.081
26408W        W94637  22.168  37.628   4.194
26409W        W94638  31.595   6.932  11.606
26410W        W94639  10.595   7.259  14.878
26411W        W94640   2.952  30.885  11.074
26412W        W94641  23.641  15.319  12.499
26413W        W94642  12.381  28.010   2.153
26414W        W94643   5.206  28.025   2.582
26415W        W94644  38.625  13.618  13.066
26416W        W94645   7.530   8.804  11.411
26417W        W94646   4.819  34.346  12.454
26418W        W94647  24.683  24.768   2.782
26419W        W94648  35.455  22.681  12.925
26420W        W94649  43.814  15.162  11.946
26421W        W94650  43.866  42.291   0.405
26422W        W94651   2.489  12.134  13.365
26423W        W94652  21.832  10.175   2.757
26424W        W94653   6.121  20.658   0.871
26425W        W94654  25.363  23.674  14.637
26426W        W94655  32.092  43.815   0.721
26427W        W94656  34.553  35.133  11.049
26428W        W94657  31.096  31.582   1.047
26429W        W94658  29.294  27.556   0.577
26430W        W94659  18.212  12.363   0.108
26431W        W94660  17.221  25.954   4.546
26432W        W94661  16.516  27.202   1.760
26433W        W94662  13.813  41.850   3.210
26434W        W94663  18.706  43.728   2.777
26435W        W94664  31.960   2.952  12.458
26436W        W94665  44.951  39.025   0.046
26437W        W94666   2.829   4.782  14.899
26438W        W94667   5.096  38.456   3.443
26439W        W94668  13.394  35.466  10.690
26440W        W94669  38.461   0.166  11.110
26441W        W94670  27.039   0.840  13.812
26442W        W94671   3.339  10.826   3.804
26443W        W94672  34.853  34.122  11.978
26444W        W94673  15.843   1.082   2.636
26445W        W94674  29.592  23.879  13.975
26446W        W94675  19.968  37.519   4.173
26447W        W94676   4.283  20.332   4.596
26448W        W94677  35.056  27.663  12.444
26449W        W94678  26.022  14.179   4.633
26450W        W94679  42.385  26.274   2.205
26451W        W94680   5.024  40.921   2.670
26452W        W94681  29.021   0.471   3.165
26453W        W94682  26.060   9.562  10.562
26454W        W94683  26.353  15.527  12.338
26455W        W94684   2.900  10.368   4.477
26456W        W94685  31.607  30.047   4.640
26457W        W94686  16.606  33.907  13.887
26458W        W94687   6.646  34.091   2.410
26459W        W94688  32.198   8.890   1.252
26460W        W94689  31.325  20.007  10.656
26461W        W94690  38.037  14.345  14.938
26462W        W94691  23.301   0.802   0.837
26463W        W94692  28.818  41.463   2.593
26464W        W94693  41.385  29.850   2.607
26465W        W94694  30.437   8.744  13.843
26466W        W94695  41.958  24.665  12.589
26467W        W94696   8.039  42.338   4.763
26468W        W94697   2.155  33.871  12.569
26469W        W94698  42.526  33.418   2.739
26470W        W94699  19.456  23.366   9.875
26471W        W94700  39.950  43.532  14.044
26472W        W94701   7.178  19.164   2.815
26473W        W94702  32.935  31.142   0.444
26474W        W94703  23.986  26.183  14.571
26475W        W94704  29.921  20.782   3.059
26476W        W94705  14.447  28.660  12.117
26477W        W94706  42.139  31.327   5.603
26478W        W94707  17.009  10.150   0.442
26479W        W94708   4.371  16.658   1.335
26480W        W94709   3.334  26.092   3.244
26481W        W94710  20.087  15.950   4.998
26482W        W94711  34.399  19.037  14.781
26483W        W94712  23.753   1.703  11.378
26484W        W94713  15.803  20.191  14.838
26485W        W94714  41.386  21.569  14.230
26486W        W94715  28.213  17.216   4.502
26487W        W94716  24.069  24.700   0.887
26488W        W94717   2.867   3.985   1.845
26489W        W94718  33.200  39.942  11.778
26490W        W94719   5.408  21.465  13.866
26491W        W94720  27.683  16.722   1.630
26492W        W94721   7.466   4.934   1.371
26493W        W94722  13.075  16.715   3.694
26494W        W94723  33.325   5.681  13.113
26495W        W94724  42.239   9.773   1.379
26496W        W94725  14.073  39.787  14.008
26497W        W94726   4.436   0.165   3.827
26498W        W94727  17.629  38.615   2.493
26499W        W94728   9.848  44.854   3.743
26500W        W94729  10.547   1.610  12.908
26501W        W94730  24.578  24.510  14.546
26502W        W94731  11.362  29.165   2.813
26503W        W94732  32.952  34.070   3.738
26504W        W94733  37.003   9.842   2.395
26505W        W94734  23.085  35.217  13.615
26506W        W94735  41.633  14.765   3.994
26507W        W94736   3.870  31.776   0.335
26508W        W94737  32.408   9.421   4.796
26509W        W94738  23.612  18.781  13.602
26510W        W94739  37.787  27.791   0.379
26511W        W94740  20.769   9.167   1.682
26512W        W94741  31.155  30.483   1.270
26513W        W94742   6.118  42.116  13.590
26514W        W94743  43.320  40.379   2.770
26515W        W94744  37.974   2.915   2.654
26516W        W94745  15.702  36.972   2.219
26517W        W94746  16.702  33.035  11.628
26518W        W94747  42.391  35.781  12.016
26519W        W94748  10.811  44.304   4.607
26520W        W94749  23.434  20.580   2.338
26521W        W94750   4.706   7.823   3.201
26522W        W94751   8.756   7.769   3.312
26523W        W94752  13.784   0.015   3.329
26524W        W94753  44.307  40.837   3.685
26525W        W94754  16.103  26.623  14.830
26526W        W94755  21.492  19.173   2.286
26527W        W94756  36.312  32.002   2.628
26528W        W94757  29.921  42.235   2.816
26529W        W94758  22.527  18.627  10.851
26530W        W94759  17.218  35.585  13.983
26531W        W94760  16.494  28.192   0.560
26532W        W94761   0.716  13.786   3.635
26533W        W94762  29.324  15.305  11.963
26534W        W94763   3.317   9.233   0.325
26535W        W94764  38.974  20.141   2.104
26536W        W94765  36.355  23.993  14.451
26537W        W94766  25.462  11.604   4.304
26538W        W94767  21.442  34.114   3.093
26539W        W94768  26.476  43.734   0.927
26540W        W94769  18.953  31.155  13.912
26541W        W94770  37.099  11.586   0.808
26542W        W94771  24.561  24.413   2.429
26543W        W94772  25.585  24.522   3.692
26544W        W94773   0.024  39.435  13.482
26545W        W94774  10.728  17.214  14.351
26546W        W94775  32.634   8.749   0.199
26547W        W94776  13.360  26.673   0.111
26548W        W94777   2.595  38.418   2.702
26549W        W94778   2.459   8.324   0.283
26550W        W94779  39.351  33.713  10.335
26551W        W94780  28.147   9.153   3.805
26552W        W94781  31.450  11.108   4.280
26553W        W94782  27.559  44.351  12.048
26554W        W94783  36.664   5.933   2.760
26555W        W94784   1.275   9.524   0.404
26556W        W94785  23.101  41.546  13.088
26557W        W94786  14.839  28.959   0.792
26558W        W94787   5.499  35.465   3.803
26559W        W94788   7.551   8.294   4.851
26560W        W94789  22.632   2.731  10.897
26561W        W94790  20.749  44.181   1.225
26562W        W94791  30.595  37.413   2.091
26563W        W94792   1.452  22.026  11.053
26564W        W94793  44.987  14.641   3.622
26565W        W94794  18.121  22.709   1.333
26566W        W94795  36.136  37.551   0.802
26567W        W94796  15.103  23.037   2.071
26568W        W94797  24.136  26.547  14.236
26569W        W94798  11.883  44.541   5.066
26570W        W94799  16.769  18.915  11.919
26571W        W94800   7.161   1.745  12.523
26572W        W94801  19.713   3.683   1.725
26573W        W94802   0.341   2.495   1.314
26574W        W94803  33.328  30.331   4.078
26575W        W94804   6.373  18.934  13.060
26576W        W94805   1.149  25.577  14.095
26577W        W94806  37.326  41.950  13.815
26578W        W94807  26.886  36.863   1.399
26579W        W94808  30.516  31.362  11.156
26580W        W94809  37.098  25.094   3.259
26581W        W94810  25.673  11.329  14.551
26582W        W94811  21.052  36.472   0.903
26583W        W94812   5.198   7.031  12.405
26584W        W94813  21.988  12.701   1.843
26585W        W94814  35.823   8.407   1.602
26586W        W94815  14.658  18.126   2.851
26587W        W94816  23.245  44.850   4.627
26588W        W94817  42.260  39.059   9.854
26589W        W94818  26.076  29.556  11.088
26590W        W94819  23.310   1.435   4.723
26591W        W94820  15.181  33.103   3.403
26592W        W94821  11.509  39.761   0.969
26593W        W94822  25.023  39.505  14.800
26594W        W94823  25.247  31.510  12.866
26595W        W94824  42.965  13.606   3.515
26596W        W94825   5.832  43.833  12.960
26597W        W94826  18.767   7.909  14.039
26598W        W94827  18.764   3.268  12.585
26599W        W94828  27.465  43.682   0.973
26600W        W94829  29.112  14.547  11.525
26601W        W94830  35.056  15.366   2.604
26602W        W94831  26.687  39.504  11.830
26603W        W94832  14.473  25.826  11.939
26604W        W94833  43.790   5.162   3.461
26605W        W94834  14.316  37.437  12.550
26606W        W94835  23.823   0.424  11.885
26607W        W94836  34.929  27.947   2.920
26608W        W94837  33.421  14.235   1.270
26609W        W94838  16.178   2.773   4.040
26610W        W94839  22.584   7.238  11.474
26611W        W94840  24.180   6.313  13.743
26612W        W94841  33.119  31.050  12.491
26613W        W94842  16.745  17.700   1.252
26614W        W94843   7.967  33.056   1.908
26615W        W94844  35.703   9.564   4.121
26616W        W94845   4.638  12.083   1.780
26617W        W94846  42.966  22.547   0.268
26618W        W94847  21.303  31.010   3.050
26619W        W94848  37.931  26.621  10.929
26620W        W94849   5.963   9.089   2.320
26621W        W94850  10.588   0.284   2.314
26622W        W94851  32.185  29.948   0.834
26623W        W94852   3.567   9.354  12.753
26624W        W94853   0.117  15.782  12.081
26625W        W94854  21.676  39.094  12.996
26626W        W94855   5.402   3.500  12.633
26627W        W94856   4.779  42.227  12.431
26628W        W94857  42.914  38.939   3.641
26629W        W94858   1.961  44.722  13.149
26630W        W94859   9.768  14.356  10.784
26631W        W94860  19.718  24.517   3.766
26632W        W94861  24.122  13.809   3.147
26633W        W94862  44.932  15.825   5.134
26634W        W94863  11.123  20.682   2.241
26635W        W94864   4.315  18.621  11.951
26636W        W94865  14.365  12.619  11.336
26637W        W94866   3.687  19.088  13.963
26638W        W94867   8.164  32.452  13.024
26639W        W94868  23.964  18.226  10.718
26640W        W94869   6.428  25.130  14.766
26641W        W94870   0.442  40.013   4.315
26642W        W94871   4.329  39.852  11.946
26643W        W94872  26.529  16.994  10.160
26644W        W94873   7.352  34.921   4.789
26645W        W94874   9.610  39.524   1.841
26646W        W94875  20.750  33.683  11.535
26647W        W94876  31.766  13.395  10.925
26648W        W94877  26.487  33.593  10.988
26649W        W94878  39.384   7.874   1.314
26650W        W94879   1.394  41.050   2.276
26651W        W94880   9.885  35.569   4.807
26652W        W94881  20.496   4.464  11.878
26653W        W94882  41.503  21.053   4.459
26654W        W94883  38.447  30.169   1.376
26655W        W94884  35.025  20.659  11.285
26656W        W94885  35.723   7.318  11.644
26657W        W94886  26.173  14.454   2.319
26658W        W94887  35.539  25.017  12.442
26659W        W94888  25.981  24.049   2.624
26660W        W94889  31.605  24.222   2.256
26661W        W94890   3.711   5.320   3.303
26662W        W94891  35.561  22.685   3.533
26663W        W94892  17.278   5.777   1.172
26664W        W94893   4.791  18.599   3.738
26665W        W94894  30.554  32.505  11.528
26666W        W94895  27.939  23.579   9.727
26667W        W94896  40.333  16.988   2.812
26668W        W94897   8.107  37.761   4.111
26669W        W94898  42.702  30.135  12.886
26670W        W94899  28.543   8.524   3.406
26671W        W94900  30.500  10.183  13.053
26672W        W94901  26.149  22.572   2.624
26673W        W94902   3.928  17.738  14.189
26674W        W94903   1.081  35.561   2.669
26675W        W94904  38.971  19.898  13.397
26676W        W94905  24.998   9.365  12.474
26677W        W94906   5.338  37.674   5.049
26678W        W94907  15.285  29.043  13.731
26679W        W94908  11.377  24.006   1.654
26680W        W94909  14.733  18.751  12.121
26681W        W94910  14.218  38.570  13.387
26682W        W94911  38.501  42.943  11.150
26683W        W94912  40.241  27.522   4.828
26684W        W94913   3.426   9.122   4.528
26685W        W94914  34.759   6.290   2.810
26686W        W94915  18.211  39.451  10.762
26687W        W94916   8.198  37.870   3.434
26688W        W94917  35.541  42.544  14.230
26689W        W94918   2.260  20.547  14.073
26690W        W94919  23.999  25.955   3.326
26691W        W94920  10.889  11.410   4.067
26692W        W94921   3.690  28.214  11.137
26693W        W94922  35.915  16.603   3.304
26694W        W94923  12.033  16.604  11.294
26695W        W94924  38.550  21.141   1.382
26696W        W94925  20.096  17.183  13.659
26697W        W94926   5.085  42.854   4.884
26698W        W94927  42.206   1.811  11.133
26699W        W94928  28.955   9.416  13.456
26700W        W94929  15.882   0.507   3.214
26701W        W94930  44.755  10.135  11.291
26702W        W94931   8.533  26.305  12.488
26703W        W94932  22.122  23.294  13.958
26704W        W94933   0.417  16.160  14.691
26705W        W94934  26.084  25.508  10.954
26706W        W94935  34.969  23.713   1.321
26707W        W94936  36.819  12.621   2.213
26708W        W94937   5.609  20.554   0.783
26709W        W94938  13.611  28.028   0.428
26710W        W94939  36.027  42.070   1.231
26711W        W94940  36.843  18.066   2.689
26712W        W94941   2.928  25.529  14.674
26713W        W94942  12.088   7.264  11.956
26714W        W94943  35.395  41.528   3.107
26715W        W94944  11.325  13.587  14.922
26716W        W94945  19.242  25.823   0.873
26717W        W94946   8.590  12.357   3.698
26718W        W94947  18.659  26.881   1.133
26719W        W94948   1.406  15.161   0.325
26720W        W94949  23.798  27.066  10.578
26721W        W94950   1.158  36.353   0.481
26722W        W94951  30.407  25.537   3.248
26723W        W94952  14.182  33.624   4.459
26724W        W94953  18.321  15.192  13.222
26725W        W94954  14.439  37.640   4.276
26726W        W94955  25.176  24.628  10.611
26727W        W94956  35.404  13.768  13.555
26728W        W94957  33.232  34.585  12.410
26729W        W94958  37.371   8.720   1.938
26730W        W94959  10.729  20.518  13.975
26731W        W94960  18.838   3.181  14.900
26732W        W94961  17.060   9.705   0.158
26733W        W94962  27.428  39.552  11.226
26734W        W94963  34.999  10.248   1.849
26735W        W94964  34.481   8.083   1.762
26736W        W94965  42.952   1.246   0.744
26737W        W94966  36.351  23.234   4.252
26738W        W94967   1.890  35.836   2.246
26739W        W94968   3.914  31.077   1.821
26740W        W94969  39.559  39.932  10.411
26741W        W94970   2.961  44.001  12.502
26742W        W94971  33.544  26.054   4.542
26743W        W94972   4.846   3.361   0.398
26744W        W94973   9.311  24.593   4.566
26745W        W94974   4.243  14.595  12.067
26746W        W94975  39.029  12.182  11.874
26747W        W94976   1.893  10.722  10.753
26748W        W94977  27.044   4.648   1.639
26749W        W94978  36.560   3.156  11.172
26750W        W94979  21.452   9.633   4.165
26751W        W94980   2.728  25.291   1.435
26752W        W94981  24.516  38.955  14.024
26753W        W94982  43.228  43.360   3.284
26754W        W94983  39.491  29.052   0.505
26755W        W94984  31.349  26.472   3.629
26756W        W94985  25.171   9.417  13.785
26757W        W94986  31.689   3.293   1.391
26758W        W94987   4.300  39.558   0.346
26759W        W94988   4.039  33.419  13.970
26760W        W94989  39.797  44.794  13.873
26761W        W94990   5.413   2.729  13.022
26762W        W94991  25.034  18.565   4.433
26763W        W94992  30.955  30.004   1.154
26764W        W94993  36.875  32.366   1.105
26765W        W94994  38.648  28.140  13.718
26766W        W94995  35.752  37.808   1.359
26767W        W94996  34.551  23.675   1.754
26768W        W94997  27.493  34.499   0.895
26769W        W94998  40.357   3.872   1.323
26770W        W94999   1.461  17.143   3.598
26771W        W95000  35.826  42.250   2.502
26772W        W95001  39.554   5.757   1.437
26773W        W95002  26.406  21.035   2.288
26774W        W95003  39.455  33.355  14.837
26775W        W95004  25.440  20.578   3.713
26776W        W95005  18.047   3.448  13.888
26777W        W95006  40.879   1.427   4.633
26778W        W95007   8.473  29.100  13.923
26779W        W95008   8.903   2.410  11.574
26780W        W95009  11.688  35.130   2.898
26781W        W95010   0.631  25.645  13.927
26782W        W95011   4.856  21.231   0.237
26783W        W95012  23.634  12.152  13.555
26784W        W95013  21.814  21.785  11.384
26785W        W95014  33.014  41.324   4.176
26786W        W95015  18.281  26.701  12.615
26787W        W95016  40.337  43.619   2.362
26788W        W95017  26.552  26.519  11.227
26789W        W95018   4.356  13.897  12.629
26790W        W95019  19.217  15.571   1.318
26791W        W95020  27.110   2.186   0.294
26792W        W95021  31.642  14.642   9.825
26793W        W95022  24.604  43.528   0.775
26794W        W95023   7.769  15.287  14.323
26795W        W95024   1.528  18.875   2.054
26796W        W95025  34.553  11.812  11.097
26797W        W95026  34.958  35.920   1.959
26798W        W95027  11.084   7.946  14.239
26799W        W95028   1.012  31.907   1.126
26800W        W95029  35.919   1.813   0.755
26801W        W95030   5.663  22.345  14.795
26802W        W95031  23.712  41.289   0.552
26803W        W95032  23.824   6.405  14.535
26804W        W95033  10.190  32.138  11.792
26805W        W95034   2.929  12.103   1.307
26806W        W95035   2.369   9.713  10.598
26807W        W95036  22.064  13.079  12.376
26808W        W95037  40.080   8.933  11.087
26809W        W95038  24.148  30.912  14.914
26810W        W95039  36.193  17.531  14.357
26811W        W95040  17.860  37.268   0.021
26812W        W95041  11.800  16.497   1.457
26813W        W95042   3.226   3.333  10.404
26814W        W95043  33.260  23.035   0.121
26815W        W95044  18.827  39.953  11.252
26816W        W95045  33.403  42.576   0.018
26817W        W95046  29.678  33.093   1.759
26818W        W95047  18.997  15.316   2.409
26819W        W95048  36.379   1.492  13.897
26820W        W95049  37.125  33.879   0.924
26821W        W95050  15.032  39.519  13.093
26822W        W95051   0.745  38.393  14.416
26823W        W95052  14.598  34.014   0.037
26824W        W95053  39.311  41.554  13.380
26825W        W95054  29.076  15.581   5.091
26826W        W95055  11.858  43.641  14.882
26827W        W95056  26.486  15.653   5.197
26828W        W95057   7.344  15.800   4.702
26829W        W95058  11.448   4.909  12.892
26830W        W95059  31.647   1.988   0.489
26831W        W95060  28.988  16.256  10.685
26832W        W95061  16.091  19.097  10.757
26833W        W95062  18.613   4.889   2.273
26834W        W95063  22.679   2.255   4.927
26835W        W95064  31.014  27.154   4.143
26836W        W95065  14.116  24.892  10.141
26837W        W95066  22.520  39.126   5.116
26838W        W95067  26.100   9.936  14.825
26839W        W95068  10.292  35.530  11.029
26840W        W95069  12.180   5.934  12.392
26841W        W95070  16.618  43.511  12.815
26842W        W95071   4.324  30.639  11.328
26843W        W95072  28.432  38.746   4.949
26844W        W95073   0.972  36.056  11.592
26845W        W95074  12.853  25.124  13.883
26846W        W95075  17.216  40.825   2.020
26847W        W95076  42.755  40.512   4.087
26848W        W95077  15.280  39.003  12.316
26849W        W95078  14.104  43.335  13.870
26850W        W95079  28.703  36.576  13.406
26851W        W95080  40.024  29.849  14.444
26852W        W95081  35.631  40.965   3.090
26853W        W95082  23.746   7.835  13.101
26854W        W95083   3.303  43.406   0.067
26855W        W95084  22.095  15.966   4.587
26856W        W95085   0.245  44.066   0.756
26857W        W95086  21.294  17.748   0.543
26858W        W95087  33.482  16.266   3.025
26859W        W95088  11.270   7.878  14.716
26860W        W95089  27.999  13.592  10.204
26861W        W95090   6.805  30.023  14.260
26862W        W95091  34.761   2.895   1.204
26863W        W95092  10.852  15.200   3.598
26864W        W95093  10.880   5.195  14.662
26865W        W95094  16.323  39.459  10.525
26866W        W95095  14.910  20.443  11.044
26867W        W95096  25.711  19.864  13.146
26868W        W95097  40.628  22.923   0.848
26869W        W95098  38.431  26.585   1.425
26870W        W95099  19.282  36.874  11.565
26871W        W95100  40.272  10.720  14.818
26872W        W95101  30.547   6.825   1.198
26873W        W95102  40.221  25.379  11.610
26874W        W95103  21.284  33.082  11.092
26875W        W95104  11.932  28.054  13.906
26876W        W95105   6.138  38.240  13.437
26877W        W95106  42.538  21.162   1.260
26878W        W95107   7.270   3.491  12.900
26879W        W95108  15.340  14.198   2.725
26880W        W95109  39.502   6.509   3.758
26881W        W95110  32.785  29.198  11.341
26882W        W95111  35.382  30.663   3.306
26883W        W95112   6.153  16.656  11.592
26884W        W95113  40.363  13.890  10.998
26885W        W95114   2.545  18.235  12.999
26886W        W95115  35.590  39.754   1.294
26887W        W95116   1.263  36.176   3.599
26888W        W95117  36.364  30.796  13.344
26889W        W95118  11.415  38.825   4.988
26890W        W95119  19.941   6.211  13.911
26891W        W95120   5.725  44.865   3.372
26892W        W95121  34.894  25.181  13.995
26893W        W95122   7.394  24.503   0.390
26894W        W95123  12.869   1.490   0.282
26895W        W95124  33.397  24.424   2.631
26896W        W95125  26.271   9.376   1.640
26897W        W95126  17.285  23.985  13.814
26898W        W95127  42.786  18.798  11.244
26899W        W95128  26.650  38.504   0.959
26900W        W95129  18.623  22.732  14.938
26901W        W95130  37.840  26.023   1.982
26902W        W95131  22.120   7.238   3.389
26903W        W95132   6.752  29.953  12.491
26904W        W95133  33.224  22.025  10.476
26905W        W95134  20.321  39.070  12.037
26906W        W95135  24.916  29.489   3.205
26907W        W95136  26.709  31.070   3.713
26908W        W95137  20.844  28.848   1.326
26909W        W95138   4.846  12.469  11.365
26910W        W95139  12.043  28.432  11.648
26911W        W95140  11.596  29.582   4.120
26912W        W95141  36.255   0.285   1.741
26913W        W95142  14.294  30.461   3.289
26914W        W95143  26.259  19.139  13.493
26915W        W95144  17.939   1.866   4.990
26916W        W95145  23.674  34.183   4.535
26917W        W95146   3.143  10.158   3.586
26918W        W95147  35.176   4.061   0.961
26919W        W95148  18.287  32.181  11.677
26920W        W95149   7.832   0.201  13.770
26921W        W95150  20.821  37.504  14.293
26922W        W95151  20.703  36.535  14.905
26923W        W95152  22.363  32.698   1.349
26924W        W95153   9.045  43.814   4.141
26925W        W95154  37.516   7.601   4.485
26926W        W95155  34.485  14.824  11.467
26927W        W95156   3.063  40.329  13.414
26928W        W95157  18.998  13.787   0.349
26929W        W95158  37.554  24.267  12.914
26930W        W95159  13.679  20.547   1.399
26931W        W95160  41.478  28.650  14.410
26932W        W95161  35.599  33.412   1.236
26933W        W95162  14.697  39.995   2.377
26934W        W95163  13.153  28.389  11.958
26935W        W95164  28.714  21.461   2.388
26936W        W95165  14.877  10.963   1.340
26937W        W95166  19.216  20.627   2.894
26938W        W95167  31.393  39.916   3.527
26939W        W95168   6.352  41.947   0.493
26940W        W95169  33.906  28.995  10.447
26941W        W95170   0.841  25.736   0.099
26942W        W95171  33.863  33.982   3.698
26943W        W95172  33.138   1.001   2.486
26944W        W95173  44.829   9.832  10.430
26945W        W95174  41.415   0.993   4.276
26946W        W95175  28.289   8.816  12.987
26947W        W95176  17.778  10.548  11.602
26948W        W95177  41.799  13.895   3.180
26949W        W95178   9.605  43.432  11.536
26950W        W95179  20.146   3.408  10.933
26951W        W95180  12.560  35.891  11.445
26952W        W95181  37.357  44.450   0.483
26953W        W95182  40.706  38.048  11.585
26954W        W95183  28.181  28.507  13.602
26955W        W95184  44.987  25.111   1.220
26956W        W95185  10.099  44.696   4.294
26957W        W95186  11.220  10.978  12.213
26958W        W95187  21.068  34.390  10.181
26959W        W95188   2.180  37.506   2.845
26960W        W95189  33.130   1.290  10.971
26961W        W95190   0.186   3.882  11.130
26962W        W95191  14.168  38.032   1.926
26963W        W95192   9.083  23.549  12.591
26964W        W95193  16.639   9.465  14.327
26965W        W95194  15.633   4.462  13.993
26966W        W95195  21.185  37.092  14.707
26967W        W95196  26.970  10.920   4.098
26968W        W95197  41.971  18.243   5.004
26969W        W95198  19.770  13.624   0.747
26970W        W95199  15.144   5.781  14.990
26971W        W95200   7.551  34.960  12.542
26972W        W95201  32.288  26.954   0.913
26973W        W95202   0.200  34.345   4.213
26974W        W95203   7.764  42.047  11.211
26975W        W95204   7.108  12.543  13.410
26976W        W95205  10.507  44.890  14.371
26977W        W95206   7.909  33.282   0.303
26978W        W95207   3.884  36.599  13.446
26979W        W95208  38.007  15.289   2.097
26980W        W95209  40.778  23.714   2.368
26981W        W95210   7.700  11.352  11.612
26982W        W95211   6.805  23.503   1.878
26983W        W95212  11.628   1.482  12.096
26984W        W95213  37.436  25.569  14.420
26985W        W95214  26.136  40.538  12.180
26986W        W95215   0.846  23.066   2.661
26987W        W95216  22.995  16.656   4.030
26988W        W95217   1.071  36.765  13.614
26989W        W95218  32.227  12.298   3.623
26990W        W95219  31.821  21.223  11.222
26991W        W95220   4.500  16.732  10.519
26992W        W95221  19.660   9.650  10.710
26993W        W95222  30.744  15.742   1.858
26994W        W95223  24.925  31.027   2.323
26995W        W95224  32.517  17.916   4.614
26996W        W95225  38.554  33.785   4.594
26997W        W95226  12.455   6.849   3.485
26998W        W95227  29.494  34.465  14.990
26999W        W95228  44.477  20.952   3.271
27000W        W95229  37.770  35.615  12.932
27001W        W95230  22.976  10.974  12.655
27002W        W95231  10.646   2.001   0.739
27003W        W95232  30.215  33.382   0.891
27004W        W95233  33.395  22.708   1.147
27005W        W95234  32.906  31.971   2.836
27006W        W95235   2.650  35.748  11.981
27007W        W95236  31.616  40.856  13.543
27008W        W95237   5.189  13.634  11.790
27009W        W95238  33.658   7.608  12.804
27010W        W95239  19.041   7.651  12.814
27011W        W95240   5.284  10.962   0.399
27012W        W95241  13.111  25.010   2.574
27013W        W95242  34.530  26.716   2.394
27014W        W95243  41.135  16.060  13.783
27015W        W95244  30.895   0.450  13.867
27016W        W95245   6.608  42.879  12.494
27017W        W95246  22.177   2.370   0.298
27018W        W95247  16.584   1.138   1.345
27019W        W95248  35.557  41.935  12.069
27020W        W95249  11.689   6.735  12.681
27021W        W95250  30.110  33.911  14.025
27022W        W95251  17.822   8.394   3.470
27023W        W95252   9.770  44.973   1.154
27024W        W95253  40.822  18.809   0.836
27025W        W95254  11.966  19.296   1.990
27026W        W95255  29.168  36.347  13.506
27027W        W95256  28.367   9.323  10.650
27028W        W95257  33.309   3.369  11.995
27029W        W95258  16.850  30.439   4.669
27030W        W95259   5.862  14.714  10.640
27031W        W95260  37.983   2.249   0.192
27032W        W95261   0.257  25.301  13.984
27033W        W95262   8.829   6.158  11.138
27034W        W95263  43.293  42.024   1.946
27035W        W95264   6.481  16.183   0.889
27036W        W95265  41.618  24.263  13.904
27037W        W95266   5.399  39.533  11.142
27038W        W95267  22.106  35.930   2.856
27039W        W95268  40.255   4.887  11.215
27040W        W95269  43.797  41.878  12.364
27041W        W95270  20.025  33.992   0.708
27042W        W95271  10.940  13.429  11.114
27043W        W95272  24.032   4.809   2.818
27044W        W95273   8.183   1.896  11.164
27045W        W95274   7.736  44.430   0.373
27046W        W95275   2.835  40.678   0.034
27047W        W95276  23.103   0.424   4.291
27048W        W95277  19.561  39.361  11.134
27049W        W95278  37.346  43.972  10.342
27050W        W95279  23.110  29.459  11.152
27051W        W95280  14.255   4.362   1.013
27052W        W95281  36.901  29.411   4.149
27053W        W95282  26.628  42.754   3.765
27054W        W95283  35.133  20.212   0.210
27055W        W95284  14.187   6.209   0.878
27056W        W95285  28.067  38.486   1.642
27057W        W95286  30.998  38.587  13.813
27058W        W95287   1.562  24.890   4.977
27059W        W95288  33.655  14.596  13.880
27060W        W95289  36.611  27.411  11.612
27061W        W95290  34.493  25.536   1.387
27062W        W95291  39.913  30.320  14.248
27063W        W95292   2.022  38.326   4.155
27064W        W95293  32.107   5.430   3.643
27065W        W95294  26.158  35.175   0.314
27066W        W95295   5.358  23.259   1.466
27067W        W95296  24.153  36.611   2.398
27068W        W95297  10.165  11.910   0.985
27069W        W95298  11.199  39.494  12.263
27070W        W95299  24.405  34.776   0.900
27071W        W95300  11.146   2.968  13.064
27072W        W95301   4.785  36.371  13.358
27073W        W95302  25.451  33.517   1.209
27074W        W95303   8.388  31.580   0.413
27075W        W95304  21.573  34.462  12.933
27076W        W95305  19.202  44.078  11.264
27077W        W95306  44.777  33.487   1.412
27078W        W95307  43.418  14.190   4.565
27079W        W95308  38.526  41.622   4.779
27080W        W95309  15.765   3.412  10.771
27081W        W95310  43.022   7.169  14.486
27082W        W95311  20.404  12.840  14.721
27083W        W95312  20.145  27.190  10.690
27084W        W95313  41.781   6.267  11.124
27085W        W95314   1.440  16.267  13.307
27086W        W95315  35.967  15.573  10.557
27087W        W95316  43.258  11.060  12.862
27088W        W95317  32.136   7.934  11.158
27089W        W95318  18.752  28.944   3.568
27090W        W95319  24.736  37.287   2.408
27091W        W95320  41.853  27.460  14.414
27092W        W95321  39.911  27.851   3.775
27093W        W95322  27.950  11.778   0.436
27094W        W95323  36.001  11.747  13.257
27095W        W95324  36.404  32.491  13.303
27096W        W95325  24.732  42.736  13.825
27097W        W95326  31.049   6.326  11.930
27098W        W95327   9.423  18.109  11.714
27099W        W95328  38.625  19.419  12.538
27100W        W95329  31.597  13.765   3.714
27101W        W95330  12.351  32.104   2.785
27102W        W95331  17.635  44.805   0.803
27103W        W95332  10.486   5.839   3.353
27104W        W95333  18.546   8.721   1.947
27105W        W95334  23.482  36.998  12.150
27106W        W95335  43.015  12.216   2.893
27107W        W95336  28.204  37.846  14.933
27108W        W95337  25.904   2.000  14.939
27109W        W95338  41.275  17.043   2.745
27110W        W95339  22.075  41.031   2.822
27111W        W95340   3.329  28.303   4.983
27112W        W95341  44.274   6.345   3.303
27113W        W95342  29.895  17.815  14.919
27114W        W95343  37.531  20.723  13.525
27115W        W95344  33.668   6.075   1.396
27116W        W95345   9.316   2.838   2.669
27117W        W95346   7.383  23.974   4.057
27118W        W95347   9.706   5.301   4.363
27119W        W95348  30.896   3.418   1.802
27120W        W95349  22.599  12.774   2.421
27121W        W95350  42.553  22.252  13.493
27122W        W95351  19.112  26.519  10.973
27123W        W95352  37.338  22.353   4.968
27124W        W95353  25.491  10.637  10.222
27125W        W95354  14.317  13.761  13.392
27126W        W95355  43.799   2.215   0.497
27127W        W95356  27.188  17.294  11.516
27128W        W95357  37.956  17.449   1.404
27129W        W95358  12.231  31.209   1.665
27130W        W95359  43.942  24.859   0.493
27131W        W95360  38.880   1.396   0.825
27132W        W95361   5.491   3.288  13.116
27133W        W95362  35.404  30.451  10.764
27134W        W95363  13.021   9.902   2.634
27135W        W95364   7.003  40.738  11.238
27136W        W95365  10.668  24.260   4.800
27137W        W95366  20.284  15.153   4.537
27138W        W95367  44.893  27.967  11.507
27139W        W95368  43.265  20.258  11.902
27140W        W95369   7.979  40.171   2.031
27141W        W95370   3.601  26.881   2.650
27142W        W95371  30.670   2.201  13.402
27143W        W95372  31.955  14.231   2.097
27144W        W95373  29.152  11.756   3.859
27145W        W95374   9.940  38.068  12.134
27146W        W95375   4.627  36.613   3.161
27147W        W95376  20.173  25.910  14.142
27148W        W95377  37.096   7.912  12.383
27149W        W95378  17.323  33.142  12.934
27150W        W95379  40.335  17.306   2.384
27151W        W95380  15.922  38.940   1.489
27152W        W95381  36.106   8.347   4.781
27153W        W95382  11.593  10.526   0.291
27154W        W95383  42.238   1.423  12.457
27155W        W95384  34.288  36.655  13.018
27156W        W95385  27.131   7.914   1.189
27157W        W95386  36.083  12.690   4.371
27158W        W95387  37.415  18.385  11.449
27159W        W95388  12.109   6.447  14.411
27160W        W95389  31.259  12.845  12.280
27161W        W95390  44.456   8.845   0.504
27162W        W95391   6.393   2.425   0.524
27163W        W95392  40.579   1.481   1.011
27164W        W95393  41.529   2.753   0.857
27165W        W95394   4.931  39.328   3.183
27166W        W95395  37.178  30.104   2.863
27167W        W95396   6.250  32.127   0.422
27168W        W95397  43.101  23.391  14.537
27169W        W95398  31.464   8.395   1.771
27170W        W95399  11.734   6.383  10.896
27171W        W95400  23.929  24.978  12.574
27172W        W95401  11.331   8.755  13.857
27173W        W95402  12.693  27.162  11.729
27174W        W95403  38.825  21.601   1.364
27175W        W95404  42.402  33.450  12.367
27176W        W95405  35.876  35.616   4.141
27177W        W95406   7.895  43.704   1.455
27178W        W95407  22.073   8.839   3.253
27179W        W95408  35.632  10.143  12.908
27180W        W95409  19.068  42.540  11.285
27181W        W95410  37.967  13.525   2.585
27182W        W95411   3.804  23.001   4.751
27183W        W95412   0.325  40.510   4.453
27184W        W95413   6.798  39.501  11.186
27185W        W95414  32.910  14.056   4.380
27186W        W95415  19.315  34.356   2.845
27187W        W95416  41.986  32.489  13.437
27188W        W95417  35.297  34.679  14.999
27189W        W95418  37.438  10.089  14.216
27190W        W95419  34.521  12.813   0.406
27191W        W95420  34.382  29.379  13.559
27192W        W95421  11.287  28.639   4.730
27193W        W95422  27.158   9.680   1.453
27194W        W95423  33.633  39.468   3.830
27195W        W95424  14.457  22.112  10.382
27196W        W95425  33.349  36.554   3.318
27197W        W95426  36.393  37.619   5.092
27198W        W95427  44.805   6.905  13.334
27199W        W95428  10.346   3.695  12.671
27200W        W95429  30.921  31.406  13.313
27201W        W95430  11.677  23.133  10.592
27202W        W95431  20.214  15.683   4.572
27203W        W95432  31.398  16.634   1.919
27204W        W95433  35.521  40.914  13.450
27205W        W95434   7.370  35.965   3.211
27206W        W95435  15.563  24.944   2.423
27207W        W95436   3.437  39.316  13.424
27208W        W95437  18.140  18.196  13.276
27209W        W95438  19.721  17.728  14.138
27210W        W95439  23.216   3.367  14.368
27211W        W95440  22.704  23.651  13.410
27212W        W95441  20.792   2.486  12.103
27213W        W95442  27.533  29.531   0.769
27214W        W95443  31.540  15.252  14.804
27215W        W95444  41.586  10.712   0.388
27216W        W95445   4.807  29.999   4.631
27217W        W95446   2.886  33.932  12.067
27218W        W95447  29.137  39.069  12.519
27219W        W95448  15.725  35.403  12.703
27220W        W95449  28.831  33.151   9.976
27221W        W95450  30.914  43.798   2.650
27222W        W95451  21.071   8.467   2.736
27223W        W95452  36.329   9.799   3.745
27224W        W95453  21.688   4.175   1.195
27225W        W95454  10.242  18.657   1.362
27226W        W95455  33.961  23.110  14.527
27227W        W95456  43.158  14.286  13.480
27228W        W95457  23.573  29.629  10.984
27229W        W95458  41.064  18.677  10.753
27230W        W95459  12.338  37.884   0.772
27231W        W95460   5.292  32.620  10.926
27232W        W95461  34.343  37.473   1.442
27233W        W95462  18.029  15.552  14.447
27234W        W95463  29.048  32.445   4.826
27235W        W95464   5.751  42.076  12.309
27236W        W95465  29.554  43.209  14.010
27237W        W95466  25.992  10.695  10.269
27238W        W95467  24.399  42.485   4.167
27239W        W95468  12.807   6.669  12.083
27240W        W95469  28.810  28.765   1.173
27241W        W95470   2.296   5.206  11.428
27242W        W95471  31.076   3.882  12.118
27243W        W95472  28.372  26.116   2.885
27244W        W95473   3.232  20.839  10.845
27245W        W95474   1.395   7.322  10.655
27246W        W95475  44.404  23.192  12.973
27247W        W95476  40.099  12.930   1.902
27248W        W95477  15.117  28.559  12.876
27249W        W95478  15.811  29.034  13.824
27250W        W95479  37.332  25.171   1.683
27251W        W95480  30.117  42.941  10.723
27252W        W95481   0.707   9.502  13.943
27253W        W95482  40.933  14.166   1.291
27254W        W95483   0.265  26.150  12.419
27255W        W95484  11.316  39.284  11.382
27256W        W95485  32.453  27.410   2.323
27257W        W95486  28.369  37.776  12.607
27258W        W95487  33.326  39.422   2.783
27259W        W95488   4.416  22.710  13.791
27260W        W95489  43.935  35.653   3.848
27261W        W95490   5.652   7.757   0.935
27262W        W95491  44.757  20.080   3.198
27263W        W95492  17.827  44.233  11.711
27264W        W95493  44.686  20.619   4.885
27265W        W95494   4.380  21.091   3.579
27266W        W95495  21.242  42.782   0.376
27267W        W95496  37.434  25.280   4.033
27268W        W95497  26.956  44.020  13.803
27269W        W95498  25.593  11.156   1.798
27270W        W95499  20.591  14.738  11.085
27271W        W95500   1.800  24.731   1.321
27272W        W95501   1.344  25.576   4.590
27273W        W95502   0.283  30.308  11.960
27274W        W95503  20.267   7.696  12.092
27275W        W95504   2.246  20.477  11.091
27276W        W95505   3.930  14.463  13.967
27277W        W95506   8.679  30.650  11.445
27278W        W95507  33.852  19.504   2.868
27279W        W95508  10.882   2.870   0.254
27280W        W95509  40.306  25.650   4.584
27281W        W95510  13.365  10.867  12.107
27282W        W95511  18.710  11.176   3.269
27283W        W95512  32.645  25.522  11.026
27284W        W95513  28.581  24.298   1.285
27285W        W95514   3.763  24.942  11.961
27286W        W95515  39.967   6.435  10.264
27287W        W95516  19.038  32.383   2.828
27288W        W95517  13.331   0.950  11.918
27289W        W95518   4.852  44.337   2.592
27290W        W95519  23.287  36.057  12.578
27291W        W95520  26.242  32.116   2.863
27292W        W95521  33.412   8.667  13.547
27293W        W95522  14.759  40.043   0.761
27294W        W95523  21.555   6.729   1.823
27295W        W95524  15.177  39.758   0.601
27296W        W95525  39.974  29.253  12.595
27297W        W95526  19.447   1.744   4.478
27298W        W95527  25.127  37.975  13.764
27299W        W95528  13.311  37.808   1.045
27300W        W95529  37.170   5.778  13.505
27301W        W95530  26.551  39.737   3.826
27302W        W95531  43.859   1.516   4.180
27303W        W95532  42.186  30.118  12.809
27304W        W95533  31.548  24.923  13.516
27305W        W95534  44.010  30.493   2.998
27306W        W95535  19.081  22.741  14.234
27307W        W95536  15.812  22.189  10.594
27308W        W95537   8.070  38.052   4.850
27309W        W95538  17.452   6.933   0.876
27310W        W95539  39.381  28.420  14.845
27311W        W95540  28.142  36.914  14.133
27312W        W95541  30.601  44.865   0.274
27313W        W95542  43.631  34.346  11.118
27314W        W95543  10.115  35.595   4.335
27315W        W95544  41.780   7.172   2.091
27316W        W95545  30.989  37.075   2.153
27317W        W95546  21.801  32.190   0.673
27318W        W95547   9.725   3.777   4.667
27319W        W95548  21.303  35.164  12.799
27320W        W95549  36.106  34.751  10.556
27321W        W95550  18.597  13.935  13.813
27322W        W95551  23.803  17.053  13.747
27323W        W95552  13.140  41.865  12.627
27324W        W95553  20.129  24.270  13.463
27325W        W95554  39.470  15.643   4.615
27326W        W95555  37.901  38.057  13.927
27327W        W95556  35.532  42.842   1.443
27328W        W95557  32.520  31.347   0.704
27329W        W95558   2.296   8.403  10.515
27330W        W95559  25.619   7.814  10.944
27331W        W95560  12.083  27.987   3.975
27332W        W95561  22.306  42.975   1.342
27333W        W95562  38.056   9.766   3.344
27334W        W95563  11.387  30.398  12.020
27335W        W95564  35.510  11.080  12.897
27336W        W95565  38.930   9.928   3.333
27337W        W95566  12.374  31.354   2.151
27338W        W95567  22.532   4.667   3.716
27339W        W95568   0.822  33.375  13.460
27340W        W95569  17.994  37.787   2.379
27341W        W95570  44.012  36.546  10.630
27342W        W95571  18.219   7.758   3.579
27343W        W95572  28.886  12.123  13.855
27344W        W95573  18.723  13.123   4.030
27345W        W95574  28.889  11.658   0.371
27346W        W95575  20.106   2.258   2.793
27347W        W95576  24.228  36.894   2.854
27348W        W95577  17.246  38.325  10.726
27349W        W95578   8.474  28.121   1.777
27350W        W95579  37.042   9.321  14.492
27351W        W95580  10.434   6.501   1.885
27352W        W95581  34.601   4.736   2.192
27353W        W95582  43.553  11.262  13.479
27354W        W95583  22.618  37.048   1.750
27355W        W95584  37.909  38.386  11.723
27356W        W95585   5.329  19.687  13.266
27357W        W95586   2.713   1.941  12.912
27358W        W95587  22.190  16.558   2.770
27359W        W95588  35.095  27.112   2.756
27360W        W95589  25.558  34.362  11.129
27361W        W95590   7.135   9.325   0.364
27362W        W95591  14.537  42.254   3.837
27363W        W95592  19.109  16.097  13.246
27364W        W95593  38.917   5.318   2.455
27365W        W95594  42.805  13.109  13.848
27366W        W95595  37.338  32.591  12.818
27367W        W95596  30.403  22.145  14.791
27368W        W95597  22.579  40.350  13.168
27369W        W95598   6.397  10.150   3.297
27370W        W95599  10.319  20.236  11.323
27371W        W95600  18.533   0.241   0.904
27372W        W95601  22.883  40.490   2.283
27373W        W95602  14.296  35.465  10.607
27374W        W95603   7.901   3.815  14.787
27375W        W95604  31.930  42.303  12.962
27376W        W95605  10.877  37.984   0.917
27377W        W95606   6.019  16.556   2.844
27378W        W95607   4.655  20.987  12.426
27379W        W95608  17.339  10.253  13.484
27380W        W95609  38.549  43.566  12.092
27381W        W95610  36.566  28.082   0.386
27382W        W95611   1.669  33.578   1.172
27383W        W95612  16.546  32.906   5.533
27384W        W95613   0.696  37.030   4.264
27385W        W95614  39.937  28.364   3.750
27386W        W95615   0.448  33.034  12.581
27387W        W95616  30.937  37.128  10.446
27388W        W95617   1.141   9.432   4.761
27389W        W95618  35.651  19.127  11.130
27390W        W95619  15.093  21.600   1.751
27391W        W95620   1.009  28.581   2.731
27392W        W95621  32.082  40.946   4.542
27393W        W95622  35.559  12.778   2.796
27394W        W95623  29.131  34.962  12.804
27395W        W95624  30.173   9.699  13.829
27396W        W95625   3.454  30.654  14.076
27397W        W95626  13.976   7.426   5.215
27398W        W95627  21.005   3.718  13.970
27399W        W95628   4.011  29.467  14.041
27400W        W95629  36.464  13.579  10.988
27401W        W95630   2.909   4.662   2.886
27402W        W95631  33.971  20.559   4.663
27403W        W95632  27.622  30.931  12.505
27404W        W95633  12.769  27.689   2.058
27405W        W95634  41.516  31.607  11.849
27406W        W95635  33.467   9.053   0.584
27407W        W95636  27.180   9.372   2.048
27408W        W95637  10.132  17.368   3.046
27409W        W95638  28.475   8.337   4.722
27410W        W95639  39.993  43.859   1.696
27411W        W95640  11.382   2.698   0.205
27412W        W95641  13.336   7.444  13.126
27413W        W95642  36.443  17.980   4.791
27414W        W95643  14.572  43.869  11.607
27415W        W95644  15.318  41.010  11.343
27416W        W95645  20.157  30.009   4.627
27417W        W95646  43.338  38.510  14.485
27418W        W95647   9.113  15.637   3.585
27419W        W95648  14.938  31.535   0.507
27420W        W95649  25.963  20.788  10.402
27421W        W95650   8.313  37.926  11.106
27422W        W95651  30.835  15.692  11.050
27423W        W95652  41.002  31.439   2.772
27424W        W95653  39.305  28.459  12.487
27425W        W95654   4.418  32.198   2.672
27426W        W95655  41.979  30.515  13.576
27427W        W95656   4.354  35.041  10.526
27428W        W95657  41.411   7.360   0.269
27429W        W95658  13.238  24.607   3.348
27430W        W95659  30.373   6.230  11.137
27431W        W95660   8.723  12.889   0.692
27432W        W95661   2.756  28.473  11.338
27433W        W95662  36.081  25.960   1.876
27434W        W95663  29.915   5.406  12.007
27435W        W95664  10.591   7.732  11.382
27436W        W95665  25.061  32.719  13.577
27437W        W95666  44.381  31.957   0.120
27438W        W95667   1.479  32.047   2.830
27439W        W95668   0.070  15.572  12.565
27440W        W95669  13.722  11.588  12.453
27441W        W95670  27.596  17.252  10.375
27442W        W95671  42.094  39.275  11.153
27443W        W95672  44.252  36.094  10.692
27444W        W95673   5.227  27.531  14.429
27445W        W95674  11.056   2.241  13.258
27446W        W95675  44.181  14.607   4.726
27447W        W95676  21.049  43.580  13.397
27448W        W95677  16.805  36.154   3.607
27449W        W95678  33.447  15.321  13.514
27450W        W95679   3.811  17.852   4.845
27451W        W95680  12.599  24.192  13.596
27452W        W95681  11.712   7.363   9.772
27453W        W95682   5.123  39.808   3.295
27454W        W95683   6.328  39.573   0.746
27455W        W95684  32.089   4.890  13.078
27456W        W95685   1.931   6.498   2.842
27457W        W95686  41.085  28.129  11.156
27458W        W95687  43.052  21.675  11.940
27459W        W95688  28.472  39.471   3.173
27460W        W95689  30.667   2.033   0.042
27461W        W95690  38.477  19.033   2.828
27462W        W95691   3.541   0.482   2.458
27463W        W95692  16.164  13.616   1.698
27464W        W95693  33.106  25.649  11.799
27465W        W95694  16.080  30.840   3.370
27466W        W95695   5.872   7.943  11.798
27467W        W95696  40.436  38.849  10.666
27468W        W95697  39.906  23.215  12.349
27469W        W95698  26.956   7.425   1.256
27470W        W95699   9.916  34.874   2.203
27471W        W95700  14.728  13.961   5.107
27472W        W95701  11.466  43.505   1.729
27473W        W95702  18.670  11.325  12.055
27474W        W95703  34.831  35.562   2.814
27475W        W95704  26.572  22.014   3.293
27476W        W95705  26.729  23.728  12.591
27477W        W95706  43.315  21.531  11.520
27478W        W95707  40.465   6.667   2.344
27479W        W95708  41.044   2.469   4.400
27480W        W95709  21.367  17.275   5.244
27481W        W95710  34.151  39.126   2.902
27482W        W95711   1.911  18.612   2.313
27483W        W95712  22.029  21.712  12.508
27484W        W95713  28.910  23.704  14.514
27485W        W95714  43.878   4.766  10.539
27486W        W95715   8.202  20.584  11.617
27487W        W95716   0.362  41.448   1.469
27488W        W95717  16.804  27.613  11.993
27489W        W95718  23.751   8.923   3.637
27490W        W95719   1.219   8.895  11.641
27491W        W95720  11.710  33.059  11.161
27492W        W95721  23.209  29.379  13.660
27493W        W95722   4.483  17.856   3.625
27494W        W95723  41.561   5.130  11.661
27495W        W95724  17.609   0.969   3.434
27496W        W95725  34.853   2.280  13.406
27497W        W95726  41.395  26.503   4.109
27498W        W95727  37.579  18.177   0.800
27499W        W95728  22.537  12.816   0.899
27500W        W95729  41.943  30.032  12.324
27501W        W95730   4.824   6.454  14.918
27502W        W95731   7.784  31.872  10.712
27503W        W95732  13.187  31.072   1.684
27504W        W95733  16.270   2.249   1.708
27505W        W95734  32.485  11.361   3.777
27506W        W95735   0.882   4.734  14.811
27507W        W95736  32.688   3.442   1.374
27508W        W95737   2.231   1.255   3.697
27509W        W95738  36.461  38.504  12.442
27510W        W95739  24.715  11.047  10.177
27511W        W95740   9.382  32.973   1.400
27512W        W95741  43.432  43.040   0.880
27513W        W95742  43.531  27.466  12.931
27514W        W95743  24.554  37.867   2.566
27515W        W95744  12.167   4.910   0.283
27516W        W95745   9.734  17.141   1.824
27517W        W95746  42.155  35.632  11.219
27518W        W95747   6.691  36.140  12.073
27519W        W95748  44.076  38.468  13.343
27520W        W95749   3.845  17.020  11.991
27521W        W95750  38.367  29.521  14.904
27522W        W95751  11.264  14.616   2.719
27523W        W95752   4.894  18.463   1.370
27524W        W95753  29.380  43.564   3.344
27525W        W95754  40.546  16.379   3.998
27526W        W95755  19.033  28.463  13.928
27527W        W95756   4.195   9.205  14.944
27528W        W95757   6.398  30.658   2.251
27529W        W95758   9.669  10.880  13.396
27530W        W95759  28.534  19.192   4.603
27531W        W95760  13.304  27.925   1.349
27532W        W95761  10.825  22.466  12.621
27533W        W95762   8.122  12.534  11.151
27534W        W95763  11.279  18.341   3.642
27535W        W95764  44.084  23.453   3.015
27536W        W95765  40.325  10.776  10.712
27537W        W95766   9.068  21.428   2.345
27538W        W95767  12.644  32.145  11.190
27539W        W95768  42.289  24.151  12.552
27540W        W95769   5.693   3.756  13.401
27541W        W95770  35.142  26.280   3.042
27542W        W95771   0.026   3.780   0.821
27543W        W95772  37.201  34.301   2.680
27544W        W95773  26.947  40.464   0.852
27545W        W95774  37.981  29.517  13.791
27546W        W95775   5.662  37.436  13.816
27547W        W95776  11.742  33.910  10.339
27548W        W95777  25.298  32.489   1.060
27549W        W95778   0.755  35.780   1.368
27550W        W95779  19.615  26.692  10.079
27551W        W95780  33.155  21.983  12.960
27552W        W95781   7.541  43.277  14.959
27553W        W95782  10.758  17.279  10.873
27554W        W95783  42.504  25.826  12.023
27555W        W95784  35.070  23.415   4.057
27556W        W95785  40.768  20.253   0.204
27557W        W95786  42.129  44.474  14.717
27558W        W95787  26.392  17.214  12.523
27559W        W95788   8.616  26.914   2.192
27560W        W95789  26.426  15.743   1.846
27561W        W95790  23.957  35.385  10.737
27562W        W95791   7.696  23.722  14.322
27563W        W95792  37.238  24.478  10.724
27564W        W95793  10.994  30.114   2.759
27565W        W95794  22.749  10.176   1.266
27566W        W95795  14.422  23.801  11.350
27567W        W95796  35.951  16.313   1.772
27568W        W95797  11.418  35.141  14.105
27569W        W95798  30.202  32.135  10.234
27570W        W95799  14.786   3.061  13.801
27571W        W95800  26.126  18.587   2.918
27572W        W95801  13.498  17.545   2.203
27573W        W95802  38.514  30.552   2.445
27574W        W95803  35.927  39.577  14.392
27575W        W95804  21.309  17.034  10.568
27576W        W95805   2.808  33.117  10.642
27577W        W95806   8.278   3.591   0.088
27578W        W95807   3.830  21.679   4.566
27579W        W95808  17.999  12.389   3.556
27580W        W95809  31.004   3.457   3.601
27581W        W95810  43.578  38.154   1.098
27582W        W95811  18.033  18.687  13.462
27583W        W95812  24.752  34.588   1.817
27584W        W95813   9.818  42.566  13.904
27585W        W95814  27.930  18.614   0.423
27586W        W95815   0.228  21.512   1.114
27587W        W95816  12.659  21.937  14.502
27588W        W95817   7.322  13.636  11.285
27589W        W95818   2.395  24.142   0.495
27590W        W95819  21.400  22.699   1.323
27591W        W95820  14.834   8.823   1.798
27592W        W95821   0.539  39.444  13.574
27593W        W95822  14.597  25.835  13.876
27594W        W95823  25.424   9.993   2.254
27595W        W95824  26.247  41.143   1.930
27596W        W95825  44.425   4.838  13.078
27597W        W95826  12.712  11.342   4.394
27598W        W95827  36.128  22.087   0.214
27599W        W95828  39.081  13.675  14.325
27600W        W95829  11.731   3.094   4.994
27601W        W95830  26.571  31.602   3.695
27602W        W95831  25.143  43.700  12.527
27603W        W95832  40.346  35.965   3.593
27604W        W95833  27.591  21.255   4.406
27605W        W95834  16.771  44.421   2.573
27606W        W95835   9.492   7.220  10.876
27607W        W95836  29.433  17.258  14.486
27608W        W95837  14.636   3.246   2.879
27609W        W95838  28.694   2.394  14.529
27610W        W95839   0.015  29.906  11.652
27611W        W95840   1.469  39.821   2.125
27612W        W95841  23.456  30.604   0.796
27613W        W95842   2.156  17.814   4.551
27614W        W95843  27.973  24.902  11.799
27615W        W95844  17.803  37.323   3.764
27616W        W95845  27.922  34.767   0.976
27617W        W95846  12.471   8.160   2.802
27618W        W95847  18.620  18.793   3.691
27619W        W95848  40.528   5.045   2.864
27620W        W95849  22.157   4.827  12.480
27621W        W95850  25.621  33.004  10.069
27622W        W95851  22.278  27.130  11.701
27623W        W95852  41.558  33.133   3.626
27624W        W95853  15.102  41.434   2.718
27625W        W95854  10.051  23.853   3.198
27626W        W95855  12.378  39.911   0.299
27627W        W95856   3.756  14.344   4.582
27628W        W95857  31.025  37.537  13.832
27629W        W95858  21.252   9.344   2.822
27630W        W95859  43.489   9.592   0.863
27631W        W95860  35.850  22.655   4.688
27632W        W95861  34.348  31.486  11.492
27633W        W95862  34.119  16.050   1.819
27634W        W95863   2.410  30.945   1.907
27635W        W95864  38.524  21.852   1.844
27636W        W95865  42.592  41.410   4.126
27637W        W95866  37.827   3.836   3.856
27638W        W95867  29.937  41.285   0.280
27639W        W95868  14.069  22.197  14.416
27640W        W95869  33.324  26.178  10.460
27641W        W95870   7.491   5.301  11.145
27642W        W95871  23.986   1.179   2.753
27643W        W95872  22.629  12.614  10.706
27644W        W95873   7.740  31.078  14.347
27645W        W95874   4.695  23.216   2.589
27646W        W95875   6.779   4.907   4.901
27647W        W95876  23.711   8.443  14.473
27648W        W95877  21.665  17.160  11.089
27649W        W95878   2.236  34.947  11.166
27650W        W95879  23.943  34.858   0.683
27651W        W95880   3.836  35.504  14.811
27652W        W95881  36.425  39.828   2.668
27653W        W95882  17.088  28.153  11.575
27654W        W95883  13.838  23.655  12.978
27655W        W95884  38.029  13.809   1.652
27656W        W95885  16.786  11.776   2.204
27657W        W95886  11.837  18.119   4.127
27658W        W95887  18.017   3.250   0.251
27659W        W95888  12.705  38.006   3.790
27660W        W95889  37.491  39.964  14.615
27661W        W95890  11.823  43.832   4.101
27662W        W95891  15.224  38.981  13.319
27663W        W95892  10.956  11.107  13.076
27664W        W95893  12.601  26.186   4.148
27665W        W95894   6.970  23.036   2.049
27666W        W95895  23.953   4.242  13.176
27667W        W95896  21.888  14.734  10.635
27668W        W95897  40.827  19.694   0.923
27669W        W95898  36.723  34.164  13.302
27670W        W95899   1.297  37.950   1.455
27671W        W95900   4.043  18.814  11.539
27672W        W95901   7.952  31.321   1.821
27673W        W95902  20.769  27.475  14.237
27674W        W95903  27.816   1.965   4.154
27675W        W95904   2.492  24.125  14.975
27676W        W95905  20.255   4.965  14.947
27677W        W95906  16.247  27.647  12.831
27678W        W95907  29.163  24.987   1.205
27679W        W95908  29.635  18.657   2.219
27680W        W95909  32.453  15.152  12.546
27681W        W95910  24.971  44.933   0.055
27682W        W95911   1.727  18.763   4.514
27683W        W95912  27.868  11.735  14.321
27684W        W95913  15.293   6.792  13.598
27685W        W95914  17.349  39.928  14.943
27686W        W95915   5.730  28.615  13.873
27687W        W95916  22.130  39.372   2.459
27688W        W95917  21.385  23.890  11.043
27689W        W95918  20.115  39.494   1.917
27690W        W95919   8.869  34.486  11.269
27691W        W95920  17.091  33.575   2.236
27692W        W95921   1.963   2.553  10.719
27693W        W95922  14.271  37.772   1.058
27694W        W95923   2.690  27.170  11.093
27695W        W95924  19.516  35.825  13.427
27696W        W95925   0.487  24.654   4.719
27697W        W95926  20.282  43.927   1.000
27698W        W95927  21.219   7.154   2.298
27699W        W95928  36.604  11.832   0.885
27700W        W95929  11.246  33.937   2.266
27701W        W95930   7.701  12.693   2.772
27702W        W95931  40.420  18.964   5.070
27703W        W95932  42.964   5.329   0.271
27704W        W95933  29.716  23.159   4.594
27705W        W95934  43.422  37.568   1.672
27706W        W95935  15.260  35.634  12.102
27707W        W95936  12.238  40.804  13.468
27708W        W95937  40.301  12.329   1.686
27709W        W95938  35.132  27.143   4.088
27710W        W95939  14.267  31.688  13.584
27711W        W95940  24.175  27.097   3.581
27712W        W95941   7.505  28.924   4.746
27713W        W95942  19.529  34.917   0.344
27714W        W95943  29.876  24.620   2.918
27715W        W95944  16.304  14.100  12.001
27716W        W95945  12.616  31.614  10.362
27717W        W95946   1.248   2.457   1.228
27718W        W95947  33.694  41.241   0.142
27719W        W95948  11.048  38.567  13.779
27720W        W95949  42.875  30.534  12.544
27721W        W95950  33.879  31.981   3.850
27722W        W95951   6.939   5.114  13.353
27723W        W95952  33.221  32.174  13.605
27724W        W95953   6.357  22.261  13.129
27725W        W95954  35.884  36.057   0.732
27726W        W95955  29.519  43.105   0.436
27727W        W95956  38.911  12.873   0.714
27728W        W95957   5.036  27.097  11.646
27729W        W95958  40.556   9.841   0.368
27730W        W95959  27.023  25.162  10.883
27731W        W95960   1.347  35.531  11.125
27732W        W95961  31.601  16.271  11.208
27733W        W95962  29.979  36.504   4.263
27734W        W95963  23.336   4.887  12.709
27735W        W95964  13.706   4.740  12.220
27736W        W95965  35.684  40.954  14.273
27737W        W95966  38.418  24.922  13.822
27738W        W95967  19.941  28.076   3.128
27739W        W95968  18.410  36.082   2.659
27740W        W95969  28.029  22.198   4.154
27741W        W95970   1.520  16.145  11.968
27742W        W95971  14.790  36.476  14.035
27743W        W95972  15.057   8.596  11.043
27744W        W95973  38.371   0.434  14.973
27745W        W95974  37.895  28.916  11.576
27746W        W95975   7.866   6.657   1.986
27747W        W95976  12.621   9.587  14.318
27748W        W95977  11.322  23.866   0.740
27749W        W95978  36.601  28.407  10.788
27750W        W95979  38.765  17.652   3.417
27751W        W95980  41.794  20.751  11.602
27752W        W95981  19.003  42.262  11.710
27753W        W95982   5.641  25.120  12.393
27754W        W95983  13.321  24.725   0.051
27755W        W95984  25.963  30.573   0.858
27756W        W95985  36.556  27.061   4.551
27757W        W95986  21.993  18.104   2.254
27758W        W95987  22.210   1.257   2.391
27759W        W95988  15.244   9.897   2.775
27760W        W95989  43.393   7.256  13.056
27761W        W95990  29.359   2.908  11.523
27762W        W95991   9.756  17.023   3.851
27763W        W95992  20.718  38.396  10.517
27764W        W95993  32.342  44.976  14.003
27765W        W95994  35.516  31.506   4.575
27766W        W95995  13.065  24.530   2.347
27767W        W95996  32.363  36.123  13.863
27768W        W95997  37.866  18.497  12.169
27769W        W95998  31.773   7.913  13.369
27770W        W95999  31.506   3.926   2.343
27771W        W96000   3.677  14.276  12.888
27772W        W96001  31.084  33.166  13.214
27773W        W96002  31.381  37.355   0.568
27774W        W96003  31.497  21.454   2.834
27775W        W96004  27.705  34.442   1.867
27776W        W96005   2.613  40.201  13.667
27777W        W96006  42.522  20.046  13.867
27778W        W96007   3.054  12.664  13.979
27779W        W96008  37.971  44.001  13.722
27780W        W96009  38.973  14.374   4.534
27781W        W96010  28.919   1.222   3.789
27782W        W96011   3.317  28.502  14.969
27783W        W96012  30.127  40.831   3.611
27784W        W96013   5.093  34.782  12.353
27785W        W96014   4.920   3.460   1.282
27786W        W96015  12.179  44.219   2.319
27787W        W96016  16.149   3.452   1.356
27788W        W96017  34.177  33.682   0.019
27789W        W96018  31.734  26.623   4.609
27790W        W96019   2.515  41.383  11.125
27791W        W96020   4.441  30.179  11.106
27792W        W96021   3.885  30.425   1.423
27793W        W96022  41.317  37.595  14.003
27794W        W96023  38.930  30.368  11.221
27795W        W96024  17.192  30.613  10.327
27796W        W96025   6.648   0.406  14.934
27797W        W96026  32.162  13.704  14.914
27798W        W96027  36.035  33.989   2.921
27799W        W96028   4.304  18.325  12.840
27800W        W96029  16.994  24.126  14.740
27801W        W96030  44.327  39.955  10.870
27802W        W96031   4.396  24.426   1.899
27803W        W96032  30.574   8.850   2.381
27804W        W96033  35.801   5.888   1.733
27805W        W96034  13.224   3.045  10.775
27806W        W96035  40.787  27.210  12.380
27807W        W96036  39.783  42.385   0.325
27808W        W96037  42.896   0.968   4.827
27809W        W96038  12.389   3.444   2.368
27810W        W96039  42.199  44.527  11.409
27811W        W96040   1.435  39.636  14.314
27812W        W96041  29.189  44.949  12.627
27813W        W96042  38.162  41.275   4.904
27814W        W96043  35.912   2.802  12.873
27815W        W96044  11.253   3.832  12.052
27816W        W96045  20.988   0.229   0.790
27817W        W96046  21.900  27.166   0.759
27818W        W96047  24.490  37.098   1.540
27819W        W96048  27.978  41.941  11.190
27820W        W96049   6.690  10.864  11.005
27821W        W96050  26.982  34.018   2.211
27822W        W96051  41.575  43.359  12.878
27823W        W96052  22.030  40.871   2.315
27824W        W96053   1.001   6.184  13.081
27825W        W96054  40.998   4.699  12.957
27826W        W96055  40.061   9.710   1.964
27827W        W96056   6.376  20.301   1.837
27828W        W96057  35.144  21.108   4.413
27829W        W96058  13.746   0.522  12.508
27830W        W96059   0.433  29.626   4.426
27831W        W96060  13.185  23.890  10.749
27832W        W96061  27.907  12.882   4.528
27833W        W96062  10.165  18.208   4.583
27834W        W96063   4.843  11.581   4.587
27835W        W96064  37.377  17.376  14.389
27836W        W96065   0.435  37.970  13.370
27837W        W96066   0.001  16.631  11.212
27838W        W96067   5.209  17.014  11.557
27839W        W96068  13.919  34.503  13.702
27840W        W96069  30.186   6.463  14.407
27841W        W96070  10.789   2.233  11.585
27842W        W96071  21.968  30.539  11.305
27843W        W96072   4.510  15.844  13.251
27844W        W96073  32.375  12.771   5.195
27845W        W96074  32.425  24.690  10.545
27846W        W96075   0.557  11.844   0.297
27847W        W96076  28.863  28.001   0.281
27848W        W96077   0.020  40.230  12.913
27849W        W96078  33.683  33.408  13.184
27850W        W96079  35.375  26.186   0.826
27851W        W96080  17.060  43.745   4.181
27852W        W96081  28.153   0.350   4.605
27853W        W96082   9.160  40.788  13.880
27854W        W96083   3.263  12.272   0.906
27855W        W96084   7.558  35.651  13.065
27856W        W96085  35.903   1.240   3.829
27857W        W96086  18.661  44.023  12.024
27858W        W96087  42.676  34.774   1.663
27859W        W96088  40.005   6.356  11.036
27860W        W96089  39.368  37.837  11.860
27861W        W96090  43.753  44.222  14.965
27862W        W96091   7.704  25.538   3.775
27863W        W96092  19.969   9.715   2.888
27864W        W96093  22.330  18.618  13.317
27865W        W96094  15.761   7.822   0.649
27866W        W96095  29.536   8.987  11.584
27867W        W96096  21.685  24.592   1.330
27868W        W96097  39.940  11.876  13.838
27869W        W96098  42.005   3.791   1.781
27870W        W96099  35.098  18.247  10.202
27871W        W96100  25.188   8.357  14.542
27872W        W96101  10.430  28.083  14.768
27873W        W96102  15.433  26.335   3.630
27874W        W96103  17.345  20.659   0.500
27875W        W96104  38.645   9.100  12.063
27876W        W96105   9.106  27.791   3.853
27877W        W96106  33.296  17.740  13.338
27878W        W96107   1.297  31.199  11.982
27879W        W96108   7.640  17.349  13.834
27880W        W96109  30.894  39.762  10.303
27881W        W96110  25.838  20.298  11.160
27882W        W96111  29.495  39.633   4.571
27883W        W96112  21.661  22.493   0.932
27884W        W96113  44.017   7.673   1.885
27885W        W96114  17.182  19.313   2.151
27886W        W96115  21.668   3.746   0.265
27887W        W96116  14.666  25.511   1.141
27888W        W96117  30.061  10.777   1.325
27889W        W96118  25.959  30.945   2.147
27890W        W96119  21.583  30.868  14.297
27891W        W96120  31.227  41.584   1.122
27892W        W96121  34.578   0.284   1.397
27893W        W96122  33.041  12.219   3.996
27894W        W96123  27.238  31.751   5.161
27895W        W96124  38.165  35.961  10.298
27896W        W96125   2.055   8.127  12.964
27897W        W96126  37.615   5.260  12.255
27898W        W96127  33.892   9.416  11.568
27899W        W96128  15.236  35.921   1.860
27900W        W96129  19.635   3.113   1.735
27901W        W96130  35.784  32.364  11.944
27902W        W96131   3.498   2.380   4.006
27903W        W96132   7.918  14.529   1.415
27904W        W96133  34.932  11.757  13.613
27905W        W96134  38.680  17.673   2.881
27906W        W96135  27.950   7.413   2.219
27907W        W96136   2.052   7.193   0.691
27908W        W96137   0.766  14.731  14.124
27909W        W96138  12.893  16.274   1.294
27910W        W96139  30.425  19.744   0.930
27911W        W96140  36.695  12.109  11.575
27912W        W96141  21.313  12.169   0.081
27913W        W96142   3.146   9.628  14.014
27914W        W96143  13.223   2.610  14.413
27915W        W96144   6.647  33.134   3.918
27916W        W96145  16.763  17.728   0.736
27917W        W96146   8.173  20.498  12.140
27918W        W96147  26.374  32.348   3.303
27919W        W96148   0.465  13.129  13.477
27920W        W96149  15.756  18.846   0.823
27921W        W96150   1.460   9.363   2.428
27922W        W96151   1.315  20.109   2.987
27923W        W96152  12.387  20.670  13.394
27924W        W96153  35.484   5.305   0.151
27925W        W96154  11.282  27.704  12.331
27926W        W96155   0.340  22.958  12.484
27927W        W96156  19.548  40.121   1.287
27928W        W96157  22.626   5.696   4.535
27929W        W96158  44.713  31.904   0.915
27930W        W96159   5.681   7.027  11.918
27931W        W96160   7.897  43.787  10.755
27932W        W96161  43.413   1.107   4.874
27933W        W96162  21.028  17.248  13.338
27934W        W96163   5.920  20.564  12.087
27935W        W96164  29.451  11.703   0.432
27936W        W96165   0.159  21.251   4.163
27937W        W96166   5.823   9.112  14.086
27938W        W96167  21.966   0.798   2.380
27939W        W96168  20.061  31.464  11.605
27940W        W96169  40.901  28.081   4.338
27941W        W96170  44.941  17.076   0.997
27942W        W96171  31.951   7.703  11.567
27943W        W96172  17.945   2.957   0.770
27944W        W96173  41.971  13.557  12.648
27945W        W96174  29.559  13.374   3.635
27946W        W96175  18.803   2.973   0.556
27947W        W96176  13.237  26.437   1.394
27948W        W96177  43.923   1.694   3.569
27949W        W96178  18.436  12.971  11.017
27950W        W96179  10.442  44.806  12.802
27951W        W96180  17.212  13.888   4.089
27952W        W96181  22.160   3.671   0.456
27953W        W96182  19.818   5.364  10.578
27954W        W96183   5.915  20.409  14.414
27955W        W96184  16.569  29.598   4.643
27956W        W96185  28.953  20.102  12.504
27957W        W96186  31.901  25.626   2.697
27958W        W96187  39.050  40.412  12.932
27959W        W96188  40.325  29.725   1.318
27960W        W96189  10.075   1.957  12.352
27961W        W96190  25.504  39.082   0.748
27962W        W96191   7.227  17.100  10.995
27963W        W96192  38.480   4.750  13.816
27964W        W96193  39.330  37.319   1.129
27965W        W96194  34.922  13.178   3.693
27966W        W96195  32.118  30.979  13.960
27967W        W96196   8.570  13.677   4.132
27968W        W96197  41.457  11.205   2.610
27969W        W96198  37.870  31.025   3.170
27970W        W96199  43.767  44.418   3.178
27971W        W96200   0.508   6.088   4.344
27972W        W96201  32.430  15.042  13.444
27973W        W96202  14.002  41.227  11.710
27974W        W96203  35.114  18.208   3.253
27975W        W96204   1.898  32.311  11.581
27976W        W96205  32.945  19.530   1.836
27977W        W96206  22.132  25.408  11.913
27978W        W96207  30.265  16.324  14.937
27979W        W96208   5.766  26.930   0.766
27980W        W96209  25.455   0.641   0.270
27981W        W96210   9.286  39.735   3.760
27982W        W96211  44.990  10.569   4.067
27983W        W96212  26.323  32.468   9.768
27984W        W96213  44.643  22.751  12.098
27985W        W96214  36.860   2.716  12.449
27986W        W96215   4.747   2.298   1.827
27987W        W96216   9.128   4.343  10.447
27988W        W96217  32.819  22.689  12.055
27989W        W96218   8.800  26.883  12.756
27990W        W96219  17.023   3.744  11.105
27991W        W96220  33.495  10.930  10.763
27992W        W96221  16.107  17.193   3.311
27993W        W96222  32.164  30.614   3.316
27994W        W96223  23.418   2.835  11.913
27995W        W96224  16.495  16.490  12.103
27996W        W96225  22.587  17.738   2.677
27997W        W96226  38.310   8.187   1.827
27998W        W96227  26.133  21.175  11.073
27999W        W96228  29.624   1.660  10.372
28000W        W96229  39.368   1.839   2.327
28001W        W96230  25.002  17.354  12.553
28002W        W96231   3.856  12.748  11.793
28003W        W96232  22.260   0.819   0.789
28004W        W96233  18.093   5.824  12.047
28005W        W96234  35.164   8.365  11.635
28006W        W96235   8.330  35.556  14.810
28007W        W96236  32.041  39.310  12.048
28008W        W96237  41.540  18.373  13.469
28009W        W96238  12.189  31.508   3.317
28010W        W96239  11.429  40.364  12.359
28011W        W96240  42.939  34.341   2.817
28012W        W96241  19.314  38.452  10.567
28013W        W96242  11.917  26.550  14.971
28014W        W96243  38.100  28.528  13.509
28015W        W96244  17.836  25.703  14.407
28016W        W96245  10.686  18.302  12.109
28017W        W96246  43.105  35.746  12.601
28018W        W96247  20.938  28.908  14.008
28019W        W96248  13.675  12.267   2.333
28020W        W96249   4.858  19.171  10.496
28021W        W96250  43.534  18.727   0.741
28022W        W96251   1.690  14.086  14.950
28023W        W96252  44.455  36.937  10.167
28024W        W96253   5.226   6.523  11.448
28025W        W96254  28.171  40.464  14.718
28026W        W96255   6.484  26.103   0.735
28027W        W96256   3.448  30.988  12.067
28028W        W96257   7.396  37.525  11.497
28029W        W96258   6.150  12.853  11.235
28030W        W96259  11.613  12.363  14.127
28031W        W96260  31.629  44.465  14.865
28032W        W96261  28.029  14.432   1.890
28033W        W96262  14.209   0.249  14.809
28034W        W96263  40.306  33.911  12.063
28035W        W96264  41.485  26.556   1.899
28036W        W96265   6.037   2.195  11.281
28037W        W96266  39.654  13.031   4.980
28038W        W96267  14.755  13.897   3.195
28039W        W96268  43.250   7.339   5.025
28040W        W96269  37.121  26.053   0.817
28041W        W96270  10.202  10.823   4.109
28042W        W96271  15.663  31.179  12.932
28043W        W96272  16.350  12.684   1.622
28044W        W96273  12.179  19.560  14.066
28045W        W96274  28.485  15.718  11.629
28046W        W96275   8.776   5.267   0.379
28047W        W96276  37.725  34.379   2.732
28048W        W96277  11.185   3.655   1.783
28049W        W96278  23.903   7.372   1.755
28050W        W96279   1.271  17.866  11.193
28051W        W96280  38.480  14.814  13.954
28052W        W96281  36.775  44.025   1.697
28053W        W96282  27.499   7.293   1.943
28054W        W96283   0.424  36.832   2.583
28055W        W96284  17.304   3.848  12.593
28056W        W96285  16.978  44.387  11.962
28057W        W96286  17.152   5.359   4.783
28058W        W96287  29.679  39.009   4.930
28059W        W96288  23.632  13.837   3.336
28060W        W96289  28.841  11.359  12.370
28061W        W96290  28.938   5.963  11.068
28062W        W96291  25.772  44.357  11.384
28063W        W96292  35.384  23.614   3.683
28064W        W96293  23.207  36.477   4.566
28065W        W96294   8.664   8.958  12.466
28066W        W96295   2.193  26.598   0.747
28067W        W96296  26.660  40.425  14.237
28068W        W96297  24.318  11.461  14.960
28069W        W96298   3.325  31.522   4.182
28070W        W96299  11.316  17.114  12.133
28071W        W96300  34.268  32.978   2.866
28072W        W96301   3.445  23.843   3.617
28073W        W96302  30.503  26.091  11.530
28074W        W96303  27.894   2.234  10.943
28075W        W96304  39.892   3.790   1.106
28076W        W96305  18.766  19.024   0.866
28077W        W96306  36.007  42.315   4.518
28078W        W96307  25.207  33.762   1.774
28079W        W96308  26.609  11.306  12.407
28080W        W96309  32.040  44.620   4.477
28081W        W96310  38.167  12.953  10.663
28082W        W96311   0.999  26.975   2.126
28083W        W96312   1.543   2.197   3.280
28084W        W96313   4.341  15.347   2.388
28085W        W96314  39.731  37.538  11.651
28086W        W96315  10.841  35.849   0.305
28087W        W96316   1.485  31.132  13.813
28088W        W96317  36.525   8.385   0.381
28089W        W96318  44.259  23.637  11.935
28090W        W96319  27.998  19.592  13.044
28091W        W96320  33.377  35.414  10.382
28092W        W96321  41.505  28.883   2.894
28093W        W96322  44.493  11.978  11.615
28094W        W96323  21.515  22.807   3.206
28095W        W96324  20.836  22.144   3.143
28096W        W96325   7.016  20.069   2.897
28097W        W96326  14.380   7.923   0.616
28098W        W96327  44.555  24.611   3.872
28099W        W96328  28.558   7.808  13.949
28100W        W96329  30.529  10.241   1.001
28101W        W96330   9.333  24.341   0.006
28102W        W96331  39.257   5.346   0.382
28103W        W96332  40.077   0.832  13.032
28104W        W96333   1.964  11.740   0.684
28105W        W96334  25.413  22.311  11.173
28106W        W96335  25.807  23.646  13.557
28107W        W96336  23.288   9.611   1.441
28108W        W96337   5.556  12.727  13.777
28109W        W96338   1.317  36.062  11.139
28110W        W96339  13.894  40.211  13.338
28111W        W96340  32.662  30.518  10.544
28112W        W96341   4.298  18.839  12.918
28113W        W96342  29.989  36.021  13.988
28114W        W96343  11.648  35.662  13.265
28115W        W96344  32.614  28.982  13.153
28116W        W96345   7.105  43.819   4.170
28117W        W96346  23.891  13.712  10.689
28118W        W96347  22.322  16.335   2.153
28119W        W96348  11.659  24.129  14.538
28120W        W96349  17.990  10.162   1.307
28121W        W96350  15.200  12.107  14.426
28122W        W96351  24.724  39.263  14.412
28123W        W96352   6.198  22.682   0.408
28124W        W96353  42.057  26.986  12.377
28125W        W96354   3.927  41.923   1.290
28126W        W96355  25.034  24.124  10.762
28127W        W96356  38.961   5.605  13.488
28128W        W96357  39.302  34.393  14.809
28129W        W96358  18.158  39.984  10.705
28130W        W96359  39.517   1.808  12.604
28131W        W96360  22.165  37.800   2.371
28132W        W96361  24.469   5.303   1.904
28133W        W96362  18.110  29.502  11.151
28134W        W96363  17.131   7.187  13.319
28135W        W96364   0.861  42.364   3.128
28136W        W96365  37.882   3.265   1.714
28137W        W96366  28.189   6.727  13.540
28138W        W96367  35.572   8.829  10.298
28139W        W96368  17.276  19.522   1.494
28140W        W96369   2.543  10.862   4.541
28141W        W96370  23.178  41.292  14.937
28142W        W96371  27.241  23.247   0.947
28143W        W96372  21.779  39.453   0.754
28144W        W96373  26.592   4.242   3.682
28145W        W96374   8.780  37.611   4.545
28146W        W96375  41.035  19.696   0.410
28147W        W96376  24.965  25.398   4.653
28148W        W96377  13.857  39.110  12.202
28149W        W96378  12.620  35.039   1.390
28150W        W96379  17.003  32.272  11.361
28151W        W96380   2.445  27.004   0.998
28152W        W96381  37.990  33.395   1.119
28153W        W96382  11.861   3.340   2.438
28154W        W96383   4.654  21.910  12.238
28155W        W96384   6.215  20.157  12.067
28156W        W96385  39.353  30.902   0.542
28157W        W96386  12.228  36.658   3.676
28158W        W96387  23.121  42.756   1.008
28159W        W96388  28.661   4.024  13.363
28160W        W96389  33.854   7.440  14.907
28161W        W96390  28.684   4.510   4.680
28162W        W96391   5.457  35.372   2.315
28163W        W96392  23.614  25.416  14.978
28164W        W96393  14.309  22.522   0.754
28165W        W96394  16.222  22.106   3.164
28166W        W96395  17.717   0.261  13.342
28167W        W96396  26.534  37.575   0.897
28168W        W96397  35.320  36.473  13.973
28169W        W96398  24.786  19.153   0.484
28170W        W96399   8.424  18.184   3.542
28171W        W96400  33.130  17.565  12.482
28172W        W96401  25.692  27.155  12.882
28173W        W96402  24.946  18.351  12.537
28174W        W96403  44.028  10.394   1.857
28175W        W96404  12.740  25.989   1.274
28176W        W96405  31.055  33.463   3.831
28177W        W96406  26.271  31.081  12.887
28178W        W96407  29.967   8.288  14.784
28179W        W96408  19.020  19.518   4.879
28180W        W96409  18.623   3.445   4.148
28181W        W96410   7.657  34.665   5.125
28182W        W96411  17.606  22.483  12.029
28183W        W96412   4.706   0.066  10.781
28184W        W96413  31.707  25.212  11.517
28185W        W96414   0.411  24.265   3.619
28186W        W96415  36.668  11.275   0.875
28187W        W96416  13.265   2.427  12.822
28188W        W96417   3.552  26.218   0.757
28189W        W96418  35.515  25.012  10.369
28190W        W96419  36.629   7.289  12.972
28191W        W96420  34.610  12.838   3.240
28192W        W96421   9.373  43.526   2.380
28193W        W96422   7.208  11.827   0.831
28194W        W96423  10.370  29.587   3.339
28195W        W96424   5.126  29.454   0.705
28196W        W96425  20.582  19.277   3.936
28197W        W96426   1.456  43.777  11.548
28198W        W96427  23.633  32.498  13.415
28199W        W96428  41.919  34.378   2.799
28200W        W96429  16.279  25.627   3.280
28201W        W96430  38.476  17.026  11.469
28202W        W96431  27.574  22.729  12.666
28203W        W96432  24.020  17.328  12.611
28204W        W96433  34.305  19.203   2.857
28205W        W96434   2.393  25.087  13.134
28206W        W96435   8.855  43.781  12.527
28207W        W96436  18.045   0.764  12.456
28208W        W96437  22.189  38.545   4.673
28209W        W96438   1.862  23.949   1.815
28210W        W96439  24.086  18.320  10.219
28211W        W96440  10.940   4.862  12.953
28212W        W96441  33.874  37.580   3.699
28213W        W96442   6.601  31.747  12.066
28214W        W96443  17.387   1.436  12.873
28215W        W96444   9.532  25.511  10.996
28216W        W96445  20.340  23.742   3.363
28217W        W96446  13.683  12.243  13.966
28218W        W96447  30.243   6.750   0.779
28219W        W96448  26.911  24.929   2.667
28220W        W96449  12.580  25.380  12.924
28221W        W96450  44.442   6.212  10.713
28222W        W96451  24.788  39.521   1.710
28223W        W96452  37.906  10.097   4.619
28224W        W96453  23.471  27.686   4.437
28225W        W96454  31.620  19.181   3.751
28226W        W96455  12.375   6.829  11.825
28227W        W96456   8.785   2.598  11.117
28228W        W96457   4.309  27.502  13.801
28229W        W96458   8.275  40.762   0.787
28230W        W96459  28.848   4.681  14.942
28231W        W96460  19.734   8.758   1.468
28232W        W96461  40.989  40.495  11.583
28233W        W96462  16.617  37.075  13.987
28234W        W96463   0.811  19.448   4.271
28235W        W96464  41.695  21.480   2.079
28236W        W96465  18.663  36.640   1.394
28237W        W96466  28.441   5.765  12.110
28238W        W96467  42.417   3.990  12.538
28239W        W96468   6.681  20.490  13.710
28240W        W96469  22.495  28.105   4.018
28241W        W96470  14.686  38.593   0.234
28242W        W96471  23.975   9.461  11.149
28243W        W96472  35.596   6.749   2.254
28244W        W96473  42.448  28.291  13.578
28245W        W96474  36.976   2.183   4.140
28246W        W96475  31.512   0.224   2.598
28247W        W96476   7.299  44.613  14.855
28248W        W96477  18.693  37.715   0.495
28249W        W96478   3.952  26.581   0.728
28250W        W96479  26.490   7.635  10.909
28251W        W96480   2.630  21.486  10.727
28252W        W96481  35.668  42.820   4.221
28253W        W96482  25.306  12.305  12.269
28254W        W96483  18.681  35.021  10.272
28255W        W96484  39.891  38.550  11.966
28256W        W96485  29.805  36.132   3.348
28257W        W96486   6.360  12.128   2.572
28258W        W96487   6.936   2.005   1.508
28259W        W96488  14.665   8.404   1.367
28260W        W96489  26.040  21.672   1.153
28261W        W96490  18.650  34.064  10.662
28262W        W96491  39.284  35.281   4.125
28263W        W96492  38.414  44.198   1.876
28264W        W96493  12.188  36.292   4.500
28265W        W96494  23.161  20.512   4.553
28266W        W96495   6.269  30.814   4.084
28267W        W96496  18.057  43.298   2.609
28268W        W96497   2.012  10.201  12.484
28269W        W96498  18.677  31.258   9.833
28270W        W96499  11.784   2.290  10.649
28271W        W96500  42.439  30.478  13.323
28272W        W96501  26.999  40.390   2.337
28273W        W96502   5.993  22.810   4.348
28274W        W96503  28.264  24.160   1.668
28275W        W96504  33.011   3.447   0.978
28276W        W96505  36.051  37.225   4.882
28277W        W96506   7.291  16.553   1.595
28278W        W96507  13.554  31.287  13.033
28279W        W96508  16.738  23.733  14.961
28280W        W96509  28.963  39.474   4.414
28281W        W96510   5.995  37.423   1.165
28282W        W96511  42.460  29.495   2.153
28283W        W96512   7.565  18.366   2.784
28284W        W96513  31.897  43.027   3.836
28285W        W96514  28.108  36.035   3.701
28286W        W96515  38.703  18.859   1.325
28287W        W96516  21.762  43.735   0.293
28288W        W96517  34.448  42.377  12.474
28289W        W96518  11.575  39.726  13.051
28290W        W96519   6.412   4.792  14.168
28291W        W96520  41.483  42.797   4.673
28292W        W96521   2.206  38.529  13.095
28293W        W96522  25.027   6.882  12.554
28294W        W96523   0.840  18.228  13.450
28295W        W96524  22.175  13.147  14.313
28296W        W96525  44.973  21.393   1.750
28297W        W96526  36.599  33.076  12.612
28298W        W96527  20.133  33.874  13.427
28299W        W96528  15.975  37.714  11.596
28300W        W96529  34.588   8.481  13.770
28301W        W96530  24.239   7.337  14.046
28302W        W96531  26.219   6.555   0.366
28303W        W96532  26.548  27.874  10.497
28304W        W96533  11.789  42.895  13.096
28305W        W96534  27.772   1.145  11.591
28306W        W96535  44.897   7.536   3.450
28307W        W96536  20.570  43.086   3.628
28308W        W96537  25.444  38.034  12.067
28309W        W96538   5.706  10.895  11.990
28310W        W96539  28.572  15.752  14.796
28311W        W96540  32.512   1.432   4.124
28312W        W96541  44.350   8.395   1.375
28313W        W96542  14.748  26.771  11.033
28314W        W96543  12.806  40.538  10.499
28315W        W96544   9.898  14.905  14.011
28316W        W96545   2.719   8.757  14.177
28317W        W96546  25.052  28.987  14.949
28318W        W96547  37.307  19.696   2.130
28319W        W96548  15.892   8.011   5.151
28320W        W96549   1.729  10.407  12.103
28321W        W96550  16.816  44.496   1.595
28322W        W96551  24.257   3.511  13.400
28323W        W96552  33.008  23.071  12.831
28324W        W96553  41.888  37.379  14.077
28325W        W96554  44.547  17.296   3.727
28326W        W96555  37.519   8.600   4.937
28327W        W96556  44.485   7.884   1.804
28328W        W96557  10.342  28.384   0.335
28329W        W96558   9.325  19.725   1.228
28330W        W96559  42.075  40.554  12.452
28331W        W96560  11.692   4.949  11.651
28332W        W96561   8.630   3.322   2.256
28333W        W96562  17.053   8.622   3.680
28334W        W96563  10.313  22.281  14.256
28335W        W96564   8.110  26.267  14.464
28336W        W96565  40.569  20.643  10.513
28337W        W96566  19.236   1.891   2.686
28338W        W96567  36.852  40.558  14.091
28339W        W96568  44.448  12.989  11.467
28340W        W96569   5.565  35.483   0.352
28341W        W96570  39.078  27.473  11.632
28342W        W96571   6.437  40.332   2.182
28343W        W96572  26.816  44.665  12.525
28344W        W96573  31.009  44.800  10.570
28345W        W96574   7.273  18.613  10.838
28346W        W96575   1.160  11.846   2.748
28347W        W96576   5.804  13.645   0.248
28348W        W96577  28.428  17.885  13.261
28349W        W96578   4.761  28.541   4.586
28350W        W96579  14.036  42.413   3.725
28351W        W96580  30.981  32.688  13.380
28352W        W96581  44.366   1.203   0.898
28353W        W96582  29.534  16.054   4.549
28354W        W96583   2.047   2.318   3.282
28355W        W96584   1.349  43.483  11.989
28356W        W96585  28.647  18.666  13.401
28357W        W96586   2.030  40.389   2.232
28358W        W96587   4.778   5.136  11.016
28359W        W96588  22.535  44.329  13.948
28360W        W96589  42.754  12.286   3.324
28361W        W96590  30.472  35.456   3.419
28362W        W96591  23.113  18.047  11.962
28363W        W96592  26.207  36.861  10.616
28364W        W96593  42.084  36.486   0.265
28365W        W96594  19.603  36.608  14.487
28366W        W96595  38.852  27.545  12.464
28367W        W96596  25.578  40.615  13.599
28368W        W96597   9.343   9.659   2.703
28369W        W96598  28.100  26.547   2.220
28370W        W96599  12.305  27.914   3.501
28371W        W96600   7.180  20.332  13.526
28372W        W96601  28.216  44.030   1.268
28373W        W96602   3.425  40.479   1.966
28374W        W96603   2.757  42.979   3.647
28375W        W96604  29.594  30.556  10.842
28376W        W96605  22.703  29.953  13.865
28377W        W96606  40.899   7.283   0.914
28378W        W96607  26.738  43.396  10.757
28379W        W96608   0.695  37.022   3.224
28380W        W96609  26.255  19.317  14.402
28381W        W96610  16.077  15.029  13.935
28382W        W96611  36.187  11.449   0.934
28383W        W96612  35.937  22.449  12.951
28384W        W96613   9.982  35.622   2.622
28385W        W96614  36.309  38.076   3.617
28386W        W96615   9.990   9.705  12.642
28387W        W96616  23.020  39.218  11.972
28388W        W96617  15.534   1.127  11.336
28389W        W96618  30.266  20.218  14.115
28390W        W96619  29.596   9.041   3.745
28391W        W96620  31.622  36.496  12.587
28392W        W96621  21.376  30.610   4.539
28393W        W96622  10.121  25.391  12.186
28394W        W96623  38.498   0.559   1.960
28395W        W96624  38.584  25.975  13.087
28396W        W96625  33.499  19.650  13.020
28397W        W96626  15.618  33.436  13.984
28398W        W96627  39.837  22.266  10.624
28399W        W96628  26.620  13.736  10.680
28400W        W96629  44.533  22.105  14.395
28401W        W96630  27.657  36.963  13.888
28402W        W96631  15.212  26.704   1.230
28403W        W96632  36.091  21.630   3.652
28404W        W96633  15.669  16.700   2.671
28405W        W96634   9.899  42.927  10.715
28406W        W96635  21.293  44.268   3.733
28407W        W96636  21.059  27.628  11.118
28408W        W96637  15.706  33.606  12.417
28409W        W96638  15.847  12.879  13.361
28410W        W96639  25.988   1.427  11.199
28411W        W96640  41.907  22.415   0.353
28412W        W96641  17.757  14.069   2.391
28413W        W96642  12.242  24.502   4.933
28414W        W96643  16.101  37.678  12.477
28415W        W96644  23.227  17.709  12.865
28416W        W96645  18.300  42.802   2.693
28417W        W96646  26.835  35.097   1.902
28418W        W96647  36.989   3.564  13.378
28419W        W96648  35.398  35.856  11.808
28420W        W96649   8.976  14.312  14.357
28421W        W96650  26.001  11.223   1.055
28422W        W96651  29.541  28.213   1.425
28423W        W96652  42.917  40.529   1.340
28424W        W96653  17.593  37.320  12.007
28425W        W96654   8.529  29.627  11.169
28426W        W96655  15.632  44.107   0.225
28427W        W96656  24.253   1.035   4.607
28428W        W96657   8.788  39.243  11.537
28429W        W96658  33.038  34.381   1.012
28430W        W96659  39.620  42.187  12.869
28431W        W96660  34.839  14.116   4.100
28432W        W96661  39.334  16.627   3.557
28433W        W96662  34.056   4.478  11.479
28434W        W96663  11.906   7.252  11.455
28435W        W96664  13.759  12.897  12.545
28436W        W96665  36.433   0.492   3.914
28437W        W96666  30.899  44.543   4.203
28438W        W96667  37.089  25.278   1.249
28439W        W96668   8.197  20.452   1.086
28440W        W96669  32.346  43.546   1.274
28441W        W96670  26.679  20.602  12.482
28442W        W96671  28.392  39.553   2.262
28443W        W96672  16.316  19.048  12.688
28444W        W96673  38.854  31.734   4.366
28445W        W96674  29.526   3.907  13.331
28446W        W96675  42.941  18.483   2.810
28447W        W96676  38.597  36.348  14.046
28448W        W96677  15.589  33.034  13.612
28449W        W96678  34.911   8.295   1.541
28450W        W96679  11.143  32.213   0.824
28451W        W96680  37.506  43.738   3.268
28452W        W96681  25.048  37.570   4.078
28453W        W96682  11.136  20.576   0.259
28454W        W96683  26.671  26.875   5.087
28455W        W96684   6.766   7.803   1.148
28456W        W96685  28.910  23.866  13.125
28457W        W96686  30.336  17.695   1.068
28458W        W96687  27.419  24.929  11.132
28459W        W96688   3.153  43.807   2.709
28460W        W96689  23.399  28.689   3.305
28461W        W96690   4.843  18.079   1.785
28462W        W96691  24.187   0.431  14.534
28463W        W96692  29.147  40.793   2.406
28464W        W96693  19.230  29.166   3.607
28465W        W96694  42.006   5.771  13.434
28466W        W96695  26.681  35.983   2.030
28467W        W96696  28.625  37.936   1.478
28468W        W96697   8.814   0.944   3.171
28469W        W96698  11.553  12.539  12.163
28470W        W96699  23.460  35.391  12.520
28471W        W96700  14.170  17.661   3.247
28472W        W96701  41.734   3.266   0.654
28473W        W96702   3.833  26.474  14.267
28474W        W96703  19.127  12.004   2.816
28475W        W96704   9.217  31.685   4.800
28476W        W96705  20.155  41.497  12.853
28477W        W96706  19.824  18.872  11.884
28478W        W96707  34.985  20.156   3.288
28479W        W96708  26.997   7.778  11.211
28480W        W96709   6.801  24.713  10.741
28481W        W96710  43.910  36.891   0.483
28482W        W96711  30.050   1.036   1.145
28483W        W96712  35.788   7.983  14.876
28484W        W96713   3.190  17.705   3.313
28485W        W96714  29.376   0.277  13.970
28486W        W96715  29.608   1.513   2.844
28487W        W96716  10.423  23.567  11.191
28488W        W96717  37.410  40.800   2.957
28489W        W96718  14.496  38.401  14.756
28490W        W96719  19.643  23.399   0.702
28491W        W96720  22.109  34.405  13.621
28492W        W96721  44.903  19.746   3.574
28493W        W96722   0.328   3.986   1.323
28494W        W96723  29.411  34.344   2.487
28495W        W96724  23.380  41.031  12.137
28496W        W96725   2.448  10.694  12.304
28497W        W96726  27.676   0.370  11.134
28498W        W96727  39.014  24.917  10.700
28499W        W96728  30.385  29.610  13.914
28500W        W96729  30.259  20.241   3.706
28501W        W96730  10.694   1.048  10.647
28502W        W96731  29.629  11.873  14.964
28503W        W96732  37.881  16.874  10.918
28504W        W96733  19.104  31.677  11.450
28505W        W96734   7.303  31.446   4.692
28506W        W96735   7.866   5.802   2.887
28507W        W96736  10.638  16.595   4.549
28508W        W96737  24.063  14.689   0.238
28509W        W96738  28.097  13.670   3.715
28510W        W96739   0.028   5.599   2.805
28511W        W96740   3.388  12.810   0.891
28512W        W96741   3.335   8.836   2.645
28513W        W96742  28.878  39.379   0.412
28514W        W96743  11.207  21.223   4.503
28515W        W96744  39.125  14.403  10.340
28516W        W96745  15.503   6.710   0.487
28517W        W96746   0.338  20.216   0.896
28518W        W96747  14.131   8.792  12.203
28519W        W96748   3.917   4.578   4.488
28520W        W96749   8.680   0.299  12.581
28521W        W96750  42.640   4.304  11.182
28522W        W96751  26.962  27.220   2.261
28523W        W96752  20.227  16.154  10.808
28524W        W96753  32.669  42.272   4.350
28525W        W96754  44.833  32.858   4.201
28526W        W96755   6.896  30.368   3.301
28527W        W96756  21.570  40.538   3.388
28528W        W96757  14.021  21.281  13.551
28529W        W96758  36.084  30.386  12.402
28530W        W96759  16.435  34.088   3.243
28531W        W96760  32.964  12.369  14.671
28532W        W96761   8.180  43.227   4.568
28533W        W96762  16.939  10.208  10.591
28534W        W96763  13.855  27.099   4.522
28535W        W96764   0.525  15.130   1.803
28536W        W96765  30.176  15.752  12.335
28537W        W96766   7.137  13.661   2.662
28538W        W96767   3.089  20.192   0.315
28539W        W96768  18.805  42.443   4.486
28540W        W96769  41.959  23.634   5.172
28541W        W96770  18.546  34.377   3.194
28542W        W96771  27.767   0.503  10.187
28543W        W96772  22.628   0.728   4.346
28544W        W96773  25.421  44.443   1.432
28545W        W96774  39.202   1.514  12.901
28546W        W96775  14.041  30.559  13.313
28547W        W96776   9.232  29.953   2.382
28548W        W96777  23.698   1.288  14.045
28549W        W96778   9.831  34.887   0.245
28550W        W96779  32.287  10.275   2.201
28551W        W96780  12.698  33.264   2.384
28552W        W96781   5.921  21.961   2.057
28553W        W96782  37.921   1.778  12.491
28554W        W96783  33.547  27.887  12.493
28555W        W96784  23.630   3.263  12.643
28556W        W96785   5.897  39.440  14.967
28557W        W96786   1.036   6.239   1.196
28558W        W96787  38.628  38.528   3.074
28559W        W96788  31.898  36.321  13.995
28560W        W96789  10.236  33.828  13.529
28561W        W96790  26.052   2.856   2.127
28562W        W96791   1.324  25.682   3.067
28563W        W96792  39.348  11.101   2.035
28564W        W96793  27.472  15.077   1.973
28565W        W96794  19.556  41.281  11.061
28566W        W96795  42.952   1.373   3.519
28567W        W96796  16.013  12.419   1.352
28568W        W96797  21.547  44.701   4.540
28569W        W96798  22.938  35.360  11.605
28570W        W96799  20.119  27.529   3.726
28571W        W96800   6.752  12.409  11.118
28572W        W96801  11.556  34.806  10.865
28573W        W96802  16.166  26.768  11.919
28574W        W96803  27.090  36.560   0.408
28575W        W96804   1.173  12.738   1.255
28576W        W96805  39.236  41.774   4.254
28577W        W96806   0.991  14.772   1.496
28578W        W96807  24.187   0.484  13.124
28579W        W96808  19.546  10.925  14.435
28580W        W96809  41.775  42.453  13.452
28581W        W96810  17.223  16.871   4.041
28582W        W96811   0.932  24.527   4.397
28583W        W96812  39.620   6.291   2.887
28584W        W96813   4.139  40.229  13.573
28585W        W96814   1.551   6.292  13.351
28586W        W96815  29.968   6.924  11.246
28587W        W96816  38.181  30.153  13.370
28588W        W96817  20.798  25.003  13.609
28589W        W96818  30.225   6.236  10.607
28590W        W96819  40.867   7.912   2.718
28591W        W96820  36.726  36.292   2.455
28592W        W96821   6.181   9.889  14.722
28593W        W96822   9.437  42.731   1.774
28594W        W96823  18.143  36.915  13.091
28595W        W96824  30.157  39.815   0.363
28596W        W96825  22.932  27.727   1.787
28597W        W96826  17.238  21.159   0.490
28598W        W96827   8.348   7.472  12.928
28599W        W96828  38.001   5.872  11.022
28600W        W96829   0.693   7.711  12.808
28601W        W96830  10.432  40.068  11.490
28602W        W96831  37.749  44.514  10.808
28603W        W96832  10.241  14.315  11.112
28604W        W96833  31.062  31.054   3.119
28605W        W96834  22.166  25.915  13.390
28606W        W96835   2.234  18.873   0.059
28607W        W96836  41.002  26.779   1.916
28608W        W96837  27.159   8.192  13.474
28609W        W96838  40.813  23.948   1.025
28610W        W96839   4.224  23.674  10.556
28611W        W96840  32.527  34.480  10.962
28612W        W96841  37.876   9.715  12.114
28613W        W96842  28.691  35.198   3.075
28614W        W96843  26.515  15.753  14.763
28615W        W96844   4.839  33.890  10.642
28616W        W96845  34.813  17.695  13.535
28617W        W96846  16.294   3.889   2.628
28618W        W96847  39.350  26.828  14.020
28619W        W96848  40.598  11.735  12.462
28620W        W96849  27.657  18.197  14.743
28621W        W96850  15.966  21.304   2.659
28622W        W96851   7.044  18.751  11.830
28623W        W96852  44.430   9.796   2.437
28624W        W96853  36.467   9.294  13.288
28625W        W96854   9.597  40.395  11.669
28626W        W96855  28.673  15.550   4.298
28627W        W96856  42.158  30.588   4.515
28628W        W96857  21.676  15.263   0.279
28629W        W96858  43.771  23.273  11.070
28630W        W96859   3.381  19.082   4.636
28631W        W96860  29.876  26.957  12.587
28632W        W96861  37.816  40.383  10.351
28633W        W96862  27.743  20.800   4.624
28634W        W96863   1.714  11.171  12.325
28635W        W96864   7.885   2.796  11.670
28636W        W96865  28.146  12.078   2.302
28637W        W96866   5.572  18.824  11.196
28638W        W96867  44.481  39.515  11.081
28639W        W96868  11.237  19.719   1.779
28640W        W96869   6.794  21.680  13.683
28641W        W96870   1.256  34.963   3.298
28642W        W96871   9.464  23.451  14.714
28643W        W96872  42.335  43.881  14.903
28644W        W96873  28.537  23.891   2.026
28645W        W96874  13.253  40.527   2.488
28646W        W96875  43.047  33.577   5.219
28647W        W96876  38.391   3.275  11.215
28648W        W96877  40.883  28.034   3.820
28649W        W96878   4.780   5.381  12.007
28650W        W96879  20.551  39.991   0.413
28651W        W96880  34.012  41.260  12.996
28652W        W96881   4.495  24.692  14.349
28653W        W96882  15.600  29.678  14.178
28654W        W96883  15.919  21.930  14.316
28655W        W96884  28.174  34.192  13.865
28656W        W96885  44.263  15.884  12.384
28657W        W96886  17.970  30.145  10.148
28658W        W96887   9.433  41.285   0.899
28659W        W96888  12.822   2.240   4.726
28660W        W96889  33.383  13.377  14.452
28661W        W96890  13.543  11.303  14.069
28662W        W96891  21.007   5.179  11.412
28663W        W96892  15.628   5.841  11.837
28664W        W96893   4.601  43.290   0.841
28665W        W96894  41.321   0.841  10.535
28666W        W96895  29.489   2.665  12.918
28667W        W96896  16.775   5.339  14.334
28668W        W96897  32.686  26.540   1.256
28669W        W96898  21.986  22.424   2.388
28670W        W96899  25.085  41.468   4.525
28671W        W96900  33.880  22.188   4.235
28672W        W96901  27.078   4.841   3.068
28673W        W96902  24.754  29.935   0.855
28674W        W96903   0.930  29.809   0.652
28675W        W96904   4.814   4.627  10.949
28676W        W96905  17.752  27.733  12.087
28677W        W96906  15.649  44.486  11.653
28678W        W96907  25.663  44.970   2.239
28679W        W96908  15.033  17.004  11.652
28680W        W96909  28.381  31.620  12.508
28681W        W96910   8.390   3.768   3.392
28682W        W96911  31.966  13.143  13.417
28683W        W96912  15.130   5.958   0.475
28684W        W96913  37.374   4.936  10.522
28685W        W96914  43.999  40.072   2.481
28686W        W96915   1.431  33.898   3.929
28687W        W96916  34.455   4.252  13.305
28688W        W96917  14.694  37.282   3.602
28689W        W96918  16.000  28.539  13.862
28690W        W96919  43.487  40.566   3.286
28691W        W96920  14.525  30.485  11.975
28692W        W96921  15.669  19.333   0.961
28693W        W96922   9.879  24.044  14.087
28694W        W96923  13.171  21.056  13.702
28695W        W96924   6.814  39.875   4.603
28696W        W96925  33.455  10.185  11.163
28697W        W96926  21.685  44.841   0.323
28698W        W96927  40.247  40.809   2.787
28699W        W96928  16.177  33.994   3.746
28700W        W96929  27.757  19.703   4.373
28701W        W96930   1.764  23.801  12.606
28702W        W96931  13.783  24.197   5.395
28703W        W96932  14.119   9.276  14.934
28704W        W96933  41.357  12.542  14.687
28705W        W96934  23.755  34.202   3.648
28706W        W96935  38.541  36.815  13.389
28707W        W96936   9.655  30.052  14.393
28708W        W96937  33.677  37.354  10.969
28709W        W96938   1.701  17.190   5.222
28710W        W96939   7.737  26.715  10.155
28711W        W96940  29.921  18.204   5.125
28712W        W96941  34.452  17.236  12.640
28713W        W96942   9.778  42.995   3.741
28714W        W96943  37.429  13.328   1.344
28715W        W96944  17.499  20.996   2.776
28716W        W96945   6.470  21.661   0.678
28717W        W96946  36.490  43.768   3.271
28718W        W96947  41.319  12.913  12.429
28719W        W96948  17.871  42.835  13.443
28720W        W96949  36.564  44.025   2.788
28721W        W96950  23.911  35.142  12.440
28722W        W96951  16.167  44.408  12.479
28723W        W96952  26.045  12.482  13.500
28724W        W96953   9.677  12.246  10.441
28725W        W96954  11.062  24.616   2.909
28726W        W96955  43.738   7.243  10.665
28727W        W96956  10.804   5.516  10.900
28728W        W96957  37.883  32.034  10.688
28729W        W96958  32.021  34.647   1.026
28730W        W96959  34.042   4.769   4.251
28731W        W96960  17.885  16.686  14.464
28732W        W96961   3.286  43.379   0.606
28733W        W96962  39.512   5.922   0.520
28734W        W96963  40.793  12.134  11.601
28735W        W96964  25.570  10.910   0.380
28736W        W96965  26.022  14.273   0.536
28737W        W96966   1.197  33.048  11.416
28738W        W96967  42.324  19.657   1.163
28739W        W96968  23.693  35.940   0.374
28740W        W96969  32.854  35.485   0.285
28741W        W96970  12.352   0.545   4.298
28742W        W96971  22.087  12.674   0.263
28743W        W96972  14.814  27.408  14.335
28744W        W96973  14.017  40.761   4.707
28745W        W96974   5.280   4.433   3.255
28746W        W96975  36.176  19.039  13.838
28747W        W96976  31.990  34.929  13.629
28748W        W96977  24.354   2.409   3.682
28749W        W96978  43.386  33.659  14.258
28750W        W96979   2.276  44.535  12.347
28751W        W96980  18.634  17.055  14.496
28752W        W96981  37.302  38.139  14.444
28753W        W96982   5.864  22.423   2.312
28754W        W96983  40.269  35.393   2.224
28755W        W96984  28.163  14.715  12.532
28756W        W96985  32.734   7.345  13.458
28757W        W96986  17.056   2.682   3.408
28758W        W96987  23.615  27.594  14.078
28759W        W96988  23.111  42.921  13.429
28760W        W96989  44.809  33.023  14.457
28761W        W96990  41.372  20.464  11.475
28762W        W96991  18.088  34.338  13.326
28763W        W96992   1.070  33.582   3.727
28764W        W96993  22.174  11.928  14.863
28765W        W96994  43.031  19.850  12.930
28766W        W96995  37.676   5.822   2.195
28767W        W96996   4.391  10.120   4.267
28768W        W96997  40.419  13.773  10.492
28769W        W96998  12.387  38.322  13.441
28770W        W96999  44.448  19.686   3.833
28771W        W97000   4.474  35.561  10.701
28772W        W97001  37.473  38.337   1.527
28773W        W97002  24.493  12.527   0.517
28774W        W97003  18.325  26.202   0.779
28775W        W97004  30.380   3.497   1.746
28776W        W97005  24.992  40.531   2.369
28777W        W97006   2.487  18.426   3.161
28778W        W97007  41.449   4.702  14.461
28779W        W97008  16.301   8.191   2.715
28780W        W97009  35.550  16.653   2.928
28781W        W97010  17.559  20.712  12.065
28782W        W97011   1.518   7.524  13.997
28783W        W97012  34.286  18.031  10.778
28784W        W97013   2.400  12.128   1.194
28785W        W97014  32.181  26.167  12.492
28786W        W97015  11.383  14.177   4.171
28787W        W97016  17.230  30.437   1.794
28788W        W97017  21.915  24.785   3.052
28789W        W97018  34.592  33.999   4.830
28790W        W97019   9.815  10.199   2.186
28791W        W97020   2.364  32.029  11.622
28792W        W97021  32.184   6.638   2.334
28793W        W97022  39.972  15.830  14.740
28794W        W97023  39.608   1.972  14.394
28795W        W97024   9.920   8.199   0.747
28796W        W97025  13.834  13.075   2.804
28797W        W97026  38.630  16.806   4.745
28798W        W97027  18.649   2.961   4.795
28799W        W97028  31.495  29.702   2.082
28800W        W97029  24.425  10.218   2.145
28801W        W97030  14.289   3.321   4.667
28802W        W97031  11.805  36.866   1.177
28803W        W97032  26.907   8.138   1.841
28804W        W97033   0.433  35.208   4.595
28805W        W97034  41.924  40.781   0.511
28806W        W97035  13.283  42.990  11.973
28807W        W97036   1.277  29.676  11.187
28808W        W97037   6.175   0.223  14.815
28809W        W97038  19.708  10.869   1.390
28810W        W97039  25.584  22.201  12.551
28811W        W97040  36.019   0.935  13.123
28812W        W97041  11.345  16.275  11.522
28813W        W97042  33.001  15.786   1.332
28814W        W97043  28.872  25.140  10.746
28815W        W97044  12.594  34.979  14.537
28816W        W97045  21.559  33.944   9.818
28817W        W97046  17.059  35.580  14.891
28818W        W97047  33.667  43.465  11.255
28819W        W97048  28.953   8.120   2.732
28820W        W97049  33.428  19.248   2.725
28821W        W97050  15.654  31.057  14.034
28822W        W97051  11.413   4.895   2.425
28823W        W97052  41.798  36.838  14.192
28824W        W97053   0.191  30.875   3.071
28825W        W97054  16.267   9.177  11.094
28826W        W97055  25.481  15.621  11.659
28827W        W97056  30.571  29.501   0.373
28828W        W97057  20.213  14.903   1.880
28829W        W97058  24.284  39.505   1.761
28830W        W97059  40.345  37.560  11.109
28831W        W97060  37.010  27.032  13.522
28832W        W97061  24.596  32.675   4.263
28833W        W97062  24.602  27.778  11.337
28834W        W97063  41.178  28.517   0.381
28835W        W97064  22.125  38.488  14.999
28836W        W97065   3.768  38.011   0.203
28837W        W97066   5.870  26.449   0.281
28838W        W97067   8.686  38.079  10.745
28839W        W97068  40.365  37.407   3.327
28840W        W97069  28.520  23.597   3.377
28841W        W97070  23.215  13.464  11.522
28842W        W97071   1.697  23.586  14.843
28843W        W97072  39.406  19.025  13.482
28844W        W97073   9.744  11.602   4.938
28845W        W97074  23.770  18.284   2.728
28846W        W97075  27.515  36.523   3.123
28847W        W97076  30.630  22.909  14.380
28848W        W97077  42.786  12.185   0.702
28849W        W97078  22.617  29.020   4.043
28850W        W97079  35.918  41.340  11.272
28851W        W97080  12.841  30.974  11.095
28852W        W97081  33.423  21.160  12.596
28853W        W97082  31.105   4.111  14.720
28854W        W97083  10.837  22.791  13.493
28855W        W97084  42.650  36.815  11.174
28856W        W97085  39.397   5.091  12.934
28857W        W97086   5.953  31.430   4.909
28858W        W97087  20.072  29.668   3.374
28859W        W97088  17.181   7.651  12.673
28860W        W97089  17.123  12.167  13.192
28861W        W97090  42.726   6.861  14.163
28862W        W97091  37.754  40.015   0.842
28863W        W97092   8.052  35.361   2.632
28864W        W97093  22.687  32.153   2.214
28865W        W97094  18.923  19.968  14.276
28866W        W97095  42.513  11.734  14.467
28867W        W97096  11.840  38.580  14.996
28868W        W97097   9.927  27.947   0.827
28869W        W97098   0.857  29.798   3.601
28870W        W97099  41.927  20.624   0.000
28871W        W97100   9.245  26.988   0.028
28872W        W97101  25.539   1.414   3.570
28873W        W97102  14.573  31.395   4.055
28874W        W97103  31.521  18.565  12.645
28875W        W97104  26.427   6.321   4.171
28876W        W97105   6.348  33.115  13.854
28877W        W97106  41.785  31.141  14.750
28878W        W97107  22.224  19.156  12.068
28879W        W97108  32.537  24.640   2.420
28880W        W97109  37.037   8.753   3.613
28881W        W97110  35.362  34.471   3.935
28882W        W97111  11.634  37.885  10.496
28883W        W97112   4.605  20.547   4.233
28884W        W97113  12.735  13.125   2.155
28885W        W97114   1.492  18.063   0.346
28886W        W97115  33.348  44.195   1.482
28887W        W97116   5.108   7.233   4.468
28888W        W97117  29.648   6.390  12.020
28889W        W97118  41.234  42.650   2.096
28890W        W97119  17.608  26.203   3.800
28891W        W97120  30.315  36.375  14.249
28892W        W97121  40.466  13.081  12.195
28893W        W97122  28.527  40.495  11.611
28894W        W97123   4.915  32.560   3.267
28895W        W97124  16.093   3.816   4.460
28896W        W97125  24.184   6.196  14.837
28897W        W97126  31.229  31.499   4.327
28898W        W97127  25.072   4.977   3.950
28899W        W97128  26.243  42.925   3.183
28900W        W97129  15.237  34.954  13.614
28901W        W97130  27.513   4.534   1.834
28902W        W97131  18.810  29.083   4.037
28903W        W97132  33.748   8.730   2.756
28904W        W97133   2.994  34.681   4.240
28905W        W97134  24.464   6.936   0.161
28906W        W97135  16.245  31.691  11.361
28907W        W97136  19.012   0.297   0.726
28908W        W97137  38.633   3.365  13.982
28909W        W97138  11.787  27.893  14.393
28910W        W97139  24.384  30.723  12.334
28911W        W97140  36.000   5.371   3.331
28912W        W97141  18.007  43.380  11.563
28913W        W97142  17.339  35.177  10.686
28914W        W97143  39.771  31.651   4.128
28915W        W97144  13.517  39.606  12.730
28916W        W97145  25.924  10.721   1.206
28917W        W97146  38.896  23.652   3.742
28918W        W97147  34.454  43.322   4.054
28919W        W97148  11.192  33.155   0.814
28920W        W97149   5.789  24.968  11.158
28921W        W97150  41.953  10.845  14.417
28922W        W97151  38.918  15.506  10.728
28923W        W97152  21.474   9.247  14.878
28924W        W97153   0.409   5.553   4.467
28925W        W97154  19.464   0.071  11.130
28926W        W97155  22.266  15.861   0.010
28927W        W97156  11.818  40.806  13.846
28928W        W97157  38.904  26.087   2.602
28929W        W97158  20.633  22.654   4.160
28930W        W97159  15.336  22.944  11.729
28931W        W97160  34.977  39.451   3.758
28932W        W97161  25.892  23.134  14.998
28933W        W97162  33.069   4.590  13.017
28934W        W97163  35.808  31.188  10.615
28935W        W97164   2.196   3.028   1.324
28936W        W97165  28.445  33.171   3.368
28937W        W97166  11.638  34.062  14.819
28938W        W97167   7.354   3.500   2.179
28939W        W97168  17.295  38.003   3.082
28940W        W97169   7.794  43.005  11.293
28941W        W97170   7.109  37.072   0.833
28942W        W97171  30.746   7.086  12.243
28943W        W97172   0.565  27.140   3.312
28944W        W97173  13.285   5.126   3.203
28945W        W97174  31.875  27.563  12.987
28946W        W97175  24.022  38.563  12.246
28947W        W97176   8.822  37.326  14.782
28948W        W97177  40.007   0.914   0.453
28949W        W97178  26.604  31.901  11.532
28950W        W97179  34.040  11.270  11.619
28951W        W97180  23.675  28.982  11.652
28952W        W97181  11.739  24.226  12.998
28953W        W97182  15.758  27.151   3.632
28954W        W97183  27.438  25.026   0.174
28955W        W97184  21.677  37.664   3.269
28956W        W97185  15.225  23.022   0.196
28957W        W97186  26.522  12.269   2.945
28958W        W97187  44.687   3.325  10.720
28959W        W97188  23.561  17.055   2.226
28960W        W97189  39.847  13.692   2.555
28961W        W97190  34.663  30.116  12.349
28962W        W97191  27.105   2.546  10.646
28963W        W97192  26.682  11.484   2.247
28964W        W97193  10.764  10.153   2.409
28965W        W97194  11.146  30.734   4.525
28966W        W97195  29.410  23.584   4.530
28967W        W97196   9.227  20.249   3.191
28968W        W97197  38.806   8.175   0.042
28969W        W97198  38.864  14.956   1.763
28970W        W97199  43.476  34.595  11.536
28971W        W97200  16.469   1.222  11.563
28972W        W97201   9.338  17.191  11.032
28973W        W97202  25.414  19.232   3.312
28974W        W97203  29.631   7.480  10.486
28975W        W97204  10.880  40.008   3.694
28976W        W97205   4.871  13.052   3.659
28977W        W97206  10.498   8.957  14.996
28978W        W97207  14.166  11.345   2.842
28979W        W97208  32.602  12.875   2.548
28980W        W97209  25.151  27.233  14.365
28981W        W97210  14.489  27.617  13.992
28982W        W97211  37.293  38.769   0.322
28983W        W97212  44.641  23.440   2.191
28984W        W97213  19.992   9.870  11.991
28985W        W97214  44.022  12.279  10.627
28986W        W97215  11.377  13.227  12.909
28987W        W97216  10.815  10.134  12.557
28988W        W97217  26.465  12.180  14.759
28989W        W97218  32.410   8.437   1.389
28990W        W97219  21.116  36.503   3.340
28991W        W97220  41.771  11.634  10.725
28992W        W97221  18.503  41.865  10.804
28993W        W97222  31.641  27.092  13.050
28994W        W97223   8.654  30.120  11.630
28995W        W97224  40.354  34.805  12.916
28996W        W97225   1.925  30.675   4.178
28997W        W97226   4.394  18.588   4.714
28998W        W97227  35.094  27.538  14.471
28999W        W97228  43.254  25.466  13.891
29000W        W97229   4.896  28.741  11.598
29001W        W97230  18.320  12.391   4.492
29002W        W97231  16.212   3.257   4.185
29003W        W97232  30.745  29.190  13.991
29004W        W97233  19.457  12.742  12.879
29005W        W97234  18.603  28.442   3.725
29006W        W97235  29.235  33.842  12.295
29007W        W97236  30.622  14.695  10.726
29008W        W97237  43.521  14.756  12.997
29009W        W97238  28.248  17.213   3.648
29010W        W97239  28.874  29.656   3.177
29011W        W97240  20.765  22.209  12.047
29012W        W97241  33.969  15.319   4.787
29013W        W97242  24.090   2.329  12.871
29014W        W97243  11.415  27.038  14.441
29015W        W97244   0.836  22.508  13.087
29016W        W97245  19.699   3.965   3.766
29017W        W97246  17.678   7.390   1.979
29018W        W97247  27.958   0.175   4.154
29019W        W97248  12.279  10.843  14.475
29020W        W97249   2.976  34.924  11.892
29021W        W97250  40.994   0.570   3.055
29022W        W97251  27.637  43.948   0.559
29023W        W97252  12.207  37.356  13.375
29024W        W97253   9.233  41.018   4.283
29025W        W97254  13.560  28.403  13.157
29026W        W97255  40.802   2.396  12.926
29027W        W97256  38.936  25.162   2.707
29028W        W97257  18.973  41.316  11.937
29029W        W97258  35.518   2.746   2.861
29030W        W97259  14.767   7.888  14.045
29031W        W97260   2.439   4.657   0.235
29032W        W97261  11.366   3.412  14.006
29033W        W97262   4.913   8.900  10.742
29034W        W97263  43.900  28.911   2.554
29035W        W97264  44.717  29.036   4.972
29036W        W97265  41.990  14.904  13.994
29037W        W97266  36.427  25.952   1.256
29038W        W97267  20.893  11.276   5.121
29039W        W97268  14.632  16.929  10.655
29040W        W97269  25.134  14.148   1.485
29041W        W97270  10.856  38.561  14.867
29042W        W97271  41.375  42.605  12.425
29043W        W97272   7.709   4.321  10.737
29044W        W97273  11.815   3.882   4.203
29045W        W97274  37.456   2.050  12.552
29046W        W97275   9.422  27.991  10.545
29047W        W97276  21.101  26.254   4.063
29048W        W97277  12.128  31.583   0.645
29049W        W97278  33.976   3.321   3.708
29050W        W97279   6.766  27.347  11.479
29051W        W97280  14.077  33.880   1.851
29052W        W97281  15.102  19.234  11.069
29053W        W97282  41.027  21.024  13.036
29054W        W97283  11.885  15.231   2.624
29055W        W97284  40.891  34.161  13.116
29056W        W97285  11.690  10.872   1.640
29057W        W97286  17.633  17.239  13.533
29058W        W97287   2.806  17.966   0.147
29059W        W97288  28.470  37.114  14.537
29060W        W97289   4.002  22.524   4.610
29061W        W97290  16.833   5.302  12.123
29062W        W97291   4.315  11.704   3.358
29063W        W97292  32.060  14.193  14.757
29064W        W97293  30.610  38.019   3.501
29065W        W97294   8.920  34.628  14.329
29066W        W97295  32.602  25.964  13.423
29067W        W97296  16.807  36.560  11.447
29068W        W97297   5.355  37.815   2.297
29069W        W97298  40.227  14.433   4.209
29070W        W97299   4.869  31.008   4.612
29071W        W97300  38.081  24.254   0.220
29072W        W97301  22.773   1.402   1.303
29073W        W97302   9.403  13.455   3.300
29074W        W97303  36.926  29.922   3.282
29075W        W97304  37.421   4.196   1.345
29076W        W97305  35.082   1.438   4.760
29077W        W97306  44.632  43.478   2.333
29078W        W97307  12.573  34.479  11.931
29079W        W97308  29.237  40.534   1.928
29080W        W97309   1.738  30.820  13.467
29081W        W97310   3.109  39.314  10.018
29082W        W97311   0.272  31.488   0.023
29083W        W97312  35.666  22.019   2.855
29084W        W97313  17.866  19.412   0.921
29085W        W97314  27.633  41.345  10.747
29086W        W97315  20.838   5.672  14.903
29087W        W97316  31.595   7.649   1.967
29088W        W97317  39.086  12.600   4.308
29089W        W97318  34.141  34.089  10.484
29090W        W97319   3.751  27.941   4.057
29091W        W97320  24.693  43.312  13.803
29092W        W97321  27.223   6.250   4.540
29093W        W97322  34.467  10.895  14.125
29094W        W97323  27.850  27.144   2.163
29095W        W97324  39.944   3.975  10.700
29096W        W97325  25.928  24.651  13.410
29097W        W97326  29.245  43.336  13.328
29098W        W97327  35.262  35.628  12.271
29099W        W97328  37.862  22.770   2.600
29100W        W97329  20.644  10.796   1.879
29101W        W97330   2.862  43.985   3.520
29102W        W97331  21.768  25.542   0.384
29103W        W97332  20.183  29.536  10.972
29104W        W97333  17.142  20.657  14.603
29105W        W97334   6.028  16.337   1.837
29106W        W97335  36.266  21.290  12.913
29107W        W97336  42.431   9.478   4.139
29108W        W97337   1.019  32.860   3.688
29109W        W97338  36.793  38.047  13.495
29110W        W97339  13.159   7.558  11.226
29111W        W97340  15.111  28.626  14.006
29112W        W97341  14.218  40.026  12.057
29113W        W97342  40.472  33.548   3.859
29114W        W97343  33.490  37.819  13.105
29115W        W97344   6.927  12.272   0.797
29116W        W97345  24.932  10.644   2.742
29117W        W97346  36.540  37.983   4.421
29118W        W97347  19.087  38.739   2.211
29119W        W97348  12.744  40.334   3.312
29120W        W97349  15.022  30.127  11.552
29121W        W97350  26.149  43.987   2.736
29122W        W97351  43.365  12.467   3.184
29123W        W97352  30.023  31.409  11.047
29124W        W97353  31.463  24.111   2.748
29125W        W97354  14.322  33.761   3.568
29126W        W97355  20.591  44.955   3.599
29127W        W97356  42.834   4.163   2.870
29128W        W97357  14.392   7.524   0.953
29129W        W97358  31.536  36.317   3.068
29130W        W97359  23.058  14.109  10.698
29131W        W97360  33.816  35.361   3.664
29132W        W97361  12.823  26.808   0.980
29133W        W97362  36.788  26.712   4.077
29134W        W97363  40.655  23.140  10.437
29135W        W97364  33.469  12.831   2.211
29136W        W97365  38.871  35.991  11.956
29137W        W97366  20.489  18.229   4.037
29138W        W97367   8.578  43.422  14.789
29139W        W97368  38.538  16.319   2.819
29140W        W97369   0.776   4.683   2.916
29141W        W97370  21.599  21.703   3.302
29142W        W97371  14.600   2.819   4.892
29143W        W97372  35.431  15.218  10.670
29144W        W97373  40.919   0.377   4.589
29145W        W97374  24.552  24.579   3.244
29146W        W97375  35.918  17.780   3.905
29147W        W97376   4.241  17.787   4.106
29148W        W97377   5.393  21.592  12.903
29149W        W97378  39.280  35.119  11.549
29150W        W97379  35.816   8.275   4.323
29151W        W97380  20.281  43.996   0.487
29152W        W97381  37.495  13.916   0.438
29153W        W97382  33.296  24.642  10.928
29154W        W97383  13.105  22.735  14.351
29155W        W97384  26.911  37.319  11.508
29156W        W97385  35.893  28.554  13.059
29157W        W97386  12.142  14.858  11.482
29158W        W97387  18.293  17.693   2.475
29159W        W97388  43.764  10.816  13.328
29160W        W97389  29.615   0.902   0.545
29161W        W97390   5.348  32.549   1.864
29162W        W97391  32.493  33.423   4.270
29163W        W97392  25.978  38.041  12.032
29164W        W97393  28.071  44.247   5.189
29165W        W97394  18.042  27.060  14.929
29166W        W97395  35.049  18.091   0.928
29167W        W97396  26.489   6.774  13.240
29168W        W97397  31.491  13.604   2.192
29169W        W97398  26.501  43.806  10.948
29170W        W97399  12.267   3.846  12.084
29171W        W97400  11.359  11.470   3.149
29172W        W97401   1.423  37.123  12.556
29173W        W97402  15.284  28.764   0.030
29174W        W97403  26.588  42.699   0.867
29175W        W97404  24.712  10.855  13.871
29176W        W97405  32.078  39.493  14.944
29177W        W97406  31.481  11.268  13.642
29178W        W97407  32.022   2.078   2.217
29179W        W97408  13.387   0.340  14.665
29180W        W97409  37.543  16.344  12.905
29181W        W97410  34.452  20.766   2.923
29182W        W97411  37.878  40.912   2.770
29183W        W97412  37.321  20.709  11.494
29184W        W97413  25.452  34.678   1.836
29185W        W97414  14.552   2.767  11.940
29186W        W97415   2.195   0.419   0.184
29187W        W97416  21.775  26.991  12.527
29188W        W97417   9.394  44.042   2.665
29189W        W97418  34.479  20.069   3.221
29190W        W97419  29.262  11.377   4.580
29191W        W97420  31.750  13.718  13.862
29192W        W97421   0.383  38.523   1.990
29193W        W97422   2.240  13.317   2.283
29194W        W97423  40.693   6.729   1.390
29195W        W97424  27.168  10.605   3.741
29196W        W97425  21.093  10.040   4.177
29197W        W97426  43.008   6.358   4.668
29198W        W97427  44.245   9.458   1.293
29199W        W97428   4.618  30.796   2.062
29200W        W97429  36.112  19.441  12.827
29201W        W97430  20.692   3.788  13.525
29202W        W97431  26.616   3.596   4.540
29203W        W97432   0.311  34.113  11.235
29204W        W97433  10.991  35.384   2.744
29205W        W97434  43.537   2.205   0.944
29206W        W97435  10.223  13.903   2.977
29207W        W97436  14.748  36.096  10.655
29208W        W97437  14.661   7.669  11.034
29209W        W97438  11.235  44.936  14.816
29210W        W97439  21.540  31.484   0.137
29211W        W97440   5.114  24.907  13.804
29212W        W97441  13.796  29.355  11.067
29213W        W97442  29.231   1.158   0.331
29214W        W97443  16.361  30.151  11.109
29215W        W97444  17.598  22.946  13.300
29216W        W97445  17.402  16.061  12.587
29217W        W97446  42.445  16.756   3.448
29218W        W97447  43.841   8.240   1.254
29219W        W97448  32.140   3.132   5.306
29220W        W97449  44.488  38.892  11.621
29221W        W97450  32.087  24.028   2.260
29222W        W97451  43.744  31.396   1.385
29223W        W97452  27.006  10.734  14.132
29224W        W97453  22.462   6.447   4.104
29225W        W97454  21.171   2.309   1.253
29226W        W97455  32.376   5.655  13.983
29227W        W97456  33.740  32.804   2.714
29228W        W97457  22.037  37.073  14.805
29229W        W97458  33.986  41.020  10.727
29230W        W97459   1.204  22.914   1.019
29231W        W97460  35.920  12.381  11.006
29232W        W97461   4.900  30.057   2.009
29233W        W97462  33.647  10.679   3.321
29234W        W97463   2.760   4.366   0.907
29235W        W97464  21.861   8.464   3.531
29236W        W97465   2.509   2.992  14.414
29237W        W97466  40.013  26.367  13.126
29238W        W97467  10.228  19.823   0.763
29239W        W97468  34.638  11.564   3.623
29240W        W97469   9.914  12.546  13.123
29241W        W97470  38.541   9.845   2.407
29242W        W97471   9.983  27.778  13.745
29243W        W97472  29.240  41.954   1.211
29244W        W97473  36.522  36.264  10.832
29245W        W97474  29.527  14.845   3.720
29246W        W97475  22.714  21.550   2.158
29247W        W97476  38.818  34.948   3.045
29248W        W97477  36.335  24.826  13.021
29249W        W97478  32.318  10.609   4.062
29250W        W97479  25.741  35.655  14.835
29251W        W97480  17.785  34.231   3.947
29252W        W97481  42.280  26.147  13.503
29253W        W97482  17.768   6.946  12.396
29254W        W97483  25.923   0.971  10.946
29255W        W97484   0.551  32.559  14.319
29256W        W97485  43.015   1.733  10.727
29257W        W97486  35.500  17.224   1.974
29258W        W97487  30.161  14.756  12.459
29259W        W97488  34.843   4.404   0.240
29260W        W97489  27.901   9.040  12.641
29261W        W97490  31.065  39.338  11.210
29262W        W97491  16.701  14.295   0.314
29263W        W97492  36.839  30.505   1.661
29264W        W97493  44.963  41.226  11.084
29265W        W97494   7.628  18.156  10.314
29266W        W97495  12.991  20.575  11.953
29267W        W97496  27.329  20.012   4.160
29268W        W97497  41.406  16.261   0.741
29269W        W97498   8.703  15.014   1.611
29270W        W97499  41.790   0.286   4.547
29271W        W97500  13.837  29.702   0.360
29272W        W97501  34.920  23.031   3.109
29273W        W97502   6.368  28.744  14.448
29274W        W97503  38.411  40.311  11.843
29275W        W97504  33.936  30.121  10.558
29276W        W97505  37.464  20.630  14.020
29277W        W97506   6.944  24.215   3.322
29278W        W97507  33.911  14.739   0.633
29279W        W97508  22.720   1.747  13.033
29280W        W97509  20.718  15.219  11.962
29281W        W97510  29.557  22.260  11.631
29282W        W97511  25.807  34.905   3.270
29283W        W97512  18.762  33.723  14.267
29284W        W97513  31.880   6.293   3.307
29285W        W97514  25.918  30.975   1.258
29286W        W97515   0.823   4.961  13.299
29287W        W97516  43.828  33.775   0.449
29288W        W97517  16.550   1.835   3.361
29289W        W97518  28.521   6.533   3.007
29290W        W97519  37.742   2.407   4.599
29291W        W97520   9.707   1.097  14.005
29292W        W97521  42.458  16.515  11.969
29293W        W97522   4.253  14.448   3.306
29294W        W97523  22.851  33.627  12.106
29295W        W97524  38.899   2.765   1.239
29296W        W97525  39.000  30.190  12.095
29297W        W97526  20.957  34.586   5.130
29298W        W97527  19.182  21.027  11.471
29299W        W97528  41.673  39.821   0.877
29300W        W97529  23.322  12.867   4.577
29301W        W97530  16.303  39.313  14.307
29302W        W97531  21.995  42.597   0.811
29303W        W97532  39.325  15.331  11.007
29304W        W97533   9.558   6.367   0.368
29305W        W97534   9.074  22.217   1.387
29306W        W97535   3.640  20.797   4.230
29307W        W97536  17.470   4.828  11.558
29308W        W97537  15.769   8.771  14.225
29309W        W97538  26.263  23.207  10.741
29310W        W97539  35.997   8.799   3.044
29311W        W97540  23.174  29.473  10.628
29312W        W97541  37.466  23.241  11.134
29313W        W97542  21.210  25.223  13.369
29314W        W97543   2.912  19.680  11.878
29315W        W97544  43.997  25.790   3.146
29316W        W97545   0.762  30.605   2.517
29317W        W97546  20.539   8.015   2.899
29318W        W97547  10.383  21.231  10.772
29319W        W97548  25.203  41.446  13.999
29320W        W97549   1.785  19.590  10.889
29321W        W97550  21.578  33.383  14.476
29322W        W97551  21.703   8.235   4.948
29323W        W97552  27.128   0.876  12.340
29324W        W97553  43.568  36.495  10.370
29325W        W97554  23.081   5.930   3.691
29326W        W97555  42.711  43.316  10.695
29327W        W97556  34.877  35.540   0.164
29328W        W97557  12.336  31.693  14.372
29329W        W97558  37.907   2.681  14.928
29330W        W97559  14.542  38.411  12.994
29331W        W97560  18.557  25.365  13.496
29332W        W97561  39.925  13.063   4.122
29333W        W97562   4.007  15.993  12.147
29334W        W97563   8.746  33.513  11.667
29335W        W97564  34.146  26.198   1.514
29336W        W97565  42.963  27.907  11.521
29337W        W97566   3.293  22.279  14.941
29338W        W97567  29.425   0.167   4.189
29339W        W97568   7.742   5.846   4.446
29340W        W97569  31.834  38.396  12.144
29341W        W97570  24.086   5.152  11.270
29342W        W97571  38.323  28.699  14.434
29343W        W97572   4.788  25.767   3.892
29344W        W97573  33.999  20.129  12.625
29345W        W97574   7.690  26.555  14.389
29346W        W97575  42.841  35.140   4.776
29347W        W97576  31.108  24.226   3.523
29348W        W97577  29.513   6.236  12.521
29349W        W97578   3.144  16.687  14.727
29350W        W97579   4.308   9.621   4.879
29351W        W97580  44.322   0.042  10.598
29352W        W97581  31.852  31.494   1.787
29353W        W97582  28.619  12.287   2.207
29354W        W97583  24.873  30.177  12.496
29355W        W97584  34.833  21.767   1.637
29356W        W97585  25.506   8.884   0.382
29357W        W97586  30.145  37.650   4.984
29358W        W97587  44.781  36.551   2.175
29359W        W97588  22.220   5.372   1.013
29360W        W97589   8.695  16.768  14.508
29361W        W97590  13.491  22.928  10.607
29362W        W97591  23.094   3.198   0.091
29363W        W97592   3.369   7.455  14.800
29364W        W97593  28.261  35.370   3.362
29365W        W97594  33.596  12.056   1.445
29366W        W97595  10.200   8.334  14.521
29367W        W97596  38.844   2.837   0.718
29368W        W97597  15.279  40.897   0.903
29369W        W97598  31.647   9.731  11.182
29370W        W97599  33.802  43.658   2.355
29371W        W97600  14.706  10.923  11.148
29372W        W97601   7.694  22.499  12.941
29373W        W97602  17.605  25.771  13.865
29374W        W97603  38.438  30.248  12.916
29375W        W97604  18.381   5.656   0.471
29376W        W97605  30.498  43.014   0.188
29377W        W97606  33.652  30.651   2.813
29378W        W97607  23.417  42.401   3.305
29379W        W97608  22.503   6.294   1.294
29380W        W97609  39.855  37.956   2.886
29381W        W97610  12.344  43.429   1.656
29382W        W97611  31.476   7.976  11.580
29383W        W97612  26.190  31.117   1.703
29384W        W97613  34.087  42.326  12.907
29385W        W97614  18.073  36.621   3.913
29386W        W97615  23.042  24.756   1.925
29387W        W97616  32.314  20.207  10.459
29388W        W97617  41.291  19.726  13.465
29389W        W97618  13.754  32.106  14.771
29390W        W97619  21.490  33.017   1.769
29391W        W97620  36.359  16.063   1.955
29392W        W97621  15.486  11.301  14.048
29393W        W97622   4.675   2.145   1.016
29394W        W97623  41.336  10.008  12.911
29395W        W97624  15.845  13.149  14.032
29396W        W97625   0.539  28.479   2.986
29397W        W97626   8.602  40.117  11.631
29398W        W97627  35.741  21.595  12.285
29399W        W97628   9.607  17.340   3.406
29400W        W97629  39.236  36.015   4.536
29401W        W97630  10.165   4.600  12.471
29402W        W97631  18.136  11.865  14.879
29403W        W97632  14.779  32.042   4.683
29404W        W97633  18.734   9.246   3.582
29405W        W97634   2.252  22.111  13.340
29406W        W97635   4.857  25.620   0.371
29407W        W97636  44.027  13.239  12.508
29408W        W97637  29.642  25.543  14.743
29409W        W97638  33.342  19.798   2.839
29410W        W97639   3.954  26.403  14.769
29411W        W97640  29.432  26.216   4.390
29412W        W97641  44.382  28.999   2.752
29413W        W97642  42.869  30.672  13.569
29414W        W97643  30.601   1.755   4.462
29415W        W97644  17.933  28.950  11.881
29416W        W97645  12.793   8.355  11.167
29417W        W97646   5.738  44.774  11.619
29418W        W97647  39.678  34.811   4.957
29419W        W97648   3.126  37.411   0.516
29420W        W97649  37.928  12.317  14.884
29421W        W97650  44.351  30.655  14.467
29422W        W97651  13.770  40.483  13.870
29423W        W97652  22.697  41.804   0.868
29424W        W97653  39.921   0.843   4.783
29425W        W97654  24.208  27.326  10.817
29426W        W97655  28.159  12.378   1.873
29427W        W97656  14.142  37.360  14.882
29428W        W97657   9.398  30.503  11.041
29429W        W97658  39.503  25.693   4.270
29430W        W97659  39.012   6.197  14.342
29431W        W97660  34.878   4.868  14.867
29432W        W97661   8.204  39.957  10.621
29433W        W97662   4.126  21.395   2.280
29434W        W97663  24.592  28.766  14.328
29435W        W97664  19.628  31.626   0.530
29436W        W97665  35.836   2.428  13.620
29437W        W97666  32.795  29.489   1.455
29438W        W97667   4.205   7.728   0.543
29439W        W97668   2.863  32.631  14.804
29440W        W97669  21.738  42.041   2.419
29441W        W97670  27.809  33.181  13.133
29442W        W97671  42.487  39.278   3.677
29443W        W97672  25.216  10.611  10.713
29444W        W97673   7.064  26.366  11.510
29445W        W97674  25.934   6.151  12.138
29446W        W97675  13.348   1.272  11.274
29447W        W97676  23.476  19.063  13.214
29448W        W97677  10.791  12.970  14.479
29449W        W97678   5.437  15.079   2.990
29450W        W97679  24.041  33.604   2.286
29451W        W97680  34.027  26.191   0.445
29452W        W97681  28.652  24.115  12.049
29453W        W97682  38.608  35.861   2.589
29454W        W97683  42.788  28.368   1.169
29455W        W97684  38.452  19.547   2.845
29456W        W97685   8.062  11.105  10.279
29457W        W97686  44.405  25.901  14.805
29458W        W97687  35.073  33.371   4.168
29459W        W97688  12.171  34.082  11.850
29460W        W97689  22.287   6.942   3.776
29461W        W97690   2.454   0.478   4.333
29462W        W97691  36.462  38.901   2.798
29463W        W97692  39.064  42.402   1.056
29464W        W97693  25.579  25.765   1.336
29465W        W97694  15.248  14.030   1.777
29466W        W97695  42.695  38.889  12.683
29467W        W97696  23.041  29.811   0.746
29468W        W97697   2.542  19.576   5.075
29469W        W97698  16.930  15.999   1.345
29470W        W97699  15.000  12.720  10.694
29471W        W97700  35.408  36.933  12.885
29472W        W97701  18.006  22.836  11.802
29473W        W97702  41.336  26.686   0.914
29474W        W97703  15.311   7.217   0.027
29475W        W97704  25.488  39.256   4.598
29476W        W97705   6.649   5.259  14.413
29477W        W97706  17.689   0.792  13.317
29478W        W97707  43.294  17.821   1.736
29479W        W97708  25.747  35.546  11.082
29480W        W97709   8.450  11.719  10.647
29481W        W97710  35.507  36.415  14.468
29482W        W97711  17.449   6.125  10.872
29483W        W97712  30.216  10.323  13.479
29484W        W97713  35.572  24.536   0.761
29485W        W97714  13.854  27.878  14.719
29486W        W97715  22.995  34.114  12.363
29487W        W97716  31.015   9.491   3.435
29488W        W97717  39.332  40.605   1.011
29489W        W97718   8.455  22.950   4.900
29490W        W97719  40.351  43.783   0.938
29491W        W97720  27.167  33.585  12.523
29492W        W97721  11.317  17.654   1.020
29493W        W97722  29.183  22.579   0.070
29494W        W97723  13.194  15.540   4.160
29495W        W97724  44.234  35.818   2.644
29496W        W97725  17.049  37.932  13.571
29497W        W97726  23.207  35.545   4.528
29498W        W97727   3.846  35.385  12.799
29499W        W97728   8.023  23.994   5.206
29500W        W97729  40.508  11.695  10.283
29501W        W97730  16.208   6.689  12.048
29502W        W97731  16.207  21.934  13.870
29503W        W97732  42.496  43.532   5.217
29504W        W97733   6.683  24.009  13.767
29505W        W97734   6.437  24.469  12.506
29506W        W97735  15.831  40.368   1.657
29507W        W97736  19.079  22.909   3.352
29508W        W97737  14.197   3.103  11.137
29509W        W97738   1.900  27.731   2.706
29510W        W97739   4.987   6.931  14.347
29511W        W97740  35.534  27.872   2.216
29512W        W97741  29.674  18.656   1.191
29513W        W97742   9.022  15.512  14.018
29514W        W97743   9.718  11.618  14.339
29515W        W97744   6.759  15.641  12.094
29516W        W97745  33.500  13.599   0.640
29517W        W97746  22.049  22.245   3.717
29518W        W97747  18.663  44.533  12.228
29519W        W97748   1.634  31.482  14.499
29520W        W97749  27.671  10.314  14.348
29521W        W97750   2.004  11.348   0.301
29522W        W97751  44.063  15.628  10.886
29523W        W97752   6.005   3.894   0.916
29524W        W97753  13.706  44.570  14.051
29525W        W97754  14.535  19.734   4.728
29526W        W97755   2.881  44.258   0.917
29527W        W97756  39.352  43.212  14.618
29528W        W97757  23.740  43.762   3.363
29529W        W97758   6.294   7.723  10.971
29530W        W97759  26.711  25.931   0.750
29531W        W97760  21.578  15.302   2.522
29532W        W97761  27.154  21.436  13.933
29533W        W97762  12.341   9.382   2.344
29534W        W97763   0.085  31.115  11.189
29535W        W97764  32.814  10.890  14.773
29536W        W97765  36.576  18.572  12.795
29537W        W97766  41.072  39.422  13.718
29538W        W97767  39.470  11.056  12.429
29539W        W97768  39.461   9.825  10.270
29540W        W97769  10.525   3.794   0.623
29541W        W97770  42.018  22.217   3.313
29542W        W97771  23.793   9.497   1.732
29543W        W97772  33.312  10.609   1.225
29544W        W97773   0.202  26.000   1.386
29545W        W97774  23.039  34.098   0.937
29546W        W97775   4.507  38.050  12.440
29547W        W97776  38.761  31.237  12.888
29548W        W97777  24.950  38.983   4.142
29549W        W97778  11.719   3.017  11.167
29550W        W97779   7.242  38.828   0.314
29551W        W97780  32.215  38.869  10.666
29552W        W97781  41.857   0.812   4.475
29553W        W97782  29.470  31.555  12.437
29554W        W97783  17.894  41.028  12.297
29555W        W97784  21.124  10.703   2.689
29556W        W97785  32.590  13.188  12.306
29557W        W97786  43.239  20.397   4.695
29558W        W97787  40.573  23.231   1.246
29559W        W97788  23.525  33.600  11.321
29560W        W97789  19.490  23.427  13.405
29561W        W97790  34.100  39.100  13.520
29562W        W97791  18.861   3.952   1.240
29563W        W97792  15.128  33.951   2.860
29564W        W97793  29.981  26.152  11.716
29565W        W97794  19.884  27.660  11.473
29566W        W97795  24.405  29.248   5.127
29567W        W97796   5.852  31.610   3.466
29568W        W97797  38.669  42.471  12.971
29569W        W97798  23.013  37.934  13.765
29570W        W97799  38.321  36.332  11.141
29571W        W97800  26.764  43.855  12.455
29572W        W97801  37.346   2.306  14.284
29573W        W97802  15.312  42.658   4.919
29574W        W97803  43.002   8.551   4.188
29575W        W97804  10.689  15.680   0.816
29576W        W97805  37.949  19.731   1.279
29577W        W97806  25.728  11.828  12.400
29578W        W97807  28.963   5.353  13.851
29579W        W97808   4.331  15.685   5.157
29580W        W97809  41.319  28.213   1.019
29581W        W97810   4.724  20.731   0.909
29582W        W97811  40.429  12.698  12.938
29583W        W97812  35.470   0.744   1.396
29584W        W97813  37.814   6.318   1.443
29585W        W97814  25.604  18.145  10.721
29586W        W97815  42.258  38.008   1.843
29587W        W97816  38.600  41.019  14.412
29588W        W97817   8.100  15.012   3.155
29589W        W97818  17.107  27.155   2.248
29590W        W97819  31.480   7.793   2.936
29591W        W97820  35.662  35.578   0.791
29592W        W97821  24.929  27.546  14.034
29593W        W97822  18.023  33.939   1.475
29594W        W97823   7.248   0.285   2.844
29595W        W97824  30.974  23.294  13.366
29596W        W97825  24.776  37.780   0.208
29597W        W97826  21.155  24.456  13.591
29598W        W97827  11.452  15.376   3.810
29599W        W97828  27.198  23.583   3.651
29600W        W97829  28.566   5.024   2.439
29601W        W97830   8.364  33.887   2.804
29602W        W97831  37.108  44.818   0.196
29603W        W97832  28.097  24.146   4.533
29604W        W97833  34.199   6.589  14.360
29605W        W97834  41.504  20.089  14.705
29606W        W97835  32.464  14.889  14.275
29607W        W97836  13.997  37.358   4.234
29608W        W97837  36.292  29.089  10.355
29609W        W97838   1.495   1.861   3.839
29610W        W97839  34.982  32.011  13.075
29611W        W97840  19.093  23.019  14.708
29612W        W97841   1.975   6.258   1.032
29613W        W97842  41.538   7.737  11.016
29614W        W97843  16.827  40.331   3.766
29615W        W97844  39.115  37.098   0.274
29616W        W97845   0.830  26.514  13.513
29617W        W97846  33.924   9.265   2.812
29618W        W97847  26.370  21.952  11.103
29619W        W97848  41.876   4.705   2.715
29620W        W97849  16.197   8.003  13.574
29621W        W97850  12.868  31.785  10.762
29622W        W97851  43.765  37.621  14.435
29623W        W97852  44.029  13.195  10.740
29624W        W97853  34.499   0.296  13.032
29625W        W97854  32.881  18.823  11.935
29626W        W97855   1.959  13.340   1.829
29627W        W97856   0.563  41.552   3.329
29628W        W97857  33.067  12.393  12.400
29629W        W97858  16.650  24.866  10.756
29630W        W97859  24.956   1.955   2.782
29631W        W97860  44.103  25.183   4.121
29632W        W97861   5.621  27.945   0.263
29633W        W97862  40.199   5.449   2.819
29634W        W97863   7.258  25.740   0.857
29635W        W97864  37.541  34.504   1.389
29636W        W97865   3.582  38.644   2.687
29637W        W97866  16.350  18.566  11.013
29638W        W97867  23.682  37.937   4.553
29639W        W97868  13.713  28.244   2.309
29640W        W97869  27.602  14.347  14.733
29641W        W97870  23.882  39.875  11.985
29642W        W97871  16.168  38.978  12.840
29643W        W97872  33.085  16.553   4.171
29644W        W97873  25.287  10.732   2.348
29645W        W97874  32.029  24.921  11.264
29646W        W97875  27.057  37.560  11.923
29647W        W97876  18.446  29.892  11.053
29648W        W97877  42.399  33.545   0.342
29649W        W97878  28.915  13.681   3.271
29650W        W97879  43.027   3.326  13.868
29651W        W97880  16.153  36.786   1.532
29652W        W97881  44.264  23.041   3.332
29653W        W97882   1.437   1.381  14.941
29654W        W97883  21.138  23.657  13.660
29655W        W97884   1.768  13.159   3.245
29656W        W97885  25.232  10.113   2.733
29657W        W97886  36.281   9.243   0.588
29658W        W97887  19.659  11.559  12.525
29659W        W97888  33.557  41.014  13.021
29660W        W97889  23.551   2.604   2.495
29661W        W97890  23.452  15.623   3.669
29662W        W97891  22.279  30.187  12.041
29663W        W97892  16.092  14.633  14.282
29664W        W97893  23.404  22.730   3.650
29665W        W97894  14.556  26.520   2.301
29666W        W97895   6.326  14.593  10.389
29667W        W97896  20.609  30.629   1.743
29668W        W97897  42.787  25.433  11.775
29669W        W97898  31.209   2.297   1.292
29670W        W97899   3.860  28.718  12.523
29671W        W97900  28.601  38.168  14.900
29672W        W97901   1.787   0.709  13.414
29673W        W97902  27.730  18.555   2.593
29674W        W97903  12.180  43.038  11.129
29675W        W97904   2.398  29.541   0.043
29676W        W97905   6.358  19.564   0.260
29677W        W97906  19.130  42.594  13.063
29678W        W97907  33.785   2.869  14.836
29679W        W97908   5.318  36.646  10.619
29680W        W97909  17.535  20.027   2.598
29681W        W97910  24.156   4.565   3.911
29682W        W97911  20.483   1.489  13.589
29683W        W97912  43.967  21.996  11.570
29684W        W97913  25.284  28.097  11.903
29685W        W97914   4.310  39.513  13.007
29686W        W97915   1.158  18.777   1.188
29687W        W97916   3.784  18.288  12.472
29688W        W97917   8.643  37.593   2.255
29689W        W97918  37.584  21.400   2.582
29690W        W97919  41.986   4.196   2.902
29691W        W97920   8.348  13.318   4.427
29692W        W97921  42.104  26.765   2.795
29693W        W97922  24.100   7.710   2.437
29694W        W97923  16.833  22.273  14.951
29695W        W97924   7.939   4.358  13.982
29696W        W97925  35.805  38.052   1.824
29697W        W97926  18.167  36.511   1.675
29698W        W97927   2.700  39.179  13.983
29699W        W97928  18.647  33.061  13.431
29700W        W97929  25.301   1.297  14.800
29701W        W97930  13.033  41.397  10.768
29702W        W97931  37.377  14.352  13.008
29703W        W97932   5.521  37.099   3.683
29704W        W97933  34.345  42.368  10.641
29705W        W97934  24.653  24.629  13.156
29706W        W97935  17.587  38.874  10.721
29707W        W97936  15.870  11.676   3.343
29708W        W97937  36.337  20.591   4.534
29709W        W97938  22.096  31.472   3.276
29710W        W97939  11.637  38.365  10.224
29711W        W97940   0.677  10.531  14.921
29712W        W97941  38.629  30.729  12.886
29713W        W97942  17.518   3.399  13.861
29714W        W97943  42.814  28.692  11.976
29715W        W97944   8.089  32.968  12.636
29716W        W97945  35.848   5.703  10.427
29717W        W97946   8.649  12.751  11.118
29718W        W97947  28.175  30.708  14.915
29719W        W97948  19.290  44.351  12.994
29720W        W97949  27.604  17.595   4.132
29721W        W97950  20.127  11.271  12.403
29722W        W97951  39.607  26.929   4.100
29723W        W97952  27.616   3.639  14.833
29724W        W97953  37.426  17.446   5.059
29725W        W97954  36.835  29.180  13.338
29726W        W97955  20.033  27.552   0.382
29727W        W97956  11.216  33.090   3.601
29728W        W97957  12.800  15.848  12.407
29729W        W97958  22.755  37.860   4.595
29730W        W97959  14.450  28.198   2.698
29731W        W97960  19.175  38.779   5.073
29732W        W97961  40.319  14.786   4.749
29733W        W97962  25.131  18.650   2.687
29734W        W97963   3.407   0.263   1.059
29735W        W97964  10.253  40.784   1.654
29736W        W97965  26.162   2.674  11.549
29737W        W97966   3.337  16.827   3.153
29738W        W97967  41.520   3.358  14.127
29739W        W97968  44.416  32.106  14.148
29740W        W97969  17.295  23.227   0.559
29741W        W97970  32.703  37.656  11.120
29742W        W97971  25.040  28.550  11.763
29743W        W97972   3.143  37.057  13.262
29744W        W97973  24.986   6.680   3.543
29745W        W97974  13.566  19.220  12.858
29746W        W97975   9.055  35.145   5.142
29747W        W97976   8.681   0.789   1.276
29748W        W97977  25.201  30.541  13.910
29749W        W97978  25.689  25.667  14.789
29750W        W97979  36.343  13.740   4.735
29751W        W97980  20.634  15.329   1.422
29752W        W97981  15.594  42.314  13.141
29753W        W97982  15.744  33.683   3.789
29754W        W97983  14.595  19.541  10.907
29755W        W97984   1.294   6.574  12.050
29756W        W97985  12.568  39.829   3.259
29757W        W97986   8.354  43.944  12.582
29758W        W97987   5.846   2.913   4.855
29759W        W97988  33.951  36.994  12.322
29760W        W97989  19.257  36.756   2.268
29761W        W97990   5.972  16.701   3.816
29762W        W97991  22.498  44.236   4.227
29763W        W97992  11.618  34.901   4.588
29764W        W97993  27.668   7.906   1.166
29765W        W97994  34.808  22.994  14.847
29766W        W97995  36.800   5.485   0.951
29767W        W97996  20.201  31.652  14.353
29768W        W97997  11.457  34.679   2.313
29769W        W97998   4.494  33.449   3.267
29770W        W97999  37.133  43.238   0.607
29771W        W98000  31.208  15.714  13.493
29772W        W98001  20.363  26.747   4.263
29773W        W98002   8.286  27.616   4.335
29774W        W98003  26.197  21.460  14.197
29775W        W98004   9.512  40.879   1.224
29776W        W98005  24.515  26.508  12.412
29777W        W98006  25.204  17.672   4.179
29778W        W98007   5.922  22.156   3.643
29779W        W98008  37.947  14.129   1.258
29780W        W98009   9.725  25.321   1.503
29781W        W98010  28.129  25.722   3.846
29782W        W98011  24.155  29.518  12.585
29783W        W98012  22.533  26.077   0.936
29784W        W98013  42.829  10.772  12.799
29785W        W98014  41.295  20.211  11.932
29786W        W98015  14.299  28.729   0.505
29787W        W98016  23.979  13.474  12.666
29788W        W98017  11.477   0.841   4.995
29789W        W98018  38.047   7.457   2.795
29790W        W98019  10.250  29.681   0.808
29791W        W98020  18.436  40.485  14.441
29792W        W98021  38.387  42.934  13.786
29793W        W98022  36.876  38.893   1.769
29794W        W98023  15.771   4.406   0.840
29795W        W98024  21.683   0.764  10.126
29796W        W98025   6.166  25.413  13.507
29797W        W98026  19.764  36.823   3.154
29798W        W98027  40.824  13.181  11.158
29799W        W98028   3.272   6.242   3.326
29800W        W98029  11.647  19.680  14.707
29801W        W98030  38.032   8.867   0.894
29802W        W98031   2.620  43.762   2.714
29803W        W98032  17.137  36.388   4.904
29804W        W98033  34.092  35.285  12.759
29805W        W98034   1.057  42.280  14.401
29806W        W98035  26.930  20.946  14.989
29807W        W98036  32.319  19.597   0.634
29808W        W98037  42.977  10.194   4.283
29809W        W98038  19.793  35.402   3.598
29810W        W98039   1.084  38.557   0.950
29811W        W98040  38.568   3.390   2.440
29812W        W98041  41.530  21.696  12.828
29813W        W98042   3.768  42.394   1.438
29814W        W98043  20.745  35.205  10.000
29815W        W98044   0.931  31.668   4.614
29816W        W98045  32.556  31.501   3.503
29817W        W98046  21.001  41.190   4.995
29818W        W98047  27.475  10.259  12.021
29819W        W98048   0.522  32.613   4.669
29820W        W98049  33.914  37.247   0.766
29821W        W98050   6.700   5.537   2.073
29822W        W98051  20.484  10.981   0.780
29823W        W98052  32.367  20.604  12.438
29824W        W98053  15.778   5.722   1.245
29825W        W98054  33.328  11.717   2.382
29826W        W98055   0.331  35.093  11.584
29827W        W98056  40.129  17.404   1.890
29828W        W98057  25.965  39.926  12.085
29829W        W98058  34.150   1.791   0.365
29830W        W98059   6.710  17.295   3.699
29831W        W98060  37.018  33.963  10.973
29832W        W98061  32.890  42.188   2.783
29833W        W98062   9.142  35.480  13.790
29834W        W98063   6.276   8.284  11.608
29835W        W98064  28.006  33.089   2.816
29836W        W98065  22.969  20.974   1.803
29837W        W98066  15.778   2.646   1.432
29838W        W98067  13.315  15.075   0.436
29839W        W98068  19.786   2.101   0.975
29840W        W98069  36.847  41.186  13.029
29841W        W98070  15.095  36.976  13.820
29842W        W98071  15.665  44.328  13.558
29843W        W98072  37.936  19.394  12.483
29844W        W98073  30.019  24.459  11.088
29845W        W98074  29.062   3.843  12.541
29846W        W98075  39.704  16.140   0.492
29847W        W98076   9.353  38.041  11.133
29848W        W98077  28.518  37.974   0.367
29849W        W98078   8.354  25.251  11.163
29850W        W98079  12.271  35.842   4.755
29851W        W98080  23.805  40.891  11.415
29852W        W98081  15.699  32.134   3.750
29853W        W98082  44.870  17.548   4.610
29854W        W98083   7.794  38.126  11.971
29855W        W98084  33.553  15.117   3.667
29856W        W98085  11.643  36.258   0.284
29857W        W98086  10.345   9.980   1.627
29858W        W98087   8.789  31.999  11.072
29859W        W98088   5.736  34.588   3.288
29860W        W98089   0.281  36.766   9.830
29861W        W98090  23.881  31.236   2.238
29862W        W98091  21.262  12.762   4.937
29863W        W98092  32.007  23.709   4.649
29864W        W98093  29.167   1.443  10.655
29865W        W98094  13.749   8.621   4.615
29866W        W98095  19.081  20.318   1.644
29867W        W98096  34.902  27.168   1.144
29868W        W98097  31.176  27.144  14.788
29869W        W98098  10.816  16.831  12.589
29870W        W98099  34.422   6.230   0.560
29871W        W98100  11.509   1.108  11.162
29872W        W98101   4.248  31.430  11.957
29873W        W98102  29.148  32.570   0.699
29874W        W98103  27.075  28.237   2.216
29875W        W98104  13.510  20.169  12.654
29876W        W98105  44.161  33.967  11.904
29877W        W98106  28.398  35.221   9.848
29878W        W98107  36.504  18.073  11.668
29879W        W98108   6.154  42.904  14.344
29880W        W98109  20.537  28.437  13.534
29881W        W98110  34.382  41.843  12.582
29882W        W98111  39.747   7.652   3.309
29883W        W98112  20.303  20.633   4.354
29884W        W98113  13.779  19.636  14.259
29885W        W98114  40.981  20.085  14.758
29886W        W98115  10.915  35.061   4.538
29887W        W98116  25.979  30.100  14.937
29888W        W98117   8.353  33.538   0.378
29889W        W98118   2.200  15.081  13.510
29890W        W98119  27.553  43.353  13.775
29891W        W98120  16.180  37.079  13.003
29892W        W98121  25.103  14.153   3.694
29893W        W98122  23.571  40.806  10.459
29894W        W98123  34.746   7.283  13.905
29895W        W98124  29.248   4.907  13.022
29896W        W98125   9.830  25.644   0.568
29897W        W98126  36.526  32.912   0.225
29898W        W98127  37.933  23.465   1.251
29899W        W98128  40.380  22.689  13.479
29900W        W98129   4.208  38.392  10.333
29901W        W98130  19.298  19.085   3.867
29902W        W98131  38.485  15.175  10.719
29903W        W98132  25.164   1.321   1.820
29904W        W98133  15.109   2.989   2.783
29905W        W98134  39.002   2.288   2.748
29906W        W98135  23.764  36.666   9.803
29907W        W98136  38.431   9.387  10.724
29908W        W98137  23.720  24.023   0.717
29909W        W98138   1.895   7.125  11.590
29910W        W98139  30.406  22.636   4.334
29911W        W98140  34.234   0.743   1.056
29912W        W98141  30.054  21.813  12.964
29913W        W98142  42.338  30.110   1.243
29914W        W98143  19.832  42.748  14.391
29915W        W98144  18.983  28.030  10.678
29916W        W98145   2.786  43.286   4.100
29917W        W98146  43.326   0.759  13.632
29918W        W98147   3.834  34.805   0.314
29919W        W98148  15.225  20.324   3.609
29920W        W98149   3.426   1.874  12.389
29921W        W98150  44.037  13.305  11.599
29922W        W98151  13.295  25.681  14.835
29923W        W98152  41.782  13.875  14.156
29924W        W98153  20.706  20.452  10.629
29925W        W98154   2.481  20.275  11.921
29926W        W98155  37.313  39.900   1.641
29927W        W98156  11.600  16.486   0.259
29928W        W98157   5.827  26.551   3.378
29929W        W98158   6.310  42.444  12.477
29930W        W98159  23.093   3.413  11.294
29931W        W98160   1.488  33.511   1.647
29932W        W98161  40.519  14.341  13.928
29933W        W98162   5.458  43.771  10.625
29934W        W98163  15.589  28.885   1.388
29935W        W98164  39.588   8.211   2.804
29936W        W98165  14.114  13.730  11.395
29937W        W98166  10.527  23.491   2.287
29938W        W98167  18.171  15.342   4.311
29939W        W98168  36.498  20.331   0.749
29940W        W98169   2.005  34.809   0.106
29941W        W98170   0.737   2.147   1.368
29942W        W98171  30.231  27.636   1.547
29943W        W98172  41.506   3.267   0.150
29944W        W98173  33.525  20.320   3.723
29945W        W98174  39.922  12.741  11.580
29946W        W98175  42.311  24.173   0.412
29947W        W98176  31.571  20.624   4.729
29948W        W98177  16.266  39.006   2.707
29949W        W98178  17.254  19.238  11.153
29950W        W98179  32.628   1.364   3.611
29951W        W98180  22.089  19.550  11.115
29952W        W98181  40.919   0.087   3.205
29953W        W98182  10.725  41.568   1.808
29954W        W98183  36.736  24.697   4.026
29955W        W98184  32.128  18.204  11.019
29956W        W98185   4.465  23.626  13.550
29957W        W98186  25.199  31.974  11.199
29958W        W98187  14.814  43.988  13.112
29959W        W98188  44.227   0.506   3.228
29960W        W98189  14.001  25.293  11.547
29961W        W98190  17.087  39.598  13.891
29962W        W98191  22.577  44.309   2.679
29963W        W98192  22.680  29.011   4.552
29964W        W98193  32.421  28.358  13.625
29965W        W98194   4.781  42.046   2.865
29966W        W98195  16.616  23.884  11.122
29967W        W98196  27.493  27.670   3.932
29968W        W98197   0.696  17.425   1.786
29969W        W98198  25.917   4.812   0.726
29970W        W98199  16.120  20.163   3.187
29971W        W98200  38.993  17.305  13.976
29972W        W98201  22.037  32.769  11.934
29973W        W98202  28.590  33.006   2.260
29974W        W98203  26.749  30.056   0.667
29975W        W98204   6.235  41.817  13.174
29976W        W98205  17.552  16.490   4.806
29977W        W98206  14.609   2.926  12.514
29978W        W98207   7.803  20.705  10.881
29979W        W98208   9.570  23.443   3.824
29980W        W98209  27.900  31.526   3.630
29981W        W98210  37.813  24.175  11.924
29982W        W98211  23.293  17.053  13.651
29983W        W98212  18.679  29.536   1.305
29984W        W98213  13.126  28.395  12.854
29985W        W98214  31.703  39.867  12.046
29986W        W98215  32.680  22.415   0.799
29987W        W98216  37.640  27.446  13.005
29988W        W98217  34.924  25.687   3.399
29989W        W98218   4.220  10.289  11.852
29990W        W98219  39.117   7.781   0.716
29991W        W98220  30.302  40.495   4.968
29992W        W98221   6.636  13.920  13.135
29993W        W98222  44.469  18.975  13.406
29994W        W98223  33.593  20.801  12.995
29995W        W98224  16.512  12.564   3.264
29996W        W98225  16.235  16.631   1.827
29997W        W98226   0.661  19.260   0.740
29998W        W98227   3.336  15.553   2.329
29999W        W98228  35.770  25.949   3.797
30000W        W98229  29.609  37.053  10.753
30001W        W98230   1.324  24.578  14.640
30002W        W98231  18.302  27.599  14.876
30003W        W98232  41.316  30.925   3.087
30004W        W98233  10.067  40.293   3.636
30005W        W98234   5.821  34.649  14.383
30006W        W98235  36.057  18.277  11.966
30007W        W98236  24.047  16.226  11.126
30008W        W98237  30.961  13.398   2.175
30009W        W98238  44.008   9.905  14.577
30010W        W98239   6.222  36.478  10.708
30011W        W98240  27.625  44.038  13.489
30012W        W98241  17.855  19.042   2.841
30013W        W98242  13.834  15.752  14.070
30014W        W98243   2.335  23.653   0.710
30015W        W98244  16.829  11.461  11.641
30016W        W98245  42.875  34.917  13.744
30017W        W98246  31.494   8.782  14.997
30018W        W98247  36.072   2.890  13.607
30019W        W98248  44.004  32.533  13.346
30020W        W98249  26.920  15.671  11.158
30021W        W98250  11.456  33.476   3.339
30022W        W98251  42.528  29.608  10.739
30023W        W98252  31.865  25.948  12.120
30024W        W98253  43.289  29.967  14.547
30025W        W98254  18.298  10.748  12.862
30026W        W98255  15.774  23.274   1.291
30027W        W98256  40.339  42.434  11.981
30028W        W98257  28.576   5.314  12.392
30029W        W98258  15.227   4.308  13.431
30030W        W98259  37.915   6.731   1.825
30031W        W98260   6.221  17.788   1.359
30032W        W98261   3.423   8.427   2.985
30033W        W98262  11.324   6.661   0.411
30034W        W98263  43.560   7.417   1.800
30035W        W98264   5.685  30.479  10.749
30036W        W98265  18.768   7.476   4.106
30037W        W98266  24.745  32.424   2.800
30038W        W98267  15.826  23.528   1.781
30039W        W98268  37.443  40.537   3.830
30040W        W98269  30.433   1.938  11.568
30041W        W98270  24.723  11.646  12.198
30042W        W98271  22.478  13.349  12.596
30043W        W98272  41.855  29.022  10.480
30044W        W98273  33.080  24.831   2.692
30045W        W98274   7.220  23.001   4.869
30046W        W98275   9.723  12.735   4.189
30047W        W98276  44.271   5.131   2.051
30048W        W98277   4.276   9.022   2.608
30049W        W98278  28.388   2.315  11.023
30050W        W98279  35.067  36.091  12.131
30051W        W98280   5.898   6.654   3.774
30052W        W98281  27.957  22.535  13.669
30053W        W98282   0.992  10.422   1.779
30054W        W98283  14.576  16.622   4.543
30055W        W98284  42.247  38.900  12.398
30056W        W98285  36.699   7.593   1.655
30057W        W98286  15.955  32.831   3.301
30058W        W98287  17.080  43.985  13.267
30059W        W98288   7.747  14.086  11.858
30060W        W98289  31.117  27.101   1.774
30061W        W98290   9.151  17.272  12.975
30062W        W98291  28.694  41.476  12.435
30063W        W98292  13.668  39.044  14.047
30064W        W98293  14.674  11.560  12.057
30065W        W98294  32.327   7.784   1.729
30066W        W98295   2.018  10.834  12.063
30067W        W98296  19.996  25.634  11.442
30068W        W98297  42.870  18.015   4.529
30069W        W98298  35.471  22.988  11.515
30070W        W98299   2.858  34.461   0.321
30071W        W98300  43.221  44.155   4.877
30072W        W98301  25.111  36.239   5.038
30073W        W98302  24.161  27.991   3.239
30074W        W98303  11.179   1.960  11.400
30075W        W98304  11.145  10.727   4.140
30076W        W98305  42.790  28.365  13.935
30077W        W98306  39.333  10.865  13.269
30078W        W98307  26.008   0.016  10.784
30079W        W98308  32.555  11.834   0.338
30080W        W98309  42.449  23.121  12.218
30081W        W98310  11.885  16.372   4.625
30082W        W98311   6.765  43.373  13.235
30083W        W98312  41.035  26.452  12.041
30084W        W98313  13.307  25.399  13.854
30085W        W98314  32.188   8.308  14.398
30086W        W98315  27.441  25.627  12.497
30087W        W98316  37.555  13.456   2.861
30088W        W98317  19.659  15.027  12.396
30089W        W98318   2.770  13.821  14.556
30090W        W98319  40.136  14.852  12.972
30091W        W98320  31.010  35.117  13.925
30092W        W98321   1.346  25.220  13.347
30093W        W98322  24.881   8.455  11.518
30094W        W98323   3.857  18.572  12.893
30095W        W98324  24.236  38.980   2.353
30096W        W98325  42.754  36.066  12.292
30097W        W98326  22.208  28.685  12.198
30098W        W98327   2.803  22.499  14.299
30099W        W98328  14.143   3.077  14.582
30100W        W98329   5.715   0.023  14.926
30101W        W98330  24.749  39.783   3.764
30102W        W98331  42.700  16.699   2.516
30103W        W98332  39.976   3.725  12.066
30104W        W98333  43.878  17.307  11.179
30105W        W98334   7.982  29.087  12.671
30106W        W98335  36.315  25.501  13.594
30107W        W98336   6.670  22.853  14.462
30108W        W98337  26.913  31.449  10.670
30109W        W98338   5.215   3.609   2.894
30110W        W98339  26.602  29.444   4.300
30111W        W98340   3.927  26.312   3.145
30112W        W98341  13.900   6.222   3.375
30113W        W98342  39.009  34.073  14.491
30114W        W98343   2.809  13.063  10.481
30115W        W98344   7.548   0.336  11.534
30116W        W98345   1.457   6.723  14.519
30117W        W98346   0.241  15.706  13.961
30118W        W98347  18.459   2.667  14.086
30119W        W98348  32.029  28.102  13.854
30120W        W98349  21.131  16.711  12.987
30121W        W98350   4.323  29.431  13.011
30122W        W98351  33.002  41.396   1.158
30123W        W98352   2.773  29.170   0.006
30124W        W98353   6.298  30.850  12.926
30125W        W98354  18.817   7.805  11.354
30126W        W98355  22.022  16.788  14.064
30127W        W98356   5.002  34.401   0.522
30128W        W98357  32.439  23.989   0.485
30129W        W98358  33.413  40.370   4.290
30130W        W98359  23.150   6.767  11.058
30131W        W98360   3.415   7.115   0.806
30132W        W98361  33.008  15.292   2.827
30133W        W98362  19.662   2.865  12.434
30134W        W98363  41.089   2.049   0.311
30135W        W98364  15.071  11.276   3.772
30136W        W98365  44.821   1.274  13.141
30137W        W98366  31.417  11.279  11.658
30138W        W98367  39.041  34.179  11.544
30139W        W98368  36.435   5.652   3.179
30140W        W98369  14.834  42.491   3.460
30141W        W98370  36.445  38.912  11.085
30142W        W98371  24.806  42.914   3.221
30143W        W98372   9.866  35.104  12.487
30144W        W98373  19.097  23.812   4.500
30145W        W98374  34.018  32.656   1.995
30146W        W98375  16.886   9.915  12.331
30147W        W98376  43.067  26.537   0.960
30148W        W98377   8.367  35.239  12.108
30149W        W98378  37.911   8.930   4.999
30150W        W98379  16.590   0.231  11.550
30151W        W98380  42.958  42.424  13.361
30152W        W98381  19.791  25.060  10.581
30153W        W98382  18.492  42.666  10.877
30154W        W98383   3.898  25.030   4.463
30155W        W98384  18.873  16.206   3.571
30156W        W98385  27.665  11.399   1.503
30157W        W98386  15.872  26.385   2.676
30158W        W98387  28.778  27.526   2.184
30159W        W98388  17.821  18.178  11.408
30160W        W98389  36.545  31.957  13.125
30161W        W98390  35.856  13.094  14.594
30162W        W98391  13.751  10.220   2.157
30163W        W98392  25.589  26.274   4.340
30164W        W98393  24.561  33.743  12.499
30165W        W98394   7.823  21.866   3.192
30166W        W98395  33.542   7.837   0.113
30167W        W98396  41.857  31.308  14.215
30168W        W98397  15.867  22.396   1.794
30169W        W98398  27.825  15.637   2.279
30170W        W98399   0.006  32.794  13.583
30171W        W98400   1.286  24.161  11.266
30172W        W98401  33.026  44.948   2.353
30173W        W98402  44.997  22.154  14.131
30174W        W98403  22.079  20.588   0.673
30175W        W98404   2.288   8.079  13.452
30176W        W98405   5.342  11.259  10.771
30177W        W98406   9.125  44.068  12.939
30178W        W98407  37.917   9.780  11.242
30179W        W98408  38.423  22.038   4.189
30180W        W98409  13.614  38.542   3.702
30181W        W98410  11.139  20.167  11.921
30182W        W98411  42.192  13.016  12.118
30183W        W98412  18.022  27.350  14.496
30184W        W98413  21.524  17.146   3.595
30185W        W98414  28.501   0.051  11.872
30186W        W98415   7.617   9.444  13.511
30187W        W98416  26.245   3.009  11.052
30188W        W98417  24.265  42.074  13.323
30189W        W98418  30.145  36.838  11.649
30190W        W98419   2.656  18.637   4.111
30191W        W98420  21.227   0.940   3.242
30192W        W98421   6.100   1.234  14.980
30193W        W98422  29.044  20.587  12.903
30194W        W98423   4.008  14.124   4.127
30195W        W98424  12.212  25.394   0.783
30196W        W98425  12.165  10.185  13.063
30197W        W98426  13.106  18.333  14.783
30198W        W98427  35.036  16.606  13.026
30199W        W98428  17.577  44.427   2.288
30200W        W98429  16.777  27.513   4.697
30201W        W98430  20.743   9.609   1.421
30202W        W98431  37.644   9.847  11.673
30203W        W98432   6.184  10.107  14.083
30204W        W98433  29.928  44.619   2.693
30205W        W98434   4.815  23.610   2.912
30206W        W98435   6.952   6.738  11.261
30207W        W98436  24.886  36.152   3.021
30208W        W98437  25.200   0.451  11.185
30209W        W98438  32.867   4.305   3.788
30210W        W98439  25.720  15.995  12.964
30211W        W98440   8.742   7.737   1.902
30212W        W98441  32.847  18.226   3.285
30213W        W98442  41.429  34.860   1.683
30214W        W98443  36.121  26.911   4.335
30215W        W98444   3.768  41.591   2.267
30216W        W98445  42.429   5.394  12.108
30217W        W98446  23.207   5.453  11.519
30218W        W98447  22.212   4.245   1.278
30219W        W98448   4.857  28.153   2.159
30220W        W98449  41.323  12.157  13.747
30221W        W98450  35.924  19.735  13.466
30222W        W98451  39.599  39.290  13.036
30223W        W98452  43.482   8.100  12.037
30224W        W98453  18.899  21.678  10.108
30225W        W98454  17.407  17.053   3.545
30226W        W98455  42.741   4.873   4.757
30227W        W98456  35.294  36.011  13.406
30228W        W98457  28.634   5.357   1.865
30229W        W98458  28.760  24.006  14.928
30230W        W98459  20.208  10.434   0.621
30231W        W98460  11.534  24.769  13.672
30232W        W98461  43.267  16.189   3.274
30233W        W98462  22.579  22.707  14.340
30234W        W98463  16.656  26.503   1.291
30235W        W98464  36.338  19.070   1.445
30236W        W98465  18.330  26.672   2.379
30237W        W98466  16.319  11.677  14.429
30238W        W98467   0.731  39.055  12.962
30239W        W98468  42.941  24.939   0.108
30240W        W98469  18.125   9.050   0.797
30241W        W98470  22.135  13.975  14.500
30242W        W98471  44.852  32.231   2.843
30243W        W98472   2.878  26.572  10.613
30244W        W98473  29.623   5.285  12.453
30245W        W98474  26.192  23.584   2.865
30246W        W98475  22.757  41.848   2.222
30247W        W98476  25.562  22.526  13.920
30248W        W98477  41.847   7.657   0.299
30249W        W98478   5.718  33.851  11.585
30250W        W98479  18.647  18.772   4.837
30251W        W98480   6.882   3.937   3.377
30252W        W98481  10.420  34.499   0.860
30253W        W98482  15.311  40.519   3.148
30254W        W98483  33.949  31.413   1.052
30255W        W98484  27.084  24.058  11.369
30256W        W98485   4.822  37.273  12.882
30257W        W98486  19.673  43.988  11.073
30258W        W98487  24.644  10.195  13.294
30259W        W98488  12.246  23.022  11.702
30260W        W98489  32.309  30.402  10.888
30261W        W98490  41.759  35.427  10.554
30262W        W98491  15.933  38.707  10.135
30263W        W98492  33.892  42.005   1.804
30264W        W98493  30.015  14.515   1.965
30265W        W98494  31.169  23.221   4.236
30266W        W98495  22.234  25.956  12.885
30267W        W98496  23.611  23.774  11.620
30268W        W98497  16.154  11.430  14.849
30269W        W98498  27.396  35.406  11.189
30270W        W98499  28.278  21.135  11.979
30271W        W98500   0.590  14.141  10.635
30272W        W98501  41.005  30.295  11.145
30273W        W98502  34.450  30.886  14.346
30274W        W98503  25.020  20.605   4.327
30275W        W98504  25.172  30.226  10.691
30276W        W98505  39.032   2.819   2.781
30277W        W98506  34.900   5.317   0.277
30278W        W98507  12.052  33.334  10.608
30279W        W98508  36.022  21.830   0.913
30280W        W98509   6.555  26.296   4.974
30281W        W98510  43.456  37.778   3.353
30282W        W98511  23.867  21.198  11.992
30283W        W98512   8.799  39.503  14.798
30284W        W98513  43.980  16.078  10.644
30285W        W98514  27.965  31.491   0.918
30286W        W98515  35.063  31.171   3.717
30287W        W98516  32.421  10.641   3.290
30288W        W98517   8.709  42.486   3.672
30289W        W98518  30.896  40.485  13.347
30290W        W98519  34.084  14.848  10.596
30291W        W98520  37.271  18.573   4.900
30292W        W98521   1.958  28.626  11.381
30293W        W98522   8.236  10.671   0.799
30294W        W98523  19.651  44.575  12.044
30295W        W98524  25.933   5.226   1.871
30296W        W98525  26.120  38.256  14.899
30297W        W98526  33.387  43.235  11.609
30298W        W98527   5.433  21.156  11.146
30299W        W98528  43.777  15.251  14.834
30300W        W98529  30.137  16.550  11.124
30301W        W98530  14.299  19.002  12.007
30302W        W98531  14.550  18.283  12.352
30303W        W98532   6.531  32.406  11.901
30304W        W98533  26.826   1.764  13.426
30305W        W98534  42.980  41.313  12.662
30306W        W98535   5.594  10.141  11.189
30307W        W98536   1.835   2.026  12.882
30308W        W98537   7.867  41.941   5.128
30309W        W98538  40.502   2.875   0.289
30310W        W98539   4.356  18.003   0.533
30311W        W98540   8.643  34.703  12.099
30312W        W98541  17.192  16.118  13.502
30313W        W98542  16.343  29.151  13.001
30314W        W98543  37.507  37.891   0.367
30315W        W98544   9.308  19.032  12.067
30316W        W98545  43.258  19.171   3.138
30317W        W98546  40.403  26.878   4.270
30318W        W98547  41.808  14.093   2.607
30319W        W98548  15.575  31.432  11.138
30320W        W98549   2.736   7.870  14.365
30321W        W98550  11.833  22.652   2.867
30322W        W98551  13.844  37.883  14.788
30323W        W98552  20.790  11.913   4.287
30324W        W98553  22.553  34.648   1.485
30325W        W98554  21.929  34.650  10.416
30326W        W98555  27.765  23.510   4.326
30327W        W98556  41.067  31.427   1.076
30328W        W98557  13.884  20.632  13.983
30329W        W98558  32.299   9.910  11.452
30330W        W98559  20.994  21.695  12.058
30331W        W98560  25.943  41.045  12.383
30332W        W98561  35.795  28.234  11.418
30333W        W98562  31.636  20.134   4.070
30334W        W98563   2.029  34.274   2.013
30335W        W98564  35.790  18.270   2.654
30336W        W98565  14.811   9.413  14.319
30337W        W98566  33.178  17.819   3.256
30338W        W98567  10.689  15.541  13.463
30339W        W98568  28.297  29.443   1.781
30340W        W98569   4.033  14.673   2.870
30341W        W98570  19.047  44.030   3.589
30342W        W98571  36.095  29.850  12.527
30343W        W98572   6.923  11.318   0.095
30344W        W98573  16.343  28.904  13.495
30345W        W98574  18.614  41.007  13.642
30346W        W98575   8.278  40.860   2.336
30347W        W98576  19.093  28.221   0.902
30348W        W98577  41.826  26.629  12.056
30349W        W98578  25.596  24.628  14.991
30350W        W98579  18.862  24.932  12.156
30351W        W98580  10.399   0.260   1.119
30352W        W98581   6.660  28.584  14.839
30353W        W98582  37.372  33.476  12.578
30354W        W98583  37.889   7.642   0.487
30355W        W98584  35.099  24.065  12.849
30356W        W98585  30.172  20.839  11.637
30357W        W98586  36.243  36.960  14.843
30358W        W98587  16.872  13.173  14.904
30359W        W98588  14.828  20.435   1.324
30360W        W98589   1.210   5.414  14.728
30361W        W98590  29.457   8.394  14.941
30362W        W98591  29.885  43.460   3.367
30363W        W98592  41.127  44.392  13.800
30364W        W98593  44.425  30.564   1.762
30365W        W98594   2.488  20.342  13.060
30366W        W98595  24.014   7.748  14.306
30367W        W98596  17.955  31.899   2.441
30368W        W98597   4.087  16.412  13.808
30369W        W98598  18.930  19.133   3.456
30370W        W98599   1.774  22.477   2.242
30371W        W98600   4.360  31.608  14.142
30372W        W98601  41.897  21.461  13.094
30373W        W98602  19.555  26.588  11.594
30374W        W98603  37.451  43.949   3.746
30375W        W98604  26.992   9.230  10.930
30376W        W98605   5.121  31.168  11.016
30377W        W98606  20.347  14.725   3.226
30378W        W98607  25.055  13.411  14.055
30379W        W98608  11.126  13.415   4.549
30380W        W98609   4.153  11.762  13.479
30381W        W98610  38.670  31.915  11.170
30382W        W98611   4.176  13.613   4.829
30383W        W98612  15.615  32.390   4.185
30384W        W98613  32.117   7.300   1.445
30385W        W98614  15.888  25.107   2.781
30386W        W98615  36.855  17.188   0.330
30387W        W98616  31.582  27.281  12.083
30388W        W98617  37.787   1.457   0.787
30389W        W98618   4.370  36.665   5.065
30390W        W98619   9.370  25.978   2.717
30391W        W98620  13.572   4.851  13.557
30392W        W98621  43.998  19.542  13.122
30393W        W98622  19.455  17.923  13.382
30394W        W98623  24.618  42.013   2.342
30395W        W98624   6.886  11.019   2.431
30396W        W98625  35.664  21.123   2.717
30397W        W98626   6.831  44.009  11.918
30398W        W98627  14.626   7.356   0.444
30399W        W98628  40.852  37.352  13.802
30400W        W98629  10.360  12.648  13.362
30401W        W98630   7.378  12.649   3.184
30402W        W98631  31.055  16.103  13.823
30403W        W98632  43.112  26.594   4.062
30404W        W98633   9.251   8.604   2.731
30405W        W98634  28.247  27.993   1.724
30406W        W98635  40.053   3.880  13.574
30407W        W98636  26.514  34.961  12.156
30408W        W98637   4.662  18.329  14.314
30409W        W98638  30.310  38.806   0.908
30410W        W98639   5.444  29.966  12.491
30411W        W98640  23.071  29.506  12.670
30412W        W98641  35.468  30.149   1.306
30413W        W98642  41.616  17.121  10.708
30414W        W98643   0.447   1.525  13.881
30415W        W98644   6.942  18.127   3.270
30416W        W98645  15.384  40.884  13.203
30417W        W98646  23.552   1.741   2.458
30418W        W98647  19.207  44.346  14.368
30419W        W98648  35.611  25.804  12.570
30420W        W98649   6.828   4.341  12.053
30421W        W98650  16.582  18.203   0.807
30422W        W98651   6.831   4.560   0.843
30423W        W98652  30.976  29.881  13.507
30424W        W98653  23.449  20.973   2.024
30425W        W98654   2.950   6.401  12.590
30426W        W98655   1.589   2.949  11.615
30427W        W98656  38.111  34.664  10.803
30428W        W98657  35.484  31.114   0.544
30429W        W98658   9.281  34.807   3.726
30430W        W98659  43.955  37.490  11.615
30431W        W98660  41.125  26.971  12.058
30432W        W98661  27.239  28.986   3.370
30433W        W98662   4.706  20.275  11.908
30434W        W98663  35.788   4.819   5.047
30435W        W98664   7.592  15.761   5.128
30436W        W98665  31.804  34.373   2.391
30437W        W98666   6.744  42.211   2.750
30438W        W98667   3.900  26.497  11.053
30439W        W98668  31.638   6.031  11.387
30440W        W98669  31.952  23.923  12.072
30441W        W98670   7.385  43.308   2.717
30442W        W98671  15.707   8.790  11.630
30443W        W98672  25.055  26.703   3.663
30444W        W98673  44.007  30.067  11.611
30445W        W98674  14.298   1.958   4.706
30446W        W98675   4.695  16.860   2.693
30447W        W98676  31.085   8.720   2.306
30448W        W98677  12.655  25.589  12.061
30449W        W98678  13.670   7.234  10.995
30450W        W98679  11.607  33.297   2.902
30451W        W98680  30.621  32.085  13.513
30452W        W98681  15.802  32.933   0.964
30453W        W98682  31.762   7.364  13.902
30454W        W98683  16.203  13.051  12.043
30455W        W98684  34.978  13.383  10.909
30456W        W98685  44.780  19.775  12.117
30457W        W98686  31.106  23.726  10.932
30458W        W98687  39.077  27.645   4.796
30459W        W98688  24.717  41.760   1.891
30460W        W98689  40.517  37.260  11.950
30461W        W98690  14.445   7.230   5.086
30462W        W98691  30.153   3.657   3.664
30463W        W98692  20.256  11.309   2.876
30464W        W98693  14.617  23.970  13.610
30465W        W98694  13.608  36.571   4.509
30466W        W98695  28.972  27.240  14.053
30467W        W98696  13.909   9.960   2.884
30468W        W98697  43.617  28.033  14.761
30469W        W98698  28.180   5.687   0.766
30470W        W98699  33.967   6.051   0.793
30471W        W98700   7.719  26.671   0.854
30472W        W98701  24.072  11.169   2.616
30473W        W98702  24.066  33.906  12.396
30474W        W98703  30.675  38.505  14.542
30475W        W98704  25.783   8.214   4.406
30476W        W98705  42.736  19.762   4.229
30477W        W98706   0.981   6.697  11.642
30478W        W98707  37.168  29.139  12.443
30479W        W98708  39.930  20.276   0.324
30480W        W98709  19.487   8.681   0.520
30481W        W98710  26.759   2.016   3.777
30482W        W98711   0.346   7.264  11.599
30483W        W98712  15.214  30.611   3.267
30484W        W98713  22.679  32.140   0.691
30485W        W98714  21.049  16.871  14.932
30486W        W98715  15.102   3.215   3.253
30487W        W98716   7.880   2.881   4.107
30488W        W98717  17.258   8.624  14.867
30489W        W98718   9.901  32.517   4.117
30490W        W98719  42.545   6.782  12.122
30491W        W98720  18.612  11.502   4.939
30492W        W98721  23.874  18.446   4.296
30493W        W98722  15.113  44.036   1.342
30494W        W98723  27.135  18.153   0.541
30495W        W98724  31.087  26.162   2.845
30496W        W98725   8.417   8.322  11.148
30497W        W98726  39.342  25.137   1.737
30498W        W98727  12.593  37.533   3.567
30499W        W98728  36.768  42.379   2.200
30500W        W98729  12.590  16.769   4.616
30501W        W98730  29.072   7.300   4.475
30502W        W98731  44.433   2.791   4.259
30503W        W98732  34.192  16.588   0.838
30504W        W98733  32.849   1.101  12.538
30505W        W98734  28.953   5.300   3.354
30506W        W98735  37.050   0.275  14.923
30507W        W98736  38.835   5.962  12.493
30508W        W98737  40.070  41.497   1.763
30509W        W98738  13.347  20.828  14.500
30510W        W98739  44.774  27.444   2.227
30511W        W98740  11.515  30.348  12.957
30512W        W98741   2.918  44.761   1.841
30513W        W98742  32.090  44.690  14.944
30514W        W98743  16.042  41.249  10.448
30515W        W98744  14.830   3.257   4.667
30516W        W98745  20.175  38.539   0.290
30517W        W98746   4.464  23.487  13.026
30518W        W98747  14.962  25.906  12.080
30519W        W98748  37.094   1.002  13.377
30520W        W98749  27.425  13.338  10.631
30521W        W98750  23.578   3.141   0.640
30522W        W98751  24.986  21.907   3.845
30523W        W98752  27.538  24.491  11.955
30524W        W98753  31.069  17.263  14.549
30525W        W98754   5.475  14.351  10.691
30526W        W98755   2.279  22.297  11.933
30527W        W98756   2.817  23.530   4.646
30528W        W98757   0.987  33.406   4.186
30529W        W98758  42.974  24.727  12.450
30530W        W98759  16.103   5.790  12.059
30531W        W98760  43.558  44.853   1.890
30532W        W98761  26.451   4.878  13.870
30533W        W98762   2.458  12.591   3.409
30534W        W98763  23.330   0.486   2.388
30535W        W98764  28.521  10.144   4.409
30536W        W98765   0.756  32.452  11.014
30537W        W98766  13.075  26.004  12.261
30538W        W98767  36.177  43.565  12.982
30539W        W98768  21.835  39.022  11.256
30540W        W98769  11.611  17.745   4.405
30541W        W98770  43.303  10.729  14.848
30542W        W98771   9.579   6.213   4.168
30543W        W98772   0.886   7.052   9.922
30544W        W98773  24.555   9.523   4.831
30545W        W98774   2.831  12.225   4.663
30546W        W98775   2.018   0.358  12.396
30547W        W98776  40.052  35.215  12.997
30548W        W98777  12.565  19.236   3.905
30549W        W98778  12.533   1.764   2.865
30550W        W98779  29.641   2.205  14.352
30551W        W98780  30.224  42.580  14.998
30552W        W98781  19.184  18.262   3.274
30553W        W98782  37.215   1.874  12.985
30554W        W98783  31.463  15.199  12.625
30555W        W98784  19.695   8.158  11.034
30556W        W98785  16.503  31.444  10.692
30557W        W98786  35.156  35.048  10.455
30558W        W98787   6.663  12.771  11.963
30559W        W98788   4.292  14.855   0.202
30560W        W98789  32.929  10.234  11.486
30561W        W98790   5.753  19.144   2.303
30562W        W98791  44.937  21.174  10.535
30563W        W98792  28.054  25.070   3.069
30564W        W98793  28.839  10.841   4.186
30565W        W98794  39.393  38.971  10.766
30566W        W98795  10.338   4.033  14.869
30567W        W98796   5.238  30.089   0.345
30568W        W98797  27.863  43.008   9.995
30569W        W98798   6.404  40.501  10.769
30570W        W98799  10.934  43.519   0.858
30571W        W98800  27.061  12.597   1.336
30572W        W98801  33.629  18.411  10.300
30573W        W98802  22.372  29.556   0.256
30574W        W98803  36.553   3.303   1.677
30575W        W98804   6.201   2.855   3.771
30576W        W98805  43.236  34.087   0.189
30577W        W98806  35.074  26.596  12.171
30578W        W98807  14.747  10.151   3.403
30579W        W98808  40.986  42.330  12.638
30580W        W98809   9.109  18.769  12.510
30581W        W98810  41.464  13.101   3.202
30582W        W98811  29.887   3.034  12.874
30583W        W98812  26.194  22.471   0.663
30584W        W98813  21.622  14.143  14.387
30585W        W98814  30.367  21.543  14.353
30586W        W98815   7.346  32.078  10.481
30587W        W98816   9.713  38.285  11.723
30588W        W98817  38.651  31.572  11.582
30589W        W98818  39.504  10.849  14.307
30590W        W98819  24.172  23.600   1.382
30591W        W98820   2.107  29.667  11.613
30592W        W98821  19.583  16.604   4.040
30593W        W98822  37.659  12.872  10.750
30594W        W98823  29.585  31.372  12.900
30595W        W98824  14.635  12.040   4.511
30596W        W98825   8.716  27.092  13.227
30597W        W98826  20.341   9.678  13.941
30598W        W98827  23.079   0.324   0.858
30599W        W98828  24.093  12.847  11.606
30600W        W98829  22.456  10.674  14.760
30601W        W98830  13.384  23.920  12.159
30602W        W98831  44.280  42.597   0.462
30603W        W98832  43.309  16.337  11.702
30604W        W98833  37.106  22.311   0.042
30605W        W98834   2.330   7.565  13.450
30606W        W98835  26.667   5.800   2.919
30607W        W98836  30.894  12.584  14.529
30608W        W98837  25.963  17.127   1.662
30609W        W98838   5.765  13.221  14.957
30610W        W98839   1.943  38.320   0.379
30611W        W98840  14.755  21.095   4.142
30612W        W98841   6.287  28.284   4.653
30613W        W98842  40.645  14.303   3.169
30614W        W98843  28.181   4.309  12.479
30615W        W98844  22.612   1.377  10.705
30616W        W98845  11.291  35.471   0.794
30617W        W98846  41.934  25.603  11.844
30618W        W98847   0.542  31.660   1.029
30619W        W98848  30.147   2.752   0.363
30620W        W98849  32.416  35.611  13.925
30621W        W98850  35.862  19.783   5.051
30622W        W98851  41.053  23.013   4.774
30623W        W98852   3.239  15.064   4.704
30624W        W98853  10.873  23.050   4.278
30625W        W98854  35.581  35.383   3.349
30626W        W98855   7.128  28.695  10.649
30627W        W98856  13.366  42.925   1.418
30628W        W98857  37.551  24.631   0.955
30629W        W98858  16.236  21.676  14.701
30630W        W98859  43.621  36.557  11.404
30631W        W98860  19.149  25.034   3.167
30632W        W98861  26.292  13.188   2.673
30633W        W98862  16.847  12.890  11.169
30634W        W98863  10.733  29.501   0.753
30635W        W98864  19.527  22.194  12.107
30636W        W98865  26.259  24.343  11.659
30637W        W98866  17.472  40.522  11.138
30638W        W98867  35.507  15.789   1.859
30639W        W98868   4.833  15.611   2.338
30640W        W98869  26.533  34.144  12.468
30641W        W98870  44.910  19.717  13.619
30642W        W98871  26.235   5.137   0.516
30643W        W98872   1.772  16.763   2.719
30644W        W98873  21.242   9.648   3.295
30645W        W98874  17.258  11.212  11.437
30646W        W98875  42.242  31.414  13.106
30647W        W98876  29.498   6.349   0.189
30648W        W98877  31.145  44.927   2.069
30649W        W98878  16.218  39.023   1.035
30650W        W98879  33.172  40.347   3.733
30651W        W98880  39.988  33.643   3.806
30652W        W98881  16.350  12.330  13.854
30653W        W98882  30.059  36.241  11.148
30654W        W98883  10.062   8.381  11.562
30655W        W98884  37.437   7.194   3.557
30656W        W98885  44.463  21.084  14.757
30657W        W98886  39.997  27.667   0.874
30658W        W98887  29.610  43.020  13.520
30659W        W98888  37.512  35.705   2.728
30660W        W98889  32.892  25.225   1.863
30661W        W98890   3.766  15.600   2.686
30662W        W98891  32.603  31.035   3.294
30663W        W98892  41.502   4.527   2.103
30664W        W98893  17.066   2.498  13.571
30665W        W98894  43.902  22.271   2.475
30666W        W98895   9.330   7.917  14.933
30667W        W98896  11.898  21.034  10.639
30668W        W98897  17.511  17.951   0.022
30669W        W98898  27.856   3.372   4.294
30670W        W98899  34.490  38.038  11.617
30671W        W98900   7.884  12.215   0.474
30672W        W98901  25.482  14.226   1.854
30673W        W98902  16.027  41.533   4.192
30674W        W98903  26.709  21.664  14.218
30675W        W98904  20.934  23.440   1.323
30676W        W98905   8.232  42.925  14.398
30677W        W98906  27.889   8.124   1.880
30678W        W98907   3.772  35.649  11.548
30679W        W98908  40.678  41.521  12.190
30680W        W98909  30.357  41.809   4.232
30681W        W98910  34.649  39.242   2.799
30682W        W98911   9.406  28.660   0.567
30683W        W98912   4.821  41.857  12.973
30684W        W98913  39.051  19.766  10.713
30685W        W98914   5.709   0.410  12.031
30686W        W98915  31.586  25.217   1.183
30687W        W98916  22.666  21.298  11.667
30688W        W98917  16.285   6.965  11.097
30689W        W98918  42.158   4.786  13.641
30690W        W98919  15.247  35.429   1.734
30691W        W98920  41.454  19.688   3.696
30692W        W98921  38.660  11.731   1.977
30693W        W98922  32.648  30.298   1.727
30694W        W98923  32.871  44.730  13.344
30695W        W98924  40.768   5.186  11.998
30696W        W98925  26.011  34.891  12.126
30697W        W98926   2.520  10.523   4.157
30698W        W98927   1.363  25.524  12.599
30699W        W98928  42.700   8.405  11.226
30700W        W98929  19.399   8.166   2.260
30701W        W98930   7.521  19.731  14.897
30702W        W98931  44.535   1.843   2.765
30703W        W98932  27.352  40.262  13.020
30704W        W98933  22.246  26.661  11.067
30705W        W98934  14.753  31.518   0.978
30706W        W98935  38.827  32.198   2.783
30707W        W98936  41.091  24.278   4.058
30708W        W98937  31.040  17.927  11.568
30709W        W98938  37.437  11.680  13.390
30710W        W98939   1.269   3.979  11.933
30711W        W98940  29.129   8.781   0.154
30712W        W98941   3.658  25.982  13.554
30713W        W98942  27.061  13.044   0.000
30714W        W98943   9.660  13.353  14.869
30715W        W98944  13.863  21.125  12.600
30716W        W98945  14.247   4.358  12.797
30717W        W98946  16.564  38.982   3.795
30718W        W98947  12.672   7.252   4.630
30719W        W98948  42.670   8.000   2.471
30720W        W98949  28.612  21.138  13.510
30721W        W98950  38.884  30.099  13.492
30722W        W98951   0.853  16.309   2.785
30723W        W98952   6.863  23.095   4.067
30724W        W98953  17.564  33.884   3.602
30725W        W98954  39.766  33.437  12.639
30726W        W98955   1.274  18.670   4.738
30727W        W98956  18.420  37.099   1.316
30728W        W98957  13.368  24.510  14.051
30729W        W98958  33.187  30.557  13.703
30730W        W98959   1.914  37.037   2.846
30731W        W98960  31.815   5.937   0.046
30732W        W98961   0.854  36.596   1.915
30733W        W98962  26.418  23.297   1.747
30734W        W98963  34.429   7.693   0.936
30735W        W98964  32.565  16.149  11.444
30736W        W98965  21.461  27.137  11.165
30737W        W98966  20.332  30.603  11.568
30738W        W98967  29.394  39.485   2.063
30739W        W98968  41.198  16.267   1.665
30740W        W98969  29.200   3.880   1.405
30741W        W98970   6.899   2.348   2.305
30742W        W98971   1.815  40.904   3.973
30743W        W98972  33.897  23.892   1.000
30744W        W98973  21.050  44.382  13.909
30745W        W98974  10.775   1.567   3.536
30746W        W98975   6.935  42.030  11.551
30747W        W98976  33.170  18.811   0.984
30748W        W98977   3.532  17.945  14.912
30749W        W98978   2.039   2.266   4.236
30750W        W98979  40.801  17.615  14.446
30751W        W98980   4.801  41.753   4.576
30752W        W98981  17.860   0.035   4.113
30753W        W98982  15.272   9.663   4.582
30754W        W98983  11.639  24.375  11.692
30755W        W98984  38.101  24.168  12.634
30756W        W98985  18.770   8.841   4.712
30757W        W98986  33.458   4.301  12.300
30758W        W98987  27.169  15.635   4.609
30759W        W98988  31.139   8.687  14.374
30760W        W98989  10.358  16.896   0.286
30761W        W98990  20.684  34.980   4.580
30762W        W98991  22.747  34.153   1.391
30763W        W98992  27.246  13.030  13.561
30764W        W98993   5.305   4.661   0.467
30765W        W98994  30.239  35.883  13.042
30766W        W98995  25.189  33.439  11.141
30767W        W98996  42.360   4.980  12.387
30768W        W98997   9.540   6.218  13.388
30769W        W98998  42.235  23.225  12.650
30770W        W98999  20.011   3.415  13.889
30771W        W99000  30.596   2.664  11.202
30772W        W99001  28.698  24.140  10.758
30773W        W99002   0.735  12.065  11.564
30774W        W99003   6.716   6.478   1.990
30775W        W99004  13.075  13.926  12.013
30776W        W99005   3.784   4.254  13.507
30777W        W99006  41.076  23.631  11.528
30778W        W99007  38.720  13.742   3.789
30779W        W99008  22.975  40.896   0.729
30780W        W99009   6.731  26.009   1.260
30781W        W99010  21.973   1.779   3.239
30782W        W99011  44.287  36.557   3.170
30783W        W99012  12.951   3.015  11.622
30784W        W99013  17.283  30.622  12.932
30785W        W99014  36.232  31.021  10.887
30786W        W99015  26.657  17.148  11.573
30787W        W99016  26.936  32.667  12.999
30788W        W99017  37.474   6.178   9.738
30789W        W99018  17.199  39.898   9.819
30790W        W99019  12.287   6.868   0.294
30791W        W99020  44.427   3.698   2.720
30792W        W99021  12.682  34.036  11.653
30793W        W99022  42.848  27.432  12.395
30794W        W99023   6.576  33.700   2.748
30795W        W99024  44.513  29.411   2.248
30796W        W99025  27.720  29.307  13.851
30797W        W99026  43.215  22.350  11.141
30798W        W99027  41.909  43.026   1.422
30799W        W99028   4.232  36.847  11.081
30800W        W99029   7.622  39.343  12.994
30801W        W99030  20.480  43.596   3.696
30802W        W99031  44.130   9.716  13.398
30803W        W99032   7.845  13.330  14.736
30804W        W99033  24.904  25.573  13.478
30805W        W99034  13.346   0.747   5.066
30806W        W99035   7.777   4.585  14.414
30807W        W99036  31.159  29.365   2.275
30808W        W99037  43.878  43.469   2.694
30809W        W99038  18.875  31.995  14.327
30810W        W99039  26.000   5.851   2.148
30811W        W99040  41.578  12.545  13.381
30812W        W99041  23.547  12.315   1.320
30813W        W99042  30.631  15.065   2.924
30814W        W99043  13.667   0.368  12.033
30815W        W99044  38.676  27.678  14.279
30816W        W99045  19.072   1.709   1.346
30817W        W99046  16.279  13.146   1.873
30818W        W99047  28.486  44.295  14.885
30819W        W99048  13.267  24.533   4.385
30820W        W99049  39.098  28.415   4.012
30821W        W99050  39.840  36.294  11.088
30822W        W99051  32.584  37.442   4.143
30823W        W99052   5.757  34.279   1.288
30824W        W99053  17.208  19.798   1.912
30825W        W99054   6.224  15.099  10.608
30826W        W99055  39.771  34.170  14.756
30827W        W99056  30.307  37.822   2.227
30828W        W99057  10.754  22.285   1.432
30829W        W99058  28.125  35.760   0.730
30830W        W99059   8.851   5.614  12.101
30831W        W99060   1.205   2.288   3.754
30832W        W99061   2.667  19.574   4.562
30833W        W99062  31.854  39.826  12.925
30834W        W99063  24.978  16.837  10.954
30835W        W99064  25.933  13.734  13.896
30836W        W99065   7.636  27.698  12.075
30837W        W99066  31.905  43.074  12.524
30838W        W99067  27.236  11.298   1.808
30839W        W99068  11.874  32.983  13.042
30840W        W99069  33.607   5.813  11.058
30841W        W99070   1.690  25.220   3.552
30842W        W99071   8.215  17.251   4.570
30843W        W99072  16.321  33.157   0.494
30844W        W99073  43.507  11.361  12.514
30845W        W99074  39.354  18.585  13.759
30846W        W99075  44.011  38.772  11.599
30847W        W99076   4.297  21.063   3.076
30848W        W99077   4.666  37.765   1.737
30849W        W99078  22.787  12.730   5.660
30850W        W99079   0.793   1.994   2.234
30851W        W99080  43.904  16.193   2.171
30852W        W99081  43.883  18.537   1.693
30853W        W99082  34.518   5.589  13.131
30854W        W99083  17.344  40.902  11.573
30855W        W99084  15.479  22.252   3.686
30856W        W99085   3.466  27.167  11.591
30857W        W99086  34.695  21.728   2.159
30858W        W99087  29.065  27.547   0.082
30859W        W99088  44.443  15.925   1.478
30860W        W99089  14.041  35.898   4.280
30861W        W99090  15.701  17.236  14.930
30862W        W99091  25.173  32.292   3.604
30863W        W99092  29.636  38.424  10.365
30864W        W99093  25.583  21.155  10.302
30865W        W99094   3.170  17.304   2.999
30866W        W99095  25.720  33.333   2.349
30867W        W99096   6.719   7.609  11.319
30868W        W99097  43.524  37.948  13.023
30869W        W99098  40.621  42.460  10.488
30870W        W99099  42.316  31.878   4.469
30871W        W99100   2.864  15.316   2.261
30872W        W99101  13.614  14.235   2.306
30873W        W99102   0.539   0.392   4.602
30874W        W99103  12.165   5.435  14.516
30875W        W99104  31.882  37.511   2.877
30876W        W99105  25.571   7.588  13.934
30877W        W99106  21.176   8.489   0.481
30878W        W99107  26.884  26.119   0.265
30879W        W99108  39.064   7.410   1.941
30880W        W99109  19.710  32.192   1.799
30881W        W99110  19.933  28.065   1.640
30882W        W99111  15.253  32.940   4.899
30883W        W99112   4.385  27.478  11.846
30884W        W99113  11.257   3.157  13.550
30885W        W99114  29.990  23.498   3.224
30886W        W99115  22.365  44.526  12.987
30887W        W99116  33.158  34.277  11.987
30888W        W99117  33.866  39.373  14.517
30889W        W99118   1.928  29.065  12.216
30890W        W99119  11.840  23.926  11.605
30891W        W99120  44.965   5.816   1.799
30892W        W99121  33.520  37.824  11.804
30893W        W99122  17.191  29.882  13.441
30894W        W99123   0.974   0.530  13.605
30895W        W99124  33.818  21.783   1.706
30896W        W99125  31.580  34.424   0.035
30897W        W99126  11.753  11.141  12.616
30898W        W99127  24.192  23.526   4.246
30899W        W99128  16.373  16.799   1.273
30900W        W99129   1.919  17.836  12.429
30901W        W99130  12.168   9.320  12.502
30902W        W99131   1.941   7.078   2.949
30903W        W99132  23.639  28.572  10.973
30904W        W99133  40.470  40.398  11.562
30905W        W99134  19.574  24.576  10.526
30906W        W99135   3.209  40.350  12.500
30907W        W99136  26.864  28.356  13.942
30908W        W99137  14.323  10.394  12.084
30909W        W99138  24.697   1.727   2.402
30910W        W99139  32.390  29.474   4.040
30911W        W99140  36.545  32.332  14.300
30912W        W99141  20.885  43.547  14.613
30913W        W99142  29.557  19.664   4.231
30914W        W99143  17.664   1.995   2.739
30915W        W99144   9.658  43.977   0.836
30916W        W99145  20.051  41.368  11.009
30917W        W99146  10.351  28.606   2.099
30918W        W99147  10.268  39.838   3.780
30919W        W99148   1.852  22.187  11.632
30920W        W99149  28.823   0.826   0.328
30921W        W99150  13.347  38.115  12.788
30922W        W99151  38.538  27.884  14.789
30923W        W99152  12.216  33.954   0.666
30924W        W99153  38.427  34.508  10.394
30925W        W99154  33.460  34.556  10.520
30926W        W99155   2.231  17.047   0.039
30927W        W99156   0.813  33.088   4.579
30928W        W99157   3.293   5.586  13.571
30929W        W99158  12.895  12.270  13.492
30930W        W99159  30.615  21.087  14.411
30931W        W99160  40.573  30.487  12.022
30932W        W99161  35.105  42.554  13.935
30933W        W99162  29.062  13.370   4.692
30934W        W99163   2.621  13.945  13.479
30935W        W99164  40.521  33.611   1.669
30936W        W99165  14.999   5.746   0.969
30937W        W99166   2.514  16.221   3.191
30938W        W99167   8.105  31.119   3.262
30939W        W99168  32.521  39.248   2.244
30940W        W99169  25.539  15.171  12.323
30941W        W99170  17.656  23.523   3.893
30942W        W99171  27.550  39.407  12.289
30943W        W99172  29.099  36.843  10.778
30944W        W99173  22.103  19.289   4.735
30945W        W99174  22.753   8.667  13.593
30946W        W99175   9.380  34.060   2.749
30947W        W99176   4.732  11.310  12.955
30948W        W99177   4.574  22.473  14.394
30949W        W99178   4.457  29.224  14.845
30950W        W99179  41.066   5.220   2.240
30951W        W99180   1.669  23.224   4.624
30952W        W99181  24.030  11.734  12.819
30953W        W99182  39.579  40.952  13.802
30954W        W99183  19.112  18.200  13.126
30955W        W99184  35.782  44.923   0.947
30956W        W99185  42.550   3.774  12.983
30957W        W99186  19.601  33.144  11.857
30958W        W99187   9.214  19.027   2.450
30959W        W99188  40.777  12.557   0.334
30960W        W99189   2.858  37.347  13.648
30961W        W99190  44.990  40.301  10.911
30962W        W99191  34.021  34.391   0.506
30963W        W99192  38.673  27.919  12.877
30964W        W99193  16.086  20.021  12.044
30965W        W99194   8.803  25.655   3.124
30966W        W99195  41.976  20.980  10.320
30967W        W99196  20.026  23.918  11.839
30968W        W99197  12.873  44.521  11.581
30969W        W99198  23.085  23.017   2.808
30970W        W99199  26.989  13.158  14.047
30971W        W99200  39.390  44.609   3.760
30972W        W99201  25.675  43.850   0.149
30973W        W99202   4.699  38.960   4.159
30974W        W99203  43.692  28.048   2.601
30975W        W99204  39.729  15.517   0.633
30976W        W99205  38.657  25.047   2.286
30977W        W99206  30.511   8.798   3.875
30978W        W99207  17.697  34.886  14.039
30979W        W99208  31.439  36.503  14.987
30980W        W99209  12.776  23.406  14.241
30981W        W99210  17.712  15.646   4.292
30982W        W99211   5.584  20.164  12.794
30983W        W99212  17.726  11.564  11.720
30984W        W99213  26.582  23.179   2.768
30985W        W99214  44.445  42.308  14.059
30986W        W99215   9.111   2.755  12.822
30987W        W99216  13.421  28.739   4.285
30988W        W99217  15.741  34.596   0.353
30989W        W99218  13.659  35.534   3.118
30990W        W99219  27.359  11.713   3.213
30991W        W99220  12.101  25.408   1.737
30992W        W99221  39.723  42.356   3.688
30993W        W99222  36.003  26.965  12.602
30994W        W99223  40.534  42.009  12.213
30995W        W99224   4.094  25.281   3.545
30996W        W99225  23.709   1.448  10.638
30997W        W99226  40.365  37.078   2.757
30998W        W99227  19.080  26.258   4.331
30999W        W99228  21.586  29.287   4.935
31000W        W99229  44.505  19.340   2.844
31001W        W99230  27.293  27.280  13.123
31002W        W99231  20.746  42.475  12.371
31003W        W99232  41.064   0.051   4.203
31004W        W99233  23.116  14.379   2.245
31005W        W99234  29.442  16.510   1.885
31006W        W99235   7.376   5.748   0.032
31007W        W99236  11.337  27.182  12.091
31008W        W99237  14.290   9.213  14.426
31009W        W99238  25.659  35.065   4.121
31010W        W99239  14.506  28.388  14.505
31011W        W99240  37.320   8.234   0.770
31012W        W99241   0.775   5.293  11.429
31013W        W99242  40.923  25.598  14.326
31014W        W99243  14.656  40.563  13.771
31015W        W99244   8.876   7.123   1.367
31016W        W99245  23.030  22.921   2.020
31017W        W99246  37.532  31.623  10.695
31018W        W99247  39.937  26.631  11.120
31019W        W99248  36.587  40.927  14.322
31020W        W99249   4.896   3.704  14.067
31021W        W99250  32.675   3.162  14.031
31022W        W99251  28.140   0.827  14.904
31023W        W99252  41.765  12.303  11.242
31024W        W99253  39.980  29.921   3.615
31025W        W99254   7.646  12.150   1.364
31026W        W99255  16.653  29.186   0.272
31027W        W99256  35.595  29.969  12.411
31028W        W99257  26.625   7.676   2.912
31029W        W99258   8.665  44.652   0.345
31030W        W99259   4.400   9.646  14.774
31031W        W99260  19.656   3.021   0.385
31032W        W99261  13.087  36.055  10.102
31033W        W99262  44.153  15.376  14.492
31034W        W99263  10.899  19.094  14.297
31035W        W99264  23.680  10.577   4.188
31036W        W99265  37.392  33.439  14.898
31037W        W99266  28.984  16.736   1.795
31038W        W99267  17.180  26.396   2.694
31039W        W99268   9.789   5.767  11.113
31040W        W99269  21.045  10.284  13.791
31041W        W99270  29.929  21.149   0.733
31042W        W99271  36.489   6.660  10.860
31043W        W99272  18.512  18.701   4.337
31044W        W99273  12.616  24.754   2.693
31045W        W99274  40.526  34.166  10.787
31046W        W99275  13.170  43.652  11.673
31047W        W99276  28.466  22.081  12.845
31048W        W99277  29.357   3.590  14.384
31049W        W99278  24.644  41.752   4.561
31050W        W99279  25.140   0.320  10.705
31051W        W99280  25.932  20.138   0.324
31052W        W99281  30.569  30.696   0.058
31053W        W99282  14.500   3.471  14.681
31054W        W99283  15.262  17.007  14.757
31055W        W99284   6.757  38.461   2.278
31056W        W99285  42.996  38.848   5.033
31057W        W99286  43.451  34.649   2.133
31058W        W99287  26.442  29.794  11.978
31059W        W99288  15.849  23.942  12.592
31060W        W99289   1.608  37.760   3.398
31061W        W99290  22.284  42.131   0.880
31062W        W99291  20.254  12.422   0.917
31063W        W99292  38.329  16.584  13.964
31064W        W99293  26.639  32.447   2.810
31065W        W99294  17.849   1.585   0.889
31066W        W99295  31.999  37.962   3.693
31067W        W99296   3.715  44.501  12.548
31068W        W99297  39.853  34.366   1.341
31069W        W99298  16.139   2.417  11.675
31070W        W99299  34.403  23.199  13.245
31071W        W99300  43.859  28.096  10.422
31072W        W99301  30.407  33.589  13.282
31073W        W99302  23.988   2.482  13.971
31074W        W99303   8.392  32.027  12.815
31075W        W99304   5.802  11.338   1.883
31076W        W99305  31.567  10.178   3.825
31077W        W99306  12.134  14.109   2.684
31078W        W99307  20.463  34.890  11.917
31079W        W99308   6.730  40.399   4.524
31080W        W99309   7.674   5.876  11.458
31081W        W99310  37.479  39.979  10.334
31082W        W99311  24.620  32.452  13.485
31083W        W99312  32.642  36.374   1.426
31084W        W99313  16.076   6.255  10.467
31085W        W99314  12.272   6.372   1.682
31086W        W99315  21.311  14.506  12.039
31087W        W99316  44.479  12.536   5.093
31088W        W99317  34.095  30.144   1.521
31089W        W99318   2.131  13.315  12.059
31090W        W99319  34.385  20.290  13.378
31091W        W99320  26.072  14.000   5.569
31092W        W99321  41.975  17.803   2.166
31093W        W99322  40.849  11.241   1.811
31094W        W99323  32.929  16.626   0.194
31095W        W99324  35.928  24.253   0.171
31096W        W99325  28.968  39.504  14.812
31097W        W99326  11.718  32.777   2.850
31098W        W99327  22.496  35.543   3.843
31099W        W99328  42.024  16.844  13.277
31100W        W99329  17.791  41.556   0.906
31101W        W99330  33.520  29.973   0.698
31102W        W99331  43.294  39.790  13.287
31103W        W99332  31.318  36.797  10.663
31104W        W99333  32.621  41.836   1.421
31105W        W99334   1.104   3.296   4.536
31106W        W99335  13.866  24.160  12.960
31107W        W99336  31.472  12.982  13.414
31108W        W99337  12.147  16.608  12.840
31109W        W99338  43.397   6.216   1.169
31110W        W99339   9.904  34.447   2.476
31111W        W99340  41.888  40.253   0.650
31112W        W99341  11.746  30.073   3.911
31113W        W99342  39.838  13.360   1.704
31114W        W99343  40.965   6.587   2.391
31115W        W99344   2.459  31.991  14.408
31116W        W99345  25.463  32.008   9.947
31117W        W99346  17.169  36.298   2.838
31118W        W99347  21.444  42.525   1.632
31119W        W99348  44.986  42.871  13.117
31120W        W99349   0.685   9.040   3.480
31121W        W99350   6.901   3.658   1.954
31122W        W99351  44.442  11.778  13.673
31123W        W99352  40.788  11.600  11.571
31124W        W99353  37.818  34.538  11.227
31125W        W99354  12.385  20.239   4.179
31126W        W99355  31.032   2.042  13.946
31127W        W99356  10.252  38.340  10.415
31128W        W99357   1.571   5.691  12.431
31129W        W99358  37.783  23.797   0.369
31130W        W99359   5.428   3.711   2.420
31131W        W99360  38.598  18.160  10.253
31132W        W99361  27.312  18.550  12.139
31133W        W99362   3.471  24.023   3.112
31134W        W99363   8.081   3.689  11.567
31135W        W99364  29.579  36.882   0.723
31136W        W99365  12.070   7.840   2.764
31137W        W99366  25.533  17.412   1.751
31138W        W99367  15.628  38.737  14.380
31139W        W99368   5.727   0.689  11.606
31140W        W99369   9.208  44.468  12.497
31141W        W99370   9.098  27.062   2.265
31142W        W99371  30.635  13.081   1.242
31143W        W99372  26.932  41.138  10.650
31144W        W99373  44.884  24.260   2.179
31145W        W99374  12.090  30.789  13.418
31146W        W99375  39.498   2.454   4.078
31147W        W99376   7.007  25.592   1.331
31148W        W99377  30.997  29.145   3.533
31149W        W99378  22.282  40.388   0.347
31150W        W99379  17.704  31.415   2.319
31151W        W99380  43.811  39.850  12.437
31152W        W99381  35.959  24.910   1.794
31153W        W99382  27.298  24.555   3.677
31154W        W99383  43.718  21.127  14.280
31155W        W99384  38.390  41.470   2.268
31156W        W99385  31.405  32.150   3.705
31157W        W99386  37.485  17.620  14.878
31158W        W99387   8.874   2.298   2.354
31159W        W99388  28.247  27.000  14.285
31160W        W99389  42.953   2.868  14.131
31161W        W99390  38.053   1.334   0.334
31162W        W99391   8.192  14.871  11.593
31163W        W99392  44.630  28.030   3.822
31164W        W99393  25.614  18.025   4.939
31165W        W99394  34.015  28.644   0.938
31166W        W99395  26.923  27.499   1.649
31167W        W99396   6.726  42.445   4.055
31168W        W99397  22.610  32.253  11.195
31169W        W99398   1.779  11.242  12.833
31170W        W99399  28.765  44.714   2.250
31171W        W99400  22.470   8.747  13.172
31172W        W99401  23.932   6.381  11.190
31173W        W99402  16.758  10.220   2.966
31174W        W99403  29.912   1.963  11.549
31175W        W99404  36.493  43.867   4.091
31176W        W99405  10.292  35.142   3.679
31177W        W99406   0.694  32.172  11.464
31178W        W99407  19.643  19.160   2.882
31179W        W99408  20.808  39.791   3.708
31180W        W99409  20.809  29.396   1.357
31181W        W99410  23.205   9.862  11.331
31182W        W99411   9.979  12.484   4.562
31183W        W99412  44.451  39.624  12.003
31184W        W99413   5.803  17.228   4.643
31185W        W99414  25.539   2.237   1.873
31186W        W99415  20.767   4.752  11.554
31187W        W99416  40.237  16.085  13.394
31188W        W99417   2.275   3.928  14.793
31189W        W99418  34.101   3.413  13.081
31190W        W99419  30.879   5.917  11.107
31191W        W99420   0.686   8.334   0.967
31192W        W99421  13.978  13.013  13.528
31193W        W99422  20.162  32.459   1.818
31194W        W99423  13.417  35.378   3.653
31195W        W99424  26.076  44.359  11.977
31196W        W99425  33.989  34.451   3.841
31197W        W99426  44.162  40.568   4.301
31198W        W99427   1.167   6.296  13.708
31199W        W99428  37.348   3.837  11.186
31200W        W99429  20.956  11.756  13.738
31201W        W99430  17.670  12.678  11.585
31202W        W99431  22.149   8.238   1.210
31203W        W99432   0.436  26.262   2.356
31204W        W99433  28.693  13.173  11.107
31205W        W99434   3.214   5.286   3.464
31206W        W99435  44.203  17.310  11.908
31207W        W99436  38.415  21.591  12.909
31208W        W99437   8.939  14.098  13.483
31209W        W99438  25.010  20.667  10.751
31210W        W99439   0.953  29.287  10.400
31211W        W99440  44.854  13.763   2.310
31212W        W99441   6.846  36.950   2.126
31213W        W99442  30.022  33.917   4.721
31214W        W99443  18.611  28.927   0.956
31215W        W99444  13.592  34.550  13.291
31216W        W99445  42.037  26.678  10.402
31217W        W99446  40.201  23.198  13.496
31218W        W99447  24.701   3.459  11.940
31219W        W99448   3.930  24.707   1.900
31220W        W99449  37.350  11.769   2.190
31221W        W99450   1.588  30.557  14.528
31222W        W99451  43.449  10.611  14.346
31223W        W99452  28.467  26.654   4.532
31224W        W99453  33.134  36.565  12.410
31225W        W99454   4.434  20.743  14.189
31226W        W99455  20.081  21.638   3.304
31227W        W99456  10.214  24.004   4.978
31228W        W99457  39.606   8.148  12.013
31229W        W99458   2.852  42.793  11.996
31230W        W99459  23.351   4.298  13.867
31231W        W99460  21.230  35.881  10.100
31232W        W99461  23.718   9.421   2.716
31233W        W99462  29.587  43.725   1.276
31234W        W99463  11.225  17.749  11.491
31235W        W99464   9.208  30.706   4.504
31236W        W99465  25.823   6.850  13.266
31237W        W99466  34.961  15.314   0.316
31238W        W99467  42.608  13.928   0.023
31239W        W99468   9.948  38.835  12.972
31240W        W99469  36.071  26.004   3.290
31241W        W99470  28.035  16.872   3.311
31242W        W99471  34.548  29.680  14.966
31243W        W99472  16.681  35.848   0.815
31244W        W99473  38.591  14.289  14.888
31245W        W99474  44.452  35.542   2.134
31246W        W99475  12.350  16.658   0.756
31247W        W99476   1.175  33.382   1.249
31248W        W99477  42.608  27.796  11.002
31249W        W99478  17.690  19.155   2.365
31250W        W99479  13.219  20.989  11.148
31251W        W99480   5.385  36.011   3.123
31252W        W99481  18.731  42.304  12.969
31253W        W99482   2.286  28.026   0.040
31254W        W99483  16.278  34.117  11.987
31255W        W99484  24.442  12.711  12.862
31256W        W99485  19.274   5.350   0.677
31257W        W99486   1.233  21.613  14.006
31258W        W99487  27.495  44.875  14.038
31259W        W99488  36.366  33.183  12.103
31260W        W99489  30.677   2.790   3.392
31261W        W99490  39.561  42.923  13.914
31262W        W99491  12.876  33.624  10.890
31263W        W99492   8.302  18.354   0.391
31264W        W99493  26.526  33.827  12.882
31265W        W99494  13.860  34.848  12.054
31266W        W99495   7.406  10.408   2.712
31267W        W99496   8.021  10.312   2.729
31268W        W99497  11.566  25.733  10.985
31269W        W99498   9.182  12.113   0.203
31270W        W99499  11.689  25.168   1.954
31271W        W99500  27.098  31.389  11.148
31272W        W99501  14.316  22.129  11.425
31273W        W99502  30.507  17.828   3.553
31274W        W99503  24.422  32.140   0.996
31275W        W99504  43.504  13.225  13.438
31276W        W99505  29.151  18.203   0.739
31277W        W99506  17.834  24.955  13.870
31278W        W99507  14.055  43.482   0.413
31279W        W99508   6.289  35.201  14.852
31280W        W99509  23.410   5.941   4.099
31281W        W99510  44.129  33.178   2.640
31282W        W99511  16.007  43.671   3.048
31283W        W99512  23.305  12.348  12.794
31284W        W99513  26.879  28.676  11.907
31285W        W99514  20.956  24.531   3.242
31286W        W99515  44.592   7.218  14.378
31287W        W99516  19.333  12.719  11.236
31288W        W99517  11.361  15.972  14.899
31289W        W99518  25.084  15.177   3.608
31290W        W99519  36.688  14.701   2.388
31291W        W99520  19.058   5.436  11.250
31292W        W99521  30.349  39.420   2.455
31293W        W99522  19.761  25.890  10.390
31294W        W99523   7.669  17.032   0.963
31295W        W99524  19.311   5.421   3.664
31296W        W99525  13.633   7.496   2.995
31297W        W99526  42.847  33.364  13.054
31298W        W99527  18.080  36.229   4.261
31299W        W99528   9.260  43.351   4.302
31300W        W99529  12.050  27.994  10.773
31301W        W99530  35.023  10.864  12.912
31302W        W99531  28.117  12.293  13.033
31303W        W99532  26.232  28.342  14.500
31304W        W99533  32.463   7.239   0.734
31305W        W99534  35.567  27.705  11.618
31306W        W99535  15.297   3.375  14.377
31307W        W99536  25.217   2.964  12.762
31308W        W99537  13.327  34.985  13.623
31309W        W99538   3.184  39.459  13.862
31310W        W99539  28.394  37.346   2.300
31311W        W99540  27.024  13.926  14.528
31312W        W99541   6.331  32.763  11.053
31313W        W99542  38.315  11.229  10.553
31314W        W99543  24.861  17.340   2.552
31315W        W99544  23.643  22.255  12.851
31316W        W99545  37.814  30.965  12.616
31317W        W99546  29.257   4.315  11.576
31318W        W99547  30.300  42.104  14.371
31319W        W99548  21.181  22.157   2.757
31320W        W99549   6.942  34.408   3.698
31321W        W99550  41.024  41.716   4.245
31322W        W99551   0.691   9.171   2.984
31323W        W99552   4.231  36.007   9.910
31324W        W99553  41.835  37.070  11.506
31325W        W99554  38.082  10.765   2.675
31326W        W99555  37.403  11.331   1.444
31327W        W99556  39.470   4.301   4.721
31328W        W99557  15.122  20.969  13.958
31329W        W99558  17.517  25.562   2.582
31330W        W99559  29.710  12.330  14.131
31331W        W99560  24.816   3.134  14.997
31332W        W99561  35.630  27.103   1.731
31333W        W99562  37.066  28.601  12.496
31334W        W99563  33.028  30.160   0.737
31335W        W99564  22.997  35.083  14.125
31336W        W99565  27.168  26.987   3.247
31337W        W99566   0.939   6.693  14.544
31338W        W99567  31.114  39.456  12.211
31339W        W99568   8.425  19.195  10.466
31340W        W99569  30.503  15.073   1.207
31341W        W99570  44.404  39.592  12.885
31342W        W99571  16.942  34.991   1.246
31343W        W99572  33.352   2.334   3.717
31344W        W99573  39.255  11.505  10.599
31345W        W99574   3.818  29.542  13.156
31346W        W99575   4.844  41.708  14.774
31347W        W99576   1.328  23.572   0.823
31348W        W99577   2.386  30.524  11.616
31349W        W99578   2.556  32.015   4.051
31350W        W99579  31.290  37.579  11.062
31351W        W99580   6.308  23.969  13.398
31352W        W99581  38.186   6.762   3.182
31353W        W99582  34.085   7.996   4.474
31354W        W99583  13.245  33.434   1.951
31355W        W99584  27.420  32.016  13.342
31356W        W99585  29.933  10.325   1.645
31357W        W99586  27.517  17.843  12.314
31358W        W99587  29.743  15.142   0.524
31359W        W99588   7.415  16.009   1.156
31360W        W99589  20.070  38.296  11.728
31361W        W99590  15.670  22.811  14.309
31362W        W99591  39.903  42.797   2.350
31363W        W99592  36.842  27.967  11.995
31364W        W99593  20.788  35.660  11.188
31365W        W99594  40.752   6.374   0.002
31366W        W99595   4.896  34.395  13.356
31367W        W99596   3.450   6.564  11.021
31368W        W99597   6.352  22.341  13.647
31369W        W99598  24.090  34.613   1.474
31370W        W99599  22.551  13.879   0.997
31371W        W99600  27.282  11.444  10.210
31372W        W99601  31.742  30.178   0.692
31373W        W99602   6.159  16.743   0.850
31374W        W99603  22.372  38.027  14.955
31375W        W99604  30.596   3.714   2.434
31376W        W99605  18.364  37.514  10.717
31377W        W99606  43.968  12.827   4.290
31378W        W99607   1.140  41.480   2.138
31379W        W99608  35.867  33.582   4.774
31380W        W99609  33.660  16.259   1.706
31381W        W99610  31.789  32.605  10.665
31382W        W99611  34.501  34.027  14.826
31383W        W99612  21.377  30.012  12.151
31384W        W99613  26.096  23.679   1.333
31385W        W99614  20.755  28.362   4.122
31386W        W99615  11.605   5.770   1.874
31387W        W99616   4.141  39.998  13.093
31388W        W99617   4.413  24.199  14.273
31389W        W99618  25.965  36.708   4.916
31390W        W99619  32.439  37.570  14.902
31391W        W99620  10.094  28.485  11.928
31392W        W99621  38.476  44.353  12.576
31393W        W99622  21.127   2.816  12.386
31394W        W99623  38.655   2.232  12.846
31395W        W99624  15.136  30.724   4.412
31396W        W99625  43.254  42.367  10.521
31397W        W99626  13.584  26.627   4.520
31398W        W99627  23.385  36.773  13.138
31399W        W99628   2.892  31.082   0.829
31400W        W99629  11.764  36.053  10.801
31401W        W99630   2.660  42.319   2.806
31402W        W99631  13.785  30.292   2.121
31403W        W99632  16.750  12.439  14.160
31404W        W99633  38.446  26.661  14.428
31405W        W99634  26.345  22.451  11.200
31406W        W99635  36.514  31.998   0.953
31407W        W99636  15.243  44.837   3.118
31408W        W99637  43.213  35.963   3.570
31409W        W99638  37.861  11.695   3.148
31410W        W99639   5.826  10.446   0.261
31411W        W99640  39.892   3.408  12.523
31412W        W99641  12.775   7.192  11.206
31413W        W99642  42.525   6.458   0.280
31414W        W99643  21.153  19.007   2.827
31415W        W99644  34.002  21.985  11.422
31416W        W99645  24.947  12.702   0.251
31417W        W99646   1.662  32.269  13.356
31418W        W99647   0.655  25.795  11.595
31419W        W99648   3.481  13.741  13.260
31420W        W99649  24.122  27.046   4.548
31421W        W99650   8.540  28.467   2.329
31422W        W99651  44.555  27.246  13.614
31423W        W99652   5.666   1.314  11.135
31424W        W99653  24.541   9.763   2.339
31425W        W99654  18.531  14.244   0.986
31426W        W99655  19.836  28.996   4.066
31427W        W99656   1.922  38.201  11.550
31428W        W99657   0.272  41.455   0.514
31429W        W99658  14.923  12.391   5.059
31430W        W99659   5.722  14.094   2.954
31431W        W99660  32.262   3.422  12.596
31432W        W99661  10.881  37.504  13.841
31433W        W99662  12.828  18.174  13.476
31434W        W99663  39.799  12.902  14.476
31435W        W99664   9.817   1.708   2.664
31436W        W99665  19.950   4.568  12.642
31437W        W99666   7.431  10.637  13.244
31438W        W99667  16.220  21.513  14.207
31439W        W99668   1.505  10.253  12.587
31440W        W99669   4.465  33.046  11.148
31441W        W99670   2.803   0.512  12.390
31442W        W99671  14.841   1.494  11.024
31443W        W99672  44.054   9.395   1.962
31444W        W99673  14.146  42.332  12.062
31445W        W99674   6.504   2.273   1.326
31446W        W99675  25.737  20.790  11.254
31447W        W99676  26.685  27.126   3.093
31448W        W99677   4.361  30.467   3.952
31449W        W99678  16.949  26.654  13.235
31450W        W99679  31.141  19.762   5.132
31451W        W99680   6.814  24.138  12.415
31452W        W99681  13.730  13.165  13.065
31453W        W99682   3.054  23.520   3.699
31454W        W99683  36.325  16.667  11.843
31455W        W99684  42.629  41.007  13.042
31456W        W99685  27.461  38.877  12.879
31457W        W99686  31.956  19.077  13.588
31458W        W99687  25.701  42.252  11.606
31459W        W99688  11.878  27.532  14.905
31460W        W99689  18.159  11.328  11.881
31461W        W99690  34.854  11.018  10.035
31462W        W99691  36.022  44.402   3.248
31463W        W99692  43.814  42.700  13.355
31464W        W99693  30.097  43.940  13.719
31465W        W99694  11.763  13.315  11.672
31466W        W99695   8.188  33.632  10.411
31467W        W99696  10.765  29.647   2.659
31468W        W99697  41.801   2.346  14.265
31469W        W99698   4.624   9.783   0.284
31470W        W99699  37.991  37.138   3.703
31471W        W99700  17.962  24.530   2.679
31472W        W99701   6.125  17.954  10.257
31473W        W99702  30.340   6.374  14.945
31474W        W99703  14.136   6.355  14.906
31475W        W99704  16.524  13.524  14.895
31476W        W99705  41.336  44.193   3.666
31477W        W99706  11.203  33.522   0.432
31478W        W99707   6.730  26.644   3.761
31479W        W99708  44.745  19.103   2.323
31480W        W99709   5.781  29.006  10.745
31481W        W99710  41.433  28.184  12.860
31482W        W99711  16.210  35.842  11.866
31483W        W99712  34.137   4.767   2.392
31484W        W99713  11.756  13.290  12.494
31485W        W99714  22.955  41.872  11.397
31486W        W99715   7.983  28.725  13.372
31487W        W99716   6.494  24.590   2.646
31488W        W99717  13.340  30.673  13.186
31489W        W99718   0.945  19.590  11.511
31490W        W99719  30.530  18.132   0.819
31491W        W99720   7.920  20.198  11.761
31492W        W99721  12.124  20.118  10.902
31493W        W99722  43.070  27.662  10.759
31494W        W99723  18.441  16.497   4.990
31495W        W99724  39.899  25.144  12.978
31496W        W99725  41.349  27.922  12.413
31497W        W99726  31.326  43.438   1.352
31498W        W99727  20.569  37.848   2.754
31499W        W99728  10.739  24.756  12.403
31500W        W99729  18.269  20.503   3.853
31501W        W99730  18.009  19.869  13.970
31502W        W99731  19.667  34.311  13.559
31503W        W99732  29.636   4.735  11.244
31504W        W99733  27.393  23.089  13.015
31505W        W99734  20.999  43.828   5.310
31506W        W99735  40.909  15.084   2.802
31507W        W99736   8.787  10.760  11.125
31508W        W99737  12.872  38.755   0.960
31509W        W99738  39.001  43.321   2.117
31510W        W99739   2.274  35.376  14.068
31511W        W99740   4.986  12.257   3.338
31512W        W99741  25.607  29.579  13.926
31513W        W99742   4.005   7.942  13.039
31514W        W99743   5.310  12.759  14.358
31515W        W99744  13.299   4.963  11.985
31516W        W99745   6.592   0.752   1.705
31517W        W99746   1.371  12.589  13.903
31518W        W99747  39.062  28.436  11.632
31519W        W99748  18.508  12.398   3.711
31520W        W99749   3.638  17.493  12.063
31521W        W99750   4.846  43.560  14.395
31522W        W99751  30.881   7.507   9.786
31523W        W99752  14.135  20.308  13.060
31524W        W99753  43.198  44.848   0.416
31525W        W99754  26.444  37.558   2.944
31526W        W99755  33.466  34.945  11.095
31527W        W99756   0.169  17.103  13.266
31528W        W99757   0.332   2.525  11.083
31529W        W99758  43.935  31.868   1.474
31530W        W99759   9.807  29.124  11.365
31531W        W99760  22.915  31.713   1.842
31532W        W99761  31.786  39.998   3.217
31533W        W99762   0.024  27.081   1.945
31534W        W99763   2.123  42.894   2.320
31535W        W99764  33.566  40.939   2.790
31536W        W99765   7.651  37.375   2.221
31537W        W99766  31.067  29.991   4.657
31538W        W99767  12.719  41.485   4.826
31539W        W99768  21.185  42.120   3.168
31540W        W99769  43.777  36.498   3.256
31541W        W99770  24.414   3.128   4.940
31542W        W99771  26.970  10.663   2.645
31543W        W99772  10.780  31.472   3.355
31544W        W99773  30.338  44.408   0.297
31545W        W99774  38.176  19.788  13.940
31546W        W99775  13.846   8.944   0.806
31547W        W99776  42.520  20.520  11.576
31548W        W99777  20.679  25.103  14.586
31549W        W99778  27.567  41.346   3.175
31550W        W99779  26.742  34.161  11.741
31551W        W99780  17.062   3.771  14.840
31552W        W99781  13.720   6.627  11.524
31553W        W99782   3.381  16.754  12.942
31554W        W99783  40.970  41.338   1.731
31555W        W99784  16.759   6.697  10.363
31556W        W99785  29.839   5.839   0.716
31557W        W99786  34.170  30.468   0.250
31558W        W99787  30.392  12.337   0.777
31559W        W99788  39.147  25.223   3.178
31560W        W99789  26.458  30.435   3.316
31561W        W99790  44.567  37.427  12.539
31562W        W99791  14.661  21.240  12.022
31563W        W99792   6.248   8.994  13.235
31564W        W99793  25.649   0.305   2.685
31565W        W99794   5.001  43.976   3.248
31566W        W99795  21.518  22.798  12.912
31567W        W99796  17.814  11.390  14.893
31568W        W99797  23.598  17.286   1.742
31569W        W99798  38.999  28.471   2.102
31570W        W99799  43.863   5.528  13.030
31571W        W99800   7.404  25.666   4.196
31572W        W99801  33.725  15.281  11.976
31573W        W99802  31.672  25.658  11.218
31574W        W99803  14.605  22.625  10.802
31575W        W99804   3.799   2.937   0.780
31576W        W99805  22.997  31.468   0.060
31577W        W99806  10.914   5.621   3.063
31578W        W99807  19.269   5.779  12.146
31579W        W99808  28.164  10.808   2.712
31580W        W99809  31.551  32.638   2.787
31581W        W99810  29.117   2.805   3.896
31582W        W99811  27.217   5.092   3.737
31583W        W99812  26.140  32.687   0.448
31584W        W99813  16.606  40.540  11.549
31585W        W99814  27.951  11.397  13.915
31586W        W99815  12.489  41.600   0.002
31587W        W99816  37.580  21.545  13.839
31588W        W99817   5.942  18.614   2.424
31589W        W99818  41.049  21.555  13.050
31590W        W99819   9.383  26.655  13.351
31591W        W99820   3.877  35.198   4.758
31592W        W99821  23.719  23.541   4.024
31593W        W99822   2.307  27.328   1.882
31594W        W99823  40.070  24.893  11.659
31595W        W99824  19.126  29.284  13.498
31596W        W99825  44.897  40.644   0.008
31597W        W99826  16.282  36.380  14.367
31598W        W99827   3.277  11.576   3.202
31599W        W99828  22.810  22.680   0.294
31600W        W99829   9.197   3.115   0.292
31601W        W99830   0.464  28.617  13.372
31602W        W99831  22.889  28.173  12.813
31603W        W99832  40.895  34.912  14.089
31604W        W99833  23.919  26.563  12.582
31605W        W99834  32.913  40.366  12.589
31606W        W99835  25.034  22.199   0.264
31607W        W99836  15.166  22.247   4.614
31608W        W99837  15.256  39.960  13.296
31609W        W99838  22.409  42.430   3.416
31610W        W99839  36.170   1.221  14.975
31611W        W99840  28.207  29.115   2.432
31612W        W99841  19.986  16.272  12.695
31613W        W99842  41.437  25.209   0.467
31614W        W99843  11.192   1.689  12.355
31615W        W99844   6.843   3.794  12.017
31616W        W99845  39.855  20.395  13.421
31617W        W99846  37.850  43.823   4.079
31618W        W99847   4.929   8.763  13.759
31619W        W99848   3.264  23.484  11.052
31620W        W99849   8.304  40.351   0.201
31621W        W99850  26.887   9.779   2.415
31622W        W99851  12.488  13.439  10.540
31623W        W99852   3.139  39.636   1.710
31624W        W99853  22.269  44.917  12.646
31625W        W99854  32.923  28.656   1.156
31626W        W99855  39.560  38.906  11.785
31627W        W99856   0.505  22.907  10.778
31628W        W99857  26.968  38.591   3.893
31629W        W99858  33.219   0.983  11.852
31630W        W99859  21.553  43.851  11.979
31631W        W99860  23.440  35.176   3.668
31632W        W99861  22.664  21.615   0.187
31633W        W99862   2.405   5.137  13.301
31634W        W99863  23.801  23.934  10.361
31635W        W99864  24.087  19.253   1.261
31636W        W99865  25.427  30.017   4.155
31637W        W99866  30.582  39.604  12.883
31638W        W99867  34.946  30.650  10.639
31639W        W99868   3.844  15.253  13.409
31640W        W99869  39.550  16.139  11.545
31641W        W99870  44.322  16.839   2.740
31642W        W99871  13.298  24.156  11.712
31643W        W99872  24.489  19.548   0.290
31644W        W99873  28.775  37.548  12.815
31645W        W99874   1.650  39.252  12.971
31646W        W99875  28.974  24.729   2.795
31647W        W99876  31.562   1.070  14.006
31648W        W99877  23.501  16.814  11.466
31649W        W99878  19.886   2.888   2.264
31650W        W99879  36.051  17.141   0.708
31651W        W99880  13.266   8.314   2.352
31652W        W99881  16.802  39.319   0.193
31653W        W99882  32.621  12.307   1.297
31654W        W99883  25.449  17.061   3.584
31655W        W99884   5.235  39.382  10.683
31656W        W99885  36.881  32.576  12.558
31657W        W99886  11.184  19.926  12.373
31658W        W99887  22.029  16.624  10.549
31659W        W99888  15.614   7.177   1.339
31660W        W99889  23.533   8.769  11.585
31661W        W99890  23.817   4.285  13.661
31662W        W99891  11.591   0.707  11.474
31663W        W99892  37.064   6.605  12.573
31664W        W99893  20.011  26.537  11.383
31665W        W99894  11.618  26.256  11.101
31666W        W99895  40.085   3.783  14.834
31667W        W99896  34.312  16.615  10.260
31668W        W99897  16.486  42.040   1.354
31669W        W99898  25.829   1.962   0.451
31670W        W99899  21.694  13.951   1.365
31671W        W99900  17.223  11.295  10.551
31672W        W99901  19.552  16.347   9.528
31673W        W99902  34.505   3.722  13.827
31674W        W99903  32.530   5.720  10.959
31675W        W99904  23.315   5.623  13.607
31676W        W99905  43.752   2.885  11.487
31677W        W99906  18.644  16.123   1.740
31678W        W99907  13.594   1.471   0.829
31679W        W99908   2.282   4.451   0.728
31680W        W99909  24.657  27.607  10.829
31681W        W99910  44.980   2.829   1.163
31682W        W99911  13.754  26.048  12.921
31683W        W99912   6.218   7.775  11.465
31684W        W99913  34.156   9.859   4.188
31685W        W99914  35.921  28.385   3.289
31686W        W99915  34.504  24.124   3.571
31687W        W99916  28.111  29.614   2.663
31688W        W99917   4.273  40.357   1.702
31689W        W99918  43.241  20.968  14.493
31690W        W99919   4.568   3.655   0.063
31691W        W99920  30.479  16.853   0.811
31692W        W99921  15.272  12.680  12.359
31693W        W99922  27.641  13.825  10.695
31694W        W99923  33.383  38.628   1.751
31695W        W99924  21.086   3.305   4.514
31696W        W99925  33.547  36.661   2.852
31697W        W99926   8.991  38.500   3.327
31698W        W99927  30.953  26.331   4.383
31699W        W99928  25.884  17.773   3.020
31700W        W99929  32.610  39.838  14.206
31701W        W99930  24.027  18.731   2.016
31702W        W99931  43.366  33.594   0.291
31703W        W99932  42.925  41.048   1.343
31704W        W99933   4.593  38.496   3.230
31705W        W99934   8.744  10.234   5.101
31706W        W99935  34.659   5.384  11.858
31707W        W99936  19.289  30.627   0.951
31708W        W99937  18.946  40.425  14.541
31709W        W99938  16.010  32.052  12.228
31710W        W99939  23.657  21.048   4.202
31711W        W99940  20.035  27.133   4.074
31712W        W99941  38.291  10.394  14.433
31713W        W99942  32.844  38.290  12.053
31714W        W99943   9.874  18.797   2.339
31715W        W99944   6.665  36.474   2.231
31716W        W99945  15.042  33.091  11.404
31717W        W99946  30.006  10.876  14.337
31718W        W99947  22.286  24.378   2.296
31719W        W99948  10.369  14.208   0.777
31720W        W99949  19.778   7.987  13.474
31721W        W99950  40.850   5.845  14.903
31722W        W99951  39.321   0.533  14.312
31723W        W99952  20.456  44.991   0.416
31724W        W99953   3.445  43.830   0.359
31725W        W99954  20.492  23.268   2.174
31726W        W99955  29.947  36.527  12.015
31727W        W99956  15.788  28.737  12.499
31728W        W99957  40.620  19.013  14.781
31729W        W99958  11.406  27.581   0.437
31730W        W99959   6.948  43.071  11.481
31731W        W99960  14.572   9.246   1.889
31732W        W99961  38.015  32.143   4.318
31733W        W99962   5.916  11.901   4.250
31734W        W99963  39.379  25.240   0.757
31735W        W99964  16.082  20.088  13.000
31736W        W99965  21.474  31.992  11.612
31737W        W99966   1.937  36.860   3.699
31738W        W99967  18.491   0.954   1.656
31739W        W99968  19.718  22.641   4.293
31740W        W99969   9.588  28.777  11.067
31741W        W99970  41.701  34.821   2.647
31742W        W99971  15.322  32.955   1.940
31743W        W99972  27.162  30.405  13.829
31744W        W99973  24.010  37.813   1.882
31745W        W99974   8.703  26.549   3.618
31746W        W99975  33.669   8.164  14.348
31747W        W99976  16.536  10.091  11.984
31748W        W99977  31.839  32.030   1.833
31749W        W99978   8.741   6.926   0.846
31750W        W99979  16.724  33.606  14.803
31751W        W99980  30.539  30.460  14.035
31752W        W99981  22.502  17.207  11.200
31753W        W99982  16.799  19.004   5.525
31754W        W99983   3.488  39.856   0.215
31755W        W99984  20.192  12.809   1.265
31756W        W99985  15.980  22.958  14.705
31757W        W99986  30.029  14.111  14.704
31758W        W99987  26.782  12.576   0.872
31759W        W99988  38.329  14.760  14.901
31760W        W99989  41.501   6.565   3.491
31761W        W99990  23.105   3.493  13.444
31762W        W99991  24.189   4.246   0.497
31763W        W99992  23.221  28.603   2.454
31764W        W99993  22.704  30.070  11.180
31765W        W99994  19.366   4.667  13.452
31766W        W99995  44.813  14.646  12.596
31767W        W99996   8.356  29.652  14.278
31768W        W99997   5.913  30.137  12.300
31769W        W99998  21.623  41.755   4.412
31770W        W99999  40.333  39.116   1.716
31771W        W    0  39.020   3.685   2.457
31772W        W    1  13.359  32.537   1.452
31773W        W    2  23.110  34.923  11.959
31774W        W    3  23.048   1.649   2.603
31775W        W    4  38.981  24.504   4.068
31776W        W    5  33.456  24.588  13.448
31777W        W    6  10.916  38.548   3.303
31778W        W    7  18.270   5.373  14.091
31779W        W    8  34.354   6.071  12.557
31780W        W    9  37.153  17.649   2.782
31781W        W   10   9.762  22.112   3.147
31782W        W   11  17.168  10.427   2.657
31783W        W   12   8.367  25.459  14.019
31784W        W   13   1.694  30.835  12.029
31785W        W   14  19.543  19.302  12.029
31786W        W   15   1.310  29.425  13.073
31787W        W   16  24.517  38.611  12.366
31788W        W   17  38.263  15.735  11.496
31789W        W   18  16.145  26.418  13.877
31790W        W   19  43.125  25.127  10.998
31791W        W   20  32.213  43.075   1.426
31792W        W   21  20.077  40.946   3.048
31793W        W   22  40.507   3.853  13.319
31794W        W   23   9.406  26.671  12.798
31795W        W   24  28.528  40.833  13.325
31796W        W   25  30.327  21.116  12.027
31797W        W   26  20.714  35.585   1.872
31798W        W   27   1.475  17.175  12.797
31799W        W   28  44.073  36.988   2.118
31800W        W   29  14.363  33.119   2.182
31801W        W   30  37.700  21.263   4.180
31802W        W   31  17.223  36.097  14.027
31803W        W   32  20.607   7.119  10.646
31804W        W   33  40.141  25.999   3.903
31805W        W   34  36.538  11.600  11.538
31806W        W   35  41.538   8.240  13.992
31807W        W   36   9.315  15.606   2.225
31808W        W   37  13.165   2.270  13.333
31809W        W   38  17.739  21.729   0.871
31810W        W   39  14.349  10.350   0.276
31811W        W   40  34.366  13.208   4.743
31812W        W   41  15.549   4.814  12.154
31813W        W   42  29.074   0.697  13.875
31814W        W   43  12.186  35.887  14.740
31815W        W   44  18.310   9.245   1.317
31816W        W   45   7.771  24.087  12.999
31817W        W   46   4.820  15.567  13.574
31818W        W   47  17.166  18.235   2.402
31819W        W   48  41.466  22.043  14.400
31820W        W   49   2.175  15.757   1.460
31821W        W   50  17.914  34.561   4.351
31822W        W   51   2.979  18.072  12.752
31823W        W   52   9.102  23.472   1.216
31824W        W   53  39.344  13.249  10.673
31825W        W   54  10.194  30.464  13.774
31826W        W   55  12.501  41.268  11.628
31827W        W   56  21.706  32.337  14.398
31828W        W   57  40.571  39.203  12.922
31829W        W   58  30.974  34.038  12.264
31830W        W   59  24.667  26.660   0.242
31831W        W   60  34.418  17.177  14.063
31832W        W   61  22.280  36.000   1.329
31833W        W   62  41.460  31.116   3.645
31834W        W   63  30.608  41.859   0.174
31835W        W   64  21.670  31.051  10.725
31836W        W   65  14.315  36.991   2.818
31837W        W   66  42.147   1.993   2.716
31838W        W   67  27.408  13.967  12.545
31839W        W   68   8.896  10.082   0.464
31840W        W   69  21.686  41.571  12.773
31841W        W   70  20.787  21.127   3.254
31842W        W   71  20.734  12.771  14.267
31843W        W   72  29.494  19.249  10.204
31844W        W   73  17.173  19.319   5.357
31845W        W   74   2.895  15.212   1.260
31846W        W   75   1.460  34.985   1.233
31847W        W   76   9.567  42.166  14.594
31848W        W   77  25.561  39.257  10.784
31849W        W   78  15.112  20.071   4.053
31850W        W   79  27.725   8.695  14.684
31851W        W   80  24.704   1.849   4.446
31852W        W   81  33.128  30.138  14.379
31853W        W   82  18.416  36.439   4.627
31854W        W   83  17.117  37.486  11.968
31855W        W   84  31.729   2.701  12.051
31856W        W   85  34.333  18.310   2.775
31857W        W   86  16.965  28.122   4.652
31858W        W   87  43.315  13.168   2.609
31859W        W   88  33.486  25.946  13.544
31860W        W   89   8.352  23.076   4.399
31861W        W   90  23.181  22.206  10.699
31862W        W   91  39.807  42.176  11.080
31863W        W   92  28.526  17.780   0.715
31864W        W   93  28.129  36.362  10.876
31865W        W   94  33.438  43.790  10.486
31866W        W   95  31.196   0.272  10.363
31867W        W   96   4.205  17.731   2.340
31868W        W   97  41.996  34.618  11.812
31869W        W   98   9.594  34.011   1.287
31870W        W   99  19.142  42.910   0.814
31871W        W  100  31.974  18.660   4.655
31872W        W  101  12.787  16.223   4.539
31873W        W  102  14.094   7.381  12.489
31874W        W  103   6.879  41.905  12.559
31875W        W  104  21.679  42.892  14.370
31876W        W  105  40.483   7.639  12.924
31877W        W  106  35.908  44.610  12.165
31878W        W  107  12.874   8.812  10.679
31879W        W  108   3.932  29.525   1.282
31880W        W  109   1.637  36.900   3.278
31881W        W  110  26.652  28.470  12.671
31882W        W  111  33.801   0.636   4.366
31883W        W  112  27.652  16.232   2.797
31884W        W  113  20.239  31.125   2.317
31885W        W  114  40.079  17.056  11.619
31886W        W  115  10.386  35.671   1.246
31887W        W  116   4.684  15.366   2.785
31888W        W  117  43.346  30.318   0.392
31889W        W  118  27.626  25.526  13.977
31890W        W  119  13.285  43.212   3.135
31891W        W  120  26.858  43.643  11.290
31892W        W  121  17.933  26.100  12.132
31893W        W  122   3.679   9.943   1.345
31894W        W  123  18.987  34.185  14.106
31895W        W  124  35.447  12.894   3.831
31896W        W  125  32.876  37.514   0.932
31897W        W  126  29.441   7.477   3.224
31898W        W  127  22.984  13.228   4.968
31899W        W  128  35.871   1.689  14.991
31900W        W  129   4.219  14.784  11.188
31901W        W  130  21.218   3.318   1.183
31902W        W  131  24.574  11.685  12.714
31903W        W  132  41.897  33.607  10.282
31904W        W  133  26.221   5.238  14.129
31905W        W  134  29.348  30.070   4.144
31906W        W  135  34.060   1.957  14.350
31907W        W  136  42.527  41.689   3.325
31908W        W  137   3.538  29.387   3.791
31909W        W  138  34.946  20.625   4.388
31910W        W  139  15.642  25.297  12.797
31911W        W  140  36.899  24.147   4.283
31912W        W  141  37.563  27.101  14.257
31913W        W  142  29.762  27.459  11.164
31914W        W  143  35.354  40.459  11.980
31915W        W  144  20.654   4.625   0.074
31916W        W  145  35.893   6.756   4.051
31917W        W  146  38.794  36.628  11.205
31918W        W  147  19.041  32.009  13.484
31919W        W  148  19.352  38.115  10.985
31920W        W  149  26.764  43.915   2.144
31921W        W  150  38.000   4.914  14.616
31922W        W  151  44.893  11.172   2.333
31923W        W  152  44.015  43.758   4.484
31924W        W  153  24.673  15.436  12.555
31925W        W  154  33.321  21.932  14.603
31926W        W  155   0.764   7.165  11.876
31927W        W  156  34.582  15.858   1.909
31928W        W  157  29.024  15.812   0.405
31929W        W  158  12.080   6.186  14.859
31930W        W  159  14.477  15.236  12.926
31931W        W  160   7.914  29.874   2.266
31932W        W  161  37.878  21.626  11.686
31933W        W  162  41.614  16.872  11.568
31934W        W  163   3.847   7.396  14.987
31935W        W  164  28.069  42.625  13.579
31936W        W  165  30.926  13.281   3.874
31937W        W  166   6.369  11.396   1.809
31938W        W  167  33.717  28.401  11.233
31939W        W  168  23.065  40.102  11.741
31940W        W  169  14.860  34.369  11.946
31941W        W  170  26.191  21.765  10.392
31942W        W  171  40.494  31.712   9.965
31943W        W  172  11.187  33.835  14.781
31944W        W  173   2.997   9.679   3.792
31945W        W  174  30.662  34.377  11.122
31946W        W  175  44.285  32.842   3.794
31947W        W  176  33.439  44.296   0.204
31948W        W  177  14.161  21.270  11.892
31949W        W  178  25.151  32.032  12.693
31950W        W  179  35.933   3.307  13.304
31951W        W  180   0.220  29.105  14.980
31952W        W  181  11.098  39.902  14.069
31953W        W  182   0.728  10.624   2.884
31954W        W  183  17.084   9.398  11.646
31955W        W  184   2.485  36.845   3.722
31956W        W  185   4.624  12.135  14.878
31957W        W  186  23.971  16.651  14.038
31958W        W  187  44.333  28.904   2.227
31959W        W  188   4.957  11.760   4.065
31960W        W  189  36.908   4.935   1.879
31961W        W  190  24.651  44.513   0.897
31962W        W  191  14.871  18.586  13.116
31963W        W  192  27.190  21.090   4.674
31964W        W  193  10.852   7.275  10.644
31965W        W  194  44.215   1.554   0.043
31966W        W  195  11.213   1.663   3.167
31967W        W  196  34.232  11.124   0.866
31968W        W  197  41.410   9.507   1.689
31969W        W  198  41.258  10.449   4.593
31970W        W  199  28.034  11.815   2.834
31971W        W  200  13.791   5.978   0.035
31972W        W  201   4.751   8.503  12.525
31973W        W  202   3.335  30.200   4.117
31974W        W  203  34.709  34.514  12.341
31975W        W  204   9.298  10.654   0.033
31976W        W  205  38.783  22.609   1.388
31977W        W  206  29.753  10.899  12.341
31978W        W  207  35.794  35.947  13.293
31979W        W  208  43.513  15.234  10.645
31980W        W  209  10.698   9.623   2.387
31981W        W  210   3.898  23.008  12.078
31982W        W  211  44.259  26.421  13.918
31983W        W  212  34.918  20.103   4.296
31984W        W  213  14.250  39.354   2.629
31985W        W  214  39.798  16.897   2.845
31986W        W  215   1.245  33.334  14.266
31987W        W  216   0.017  27.981   0.198
31988W        W  217  33.938   6.193  13.875
31989W        W  218  14.357  14.263  13.879
31990W        W  219  13.063  18.131  11.504
31991W        W  220  42.912  14.047   3.813
31992W        W  221   2.998  16.594  13.621
31993W        W  222   5.866  18.792  10.602
31994W        W  223  23.252  29.047  12.444
31995W        W  224   0.294  35.608  11.737
31996W        W  225  30.541   6.369  12.459
31997W        W  226  13.842   5.089   1.050
31998W        W  227  33.163   8.439   0.766
31999W        W  228  17.801  34.381  14.006
32000W        W  229  20.235   9.644   1.373
32001W        W  230  39.111  24.748   4.502
32002W        W  231  27.669  37.740  10.859
32003W        W  232  36.566  38.584  11.459
32004W        W  233  10.842  27.302  12.977
32005W        W  234   9.625   1.540  13.708
32006W        W  235  36.579  33.894   3.281
32007W        W  236   1.790  34.410   4.921
32008W        W  237   2.436  11.893  13.827
32009W        W  238   2.789  16.718   1.932
32010W        W  239   5.516  13.431   1.284
32011W        W  240  24.930  39.797  11.901
32012W        W  241  34.805  21.103  10.653
32013W        W  242  15.743   0.578   2.679
32014W        W  243  20.956  33.431  13.605
32015W        W  244  15.335   8.860   1.746
32016W        W  245  24.551   8.655   1.462
32017W        W  246  18.617  22.648  11.212
32018W        W  247  40.425  38.873   3.605
32019W        W  248   6.018  16.373   4.558
32020W        W  249  20.692   9.887  10.961
32021W        W  250  10.334   6.246  13.955
32022W        W  251   2.889   4.146   2.779
32023W        W  252  43.000  35.269  12.339
32024W        W  253  36.724  44.861  14.867
32025W        W  254   1.760  15.778   0.019
32026W        W  255   4.498  44.946   0.318
32027W        W  256  28.488  39.844  14.237
32028W        W  257  36.381  22.556   0.242
32029W        W  258  37.102  33.541  12.144
32030W        W  259  21.517   1.323  13.516
32031W        W  260  15.660  26.850   4.076
32032W        W  261  40.202  25.898  13.294
32033W        W  262  30.005  22.480   3.350
32034W        W  263   8.440   7.804  10.359
32035W        W  264  28.913  34.880  12.352
32036W        W  265  34.814  19.055   4.170
32037W        W  266  43.746  37.423   2.219
32038W        W  267  17.011  28.522  10.143
32039W        W  268   7.562  20.162   4.196
32040W        W  269  17.875  39.561   2.778
32041W        W  270  42.361  43.683  13.446
32042W        W  271  10.553  33.307  12.618
32043W        W  272  43.438   3.390   2.802
32044W        W  273  43.316  42.300   1.433
32045W        W  274  12.109  17.654   1.734
32046W        W  275  32.729  39.958  13.230
32047W        W  276   9.357  20.178   3.707
32048W        W  277   3.984  26.599   4.344
32049W        W  278   4.521   0.292   2.252
32050W        W  279  39.328  13.734   2.667
32051W        W  280  22.740  34.990   0.414
32052W        W  281   5.486  11.603  10.402
32053W        W  282   1.233   7.790   0.448
32054W        W  283  20.694   0.665   4.070
32055W        W  284  33.552  19.004   1.345
32056W        W  285  31.963  18.883  11.753
32057W        W  286  11.343  18.416  13.743
32058W        W  287  20.308  30.957  12.978
32059W        W  288  42.857   8.573  14.426
32060W        W  289  32.586  31.491   2.991
32061W        W  290  31.376   6.420   3.148
32062W        W  291  19.118  20.640   4.989
32063W        W  292  31.181  42.472  11.113
32064W        W  293  41.859  17.203  13.986
32065W        W  294  29.455  23.677  11.698
32066W        W  295  16.887  22.027   1.780
32067W        W  296  20.904  21.921   2.374
32068W        W  297   1.038  16.137  14.036
32069W        W  298  33.129  20.654   3.383
32070W        W  299  31.564   1.283   4.175
32071W        W  300  17.308  25.469   4.732
32072W        W  301  17.524   6.681  13.553
32073W        W  302  30.761  37.980  12.553
32074W        W  303  35.048  18.288  12.907
32075W        W  304   5.856  16.275   0.366
32076W        W  305  42.461  14.238  11.696
32077W        W  306   7.871  40.246  13.990
32078W        W  307  43.886  26.377   4.332
32079W        W  308  24.836  38.034   5.053
32080W        W  309  35.858  30.467   3.299
32081W        W  310  19.992  11.627   5.227
32082W        W  311  20.231  30.022  12.871
32083W        W  312  37.975  35.794  12.483
32084W        W  313  25.772   3.841  12.397
32085W        W  314  35.050  16.789   5.420
32086W        W  315  39.812  35.525  14.774
32087W        W  316   4.367  23.997   3.943
32088W        W  317  42.457  18.317  13.494
32089W        W  318  44.585  10.819   4.268
32090W        W  319  42.218  22.246  12.239
32091W        W  320  19.761   8.688   0.096
32092W        W  321   1.245   2.315  13.356
32093W        W  322  11.823  14.283  13.418
32094W        W  323  24.937  25.917  14.735
32095W        W  324  25.424  38.332   0.393
32096W        W  325  36.602  41.077  13.802
32097W        W  326   5.391  16.215  12.365
32098W        W  327   9.570  40.249  14.569
32099W        W  328  27.658  30.455  11.089
32100W        W  329  38.432  12.240  10.419
32101W        W  330  24.291   5.165  14.896
32102W        W  331  43.883  37.495  10.671
32103W        W  332  30.202  42.887  11.654
32104W        W  333  40.548   3.949   0.486
32105W        W  334  10.905  27.634   3.765
32106W        W  335  23.665  38.345  14.208
32107W        W  336  17.252  31.022   2.198
32108W        W  337   3.365  21.669  13.870
32109W        W  338  32.100  36.085  11.920
32110W        W  339   8.668  13.655  11.742
32111W        W  340   3.102  27.631   0.886
32112W        W  341   6.790   9.335  14.469
32113W        W  342   7.929   1.835  14.735
32114W        W  343  38.917  14.887   4.479
32115W        W  344   1.935  41.561   3.193
32116W        W  345  28.466   1.413   3.567
32117W        W  346   6.243  14.372   2.270
32118W        W  347  31.586  35.694  13.609
32119W        W  348  44.050  43.743   3.969
32120W        W  349   1.871  43.865  13.790
32121W        W  350  42.863  33.500   3.739
32122W        W  351  13.793   8.292   2.365
32123W        W  352   8.786  25.106   3.886
32124W        W  353  10.518  18.593   2.804
32125W        W  354  28.677  40.327  14.556
32126W        W  355  20.649  28.568   2.233
32127W        W  356  33.474   9.755  14.938
32128W        W  357  34.118  10.269   2.972
32129W        W  358  32.593  13.892   1.200
32130W        W  359  17.052  14.960  14.555
32131W        W  360  40.950  41.375  10.780
32132W        W  361   7.776  38.317  12.976
32133W        W  362   2.461  41.832   1.438
32134W        W  363  10.416   2.100   4.133
32135W        W  364  12.886  27.678   0.762
32136W        W  365  14.322  10.234   3.694
32137W        W  366  43.380   5.699  11.942
32138W        W  367  10.226  44.531   2.135
32139W        W  368  41.723  16.284   1.553
32140W        W  369  44.309  35.523  12.094
32141W        W  370  29.414   5.925   2.782
32142W        W  371  32.483   6.653  13.965
32143W        W  372  25.879  36.321   4.609
32144W        W  373   5.685  35.435   1.203
32145W        W  374  24.557   9.740  11.999
32146W        W  375  27.214   0.709   4.134
32147W        W  376  14.093  26.759  12.952
32148W        W  377   3.361   0.672   0.736
32149W        W  378  17.636   3.420  12.935
32150W        W  379  10.780   8.064   2.381
32151W        W  380   2.524  14.903  11.605
32152W        W  381  29.965  14.608  11.997
32153W        W  382  15.532  22.498   4.309
32154W        W  383  44.873  28.166  11.971
32155W        W  384  38.588  29.003  11.067
32156W        W  385  10.160  28.946   2.870
32157W        W  386   4.552  43.364   3.639
32158W        W  387  29.142  24.259  12.096
32159W        W  388  32.576  44.511  10.656
32160W        W  389   0.465  40.969   0.539
32161W        W  390  39.059  13.248   1.009
32162W        W  391  13.379  22.554   2.156
32163W        W  392   6.494  40.033   2.852
32164W        W  393  18.632   0.875   4.237
32165W        W  394  21.344  37.502  10.250
32166W        W  395  31.695  39.263   4.083
32167W        W  396  18.612  43.618  12.309
32168W        W  397  27.386  39.781  12.642
32169W        W  398  20.291   2.486  12.909
32170W        W  399  43.454  14.721  13.529
32171W        W  400  23.428  12.334   3.904
32172W        W  401  38.139   3.322   0.850
32173W        W  402  42.845  16.035   3.632
32174W        W  403  12.560  35.459   4.577
32175W        W  404  12.130  33.840  10.683
32176W        W  405  10.234  17.241  13.769
32177W        W  406   8.701  31.635   2.826
32178W        W  407  41.448   3.920   0.980
32179W        W  408  41.510  41.097   1.287
32180W        W  409  24.744  11.642   2.345
32181W        W  410  34.351  15.834   2.695
32182W        W  411  20.808  10.247  14.257
32183W        W  412  37.991  28.489  10.676
32184W        W  413   2.423  27.042  12.468
32185W        W  414  35.177  30.690  12.329
32186W        W  415  40.798   3.272   1.903
32187W        W  416  41.875  41.951   2.556
32188W        W  417  13.878   7.993  13.503
32189W        W  418  40.082  41.420  14.302
32190W        W  419  38.647  37.439   1.155
32191W        W  420  24.122  18.139  14.159
32192W        W  421  31.308  40.748   2.997
32193W        W  422  28.095   1.606   1.476
32194W        W  423  31.200   1.691   2.367
32195W        W  424  16.692   5.628  13.422
32196W        W  425  34.850  31.118  14.118
32197W        W  426  23.563  21.306   1.219
32198W        W  427  16.738  26.121   5.206
32199W        W  428   0.900   0.832  14.952
32200W        W  429   0.240   6.619  14.914
32201W        W  430   4.406  10.443   2.859
32202W        W  431  31.061  18.142   1.344
32203W        W  432   0.690   0.057   2.713
32204W        W  433  42.442   7.470  10.641
32205W        W  434  28.657  20.173  10.940
32206W        W  435  37.849   1.771  13.796
32207W        W  436   4.692   5.736   2.045
32208W        W  437   7.591  14.507   4.699
32209W        W  438  14.193  25.547  11.130
32210W        W  439  29.173  29.054   0.901
32211W        W  440  33.102  21.581  14.948
32212W        W  441  39.809  13.469  13.796
32213W        W  442  28.360   3.282   4.219
32214W        W  443   1.724  42.813   4.873
32215W        W  444  32.347  30.662  14.892
32216W        W  445  40.247  25.124   4.670
32217W        W  446  13.244  27.524  14.947
32218W        W  447  33.511  44.974  14.552
32219W        W  448  24.995  30.560   2.123
32220W        W  449  41.873  38.521   0.320
32221W        W  450  34.398  34.508   3.527
32222W        W  451  37.216  11.151  11.495
32223W        W  452  28.405   2.770  14.362
32224W        W  453  11.102  12.310   3.139
32225W        W  454  42.858  24.398   4.512
32226W        W  455  36.530  32.176  12.651
32227W        W  456  22.500  25.640  11.603
32228W        W  457  17.026  40.625  11.854
32229W        W  458  33.083  29.206  13.106
32230W        W  459  18.681  10.798   2.302
32231W        W  460  34.487  38.262   0.343
32232W        W  461  32.511  14.429  14.553
32233W        W  462  36.408   3.038  13.972
32234W        W  463   2.942  43.260   1.768
32235W        W  464  30.573  36.083  11.237
32236W        W  465  21.191  27.487   4.824
32237W        W  466  18.721  18.333   3.517
32238W        W  467  18.797  16.222   0.903
32239W        W  468  10.050  14.145   4.991
32240W        W  469  32.631  13.669   4.585
32241W        W  470  15.527  16.632   1.840
32242W        W  471  32.468  24.094   3.893
32243W        W  472   6.830   2.216   0.344
32244W        W  473  20.031  20.253  12.822
32245W        W  474  32.262   2.605   0.956
32246W        W  475  17.567   8.863   1.760
32247W        W  476   5.243  38.375   2.327
32248W        W  477  35.310  42.170   1.920
32249W        W  478  41.662   8.481   5.077
32250W        W  479  29.254   5.750  12.562
32251W        W  480  34.014  22.170   0.541
32252W        W  481  42.131   9.385   5.019
32253W        W  482  12.630   5.292  14.824
32254W        W  483   6.410  32.529   0.739
32255W        W  484  40.552  42.037   4.094
32256W        W  485  28.091  33.632   1.851
32257W        W  486  43.883  22.948   4.844
32258W        W  487  37.009   5.063   0.379
32259W        W  488  23.524  42.966  12.495
32260W        W  489  35.593  39.242   1.176
32261W        W  490   8.726  15.427  12.400
32262W        W  491  32.337  14.044  11.073
32263W        W  492   7.813  22.789   2.210
32264W        W  493  12.539  42.331   2.628
32265W        W  494  24.954   5.146  12.014
32266W        W  495  36.838  43.456   4.249
32267W        W  496  15.303  25.624   3.586
32268W        W  497   7.881  34.269  10.467
32269W        W  498  44.285  36.585   2.355
32270W        W  499   7.074   5.330  12.043
32271W        W  500  16.776  36.419  10.612
32272W        W  501   9.903  13.978   4.526
32273W        W  502  43.664  35.155  13.045
32274W        W  503  42.217  40.790   0.989
32275W        W  504  11.803  33.552   1.149
32276W        W  505  42.385  17.980   1.626
32277W        W  506  44.496   1.332   4.911
32278W        W  507  16.534  16.547   4.535
32279W        W  508   6.593  17.630  13.373
32280W        W  509  10.081  20.587  11.619
32281W        W  510  43.067  12.186  11.567
32282W        W  511  43.939  27.366  14.218
32283W        W  512  32.480  23.427  13.322
32284W        W  513   1.219  21.080   1.285
32285W        W  514  29.438   0.422  12.114
32286W        W  515   9.414   0.799   2.615
32287W        W  516  27.947  36.185  11.531
32288W        W  517   6.878  41.520   2.244
32289W        W  518  44.420   8.754  14.118
32290W        W  519  26.101   2.986   1.643
32291W        W  520  36.391  30.818  12.485
32292W        W  521  27.937  18.465   5.010
32293W        W  522   0.314   7.453  12.067
32294W        W  523   3.982  40.249   4.571
32295W        W  524  44.263  17.857   1.690
32296W        W  525  42.899  32.972  14.809
32297W        W  526  17.882  13.194   2.744
32298W        W  527  43.022   7.206  10.356
32299W        W  528  13.094   0.778   2.037
32300W        W  529  33.577  17.687   4.345
32301W        W  530  37.660   9.467   3.203
32302W        W  531  20.160  38.677   1.467
32303W        W  532  15.500  32.056  14.159
32304W        W  533  13.826  36.565  12.353
32305W        W  534  14.301  33.444   3.998
32306W        W  535  10.407   9.758  11.910
32307W        W  536   6.059  31.109   3.654
32308W        W  537  38.420  43.926  12.878
32309W        W  538  33.645  19.682   2.440
32310W        W  539  26.889   2.435   4.805
32311W        W  540   5.454   6.642   2.702
32312W        W  541  41.419  43.684   3.544
32313W        W  542  27.665   6.825  12.150
32314W        W  543  37.904  27.260   3.810
32315W        W  544  38.424  10.896  14.264
32316W        W  545   1.875  36.469   1.671
32317W        W  546  30.357   3.823   0.769
32318W        W  547  16.246  25.001   0.886
32319W        W  548  30.880  21.719   1.519
32320W        W  549   0.941   3.285   0.198
32321W        W  550  19.539  42.719  10.832
32322W        W  551   1.362  22.348  11.531
32323W        W  552  23.832  38.452   4.591
32324W        W  553   3.887  37.086  14.284
32325W        W  554   9.886  24.659  14.873
32326W        W  555  34.557  44.353  13.913
32327W        W  556  26.402  30.480  10.697
32328W        W  557  28.087  35.845   4.177
32329W        W  558  20.110  12.703   0.328
32330W        W  559  19.566  19.406  13.524
32331W        W  560  33.007   5.844  10.220
32332W        W  561  40.317   3.652  11.450
32333W        W  562  25.555  25.017  13.308
32334W        W  563   4.217  42.960  13.347
32335W        W  564  16.190  32.787  13.201
32336W        W  565  12.939   4.252  12.265
32337W        W  566  28.164   4.839  12.142
32338W        W  567  27.028  30.942  11.381
32339W        W  568  17.124  16.109   0.411
32340W        W  569  31.905  23.584  12.453
32341W        W  570  33.961  25.746   4.583
32342W        W  571  21.519  38.618   0.503
32343W        W  572  26.073  36.636  14.847
32344W        W  573  11.181  20.157   0.535
32345W        W  574   2.353  20.811  13.329
32346W        W  575  38.323  38.877   3.301
32347W        W  576   3.421  25.524   0.486
32348W        W  577  22.108  29.423   1.976
32349W        W  578  20.496  26.544  11.549
32350W        W  579   6.430   8.704   1.760
32351W        W  580  18.984  16.457   4.003
32352W        W  581   3.144   8.435   3.425
32353W        W  582  33.153  39.389  12.592
32354W        W  583  44.114  18.179  12.869
32355W        W  584  22.511  41.963  10.234
32356W        W  585  16.830  42.067  12.795
32357W        W  586  44.035  22.448  10.722
32358W        W  587  29.241  39.240  11.711
32359W        W  588  11.453  40.783  14.461
32360W        W  589   5.420  30.426   1.015
32361W        W  590  20.719  37.124  13.908
32362W        W  591   8.637  17.808  12.530
32363W        W  592   4.925  13.241   1.318
32364W        W  593  42.800  26.325  11.240
32365W        W  594   3.985  39.014  11.436
32366W        W  595   2.651   8.487  11.578
32367W        W  596  15.182  14.184   0.454
32368W        W  597   5.408  35.279  12.864
32369W        W  598  44.759  18.678   0.303
32370W        W  599  26.455  29.622   0.723
32371W        W  600   4.787  25.761  14.865
32372W        W  601  15.166  23.564   5.054
32373W        W  602  44.299  28.759   3.207
32374W        W  603   9.646  18.059   1.719
32375W        W  604  41.910  23.398   3.574
32376W        W  605  34.557   4.935   0.283
32377W        W  606  24.709   9.591  13.923
32378W        W  607  35.001   1.914  10.223
32379W        W  608   8.158  44.330   3.701
32380W        W  609   8.433  39.956  12.582
32381W        W  610  37.471  19.239   4.299
32382W        W  611  35.708  12.690  14.268
32383W        W  612  41.206  34.335  10.706
32384W        W  613  43.988  26.625  12.660
32385W        W  614  39.089  17.277  14.976
32386W        W  615  32.382  19.293   5.095
32387W        W  616  43.420  44.457  12.579
32388W        W  617   2.279  10.537  12.779
32389W        W  618   2.544  39.585   3.814
32390W        W  619  21.100  21.899   1.337
32391W        W  620  32.495   2.706  11.522
32392W        W  621   9.814   6.699   4.264
32393W        W  622  10.365  28.626   4.656
32394W        W  623  39.063   5.906   1.712
32395W        W  624  19.851  29.615   1.430
32396W        W  625  31.936   7.518   0.497
32397W        W  626  29.885  28.409  11.164
32398W        W  627  17.722  16.855  13.167
32399W        W  628  40.161  16.506   2.874
32400W        W  629   8.298  35.265  11.595
32401W        W  630  21.285  16.779   0.409
32402W        W  631   8.779  15.719  11.517
32403W        W  632  34.723  18.348   3.794
32404W        W  633  19.560  44.213   4.060
32405W        W  634   1.366  35.989   1.247
32406W        W  635  22.685  40.658  14.588
32407W        W  636  44.748  34.905   3.723
32408W        W  637   8.356  23.946   4.154
32409W        W  638  34.009  17.048  14.379
32410W        W  639   8.853  26.104  14.395
32411W        W  640  40.321  28.863   1.733
32412W        W  641  15.375  32.585  12.831
32413W        W  642  38.326  23.730   2.091
32414W        W  643  18.462  25.755   5.162
32415W        W  644  37.764  41.256  10.398
32416W        W  645  19.913  41.977   4.981
32417W        W  646  41.127  21.130   3.124
32418W        W  647  16.112  14.597  13.034
32419W        W  648  39.411  32.046   3.644
32420W        W  649   5.408  16.781   1.336
32421W        W  650  21.609  44.482   1.590
32422W        W  651   1.720   6.860  11.989
32423W        W  652  16.607  28.687  12.089
32424W        W  653  10.620  14.072   2.635
32425W        W  654  39.343  20.730  14.374
32426W        W  655  21.531  44.539  14.887
32427W        W  656  43.509   4.711  14.029
32428W        W  657  30.738   2.914   0.866
32429W        W  658  19.051   1.796   0.812
32430W        W  659  32.852  10.180   4.826
32431W        W  660  43.015   0.528  11.950
32432W        W  661  27.853  26.161   3.841
32433W        W  662  18.100  14.752  11.573
32434W        W  663  20.019   1.412  14.844
32435W        W  664   0.816   1.287  10.712
32436W        W  665   6.922  20.714   4.690
32437W        W  666  10.657  38.742  10.729
32438W        W  667  25.609  18.065   1.231
32439W        W  668  18.591  29.392  13.575
32440W        W  669   0.453  20.978  13.356
32441W        W  670   8.603  37.785  13.744
32442W        W  671  33.058  37.274  14.131
32443W        W  672  28.084   6.164   1.055
32444W        W  673  41.324   8.230  14.899
32445W        W  674  32.940  13.627  14.591
32446W        W  675  28.907  20.422  14.127
32447W        W  676  21.749  18.045  12.692
32448W        W  677  15.322   4.353  12.088
32449W        W  678  39.762  42.342   4.591
32450W        W  679   3.284  19.788   0.030
32451W        W  680  17.888   8.846   3.183
32452W        W  681   7.248  11.685   4.834
32453W        W  682   9.870   1.111  10.808
32454W        W  683  31.126  27.085  13.041
32455W        W  684  42.836  22.752  12.780
32456W        W  685  25.079  22.671  10.334
32457W        W  686  30.623  40.909   0.920
32458W        W  687  27.844  39.340  11.499
32459W        W  688  22.646  19.783   4.480
32460W        W  689  26.080  36.057   2.288
32461W        W  690  20.334  31.591   1.468
32462W        W  691  33.882   6.184  14.382
32463W        W  692  17.244  27.450   4.038
32464W        W  693  44.045  21.949  13.209
32465W        W  694  17.483  38.190   1.654
32466W        W  695  21.272  15.008  12.082
32467W        W  696  44.726  39.955  11.202
32468W        W  697  39.901  10.186   1.836
32469W        W  698   1.216   7.167  11.568
32470W        W  699  15.724  17.760   2.222
32471W        W  700  29.080  34.388  12.407
32472W        W  701  11.453   3.382  14.832
32473W        W  702  17.069  22.844   9.800
32474W        W  703   2.525  19.297  12.004
32475W        W  704  29.441  18.491  10.720
32476W        W  705  24.645   0.644  13.288
32477W        W  706  34.303  35.517  11.944
32478W        W  707  32.860   5.500  10.589
32479W        W  708   1.231  11.670  12.448
32480W        W  709  34.999   5.445   1.421
32481W        W  710  40.859  10.903   3.316
32482W        W  711  25.538   6.779  10.537
32483W        W  712  24.985  44.950  12.105
32484W        W  713  34.757   0.863   0.168
32485W        W  714  20.584  39.429   2.759
32486W        W  715  41.227  30.253   2.297
32487W        W  716  41.853  18.540   2.737
32488W        W  717  13.551  30.328   2.590
32489W        W  718   3.883  18.654   2.339
32490W        W  719   3.130  20.514  11.251
32491W        W  720  32.631   1.728   0.505
32492W        W  721  41.877  31.671   2.902
32493W        W  722  33.499  21.273   4.593
32494W        W  723   9.676   6.911  10.517
32495W        W  724  23.140  39.155  11.460
32496W        W  725  19.592   7.911   3.714
32497W        W  726  18.590  30.920  10.425
32498W        W  727  15.754  14.937   2.213
32499W        W  728  26.109   8.716   1.950
32500W        W  729  14.496  10.621   1.286
32501W        W  730  43.297  20.633  10.386
32502W        W  731  27.154  16.363   3.456
32503W        W  732  10.454  18.244   1.096
32504W        W  733  30.725   9.158  11.156
32505W        W  734  37.023   2.354  11.190
32506W        W  735  40.811   2.234  14.867
32507W        W  736  23.189   0.892   3.571
32508W        W  737  14.879   8.795   2.671
32509W        W  738  25.592  19.544   4.570
32510W        W  739   0.435  30.494   4.649
32511W        W  740  28.987  33.315  14.400
32512W        W  741  38.513  20.053  13.176
32513W        W  742  35.077  44.802  10.532
32514W        W  743   9.301  20.254   4.750
32515W        W  744  19.198  23.059  10.686
32516W        W  745  13.323   5.898   4.867
32517W        W  746  41.888   3.824  10.609
32518W        W  747  26.164  40.924  12.832
32519W        W  748  20.640   1.683   3.331
32520W        W  749  32.085  41.937   4.779
32521W        W  750   7.208  19.222   4.684
32522W        W  751  31.451  30.465   3.724
32523W        W  752  41.464  31.628   3.670
32524W        W  753  29.045   4.764  14.465
32525W        W  754   1.837  31.175   4.244
32526W        W  755   7.105   3.247   3.861
32527W        W  756  15.120  22.781   3.480
32528W        W  757   0.962  23.201  10.702
32529W        W  758  42.538  22.090  12.608
32530W        W  759  20.306  18.011  14.886
32531W        W  760   9.843  40.882   3.138
32532W        W  761   3.213  27.474   3.767
32533W        W  762  20.133  31.024  11.307
32534W        W  763  23.121   1.283  14.894
32535W        W  764   0.645  36.994  12.985
32536W        W  765  32.499  41.465   3.436
32537W        W  766  13.060   8.906  12.118
32538W        W  767  32.396  22.034   0.546
32539W        W  768  31.022  36.396  13.581
32540W        W  769   8.939  18.703  13.025
32541W        W  770  38.565  42.858   4.169
32542W        W  771   2.342  21.777  11.924
32543W        W  772  32.538  15.546   9.852
32544W        W  773  27.643  20.087   3.130
32545W        W  774  19.493  16.167  14.378
32546W        W  775  27.550  35.111   4.078
32547W        W  776  27.788  41.473   1.201
32548W        W  777  39.050   2.243   3.670
32549W        W  778  24.041  39.016   0.354
32550W        W  779   1.423   0.881  14.977
32551W        W  780  14.672  37.041   2.304
32552W        W  781  37.419   2.452  13.805
32553W        W  782  17.570  39.026  12.642
32554W        W  783  31.226  40.802   4.200
32555W        W  784  38.535  32.715  14.785
32556W        W  785  36.907  36.648   1.501
32557W        W  786   9.678  26.055  10.874
32558W        W  787  12.909   5.811   3.925
32559W        W  788  33.896  44.261   0.514
32560W        W  789  39.534   2.684   2.743
32561W        W  790  31.847  31.480  12.862
32562W        W  791   5.799  15.091  13.543
32563W        W  792  40.024  20.136   0.837
32564W        W  793   1.792  40.996   4.487
32565W        W  794  26.773   2.373  13.018
32566W        W  795   0.733   7.230   0.297
32567W        W  796  10.215  26.762   5.091
32568W        W  797  44.443  38.283  13.923
32569W        W  798  15.037  12.922  14.971
32570W        W  799   8.423  22.718  14.193
32571W        W  800  27.392  19.301   2.322
32572W        W  801   3.531   6.565   0.199
32573W        W  802  30.450  36.743   3.819
32574W        W  803  18.106  22.327  11.957
32575W        W  804  33.157   7.714  10.686
32576W        W  805  37.492   1.868   4.576
32577W        W  806   5.439   3.836  13.875
32578W        W  807  11.188   0.733  14.338
32579W        W  808  17.861  32.068   1.125
32580W        W  809  27.966   3.136  10.801
32581W        W  810  27.135  26.433   4.287
32582W        W  811   9.704  36.382   4.216
32583W        W  812  32.469  19.698   1.677
32584W        W  813  27.896  25.940   2.956
32585W        W  814  16.575  44.814   1.246
32586W        W  815  10.375  30.132   1.878
32587W        W  816  28.985   3.595   0.982
32588W        W  817   3.269  41.789  10.768
32589W        W  818  32.190   0.238  14.432
32590W        W  819   2.760  26.892  12.907
32591W        W  820  14.877  28.544  14.834
32592W        W  821  26.974   9.458   0.125
32593W        W  822  18.030  13.195   2.219
32594W        W  823  14.475  17.426  10.747
32595W        W  824  23.918  15.831  12.382
32596W        W  825  19.073   0.819  12.405
32597W        W  826  43.389  25.676   0.783
32598W        W  827  40.635  14.821  12.827
32599W        W  828  14.352  29.684   0.357
32600W        W  829  43.376  23.960  13.833
32601W        W  830  40.077  19.693   3.374
32602W        W  831  42.832  16.259   0.200
32603W        W  832  29.031  24.959   4.835
32604W        W  833  12.681  25.152  12.410
32605W        W  834  14.818  40.489   4.164
32606W        W  835  39.480  15.891   4.159
32607W        W  836  29.484  13.742  11.146
32608W        W  837  16.316  30.852   2.064
32609W        W  838  43.808   7.665  14.491
32610W        W  839  30.827  19.886  10.671
32611W        W  840   2.905  11.003  11.568
32612W        W  841   8.006  44.505   1.846
32613W        W  842  42.538  35.274  11.124
32614W        W  843  22.047  14.332  14.135
32615W        W  844  27.568  16.969   1.184
32616W        W  845  24.186   5.651  10.572
32617W        W  846  27.353  24.730   3.174
32618W        W  847  32.938  19.747   1.341
32619W        W  848  11.261  38.011   0.573
32620W        W  849   6.450  19.739   4.654
32621W        W  850   2.286  37.019  13.130
32622W        W  851  24.275  32.104  14.611
32623W        W  852   9.095  37.851   1.423
32624W        W  853  22.836  12.289   1.663
32625W        W  854  41.299   1.433  12.496
32626W        W  855  39.550   5.324   1.739
32627W        W  856   6.836  19.180  12.001
32628W        W  857  32.781  26.454   3.392
32629W        W  858   4.176  17.707   1.471
32630W        W  859  42.061  21.931   0.230
32631W        W  860  19.197  44.519   2.771
32632W        W  861  19.724  10.624  13.436
32633W        W  862  17.294  40.739   0.865
32634W        W  863  41.056  30.623  12.822
32635W        W  864   8.715   8.879   1.852
32636W        W  865  30.163  22.608  14.944
32637W        W  866  23.807  22.469  11.069
32638W        W  867   8.670  28.469  12.934
32639W        W  868  28.891  41.646  13.320
32640W        W  869  20.267  32.919  11.298
32641W        W  870  30.229  33.406  12.347
32642W        W  871  25.691  33.632  11.633
32643W        W  872  25.720  26.515   1.728
32644W        W  873   9.590  31.526  10.377
32645W        W  874  27.221  23.201   0.432
32646W        W  875  39.778  24.596   0.302
32647W        W  876  10.157  19.889  10.548
32648W        W  877  10.255   3.329  12.196
32649W        W  878  14.342  29.192  14.228
32650W        W  879  42.803  37.865   3.615
32651W        W  880  32.075  23.736  13.383
32652W        W  881   4.240  35.406   2.263
32653W        W  882  21.019  27.131  13.948
32654W        W  883  21.077  39.439   2.922
32655W        W  884   7.986  11.566   4.466
32656W        W  885   9.686  25.410  11.497
32657W        W  886   0.264   0.219   0.378
32658W        W  887  29.691  11.903  13.861
32659W        W  888  24.469  36.520  14.706
32660W        W  889  40.835  28.437  12.089
32661W        W  890  18.232  20.318  13.766
32662W        W  891  29.602  20.705  13.798
32663W        W  892   1.714  22.526   4.689
32664W        W  893   4.003   3.018  14.946
32665W        W  894   1.290  24.296   3.737
32666W        W  895  35.177  22.393  12.581
32667W        W  896  41.176  33.382   1.330
32668W        W  897  14.144  13.466  13.002
32669W        W  898   9.947  42.861   2.789
32670W        W  899  19.796   6.831  12.977
32671W        W  900   2.192   5.785  13.856
32672W        W  901  10.367  27.783  10.174
32673W        W  902  35.810  42.474  11.840
32674W        W  903  37.112  18.529  12.787
32675W        W  904  32.029  24.547   2.289
32676W        W  905  34.004   1.203  12.870
32677W        W  906  31.578  23.944  14.815
32678W        W  907  17.888  11.325   1.325
32679W        W  908  21.202  19.546   2.799
32680W        W  909  13.188  42.489  12.057
32681W        W  910   7.585  32.424   4.568
32682W        W  911   5.984  20.636   3.188
32683W        W  912  11.180   7.807   2.170
32684W        W  913   5.728   2.707  12.611
32685W        W  914  26.017  34.534  11.489
32686W        W  915  13.523   6.452   0.967
32687W        W  916  38.475  40.774  11.107
32688W        W  917  18.225  38.368   2.328
32689W        W  918   5.500  21.611   2.336
32690W        W  919  20.556  27.055   3.307
32691W        W  920  42.868  18.037   0.902
32692W        W  921  26.923  13.378  11.595
32693W        W  922  14.855  31.429  13.412
32694W        W  923  18.114  11.103  10.941
32695W        W  924  42.882  27.473   2.244
32696W        W  925  25.202  32.438  11.445
32697W        W  926  34.852  18.228  11.531
32698W        W  927  14.586   7.175  13.400
32699W        W  928   2.504  31.503  14.097
32700W        W  929  12.649  24.116   3.708
32701W        W  930  17.052  35.194   0.253
32702W        W  931  12.267  38.097  12.104
32703W        W  932   3.738  33.279  10.733
32704W        W  933  23.315  13.875  12.876
32705W        W  934   7.396  28.625   4.303
32706W        W  935  42.237  32.113  14.256
32707W        W  936  24.676  14.800   2.784
32708W        W  937  14.237   5.603  14.423
32709W        W  938   3.943   5.748   2.726
32710W        W  939  25.657  21.252   0.869
32711W        W  940  20.719  20.149  11.083
32712W        W  941  44.503   8.412   1.870
32713W        W  942  25.952  31.986   5.260
32714W        W  943  11.812  27.689  11.130
32715W        W  944  23.093  24.618   4.153
32716W        W  945  19.948  15.753  12.945
32717W        W  946   9.137   2.289  13.231
32718W        W  947   5.354  26.588  12.227
32719W        W  948  30.264  26.589  10.947
32720W        W  949  44.323  27.263   0.826
32721W        W  950  19.050  38.394  13.310
32722W        W  951  21.107  32.855  13.210
32723W        W  952  44.787  21.476  14.902
32724W        W  953  15.285  18.400  13.930
32725W        W  954   6.238   5.359   4.257
32726W        W  955  40.335  40.768  12.906
32727W        W  956   2.629  36.794   0.902
32728W        W  957  40.480  21.509  11.562
32729W        W  958  39.869  18.673  14.008
32730W        W  959  44.695   4.338  10.528
32731W        W  960   8.920  34.324   4.248
32732W        W  961  18.730  39.299  10.719
32733W        W  962   6.003  13.052  10.786
32734W        W  963  40.025  43.541   1.293
32735W        W  964  27.879  20.422  13.324
32736W        W  965   3.206   9.833  12.534
32737W        W  966  29.078  14.795   2.356
32738W        W  967  26.178   2.289  13.544
32739W        W  968  22.517  16.032   3.845
32740W        W  969  15.140  19.687  11.824
32741W        W  970  13.500  15.802  13.299
32742W        W  971  17.084  15.349  11.133
32743W        W  972   1.437  37.086   1.584
32744W        W  973  42.827   1.463  14.247
32745W        W  974  30.734  36.621  11.269
32746W        W  975   2.980  43.027   3.080
32747W        W  976  44.330   0.920   0.193
32748W        W  977  39.828   8.785  13.974
32749W        W  978   9.464  34.470  13.297
32750W        W  979  13.758   7.582   1.788
32751W        W  980  27.671  35.950  12.863
32752W        W  981  33.904   9.469  14.850
32753W        W  982  14.835  11.256   1.791
32754W        W  983   0.388  33.499   0.261
32755W        W  984  10.818  10.769   1.713
32756W        W  985  13.166  22.187   4.765
32757W        W  986  39.833  30.659  14.633
32758W        W  987  37.446  41.607   2.301
32759W        W  988   4.880  43.810   2.236
32760W        W  989  30.451  27.075  13.890
32761W        W  990   5.910  40.564   1.657
32762W        W  991  13.663  23.625   4.119
32763W        W  992  30.469   7.253   3.250
32764W        W  993  10.267  17.390  10.685
32765W        W  994  33.570  39.979   4.568
32766W        W  995  22.305  21.978   3.306
32767W        W  996  26.128  24.238   0.758
32768W        W  997  21.294  26.709  13.784
32769W        W  998  13.267  28.496  10.616
32770W        W  999  22.156  28.133   0.521
32771W        W 1000  13.625  23.587  11.652
32772W        W 1001  43.900  22.015   5.050
32773W        W 1002  28.179  13.285  13.307
32774W        W 1003  15.722  11.428   4.592
32775W        W 1004   4.084   3.816  12.644
32776W        W 1005   5.156   9.944  12.788
32777W        W 1006  26.154  17.366   3.832
32778W        W 1007  26.576  13.315   2.149
32779W        W 1008  41.923  36.100  11.177
32780W        W 1009  10.627   8.615  14.626
32781W        W 1010  41.077  18.048  13.468
32782W        W 1011  23.680   8.374   2.807
32783W        W 1012  13.079  41.980   0.307
32784W        W 1013  38.020  23.661  12.766
32785W        W 1014  17.624  18.793   0.291
32786W        W 1015  13.865  26.973  14.528
32787W        W 1016  33.616  10.422   2.823
32788W        W 1017  37.767   5.116  13.790
32789W        W 1018  37.433  42.716   3.282
32790W        W 1019  17.101  36.407  12.229
32791W        W 1020  26.725  33.411  14.014
32792W        W 1021  16.346   8.325   4.198
32793W        W 1022  43.807  27.701  13.287
32794W        W 1023  25.066  27.003   0.339
32795W        W 1024  28.170  35.292   0.477
32796W        W 1025  11.271  43.481   0.031
32797W        W 1026  36.395   3.809   4.326
32798W        W 1027  27.125   9.677  11.163
32799W        W 1028  14.870   0.767  10.720
32800W        W 1029  36.594  10.764  12.082
32801W        W 1030  42.826   4.541  11.874
32802W        W 1031  22.062  35.056  14.188
32803W        W 1032  31.248   2.381   4.307
32804W        W 1033  15.836  30.622  13.785
32805W        W 1034  25.581  21.345  14.976
32806W        W 1035  29.645  29.762   0.025
32807W        W 1036  28.660  23.202  13.472
32808W        W 1037  29.127   4.259  14.804
32809W        W 1038  31.970  12.230  10.716
32810W        W 1039   6.107  10.177  11.310
32811W        W 1040  21.287   7.058   0.434
32812W        W 1041  26.776  24.722   3.713
32813W        W 1042   9.601  33.915  13.889
32814W        W 1043  42.486   7.937  12.000
32815W        W 1044  16.726  28.575   4.695
32816W        W 1045  16.812  42.768  12.520
32817W        W 1046  42.957  40.291   3.108
32818W        W 1047  37.605  36.197   2.606
32819W        W 1048  38.461  37.392  14.987
32820W        W 1049  16.995   3.811  13.501
32821W        W 1050  29.428   6.032   1.231
32822W        W 1051  17.280   0.780   3.812
32823W        W 1052   7.978  31.877   0.424
32824W        W 1053   5.489   2.858  14.906
32825W        W 1054  37.734   2.713  11.656
32826W        W 1055  43.805  11.431  14.106
32827W        W 1056  32.171   0.001   4.790
32828W        W 1057  27.576  10.722   0.469
32829W        W 1058  16.977  41.444   1.356
32830W        W 1059  19.196  39.693  12.496
32831W        W 1060  21.771  25.646   4.268
32832W        W 1061  38.949  30.775   4.846
32833W        W 1062  10.272  39.040   2.238
32834W        W 1063  26.642  13.839  11.572
32835W        W 1064   5.445   9.813   2.512
32836W        W 1065  10.729  14.404   1.754
32837W        W 1066  22.100  37.581  10.949
32838W        W 1067  26.459   8.637  11.055
32839W        W 1068  12.124  23.596   0.478
32840W        W 1069  12.737  17.026   0.705
32841W        W 1070  24.409  22.685  13.397
32842W        W 1071   1.326  42.914   0.270
32843W        W 1072  15.132  15.596  11.480
32844W        W 1073  25.915  36.383  11.579
32845W        W 1074  41.762  40.160  12.535
32846W        W 1075  37.284  15.232  13.504
32847W        W 1076   5.731   1.027  10.712
32848W        W 1077  11.123  40.386  13.813
32849W        W 1078  12.784  35.962  13.515
32850W        W 1079   7.066   0.896   1.824
32851W        W 1080  37.063   4.460   2.847
32852W        W 1081  10.354  29.904  13.046
32853W        W 1082  39.423  14.947  13.934
32854W        W 1083   5.978  31.017   1.091
32855W        W 1084  38.269  44.408   2.381
32856W        W 1085   5.744  15.450   3.748
32857W        W 1086  25.499  40.915   0.203
32858W        W 1087  41.068  16.815   0.036
32859W        W 1088  10.757  38.293   2.167
32860W        W 1089  12.737  25.963  13.627
32861W        W 1090  43.753  20.821  14.691
32862W        W 1091   1.004  19.588   1.869
32863W        W 1092  31.117  35.150   0.423
32864W        W 1093  13.129  39.603   2.750
32865W        W 1094  17.720  16.584   4.302
32866W        W 1095  18.576  30.906  10.931
32867W        W 1096  43.459  16.144   1.657
32868W        W 1097  25.298  43.301  13.297
32869W        W 1098  23.995  36.303   0.911
32870W        W 1099  35.213  37.126   0.112
32871W        W 1100   0.751  29.733   0.185
32872W        W 1101  32.585  18.544  12.577
32873W        W 1102  21.025   5.428  10.228
32874W        W 1103  19.118  10.254   2.302
32875W        W 1104   1.822  35.916  11.060
32876W        W 1105  20.603  14.622   1.693
32877W        W 1106  25.136  13.183   0.043
32878W        W 1107  16.767  36.603  14.389
32879W        W 1108  15.204  32.690   4.275
32880W        W 1109  26.264  25.717   0.865
32881W        W 1110  16.498  42.731   0.832
32882W        W 1111  41.352  19.321   1.432
32883W        W 1112   6.686  38.902   4.795
32884W        W 1113  42.824   2.429  13.854
32885W        W 1114  43.004  23.465   0.326
32886W        W 1115  25.557  13.381  14.821
32887W        W 1116  21.096  13.818  13.876
32888W        W 1117   8.441  40.867   0.232
32889W        W 1118  21.837  39.217  10.765
32890W        W 1119  39.231  38.746  12.168
32891W        W 1120  31.659  43.175   2.494
32892W        W 1121   1.002  27.686   1.407
32893W        W 1122  26.080  29.487   0.376
32894W        W 1123  10.085   4.652   3.627
32895W        W 1124  11.595  29.565  14.251
32896W        W 1125   3.346  34.134  12.019
32897W        W 1126  20.792  30.935   4.438
32898W        W 1127   9.719  25.720   2.408
32899W        W 1128   0.287  42.887  12.678
32900W        W 1129  28.928  44.318   3.131
32901W        W 1130  13.334   9.716  13.343
32902W        W 1131   2.220  40.864  11.069
32903W        W 1132   4.552  19.897   0.235
32904W        W 1133  31.051  22.515  11.959
32905W        W 1134   3.235  39.411   1.239
32906W        W 1135   4.496  26.644  12.151
32907W        W 1136  15.517  35.311   2.352
32908W        W 1137   3.809  40.318  13.977
32909W        W 1138  43.300  32.969   2.607
32910W        W 1139   0.378   2.747   3.320
32911W        W 1140  39.036  44.777  12.074
32912W        W 1141  39.302  32.902   0.574
32913W        W 1142   2.462  35.957   3.089
32914W        W 1143  43.369  31.855  14.752
32915W        W 1144  38.549  29.506   0.812
32916W        W 1145  41.954  18.839   2.303
32917W        W 1146  21.751  13.089   2.731
32918W        W 1147  13.909  14.033   1.915
32919W        W 1148  34.576   7.352  10.024
32920W        W 1149  29.431  16.907   4.824
32921W        W 1150  29.591   3.365  11.531
32922W        W 1151   5.305   7.622  13.497
32923W        W 1152  37.046  25.737   4.050
32924W        W 1153  12.901  14.252   3.668
32925W        W 1154  18.687  20.482  13.568
32926W        W 1155  35.989   9.093   4.074
32927W        W 1156  20.577  18.737   3.996
32928W        W 1157   4.858  35.880  13.477
32929W        W 1158  28.403  44.919  11.390
32930W        W 1159  24.265  18.177  11.157
32931W        W 1160  20.188   6.197  12.025
32932W        W 1161  29.572   7.284   4.636
32933W        W 1162  21.440  32.422  14.895
32934W        W 1163   1.878  30.337  13.652
32935W        W 1164  12.217  40.095   2.573
32936W        W 1165  31.258   5.640   1.250
32937W        W 1166  36.513  19.492  12.497
32938W        W 1167  16.828   9.358   3.277
32939W        W 1168  27.969  13.169   1.494
32940W        W 1169  33.998  42.309   1.375
32941W        W 1170   4.310  35.843   5.425
32942W        W 1171   7.893   0.298  14.285
32943W        W 1172  38.456  41.131  13.565
32944W        W 1173  34.397  32.924  13.063
32945W        W 1174   3.906  37.007   0.740
32946W        W 1175  31.891  43.703  12.874
32947W        W 1176  21.540  20.590  13.569
32948W        W 1177  34.770  18.816  11.538
32949W        W 1178  21.009  19.312   2.231
32950W        W 1179   4.178   4.960   2.267
32951W        W 1180  21.951  24.650   4.046
32952W        W 1181  36.390  40.127   0.790
32953W        W 1182   2.188   8.102   3.217
32954W        W 1183   1.229  40.263   1.954
32955W        W 1184  12.902  17.547  14.472
32956W        W 1185  41.994  18.594  14.839
32957W        W 1186  19.203  21.532  11.610
32958W        W 1187  16.118  40.891   3.611
32959W        W 1188  25.300  25.622   2.700
32960W        W 1189  25.635  18.506   3.684
32961W        W 1190   7.202  21.012   2.193
32962W        W 1191  33.791   2.912   1.275
32963W        W 1192  29.869  33.832   4.209
32964W        W 1193   7.102   1.435  11.578
32965W        W 1194  37.696  18.743   4.593
32966W        W 1195  24.249  35.086   0.318
32967W        W 1196  22.395  35.426  10.792
32968W        W 1197   3.457  36.439  11.194
32969W        W 1198   0.309  40.095   2.620
32970W        W 1199   1.444  11.748  11.213
32971W        W 1200   4.901  25.509   4.800
32972W        W 1201  15.832   2.225  14.304
32973W        W 1202  16.583  32.423   4.501
32974W        W 1203   5.396  21.931   2.806
32975W        W 1204  39.626  33.492  11.211
32976W        W 1205  23.901  13.048   2.835
32977W        W 1206  34.969   6.249   3.698
32978W        W 1207  31.391   4.191  12.834
32979W        W 1208  15.233  39.132  12.828
32980W        W 1209   7.018  41.003   0.229
32981W        W 1210  38.798  37.584   5.041
32982W        W 1211  17.053   2.863  12.500
32983W        W 1212  31.715  12.133  12.804
32984W        W 1213   2.278  12.469  11.035
32985W        W 1214  18.351  18.190  11.412
32986W        W 1215  13.175  27.955   3.749
32987W        W 1216  16.520  33.114   1.389
32988W        W 1217  30.536  36.618   5.009
32989W        W 1218  11.566  24.207   4.671
32990W        W 1219  13.675  18.120  10.675
32991W        W 1220  31.723  39.965   4.484
32992W        W 1221   2.873  12.790   1.777
32993W        W 1222  30.779  31.457   2.846
32994W        W 1223  43.499  27.236   0.742
32995W        W 1224   1.460  41.995  14.237
32996W        W 1225  12.649  12.822  11.012
32997W        W 1226  29.594   3.992   4.722
32998W        W 1227  36.506   5.882  11.880
32999W        W 1228   7.959   6.704  12.337
33000W        W 1229  40.088  12.075   2.249
33001W        W 1230  41.520  13.023  10.734
33002W        W 1231   2.507  31.999   0.775
33003W        W 1232  41.993  38.300  12.534
33004W        W 1233   6.450  40.593   0.793
33005W        W 1234  20.260  23.387   4.162
33006W        W 1235   2.901   0.120  14.270
33007W        W 1236  22.704  24.256   0.841
33008W        W 1237   2.396   6.956   4.132
33009W        W 1238  22.967  43.807  10.703
33010W        W 1239   3.282   0.444  10.786
33011W        W 1240   8.984  37.310   4.136
33012W        W 1241  42.999   8.809  12.099
33013W        W 1242  42.031  35.221  10.937
33014W        W 1243  27.566  12.620  13.565
33015W        W 1244   1.889   4.965   1.834
33016W        W 1245  37.143  11.179  14.031
33017W        W 1246  43.802  17.864  13.817
33018W        W 1247  40.258  29.627   4.590
33019W        W 1248  34.568   9.109   3.789
33020W        W 1249   9.307   7.643   2.479
33021W        W 1250  44.379   3.988   0.742
33022W        W 1251  42.359  15.244  12.073
33023W        W 1252   0.688   5.326   2.017
33024W        W 1253  11.164  16.730  11.378
33025W        W 1254  13.854   8.404   3.709
33026W        W 1255  12.298   8.303  12.383
33027W        W 1256  22.516  20.047  12.887
33028W        W 1257  23.478  41.747  10.615
33029W        W 1258  16.604  29.091   4.726
33030W        W 1259  34.518  30.091   3.339
33031W        W 1260  16.510  41.763  13.071
33032W        W 1261  40.876  15.328  14.939
33033W        W 1262  39.472  29.314   1.428
33034W        W 1263  32.054  10.088  14.737
33035W        W 1264   4.073   4.359  10.839
33036W        W 1265   2.854   9.662  10.792
33037W        W 1266  43.371  29.498  12.023
33038W        W 1267   0.299  20.606   1.239
33039W        W 1268  35.012  24.219  14.428
33040W        W 1269  43.243   9.895   0.497
33041W        W 1270  37.581  22.575  12.533
33042W        W 1271   3.428   1.258   4.937
33043W        W 1272  35.928  23.326   3.528
33044W        W 1273  23.562  16.751   0.883
33045W        W 1274  32.876   5.554   2.296
33046W        W 1275  17.772   4.403  14.327
33047W        W 1276  34.614   7.115   0.327
33048W        W 1277   0.792  16.149  12.477
33049W        W 1278   3.263  11.759   1.631
33050W        W 1279  33.079  29.988   1.733
33051W        W 1280  26.507   4.991  12.631
33052W        W 1281  15.675   6.902   4.632
33053W        W 1282  43.047   6.620   4.195
33054W        W 1283  13.260  18.114  11.993
33055W        W 1284  41.932  40.326  10.719
33056W        W 1285   9.363  34.471  11.393
33057W        W 1286  11.565  16.613  11.071
33058W        W 1287  12.410   0.841   2.433
33059W        W 1288  15.210   7.922   4.205
33060W        W 1289   5.836   1.442   2.379
33061W        W 1290  20.145  38.622   2.911
33062W        W 1291   7.284  26.018   3.219
33063W        W 1292  35.931  44.237   0.282
33064W        W 1293  38.314  26.159   3.874
33065W        W 1294   4.294  28.694   2.844
33066W        W 1295  21.027  10.881   1.191
33067W        W 1296   6.011  26.857   1.242
33068W        W 1297  24.075  42.533  13.502
33069W        W 1298   7.860   3.296  14.799
33070W        W 1299  17.467  32.554   4.175
33071W        W 1300  13.659   2.716  13.015
33072W        W 1301  35.930  33.670  14.306
33073W        W 1302  36.519  20.632   1.755
33074W        W 1303  37.529  42.016   3.824
33075W        W 1304  28.748  11.303   0.031
33076W        W 1305  34.635  37.991   2.178
33077W        W 1306  32.034  15.403   9.803
33078W        W 1307   2.754   2.239   3.729
33079W        W 1308  15.812  29.786  11.525
33080W        W 1309   9.370  15.933  12.954
33081W        W 1310  19.617  23.283  10.366
33082W        W 1311   7.780  23.065   1.589
33083W        W 1312  13.118  25.805   0.842
33084W        W 1313  32.160   7.787  12.029
33085W        W 1314  24.642  28.081   3.045
33086W        W 1315  31.991  42.029   0.064
33087W        W 1316   8.444   1.481   2.882
33088W        W 1317  29.140  26.136  11.083
33089W        W 1318  22.148   5.515  13.566
33090W        W 1319   9.271  13.189   2.337
33091W        W 1320   9.956  22.592   3.152
33092W        W 1321  28.943   8.378  14.874
33093W        W 1322  11.782  23.205  13.703
33094W        W 1323   0.649  30.035  13.097
33095W        W 1324  27.426  41.537   0.340
33096W        W 1325  21.710  27.361   0.317
33097W        W 1326  37.803  28.524   2.246
33098W        W 1327   4.968   9.452  12.861
33099W        W 1328  39.301  15.319   0.409
33100W        W 1329  21.533   7.655   0.777
33101W        W 1330  39.067   0.083  13.418
33102W        W 1331  17.804  35.008   4.125
33103W        W 1332  12.818  41.435   3.598
33104W        W 1333  43.000  39.364   2.782
33105W        W 1334  12.320  20.669   0.121
33106W        W 1335  32.906  21.161  13.723
33107W        W 1336  26.979  37.009  13.092
33108W        W 1337  43.016  21.706   1.680
33109W        W 1338  34.895  19.621  14.039
33110W        W 1339  35.908  23.766  11.064
33111W        W 1340  10.680   7.267   4.409
33112W        W 1341  28.473   5.221   3.129
33113W        W 1342  41.055  10.362   2.454
33114W        W 1343   1.359  22.316  10.608
33115W        W 1344   4.952  24.028   3.243
33116W        W 1345  20.604  23.532  10.885
33117W        W 1346  43.320  36.603  13.857
33118W        W 1347  44.157   5.636   5.016
33119W        W 1348  23.822  28.654   2.409
33120W        W 1349  19.497  10.760   4.969
33121W        W 1350   7.233   0.944   0.754
33122W        W 1351  36.447  39.328  13.594
33123W        W 1352   4.633  13.791   4.690
33124W        W 1353  22.023  26.615   3.600
33125W        W 1354  41.983  29.880   0.112
33126W        W 1355  44.384   4.148  12.886
33127W        W 1356  30.554  13.012   3.531
33128W        W 1357  30.061  24.600  14.938
33129W        W 1358  42.470  27.126  11.540
33130W        W 1359  14.267  11.798   2.614
33131W        W 1360  25.034   8.720  10.496
33132W        W 1361  31.012   4.662   4.509
33133W        W 1362  17.822  12.191  11.868
33134W        W 1363   9.550   0.218  12.200
33135W        W 1364   1.391  34.177   2.053
33136W        W 1365  10.408  33.929   1.764
33137W        W 1366  16.134   8.300   1.277
33138W        W 1367  33.969  13.254  13.903
33139W        W 1368  21.666  31.361   0.971
33140W        W 1369   2.160  10.840   1.307
33141W        W 1370  22.475  39.335  13.438
33142W        W 1371   1.974  11.656  13.900
33143W        W 1372  37.875  44.212  11.596
33144W        W 1373   5.695   6.681   3.186
33145W        W 1374  41.333  27.584   1.775
33146W        W 1375  40.880  25.373   3.398
33147W        W 1376  26.659  35.567   1.702
33148W        W 1377  28.611  42.208  11.120
33149W        W 1378  24.242   9.395  13.807
33150W        W 1379   0.035   7.423  10.864
33151W        W 1380  38.878  40.512  12.424
33152W        W 1381  10.890   9.016  11.637
33153W        W 1382  42.340  34.720   3.925
33154W        W 1383   3.719  23.661   1.793
33155W        W 1384   8.841  18.340   3.285
33156W        W 1385  32.110  14.290  14.260
33157W        W 1386  14.658  25.292  13.953
33158W        W 1387   3.619  16.846  10.238
33159W        W 1388  42.852  18.250  13.071
33160W        W 1389  29.502  14.057  10.730
33161W        W 1390  37.856  42.854  13.512
33162W        W 1391  44.112  40.066  14.569
33163W        W 1392  13.348  31.622  11.398
33164W        W 1393   2.909  42.746  12.975
33165W        W 1394   9.654  27.648  14.482
33166W        W 1395  44.925   9.595  11.425
33167W        W 1396   7.826  22.119   2.671
33168W        W 1397   7.968   7.454   2.286
33169W        W 1398   4.743   9.343   4.732
33170W        W 1399  29.102  29.744   2.735
33171W        W 1400  24.177  27.771  10.500
33172W        W 1401  21.195  30.513  12.860
33173W        W 1402   3.957   7.436  13.729
33174W        W 1403  19.274  37.597   4.611
33175W        W 1404  23.129  33.191   4.234
33176W        W 1405   6.800  38.483   2.796
33177W        W 1406  36.049   1.124  11.364
33178W        W 1407   1.421   2.506   2.878
33179W        W 1408  13.752  28.084  13.843
33180W        W 1409  24.119  37.787  11.866
33181W        W 1410  26.154  27.231   0.793
33182W        W 1411  29.203  42.883  11.808
33183W        W 1412  39.428   1.877   1.337
33184W        W 1413  17.160  25.557   4.224
33185W        W 1414   6.369  24.524   3.165
33186W        W 1415  13.052   7.866   2.214
33187W        W 1416   0.705  27.054  10.495
33188W        W 1417  10.328  27.651  12.513
33189W        W 1418  13.855  16.261  11.090
33190W        W 1419  20.649  26.186   3.732
33191W        W 1420  44.131  23.713  10.688
33192W        W 1421  16.287  16.620  10.180
33193W        W 1422  30.971   6.139   3.328
33194W        W 1423  34.081  24.408   4.181
33195W        W 1424  30.375  15.053  10.989
33196W        W 1425  19.851  39.790  11.202
33197W        W 1426   2.213  16.702   0.750
33198W        W 1427  11.606  27.810   4.137
33199W        W 1428  32.389   9.942   4.869
33200W        W 1429  33.643  36.551  12.427
33201W        W 1430  25.661  10.151  13.304
33202W        W 1431   7.737  20.451   1.696
33203W        W 1432  36.820   0.721   1.323
33204W        W 1433  22.056  32.248   1.443
33205W        W 1434   4.252  21.816  13.422
33206W        W 1435   6.594  27.286   3.239
33207W        W 1436  27.764  41.648  11.578
33208W        W 1437  24.723   7.704  11.069
33209W        W 1438  18.147  39.306  11.791
33210W        W 1439  23.615  25.216  13.324
33211W        W 1440  23.438  39.367   1.335
33212W        W 1441  27.408  21.311  11.775
33213W        W 1442  27.661  39.769  14.942
33214W        W 1443  42.838  33.557   4.756
33215W        W 1444   6.356  41.998  12.202
33216W        W 1445  27.428  27.551   4.952
33217W        W 1446   2.700   0.943  12.657
33218W        W 1447  38.447  29.182   9.783
33219W        W 1448  30.092  30.578   0.839
33220W        W 1449  19.944  29.069   1.320
33221W        W 1450  15.793   2.544  13.576
33222W        W 1451   8.926   6.647   0.435
33223W        W 1452   0.356  38.036   0.372
33224W        W 1453  41.154  21.219   1.337
33225W        W 1454  34.496  21.873  12.754
33226W        W 1455  17.583  27.422   0.894
33227W        W 1456   8.630  36.922  13.962
33228W        W 1457  44.805  23.222   3.082
33229W        W 1458   9.731   3.709   0.677
33230W        W 1459   8.783  27.244  10.601
33231W        W 1460   1.339   9.831   3.346
33232W        W 1461  40.968  11.605   1.264
33233W        W 1462  27.583   4.254   3.288
33234W        W 1463  37.484  41.728   3.196
33235W        W 1464  27.107  15.072  12.694
33236W        W 1465  11.023  15.690   3.188
33237W        W 1466   0.442  21.971  13.390
33238W        W 1467   6.267  33.880  13.412
33239W        W 1468  41.872  22.696   4.615
33240W        W 1469   8.270  25.774  11.133
33241W        W 1470  28.262   4.211   0.459
33242W        W 1471  36.448  40.967   4.470
33243W        W 1472  36.258  30.040  10.377
33244W        W 1473  25.827   5.347  14.560
33245W        W 1474  26.036   2.061  12.355
33246W        W 1475  42.740   9.758   0.469
33247W        W 1476  26.054   0.006   2.590
33248W        W 1477  22.523  37.546   1.357
33249W        W 1478  21.822  23.239  12.538
33250W        W 1479  28.216  11.624  14.712
33251W        W 1480  35.524  36.024   2.736
33252W        W 1481  21.029   0.388  14.891
33253W        W 1482  37.370  43.306  11.576
33254W        W 1483  36.367  35.090  14.117
33255W        W 1484  16.290  43.940  11.440
33256W        W 1485  40.055  34.904  11.135
33257W        W 1486   4.779  19.258   0.354
33258W        W 1487  14.903  36.570   2.352
33259W        W 1488  41.375  34.535   2.142
33260W        W 1489  42.888  39.333  11.449
33261W        W 1490  21.619   2.946  12.214
33262W        W 1491  39.591  18.152  14.001
33263W        W 1492   4.474  17.207  13.058
33264W        W 1493  24.169   7.225   2.186
33265W        W 1494  40.549  25.267   0.903
33266W        W 1495  29.353  31.557   3.604
33267W        W 1496   5.196   7.228   3.622
33268W        W 1497  32.590  36.413  14.491
33269W        W 1498  24.152  20.454  13.005
33270W        W 1499   8.631  38.896   3.307
33271W        W 1500  28.070  19.840   3.271
33272W        W 1501  10.596   0.829   4.540
33273W        W 1502  39.849  20.546  14.878
33274W        W 1503  25.731  35.807   3.297
33275W        W 1504  30.001  20.985   4.420
33276W        W 1505  23.601  30.427   2.272
33277W        W 1506  11.175   9.659   0.508
33278W        W 1507  42.952  30.527   0.961
33279W        W 1508  16.969   0.138  12.507
33280W        W 1509  15.840   3.616   4.915
33281W        W 1510  12.238  35.866  10.724
33282W        W 1511   2.764   6.366   1.677
33283W        W 1512  26.854   5.410  10.834
33284W        W 1513  14.622  24.151   0.892
33285W        W 1514  31.488  13.218   1.605
33286W        W 1515   2.108  41.440   1.332
33287W        W 1516   7.009  14.162   0.367
33288W        W 1517  15.110  18.808  10.733
33289W        W 1518  20.529  11.102  14.892
33290W        W 1519  38.712  38.489   0.898
33291W        W 1520  37.589  39.473   0.903
33292W        W 1521   2.947   1.441   0.321
33293W        W 1522  29.526   2.948  13.352
33294W        W 1523   9.231  23.771  13.889
33295W        W 1524  21.209  17.414  10.953
33296W        W 1525  34.354   4.545  12.884
33297W        W 1526  13.033  39.372   1.903
33298W        W 1527  32.912  19.917  10.215
33299W        W 1528  31.996  19.776   2.650
33300W        W 1529  35.417  18.167  14.964
33301W        W 1530  10.420  28.039   2.896
33302W        W 1531   3.009   8.052   4.320
33303W        W 1532  33.691   9.752   4.370
33304W        W 1533  20.034   2.872  14.715
33305W        W 1534   7.771  26.718  13.900
33306W        W 1535   4.138   1.780  13.074
33307W        W 1536   3.016  41.485  11.144
33308W        W 1537   0.407  18.458  12.087
33309W        W 1538   4.119  20.613   2.805
33310W        W 1539   5.949  10.226  13.636
33311W        W 1540  23.760  27.726  11.197
33312W        W 1541  31.922  10.210   1.817
33313W        W 1542   2.033  30.522   0.782
33314W        W 1543  33.772  30.400   2.392
33315W        W 1544  38.315  29.508  11.104
33316W        W 1545   0.224  22.196  11.128
33317W        W 1546  22.231  20.164  13.339
33318W        W 1547  12.788  24.611   3.663
33319W        W 1548  31.429  21.220  14.892
33320W        W 1549  39.778  36.837  12.539
33321W        W 1550  20.648  38.073   3.211
33322W        W 1551  30.051  40.784   1.201
33323W        W 1552  34.623  24.024   2.156
33324W        W 1553  11.616  10.103  11.816
33325W        W 1554   6.383   8.832  12.404
33326W        W 1555  29.112   7.654   3.698
33327W        W 1556  28.976   8.659   2.727
33328W        W 1557   0.891  13.563  13.239
33329W        W 1558   3.739  37.524   4.753
33330W        W 1559  18.225  44.692   4.312
33331W        W 1560  41.490   4.904  13.015
33332W        W 1561  33.541  20.603  10.590
33333W        W 1562  11.307  26.980  10.614
33334W        W 1563   8.255  27.911   3.530
33335W        W 1564   8.308  22.455   3.704
33336W        W 1565  21.118  30.850  12.507
33337W        W 1566  34.454  29.249   2.770
33338W        W 1567  24.499  12.986   0.254
33339W        W 1568  17.334  15.794   3.161
33340W        W 1569  34.729  35.823  11.170
33341W        W 1570  30.452  21.166   4.251
33342W        W 1571  14.755  29.388  14.437
33343W        W 1572  14.429   0.980  11.987
33344W        W 1573  39.625  29.828  12.566
33345W        W 1574  29.674  35.389   2.719
33346W        W 1575   6.534  27.568  13.312
33347W        W 1576  31.638  12.006  14.332
33348W        W 1577  16.671  33.282   3.599
33349W        W 1578  35.596   4.518   3.689
33350W        W 1579  33.220  42.299   0.804
33351W        W 1580  23.263  18.650   1.259
33352W        W 1581  37.804  18.171  14.861
33353W        W 1582  36.729  32.267   0.188
33354W        W 1583   5.955  29.475  14.345
33355W        W 1584  17.034  35.500   2.907
33356W        W 1585  11.160  40.500  10.639
33357W        W 1586   8.322  28.052   4.039
33358W        W 1587  18.672  28.515  12.142
33359W        W 1588  19.376  18.083   5.266
33360W        W 1589   4.421  21.525   3.292
33361W        W 1590  27.515  36.441   2.612
33362W        W 1591   5.282  11.245   4.639
33363W        W 1592  43.474  29.372   0.328
33364W        W 1593  17.801  14.107  10.479
33365W        W 1594  15.072   0.819  14.761
33366W        W 1595  39.839   8.675   1.880
33367W        W 1596  30.957  31.786   0.581
33368W        W 1597  18.291   2.206  14.216
33369W        W 1598  41.313  34.160   4.523
33370W        W 1599  20.291  23.560  11.506
33371W        W 1600  17.305  10.149  14.997
33372W        W 1601  41.473  14.443  12.482
33373W        W 1602   2.152  37.455   5.011
33374W        W 1603   8.367  23.584  10.422
33375W        W 1604   7.714  28.715   2.776
33376W        W 1605  36.460  29.659   4.116
33377W        W 1606  44.362  10.379  11.563
33378W        W 1607   5.888  28.956  14.486
33379W        W 1608  43.819  15.333   3.158
33380W        W 1609   5.293  17.122   4.702
33381W        W 1610  29.793   1.845   0.923
33382W        W 1611  41.110  22.565   4.092
33383W        W 1612  33.686  15.866  11.163
33384W        W 1613  26.076  28.464  13.355
33385W        W 1614  35.766  24.149  12.245
33386W        W 1615   6.181  33.973   0.763
33387W        W 1616  33.984  40.318  12.635
33388W        W 1617  41.379  13.117   1.665
33389W        W 1618  37.217  43.870  14.342
33390W        W 1619  34.907  22.605   0.331
33391W        W 1620   8.170  41.261   3.341
33392W        W 1621  10.407  15.224   0.755
33393W        W 1622   2.859   1.858   3.331
33394W        W 1623  20.033   8.341   2.018
33395W        W 1624  24.753   9.919   2.759
33396W        W 1625   6.932  20.218  11.227
33397W        W 1626   5.828  25.925   1.649
33398W        W 1627  29.435  14.654  14.338
33399W        W 1628  28.994  25.676  11.338
33400W        W 1629  32.274  34.593  12.821
33401W        W 1630  42.840  44.892   4.567
33402W        W 1631  32.464  40.281  11.532
33403W        W 1632  15.727  32.956  10.160
33404W        W 1633  16.134  38.920  13.348
33405W        W 1634   7.913  36.067  13.024
33406W        W 1635   9.535  20.593   3.437
33407W        W 1636  13.617  38.004   0.241
33408W        W 1637  21.219  14.403  14.734
33409W        W 1638   7.465  43.973  14.595
33410W        W 1639  16.695  44.558   2.088
33411W        W 1640  40.952  40.521   1.227
33412W        W 1641  28.087  18.789  12.557
33413W        W 1642   6.704  33.900   0.817
33414W        W 1643   7.719  39.439  14.942
33415W        W 1644   2.794  14.200  14.899
33416W        W 1645  33.376  19.881  11.087
33417W        W 1646   7.404  33.847   1.794
33418W        W 1647  18.204  35.470  11.878
33419W        W 1648  11.289  28.936   3.883
33420W        W 1649   0.665  42.248  10.817
33421W        W 1650   1.342  37.564  11.532
33422W        W 1651  29.977  35.485   1.283
33423W        W 1652  33.855  11.711  11.771
33424W        W 1653  30.483  14.498  11.210
33425W        W 1654  31.376  21.037  11.466
33426W        W 1655  35.852  34.932  14.320
33427W        W 1656  27.525   2.405   1.156
33428W        W 1657  22.019   9.726   1.749
33429W        W 1658  13.354  22.606  12.151
33430W        W 1659  33.411  12.724  12.590
33431W        W 1660   9.056  34.357   3.589
33432W        W 1661  42.900  33.618   0.961
33433W        W 1662  19.744  37.144  11.642
33434W        W 1663  25.627  19.644   2.095
33435W        W 1664  21.989  32.046   4.387
33436W        W 1665  29.192  16.462  13.352
33437W        W 1666  24.019   2.950  12.505
33438W        W 1667  34.145  27.027   4.277
33439W        W 1668  23.529  22.769   4.626
33440W        W 1669  29.477  17.667   2.877
33441W        W 1670  41.998  21.830  12.475
33442W        W 1671  31.097  32.517  14.425
33443W        W 1672  36.214   2.220   4.571
33444W        W 1673  23.181  17.458  13.345
33445W        W 1674  42.326  15.774  10.530
33446W        W 1675   5.040   3.618   0.800
33447W        W 1676  11.119   3.315   3.178
33448W        W 1677   4.225   7.034   4.560
33449W        W 1678  35.041  20.606  14.437
33450W        W 1679  19.613  18.568  11.485
33451W        W 1680  24.692  42.529  14.410
33452W        W 1681  39.021   4.700   1.752
33453W        W 1682  41.076   1.661  13.517
33454W        W 1683   3.352   0.351   1.559
33455W        W 1684  30.223  13.089  11.970
33456W        W 1685  17.159  18.575   1.940
33457W        W 1686  15.086  31.646   4.524
33458W        W 1687  19.584  21.397   3.386
33459W        W 1688  16.788  23.206  11.651
33460W        W 1689  42.288   5.481   0.374
33461W        W 1690  25.011  30.646   1.617
33462W        W 1691  38.281  31.572  14.546
33463W        W 1692   0.774  39.320  11.620
33464W        W 1693  21.236  19.959   3.807
33465W        W 1694  43.499   8.761  11.309
33466W        W 1695  25.931  30.140   1.783
33467W        W 1696  40.949  20.139  13.885
33468W        W 1697  13.380  30.446   3.788
33469W        W 1698  27.547  21.249  11.286
33470W        W 1699  38.040  32.988   4.130
33471W        W 1700   7.251  38.615   1.267
33472W        W 1701  42.453  18.406  11.192
33473W        W 1702  31.659  15.610  10.713
33474W        W 1703  35.672  25.065   3.717
33475W        W 1704  41.422  19.026  10.572
33476W        W 1705  29.153  14.686  12.388
33477W        W 1706  25.059  42.295   0.506
33478W        W 1707  22.296  17.763  13.013
33479W        W 1708   0.047  20.684  14.354
33480W        W 1709   4.546  20.400   2.577
33481W        W 1710  22.462  36.142  14.793
33482W        W 1711   5.033  24.050  12.995
33483W        W 1712   9.639  26.252   3.251
33484W        W 1713  28.989  41.289   1.471
33485W        W 1714  41.631  34.166   2.435
33486W        W 1715   8.377  25.892   4.048
33487W        W 1716   6.416  28.845   1.274
33488W        W 1717  19.819   1.925  13.949
33489W        W 1718  21.814  16.856  13.387
33490W        W 1719  35.180   5.970  13.561
33491W        W 1720  13.818  14.063   2.768
33492W        W 1721  13.747  31.585  14.014
33493W        W 1722   3.719   6.823   4.557
33494W        W 1723  34.607  12.272  12.463
33495W        W 1724  34.647  13.646  14.762
33496W        W 1725  33.929  36.913  14.367
33497W        W 1726   7.878   3.881   3.383
33498W        W 1727  20.251  12.813   4.149
33499W        W 1728  31.704   5.739   4.270
33500W        W 1729  42.368   2.127   2.232
33501W        W 1730   1.350  26.596  14.506
33502W        W 1731   9.848  25.799  12.410
33503W        W 1732  16.500  29.718   2.696
33504W        W 1733  21.819  34.874  13.110
33505W        W 1734  32.853  13.784   3.917
33506W        W 1735  15.836  35.076   4.508
33507W        W 1736   0.142  40.282   3.993
33508W        W 1737  25.408  11.632   1.729
33509W        W 1738  24.613  44.989  11.498
33510W        W 1739  32.405  31.926   2.754
33511W        W 1740   7.824  34.771   1.217
33512W        W 1741  17.318  15.078   0.486
33513W        W 1742   6.379  21.638   2.574
33514W        W 1743   7.199  26.654   0.860
33515W        W 1744  34.378   0.733   3.264
33516W        W 1745   8.001   3.889  10.704
33517W        W 1746   6.291  33.346   2.513
33518W        W 1747  27.054  37.455  12.844
33519W        W 1748   1.705  35.408   1.424
33520W        W 1749   9.372  10.325   0.422
33521W        W 1750  31.391  36.425   4.825
33522W        W 1751   9.575  23.529  12.459
33523W        W 1752  12.351   6.393  13.956
33524W        W 1753  40.399  40.793  11.070
33525W        W 1754  18.991  23.631   3.713
33526W        W 1755   1.576  11.631  12.065
33527W        W 1756  10.414  20.698  12.433
33528W        W 1757   9.691  36.402  11.394
33529W        W 1758   8.375   6.240  12.382
33530W        W 1759  13.392  43.367   2.663
33531W        W 1760  28.513  24.455  14.972
33532W        W 1761  39.193  28.986   5.572
33533W        W 1762   8.699  13.179  13.294
33534W        W 1763   2.733  20.975  10.681
33535W        W 1764  37.435  19.575  12.631
33536W        W 1765  27.876  44.459  13.275
33537W        W 1766  39.526  11.427   4.081
33538W        W 1767  41.300  34.893  10.604
33539W        W 1768  35.100   5.240  11.114
33540W        W 1769   7.156  16.141  12.855
33541W        W 1770   6.107  32.163  13.791
33542W        W 1771  14.185  17.803  14.928
33543W        W 1772   6.592  16.589  14.898
33544W        W 1773  38.615  11.067  11.025
33545W        W 1774  43.281  17.255  11.959
33546W        W 1775  36.532  30.544  14.947
33547W        W 1776   5.767   2.796  14.475
33548W        W 1777   6.791  35.612   0.932
33549W        W 1778  44.970  31.820   1.749
33550W        W 1779  33.889  16.381  11.218
33551W        W 1780  13.166   6.853   0.349
33552W        W 1781  17.788   6.758  13.992
33553W        W 1782  43.937  10.308   4.249
33554W        W 1783   4.527  43.887  10.534
33555W        W 1784  22.923   7.233   4.165
33556W        W 1785  43.281  44.842   2.325
33557W        W 1786  18.181  25.298  14.442
33558W        W 1787  22.005  11.810  12.537
33559W        W 1788  16.023  38.255   0.420
33560W        W 1789  22.287   4.017   4.721
33561W        W 1790  44.086  29.527   4.125
33562W        W 1791   4.313  16.634  12.951
33563W        W 1792  20.817  27.541   4.026
33564W        W 1793  29.694  34.153  11.980
33565W        W 1794  32.206  40.839  12.191
33566W        W 1795   8.911  31.183   2.699
33567W        W 1796  25.698   8.430   2.165
33568W        W 1797  25.978   2.528   0.782
33569W        W 1798  27.205  36.834  10.671
33570W        W 1799  24.835   0.884  12.294
33571W        W 1800   7.813  24.209   0.233
33572W        W 1801  18.642  41.934   2.695
33573W        W 1802  36.127  42.734  10.818
33574W        W 1803  12.421   6.737   4.116
33575W        W 1804  10.810  34.987  13.556
33576W        W 1805   1.234  10.266  10.520
33577W        W 1806  39.892  39.127  11.446
33578W        W 1807  13.370   1.787   3.712
33579W        W 1808  33.906  15.385  14.311
33580W        W 1809   9.785  23.610   1.778
33581W        W 1810   4.734  16.271  13.006
33582W        W 1811  30.991   2.893  10.490
33583W        W 1812  40.265   8.972   4.562
33584W        W 1813  31.059  14.272  10.532
33585W        W 1814  19.084  18.637  12.473
33586W        W 1815  15.479   4.337   3.461
33587W        W 1816  43.707  34.757   1.350
33588W        W 1817  18.389  25.466  10.466
33589W        W 1818  38.365   0.956   1.439
33590W        W 1819  37.210  32.759   5.244
33591W        W 1820  17.945  30.507   1.275
33592W        W 1821  39.751  10.734  14.776
33593W        W 1822  29.922   6.716   1.769
33594W        W 1823  28.960  41.850  12.696
33595W        W 1824  18.195  37.066   0.840
33596W        W 1825  27.098  29.946  10.513
33597W        W 1826  30.942  41.284   2.658
33598W        W 1827  34.461  10.456  13.750
33599W        W 1828  12.346   7.403  12.379
33600W        W 1829  16.883   9.146  12.179
33601W        W 1830   2.983  15.736   3.917
33602W        W 1831  24.959  34.558   0.045
33603W        W 1832  15.367  24.140  12.558
33604W        W 1833  33.105  32.809   3.326
33605W        W 1834   8.827   4.618  13.041
33606W        W 1835  15.068  40.997  12.347
33607W        W 1836  32.375  31.379  12.692
33608W        W 1837  44.914  18.212   4.732
33609W        W 1838  25.674  18.346   9.824
33610W        W 1839   1.426  15.767  10.742
33611W        W 1840  31.227  25.688  12.947
33612W        W 1841   3.679  27.369  12.943
33613W        W 1842  11.643  24.138   3.757
33614W        W 1843  21.767  26.178  12.673
33615W        W 1844   7.086  27.116   3.103
33616W        W 1845  34.095  42.584   4.086
33617W        W 1846   6.762   5.213  11.616
33618W        W 1847  21.438  11.975  12.551
33619W        W 1848  32.038  19.777   1.397
33620W        W 1849  44.187  26.587   0.298
33621W        W 1850  40.838  29.459   3.992
33622W        W 1851  21.186  19.376   4.638
33623W        W 1852  27.134  31.499  14.542
33624W        W 1853  23.216  30.569   4.674
33625W        W 1854  42.833  29.222   4.746
33626W        W 1855  32.773  10.820  13.536
33627W        W 1856  22.181  10.512  13.737
33628W        W 1857   1.228  19.669   1.368
33629W        W 1858  27.382   1.390  12.261
33630W        W 1859  43.445  31.067  11.117
33631W        W 1860  33.149  14.564  10.741
33632W        W 1861  35.720  43.580  14.487
33633W        W 1862  39.881  38.732  14.684
33634W        W 1863  29.946  16.352   4.499
33635W        W 1864  21.147  26.020  10.485
33636W        W 1865  11.487  43.061  12.311
33637W        W 1866  37.845  29.585   0.033
33638W        W 1867  43.933   8.110   0.344
33639W        W 1868  16.096   6.883   3.213
33640W        W 1869  34.324  38.938  11.607
33641W        W 1870  12.371  33.192  14.650
33642W        W 1871  37.866  27.328   1.244
33643W        W 1872   1.730  40.366  13.019
33644W        W 1873  40.744  40.946   2.733
33645W        W 1874   9.787  22.802  11.046
33646W        W 1875  30.009  19.500   5.168
33647W        W 1876   6.191  12.174  12.470
33648W        W 1877  35.128  40.389   2.578
33649W        W 1878  17.515  26.934   0.000
33650W        W 1879  40.390  26.074   4.920
33651W        W 1880   8.905   5.175  11.100
33652W        W 1881  32.924  15.132   0.972
33653W        W 1882  40.744  14.773  11.300
33654W        W 1883  43.638  40.946  13.006
33655W        W 1884  22.150  24.667  14.531
33656W        W 1885  33.269  42.468   3.078
33657W        W 1886  20.099  37.739  13.474
33658W        W 1887  28.495  17.287   4.092
33659W        W 1888  40.376   6.402   5.146
33660W        W 1889  35.515  42.613   2.827
33661W        W 1890  43.164   4.675   2.015
33662W        W 1891   2.276  36.833   0.025
33663W        W 1892  29.652  37.927  10.514
33664W        W 1893  17.488  11.849  12.100
33665W        W 1894  39.652  17.819   2.753
33666W        W 1895  22.151   4.961   0.700
33667W        W 1896   4.384  14.222  13.023
33668W        W 1897   4.747  38.925   1.747
33669W        W 1898  35.116  19.059  13.489
33670W        W 1899  38.870  28.516  13.983
33671W        W 1900  22.693  15.287  12.021
33672W        W 1901  28.628   9.783  11.492
33673W        W 1902  10.062  22.173   4.881
33674W        W 1903  18.102  12.237   4.047
33675W        W 1904  38.937  23.950   5.047
33676W        W 1905  41.294  29.174  14.661
33677W        W 1906  17.751  36.867   4.672
33678W        W 1907   6.425  27.910  12.120
33679W        W 1908  18.107  16.157   3.158
33680W        W 1909  37.402  28.281   9.461
33681W        W 1910  16.505  32.358   2.076
33682W        W 1911  43.557  39.942  12.008
33683W        W 1912  44.749  22.435  11.117
33684W        W 1913   8.159   3.320   4.157
33685W        W 1914   7.387  41.031  14.402
33686W        W 1915   7.926  11.238  12.077
33687W        W 1916  40.299  20.138  13.401
33688W        W 1917  31.956  37.787  12.906
33689W        W 1918  35.639  27.641   4.124
33690W        W 1919  37.436  29.108   0.816
33691W        W 1920  26.218  33.040  14.097
33692W        W 1921  18.969  27.857  11.504
33693W        W 1922  16.141  29.552   1.964
33694W        W 1923  36.037  29.829   3.821
33695W        W 1924  19.670  15.636   2.912
33696W        W 1925  26.487   7.543   4.019
33697W        W 1926  12.786   6.679  14.075
33698W        W 1927  30.239  19.095   0.424
33699W        W 1928  15.124   9.271  14.727
33700W        W 1929  29.933  36.409   3.765
33701W        W 1930  35.073  33.651  10.735
33702W        W 1931  25.167  42.520   4.575
33703W        W 1932   8.845  43.937   1.470
33704W        W 1933  31.594  27.567  10.964
33705W        W 1934  43.839   6.123   3.136
33706W        W 1935   8.081  38.952   4.242
33707W        W 1936  35.782   5.752   4.028
33708W        W 1937  38.010  29.057   0.196
33709W        W 1938  34.359  19.087   4.424
33710W        W 1939  30.136  13.157  14.446
33711W        W 1940  12.368   1.331   0.274
33712W        W 1941   9.559  16.212  14.280
33713W        W 1942   6.325   8.126  14.459
33714W        W 1943  19.799  24.078  14.313
33715W        W 1944   4.209  39.451  11.589
33716W        W 1945  34.882  13.018   0.751
33717W        W 1946   8.709   3.983   0.933
33718W        W 1947   9.558  39.350   0.510
33719W        W 1948   5.003  11.384   1.285
33720W        W 1949  11.379   6.798   4.255
33721W        W 1950  42.755  24.632   1.793
33722W        W 1951   7.497  41.477   4.566
33723W        W 1952  26.196   1.766   1.280
33724W        W 1953  25.642  40.075   3.172
33725W        W 1954   2.912  31.622   1.631
33726W        W 1955   5.984  35.403   2.323
33727W        W 1956  32.808   9.739  11.586
33728W        W 1957  41.669  33.058  14.385
33729W        W 1958  13.242  16.149   3.262
33730W        W 1959  17.346  21.921  10.573
33731W        W 1960  16.836  15.335  11.589
33732W        W 1961   5.260  44.452  11.198
33733W        W 1962  13.074  38.037   0.092
33734W        W 1963  36.573   7.862  11.514
33735W        W 1964  30.122  18.398  10.343
33736W        W 1965  28.891  42.948  10.352
33737W        W 1966  17.780  39.481   2.277
33738W        W 1967   0.066  36.006  13.902
33739W        W 1968  44.348  31.441   3.964
33740W        W 1969  19.576  26.690   1.928
33741W        W 1970   0.168  22.689  12.047
33742W        W 1971  24.019  29.090  10.369
33743W        W 1972  15.690  10.519  11.911
33744W        W 1973  44.384  30.868  13.981
33745W        W 1974  11.657  18.790   1.985
33746W        W 1975  31.971  23.197   0.180
33747W        W 1976   2.127  16.574  14.859
33748W        W 1977   6.665  19.153   2.859
33749W        W 1978  36.873  25.217   4.922
33750W        W 1979  14.078  17.687   0.435
33751W        W 1980  30.117   1.529   4.339
33752W        W 1981  24.929  15.593   2.183
33753W        W 1982  20.097   7.718   0.266
33754W        W 1983  17.045   3.839   2.145
33755W        W 1984  18.086  30.412   4.107
33756W        W 1985  14.604  11.350   3.529
33757W        W 1986  37.740   5.531   5.405
33758W        W 1987   5.366  22.260  11.658
33759W        W 1988  38.002   8.314   0.844
33760W        W 1989  44.244  44.689  12.406
33761W        W 1990   9.297   8.349   0.257
33762W        W 1991  17.067  36.050   4.128
33763W        W 1992  24.658  24.027  12.367
33764W        W 1993  40.787  35.489   0.787
33765W        W 1994  42.189  13.826  11.447
33766W        W 1995   9.890  43.546  14.003
33767W        W 1996  28.684  10.789  13.077
33768W        W 1997   8.342  16.145  11.942
33769W        W 1998   6.505  20.070   2.812
33770W        W 1999  28.447  36.297   2.289
33771W        W 2000   1.322  18.649  11.751
33772W        W 2001  41.696  34.521   4.131
33773W        W 2002  37.555  12.184  13.311
33774W        W 2003   1.395  29.928   0.858
33775W        W 2004  40.490   1.162  10.636
33776W        W 2005  20.773  21.531   2.052
33777W        W 2006  25.200  40.227   5.106
33778W        W 2007  21.431  37.722   2.817
33779W        W 2008  39.065  23.495  14.429
33780W        W 2009  24.754  11.649   3.700
33781W        W 2010  10.066  21.080   4.220
33782W        W 2011  26.024  38.371  11.047
33783W        W 2012  32.443  20.321   4.786
33784W        W 2013  12.429   9.093  13.294
33785W        W 2014  18.184  44.216  14.789
33786W        W 2015  39.574  28.892  12.534
33787W        W 2016  40.267  37.300   1.031
33788W        W 2017  13.180   4.622   3.210
33789W        W 2018  17.704  11.170   4.011
33790W        W 2019  35.197  11.487   0.571
33791W        W 2020  44.336   3.174  12.038
33792W        W 2021  29.048  32.918  12.432
33793W        W 2022  13.180   3.950  12.855
33794W        W 2023  36.405   2.843   2.273
33795W        W 2024  43.782   3.732   3.124
33796W        W 2025   2.587  25.842   2.804
33797W        W 2026  29.665  15.740   0.876
33798W        W 2027   8.774  43.706   3.010
33799W        W 2028  20.287  16.638  11.092
33800W        W 2029  44.299  21.664  12.607
33801W        W 2030   8.380  41.690   1.269
33802W        W 2031  18.640   8.807  11.252
33803W        W 2032  32.962  22.390  13.984
33804W        W 2033  13.165  44.485  10.731
33805W        W 2034  43.665  40.793   0.533
33806W        W 2035  22.167  36.301   2.196
33807W        W 2036  44.695  33.549   3.791
33808W        W 2037   8.134  19.216  13.855
33809W        W 2038  21.544  23.002   3.730
33810W        W 2039  40.534  33.544  12.489
33811W        W 2040   0.945   1.721  12.040
33812W        W 2041   6.723  41.038   0.839
33813W        W 2042  41.928   3.455   4.598
33814W        W 2043  41.502  40.582  12.429
33815W        W 2044  32.454  14.099   3.687
33816W        W 2045  28.700  32.441   4.419
33817W        W 2046   3.788  42.847   2.716
33818W        W 2047  33.745  43.142   2.424
33819W        W 2048   1.431  21.788   1.287
33820W        W 2049  21.234  32.909   0.216
33821W        W 2050  42.821   0.956   4.315
33822W        W 2051  38.879  44.455   4.701
33823W        W 2052  44.802  44.319   0.822
33824W        W 2053  24.280  20.262   4.924
33825W        W 2054  18.748  31.514   5.172
33826W        W 2055  20.679  32.415  11.213
33827W        W 2056   0.382  21.481  13.373
33828W        W 2057  33.048  22.264  12.279
33829W        W 2058  19.552  22.576   2.275
33830W        W 2059  37.083  24.898  13.984
33831W        W 2060  36.486  16.564  12.886
33832W        W 2061  23.022   1.260   0.861
33833W        W 2062  28.960  23.732   1.750
33834W        W 2063   0.271  16.125  11.098
33835W        W 2064  21.185  21.089   0.445
33836W        W 2065  27.662   9.313   3.928
33837W        W 2066  35.172  44.464  12.660
33838W        W 2067   0.834  32.452  10.502
33839W        W 2068  36.138  30.640  13.785
33840W        W 2069  22.055  21.264   1.910
33841W        W 2070  39.860  25.957   4.888
33842W        W 2071  20.260  38.488  14.314
33843W        W 2072  28.505   2.219   1.843
33844W        W 2073   6.807   8.328   2.429
33845W        W 2074  25.703  36.578   3.962
33846W        W 2075  34.369  30.679  14.811
33847W        W 2076   6.962  30.188   4.454
33848W        W 2077  33.837  20.662   0.486
33849W        W 2078  41.933  12.253  10.743
33850W        W 2079   5.851  19.579   1.947
33851W        W 2080  39.677  23.480  14.410
33852W        W 2081  36.584  29.292  14.858
33853W        W 2082  38.091  38.809  14.378
33854W        W 2083   1.732  40.709  11.080
33855W        W 2084   6.328  34.781   1.754
33856W        W 2085  17.526   2.515   2.799
33857W        W 2086  42.462  25.147   3.310
33858W        W 2087  30.067  44.446  10.334
33859W        W 2088  42.422  37.055  10.701
33860W        W 2089  24.955  41.382  13.040
33861W        W 2090  18.051  18.332  12.227
33862W        W 2091  23.919   1.950  13.212
33863W        W 2092   8.483   7.947   1.469
33864W        W 2093  26.292   2.825   5.035
33865W        W 2094   8.502  29.590  13.753
33866W        W 2095  18.618  34.967   2.351
33867W        W 2096   4.742  32.620   4.104
33868W        W 2097  39.517  24.229   1.767
33869W        W 2098  33.645  25.549  11.122
33870W        W 2099  11.854   9.416   4.531
33871W        W 2100   5.511  18.670  14.372
33872W        W 2101  32.141  20.273   1.577
33873W        W 2102   0.940  29.079   1.881
33874W        W 2103   7.875  12.319  13.084
33875W        W 2104  43.737  20.106   3.121
33876W        W 2105   2.459  24.481   4.864
33877W        W 2106  13.795   8.191  11.197
33878W        W 2107   3.399  18.795  12.958
33879W        W 2108   9.382  42.919   0.010
33880W        W 2109  42.002  18.258  14.428
33881W        W 2110   0.081  10.258  14.120
33882W        W 2111  21.008  32.985   4.304
33883W        W 2112   4.479  37.089   4.771
33884W        W 2113  32.125  39.805  10.666
33885W        W 2114  13.266   6.485  12.679
33886W        W 2115  24.945  31.553   5.277
33887W        W 2116  12.208   2.267  10.322
33888W        W 2117  19.718   1.542   3.461
33889W        W 2118  21.175  34.890   0.106
33890W        W 2119  40.325   3.379   0.252
33891W        W 2120  36.454  38.850   4.952
33892W        W 2121  25.996  27.470  12.602
33893W        W 2122  11.149  30.010   2.274
33894W        W 2123  28.697  20.077   4.031
33895W        W 2124  34.427  18.424  14.611
33896W        W 2125  43.819  17.555  10.734
33897W        W 2126   9.368  10.531   0.910
33898W        W 2127  27.552   6.741  10.817
33899W        W 2128  18.266   6.148  14.475
33900W        W 2129  27.271  41.794  14.393
33901W        W 2130   2.585   8.290   2.861
33902W        W 2131  12.193  21.176   0.153
33903W        W 2132  15.203  25.513  11.232
33904W        W 2133   7.962   0.007   1.964
33905W        W 2134   6.757  33.624  10.740
33906W        W 2135  35.996  36.079  14.826
33907W        W 2136  24.327   7.357   4.457
33908W        W 2137  38.935  28.141   1.665
33909W        W 2138   2.452  33.605  11.496
33910W        W 2139  13.187  26.418  14.114
33911W        W 2140  34.183  13.100  12.106
33912W        W 2141  22.472  20.559  13.029
33913W        W 2142  10.736  22.495   3.326
33914W        W 2143  13.163  19.095  13.175
33915W        W 2144  40.415  33.027  12.155
33916W        W 2145   1.757  24.214   1.360
33917W        W 2146  26.788  20.685  14.554
33918W        W 2147  37.241  39.524   4.565
33919W        W 2148  36.009  40.677   2.914
33920W        W 2149  17.224  21.069   1.317
33921W        W 2150  37.481   4.925   4.083
33922W        W 2151  19.750   7.517  11.731
33923W        W 2152  35.068  31.832   4.490
33924W        W 2153  10.387  27.492   0.216
33925W        W 2154  25.708  43.167   2.893
33926W        W 2155  35.366  23.486  14.192
33927W        W 2156  14.796  16.044  10.802
33928W        W 2157  40.056  11.575   4.150
33929W        W 2158  14.203   6.380  10.990
33930W        W 2159  11.714   4.874  11.151
33931W        W 2160  42.790  18.275   2.347
33932W        W 2161  20.557  26.599  12.069
33933W        W 2162   4.558  17.308   2.392
33934W        W 2163  17.806  12.256  14.834
33935W        W 2164  38.521   2.914   2.687
33936W        W 2165  10.285   0.994   2.064
33937W        W 2166  34.831  19.351  14.778
33938W        W 2167   3.520   5.091   0.795
33939W        W 2168  14.308  14.254   3.851
33940W        W 2169  42.151  25.553  12.877
33941W        W 2170  31.472  30.378  14.837
33942W        W 2171  39.860  29.179   0.012
33943W        W 2172  27.269  29.984   0.593
33944W        W 2173  23.326  36.787  11.323
33945W        W 2174  36.573  12.270  12.293
33946W        W 2175   4.402  35.158  14.486
33947W        W 2176  34.968  28.183   0.823
33948W        W 2177   5.270   7.209  12.872
33949W        W 2178  14.790  13.359   0.299
33950W        W 2179  22.763   1.964  13.542
33951W        W 2180  34.892  19.799  10.788
33952W        W 2181  20.654   5.779   2.884
33953W        W 2182   8.127   9.303   3.824
33954W        W 2183  37.071  10.560   5.488
33955W        W 2184   4.420  43.034  11.884
33956W        W 2185   4.145  27.035   0.403
33957W        W 2186  14.356   5.156  12.876
33958W        W 2187  15.995   2.201  10.727
33959W        W 2188  26.060  44.075   0.923
33960W        W 2189  39.585  18.899   4.973
33961W        W 2190  10.272  20.710  14.203
33962W        W 2191   3.420  12.220   1.399
33963W        W 2192  17.714  38.629  11.582
33964W        W 2193  13.414  18.724  12.903
33965W        W 2194  42.424  23.773  13.539
33966W        W 2195  12.184   4.247   0.931
33967W        W 2196  24.153  30.929  11.725
33968W        W 2197  17.814   7.242   0.533
33969W        W 2198  14.138   7.294  14.506
33970W        W 2199  24.018  35.298   1.792
33971W        W 2200  32.486  27.476   4.359
33972W        W 2201   4.335   7.207  11.890
33973W        W 2202  19.618  18.072  12.395
33974W        W 2203  18.333   3.028  13.741
33975W        W 2204  11.776  20.628  12.295
33976W        W 2205   4.932   5.983  10.765
33977W        W 2206   5.322  32.672  14.311
33978W        W 2207  44.496   2.432  11.647
33979W        W 2208  43.232  38.929   4.076
33980W        W 2209   3.249  19.615   0.544
33981W        W 2210  29.888  17.662  10.860
33982W        W 2211  16.303  39.492  12.522
33983W        W 2212  23.048   2.684   0.069
33984W        W 2213  24.083  25.898  11.177
33985W        W 2214  34.643  13.828   1.234
33986W        W 2215  29.979  19.306  12.151
33987W        W 2216  21.250  32.168  12.050
33988W        W 2217  28.609  25.221   4.144
33989W        W 2218  28.168  34.462  12.419
33990W        W 2219  35.066  17.548   1.105
33991W        W 2220  18.050  35.888   5.209
33992W        W 2221  37.552  36.152  11.600
33993W        W 2222  13.448  23.998  13.890
33994W        W 2223  44.197  21.152  12.064
33995W        W 2224  35.899   7.996  11.173
33996W        W 2225   2.048  20.511   0.403
33997W        W 2226   8.131  17.627  13.432
33998W        W 2227  40.358  27.008   4.776
33999W        W 2228  14.702   8.175  11.176
34000W        W 2229  36.420  41.325   1.187
34001W        W 2230  34.314  31.036  13.867
34002W        W 2231  14.402  18.197   0.194
34003W        W 2232   2.351  31.505  13.591
34004W        W 2233   8.679  15.983  13.540
34005W        W 2234  23.400   7.336   2.714
34006W        W 2235  18.485  36.063  10.766
34007W        W 2236  35.335  41.746   4.126
34008W        W 2237  35.838  32.083   3.276
34009W        W 2238   4.208   3.760   0.449
34010W        W 2239   4.968  11.830  12.984
34011W        W 2240  30.406  31.364   4.229
34012W        W 2241  30.858  24.623   3.327
34013W        W 2242   9.342  38.891   2.700
34014W        W 2243   6.311  18.128  10.712
34015W        W 2244  43.766  19.063  11.732
34016W        W 2245   1.578  19.074  11.944
34017W        W 2246  17.668  30.132  10.564
34018W        W 2247  26.282   9.189   4.052
34019W        W 2248  43.523   5.550  13.426
34020W        W 2249  17.559   2.817  12.475
34021W        W 2250   5.235  39.813  11.616
34022W        W 2251  35.612  43.072  14.326
34023W        W 2252  11.332  29.502   0.521
34024W        W 2253  35.934  10.114  11.882
34025W        W 2254  40.850   0.796   4.900
34026W        W 2255   9.071  14.153   0.241
34027W        W 2256  42.212  13.590   3.303
34028W        W 2257  17.440  25.962  12.089
34029W        W 2258  41.558  11.021   1.171
34030W        W 2259  43.860  25.075  10.337
34031W        W 2260  19.621  19.470   4.177
34032W        W 2261  33.824  13.016  10.791
34033W        W 2262  30.952  25.241  13.104
34034W        W 2263  35.609   7.174   3.075
34035W        W 2264   9.848  37.752   3.834
34036W        W 2265  14.780  14.212   1.796
34037W        W 2266  42.872  42.964  13.554
34038W        W 2267  38.599  42.901   1.329
34039W        W 2268  26.654   3.768   0.670
34040W        W 2269  37.412  41.794   0.946
34041W        W 2270  36.356  33.663   1.875
34042W        W 2271  11.627  21.303  11.207
34043W        W 2272  43.959  27.170   1.899
34044W        W 2273  20.294   1.904   4.161
34045W        W 2274  41.433   5.274  11.197
34046W        W 2275   9.148  15.214  13.427
34047W        W 2276  17.159   1.152  12.489
34048W        W 2277  10.457   6.885   2.239
34049W        W 2278  36.479  33.457   0.929
34050W        W 2279  15.099  23.190  12.139
34051W        W 2280  28.509   5.388   3.620
34052W        W 2281  40.791  34.679  10.718
34053W        W 2282  11.314  17.872  14.504
34054W        W 2283  30.372  38.598   2.476
34055W        W 2284  20.508   0.390  14.902
34056W        W 2285  44.567   3.679   5.082
34057W        W 2286  24.532  23.610   0.083
34058W        W 2287  32.317  26.702   1.845
34059W        W 2288  15.524  10.843  12.666
34060W        W 2289  22.054   4.191  12.516
34061W        W 2290  44.882   8.212  12.499
34062W        W 2291  10.875   3.191   0.936
34063W        W 2292  28.519  41.133  12.849
34064W        W 2293  42.316  19.592   1.660
34065W        W 2294   4.210  44.007   0.788
34066W        W 2295  19.727  32.673  12.122
34067W        W 2296  23.740  35.021   2.347
34068W        W 2297  31.913  40.492  14.402
34069W        W 2298  27.957  10.118   0.951
34070W        W 2299  43.414   5.315   2.801
34071W        W 2300  35.616  20.110   1.865
34072W        W 2301  21.012   1.356  13.610
34073W        W 2302  15.812  11.598  13.404
34074W        W 2303  19.781  15.199  14.528
34075W        W 2304  21.274   3.400   2.145
34076W        W 2305  33.525  32.995   4.799
34077W        W 2306  44.350  19.219   4.734
34078W        W 2307  17.020  22.204  12.858
34079W        W 2308  38.496  26.348   2.412
34080W        W 2309  31.166  38.037   1.729
34081W        W 2310  16.786  18.858   3.567
34082W        W 2311  17.109  44.203   2.227
34083W        W 2312  12.596  12.665   3.567
34084W        W 2313  20.474  38.518  13.829
34085W        W 2314  34.971  40.893  10.991
34086W        W 2315  36.534  17.472  13.967
34087W        W 2316  42.583  22.951   2.913
34088W        W 2317  30.020  15.855  10.648
34089W        W 2318  37.825   6.841   3.548
34090W        W 2319   0.277  23.984  11.622
34091W        W 2320  24.496  23.796   1.773
34092W        W 2321  34.045  27.902  12.687
34093W        W 2322  25.706   2.748   4.001
34094W        W 2323  15.622  35.540  10.663
34095W        W 2324   4.892   9.798   0.753
34096W        W 2325  22.111  33.561  14.493
34097W        W 2326  39.008  24.520  11.789
34098W        W 2327  19.486   2.278  14.970
34099W        W 2328  25.001  41.378   0.498
34100W        W 2329   5.538  28.866   4.699
34101W        W 2330   3.335  37.887  13.898
34102W        W 2331  25.498  26.733   0.386
34103W        W 2332   6.453  11.689   0.385
34104W        W 2333   4.459  21.538  14.909
34105W        W 2334  44.513   0.401  11.174
34106W        W 2335  16.364  23.437   3.649
34107W        W 2336  11.374  40.398   4.453
34108W        W 2337  31.598   5.033  13.046
34109W        W 2338   8.071  43.317  14.844
34110W        W 2339  24.762   1.657   3.197
34111W        W 2340  21.243  19.822   0.381
34112W        W 2341  31.112  29.551  10.762
34113W        W 2342  15.387  12.176   0.333
34114W        W 2343  39.362  13.233   1.900
34115W        W 2344   1.503  40.509   3.750
34116W        W 2345  17.214  38.980   4.380
34117W        W 2346  41.794   4.309  11.850
34118W        W 2347   0.223  14.703   4.545
34119W        W 2348  18.493  22.522  13.574
34120W        W 2349  37.495  12.914  13.549
34121W        W 2350  31.009  19.772   0.470
34122W        W 2351  20.683  39.793   1.889
34123W        W 2352   7.727  42.030  13.020
34124W        W 2353   9.723  28.222   2.429
34125W        W 2354   6.252  14.672  11.408
34126W        W 2355  37.285  25.575   3.195
34127W        W 2356  27.861   9.168  10.738
34128W        W 2357  33.837   5.695  13.988
34129W        W 2358  26.074  31.155   2.960
34130W        W 2359  14.588  13.673  13.847
34131W        W 2360  15.969  41.381   3.719
34132W        W 2361  11.926   3.429  12.533
34133W        W 2362   0.359  20.089   0.397
34134W        W 2363  39.417  13.940   0.269
34135W        W 2364   3.336   2.211  14.103
34136W        W 2365  40.289  27.132  13.035
34137W        W 2366  38.051  36.506  13.019
34138W        W 2367  13.753  19.717  12.780
34139W        W 2368  20.458  34.152  14.050
34140W        W 2369  39.523   4.653   1.928
34141W        W 2370  43.152  43.303   2.366
34142W        W 2371  33.146   4.140   4.194
34143W        W 2372  28.931  35.091  14.984
34144W        W 2373  36.719  32.027   4.132
34145W        W 2374  33.356  20.172   0.314
34146W        W 2375  14.124  12.432   0.795
34147W        W 2376  26.537  18.206   3.583
34148W        W 2377   5.848  27.691  10.753
34149W        W 2378  18.205   5.336  11.877
34150W        W 2379  36.876   8.212  13.775
34151W        W 2380  17.365  14.135  10.750
34152W        W 2381   1.835  24.925   4.497
34153W        W 2382  16.134  41.260  13.905
34154W        W 2383  43.657  13.050   0.467
34155W        W 2384   0.832  12.483   2.903
34156W        W 2385  10.672  42.962   2.262
34157W        W 2386  40.397   9.552   2.329
34158W        W 2387  25.550   1.681   1.789
34159W        W 2388  32.577  19.146   2.885
34160W        W 2389  19.824  21.732   3.735
34161W        W 2390  10.144  29.885   0.339
34162W        W 2391  13.295  43.295  14.859
34163W        W 2392   2.904  41.065   0.391
34164W        W 2393  28.573  15.071   4.564
34165W        W 2394  42.597  30.670  14.943
34166W        W 2395  22.705   1.275   3.320
34167W        W 2396  41.277  29.427  13.395
34168W        W 2397  38.582  19.472  13.997
34169W        W 2398  16.812  16.648  10.266
34170W        W 2399  14.989  21.445   3.238
34171W        W 2400   1.238  17.320  11.950
34172W        W 2401   3.949  43.794  13.840
34173W        W 2402   2.771  43.759   1.731
34174W        W 2403  36.426  43.069   2.769
34175W        W 2404  24.503   8.657   4.357
34176W        W 2405  43.071  12.791  11.923
34177W        W 2406  18.378  13.213   2.622
34178W        W 2407  16.876  19.574  11.625
34179W        W 2408  15.722  13.250  10.441
34180W        W 2409   5.616   4.941  13.033
34181W        W 2410   1.950  25.709  13.470
34182W        W 2411   7.169  24.679  12.921
34183W        W 2412  10.768  25.680   4.319
34184W        W 2413   6.326  28.914  10.609
34185W        W 2414  23.231  11.192   3.706
34186W        W 2415  26.015   7.797   1.008
34187W        W 2416  18.089   7.335   4.627
34188W        W 2417  13.279  33.703   3.840
34189W        W 2418   0.877  13.620  12.246
34190W        W 2419  16.228   6.844  13.006
34191W        W 2420  18.626  18.309   0.376
34192W        W 2421   8.358   6.093  14.982
34193W        W 2422  13.564   9.579  10.140
34194W        W 2423   6.876   1.436  13.468
34195W        W 2424  37.992   0.535  13.431
34196W        W 2425  30.011  31.866  13.802
34197W        W 2426   8.687  41.437   3.766
34198W        W 2427   3.396   1.424  11.576
34199W        W 2428  26.570  19.480   2.397
34200W        W 2429  40.355  33.382   9.841
34201W        W 2430  11.210  18.372   1.338
34202W        W 2431  43.943   0.729  13.881
34203W        W 2432   2.949  22.960  13.854
34204W        W 2433  21.004  18.031   3.184
34205W        W 2434   4.861  20.643  10.684
34206W        W 2435   9.835  17.093  10.738
34207W        W 2436   8.413  29.778  14.792
34208W        W 2437  22.851  21.733   1.694
34209W        W 2438  22.195  44.000   0.406
34210W        W 2439  42.297   2.682  14.939
34211W        W 2440  19.987  15.186  10.569
34212W        W 2441  19.041  22.486  11.990
34213W        W 2442  29.515   3.213   4.825
34214W        W 2443  18.689  10.636  12.524
34215W        W 2444  28.970  29.489   0.672
34216W        W 2445  10.835  21.227   1.356
34217W        W 2446  21.229  27.882  10.098
34218W        W 2447  21.592   0.418  11.572
34219W        W 2448   2.618  33.376  11.047
34220W        W 2449  14.220  42.747   1.882
34221W        W 2450  41.389  10.266   2.920
34222W        W 2451  32.091  12.935  13.865
34223W        W 2452  18.676  33.572   1.774
34224W        W 2453  34.953  44.802   3.136
34225W        W 2454  19.074  36.079   1.186
34226W        W 2455   6.395  10.370   0.919
34227W        W 2456  28.801  26.120  10.283
34228W        W 2457  18.101  31.147   3.602
34229W        W 2458   7.393  13.765   1.759
34230W        W 2459   0.001   1.082  12.391
34231W        W 2460  19.698  19.750   4.603
34232W        W 2461  34.417  34.085   0.768
34233W        W 2462  10.870  25.210   2.346
34234W        W 2463  10.237   8.320  12.038
34235W        W 2464  21.156  34.536  11.501
34236W        W 2465  21.961  17.679   1.915
34237W        W 2466  13.382  27.217  11.157
34238W        W 2467  15.767  27.511   0.683
34239W        W 2468  32.936  44.688  11.496
34240W        W 2469  24.311  36.360  14.253
34241W        W 2470  43.213   8.186  13.961
34242W        W 2471   2.320   4.772  11.047
34243W        W 2472  43.759  33.927  12.207
34244W        W 2473  30.019   2.069   1.381
34245W        W 2474  11.644  15.342  14.384
34246W        W 2475   8.750  38.107  14.916
34247W        W 2476  20.469  34.429  11.052
34248W        W 2477  33.788  37.927  11.021
34249W        W 2478  41.599   0.082  13.489
34250W        W 2479  21.755  38.121  11.231
34251W        W 2480   8.657  32.121   4.107
34252W        W 2481  23.785  44.439   0.442
34253W        W 2482  26.521   3.010  11.996
34254W        W 2483  28.992  23.519   0.527
34255W        W 2484  16.038   5.917   0.819
34256W        W 2485  25.651  22.012  11.638
34257W        W 2486  25.401  37.958   9.780
34258W        W 2487  40.067  36.923  13.582
34259W        W 2488  40.454  21.276  14.410
34260W        W 2489  14.867   1.395   2.755
34261W        W 2490  10.428  23.458   0.989
34262W        W 2491  42.543  40.402  12.555
34263W        W 2492  13.088  36.149  11.104
34264W        W 2493  33.450  23.706   2.270
34265W        W 2494  19.562   7.221  14.792
34266W        W 2495  23.698   6.885   4.202
34267W        W 2496  18.471  39.531   4.107
34268W        W 2497   6.089  21.866   0.315
34269W        W 2498  35.338  27.522   2.552
34270W        W 2499   4.418   2.286   0.468
34271W        W 2500  23.969   6.007   3.757
34272W        W 2501  32.092  13.406  13.005
34273W        W 2502  28.363  29.667   3.116
34274W        W 2503  25.142   8.634   3.843
34275W        W 2504  40.811  19.008  13.308
34276W        W 2505  13.861   0.724  12.970
34277W        W 2506  31.247   4.348  12.368
34278W        W 2507  15.530  42.283  11.722
34279W        W 2508   4.289   3.861   4.567
34280W        W 2509  28.552  42.046  13.956
34281W        W 2510  13.721  38.987   3.124
34282W        W 2511  25.617  12.583   3.701
34283W        W 2512  39.805   7.729   2.788
34284W        W 2513  41.786  29.066   3.268
34285W        W 2514  16.588  40.033   4.127
34286W        W 2515  27.337  11.656   5.363
34287W        W 2516  15.300   3.380   1.821
34288W        W 2517   9.953   7.148  11.115
34289W        W 2518   7.248  17.886  13.022
34290W        W 2519  29.017  19.234   4.315
34291W        W 2520   0.472  25.700   3.315
34292W        W 2521  23.572  31.882   1.250
34293W        W 2522  29.365   1.747  13.881
34294W        W 2523  20.570  31.634  10.679
34295W        W 2524  37.151  37.477   1.752
34296W        W 2525  20.378   5.214  10.632
34297W        W 2526  44.755  22.578  13.829
34298W        W 2527  34.991  29.461   3.916
34299W        W 2528  18.036  13.642   2.973
34300W        W 2529   5.687   6.782  13.700
34301W        W 2530  44.217  12.093   3.306
34302W        W 2531  44.209   5.276   3.145
34303W        W 2532   7.195   8.106  14.480
34304W        W 2533   9.173  34.007  11.212
34305W        W 2534  25.544  39.315   3.738
34306W        W 2535  26.295  31.659   4.206
34307W        W 2536  43.859   5.180  13.980
34308W        W 2537  36.578  20.971  11.966
34309W        W 2538   9.445  33.567  12.810
34310W        W 2539  13.901  41.550  13.621
34311W        W 2540  39.773  41.870   2.506
34312W        W 2541  31.030  41.132  11.496
34313W        W 2542  21.133  42.275   1.293
34314W        W 2543  18.105  11.993  11.021
34315W        W 2544  19.780   7.280   0.262
34316W        W 2545  12.942  28.695   1.211
34317W        W 2546  11.378  38.839  12.913
34318W        W 2547  20.707  44.969  11.682
34319W        W 2548   7.706  20.857  13.442
34320W        W 2549  10.446  27.099  14.308
34321W        W 2550  16.905  16.761   2.236
34322W        W 2551  40.578  21.271  13.109
34323W        W 2552  41.011  22.177   3.753
34324W        W 2553  16.813  42.901   1.337
34325W        W 2554   2.204  16.489   2.607
34326W        W 2555  33.419  44.516  11.535
34327W        W 2556   1.754  31.024  14.313
34328W        W 2557  31.518   9.056   4.724
34329W        W 2558   4.363   6.587   1.107
34330W        W 2559  36.399  40.686   5.020
34331W        W 2560  10.616   7.105  13.067
34332W        W 2561  38.588  26.089  10.470
34333W        W 2562  21.788  41.351   3.627
34334W        W 2563   9.405   5.860   1.775
34335W        W 2564  41.717   6.706   4.178
34336W        W 2565  29.610   2.734   4.499
34337W        W 2566  32.108  36.111   1.247
34338W        W 2567  22.464   1.969  10.231
34339W        W 2568  25.092  23.840   1.389
34340W        W 2569  28.515  12.205  10.449
34341W        W 2570   8.817   7.689  14.949
34342W        W 2571   1.233   3.974   1.273
34343W        W 2572  42.849  23.909   4.663
34344W        W 2573  34.466  26.926  13.578
34345W        W 2574  29.201  15.576  13.374
34346W        W 2575  22.661  38.907   3.119
34347W        W 2576   6.303  38.130   2.550
34348W        W 2577  17.047  16.428   5.202
34349W        W 2578  13.955  33.349   4.876
34350W        W 2579  27.929   7.723   4.327
34351W        W 2580  27.182   5.415  11.240
34352W        W 2581  26.074  15.590  10.909
34353W        W 2582  25.323  11.362  14.917
34354W        W 2583  28.174  36.823  12.647
34355W        W 2584  31.257  15.602   1.789
34356W        W 2585  29.177  27.522  12.115
34357W        W 2586  25.326  44.606   0.468
34358W        W 2587  31.126  29.484  14.423
34359W        W 2588  20.404   0.491  11.182
34360W        W 2589  40.960   8.173  10.513
34361W        W 2590  14.368  38.591   4.866
34362W        W 2591  35.430  35.894  14.492
34363W        W 2592  42.389   3.348   3.726
34364W        W 2593  31.510  43.998  13.585
34365W        W 2594  38.622   7.303   1.673
34366W        W 2595  25.358  12.123   3.587
34367W        W 2596   0.346  38.022  12.348
34368W        W 2597  31.589  31.389  14.857
34369W        W 2598  31.419  20.111  13.366
34370W        W 2599  43.533  26.208   0.823
34371W        W 2600  25.917   8.936   4.702
34372W        W 2601  44.781  38.972  13.525
34373W        W 2602   2.061   5.323  14.098
34374W        W 2603  23.499  32.353   3.167
34375W        W 2604   8.909   4.023   1.793
34376W        W 2605  28.009  11.761  12.371
34377W        W 2606  19.776   1.886   2.672
34378W        W 2607  22.737  40.557  10.593
34379W        W 2608  18.419  22.126   4.543
34380W        W 2609  13.661  34.083  13.530
34381W        W 2610  19.013  43.481  13.773
34382W        W 2611  13.320   1.523  11.715
34383W        W 2612   5.762  33.864   3.265
34384W        W 2613  23.324  39.846  13.432
34385W        W 2614  26.741  14.584   1.691
34386W        W 2615  41.359   8.677   1.339
34387W        W 2616  33.301  16.120   3.989
34388W        W 2617   9.798  32.083   2.415
34389W        W 2618  30.402  17.542  11.063
34390W        W 2619  40.500  21.549  14.993
34391W        W 2620  38.143  21.481  10.642
34392W        W 2621   0.919  24.051   2.710
34393W        W 2622  43.671  27.042   1.496
34394W        W 2623  28.591  18.354  10.515
34395W        W 2624  17.654  12.191   1.391
34396W        W 2625  18.126   2.379   2.150
34397W        W 2626  30.660   9.220  12.945
34398W        W 2627  29.153  11.075  14.789
34399W        W 2628   6.727   0.028   0.905
34400W        W 2629  37.045  33.410  10.313
34401W        W 2630   0.217  11.847  13.977
34402W        W 2631  11.111  42.858   0.382
34403W        W 2632  29.452  21.267   0.875
34404W        W 2633  30.844  40.041  13.994
34405W        W 2634  26.027  35.410  11.480
34406W        W 2635  30.143  18.343  12.004
34407W        W 2636   3.476  28.006   0.925
34408W        W 2637  23.483  40.304   4.210
34409W        W 2638   1.385  38.024  13.310
34410W        W 2639  24.587  25.971   0.650
34411W        W 2640  39.950  14.593  11.285
34412W        W 2641  25.974  38.366   4.645
34413W        W 2642   1.511   5.257  12.106
34414W        W 2643  32.325  27.401  14.464
34415W        W 2644   2.429  26.706  14.555
34416W        W 2645  27.944  21.189   9.991
34417W        W 2646   7.149   6.011   1.464
34418W        W 2647  41.862   8.359   3.603
34419W        W 2648  22.676  44.145   1.783
34420W        W 2649  26.023  30.037  11.337
34421W        W 2650   9.283  22.159   0.497
34422W        W 2651  20.280  14.645  12.199
34423W        W 2652  41.390  14.370   0.331
34424W        W 2653   6.299  36.341   1.847
34425W        W 2654  33.155  41.070   1.852
34426W        W 2655   0.535  41.896  13.369
34427W        W 2656  39.277   3.750  14.439
34428W        W 2657  36.819  16.112   0.741
34429W        W 2658   0.311  16.393   0.857
34430W        W 2659   1.031  20.605   0.456
34431W        W 2660  20.610   3.943   0.724
34432W        W 2661  27.768  28.198   2.624
34433W        W 2662   8.689  24.725  13.294
34434W        W 2663  26.493   2.736   0.208
34435W        W 2664  37.944  12.420  13.970
34436W        W 2665   8.156  10.169  11.203
34437W        W 2666  37.821   2.883   0.821
34438W        W 2667   4.874  44.751   0.005
34439W        W 2668  28.640  25.701   3.046
34440W        W 2669  37.838  34.508  13.916
34441W        W 2670  12.360  24.878   0.887
34442W        W 2671  38.764  17.702   1.731
34443W        W 2672  10.828  29.021   2.067
34444W        W 2673   5.012   3.898  14.886
34445W        W 2674  25.144  17.276  13.070
34446W        W 2675  13.836  23.653   4.607
34447W        W 2676   3.724   3.649   2.799
34448W        W 2677  30.306  43.160   3.259
34449W        W 2678   4.365  23.581  11.029
34450W        W 2679  37.969  18.274  10.813
34451W        W 2680  42.508   3.786   2.770
34452W        W 2681  22.240  23.504   0.575
34453W        W 2682  34.427  30.868  11.931
34454W        W 2683   1.872  33.145  12.114
34455W        W 2684   2.355   4.801  12.029
34456W        W 2685   5.246  30.178   3.832
34457W        W 2686  44.927   1.618  14.365
34458W        W 2687   6.409  10.460  13.731
34459W        W 2688  13.362   7.378   2.167
34460W        W 2689  29.330   5.435   2.849
34461W        W 2690  20.486  17.454   1.112
34462W        W 2691  43.959  17.729   4.784
34463W        W 2692  28.994  16.892   4.540
34464W        W 2693   2.625  20.506  11.432
34465W        W 2694  19.038  41.082   1.375
34466W        W 2695  20.170  17.270   1.892
34467W        W 2696   3.695  44.260  13.002
34468W        W 2697  18.174  41.865   2.905
34469W        W 2698  25.198  10.085  10.685
34470W        W 2699  24.272  43.681  14.331
34471W        W 2700  38.199  37.535  11.307
34472W        W 2701  43.330  42.757   3.653
34473W        W 2702   8.832  37.026   3.228
34474W        W 2703  12.897   0.850   3.749
34475W        W 2704  21.149  39.551  14.246
34476W        W 2705   3.547  22.646   1.902
34477W        W 2706  43.928   6.283  10.721
34478W        W 2707  28.418  37.530  14.243
34479W        W 2708  16.240  14.330   3.086
34480W        W 2709  38.504  19.245   3.522
34481W        W 2710  33.374   9.111  10.748
34482W        W 2711   5.202  15.390   2.648
34483W        W 2712  22.230   8.905  11.073
34484W        W 2713  28.186  31.994  14.986
34485W        W 2714  21.066  17.523   1.816
34486W        W 2715  24.312  15.561   4.070
34487W        W 2716  16.692  38.277  13.366
34488W        W 2717  16.199  39.992  13.504
34489W        W 2718  19.011  12.503  13.995
34490W        W 2719  24.748  41.215   3.652
34491W        W 2720  22.066  34.566   0.434
34492W        W 2721  30.773  41.524  10.758
34493W        W 2722  13.844  25.728   9.946
34494W        W 2723  13.960  28.716  11.954
34495W        W 2724  17.720  35.097  14.508
34496W        W 2725  33.107   2.280   0.874
34497W        W 2726   5.939  11.398  14.451
34498W        W 2727  32.894   5.782  11.325
34499W        W 2728  29.900   1.897   2.179
34500W        W 2729  22.070  21.201   3.706
34501W        W 2730  13.144  22.103  12.265
34502W        W 2731  15.060  34.469  11.191
34503W        W 2732  42.987  27.220   2.871
34504W        W 2733  33.974  14.861  13.040
34505W        W 2734  44.996  44.866   1.098
34506W        W 2735   7.670  41.585  10.849
34507W        W 2736   8.393   6.777  13.558
34508W        W 2737   4.420  12.640   0.828
34509W        W 2738   7.275  23.467  13.502
34510W        W 2739  36.478  23.011  12.456
34511W        W 2740  22.332  23.200  12.480
34512W        W 2741  22.577  23.222   4.416
34513W        W 2742  39.931  35.082   3.287
34514W        W 2743  20.041  19.473   2.199
34515W        W 2744  11.517  29.899  12.101
34516W        W 2745  39.048  43.224   0.773
34517W        W 2746   4.714  16.869  14.773
34518W        W 2747  32.890   5.855   0.709
34519W        W 2748   1.460  26.158   0.383
34520W        W 2749  12.602  37.463  12.957
34521W        W 2750  32.026   7.301  10.357
34522W        W 2751  34.483   1.321   1.454
34523W        W 2752  22.756  35.702  11.130
34524W        W 2753  21.702  24.132   0.290
34525W        W 2754  24.147   4.100   3.262
34526W        W 2755  10.713   0.260  13.530
34527W        W 2756  19.791  35.391  13.582
34528W        W 2757  44.103  38.871  12.436
34529W        W 2758  37.870  30.686   2.690
34530W        W 2759  23.510   2.837  12.405
34531W        W 2760  33.080  31.604   3.130
34532W        W 2761  44.053  39.978  12.880
34533W        W 2762  10.659  28.542  14.033
34534W        W 2763  18.646  20.081  12.854
34535W        W 2764  14.825  27.326  13.068
34536W        W 2765  18.256  26.717  12.071
34537W        W 2766  41.415  29.981  14.490
34538W        W 2767   5.068  27.503   0.596
34539W        W 2768   5.452  27.599  12.131
34540W        W 2769  36.446  23.170  13.330
34541W        W 2770  31.546  38.028  13.074
34542W        W 2771  26.030  14.342  10.013
34543W        W 2772  24.974  17.603  11.215
34544W        W 2773  13.775  13.403  12.594
34545W        W 2774  12.486   4.922  10.487
34546W        W 2775  15.216  16.257  13.562
34547W        W 2776  28.015  32.044  11.671
34548W        W 2777  20.947  27.068   2.308
34549W        W 2778   7.805  23.681   3.350
34550W        W 2779   7.944  12.782  12.476
34551W        W 2780   4.770  11.586   1.729
34552W        W 2781  15.056  25.584  13.862
34553W        W 2782  38.898   0.798   4.591
34554W        W 2783  37.972  26.886  14.481
34555W        W 2784  33.520  25.237  14.045
34556W        W 2785  25.361  13.638   3.667
34557W        W 2786   5.679  19.201   1.334
34558W        W 2787  44.706   1.494  14.866
34559W        W 2788   4.954  36.232  13.846
34560W        W 2789  31.542  44.228  11.468
34561W        W 2790  14.878   8.919  10.635
34562W        W 2791  26.205  38.399   4.185
34563W        W 2792  44.383  32.590   4.241
34564W        W 2793  24.052   0.176   0.432
34565W        W 2794  44.447  21.044   1.485
34566W        W 2795  18.671  30.745   9.936
34567W        W 2796  17.265   4.302  14.853
34568W        W 2797  27.397   8.179   1.883
34569W        W 2798  15.116  37.923  12.450
34570W        W 2799  22.421  40.661   2.730
34571W        W 2800  27.474   9.587  14.972
34572W        W 2801  21.178  29.486   0.895
34573W        W 2802   6.408   3.523   4.480
34574W        W 2803  43.006  16.237   0.723
34575W        W 2804  22.236  14.099   2.280
34576W        W 2805  10.338  26.443   4.128
34577W        W 2806  26.092  32.574  13.080
34578W        W 2807   8.741  13.184  11.530
34579W        W 2808  19.016  14.666  14.381
34580W        W 2809  41.538  35.711   1.258
34581W        W 2810  33.402   7.777  11.536
34582W        W 2811  26.072  32.097  10.611
34583W        W 2812  30.616  23.098  12.072
34584W        W 2813   3.834  13.961  10.051
34585W        W 2814  34.114  34.364   2.888
34586W        W 2815  38.402  16.557   1.344
34587W        W 2816  40.327  27.510  13.964
34588W        W 2817  31.933  42.420  11.605
34589W        W 2818  23.110   5.928   4.532
34590W        W 2819  43.225  43.943  13.542
34591W        W 2820  28.326  43.116   5.049
34592W        W 2821  30.127  12.347  14.424
34593W        W 2822  29.191  17.796   2.314
34594W        W 2823  39.485  24.759  14.001
34595W        W 2824  28.219  35.008   4.875
34596W        W 2825  23.751  25.535  11.430
34597W        W 2826  26.999  37.337  14.287
34598W        W 2827  28.233  40.015  13.300
34599W        W 2828  15.245  10.889   1.838
34600W        W 2829  26.004   4.997  11.121
34601W        W 2830  24.636  43.262   3.564
34602W        W 2831  35.191  40.466  13.529
34603W        W 2832  39.786   7.818  13.990
34604W        W 2833  44.926   1.789   0.733
34605W        W 2834  13.120  24.002  13.491
34606W        W 2835  37.580  38.741   9.541
34607W        W 2836  12.635  36.966  10.363
34608W        W 2837  39.113  12.045  11.384
34609W        W 2838   8.063  39.552   1.936
34610W        W 2839  42.895   1.431   2.490
34611W        W 2840   6.775  16.073   3.374
34612W        W 2841  10.843   7.365  14.036
34613W        W 2842  43.405  20.660   2.427
34614W        W 2843  33.989  24.968   0.905
34615W        W 2844  17.599  42.024   0.769
34616W        W 2845  13.081  27.842   2.840
34617W        W 2846  30.188  27.513   0.321
34618W        W 2847   1.906  25.976  11.715
34619W        W 2848  23.833  38.973   3.820
34620W        W 2849   3.426  17.780  12.866
34621W        W 2850  41.393  31.620   4.563
34622W        W 2851   5.017  19.529  10.810
34623W        W 2852  41.372  41.752   2.542
34624W        W 2853  30.981  41.923   1.457
34625W        W 2854  10.471   4.246  13.462
34626W        W 2855  29.973  33.713   1.389
34627W        W 2856  15.865   6.852   2.740
34628W        W 2857   6.347  21.513  12.415
34629W        W 2858   7.886  25.383   4.245
34630W        W 2859  33.117  19.566   4.743
34631W        W 2860  31.713  32.364  11.778
34632W        W 2861  16.558   5.881   3.217
34633W        W 2862  42.975  28.251   0.556
34634W        W 2863  36.848   3.802  12.941
34635W        W 2864  16.137  10.147  11.143
34636W        W 2865  14.825  19.735   0.551
34637W        W 2866  33.450  41.518  12.463
34638W        W 2867  35.119  22.132  10.749
34639W        W 2868  33.705   0.991  11.682
34640W        W 2869  33.127   8.746   0.348
34641W        W 2870  32.538  17.504   3.715
34642W        W 2871  16.324   0.527  13.418
34643W        W 2872  42.306  37.413   0.349
34644W        W 2873  29.146  36.811   3.834
34645W        W 2874  44.920  13.694  13.091
34646W        W 2875   7.222  27.199   3.913
34647W        W 2876  15.302   9.137  11.063
34648W        W 2877  33.044  25.234   4.311
34649W        W 2878  26.703  14.123   0.738
34650W        W 2879  17.203  37.553   4.060
34651W        W 2880  20.816  17.908  11.237
34652W        W 2881  23.490  36.190  10.638
34653W        W 2882  41.879  37.526   0.093
34654W        W 2883  28.611   7.134  12.663
34655W        W 2884  26.706  38.021  14.040
34656W        W 2885   6.010  21.497   2.251
34657W        W 2886  44.209   3.687  11.916
34658W        W 2887   3.898  40.336  11.421
34659W        W 2888   4.192   4.879  14.486
34660W        W 2889  36.233   5.984   4.109
34661W        W 2890  12.812   3.063   4.155
34662W        W 2891   0.320  15.869  11.614
34663W        W 2892  14.571  13.774  11.624
34664W        W 2893  13.185  10.684  11.645
34665W        W 2894  33.380  43.821   1.840
34666W        W 2895   4.249  36.726   2.375
34667W        W 2896  12.331  44.377   2.861
34668W        W 2897  30.689  42.923   4.695
34669W        W 2898  16.002   8.703   4.088
34670W        W 2899  18.206  41.015   1.736
34671W        W 2900  24.901  38.390  13.474
34672W        W 2901  10.198   3.378  11.690
34673W        W 2902  11.226  42.039  10.685
34674W        W 2903   0.026  20.096  11.074
34675W        W 2904  31.577   2.475  13.932
34676W        W 2905  39.495   5.309   4.995
34677W        W 2906   0.955  24.212  10.567
34678W        W 2907   2.500  10.174  12.404
34679W        W 2908  39.313  16.276   1.791
34680W        W 2909  40.899  23.970   3.246
34681W        W 2910  27.147  38.746   0.341
34682W        W 2911  42.893  20.665  11.226
34683W        W 2912  18.664  36.851  13.936
34684W        W 2913  16.952  13.822  10.149
34685W        W 2914  39.038  42.519  13.334
34686W        W 2915  29.045  12.338   0.902
34687W        W 2916  18.826  12.249  12.045
34688W        W 2917  19.117  20.471  14.299
34689W        W 2918  19.616  43.330   2.481
34690W        W 2919   3.928  41.279  11.960
34691W        W 2920  10.372  37.796  12.159
34692W        W 2921  40.062  18.173   2.357
34693W        W 2922   6.316  21.029  14.942
34694W        W 2923  19.384  17.275   1.210
34695W        W 2924  25.436  27.623  14.087
34696W        W 2925   9.346  34.094   1.865
34697W        W 2926   4.095  42.993   4.487
34698W        W 2927  24.554  28.034  12.558
34699W        W 2928  23.318  14.294   0.551
34700W        W 2929  12.119  40.073   4.109
34701W        W 2930  31.705  15.059   3.183
34702W        W 2931  17.677  28.215   0.462
34703W        W 2932  21.676  17.598  10.804
34704W        W 2933  28.944  16.789   5.042
34705W        W 2934  34.067   4.437   1.700
34706W        W 2935  15.331  28.677  13.323
34707W        W 2936  25.871  22.613  11.126
34708W        W 2937  36.945  28.028  10.917
34709W        W 2938  33.149  20.750   1.443
34710W        W 2939  15.056   4.985  12.679
34711W        W 2940  25.215  28.688   4.536
34712W        W 2941  24.731  19.200   3.856
34713W        W 2942  17.749  22.196  13.989
34714W        W 2943  44.828  27.407  14.688
34715W        W 2944   0.908  32.635   0.441
34716W        W 2945  24.940  24.766   2.317
34717W        W 2946   2.908   8.662  13.254
34718W        W 2947  28.655  30.037   2.911
34719W        W 2948  42.106  44.055  12.259
34720W        W 2949   0.364  12.116   3.378
34721W        W 2950  19.658  16.349   2.338
34722W        W 2951   2.438  14.586  14.838
34723W        W 2952  37.050  18.244   0.858
34724W        W 2953   3.479  24.149   0.112
34725W        W 2954  33.568  25.128   5.063
34726W        W 2955  14.528  35.905  11.678
34727W        W 2956  23.411  11.140  11.370
34728W        W 2957  32.595   6.582  11.255
34729W        W 2958   8.115   8.376   0.310
34730W        W 2959  28.375  44.392   3.630
34731W        W 2960  13.544   0.023   3.768
34732W        W 2961  36.754  25.479  12.299
34733W        W 2962  32.048  36.968  11.911
34734W        W 2963   8.004  44.809   3.307
34735W        W 2964  30.250  18.510  11.202
34736W        W 2965   6.398   1.510   4.833
34737W        W 2966   3.734  35.472   2.194
34738W        W 2967   8.609  35.090   4.201
34739W        W 2968  38.408  18.307   3.887
34740W        W 2969  17.445  34.420   3.618
34741W        W 2970   7.884   1.972   1.322
34742W        W 2971   4.194  33.075   2.855
34743W        W 2972  30.093  19.111   4.294
34744W        W 2973  16.192   3.747  10.682
34745W        W 2974   2.596  14.128   2.679
34746W        W 2975  16.371   8.330  11.208
34747W        W 2976  29.976  10.204  13.919
34748W        W 2977  35.427  24.072   3.447
34749W        W 2978  31.282   5.381   0.780
34750W        W 2979  10.242  40.542  10.592
34751W        W 2980   1.426  31.593   3.793
34752W        W 2981  26.716  24.169   2.417
34753W        W 2982   5.298  36.102   3.638
34754W        W 2983  28.519  32.943   1.249
34755W        W 2984  26.098   5.152   2.795
34756W        W 2985  42.748  34.460   1.255
34757W        W 2986  11.589  35.540  11.972
34758W        W 2987  11.491  28.042   5.478
34759W        W 2988   0.894  17.802  10.822
34760W        W 2989  32.890  39.401  13.050
34761W        W 2990   8.963  33.075  12.128
34762W        W 2991  10.307  43.247   2.785
34763W        W 2992  19.991   5.365  11.504
34764W        W 2993  36.330  24.575   4.321
34765W        W 2994  39.415  34.803   2.245
34766W        W 2995  22.203   9.312  11.652
34767W        W 2996  38.826  18.165  11.993
34768W        W 2997  30.630  33.826  13.936
34769W        W 2998  23.341  35.984   3.272
34770W        W 2999  30.898  14.704   1.799
34771W        W 3000   0.195  26.140   3.229
34772W        W 3001  23.962  22.041   0.788
34773W        W 3002  30.615  38.318  13.523
34774W        W 3003  39.769  31.136  14.817
34775W        W 3004  38.945  16.634  14.398
34776W        W 3005   4.231  40.275  12.656
34777W        W 3006  14.420  22.651  10.327
34778W        W 3007   8.704  22.061  10.950
34779W        W 3008   4.250  35.662  14.535
34780W        W 3009  32.441  28.216   3.064
34781W        W 3010  13.678  32.570  14.489
34782W        W 3011  30.980  25.530   2.301
34783W        W 3012  32.935  37.095  10.686
34784W        W 3013  35.295  15.163  11.156
34785W        W 3014  20.458   9.404   4.342
34786W        W 3015  21.502  28.046  12.509
34787W        W 3016  19.940  13.526  13.436
34788W        W 3017  14.260  35.454   4.130
34789W        W 3018  39.100   1.913  14.306
34790W        W 3019  19.702   0.414  13.716
34791W        W 3020  23.780  33.128   0.008
34792W        W 3021  34.479   1.533  13.001
34793W        W 3022   2.354  25.502  14.749
34794W        W 3023  19.485  36.903   1.326
34795W        W 3024  11.424  12.173   4.080
34796W        W 3025  29.959  21.761  10.615
34797W        W 3026   3.317  21.005  11.320
34798W        W 3027  35.696   2.800   3.856
34799W        W 3028  27.301  22.660  11.623
34800W        W 3029  29.165  44.518  10.979
34801W        W 3030   4.288  42.487  13.161
34802W        W 3031  36.513  22.725  12.028
34803W        W 3032  32.132  29.883   3.840
34804W        W 3033  16.183  37.431  13.447
34805W        W 3034  31.974  36.067  11.423
34806W        W 3035   5.428  28.714  14.267
34807W        W 3036  10.153  22.205  10.567
34808W        W 3037   2.795  34.494  14.761
34809W        W 3038  29.171  12.621  10.635
34810W        W 3039  18.432  32.812   2.390
34811W        W 3040  26.334  24.926   3.516
34812W        W 3041   9.245  42.769  13.457
34813W        W 3042  42.411  26.156  11.646
34814W        W 3043  16.819  23.678   3.669
34815W        W 3044   5.043  33.125  13.790
34816W        W 3045  17.205  29.677  12.093
34817W        W 3046  28.030   8.355   2.724
34818W        W 3047  13.277  23.314   3.757
34819W        W 3048  18.149   9.155  12.979
34820W        W 3049  10.772  15.358   1.649
34821W        W 3050  20.380  42.919   4.065
34822W        W 3051  27.527  41.822  11.000
34823W        W 3052  36.750  28.571   0.689
34824W        W 3053  28.535  15.641  10.268
34825W        W 3054  20.865  30.691  13.811
34826W        W 3055  34.129  34.657   1.340
34827W        W 3056  40.277   5.435   0.351
34828W        W 3057  29.363  34.635  11.469
34829W        W 3058  31.524   4.777  12.197
34830W        W 3059  12.495  10.012   4.840
34831W        W 3060  18.645   9.344   4.707
34832W        W 3061  14.106  12.547   5.389
34833W        W 3062  28.014  31.210   4.529
34834W        W 3063  27.293   2.876  12.444
34835W        W 3064  40.983   5.386  12.454
34836W        W 3065   7.192  37.971  10.522
34837W        W 3066   1.977  44.244   0.378
34838W        W 3067   3.868   5.603  11.854
34839W        W 3068  17.499  34.059   3.124
34840W        W 3069  15.236  17.111   1.625
34841W        W 3070  29.936   6.916   4.830
34842W        W 3071  18.613  13.133  13.578
34843W        W 3072  17.293   4.733  13.251
34844W        W 3073  23.000  43.326  14.000
34845W        W 3074  35.834   7.774  11.979
34846W        W 3075  12.818  34.500  11.467
34847W        W 3076  35.520  25.963   1.313
34848W        W 3077  32.634   7.255   1.246
34849W        W 3078  17.899  30.143  11.825
34850W        W 3079  21.249  44.908   1.536
34851W        W 3080  10.066  34.883   0.867
34852W        W 3081  34.941  22.640  12.206
34853W        W 3082  14.487  10.633   2.811
34854W        W 3083  19.111  39.491  12.027
34855W        W 3084   0.215  23.056   3.356
34856W        W 3085   5.645  39.002  14.851
34857W        W 3086  21.292   9.535  11.631
34858W        W 3087  42.507  17.106   2.756
34859W        W 3088  34.603   8.308  14.249
34860W        W 3089   4.255  33.169  12.432
34861W        W 3090  17.195  25.771   2.061
34862W        W 3091  17.986  16.844  10.606
34863W        W 3092  31.457  28.644  10.380
34864W        W 3093  39.440  36.828   1.255
34865W        W 3094  14.714  21.560  13.013
34866W        W 3095  30.567   4.107  13.366
34867W        W 3096  11.739  15.111   1.222
34868W        W 3097  41.764  19.820  10.245
34869W        W 3098  23.221  38.893   1.289
34870W        W 3099  14.342  16.082   3.776
34871W        W 3100   4.741   4.104   4.626
34872W        W 3101  36.815   6.464   4.113
34873W        W 3102   3.923  20.072  13.990
34874W        W 3103  20.320  44.437   2.131
34875W        W 3104  28.368   3.912  10.861
34876W        W 3105   1.495  23.206   1.365
34877W        W 3106   4.651  41.180  12.483
34878W        W 3107  30.167  24.084  12.169
34879W        W 3108   5.286  13.967  12.699
34880W        W 3109  26.571  43.057  13.811
34881W        W 3110   9.205  34.827   2.160
34882W        W 3111  10.477  13.971  14.236
34883W        W 3112   0.675  33.498  12.593
34884W        W 3113  38.796  14.107  14.378
34885W        W 3114  20.147  30.424  10.518
34886W        W 3115  27.049  18.300  11.534
34887W        W 3116  12.382  43.047   1.267
34888W        W 3117  14.072  28.259  11.012
34889W        W 3118  30.713  20.073   1.431
34890W        W 3119  36.869   8.728  12.004
34891W        W 3120  22.038  29.402  14.422
34892W        W 3121  15.020  25.167  10.275
34893W        W 3122   1.466   9.806  14.761
34894W        W 3123  40.983  23.544  13.738
34895W        W 3124   0.594  31.096  14.859
34896W        W 3125  42.503  14.834   0.919
34897W        W 3126  22.873  35.116   3.178
34898W        W 3127  14.264  38.155   1.435
34899W        W 3128  39.573  33.125   4.204
34900W        W 3129   9.585  15.270  14.327
34901W        W 3130   1.959  16.462  13.543
34902W        W 3131   5.718  25.950  14.344
34903W        W 3132   2.926  27.049  13.948
34904W        W 3133  13.660  16.680   2.043
34905W        W 3134  32.093  26.142   0.663
34906W        W 3135  17.013  19.194   9.789
34907W        W 3136  31.724  20.185   3.561
34908W        W 3137  23.148  16.000   1.609
34909W        W 3138  10.353  25.750  12.571
34910W        W 3139  19.000   5.831   3.800
34911W        W 3140   2.096  26.936   0.072
34912W        W 3141  21.720  37.931  13.312
34913W        W 3142   9.160  29.008   2.019
34914W        W 3143  36.808   2.539   2.200
34915W        W 3144  23.386  24.192   4.070
34916W        W 3145  30.230   4.050  11.210
34917W        W 3146  16.805   6.246  13.057
34918W        W 3147  34.625   7.315   1.228
34919W        W 3148  42.288  15.761   2.706
34920W        W 3149  39.785  14.426  12.973
34921W        W 3150  36.484  19.470  11.971
34922W        W 3151  25.562   3.328  10.327
34923W        W 3152   7.452   0.512   4.245
34924W        W 3153  43.787   3.373  10.275
34925W        W 3154  13.116  34.032  12.563
34926W        W 3155  17.495  25.928  11.209
34927W        W 3156   3.931  33.863   3.665
34928W        W 3157  33.558  15.722  10.689
34929W        W 3158  14.631   0.714  11.590
34930W        W 3159  37.108  36.046   2.754
34931W        W 3160   5.448  19.163  12.159
34932W        W 3161  15.685  14.955   4.144
34933W        W 3162  39.417  43.095   0.403
34934W        W 3163  13.265  27.543   1.975
34935W        W 3164  26.748  13.173  12.813
34936W        W 3165   5.699  12.516   1.305
34937W        W 3166  17.682  26.383  11.380
34938W        W 3167  13.839  42.559   4.558
34939W        W 3168  18.239  13.243   3.881
34940W        W 3169  12.626   2.514   4.296
34941W        W 3170  21.644   5.264   2.384
34942W        W 3171  35.963  15.886  14.737
34943W        W 3172  35.911  26.702  11.885
34944W        W 3173   2.155  14.959   3.225
34945W        W 3174  29.920   7.586   2.271
34946W        W 3175  21.961   1.704   2.322
34947W        W 3176  41.825   8.296  11.661
34948W        W 3177  39.330  44.317  12.024
34949W        W 3178  43.722  19.079  12.238
34950W        W 3179  20.749  34.564   3.796
34951W        W 3180   2.211  12.750   2.413
34952W        W 3181  38.257  16.753  12.537
34953W        W 3182  27.507  32.743  10.212
34954W        W 3183  10.397   5.824  13.101
34955W        W 3184  17.609  27.376  11.746
34956W        W 3185  44.462  23.504   3.375
34957W        W 3186  15.623  29.627  11.079
34958W        W 3187  18.782   4.438   2.454
34959W        W 3188   9.899   5.787  12.961
34960W        W 3189  17.206  12.049  11.072
34961W        W 3190  25.208  24.918   4.699
34962W        W 3191  18.265  40.869  11.111
34963W        W 3192  30.198  24.666  12.674
34964W        W 3193  40.942  26.136  13.000
34965W        W 3194  21.758   2.931  14.800
34966W        W 3195  12.363   6.391  12.127
34967W        W 3196  24.076  36.803   0.844
34968W        W 3197  26.041   3.715  10.652
34969W        W 3198  35.434   2.247   2.161
34970W        W 3199  33.381  19.226  13.905
34971W        W 3200  26.058  13.053   1.200
34972W        W 3201  42.943  28.435  11.528
34973W        W 3202  29.476  28.551   4.474
34974W        W 3203  10.424  23.196  12.296
34975W        W 3204  41.542  26.492   2.879
34976W        W 3205  12.294  21.679   3.890
34977W        W 3206   5.384   1.785   0.236
34978W        W 3207  43.085   6.505  11.970
34979W        W 3208  22.697  18.708   3.395
34980W        W 3209  35.887  29.166   0.850
34981W        W 3210   7.369  42.399  12.437
34982W        W 3211  41.801  26.218   1.620
34983W        W 3212   8.062  19.335   0.228
34984W        W 3213   6.483  21.241   2.880
34985W        W 3214   1.051  13.634  14.535
34986W        W 3215  22.537   7.567   3.318
34987W        W 3216  35.366  31.834  12.785
34988W        W 3217  37.672  38.695   3.149
34989W        W 3218  41.216  32.882  13.787
34990W        W 3219  33.937  16.249   3.255
34991W        W 3220   4.006  12.750  14.094
34992W        W 3221  30.297  43.262   4.826
34993W        W 3222  40.375  16.807   0.467
34994W        W 3223  16.964   1.001  11.660
34995W        W 3224  16.717  16.056  13.761
34996W        W 3225   6.363  23.152  10.426
34997W        W 3226   1.877  37.167   2.335
34998W        W 3227   1.887  12.385   2.202
34999W        W 3228  38.523   8.406  11.622
35000W        W 3229  31.037  42.367   2.889
35001W        W 3230   6.325  15.366  12.055
35002W        W 3231  41.035   3.455   4.382
35003W        W 3232  39.819  22.696   4.574
35004W        W 3233   6.844  13.615  11.543
35005W        W 3234  13.834  42.207   0.754
35006W        W 3235  17.222   5.269   4.280
35007W        W 3236  40.060  14.096   1.058
35008W        W 3237  21.026   1.816   0.384
35009W        W 3238  43.700  35.438  13.903
35010W        W 3239  18.478  11.964   0.301
35011W        W 3240  18.851  22.399   4.591
35012W        W 3241  38.374  22.148  10.618
35013W        W 3242  41.094  39.885  10.320
35014W        W 3243  17.834  20.084  13.503
35015W        W 3244  41.445  34.138   0.302
35016W        W 3245  37.543  14.684   4.523
35017W        W 3246  20.817  38.942  13.624
35018W        W 3247  13.086   3.425   1.747
35019W        W 3248  41.366  11.183   0.383
35020W        W 3249  36.600  19.597   3.354
35021W        W 3250  32.668  40.394   0.453
35022W        W 3251  26.482  37.623  12.006
35023W        W 3252  40.475   4.123  13.765
35024W        W 3253   7.695  26.502  12.123
35025W        W 3254  39.373  28.184  10.799
35026W        W 3255  25.071  33.593   3.113
35027W        W 3256  41.861  34.467  13.254
35028W        W 3257  38.488  28.440   4.543
35029W        W 3258  37.103  42.802  12.256
35030W        W 3259  12.728  42.190   4.344
35031W        W 3260  27.400   1.407  11.220
35032W        W 3261   3.337  14.819   0.649
35033W        W 3262  43.803  32.103  11.162
35034W        W 3263  40.294   6.272   3.124
35035W        W 3264   7.817  30.446  12.370
35036W        W 3265   1.926  38.662   3.315
35037W        W 3266  27.585   7.940  13.363
35038W        W 3267  29.489   5.015   0.260
35039W        W 3268   9.483  12.804  12.316
35040W        W 3269  40.471  21.036  11.721
35041W        W 3270  24.209   0.225  13.684
35042W        W 3271  41.403   0.338   1.223
35043W        W 3272  31.462  38.685   2.247
35044W        W 3273   7.267   9.791  13.427
35045W        W 3274  23.925  26.101   0.078
35046W        W 3275  41.010  17.254   1.742
35047W        W 3276   9.875  26.945   1.826
35048W        W 3277  34.613   6.644   2.400
35049W        W 3278  12.328  36.849  13.426
35050W        W 3279  35.137   5.816  14.465
35051W        W 3280  17.626  34.562   3.169
35052W        W 3281   9.650  37.538   2.912
35053W        W 3282  14.391  18.650   1.183
35054W        W 3283  16.896  13.825   1.358
35055W        W 3284   9.593  44.709   4.194
35056W        W 3285  41.159  23.040   3.810
35057W        W 3286   7.721  40.517   3.811
35058W        W 3287  22.719  10.991  14.386
35059W        W 3288   2.825   2.836   1.734
35060W        W 3289   7.466  33.025  13.009
35061W        W 3290   2.457  25.522   2.424
35062W        W 3291  42.516  44.921  11.463
35063W        W 3292  10.757  36.895  11.128
35064W        W 3293   2.911  34.135   4.495
35065W        W 3294  35.253   9.487   0.222
35066W        W 3295  42.063  20.836   3.249
35067W        W 3296   6.643  27.985   0.264
35068W        W 3297  43.160  30.305  13.777
35069W        W 3298   7.603  22.665   0.486
35070W        W 3299  23.372  25.925   3.138
35071W        W 3300  11.826  41.160  14.222
35072W        W 3301  26.456  21.789  11.586
35073W        W 3302  24.626  44.293   3.836
35074W        W 3303  18.330  30.087  13.945
35075W        W 3304  25.407  36.680   3.554
35076W        W 3305  30.597  43.962   3.257
35077W        W 3306  39.214  31.212   5.025
35078W        W 3307   3.808   3.300   4.057
35079W        W 3308  16.640  23.408   4.089
35080W        W 3309  36.654  43.490   3.759
35081W        W 3310  42.700  18.298   3.244
35082W        W 3311  11.817  24.929   4.196
35083W        W 3312  14.047  20.797   2.380
35084W        W 3313  18.223  28.090  13.765
35085W        W 3314  27.508  31.979  11.555
35086W        W 3315  29.936  39.008  12.125
35087W        W 3316  28.411  14.839  14.832
35088W        W 3317  12.785  30.355   4.439
35089W        W 3318  17.137   7.947  10.670
35090W        W 3319   8.450  44.855  13.305
35091W        W 3320  11.086  37.468   3.282
35092W        W 3321   5.032   8.414  11.556
35093W        W 3322  33.390   5.659  10.590
35094W        W 3323  13.149  23.009   0.884
35095W        W 3324  19.063  42.883  14.859
35096W        W 3325  43.782  37.012  11.567
35097W        W 3326   9.645  12.111  14.454
35098W        W 3327  39.440  40.429   4.744
35099W        W 3328  17.825   0.375   2.881
35100W        W 3329  44.582  28.582  10.780
35101W        W 3330   0.680  10.441  12.974
35102W        W 3331   2.392  11.310  10.433
35103W        W 3332   0.047  26.650  10.104
35104W        W 3333  22.166   8.219   0.678
35105W        W 3334  37.001  18.097  11.488
35106W        W 3335  16.844  39.960  14.982
35107W        W 3336  27.974   1.517  13.014
35108W        W 3337   3.909  28.140  13.951
35109W        W 3338  22.725  18.018   1.823
35110W        W 3339  31.083   2.466  13.612
35111W        W 3340  43.431  36.945   4.461
35112W        W 3341  21.467  27.073  12.113
35113W        W 3342  41.504   7.309   2.911
35114W        W 3343  43.898  21.581   3.219
35115W        W 3344   7.342  26.227  13.606
35116W        W 3345  10.169   0.727   3.721
35117W        W 3346  37.818  13.415   3.446
35118W        W 3347  19.370  24.278   4.413
35119W        W 3348   6.626  25.212  10.905
35120W        W 3349  37.823  23.235  11.515
35121W        W 3350  34.728   6.601   0.281
35122W        W 3351  42.648  37.468   4.527
35123W        W 3352  30.488   2.672  14.457
35124W        W 3353   8.425   9.269   4.851
35125W        W 3354  28.931  31.019  11.984
35126W        W 3355  34.499  40.897  14.593
35127W        W 3356  40.321  18.321  11.901
35128W        W 3357  36.060  27.154   1.391
35129W        W 3358  25.665  25.923  10.664
35130W        W 3359  10.809  28.329  14.484
35131W        W 3360   9.935  35.093  11.488
35132W        W 3361  23.397   7.799   2.417
35133W        W 3362   5.513   3.731  14.885
35134W        W 3363  31.726  12.881  10.913
35135W        W 3364  43.605   8.443  11.683
35136W        W 3365  17.170   3.505  11.920
35137W        W 3366  12.362  15.311   5.330
35138W        W 3367  19.017   6.399   0.002
35139W        W 3368  11.183  20.143  12.863
35140W        W 3369  26.910   9.221  10.353
35141W        W 3370  26.176  29.018   1.418
35142W        W 3371  13.591  41.451   0.012
35143W        W 3372   9.690  44.264  11.311
35144W        W 3373  33.133  42.313  13.045
35145W        W 3374  11.374   3.757   4.520
35146W        W 3375  28.742  39.403  11.613
35147W        W 3376  33.595  41.574   3.624
35148W        W 3377  10.253  13.241   2.310
35149W        W 3378  20.399  37.464   1.132
35150W        W 3379  28.630  40.343  13.280
35151W        W 3380  18.286  15.223   2.787
35152W        W 3381  15.067  32.640   2.255
35153W        W 3382  10.804   8.704  11.227
35154W        W 3383  35.536  13.443   4.310
35155W        W 3384  25.025  21.019  12.844
35156W        W 3385  11.173  17.250  10.525
35157W        W 3386  24.045  25.258  14.044
35158W        W 3387  37.674  29.530   0.528
35159W        W 3388   2.816  27.592   2.441
35160W        W 3389  17.119  15.222  11.984
35161W        W 3390  40.839  17.522   3.355
35162W        W 3391  36.100   6.735   2.292
35163W        W 3392  35.070  41.478   0.740
35164W        W 3393   3.213  39.089   2.616
35165W        W 3394  34.012   0.964  13.326
35166W        W 3395  35.100   5.547  12.068
35167W        W 3396  26.614   8.986   3.146
35168W        W 3397  18.120   5.880  14.911
35169W        W 3398  44.957  41.303   4.132
35170W        W 3399  12.255  15.608   4.377
35171W        W 3400  24.041  25.695  13.750
35172W        W 3401   7.338  20.493  11.039
35173W        W 3402  29.055  37.243  13.754
35174W        W 3403  19.124  25.422   2.282
35175W        W 3404  13.575  34.879   3.742
35176W        W 3405  24.618   6.786  11.441
35177W        W 3406  15.616  21.500  13.460
35178W        W 3407   0.813  13.089   0.661
35179W        W 3408  31.038  15.569   4.382
35180W        W 3409  29.200  20.448  11.026
35181W        W 3410  27.947  26.385  11.166
35182W        W 3411   8.803  38.292  13.792
35183W        W 3412  42.546  36.906   3.361
35184W        W 3413   6.005  27.657  14.829
35185W        W 3414   2.227  40.826   0.508
35186W        W 3415  33.945  24.513   0.027
35187W        W 3416  40.449  31.636   4.582
35188W        W 3417  31.763  19.531  11.268
35189W        W 3418  17.877  16.195   3.609
35190W        W 3419  20.288  44.545   3.597
35191W        W 3420  20.708  21.629  14.863
35192W        W 3421  25.802  33.907  10.252
35193W        W 3422  23.657  37.763  13.006
35194W        W 3423  29.060  14.610  11.003
35195W        W 3424   2.937  37.265  12.170
35196W        W 3425  19.790  21.565  14.486
35197W        W 3426  39.625  14.930  12.954
35198W        W 3427  31.986   1.688   4.200
35199W        W 3428   5.191   0.990  10.710
35200W        W 3429  23.439   3.690  13.827
35201W        W 3430   5.735  30.066   1.228
35202W        W 3431  44.283  38.624  12.032
35203W        W 3432  17.537  15.301  14.717
35204W        W 3433   9.639   6.149   3.243
35205W        W 3434   9.285  20.057   2.117
35206W        W 3435   0.610  22.502   5.067
35207W        W 3436  39.241   1.778   0.812
35208W        W 3437  15.295   9.875  12.482
35209W        W 3438  15.182  27.289  13.483
35210W        W 3439  38.899  41.052  10.940
35211W        W 3440  38.268  25.923   2.264
35212W        W 3441  33.661  23.302  11.133
35213W        W 3442  20.834   3.271  14.926
35214W        W 3443   3.289  42.921  11.734
35215W        W 3444  10.683  41.880  12.650
35216W        W 3445  41.420   1.200  12.935
35217W        W 3446  33.816  18.393   4.493
35218W        W 3447  28.046  16.344   3.297
35219W        W 3448  35.954  33.420   1.634
35220W        W 3449  13.421  40.952   1.242
35221W        W 3450  12.401  16.469   1.338
35222W        W 3451   5.399  25.029   4.188
35223W        W 3452   7.615  43.777   4.124
35224W        W 3453  34.044  23.048   2.655
35225W        W 3454  14.204  42.483  13.572
35226W        W 3455  32.072  32.151  11.432
35227W        W 3456   9.081  28.786   3.699
35228W        W 3457  29.554  38.459  12.815
35229W        W 3458  18.476  27.939  11.467
35230W        W 3459  20.045  40.348   4.510
35231W        W 3460   7.471  19.278   1.780
35232W        W 3461  24.563  37.489  14.824
35233W        W 3462  25.879  23.306   1.812
35234W        W 3463  32.440  29.674  14.866
35235W        W 3464  33.832  29.983  13.550
35236W        W 3465  31.428   0.769   0.856
35237W        W 3466  13.478   2.877   3.065
35238W        W 3467  42.547  41.729   1.105
35239W        W 3468  42.779  44.817   2.377
35240W        W 3469  31.456  37.876   3.354
35241W        W 3470   6.116  19.351  14.848
35242W        W 3471   3.784   7.480   3.923
35243W        W 3472   1.072   2.287   2.560
35244W        W 3473   9.873  10.661  12.964
35245W        W 3474  40.109  21.307   2.917
35246W        W 3475  11.410  15.808  10.064
35247W        W 3476  39.880  17.079  12.547
35248W        W 3477  24.288  31.426  13.140
35249W        W 3478  12.289  37.315  14.357
35250W        W 3479  42.774   8.293   4.585
35251W        W 3480  20.201  16.275   4.631
35252W        W 3481  16.580  15.189   3.261
35253W        W 3482  26.583  19.738   1.932
35254W        W 3483  27.544  42.924   4.544
35255W        W 3484  40.392  23.030  13.944
35256W        W 3485  33.014  13.081  14.273
35257W        W 3486  16.422  12.351  14.893
35258W        W 3487   5.535  44.418   2.127
35259W        W 3488  21.284  39.436  13.005
35260W        W 3489  13.380  35.563  11.747
35261W        W 3490  30.394  38.587   4.415
35262W        W 3491  36.902  17.741   3.636
35263W        W 3492  41.660  38.884   1.928
35264W        W 3493  19.352  10.683  11.996
35265W        W 3494  30.560  15.118  12.433
35266W        W 3495  15.860  36.927   3.555
35267W        W 3496  25.397   4.274   1.789
35268W        W 3497   5.167   5.711  12.033
35269W        W 3498  16.500  22.554   5.091
35270W        W 3499  44.349  39.879  13.319
35271W        W 3500   5.276  13.672  14.364
35272W        W 3501  16.536   4.952   3.050
35273W        W 3502  15.208  44.355   0.025
35274W        W 3503  18.508  27.945   4.510
35275W        W 3504  38.364  19.237  10.783
35276W        W 3505  12.287   9.661  11.186
35277W        W 3506  35.772   8.437  10.004
35278W        W 3507   5.271  38.597   1.847
35279W        W 3508  26.547  29.205   1.727
35280W        W 3509  20.564  25.092   4.552
35281W        W 3510  22.526   1.322   1.954
35282W        W 3511  37.639  32.977   2.833
35283W        W 3512   3.250  33.174  14.040
35284W        W 3513  33.339  43.005  13.433
35285W        W 3514  26.566   1.539   3.678
35286W        W 3515  24.533   0.177  11.962
35287W        W 3516  42.322   3.944   3.250
35288W        W 3517   0.967  22.435  14.382
35289W        W 3518   8.758  38.218  11.558
35290W        W 3519  36.065   8.725  13.432
35291W        W 3520  42.525  21.499   1.692
35292W        W 3521  32.165   6.292  10.530
35293W        W 3522   9.807  26.715   4.110
35294W        W 3523  13.207  14.766  11.592
35295W        W 3524   6.831  17.753  11.993
35296W        W 3525  10.432   5.603   2.912
35297W        W 3526  11.293  27.043   1.344
35298W        W 3527  19.050  25.842   4.023
35299W        W 3528  40.271  13.511   2.857
35300W        W 3529  41.505  24.618  13.546
35301W        W 3530  30.721   6.449   3.715
35302W        W 3531  14.182   7.173   4.668
35303W        W 3532  41.452  43.067   0.400
35304W        W 3533  26.405  18.180  14.323
35305W        W 3534  32.205  29.013  12.025
35306W        W 3535   0.424   3.643   1.722
35307W        W 3536  43.704  34.052  14.962
35308W        W 3537  18.685  25.738  10.768
35309W        W 3538   4.827  40.368   5.045
35310W        W 3539  21.718   5.887  14.616
35311W        W 3540  34.088  16.221  13.799
35312W        W 3541  34.278  17.289   2.841
35313W        W 3542  32.290  38.339   4.130
35314W        W 3543  25.620  13.690  13.438
35315W        W 3544   2.437  25.490   4.109
35316W        W 3545   2.975   0.488   4.131
35317W        W 3546   3.712  28.990  13.947
35318W        W 3547  23.191  34.947  11.436
35319W        W 3548   7.730  16.329   1.934
35320W        W 3549  26.267   3.403   1.940
35321W        W 3550  37.515  33.817  11.528
35322W        W 3551  34.518  33.920   2.191
35323W        W 3552  25.466   1.182   0.311
35324W        W 3553   4.033  21.047  10.387
35325W        W 3554  18.938   8.440   4.414
35326W        W 3555  34.450  14.084  13.526
35327W        W 3556  15.389  28.961  12.758
35328W        W 3557   4.017   3.721  13.551
35329W        W 3558  18.816  40.269   2.330
35330W        W 3559  20.775  21.462   3.631
35331W        W 3560   1.994  17.231   1.634
35332W        W 3561  13.156  34.928  12.587
35333W        W 3562  28.456  38.922  14.295
35334W        W 3563  24.600   9.913   1.749
35335W        W 3564   8.190  31.022  10.881
35336W        W 3565  35.701   6.697  12.457
35337W        W 3566   8.697  20.541  11.469
35338W        W 3567  10.720  42.618  13.808
35339W        W 3568  17.125  23.044  13.161
35340W        W 3569  19.063  35.326   1.688
35341W        W 3570   5.783  13.214   4.553
35342W        W 3571  18.553  10.320  12.108
35343W        W 3572  30.692  29.251   3.122
35344W        W 3573  37.333  44.979  12.633
35345W        W 3574  40.288  39.903   4.164
35346W        W 3575  10.832  19.004   0.823
35347W        W 3576  24.611   6.204  14.539
35348W        W 3577  40.456  29.184  14.355
35349W        W 3578   2.749  10.363  14.423
35350W        W 3579  41.800  28.574  14.822
35351W        W 3580   8.607   4.421  11.192
35352W        W 3581  25.531  37.780   1.295
35353W        W 3582  44.819   5.676   3.772
35354W        W 3583  34.024  33.121  10.443
35355W        W 3584  10.770  33.880  11.462
35356W        W 3585  41.505  13.123  11.513
35357W        W 3586  42.396  25.961  10.602
35358W        W 3587   5.654  16.591  14.989
35359W        W 3588  37.484  19.978  13.424
35360W        W 3589  24.700  22.588   0.447
35361W        W 3590  30.788   3.797   1.463
35362W        W 3591  29.539  23.261   3.246
35363W        W 3592   5.343   2.019  13.668
35364W        W 3593   0.993  13.604   3.203
35365W        W 3594  24.584   6.007  12.053
35366W        W 3595  18.624   3.200   2.703
35367W        W 3596   7.515   7.411  12.081
35368W        W 3597   3.042  20.793   3.024
35369W        W 3598  39.256  28.411   1.188
35370W        W 3599  28.964   0.967   1.746
35371W        W 3600  21.671  18.673  13.874
35372W        W 3601  37.770  22.501   1.332
35373W        W 3602  31.133  24.524  11.521
35374W        W 3603  16.259  40.351  12.410
35375W        W 3604   7.549  33.382   2.845
35376W        W 3605  16.689  11.016  14.201
35377W        W 3606  33.149  37.536   3.276
35378W        W 3607  13.210  26.915   3.782
35379W        W 3608  13.334  13.550  13.468
35380W        W 3609  35.539   9.917   0.157
35381W        W 3610  37.102  28.948   2.847
35382W        W 3611  36.786   6.143   1.406
35383W        W 3612  31.787   3.215  13.350
35384W        W 3613  38.290   0.880   0.480
35385W        W 3614  31.324  18.255  13.507
35386W        W 3615   1.905   6.677  10.448
35387W        W 3616   8.334  44.812   3.705
35388W        W 3617  17.650  25.014   2.401
35389W        W 3618  17.308  14.408   4.168
35390W        W 3619  19.808  33.499   3.944
35391W        W 3620  16.571  25.979   3.737
35392W        W 3621  22.731   7.736   4.614
35393W        W 3622  27.768  43.784   1.385
35394W        W 3623  27.231  27.425  13.878
35395W        W 3624  40.983  19.236   2.262
35396W        W 3625   1.778  28.453   4.510
35397W        W 3626  38.451  24.206   0.756
35398W        W 3627  33.423  11.831   4.043
35399W        W 3628  40.960  30.158   3.285
35400W        W 3629  24.859  11.370  10.613
35401W        W 3630  30.571  29.472  14.403
35402W        W 3631  40.446  23.162  13.051
35403W        W 3632  13.763  10.724  10.485
35404W        W 3633  15.867   8.245  11.218
35405W        W 3634  37.389  18.615  12.356
35406W        W 3635  18.084   9.611   3.312
35407W        W 3636  40.406  38.950  12.490
35408W        W 3637   2.408   0.432  12.775
35409W        W 3638  11.833  36.428  11.693
35410W        W 3639  31.521  18.067  11.888
35411W        W 3640  18.180  25.718   1.975
35412W        W 3641   1.801   9.770   3.123
35413W        W 3642  20.632  30.648  12.542
35414W        W 3643  27.753  32.016   4.277
35415W        W 3644   2.488  11.337   2.775
35416W        W 3645   7.794  37.621   0.240
35417W        W 3646  31.167  43.037   4.485
35418W        W 3647  36.054   2.022   1.653
35419W        W 3648  24.239  28.732   4.641
35420W        W 3649  38.876  33.406  10.289
35421W        W 3650  13.298  27.573   0.464
35422W        W 3651  35.975  41.388  14.481
35423W        W 3652  11.225  23.134   1.746
35424W        W 3653  38.870  35.525   0.767
35425W        W 3654  36.573   8.273  11.912
35426W        W 3655  32.049   5.109   4.072
35427W        W 3656  20.303   2.631   1.686
35428W        W 3657  26.130  14.834   3.121
35429W        W 3658  38.415   3.576  10.796
35430W        W 3659  29.547  29.261  14.995
35431W        W 3660  24.075   6.919   4.583
35432W        W 3661   4.733   0.209  13.326
35433W        W 3662  44.912  13.144  14.102
35434W        W 3663  18.722   2.004  11.847
35435W        W 3664  33.666  21.678   4.895
35436W        W 3665  42.881   5.958   2.330
35437W        W 3666  44.574  13.118   2.436
35438W        W 3667  37.493  15.296  13.017
35439W        W 3668   3.923  13.355  13.073
35440W        W 3669  42.512  13.122  10.702
35441W        W 3670  10.343   7.960   1.931
35442W        W 3671  22.789  24.495   3.721
35443W        W 3672  32.510  27.450  13.559
35444W        W 3673  39.345  34.181  12.090
35445W        W 3674  34.542   5.271  13.549
35446W        W 3675   0.759   1.965   4.242
35447W        W 3676  15.796  40.428  10.266
35448W        W 3677  26.614  30.102   2.125
35449W        W 3678  16.867  39.787   3.746
35450W        W 3679  33.143  14.799   3.771
35451W        W 3680   1.691  37.040  11.138
35452W        W 3681  43.994  14.106  10.633
35453W        W 3682  34.542  43.319   4.929
35454W        W 3683  21.326  30.644  12.093
35455W        W 3684  42.830   4.182  14.486
35456W        W 3685  27.183  14.403   4.264
35457W        W 3686   4.407  33.299   2.440
35458W        W 3687  10.486  10.365   0.298
35459W        W 3688  37.908   2.168  10.875
35460W        W 3689  20.088  34.089   0.121
35461W        W 3690  41.656  35.649  11.023
35462W        W 3691  10.913  42.038  11.648
35463W        W 3692  17.023  42.962  12.116
35464W        W 3693   5.884   4.091  14.902
35465W        W 3694  13.347  21.634  12.080
35466W        W 3695  20.534  41.328  11.151
35467W        W 3696   3.642  26.864   0.391
35468W        W 3697  18.595  27.082   2.654
35469W        W 3698  18.172   2.027   2.869
35470W        W 3699  22.282   0.547   0.272
35471W        W 3700  29.593  19.429  10.678
35472W        W 3701  24.530   7.951  11.977
35473W        W 3702  12.654  27.160   3.734
35474W        W 3703  25.360  27.166  13.878
35475W        W 3704  44.351  37.241   1.683
35476W        W 3705  35.741  38.035  13.546
35477W        W 3706  26.461  39.874   1.947
35478W        W 3707  30.944  33.030   1.397
35479W        W 3708  29.958  34.400  12.814
35480W        W 3709   3.247  31.162  13.596
35481W        W 3710  28.147  31.392  14.193
35482W        W 3711  36.170  43.294   0.358
35483W        W 3712  42.306  25.016  12.983
35484W        W 3713  42.781  31.625   4.408
35485W        W 3714  13.201  20.233   4.667
35486W        W 3715  16.694  30.987  10.703
35487W        W 3716  20.555   3.384   1.801
35488W        W 3717  18.296  12.356   1.659
35489W        W 3718  24.438  19.307   0.897
35490W        W 3719  36.023  30.570   0.079
35491W        W 3720   8.283  28.780  14.683
35492W        W 3721  34.730  30.427   4.092
35493W        W 3722  36.306  25.540   3.417
35494W        W 3723  16.695   0.033   2.284
35495W        W 3724  32.321  12.912  11.387
35496W        W 3725  35.938  40.365   3.308
35497W        W 3726  39.568  29.597  14.324
35498W        W 3727  16.334  11.538   2.177
35499W        W 3728   0.933  38.584  12.823
35500W        W 3729  40.054  36.430   4.838
35501W        W 3730  25.867  13.605   3.744
35502W        W 3731  11.650  20.133  12.624
35503W        W 3732  19.668  44.258   2.694
35504W        W 3733   6.990  22.802  11.244
35505W        W 3734   0.992  41.837   3.265
35506W        W 3735  11.769   2.432  12.532
35507W        W 3736  16.779  26.624  12.321
35508W        W 3737  43.819   2.336   1.362
35509W        W 3738   6.832  40.809  11.719
35510W        W 3739   5.170   1.859   0.707
35511W        W 3740  43.885   0.215  14.743
35512W        W 3741  27.395  19.623  11.511
35513W        W 3742  30.154  13.668   1.842
35514W        W 3743   3.505  17.325   4.267
35515W        W 3744  44.520   2.872   1.422
35516W        W 3745  25.204   7.818   2.286
35517W        W 3746  23.974   3.963   2.359
35518W        W 3747  38.384   2.460  13.987
35519W        W 3748  20.467  40.462   0.212
35520W        W 3749  19.965   8.364   4.517
35521W        W 3750   7.950   7.148  12.070
35522W        W 3751   1.171  15.814   0.882
35523W        W 3752  29.618  10.568   3.654
35524W        W 3753   1.218  18.515   3.793
35525W        W 3754  18.581  29.531   4.191
35526W        W 3755  38.289  41.981  14.767
35527W        W 3756  43.069  27.716   3.212
35528W        W 3757  18.146  27.366   2.754
35529W        W 3758  20.662   4.955  13.550
35530W        W 3759   0.699  21.610   4.776
35531W        W 3760   4.965  29.652  11.627
35532W        W 3761  16.171  13.996   0.271
35533W        W 3762   8.986  21.655  11.117
35534W        W 3763  35.324  37.944   1.612
35535W        W 3764  44.320  38.659  11.132
35536W        W 3765   5.059  21.115  12.797
35537W        W 3766   2.297  41.227   2.326
35538W        W 3767   3.449  15.565   1.824
35539W        W 3768  21.710   1.992   2.701
35540W        W 3769  29.504  42.368  14.937
35541W        W 3770  18.788  40.871  11.133
35542W        W 3771  34.952   5.884  13.089
35543W        W 3772  26.027  19.744  13.570
35544W        W 3773  37.922  42.322  13.383
35545W        W 3774  11.346   3.918  11.197
35546W        W 3775  14.621   5.312   1.766
35547W        W 3776  11.873  20.774  14.026
35548W        W 3777  44.919  18.196  13.502
35549W        W 3778  30.127  32.507   1.048
35550W        W 3779  40.955  12.615  11.637
35551W        W 3780  37.281  13.791  13.572
35552W        W 3781   7.870  20.878  11.364
35553W        W 3782  38.765  25.127   4.542
35554W        W 3783  33.053  18.173   1.893
35555W        W 3784  37.591   6.892   4.007
35556W        W 3785  10.151  15.944   3.194
35557W        W 3786  25.324  36.545  10.489
35558W        W 3787  31.493  15.037   1.663
35559W        W 3788   3.520  29.496  14.942
35560W        W 3789   7.637  15.239  11.903
35561W        W 3790   0.866  21.244  13.555
35562W        W 3791  29.012  10.425  12.402
35563W        W 3792   2.300   3.153   3.716
35564W        W 3793  19.228   9.100  14.326
35565W        W 3794   9.218  30.295   3.669
35566W        W 3795  31.142   7.882   0.451
35567W        W 3796   9.214  10.449   3.365
35568W        W 3797  29.120  29.383   4.591
35569W        W 3798  38.358  16.783   2.947
35570W        W 3799  11.775  19.036   3.369
35571W        W 3800  24.594   5.855   0.921
35572W        W 3801  27.191  21.191  10.898
35573W        W 3802   0.607   5.861  12.819
35574W        W 3803  11.296  41.044   0.681
35575W        W 3804  21.070  15.765   1.335
35576W        W 3805  16.660  23.137  12.995
35577W        W 3806  14.961   9.358   0.212
35578W        W 3807  12.253  27.704  12.943
35579W        W 3808  23.799  18.242   1.860
35580W        W 3809  28.542  22.807   4.240
35581W        W 3810  44.224   2.859  11.652
35582W        W 3811  40.041   2.186   0.782
35583W        W 3812   8.161  28.693   1.168
35584W        W 3813  16.613  13.271  14.442
35585W        W 3814  24.908  30.954  14.053
35586W        W 3815   8.772  28.211  12.122
35587W        W 3816  17.463  28.136  10.683
35588W        W 3817  10.843  22.862  14.398
35589W        W 3818  33.109  14.875   4.754
35590W        W 3819  19.575  40.908  12.482
35591W        W 3820  10.764  17.280  12.830
35592W        W 3821  40.204  35.386  12.070
35593W        W 3822  23.129   6.490  14.752
35594W        W 3823  33.100  32.170  11.547
35595W        W 3824  24.629   6.177  14.015
35596W        W 3825  31.050  22.008  10.677
35597W        W 3826   7.624  27.193   0.112
35598W        W 3827   1.501  14.081  13.967
35599W        W 3828  43.318   9.420   4.204
35600W        W 3829  11.542  40.346  11.875
35601W        W 3830  35.998   8.477  11.017
35602W        W 3831   8.292  22.981   3.865
35603W        W 3832   0.849  38.038  14.789
35604W        W 3833   0.409  11.127   1.018
35605W        W 3834  40.845   8.290   5.701
35606W        W 3835   0.406  14.677   0.994
35607W        W 3836  28.222   3.797  13.157
35608W        W 3837   4.524  36.578   1.249
35609W        W 3838  21.009  12.586  10.947
35610W        W 3839  36.331  34.324  10.289
35611W        W 3840  22.607  15.759  10.785
35612W        W 3841  14.149  27.721  12.039
35613W        W 3842  22.240  30.622  13.689
35614W        W 3843  25.440   4.919  13.909
35615W        W 3844  21.807   9.697  11.484
35616W        W 3845  22.262  14.441   2.678
35617W        W 3846  12.291   4.475  10.709
35618W        W 3847  15.304  28.047  11.592
35619W        W 3848  43.700  25.531   4.071
35620W        W 3849  37.275  40.252  14.249
35621W        W 3850  20.260   1.025  11.462
35622W        W 3851   6.821  19.685   2.582
35623W        W 3852  16.823  15.311  10.280
35624W        W 3853  23.827   1.851   3.338
35625W        W 3854   3.055  20.632  14.461
35626W        W 3855  25.920   4.322   1.812
35627W        W 3856  44.821   4.423   1.976
35628W        W 3857  18.678  14.898  13.961
35629W        W 3858   0.983  39.359   1.770
35630W        W 3859  43.074  42.406   0.898
35631W        W 3860  25.242  35.481  14.770
35632W        W 3861  38.070  27.685   9.861
35633W        W 3862  44.535  32.596  14.278
35634W        W 3863  36.357  14.138  12.117
35635W        W 3864   0.448  34.449   4.918
35636W        W 3865  22.663  13.748   0.012
35637W        W 3866  42.806  13.635  12.395
35638W        W 3867   1.211  42.503   0.559
35639W        W 3868   1.108  15.280   4.996
35640W        W 3869  27.934  18.556   4.474
35641W        W 3870  22.119  26.496  12.904
35642W        W 3871  29.015   7.305   0.961
35643W        W 3872  12.629  36.474  14.424
35644W        W 3873  37.489  21.231  12.124
35645W        W 3874   6.923  26.215   3.551
35646W        W 3875  14.051  10.348   1.252
35647W        W 3876  37.382   2.643   1.363
35648W        W 3877  37.567   5.739   2.723
35649W        W 3878   7.581  28.020  10.707
35650W        W 3879  23.861   6.374   4.100
35651W        W 3880  15.808   1.597   2.658
35652W        W 3881  10.339  17.749   4.758
35653W        W 3882  38.875  43.730   3.053
35654W        W 3883   4.405  14.110  12.172
35655W        W 3884   2.090  18.541  14.269
35656W        W 3885  41.377  28.566  13.385
35657W        W 3886  35.389   9.396  14.730
35658W        W 3887  40.951  14.898  14.092
35659W        W 3888  22.647  32.605  10.759
35660W        W 3889  25.444  23.329  11.046
35661W        W 3890  42.939  16.697   1.334
35662W        W 3891  28.250   5.224   1.536
35663W        W 3892  41.444  21.198  12.807
35664W        W 3893  40.664  12.844   0.756
35665W        W 3894  26.509  27.929  11.551
35666W        W 3895  29.735  42.748   0.774
35667W        W 3896  35.075   2.203  12.051
35668W        W 3897   4.743  24.507  14.839
35669W        W 3898  44.410  30.218   3.200
35670W        W 3899   0.736  31.986  10.240
35671W        W 3900  44.404   9.563  12.973
35672W        W 3901  32.056  29.979   3.348
35673W        W 3902  40.258   6.554  14.375
35674W        W 3903  26.467  28.180  13.072
35675W        W 3904  12.007  16.134   1.119
35676W        W 3905  39.120  41.739  12.936
35677W        W 3906  19.482  19.696  14.879
35678W        W 3907  20.100  12.158  14.002
35679W        W 3908  37.022  11.211   2.819
35680W        W 3909  25.058  26.420  13.494
35681W        W 3910  28.065  37.313  12.803
35682W        W 3911  32.808  40.150   3.356
35683W        W 3912   3.263  31.119   4.500
35684W        W 3913  31.001   9.733  11.506
35685W        W 3914  10.629  27.120   0.524
35686W        W 3915  39.092  10.162  11.580
35687W        W 3916   4.262  30.871  12.121
35688W        W 3917  40.427  44.119  14.510
35689W        W 3918  23.333  29.934   4.627
35690W        W 3919  17.137  19.691  12.971
35691W        W 3920  19.058  25.050  14.517
35692W        W 3921  17.978  39.449   3.319
35693W        W 3922   6.959  40.597   3.372
35694W        W 3923   3.263  36.453   2.156
35695W        W 3924  28.891  25.094  12.947
35696W        W 3925  31.346  18.105  12.381
35697W        W 3926  20.330  30.015  13.843
35698W        W 3927  44.345  29.595   3.657
35699W        W 3928  14.803  20.328   3.277
35700W        W 3929  16.400  19.265  14.896
35701W        W 3930  22.191  29.723   4.395
35702W        W 3931  24.828  39.378  13.914
35703W        W 3932  11.329  19.221   0.848
35704W        W 3933  44.931  22.770   1.652
35705W        W 3934  33.765   8.356  13.330
35706W        W 3935   1.738   7.220  12.866
35707W        W 3936   6.739  30.181   2.816
35708W        W 3937  35.575  38.892   4.279
35709W        W 3938  41.270  28.655  14.880
35710W        W 3939   9.468  27.120  14.494
35711W        W 3940  40.825   6.247   1.534
35712W        W 3941   9.290  43.533   0.727
35713W        W 3942   4.179  20.528   0.852
35714W        W 3943  26.134  44.104  11.130
35715W        W 3944  34.753  16.290   2.886
35716W        W 3945  21.216  10.472   0.230
35717W        W 3946  39.932  42.003   1.566
35718W        W 3947  32.845  16.144   2.327
35719W        W 3948   5.122  17.112  10.770
35720W        W 3949  14.150  36.384   2.442
35721W        W 3950  44.528  14.148  10.615
35722W        W 3951  11.455  21.287   2.273
35723W        W 3952  37.342   2.517   3.903
35724W        W 3953  14.664   4.752  14.478
35725W        W 3954  25.323  32.010   1.412
35726W        W 3955  16.024  18.357   2.730
35727W        W 3956  25.271   5.641   1.705
35728W        W 3957  18.205   6.240  12.971
35729W        W 3958  32.605  39.664   3.249
35730W        W 3959  42.727  42.868   4.151
35731W        W 3960  41.957  11.995   1.383
35732W        W 3961  18.811   1.493   4.902
35733W        W 3962   0.403  27.088   0.226
35734W        W 3963  31.500  12.571   3.153
35735W        W 3964  30.851  23.451   2.378
35736W        W 3965  43.531   4.221  11.247
35737W        W 3966   9.766  25.902  13.963
35738W        W 3967  30.997  21.321   3.664
35739W        W 3968  43.386   8.989  10.866
35740W        W 3969  17.840   5.910  13.529
35741W        W 3970  17.076   5.415   1.531
35742W        W 3971  37.885   7.287   3.263
35743W        W 3972  18.212  21.202  13.546
35744W        W 3973  25.712  16.585  14.472
35745W        W 3974  33.620  21.636   0.827
35746W        W 3975  30.976  33.416   2.752
35747W        W 3976  20.129  22.647   0.728
35748W        W 3977  16.182  36.482  11.989
35749W        W 3978  24.411  42.776  11.632
35750W        W 3979  22.556  26.506  12.502
35751W        W 3980   7.287  43.988   3.685
35752W        W 3981  27.002  40.253  13.872
35753W        W 3982  44.919   0.469   2.714
35754W        W 3983   3.866  19.849   1.704
35755W        W 3984  43.019  11.206  11.657
35756W        W 3985  10.916   3.936   1.443
35757W        W 3986  23.595  19.343  11.669
35758W        W 3987  19.475  38.245  14.064
35759W        W 3988   4.859   8.770  10.255
35760W        W 3989  27.738  34.827   4.944
35761W        W 3990  12.281  22.232   2.859
35762W        W 3991  30.474  37.009   3.363
35763W        W 3992  24.883  15.799   4.849
35764W        W 3993  44.056  41.428  14.131
35765W        W 3994  14.554  14.835   5.004
35766W        W 3995  17.569  15.328   3.143
35767W        W 3996  28.335  34.048  11.923
35768W        W 3997   9.828  43.422   2.118
35769W        W 3998   0.449  41.107   1.851
35770W        W 3999  33.818   7.951   2.791
35771W        W 4000  25.596  17.356   3.086
35772W        W 4001   9.221  36.297   4.016
35773W        W 4002  39.902  32.110  10.215
35774W        W 4003  38.326  17.307   2.147
35775W        W 4004  33.051  22.664   2.917
35776W        W 4005  27.451  19.351  12.456
35777W        W 4006  25.142  19.530   2.318
35778W        W 4007  42.596  15.378  12.519
35779W        W 4008  38.465  13.629  11.183
35780W        W 4009   1.763  20.583  14.985
35781W        W 4010  25.791  41.757   1.772
35782W        W 4011  42.033  37.601  13.195
35783W        W 4012  16.353  23.609   0.807
35784W        W 4013  17.334  34.649   2.710
35785W        W 4014  20.222  38.908   3.353
35786W        W 4015   6.873  39.297  13.936
35787W        W 4016  38.420  44.705   4.633
35788W        W 4017   3.485  11.306   1.408
35789W        W 4018   3.436   0.203   4.090
35790W        W 4019  35.170  25.483   1.613
35791W        W 4020  23.050   3.225   1.873
35792W        W 4021  18.940  10.086   1.373
35793W        W 4022  22.588  15.809  12.911
35794W        W 4023  25.580   9.057   2.739
35795W        W 4024  25.023  26.931   3.137
35796W        W 4025  35.444   5.713   3.076
35797W        W 4026  36.906   7.867   2.105
35798W        W 4027  13.887  33.620  13.428
35799W        W 4028  28.761  19.092  11.537
35800W        W 4029  16.575  33.094  13.064
35801W        W 4030  22.569  42.159   3.833
35802W        W 4031   0.173  24.057   3.221
35803W        W 4032  33.122  25.759   4.131
35804W        W 4033  27.611   8.778   4.297
35805W        W 4034  23.310   5.982  13.969
35806W        W 4035   9.796  41.767   2.159
35807W        W 4036  24.886  37.443  10.457
35808W        W 4037  40.887  18.031  11.932
35809W        W 4038  20.160   7.891   1.768
35810W        W 4039   6.410  20.055  11.179
35811W        W 4040  39.746  25.609  11.553
35812W        W 4041  26.158  23.033   2.155
35813W        W 4042  39.850   0.301  13.140
35814W        W 4043   6.924   6.266  12.952
35815W        W 4044  30.993   1.576   3.738
35816W        W 4045  30.468  32.323  11.061
35817W        W 4046   3.493  41.008   2.850
35818W        W 4047   0.081  20.610  11.213
35819W        W 4048  42.223  39.897  14.891
35820W        W 4049  31.087  28.481   2.887
35821W        W 4050  35.871  28.643   4.652
35822W        W 4051   6.294  19.503  13.903
35823W        W 4052   0.551  16.255  12.920
35824W        W 4053  31.075  41.841  14.387
35825W        W 4054  24.278  25.653   2.878
35826W        W 4055  34.024  27.664   0.867
35827W        W 4056  35.037  41.010  10.502
35828W        W 4057   0.449  26.471   2.858
35829W        W 4058  44.802  34.360   2.595
35830W        W 4059  27.384   5.274   3.247
35831W        W 4060  35.478   7.351   0.197
35832W        W 4061  33.309  20.629  12.570
35833W        W 4062  15.643  29.162   2.752
35834W        W 4063  28.976  17.392   3.190
35835W        W 4064  25.685  43.454  11.704
35836W        W 4065  32.913   8.117  13.948
35837W        W 4066   7.845  40.579  11.518
35838W        W 4067  12.893   7.104   1.302
35839W        W 4068  34.535  21.332   1.861
35840W        W 4069   9.119  11.986   9.955
35841W        W 4070   7.700  21.770   2.277
35842W        W 4071   2.903  19.257   0.407
35843W        W 4072  34.439  17.774   2.663
35844W        W 4073  29.081  41.852   0.451
35845W        W 4074   5.471  21.692   3.412
35846W        W 4075  18.747  14.680   1.130
35847W        W 4076  40.079  22.168   0.454
35848W        W 4077  13.669  44.036   3.264
35849W        W 4078  18.311   4.326   0.948
35850W        W 4079  35.545  44.206   3.141
35851W        W 4080   0.912  21.609   1.856
35852W        W 4081  35.143   3.726  14.515
35853W        W 4082  12.079  27.649   2.423
35854W        W 4083  38.349   9.159  12.492
35855W        W 4084  13.960  35.415   1.137
35856W        W 4085  35.683  37.575   3.326
35857W        W 4086   2.028  23.115  13.951
35858W        W 4087  21.256  19.756  12.862
35859W        W 4088  17.150   3.302   3.915
35860W        W 4089  42.590   7.277  11.552
35861W        W 4090  11.309  24.778  11.840
35862W        W 4091  24.722  20.312   2.294
35863W        W 4092   2.890   0.471   3.102
35864W        W 4093  38.610   8.673  13.403
35865W        W 4094  34.573  25.375  12.578
35866W        W 4095  24.977  28.894  13.932
35867W        W 4096  26.644  24.036  14.913
35868W        W 4097  16.154  10.761  11.996
35869W        W 4098  36.085  24.629   0.865
35870W        W 4099  20.292  29.477  13.801
35871W        W 4100  33.719  22.157  10.588
35872W        W 4101  21.581  19.440   0.485
35873W        W 4102  42.402  37.588  10.739
35874W        W 4103  12.745  41.727  12.928
35875W        W 4104   9.713  12.069   0.395
35876W        W 4105  10.326   6.616  13.550
35877W        W 4106  32.997  27.918  12.012
35878W        W 4107  40.776  13.902  14.052
35879W        W 4108  41.031   8.735   2.179
35880W        W 4109  41.975  22.922   0.414
35881W        W 4110  42.119  15.337   1.475
35882W        W 4111  39.285  15.723  11.647
35883W        W 4112  43.917  33.227   4.701
35884W        W 4113  30.968  16.957   0.885
35885W        W 4114   6.611  12.572   9.959
35886W        W 4115   3.969  26.989   1.814
35887W        W 4116  35.433   6.271  11.860
35888W        W 4117  40.756  27.033  12.864
35889W        W 4118   6.923  17.241   1.629
35890W        W 4119  24.956  32.409  10.991
35891W        W 4120  12.337  19.563   2.267
35892W        W 4121  38.290  17.341   0.434
35893W        W 4122  24.978  18.649  12.142
35894W        W 4123  41.864  19.227  10.324
35895W        W 4124  15.251  11.728   1.470
35896W        W 4125  19.205  14.752   0.881
35897W        W 4126  14.270  33.638  10.946
35898W        W 4127  40.227  21.984   0.908
35899W        W 4128  38.597  40.910   3.161
35900W        W 4129  10.194  27.931   1.251
35901W        W 4130  22.678   2.771   3.349
35902W        W 4131  11.819  44.985   2.317
35903W        W 4132  25.540  13.932  12.071
35904W        W 4133  26.414  34.061  14.362
35905W        W 4134   6.533   0.815  12.158
35906W        W 4135  15.702  12.622   2.283
35907W        W 4136  43.112  14.449  12.983
35908W        W 4137  19.213  10.561   1.324
35909W        W 4138  39.390  24.260  13.090
35910W        W 4139  20.300  34.672  14.023
35911W        W 4140  20.853  27.505  10.680
35912W        W 4141  11.484  26.700  14.031
35913W        W 4142   9.391  38.551   4.354
35914W        W 4143  21.308  38.828   4.223
35915W        W 4144  20.529   2.666   4.488
35916W        W 4145  31.524  44.875  10.346
35917W        W 4146  37.054   0.868   2.722
35918W        W 4147  28.650  37.596  11.132
35919W        W 4148  19.773  40.801   1.802
35920W        W 4149  30.512   0.957   0.018
35921W        W 4150  33.484  17.069  12.151
35922W        W 4151  15.056  25.272   4.340
35923W        W 4152  25.941  38.464   0.347
35924W        W 4153  10.828  30.021  11.395
35925W        W 4154  24.727   1.868  11.294
35926W        W 4155  19.796  15.872  11.091
35927W        W 4156  14.211  38.742   3.043
35928W        W 4157  15.102   5.790  13.640
35929W        W 4158  37.306   9.384  14.944
35930W        W 4159  13.197  43.557   2.222
35931W        W 4160  18.033  36.996  14.519
35932W        W 4161  34.523  38.742   1.701
35933W        W 4162  19.616  26.568   1.425
35934W        W 4163   6.843  19.548  13.278
35935W        W 4164  38.095  29.069   2.804
35936W        W 4165  23.130  36.121  13.624
35937W        W 4166  44.403   1.899  10.742
35938W        W 4167  37.139   3.361  12.083
35939W        W 4168  38.140   2.322  12.948
35940W        W 4169  16.720   3.426   4.167
35941W        W 4170  38.794  42.438   4.364
35942W        W 4171  28.557  10.444  12.053
35943W        W 4172  41.835  11.230  13.037
35944W        W 4173  20.477  30.697  13.402
35945W        W 4174  43.742  34.289  11.843
35946W        W 4175   0.800  20.647  11.917
35947W        W 4176  27.296  24.182   1.674
35948W        W 4177  41.305  21.693   2.355
35949W        W 4178  10.202  24.603   4.523
35950W        W 4179  10.199  42.941  13.816
35951W        W 4180  15.144   6.209   1.808
35952W        W 4181  27.848  42.280   2.159
35953W        W 4182  38.983   6.965  13.769
35954W        W 4183  20.756   8.916   3.431
35955W        W 4184  24.105  29.041  11.341
35956W        W 4185  36.944  42.816  10.954
35957W        W 4186  13.334   1.346   4.943
35958W        W 4187  40.031  13.335   2.192
35959W        W 4188  33.321  28.032  11.629
35960W        W 4189  10.795  21.749   1.383
35961W        W 4190  39.394  42.383   1.653
35962W        W 4191  34.264  35.614  11.070
35963W        W 4192   3.604  31.373  14.514
35964W        W 4193  14.173  15.617   0.388
35965W        W 4194  35.806  26.982  14.105
35966W        W 4195  31.151  13.689  14.968
35967W        W 4196  40.344  21.741   2.735
35968W        W 4197  44.583  26.479   2.429
35969W        W 4198  11.364  34.967  12.880
35970W        W 4199  15.041  24.778   4.161
35971W        W 4200  38.594  29.907   1.835
35972W        W 4201  16.185  26.665   0.357
35973W        W 4202  14.666   0.550  12.538
35974W        W 4203  23.441  36.884   0.469
35975W        W 4204  33.035   8.412   4.087
35976W        W 4205   3.737  16.140  10.811
35977W        W 4206  32.063  24.983  10.762
35978W        W 4207  40.710   2.426   1.217
35979W        W 4208  17.046  33.946   4.520
35980W        W 4209  44.994  39.847   0.498
35981W        W 4210  41.712  27.635  11.549
35982W        W 4211  28.612  14.847  10.808
35983W        W 4212  18.804   8.616  12.554
35984W        W 4213  30.352  28.010  13.345
35985W        W 4214  12.694  26.212  11.375
35986W        W 4215  24.610  10.264  13.867
35987W        W 4216   0.014  14.098   0.827
35988W        W 4217  23.684  28.831   3.711
35989W        W 4218  26.147  29.654   4.426
35990W        W 4219  40.267   4.408  12.457
35991W        W 4220  29.533  18.802  13.367
35992W        W 4221  19.626  12.140  13.386
35993W        W 4222  28.548  20.776  12.868
35994W        W 4223  42.994  31.231  10.896
35995W        W 4224  10.041  17.326   0.307
35996W        W 4225   9.846   1.594   0.740
35997W        W 4226  25.941   7.754   0.470
35998W        W 4227  18.255  12.265  12.203
35999W        W 4228  10.588  38.356  13.882
36000W        W 4229  42.973  30.193   3.340
36001W        W 4230  31.744  11.916   1.848
36002W        W 4231  39.559  43.440   0.030
36003W        W 4232  32.061  35.023   3.598
36004W        W 4233   5.966  27.375   3.245
36005W        W 4234  44.246  20.739   1.870
36006W        W 4235   6.404  12.309  11.964
36007W        W 4236  41.941  41.799  11.583
36008W        W 4237  37.060  11.682   2.608
36009W        W 4238   2.827  33.454   2.801
36010W        W 4239  18.107  40.894   0.418
36011W        W 4240  36.334  35.643   1.943
36012W        W 4241  26.076  24.578  12.077
36013W        W 4242  26.992  41.352  14.412
36014W        W 4243   9.944  23.046   1.279
36015W        W 4244  38.247  13.241   3.261
36016W        W 4245   7.393  17.549   2.476
36017W        W 4246  35.984  33.542  11.237
36018W        W 4247  10.236  30.863   0.405
36019W        W 4248  29.107   7.836  13.635
36020W        W 4249  35.677   3.908   0.767
36021W        W 4250  36.402  41.276  11.443
36022W        W 4251   8.230  34.347  12.098
36023W        W 4252  15.273  30.998  14.390
36024W        W 4253  36.155   4.707   2.392
36025W        W 4254   9.270  42.392   4.148
36026W        W 4255  11.720  21.913  12.044
36027W        W 4256  13.593   1.350   3.626
36028W        W 4257  39.841  41.532  11.184
36029W        W 4258  24.622  42.881  14.953
36030W        W 4259  19.742  34.099   2.757
36031W        W 4260  35.682  23.284  11.139
36032W        W 4261  16.735  29.019  10.571
36033W        W 4262  11.262   2.184   0.656
36034W        W 4263  22.745  35.704   1.353
36035W        W 4264  12.138  17.629   0.583
36036W        W 4265  35.179  20.781   3.478
36037W        W 4266  26.670   9.867  12.875
36038W        W 4267  24.225  17.076   4.154
36039W        W 4268   1.899  24.504  11.509
36040W        W 4269  24.695  30.613   1.196
36041W        W 4270  19.464  34.029  12.238
36042W        W 4271  37.129  38.490  13.587
36043W        W 4272  32.796  12.029  11.585
36044W        W 4273  32.963  32.717  11.162
36045W        W 4274  29.507   8.548   3.832
36046W        W 4275  12.178  36.991   2.800
36047W        W 4276  11.948  35.558   1.550
36048W        W 4277  20.095  16.124   0.439
36049W        W 4278   0.174  29.897   1.146
36050W        W 4279  42.651  28.179   2.771
36051W        W 4280  27.174  38.324  10.686
36052W        W 4281  20.798  32.501  12.075
36053W        W 4282  28.051   5.429  12.326
36054W        W 4283  36.497   6.321   3.752
36055W        W 4284   6.476  22.721  11.172
36056W        W 4285  22.959  18.677  14.354
36057W        W 4286  31.976  17.588   2.058
36058W        W 4287  12.311  17.109  11.657
36059W        W 4288  10.099  25.249   3.700
36060W        W 4289  27.881  33.780   4.027
36061W        W 4290  35.971  44.238   4.314
36062W        W 4291   8.645  34.929  11.086
36063W        W 4292  14.813  17.188  13.006
36064W        W 4293  42.222  44.340   1.458
36065W        W 4294   5.829  37.068  14.471
36066W        W 4295  29.290  25.487   1.199
36067W        W 4296  22.543  25.658  12.138
36068W        W 4297  23.966  21.212   3.414
36069W        W 4298  16.723  17.836   3.607
36070W        W 4299  27.311  18.339  11.103
36071W        W 4300   5.724  39.973   2.278
36072W        W 4301   3.794  25.551   1.445
36073W        W 4302  22.171  34.131   2.147
36074W        W 4303   7.501  36.755  11.106
36075W        W 4304   3.401  11.172  14.393
36076W        W 4305  40.120   8.237   2.717
36077W        W 4306  33.670  30.378  13.857
36078W        W 4307   1.419  11.097  13.142
36079W        W 4308  18.123  38.906   3.998
36080W        W 4309  20.543  29.484   2.236
36081W        W 4310  11.775  30.849   1.649
36082W        W 4311   5.367  22.761   0.422
36083W        W 4312  38.193   6.415  13.841
36084W        W 4313  29.213   4.507   0.258
36085W        W 4314   7.426  12.787  11.581
36086W        W 4315   2.453  11.641   0.450
36087W        W 4316  25.898  42.733  11.555
36088W        W 4317   5.522  36.456   4.140
36089W        W 4318   7.852  35.872   4.097
36090W        W 4319   1.957  21.454  12.082
36091W        W 4320   5.300  13.689   0.367
36092W        W 4321  37.791   2.700  10.777
36093W        W 4322  26.023  18.811   1.455
36094W        W 4323   3.721  13.409   4.662
36095W        W 4324  34.909   7.727   9.847
36096W        W 4325  14.971  13.462  11.126
36097W        W 4326  27.681   5.569   3.532
36098W        W 4327  43.700  43.752  13.420
36099W        W 4328  30.605  17.617  12.394
36100W        W 4329   1.363  41.442  11.589
36101W        W 4330  13.048  11.113  14.063
36102W        W 4331  42.332  40.805  11.241
36103W        W 4332  22.605  26.329  13.031
36104W        W 4333  13.684  29.854  11.139
36105W        W 4334  30.104  11.658  10.829
36106W        W 4335  19.327  12.150   4.556
36107W        W 4336  12.884  35.640  14.812
36108W        W 4337  21.694  32.359   4.672
36109W        W 4338   3.446  41.101  11.903
36110W        W 4339  22.799   1.758   1.851
36111W        W 4340  38.831  21.324   4.105
36112W        W 4341  36.120  27.415   4.277
36113W        W 4342  31.583  22.288  11.928
36114W        W 4343  43.155   2.468  14.831
36115W        W 4344   5.326  44.244  12.910
36116W        W 4345  38.018   2.497  12.016
36117W        W 4346   4.397  26.401  13.442
36118W        W 4347  27.917  37.837   0.790
36119W        W 4348  44.225  43.829  13.397
36120W        W 4349  23.166  11.191   1.415
36121W        W 4350  40.455  15.041  14.860
36122W        W 4351  25.130  40.366   0.265
36123W        W 4352  27.653  42.816  11.981
36124W        W 4353   3.706  43.057  13.446
36125W        W 4354  39.215  13.831  12.350
36126W        W 4355  26.938  16.722  11.896
36127W        W 4356  28.079  32.820   0.343
36128W        W 4357  26.444  12.366   3.882
36129W        W 4358   5.209  10.197  11.632
36130W        W 4359   8.662  38.996  14.928
36131W        W 4360  10.377  12.222   4.220
36132W        W 4361  32.397  23.959   1.850
36133W        W 4362  38.634  11.337   0.552
36134W        W 4363  38.813  17.740  13.289
36135W        W 4364  14.448  20.511   2.163
36136W        W 4365   7.621  25.517   2.838
36137W        W 4366  25.489  37.111   2.265
36138W        W 4367  16.650  22.614  12.903
36139W        W 4368  33.345  21.126   0.354
36140W        W 4369  29.605   8.829   2.671
36141W        W 4370  16.600   5.710   0.876
36142W        W 4371  40.479   3.870  14.467
36143W        W 4372  34.079  20.744  10.976
36144W        W 4373  41.248  15.264   3.247
36145W        W 4374  21.681  30.175   4.671
36146W        W 4375   4.183  39.740   3.042
36147W        W 4376  44.872  17.612   0.876
36148W        W 4377  27.020  43.177  11.128
36149W        W 4378  33.400  19.725  14.540
36150W        W 4379  36.578   6.289   1.861
36151W        W 4380  28.139  31.393   3.168
36152W        W 4381  10.685  15.107  12.044
36153W        W 4382  44.281  26.381  11.826
36154W        W 4383  38.104   7.634   2.294
36155W        W 4384  11.048   8.929   5.423
36156W        W 4385  29.621  16.317   5.426
36157W        W 4386  16.405  16.684  13.410
36158W        W 4387   9.282   5.255   0.640
36159W        W 4388  26.552  22.767   4.313
36160W        W 4389  41.350  42.369   5.113
36161W        W 4390  29.424  17.660  14.116
36162W        W 4391  35.763   4.872  10.041
36163W        W 4392  30.178  16.049   2.584
36164W        W 4393  36.587  23.712   4.202
36165W        W 4394  43.483  21.049  11.486
36166W        W 4395  27.678  37.479   3.376
36167W        W 4396   1.540   3.802   2.554
36168W        W 4397   2.844  24.916   1.800
36169W        W 4398  25.291  37.478  14.045
36170W        W 4399  24.594  12.178  14.471
36171W        W 4400   0.389  23.962  10.742
36172W        W 4401   7.116  32.384   2.817
36173W        W 4402  27.027  23.070  14.825
36174W        W 4403  40.320  16.444   3.526
36175W        W 4404  16.105   3.407   0.412
36176W        W 4405  26.467  32.756  14.774
36177W        W 4406  15.151   3.376   0.314
36178W        W 4407  17.773  26.077  14.849
36179W        W 4408  33.901  17.874   3.613
36180W        W 4409   2.576  13.317   3.564
36181W        W 4410  28.066  40.596  10.781
36182W        W 4411  44.259  33.389   1.264
36183W        W 4412  42.437  24.402   2.748
36184W        W 4413  23.375  37.823   1.365
36185W        W 4414  20.475   8.767   0.871
36186W        W 4415  14.587   1.739  12.977
36187W        W 4416   5.248  21.509  10.555
36188W        W 4417  32.687  24.629  12.936
36189W        W 4418  33.509   5.214  11.450
36190W        W 4419  34.439   9.272   4.655
36191W        W 4420  17.858  17.416   0.702
36192W        W 4421  29.937  13.149   1.517
36193W        W 4422  39.091   6.488  11.828
36194W        W 4423  27.506  33.619   9.787
36195W        W 4424  16.939   3.185   3.456
36196W        W 4425  10.216  30.645   0.867
36197W        W 4426  21.379  37.192  11.207
36198W        W 4427   8.307   2.959  12.463
36199W        W 4428  38.031  42.072   1.441
36200W        W 4429  19.020  35.678   3.178
36201W        W 4430   7.563  34.065   1.339
36202W        W 4431  39.845  30.167   3.151
36203W        W 4432  40.407  31.167  10.988
36204W        W 4433  25.783  23.085  11.332
36205W        W 4434   6.435   7.911  14.924
36206W        W 4435  17.593   3.258   2.292
36207W        W 4436  14.684  40.417   0.362
36208W        W 4437  30.664   7.278  12.999
36209W        W 4438  10.840  17.027   9.884
36210W        W 4439  40.550  34.954   2.210
36211W        W 4440  22.622  29.511   4.197
36212W        W 4441   2.102  16.992   4.485
36213W        W 4442   0.446   7.423  14.553
36214W        W 4443  32.193  43.333  13.112
36215W        W 4444  18.279   6.813  12.590
36216W        W 4445   1.741  43.357  12.613
36217W        W 4446   5.067  40.048  13.012
36218W        W 4447  13.771  30.808  12.940
36219W        W 4448  23.205  19.843  11.580
36220W        W 4449  19.276  27.160  13.465
36221W        W 4450   6.209  22.074  11.885
36222W        W 4451  16.826  10.813   2.624
36223W        W 4452  33.892  16.178  14.269
36224W        W 4453  23.657  28.065  13.821
36225W        W 4454   1.720  41.375  12.867
36226W        W 4455  26.730  19.012   3.464
36227W        W 4456   5.254  11.376  13.917
36228W        W 4457  27.685   2.427   2.171
36229W        W 4458  26.539  32.654  14.274
36230W        W 4459  36.408  12.937  13.065
36231W        W 4460   4.241  11.724  14.780
36232W        W 4461  25.058  23.475  10.729
36233W        W 4462  43.030  16.013  13.875
36234W        W 4463  16.853  28.140  13.901
36235W        W 4464  11.615  20.664  14.457
36236W        W 4465  25.805  18.808   3.267
36237W        W 4466  15.701  21.640  11.437
36238W        W 4467  12.435  29.474   1.395
36239W        W 4468   3.866  33.491  14.892
36240W        W 4469   7.318  43.248  11.815
36241W        W 4470   8.455   8.327   3.155
36242W        W 4471   8.969  23.972  12.898
36243W        W 4472  15.351   0.964   2.589
36244W        W 4473  15.408   9.112   1.303
36245W        W 4474  22.432   2.431  10.490
36246W        W 4475  40.131  20.286   2.680
36247W        W 4476   5.277  20.155  14.586
36248W        W 4477   1.562   8.210   1.895
36249W        W 4478  14.336   8.797   1.678
36250W        W 4479  12.448  39.367  11.899
36251W        W 4480  28.651   9.972  11.959
36252W        W 4481   9.181   3.229   4.281
36253W        W 4482  12.672  18.785   1.452
36254W        W 4483  25.430  31.651   1.795
36255W        W 4484  38.722  21.963   2.729
36256W        W 4485  19.597  35.000   3.280
36257W        W 4486  31.941  40.369  12.043
36258W        W 4487   3.437   7.302   0.297
36259W        W 4488  19.043  19.200  11.938
36260W        W 4489  35.933  38.907   3.343
36261W        W 4490  17.172  22.755  13.648
36262W        W 4491   5.748  44.469  10.341
36263W        W 4492  37.367  43.255   2.032
36264W        W 4493  21.683  39.557   2.645
36265W        W 4494  21.143  40.864   2.391
36266W        W 4495   9.428   4.678   2.961
36267W        W 4496  16.289  31.996   4.557
36268W        W 4497  39.385  27.250   1.932
36269W        W 4498  40.594  25.438   0.242
36270W        W 4499  14.798  33.870  12.034
36271W        W 4500  18.017  26.902   3.329
36272W        W 4501  36.994   6.466   0.741
36273W        W 4502  41.343  21.465  13.743
36274W        W 4503  42.797  36.585  14.825
36275W        W 4504  36.118   2.096   3.374
36276W        W 4505   4.729   4.757   1.428
36277W        W 4506  41.689  25.033   1.177
36278W        W 4507  43.353  29.204   4.042
36279W        W 4508   0.432  37.563   1.435
36280W        W 4509  22.114  44.594  11.577
36281W        W 4510  18.399  22.159  11.537
36282W        W 4511  16.501  19.082   3.928
36283W        W 4512  16.574  23.621  13.118
36284W        W 4513  33.992  18.749   1.415
36285W        W 4514  19.147  42.874   3.787
36286W        W 4515  17.162  44.518  13.432
36287W        W 4516  13.183  30.158  14.768
36288W        W 4517  27.827  11.482   3.201
36289W        W 4518  38.414  26.005   2.793
36290W        W 4519  39.827  20.070   3.122
36291W        W 4520  12.080  37.446   0.720
36292W        W 4521  40.135  33.160   1.564
36293W        W 4522   8.356  12.620  10.707
36294W        W 4523  41.980  13.333  13.493
36295W        W 4524   0.892  24.740  10.484
36296W        W 4525  36.399  28.603   3.375
36297W        W 4526  29.171  44.019   3.492
36298W        W 4527   6.612  24.601   0.774
36299W        W 4528  22.014   1.258  13.402
36300W        W 4529  33.009  36.565  11.560
36301W        W 4530   1.868  20.213   4.685
36302W        W 4531  12.710   4.289   0.166
36303W        W 4532  14.312  36.505  14.290
36304W        W 4533  30.858   9.652  13.235
36305W        W 4534  16.321  41.100   4.047
36306W        W 4535   1.008   1.509   2.179
36307W        W 4536   7.941  40.764   0.239
36308W        W 4537   2.415  36.565   4.692
36309W        W 4538  41.686   1.804   0.312
36310W        W 4539  39.314  27.697  11.162
36311W        W 4540   6.866  28.193  12.418
36312W        W 4541  33.876  13.299   4.670
36313W        W 4542   7.300   9.488  11.087
36314W        W 4543  16.032   7.272   4.530
36315W        W 4544  29.615  29.997  11.563
36316W        W 4545  11.234  14.390  10.555
36317W        W 4546  40.383   5.183  12.908
36318W        W 4547   4.412  25.064   4.326
36319W        W 4548  25.350  18.237   4.150
36320W        W 4549  14.090   0.857   0.223
36321W        W 4550  40.096  32.079  11.241
36322W        W 4551  23.654  20.688   4.591
36323W        W 4552  41.700   1.913   1.748
36324W        W 4553  22.615  25.142   1.223
36325W        W 4554  38.630  27.711   4.464
36326W        W 4555   6.662  21.877  12.982
36327W        W 4556  25.466  10.865   1.391
36328W        W 4557  13.356   6.432   1.837
36329W        W 4558  17.565  16.370   2.140
36330W        W 4559  19.701  18.257   3.541
36331W        W 4560   2.365  19.760  14.882
36332W        W 4561  36.470   8.656   2.264
36333W        W 4562  30.308   6.833   4.446
36334W        W 4563  33.384  11.831  12.999
36335W        W 4564  42.951  18.762   3.248
36336W        W 4565  13.468  17.856  14.227
36337W        W 4566  29.461  38.218   1.388
36338W        W 4567  16.435  14.620  12.066
36339W        W 4568   8.538  29.183  14.426
36340W        W 4569   7.896  25.706  13.979
36341W        W 4570  14.183   8.189   1.410
36342W        W 4571  15.335  44.807  12.878
36343W        W 4572  38.259  44.854  12.458
36344W        W 4573  21.098  17.229  11.414
36345W        W 4574   7.679  24.596  12.978
36346W        W 4575  43.313  12.937  13.827
36347W        W 4576   9.809   6.126   2.606
36348W        W 4577  27.882  14.253  12.546
36349W        W 4578  13.564   8.256  13.169
36350W        W 4579   8.272  22.587   4.220
36351W        W 4580   6.827  12.577   3.320
36352W        W 4581  40.262  26.295  12.025
36353W        W 4582  23.801  10.738   0.840
36354W        W 4583  16.164  39.635   3.306
36355W        W 4584  29.651   3.521   3.568
36356W        W 4585  41.450  35.198   1.257
36357W        W 4586  34.588  41.339   0.549
36358W        W 4587  21.497   4.413  11.950
36359W        W 4588  21.473  37.371  12.508
36360W        W 4589  43.695  33.650   3.655
36361W        W 4590  31.345  41.983   4.177
36362W        W 4591  32.256  26.024   4.137
36363W        W 4592  37.722   5.652  11.453
36364W        W 4593  33.346   9.647  12.079
36365W        W 4594  22.946   0.072  11.558
36366W        W 4595   1.334  27.119   3.725
36367W        W 4596   9.319  16.296  11.537
36368W        W 4597  36.794   9.097  13.632
36369W        W 4598  30.843  41.511   3.471
36370W        W 4599  10.941  23.390  14.456
36371W        W 4600  22.326  16.028  11.150
36372W        W 4601  14.319  24.590   0.778
36373W        W 4602   4.162  44.785  12.508
36374W        W 4603  32.082  27.703   4.609
36375W        W 4604  20.566  40.531  13.817
36376W        W 4605  29.809   5.654  12.762
36377W        W 4606   6.007  33.116  11.222
36378W        W 4607  21.326   8.209  11.707
36379W        W 4608  43.628  18.547   1.235
36380W        W 4609  44.029   3.012   0.801
36381W        W 4610  21.078   5.339   1.776
36382W        W 4611  42.283  34.132  13.449
36383W        W 4612  22.191  35.480   4.798
36384W        W 4613  17.101   4.784  14.761
36385W        W 4614   4.966   8.268   0.545
36386W        W 4615   2.198  35.539   1.320
36387W        W 4616   1.581  15.116   4.823
36388W        W 4617  31.874  16.272  12.943
36389W        W 4618  27.220   1.221   2.009
36390W        W 4619  26.133  38.982   1.536
36391W        W 4620  24.095  21.397  11.163
36392W        W 4621  12.340   6.836   2.018
36393W        W 4622  33.991  21.553  13.484
36394W        W 4623   8.235  10.867   0.307
36395W        W 4624  11.836  35.519  10.665
36396W        W 4625  25.186  30.868   4.037
36397W        W 4626  41.057  19.292  11.467
36398W        W 4627  19.104  26.175  10.323
36399W        W 4628  27.596  18.242  11.506
36400W        W 4629  20.966   1.975  14.300
36401W        W 4630  15.563  12.695  14.042
36402W        W 4631   7.637  42.035   1.817
36403W        W 4632  37.347  19.642  13.815
36404W        W 4633  15.846   5.493  13.837
36405W        W 4634  18.308  33.552   2.845
36406W        W 4635  14.679  27.943   4.460
36407W        W 4636  18.536  31.027   2.750
36408W        W 4637  29.078  31.701   4.033
36409W        W 4638  11.260  10.626   2.840
36410W        W 4639  42.965  13.821  14.239
36411W        W 4640  20.638  43.542  12.822
36412W        W 4641  31.050  13.173  14.911
36413W        W 4642   0.272  30.917  12.975
36414W        W 4643   0.170  42.971  10.935
36415W        W 4644  25.878  29.460   4.820
36416W        W 4645  11.835  29.957   4.924
36417W        W 4646   7.739  20.681  11.834
36418W        W 4647  40.288  28.991  12.934
36419W        W 4648  40.102  17.289  13.935
36420W        W 4649  12.065  19.532   1.296
36421W        W 4650  19.782  39.505   4.182
36422W        W 4651  13.800  27.821  11.685
36423W        W 4652  16.623  26.683  10.451
36424W        W 4653   3.304  14.565   4.680
36425W        W 4654   9.189  43.982   0.110
36426W        W 4655   3.528  35.995   2.167
36427W        W 4656   5.415  33.676  14.942
36428W        W 4657  25.163   3.717  14.421
36429W        W 4658  39.224   2.374   1.417
36430W        W 4659  23.780  13.159  10.990
36431W        W 4660  44.286   5.571   2.348
36432W        W 4661  14.950  43.954  14.499
36433W        W 4662  42.574  27.806  13.665
36434W        W 4663  25.577  14.379  10.837
36435W        W 4664   4.305   2.241   4.708
36436W        W 4665  43.864  44.793  12.024
36437W        W 4666  13.851  15.203   1.397
36438W        W 4667  25.666  43.096  14.370
36439W        W 4668  39.788  40.996  14.272
36440W        W 4669  42.493  30.429  14.404
36441W        W 4670  15.624  14.563  13.491
36442W        W 4671  19.568   4.787  12.121
36443W        W 4672  19.564  23.770  12.019
36444W        W 4673  12.547  43.907   2.769
36445W        W 4674  34.758   7.815  13.896
36446W        W 4675   1.892   1.644  10.983
36447W        W 4676   3.710  37.054   4.508
36448W        W 4677  10.687  22.046   0.911
36449W        W 4678   2.869   7.143   4.294
36450W        W 4679  19.030   6.481  14.074
36451W        W 4680  13.571  24.122   0.861
36452W        W 4681  24.182  18.512  11.877
36453W        W 4682   2.422  16.128   4.938
36454W        W 4683  36.680  43.899  11.218
36455W        W 4684  40.440  36.061  13.416
36456W        W 4685  15.214   9.339  10.604
36457W        W 4686  14.098  16.304  10.629
36458W        W 4687  19.799  22.693   3.774
36459W        W 4688   1.446   1.197   3.366
36460W        W 4689  14.562   5.688  12.377
36461W        W 4690  31.877  37.288   0.718
36462W        W 4691  44.863  29.579   3.603
36463W        W 4692  24.721  17.372   4.085
36464W        W 4693  42.875  23.622  13.346
36465W        W 4694  35.499   6.141   0.539
36466W        W 4695  27.897  32.447   3.172
36467W        W 4696  39.775   3.254  13.000
36468W        W 4697  32.326  42.902  13.439
36469W        W 4698   3.641  20.632  11.165
36470W        W 4699  23.800  38.999   1.352
36471W        W 4700   0.282  16.370  11.565
36472W        W 4701   4.999  15.091  14.478
36473W        W 4702  22.225  33.573  12.994
36474W        W 4703  31.883  29.081   1.870
36475W        W 4704   8.879  33.951   2.775
36476W        W 4705  39.898   3.688   2.175
36477W        W 4706  26.529  44.098  14.560
36478W        W 4707   0.055  32.366   1.484
36479W        W 4708  15.804  37.491  13.787
36480W        W 4709  17.882  30.630   5.366
36481W        W 4710   2.772  36.954  12.902
36482W        W 4711   1.136  26.136  14.425
36483W        W 4712  29.696   5.793  12.286
36484W        W 4713   1.289  11.774  10.313
36485W        W 4714   0.054  43.486  11.441
36486W        W 4715  13.200   3.875   2.970
36487W        W 4716  33.047  27.745  12.578
36488W        W 4717   1.584  35.746   2.681
36489W        W 4718  40.974  39.917   3.848
36490W        W 4719  15.062  43.229  12.527
36491W        W 4720  36.522   4.847  13.539
36492W        W 4721  43.835  24.684  11.194
36493W        W 4722  33.357  15.099  14.799
36494W        W 4723  39.384  23.446   3.729
36495W        W 4724  31.113   5.180  12.992
36496W        W 4725  38.816  22.260   3.888
36497W        W 4726  18.000  25.980   1.117
36498W        W 4727  14.588   6.395   0.139
36499W        W 4728   6.683  21.436  13.242
36500W        W 4729  24.566  36.654   1.072
36501W        W 4730  18.295  14.441   1.795
36502W        W 4731   8.572   6.164   4.023
36503W        W 4732   6.293   4.398  13.335
36504W        W 4733  22.325  39.399  10.693
36505W        W 4734  42.462  19.580   2.283
36506W        W 4735   2.837  16.999  14.402
36507W        W 4736  12.354  17.021   5.054
36508W        W 4737   8.294   1.404  12.064
36509W        W 4738  24.673  38.818   4.595
36510W        W 4739  11.858   5.999  10.066
36511W        W 4740  33.459  26.043   3.554
36512W        W 4741  17.185   3.783  13.981
36513W        W 4742   0.571   6.937  10.851
36514W        W 4743  13.348  41.647   3.274
36515W        W 4744  34.067  20.826  12.139
36516W        W 4745  31.238  37.285  12.398
36517W        W 4746  26.195  11.672  11.637
36518W        W 4747  16.386  19.570   3.732
36519W        W 4748  39.597   9.863   2.186
36520W        W 4749  18.678  26.652  14.176
36521W        W 4750  41.250  32.974  14.757
36522W        W 4751  22.041  35.308  13.378
36523W        W 4752  21.561  32.957  11.927
36524W        W 4753   5.212  23.278  11.089
36525W        W 4754   3.830  44.344   0.465
36526W        W 4755  16.120  11.151   2.498
36527W        W 4756  36.434  39.465  14.466
36528W        W 4757  24.717  43.775   4.571
36529W        W 4758  32.558  37.910  13.526
36530W        W 4759   8.594  22.465   0.346
36531W        W 4760  44.939  36.407   4.168
36532W        W 4761  35.318  29.849  12.844
36533W        W 4762  19.284  35.432   3.567
36534W        W 4763   6.150  10.675   1.244
36535W        W 4764  35.423  13.263   2.268
36536W        W 4765   6.192  32.933  12.560
36537W        W 4766   1.150  38.002   3.442
36538W        W 4767   5.489  24.738   2.618
36539W        W 4768  33.062  29.168  13.630
36540W        W 4769  16.146  16.175   3.103
36541W        W 4770   0.179  25.770   3.725
36542W        W 4771  41.760   4.943   1.223
36543W        W 4772  23.483  19.154  13.952
36544W        W 4773  32.926  24.704  13.377
36545W        W 4774  43.494  29.394  10.123
36546W        W 4775  11.785   8.098  12.624
36547W        W 4776   0.471  32.607  13.390
36548W        W 4777   5.212  38.893   4.117
36549W        W 4778  31.470  26.120   1.882
36550W        W 4779  39.459  36.991  14.839
36551W        W 4780  30.122  40.439  12.894
36552W        W 4781  32.176  11.637  11.159
36553W        W 4782  25.749  33.508   0.757
36554W        W 4783  23.788  23.161   2.213
36555W        W 4784  38.977  32.136   9.867
36556W        W 4785  25.671  28.458   4.449
36557W        W 4786  43.343  16.751  12.090
36558W        W 4787  21.167  12.737   0.221
36559W        W 4788  34.411  19.827  12.488
36560W        W 4789  16.243  42.666   2.846
36561W        W 4790   6.360  31.987  10.726
36562W        W 4791  38.606  13.100  10.915
36563W        W 4792  15.203  22.746   3.984
36564W        W 4793  29.768  29.533  12.740
36565W        W 4794  23.635  37.857  14.489
36566W        W 4795  16.992  43.233  12.565
36567W        W 4796  13.393  11.676   4.017
36568W        W 4797  26.541   4.441  10.446
36569W        W 4798   7.455  35.940   0.495
36570W        W 4799   1.970  12.104  12.683
36571W        W 4800  37.531   9.626   0.902
36572W        W 4801   1.527  14.173   4.523
36573W        W 4802  44.189  31.738  11.995
36574W        W 4803  35.104  35.468   4.745
36575W        W 4804  28.150   0.508   1.331
36576W        W 4805  18.592  40.584  14.935
36577W        W 4806  28.924  20.526  10.604
36578W        W 4807  16.187  44.915  11.482
36579W        W 4808  34.151  37.522   3.187
36580W        W 4809  28.482  36.120   0.752
36581W        W 4810  44.278  44.239  13.696
36582W        W 4811  29.481  43.811  14.921
36583W        W 4812  16.348  36.372   3.682
36584W        W 4813  18.683  42.569  14.425
36585W        W 4814  17.304  43.411  10.782
36586W        W 4815   9.075  23.992   5.001
36587W        W 4816  34.323   2.765  11.633
36588W        W 4817  24.720   1.931  10.793
36589W        W 4818   7.197  27.122  11.630
36590W        W 4819  10.545  32.927  13.121
36591W        W 4820  23.985  32.405   0.915
36592W        W 4821  34.379   9.970  13.935
36593W        W 4822   1.278  22.574  13.887
36594W        W 4823  20.773  36.142  10.993
36595W        W 4824  17.863  35.453   2.228
36596W        W 4825  39.296  35.607   1.800
36597W        W 4826   0.351  15.934   0.641
36598W        W 4827  28.063  38.294   2.600
36599W        W 4828  12.491  15.659  13.444
36600W        W 4829  34.389   0.077  14.020
36601W        W 4830  38.989  38.354   4.070
36602W        W 4831  22.103  22.721   2.823
36603W        W 4832  17.244  10.286  12.399
36604W        W 4833   8.723  25.913   2.177
36605W        W 4834  40.267  33.136   3.645
36606W        W 4835  14.386   1.366  11.238
36607W        W 4836   2.482  15.122  12.662
36608W        W 4837  42.429   3.431   3.161
36609W        W 4838  14.718  13.481   4.896
36610W        W 4839  10.384  17.217   0.687
36611W        W 4840  28.399  11.067   1.402
36612W        W 4841  16.519   7.616   0.214
36613W        W 4842  31.603  24.717  11.605
36614W        W 4843  26.543  28.131   4.263
36615W        W 4844  28.962   1.169   2.210
36616W        W 4845  14.619   8.210  11.679
36617W        W 4846  39.907   6.276  12.059
36618W        W 4847  40.748  30.949  14.832
36619W        W 4848  24.683   1.904   3.641
36620W        W 4849  16.322  11.187   0.265
36621W        W 4850  29.861  18.737   4.637
36622W        W 4851  31.575  27.057   2.402
36623W        W 4852  12.047   0.384  11.841
36624W        W 4853  13.825  20.995  14.371
36625W        W 4854   4.983  14.909  12.976
36626W        W 4855  25.260  31.343   3.817
36627W        W 4856  29.004  36.578   2.707
36628W        W 4857  18.376  32.116   4.536
36629W        W 4858  25.153  14.175   0.953
36630W        W 4859   2.127  34.094  11.754
36631W        W 4860  26.892  29.911   4.120
36632W        W 4861  44.382  42.233  12.580
36633W        W 4862  27.029  12.762   0.432
36634W        W 4863  11.087  29.582   4.070
36635W        W 4864  13.889  29.380  12.520
36636W        W 4865   7.762  15.813  13.496
36637W        W 4866   9.897  27.902  10.675
36638W        W 4867  37.384   2.351   1.865
36639W        W 4868  14.302  15.180  12.325
36640W        W 4869  29.400  18.285  12.935
36641W        W 4870  14.814   1.764   4.011
36642W        W 4871  27.920  15.735  12.047
36643W        W 4872  37.952  39.436  10.696
36644W        W 4873  40.058  27.697  14.782
36645W        W 4874  15.180  32.630   3.217
36646W        W 4875  10.214  17.689  11.645
36647W        W 4876  33.952  24.060   2.895
36648W        W 4877  40.891  27.941  11.994
36649W        W 4878   0.351  29.545   2.435
36650W        W 4879   2.901   2.845  12.465
36651W        W 4880  19.618  13.194   3.813
36652W        W 4881  17.877  40.113  11.977
36653W        W 4882  32.456  10.408   0.971
36654W        W 4883  40.438  10.947   4.175
36655W        W 4884  22.404  16.639   3.257
36656W        W 4885   2.479  30.471   2.644
36657W        W 4886  23.813  28.985  14.488
36658W        W 4887  37.533  36.681   0.952
36659W        W 4888  35.532  40.107   0.911
36660W        W 4889  32.059  16.251   0.850
36661W        W 4890  28.479  17.990  12.568
36662W        W 4891  41.849  29.858   1.580
36663W        W 4892   5.714  40.969  14.418
36664W        W 4893  25.315  42.522   2.272
36665W        W 4894  13.579  19.263  11.068
36666W        W 4895  18.407  30.739   3.551
36667W        W 4896  28.240  43.966   2.390
36668W        W 4897  10.194  31.089   9.993
36669W        W 4898  38.400   9.686  12.972
36670W        W 4899   9.068  10.131   4.141
36671W        W 4900  41.448  32.570   1.568
36672W        W 4901  34.637  39.847  13.602
36673W        W 4902  41.573  15.311  11.381
36674W        W 4903  20.774  41.602   2.382
36675W        W 4904  20.065  14.541   0.273
36676W        W 4905   8.563  36.017  14.710
36677W        W 4906  22.229  17.159  12.449
36678W        W 4907  11.671  11.660   0.254
36679W        W 4908  19.152  16.107   0.136
36680W        W 4909  14.086   8.405   0.469
36681W        W 4910  11.118  31.127  14.460
36682W        W 4911  12.726  19.285   1.674
36683W        W 4912  22.975  15.795   4.547
36684W        W 4913  38.274  20.683   1.388
36685W        W 4914  34.350  36.393   4.518
36686W        W 4915  42.517  17.032  11.220
36687W        W 4916  26.271   8.827  11.548
36688W        W 4917  36.585  21.248  14.766
36689W        W 4918  29.503   2.405  14.818
36690W        W 4919   0.519  32.168   1.077
36691W        W 4920   8.891  12.136   2.732
36692W        W 4921   5.317  31.005   0.225
36693W        W 4922   9.835  13.327  13.906
36694W        W 4923  21.467  30.416   0.923
36695W        W 4924  30.839  16.766   0.421
36696W        W 4925   7.660   3.251   4.394
36697W        W 4926  16.248  36.692   3.295
36698W        W 4927   4.016   3.428   3.429
36699W        W 4928  30.983  30.400   0.312
36700W        W 4929  11.183  37.009  11.423
36701W        W 4930  33.606  39.094   3.124
36702W        W 4931   4.980  17.182   4.279
36703W        W 4932   6.354  37.694   2.847
36704W        W 4933  24.869  35.406   2.592
36705W        W 4934   2.734  28.654   3.143
36706W        W 4935  35.904   1.640   3.484
36707W        W 4936  26.151   5.686  13.846
36708W        W 4937  10.892  26.509  11.943
36709W        W 4938  19.111  41.802  12.130
36710W        W 4939  38.961   1.834   3.994
36711W        W 4940   4.362  19.116  14.719
36712W        W 4941  12.182  43.036   0.368
36713W        W 4942  30.397  19.836  12.825
36714W        W 4943  29.987   4.859   0.755
36715W        W 4944   3.781   0.588   4.133
36716W        W 4945  10.202  32.648  11.094
36717W        W 4946  12.641   3.197   1.865
36718W        W 4947  40.440  32.400  14.726
36719W        W 4948  16.233  27.631   0.443
36720W        W 4949  43.830  40.563   1.053
36721W        W 4950   6.219  32.690  11.564
36722W        W 4951  35.913   5.252   4.635
36723W        W 4952  11.721  15.210  11.514
36724W        W 4953  11.447  38.503  12.518
36725W        W 4954  15.724  12.001  14.495
36726W        W 4955  19.886  40.977  14.780
36727W        W 4956   4.830  40.782   1.320
36728W        W 4957   9.661  16.232   3.213
36729W        W 4958   9.171  33.549  14.740
36730W        W 4959  35.883  38.864  13.903
36731W        W 4960  37.035  28.408   3.263
36732W        W 4961  42.656   8.671   2.818
36733W        W 4962  25.480  22.012  13.931
36734W        W 4963   3.343  11.156   4.203
36735W        W 4964  13.818  15.266   2.334
36736W        W 4965  28.889  27.438   3.783
36737W        W 4966   2.936  23.525  10.615
36738W        W 4967   9.752  40.966  12.383
36739W        W 4968  18.542  39.313   4.671
36740W        W 4969  23.165   3.892   4.922
36741W        W 4970   2.342  44.411   2.203
36742W        W 4971  28.631  37.889  12.150
36743W        W 4972  39.566  36.381  14.326
36744W        W 4973  29.778  23.070   0.845
36745W        W 4974  19.175  14.026  10.924
36746W        W 4975   0.330  24.507  13.396
36747W        W 4976  38.798  20.106   3.191
36748W        W 4977  22.275  27.443   3.235
36749W        W 4978  38.286  10.106   0.699
36750W        W 4979  34.783  15.190  11.179
36751W        W 4980  35.490  34.203  14.910
36752W        W 4981  41.509   5.345  13.311
36753W        W 4982  41.970   2.872   1.124
36754W        W 4983  11.849  20.620  14.918
36755W        W 4984  34.079   8.935  12.140
36756W        W 4985   6.397   9.546  12.028
36757W        W 4986   7.705  30.829   1.879
36758W        W 4987  10.357  35.069  13.267
36759W        W 4988  27.390  22.459   2.823
36760W        W 4989   3.450  14.649  14.753
36761W        W 4990  27.672  27.194   3.218
36762W        W 4991  33.540   3.038   3.732
36763W        W 4992   6.349  39.410   0.248
36764W        W 4993   1.013   7.198  10.979
36765W        W 4994  11.125   2.339  13.754
36766W        W 4995   2.917   9.598  12.181
36767W        W 4996  27.776  38.992   2.849
36768W        W 4997  11.010  16.737  10.392
36769W        W 4998   8.703  44.465   2.313
36770W        W 4999  15.927  10.507  10.126
36771W        W 5000  40.017  32.806  11.455
36772W        W 5001  37.762  41.374   4.500
36773W        W 5002   9.704  11.588   1.951
36774W        W 5003  28.015  24.124   9.973
36775W        W 5004  32.895  27.884  11.394
36776W        W 5005  28.922   7.423   2.265
36777W        W 5006  14.577  29.204   0.401
36778W        W 5007   8.143  16.696  13.409
36779W        W 5008   4.955  35.363  10.734
36780W        W 5009  20.518  18.082   1.652
36781W        W 5010  24.457  25.439   3.753
36782W        W 5011  10.666  41.983  12.127
36783W        W 5012  25.972   1.857   2.715
36784W        W 5013  43.832   8.898   3.734
36785W        W 5014  10.312  38.393   4.039
36786W        W 5015  43.391  36.964   2.277
36787W        W 5016  29.447   5.827   3.652
36788W        W 5017  43.250   0.923   1.286
36789W        W 5018  14.967  18.055   3.655
36790W        W 5019  15.139  12.697   2.342
36791W        W 5020   1.364  43.934  11.034
36792W        W 5021  26.514  27.965  12.561
36793W        W 5022  16.272  24.221  12.483
36794W        W 5023  29.392  16.625  11.515
36795W        W 5024  24.666  14.180  10.728
36796W        W 5025  22.950  42.394  10.617
36797W        W 5026  25.126  14.589   0.344
36798W        W 5027  28.528  40.306   0.074
36799W        W 5028  15.203   3.494  12.814
36800W        W 5029  43.365  32.416   3.932
36801W        W 5030   9.783  30.761   3.084
36802W        W 5031  16.586  30.197   2.935
36803W        W 5032  31.813  29.456  13.973
36804W        W 5033   2.599  37.815   2.393
36805W        W 5034   9.822  22.490  11.460
36806W        W 5035  28.058  11.842   4.712
36807W        W 5036  12.886  21.311  12.401
36808W        W 5037   0.973  26.568   3.040
36809W        W 5038   8.437  23.863  11.457
36810W        W 5039  18.882   6.875  14.862
36811W        W 5040  13.619   8.147   0.433
36812W        W 5041  32.919  19.146  10.735
36813W        W 5042  32.638  10.570  12.934
36814W        W 5043  35.477  24.168  10.929
36815W        W 5044  21.585  13.023  13.072
36816W        W 5045  19.214  34.634   3.250
36817W        W 5046  44.986   8.046  11.605
36818W        W 5047  28.705  36.910   1.346
36819W        W 5048  21.254  41.623   3.244
36820W        W 5049  36.113  31.876  12.456
36821W        W 5050  26.912   6.888  12.959
36822W        W 5051  19.188  23.247   1.001
36823W        W 5052  21.088   0.350  13.958
36824W        W 5053  38.078  35.486  14.221
36825W        W 5054  15.916  36.400  11.065
36826W        W 5055  37.584  13.880   1.934
36827W        W 5056  34.687  14.348   1.171
36828W        W 5057  41.197  12.834  11.106
36829W        W 5058  17.118  18.609  13.075
36830W        W 5059   4.180  32.041  11.113
36831W        W 5060  37.477   1.757  12.137
36832W        W 5061  25.265  43.399   2.768
36833W        W 5062   7.737  19.060   4.125
36834W        W 5063  29.760  24.060  11.501
36835W        W 5064  26.786  13.041  11.953
36836W        W 5065  18.690  16.954   0.446
36837W        W 5066   6.782  33.327   1.337
36838W        W 5067  29.118  16.599  12.858
36839W        W 5068  12.071  15.835  12.777
36840W        W 5069   8.966  42.311  13.533
36841W        W 5070  18.292  23.527   5.037
36842W        W 5071  11.472  19.891   3.947
36843W        W 5072  24.159   5.795   2.622
36844W        W 5073  16.842  15.567   4.091
36845W        W 5074  16.569  42.216  14.389
36846W        W 5075  16.341  25.791   0.801
36847W        W 5076  31.035  27.603  13.282
36848W        W 5077  15.158  10.735   0.435
36849W        W 5078  12.346  27.038   4.808
36850W        W 5079  36.567   0.650  12.815
36851W        W 5080  36.314  42.807   1.329
36852W        W 5081  11.797   9.764   3.171
36853W        W 5082  39.441  29.581   1.883
36854W        W 5083  23.791  18.009   0.988
36855W        W 5084  42.820  29.518  12.441
36856W        W 5085  34.073   9.597  11.127
36857W        W 5086  43.498  13.316   4.786
36858W        W 5087  31.906  15.647  10.251
36859W        W 5088  20.180  19.696  11.082
36860W        W 5089  41.111  32.666  11.980
36861W        W 5090  18.932  16.763  13.914
36862W        W 5091  44.800  43.060  11.311
36863W        W 5092  30.183  40.272   1.210
36864W        W 5093  16.931  41.743  10.510
36865W        W 5094  27.551   1.352  13.279
36866W        W 5095   5.244  20.757   3.726
36867W        W 5096   2.226  17.254  12.012
36868W        W 5097   3.909  44.762  12.956
36869W        W 5098  35.375  18.604  10.451
36870W        W 5099  35.955  13.175  13.093
36871W        W 5100  31.876   9.316  13.507
36872W        W 5101   9.352  28.952  13.543
36873W        W 5102  10.858  14.739  10.694
36874W        W 5103  32.057  34.504   9.822
36875W        W 5104  36.957  15.873  13.595
36876W        W 5105   4.474   4.663  14.863
36877W        W 5106  33.567  41.469   5.024
36878W        W 5107  20.689  22.964   1.757
36879W        W 5108  40.709  30.937  13.090
36880W        W 5109  40.292  18.637   4.683
36881W        W 5110   6.788  22.342   2.314
36882W        W 5111   4.684  31.578  13.187
36883W        W 5112  31.814  43.413   0.527
36884W        W 5113  27.400  43.394   1.652
36885W        W 5114  32.340  41.585   1.807
36886W        W 5115  44.904   2.920   4.620
36887W        W 5116  31.675  26.057  13.416
36888W        W 5117  37.052   4.938   3.733
36889W        W 5118  37.344  15.647   1.188
36890W        W 5119  20.671  22.680  10.922
36891W        W 5120  18.780  17.671   2.203
36892W        W 5121   7.840   4.624   4.238
36893W        W 5122  25.713  31.508   3.640
36894W        W 5123  20.677  31.387  14.385
36895W        W 5124   2.377  40.496   3.747
36896W        W 5125  25.460   6.282   2.878
36897W        W 5126  20.659   5.636   1.755
36898W        W 5127  41.220  32.400  14.065
36899W        W 5128  29.068  23.119   1.748
36900W        W 5129  38.105  28.142   1.121
36901W        W 5130  34.000  19.466   4.656
36902W        W 5131  26.881   0.843  14.313
36903W        W 5132  12.343   6.358  11.627
36904W        W 5133  38.035  14.573   2.861
36905W        W 5134  35.998  23.207  12.465
36906W        W 5135   1.474  26.272   1.261
36907W        W 5136  44.266  29.959  13.544
36908W        W 5137  32.211  20.925  14.446
36909W        W 5138  24.588  33.049  11.992
36910W        W 5139  27.539  36.846   2.272
36911W        W 5140  26.243  24.060   3.086
36912W        W 5141  27.963   0.234   0.368
36913W        W 5142  40.341  38.894  11.561
36914W        W 5143  18.049   2.315   4.688
36915W        W 5144  22.613   7.322   2.383
36916W        W 5145  11.175  44.315   3.766
36917W        W 5146  24.774  33.534  12.061
36918W        W 5147   7.834  12.339   3.152
36919W        W 5148   6.263  44.524   1.663
36920W        W 5149  10.235  41.407   3.771
36921W        W 5150  32.188  19.121   0.917
36922W        W 5151  24.005  12.933  14.312
36923W        W 5152   6.909   9.635  11.898
36924W        W 5153  16.723  38.816  11.187
36925W        W 5154  16.202  31.571  12.399
36926W        W 5155  41.501  35.055  13.884
36927W        W 5156  11.825   6.439  10.380
36928W        W 5157  40.081  40.911   0.206
36929W        W 5158  25.432  28.076  12.898
36930W        W 5159  26.699  41.919  12.920
36931W        W 5160   2.851   0.269   1.724
36932W        W 5161  11.043  10.883  13.595
36933W        W 5162  36.485  36.917   3.084
36934W        W 5163  29.976  36.040  12.525
36935W        W 5164   3.137  18.299  14.930
36936W        W 5165   1.003   6.715   3.632
36937W        W 5166  25.136   9.601   2.875
36938W        W 5167   1.540  32.138   4.123
36939W        W 5168  29.664  17.164   0.794
36940W        W 5169  37.478  27.391  12.145
36941W        W 5170  41.410  31.286  10.101
36942W        W 5171  44.919   8.373   2.817
36943W        W 5172  10.895  13.111   2.331
36944W        W 5173  34.449  39.865  11.096
36945W        W 5174  38.795  13.317   4.564
36946W        W 5175  27.098   7.684   4.658
36947W        W 5176  26.409  34.437  14.968
36948W        W 5177  44.517  37.016  12.054
36949W        W 5178  23.997  30.756   2.390
36950W        W 5179  22.081  13.592  13.560
36951W        W 5180  36.159   1.585  10.176
36952W        W 5181  39.618   3.581  11.029
36953W        W 5182  26.432   3.756   3.666
36954W        W 5183   4.301  31.752  12.871
36955W        W 5184  26.214  22.425   4.563
36956W        W 5185   4.915  40.525   3.675
36957W        W 5186   1.627   9.374   4.582
36958W        W 5187  26.959  25.988   3.549
36959W        W 5188  17.563  20.732  14.872
36960W        W 5189  29.105  29.158   1.405
36961W        W 5190  34.693  44.108   4.543
36962W        W 5191   2.463  15.573   3.766
36963W        W 5192  22.980  24.176  10.707
36964W        W 5193  39.970  37.614   5.026
36965W        W 5194  36.027  23.906   2.746
36966W        W 5195   2.903  10.738  11.122
36967W        W 5196  38.843  22.680   3.580
36968W        W 5197  41.355  16.431   0.264
36969W        W 5198  30.438  13.692  13.354
36970W        W 5199  32.678  27.686   1.796
36971W        W 5200  26.906  15.277  10.407
36972W        W 5201  33.208  36.836   4.586
36973W        W 5202  22.562  29.002   1.371
36974W        W 5203  32.594  30.043   0.474
36975W        W 5204  35.557  18.312   0.844
36976W        W 5205  25.897   2.379  11.988
36977W        W 5206  21.088  36.777  12.883
36978W        W 5207  21.018  32.358  11.629
36979W        W 5208  14.294  31.647   1.880
36980W        W 5209  11.194  34.657  11.230
36981W        W 5210  18.015   7.331  10.635
36982W        W 5211  20.353  43.878  10.468
36983W        W 5212  43.845  30.643  11.012
36984W        W 5213  12.146  20.514   1.463
36985W        W 5214  11.901  13.687   2.854
36986W        W 5215  11.154  35.875   1.775
36987W        W 5216  21.003  43.995  14.859
36988W        W 5217  17.823  14.084   1.577
36989W        W 5218   0.706  15.635   9.940
36990W        W 5219  22.562   8.503  11.012
36991W        W 5220  26.030  38.834  14.038
36992W        W 5221  12.633  42.968  13.345
36993W        W 5222  12.334  15.442   2.781
36994W        W 5223  29.907   8.319  13.891
36995W        W 5224  31.349  19.833  11.157
36996W        W 5225  42.404  26.159   3.617
36997W        W 5226  25.891   0.946   2.114
36998W        W 5227  12.211  22.084  12.081
36999W        W 5228  22.545  20.151   3.121
37000W        W 5229   6.867  15.885   2.251
37001W        W 5230  43.700   8.230   2.296
37002W        W 5231   9.723  20.267   2.336
37003W        W 5232  32.821  14.572   5.071
37004W        W 5233  23.470  25.510   0.789
37005W        W 5234  21.091  41.299   4.194
37006W        W 5235   4.731  10.939  13.332
37007W        W 5236  32.699  40.478  13.083
37008W        W 5237  32.432   4.421  10.809
37009W        W 5238  30.164  11.082  11.997
37010W        W 5239  10.426   2.684   2.272
37011W        W 5240  38.556  26.981   1.747
37012W        W 5241   5.099  16.333  10.445
37013W        W 5242  34.802  24.337  12.484
37014W        W 5243  42.348  40.885   4.721
37015W        W 5244  36.134  41.106  14.061
37016W        W 5245   4.575   4.332  10.088
37017W        W 5246  29.413   4.356  13.001
37018W        W 5247  44.938  43.932   3.855
37019W        W 5248  35.579  16.670   1.308
37020W        W 5249  30.548  12.484   3.599
37021W        W 5250  11.681  30.608   2.109
37022W        W 5251   4.199  44.993  10.709
37023W        W 5252   3.021  24.000  12.017
37024W        W 5253  27.802  34.537  10.446
37025W        W 5254  41.806  14.472   3.572
37026W        W 5255  23.217   9.254   0.905
37027W        W 5256  42.810  39.380  14.366
37028W        W 5257  13.346  28.139  11.537
37029W        W 5258  42.059  28.610   0.789
37030W        W 5259  13.722  37.028   3.168
37031W        W 5260   0.248  28.050   2.865
37032W        W 5261  22.435  30.616   0.003
37033W        W 5262  43.200  10.776  11.455
37034W        W 5263  19.805  17.664  13.122
37035W        W 5264  41.308  25.454  10.678
37036W        W 5265   4.785   5.109  12.916
37037W        W 5266  42.816   6.303  13.405
37038W        W 5267  35.227  11.459  12.432
37039W        W 5268  26.622   7.706  13.299
37040W        W 5269   5.375  40.320  11.596
37041W        W 5270  11.488  16.817  10.583
37042W        W 5271  43.305  22.113   0.224
37043W        W 5272  19.954  27.653   0.995
37044W        W 5273  39.763   9.358  11.107
37045W        W 5274  33.693  18.754  14.656
37046W        W 5275   1.319  33.943  12.896
37047W        W 5276  18.671  20.077   1.846
37048W        W 5277  35.022  23.127  12.401
37049W        W 5278  20.363   2.743  11.968
37050W        W 5279   3.798  29.947   2.693
37051W        W 5280  22.251  18.000  12.559
37052W        W 5281  29.653   3.224  14.575
37053W        W 5282  15.204  31.401  13.038
37054W        W 5283   8.034  31.012  14.785
37055W        W 5284  16.191  35.188  12.792
37056W        W 5285  13.536  25.046   5.021
37057W        W 5286  29.424   5.953   4.563
37058W        W 5287  30.974  15.164   0.951
37059W        W 5288   0.769   2.782  12.915
37060W        W 5289  42.689  18.197  13.940
37061W        W 5290  16.322  29.801  10.283
37062W        W 5291  40.782   0.393   1.892
37063W        W 5292  40.112   6.384   2.648
37064W        W 5293  16.832  40.988  11.497
37065W        W 5294   7.378  44.634   3.141
37066W        W 5295   1.783  41.495  10.681
37067W        W 5296   3.248  41.954  14.895
37068W        W 5297  34.320   6.560   2.826
37069W        W 5298  21.002  18.777   0.427
37070W        W 5299  23.463  30.651  11.149
37071W        W 5300  36.995  43.536   1.373
37072W        W 5301  18.572  34.099  11.534
37073W        W 5302  10.614  26.179   0.137
37074W        W 5303  30.444  15.979  10.346
37075W        W 5304   3.777  15.853  11.244
37076W        W 5305   8.921  14.259   0.747
37077W        W 5306   0.073  27.705  12.961
37078W        W 5307  24.771  37.145   4.178
37079W        W 5308  27.425  30.684  10.671
37080W        W 5309  34.659  25.856  12.416
37081W        W 5310  43.044   8.033   4.234
37082W        W 5311  32.146  18.759   2.942
37083W        W 5312  30.845  43.786  12.115
37084W        W 5313  31.444  16.097  12.139
37085W        W 5314  25.367  31.869  14.923
37086W        W 5315  19.210  14.839  13.940
37087W        W 5316  37.548  18.705   2.606
37088W        W 5317   4.324   1.317   1.186
37089W        W 5318  11.918  10.361  12.146
37090W        W 5319  24.949  32.483  11.895
37091W        W 5320  26.917  22.700  13.497
37092W        W 5321  31.856  34.611   0.518
37093W        W 5322  34.626  23.182   3.903
37094W        W 5323  34.284  40.990   3.591
37095W        W 5324  38.089  35.879   3.886
37096W        W 5325  38.079  41.884  13.044
37097W        W 5326  27.301  18.977   0.254
37098W        W 5327  42.232  21.526  13.952
37099W        W 5328  36.493  41.575  12.886
37100W        W 5329   3.927  38.962  14.079
37101W        W 5330   6.276  42.343   1.337
37102W        W 5331  43.298   3.443   1.395
37103W        W 5332  18.972  21.740  13.765
37104W        W 5333   3.681   0.890  13.476
37105W        W 5334  37.789  26.137   2.483
37106W        W 5335  15.249  30.374  12.905
37107W        W 5336  30.307  25.194  13.899
37108W        W 5337   5.914  20.491   0.355
37109W        W 5338   0.070  19.270   3.649
37110W        W 5339   9.347  35.838   5.148
37111W        W 5340  29.652  23.089   0.306
37112W        W 5341  42.929  33.453   0.056
37113W        W 5342  41.020  20.007   2.789
37114W        W 5343  37.476  12.934   2.787
37115W        W 5344   3.290  19.651   3.256
37116W        W 5345   8.428  10.028   2.932
37117W        W 5346  39.195   2.741   3.606
37118W        W 5347   7.916  29.237   4.744
37119W        W 5348  30.012  31.069  12.848
37120W        W 5349   9.814  24.314   4.672
37121W        W 5350  29.141  29.879  10.599
37122W        W 5351  27.045   2.241  13.870
37123W        W 5352   0.274   8.307   1.305
37124W        W 5353   6.159  18.481  12.877
37125W        W 5354  12.704   7.623   0.498
37126W        W 5355  14.545  30.268   4.983
37127W        W 5356  22.324   3.403  10.697
37128W        W 5357  34.081  37.478  12.437
37129W        W 5358  21.739  20.986  12.037
37130W        W 5359   0.412  24.552   1.510
37131W        W 5360  42.019  21.361   3.405
37132W        W 5361  26.179   4.222  12.252
37133W        W 5362  30.452  29.028   1.828
37134W        W 5363   1.730  43.813  14.862
37135W        W 5364  18.077  33.406   0.978
37136W        W 5365  14.115  42.433  10.647
37137W        W 5366  28.676  14.822  12.568
37138W        W 5367  24.011  17.793  13.460
37139W        W 5368  34.836  13.519   0.862
37140W        W 5369   5.590  43.000  13.508
37141W        W 5370  42.100  36.433  14.371
37142W        W 5371  21.000   4.497  11.948
37143W        W 5372  21.329  31.917  12.937
37144W        W 5373  40.457  39.360   3.764
37145W        W 5374  23.102  14.566  10.082
37146W        W 5375  34.024  40.291  11.197
37147W        W 5376   9.746  25.213   4.304
37148W        W 5377   1.334  19.949  12.423
37149W        W 5378  40.122  29.239  13.440
37150W        W 5379  30.959  24.723  11.947
37151W        W 5380  28.970  11.813   0.880
37152W        W 5381  22.034   3.870   3.619
37153W        W 5382  32.131  32.872  12.061
37154W        W 5383  33.594  38.916   0.846
37155W        W 5384  23.593  28.469  14.404
37156W        W 5385   3.440  32.668  11.913
37157W        W 5386  32.661  31.522   3.998
37158W        W 5387  43.230   3.907   0.396
37159W        W 5388   6.147  39.599  12.518
37160W        W 5389  16.133   9.297   1.760
37161W        W 5390   6.824  25.594   2.220
37162W        W 5391  35.791  24.075   4.536
37163W        W 5392   2.005   3.218  14.408
37164W        W 5393  29.056  23.687  12.653
37165W        W 5394  20.794  32.946  11.227
37166W        W 5395  19.002  35.251   9.904
37167W        W 5396   9.192  16.343   0.880
37168W        W 5397  16.592  28.674   2.725
37169W        W 5398   9.874  34.804   3.099
37170W        W 5399  28.808  13.772   0.858
37171W        W 5400  11.290  36.133   1.351
37172W        W 5401  33.047  34.643   3.695
37173W        W 5402  31.094  16.800   2.327
37174W        W 5403  19.328   1.113  14.071
37175W        W 5404   1.962  42.845  13.545
37176W        W 5405  27.727   8.824   0.185
37177W        W 5406  28.896  15.178   1.817
37178W        W 5407  23.561  41.310  13.121
37179W        W 5408  41.201  39.888   2.627
37180W        W 5409   6.903  18.685  13.683
37181W        W 5410  10.125  11.708  13.584
37182W        W 5411  43.011  28.701   4.600
37183W        W 5412  44.782   8.674   1.485
37184W        W 5413  23.512  36.135   0.816
37185W        W 5414  16.246  30.037   4.093
37186W        W 5415  23.234  34.948   2.290
37187W        W 5416   8.203  44.879   0.273
37188W        W 5417  30.862  13.099   0.763
37189W        W 5418  36.564  25.045  13.436
37190W        W 5419  42.816  32.094  11.591
37191W        W 5420  42.651  13.152  12.922
37192W        W 5421  26.161  25.459  13.036
37193W        W 5422  27.696  24.568  12.873
37194W        W 5423  19.532  34.667   1.705
37195W        W 5424  39.050  14.288  12.613
37196W        W 5425  31.617  37.026  12.659
37197W        W 5426  25.972  44.845  14.901
37198W        W 5427  22.738  10.992   3.693
37199W        W 5428  37.103  13.556   0.440
37200W        W 5429  35.464  43.013   4.662
37201W        W 5430  31.424  18.138   2.143
37202W        W 5431  20.924  18.429   2.866
37203W        W 5432  13.335  15.547   0.213
37204W        W 5433  17.183  37.071  10.256
37205W        W 5434  20.222   5.812   1.196
37206W        W 5435   1.682  35.440   3.367
37207W        W 5436  28.953   5.451  12.871
37208W        W 5437  22.583  27.704  13.357
37209W        W 5438  16.974  37.376   3.243
37210W        W 5439  42.787  38.381   4.844
37211W        W 5440  42.339  17.043   1.737
37212W        W 5441   2.946  30.321   0.881
37213W        W 5442  42.273  36.892  12.865
37214W        W 5443  19.716  31.105  14.289
37215W        W 5444  24.889  15.602   1.661
37216W        W 5445  18.215  31.135  12.838
37217W        W 5446  22.179  18.100  13.478
37218W        W 5447  14.994  10.122  14.765
37219W        W 5448  18.196  30.163  10.661
37220W        W 5449  11.784  24.205   1.879
37221W        W 5450  29.668  36.952  12.180
37222W        W 5451  28.259  31.407  11.760
37223W        W 5452  29.559   1.470   0.041
37224W        W 5453  10.393  28.527   3.121
37225W        W 5454  40.483  37.589   0.685
37226W        W 5455  11.834  23.642   3.676
37227W        W 5456  39.068  39.228  11.467
37228W        W 5457  11.825  42.399   0.915
37229W        W 5458   1.653  15.988   0.922
37230W        W 5459   2.293   3.740  10.755
37231W        W 5460  21.713  36.354  14.053
37232W        W 5461  20.669  34.898  10.953
37233W        W 5462  19.450   2.000  12.123
37234W        W 5463  38.551   8.325   2.829
37235W        W 5464  22.113   9.793  10.992
37236W        W 5465  21.227  21.594  12.513
37237W        W 5466  16.643  35.195  11.662
37238W        W 5467  21.195  23.669   3.014
37239W        W 5468  38.436   5.931   2.870
37240W        W 5469  30.464  20.035  11.967
37241W        W 5470  27.693  11.878   2.438
37242W        W 5471  34.803  22.709  10.374
37243W        W 5472   4.804  17.634   0.900
37244W        W 5473  43.484   7.790   2.595
37245W        W 5474  23.730  11.342   2.289
37246W        W 5475  23.487  14.512  12.104
37247W        W 5476  23.539   1.622  13.389
37248W        W 5477  11.176   6.726  14.531
37249W        W 5478  27.126   1.200   4.319
37250W        W 5479  42.814  32.318  10.004
37251W        W 5480   4.283   9.666  11.055
37252W        W 5481  21.746   6.732   2.652
37253W        W 5482  34.683  26.155   3.277
37254W        W 5483  20.654  11.770   1.936
37255W        W 5484  14.241  26.049  11.217
37256W        W 5485   6.506  29.184   2.585
37257W        W 5486  10.284  41.304   1.650
37258W        W 5487   0.124  36.931  12.919
37259W        W 5488  36.616  43.412  13.921
37260W        W 5489  24.966  18.488   3.922
37261W        W 5490  13.077   5.883  11.548
37262W        W 5491  37.078  36.393  11.558
37263W        W 5492  35.446  44.006   2.669
37264W        W 5493  36.419  32.023   4.561
37265W        W 5494  14.414  44.603  11.093
37266W        W 5495  19.355   1.388   3.127
37267W        W 5496  28.930  33.119  13.862
37268W        W 5497  38.070  13.832  10.478
37269W        W 5498  16.772   5.072  13.874
37270W        W 5499  17.976  27.168   9.354
37271W        W 5500   6.325  10.422   1.780
37272W        W 5501  19.136  33.840   0.224
37273W        W 5502  16.744  11.244   1.984
37274W        W 5503   3.672   3.219  11.952
37275W        W 5504  41.179  15.814   0.808
37276W        W 5505  20.977  38.487  12.821
37277W        W 5506  15.599  18.754  11.609
37278W        W 5507  10.037  20.298  14.921
37279W        W 5508   2.902  15.110   2.750
37280W        W 5509   8.780  29.500   0.519
37281W        W 5510   6.855  11.358   2.051
37282W        W 5511  43.506  27.503   0.074
37283W        W 5512  32.972  23.265   4.840
37284W        W 5513   9.632  30.499   4.850
37285W        W 5514   5.432  32.542  11.930
37286W        W 5515  32.438  33.063  14.654
37287W        W 5516  43.830  18.589   2.664
37288W        W 5517  16.915   7.640  11.212
37289W        W 5518  19.479  37.647   4.132
37290W        W 5519  19.817  27.640  14.381
37291W        W 5520  40.810  27.789  13.989
37292W        W 5521  27.755   5.193   1.336
37293W        W 5522  39.483  38.065   0.520
37294W        W 5523  17.301   2.884  13.838
37295W        W 5524  17.484  15.551   0.719
37296W        W 5525  36.014   6.878  11.681
37297W        W 5526  40.512  37.107   0.484
37298W        W 5527   3.286  27.633  11.691
37299W        W 5528  20.765  41.523   3.728
37300W        W 5529  14.122  27.281   1.357
37301W        W 5530   5.435  13.670  14.861
37302W        W 5531  18.114  18.307  13.819
37303W        W 5532  22.176  16.531  13.636
37304W        W 5533   0.929   4.773   0.889
37305W        W 5534  33.014  15.243  11.193
37306W        W 5535  42.854  24.786   4.910
37307W        W 5536  37.041  24.726  11.153
37308W        W 5537  19.086  10.794   1.794
37309W        W 5538   4.852  20.810  14.549
37310W        W 5539  34.409  42.300  13.386
37311W        W 5540  10.097  18.372   3.776
37312W        W 5541  35.258  36.469   2.756
37313W        W 5542  29.972   2.851   2.206
37314W        W 5543   4.738  21.531   1.536
37315W        W 5544  15.632  34.780  12.020
37316W        W 5545  12.975   7.426   0.907
37317W        W 5546  41.325  34.171  11.189
37318W        W 5547  33.460  15.249   3.158
37319W        W 5548  15.621   3.352  13.113
37320W        W 5549  18.241   9.855  10.669
37321W        W 5550   8.102  34.854  10.842
37322W        W 5551  20.158  29.662  12.508
37323W        W 5552  22.494  21.750  14.719
37324W        W 5553   2.810  30.906  13.478
37325W        W 5554   2.214  23.730   0.214
37326W        W 5555  43.522  33.402   4.290
37327W        W 5556  19.957  21.553   0.414
37328W        W 5557   7.899   8.856  14.299
37329W        W 5558   3.215  13.379   1.050
37330W        W 5559   7.588   1.330   3.131
37331W        W 5560  14.696   8.352  12.642
37332W        W 5561  31.072  36.158   3.259
37333W        W 5562   8.132   7.106  14.787
37334W        W 5563   6.199  17.105   3.609
37335W        W 5564   6.461  41.705   0.049
37336W        W 5565   0.301  39.897  12.407
37337W        W 5566   1.685   1.782  14.752
37338W        W 5567  31.016   5.191  11.103
37339W        W 5568  13.781   3.474  14.803
37340W        W 5569  24.864  17.255  11.667
37341W        W 5570  11.677  28.378  14.565
37342W        W 5571  26.327  17.528  10.784
37343W        W 5572  30.590  16.075  12.045
37344W        W 5573  22.815  30.886  11.540
37345W        W 5574  42.491  23.944  10.805
37346W        W 5575   0.915   4.841  12.436
37347W        W 5576  33.691  42.274  14.121
37348W        W 5577  35.000   1.837  11.523
37349W        W 5578  20.626  24.564  10.973
37350W        W 5579  39.015  31.190   0.277
37351W        W 5580  23.803  27.087   2.556
37352W        W 5581   4.433   3.843  10.366
37353W        W 5582  39.602  36.600  10.746
37354W        W 5583  23.667  31.107   4.378
37355W        W 5584  14.216  26.108   2.376
37356W        W 5585  44.814  28.831   3.113
37357W        W 5586  37.312   8.227   1.748
37358W        W 5587  17.847  15.941   2.342
37359W        W 5588  37.408  16.486  13.556
37360W        W 5589  26.572   2.225   0.008
37361W        W 5590  26.297   4.958   1.064
37362W        W 5591   0.485  32.608   1.716
37363W        W 5592  26.686  24.034   5.216
37364W        W 5593  43.975  26.516   0.817
37365W        W 5594  10.191   3.975  13.105
37366W        W 5595  28.582   8.676   1.732
37367W        W 5596  30.225  34.003   3.791
37368W        W 5597  26.321  34.898   3.297
37369W        W 5598  11.822  33.564   1.697
37370W        W 5599   3.928  27.778   3.380
37371W        W 5600   6.469   3.399  11.107
37372W        W 5601  29.540  31.401   4.067
37373W        W 5602   6.441  32.235   1.376
37374W        W 5603  41.967   9.509  14.200
37375W        W 5604  42.230  27.447  13.797
37376W        W 5605  23.101   6.369   0.509
37377W        W 5606  29.375  27.521  14.188
37378W        W 5607  44.480   2.294   4.083
37379W        W 5608  40.129  24.590   4.557
37380W        W 5609  26.077  13.401  11.037
37381W        W 5610  30.625  25.069   3.408
37382W        W 5611  27.216   7.101  11.757
37383W        W 5612  27.076  43.471  14.826
37384W        W 5613  19.405  34.565  11.211
37385W        W 5614   8.617  33.442   3.639
37386W        W 5615   9.806   6.151  11.896
37387W        W 5616   7.408  18.095   1.381
37388W        W 5617  34.381  19.040   1.648
37389W        W 5618   3.959  35.668   4.408
37390W        W 5619   7.215   3.253   1.738
37391W        W 5620  38.811  37.212  13.237
37392W        W 5621  20.776  40.885   4.624
37393W        W 5622   0.626  42.362  13.934
37394W        W 5623  37.902  10.700  11.642
37395W        W 5624  10.230  24.906  12.459
37396W        W 5625  18.748  19.494   5.632
37397W        W 5626  21.986   5.162   4.230
37398W        W 5627   4.283  15.642   1.454
37399W        W 5628  36.925  33.492   4.569
37400W        W 5629   8.223  28.350   0.783
37401W        W 5630   4.269  24.545  12.149
37402W        W 5631  20.604  40.591  13.145
37403W        W 5632   9.863  14.385   1.691
37404W        W 5633   2.779  44.261  13.026
37405W        W 5634  11.667   8.873  11.114
37406W        W 5635  43.821  21.789   0.915
37407W        W 5636  36.099  11.285   3.322
37408W        W 5637  18.147  35.120   2.526
37409W        W 5638  13.500  36.957   2.286
37410W        W 5639  22.356  13.558   1.831
37411W        W 5640   9.919  38.995   0.706
37412W        W 5641  19.939  12.623  14.836
37413W        W 5642  11.162  12.196  13.914
37414W        W 5643  18.520  35.153  11.586
37415W        W 5644   9.686  12.132   3.666
37416W        W 5645  17.630  32.328   2.627
37417W        W 5646  16.238  15.656  10.737
37418W        W 5647  18.005  17.595   0.207
37419W        W 5648  29.108  12.157  12.793
37420W        W 5649  25.686  11.730  14.895
37421W        W 5650  39.962  43.793   3.646
37422W        W 5651  25.748  27.639   4.447
37423W        W 5652  40.445  16.068   1.558
37424W        W 5653   9.131  10.888   3.628
37425W        W 5654  19.770  29.758   4.860
37426W        W 5655  28.077  16.235  14.450
37427W        W 5656  11.232  29.635  14.972
37428W        W 5657  30.067  29.865   3.659
37429W        W 5658  40.035  18.266  13.763
37430W        W 5659   5.383   2.243   3.718
37431W        W 5660  18.634   8.182   3.397
37432W        W 5661   2.450  42.242   2.298
37433W        W 5662  23.355  20.047   0.945
37434W        W 5663   5.886   2.453   1.366
37435W        W 5664  24.148  25.900   1.529
37436W        W 5665  27.708  18.615  14.400
37437W        W 5666  35.071  29.568  10.645
37438W        W 5667  36.195  13.281  12.656
37439W        W 5668  32.877  44.552   3.322
37440W        W 5669   2.270  32.244   0.377
37441W        W 5670   1.953  18.297   4.486
37442W        W 5671  41.793  27.472  13.482
37443W        W 5672  20.795  38.011  13.901
37444W        W 5673  15.739  27.247  13.580
37445W        W 5674  10.645  44.012  13.833
37446W        W 5675  19.171  18.754   3.090
37447W        W 5676  22.125  41.428   2.212
37448W        W 5677   5.737   8.296  12.157
37449W        W 5678   1.795  14.884  11.680
37450W        W 5679  29.170  35.546   1.808
37451W        W 5680  43.891  37.002   3.107
37452W        W 5681   7.676  11.867  14.920
37453W        W 5682  18.073  28.694  14.788
37454W        W 5683  34.877   0.373  12.605
37455W        W 5684  18.270  41.754   2.375
37456W        W 5685  44.802  39.860  10.684
37457W        W 5686  31.251  29.404  12.134
37458W        W 5687  42.406  22.723   3.824
37459W        W 5688  12.160   7.589  10.757
37460W        W 5689   4.128  33.722  13.546
37461W        W 5690  17.785   7.355  11.079
37462W        W 5691  35.082   0.991   1.124
37463W        W 5692  12.391  19.779  13.648
37464W        W 5693  40.600  17.013  11.590
37465W        W 5694  16.500  31.926  13.421
37466W        W 5695  38.297  41.456  11.881
37467W        W 5696  30.880  43.718   3.645
37468W        W 5697  17.782  21.977   4.003
37469W        W 5698  32.069  40.372   1.373
37470W        W 5699  20.028  25.019   3.798
37471W        W 5700  13.256  33.722  12.176
37472W        W 5701  21.558   7.261   1.780
37473W        W 5702  42.960  30.486  14.619
37474W        W 5703  13.144  11.634  14.064
37475W        W 5704  16.501  34.833   3.803
37476W        W 5705  40.302  38.943   3.095
37477W        W 5706  25.001  32.881   1.926
37478W        W 5707  22.606  11.332  12.703
37479W        W 5708  26.585  31.766  14.453
37480W        W 5709   9.595  33.583   2.766
37481W        W 5710  20.483  19.875  14.804
37482W        W 5711  22.269  28.451  13.781
37483W        W 5712  30.937  11.537  11.037
37484W        W 5713  16.534  20.308  12.096
37485W        W 5714  22.592  39.921  11.891
37486W        W 5715  11.002  17.719  12.879
37487W        W 5716  26.899   8.750   1.319
37488W        W 5717   5.488  31.637   1.822
37489W        W 5718  28.361  13.565   4.196
37490W        W 5719  12.856  25.409  14.893
37491W        W 5720  33.534  32.451  10.609
37492W        W 5721   6.402  30.877  11.103
37493W        W 5722   7.356   4.502   3.999
37494W        W 5723  38.466  40.882   4.129
37495W        W 5724  27.238  19.041  12.103
37496W        W 5725  21.097  41.528   1.956
37497W        W 5726  11.336   5.673   0.191
37498W        W 5727  38.959  17.445   3.870
37499W        W 5728  20.702  22.837  12.413
37500W        W 5729   6.422  29.962  11.485
37501W        W 5730  17.227  21.309   2.318
37502W        W 5731  43.110  37.856  13.961
37503W        W 5732  44.857  11.735   4.254
37504W        W 5733  21.234   9.378   3.763
37505W        W 5734  20.617  19.568  13.726
37506W        W 5735  16.310   9.255   2.427
37507W        W 5736  11.899  30.998  10.707
37508W        W 5737   1.362  41.258   1.712
37509W        W 5738   1.884  22.537  14.763
37510W        W 5739  26.528   7.840  10.439
37511W        W 5740  30.739   4.940   3.851
37512W        W 5741  28.376  29.021   0.431
37513W        W 5742   3.165   8.869   3.155
37514W        W 5743  23.252  34.399   1.881
37515W        W 5744  25.166  15.347  12.688
37516W        W 5745  26.532  33.949   0.164
37517W        W 5746   5.571  11.545  13.328
37518W        W 5747  43.440  10.503   1.345
37519W        W 5748  10.777  23.708   3.798
37520W        W 5749  23.117  38.566   2.631
37521W        W 5750   8.214  34.568   0.370
37522W        W 5751  11.586   9.782   2.698
37523W        W 5752  29.661  26.955  10.392
37524W        W 5753  33.852   4.771   2.831
37525W        W 5754   2.520  16.295  11.917
37526W        W 5755  25.981  21.162  11.584
37527W        W 5756  28.577   8.239   2.377
37528W        W 5757  30.475  27.066  11.089
37529W        W 5758  14.535  15.151   4.151
37530W        W 5759  39.085  36.399  14.500
37531W        W 5760  14.409  17.007   2.168
37532W        W 5761  25.744  37.570   2.395
37533W        W 5762  40.285   4.388   1.293
37534W        W 5763  20.172  23.598   2.445
37535W        W 5764  19.548  38.791  13.912
37536W        W 5765  33.373   8.280   0.327
37537W        W 5766  31.339  41.405  14.283
37538W        W 5767  26.555  14.924  10.055
37539W        W 5768   9.973  10.585  11.637
37540W        W 5769  19.544  39.531   2.009
37541W        W 5770   2.915  27.229   1.176
37542W        W 5771  17.652  13.702   3.311
37543W        W 5772  21.498  17.033  14.686
37544W        W 5773  28.472  17.150  13.374
37545W        W 5774  11.097   5.193  11.949
37546W        W 5775  19.240  42.061  12.977
37547W        W 5776  33.016   0.001   4.465
37548W        W 5777  37.857  36.080  12.054
37549W        W 5778  21.242   3.284  10.663
37550W        W 5779  24.827  27.983  14.818
37551W        W 5780  13.405  10.179  13.946
37552W        W 5781  15.739   0.021   4.150
37553W        W 5782  35.653  21.028   4.496
37554W        W 5783  32.430  30.623   2.494
37555W        W 5784  15.801  31.901   2.300
37556W        W 5785  25.879  41.763   1.243
37557W        W 5786  44.819  40.816  12.212
37558W        W 5787  11.306  10.437  14.489
37559W        W 5788  28.148  26.355  14.879
37560W        W 5789   6.327  14.286   4.067
37561W        W 5790  41.253  16.110   3.329
37562W        W 5791  11.615  40.323  13.842
37563W        W 5792  19.112  37.516   1.432
37564W        W 5793  24.708  21.731   0.019
37565W        W 5794  26.901   1.842  14.869
37566W        W 5795   2.338  34.618   4.061
37567W        W 5796  41.004  11.807  11.158
37568W        W 5797  22.836  15.732   2.070
37569W        W 5798  41.511  15.161   3.671
37570W        W 5799  43.966  31.608  10.636
37571W        W 5800  10.083  13.017   4.466
37572W        W 5801   8.087  18.672  11.678
37573W        W 5802   0.250  32.891  12.103
37574W        W 5803  31.629  44.864  12.339
37575W        W 5804  21.763  44.978   3.756
37576W        W 5805  22.665   1.534  14.775
37577W        W 5806  23.497  12.780   0.201
37578W        W 5807  32.372   0.942   3.828
37579W        W 5808   8.566  10.266   4.158
37580W        W 5809   9.034  20.621   4.125
37581W        W 5810   5.294  15.799  13.378
37582W        W 5811  25.449  33.682  13.384
37583W        W 5812  18.088   4.690   0.449
37584W        W 5813  29.555   0.869   0.000
37585W        W 5814   3.311  16.590   4.722
37586W        W 5815  23.846   3.386  10.826
37587W        W 5816  34.996  28.511   4.896
37588W        W 5817  18.782  12.331   1.402
37589W        W 5818  13.899  43.695  13.531
37590W        W 5819  42.292  33.839  14.937
37591W        W 5820  12.675  32.710  11.283
37592W        W 5821  28.201  20.485   0.048
37593W        W 5822  26.608  38.278  13.354
37594W        W 5823   7.615  35.835   2.726
37595W        W 5824  41.916  31.380   3.804
37596W        W 5825  31.508   4.849   4.638
37597W        W 5826   4.470  26.473  14.839
37598W        W 5827  34.550   9.130   1.484
37599W        W 5828  23.159   5.148   3.253
37600W        W 5829   5.927  17.147   1.970
37601W        W 5830  36.774  35.209   4.257
37602W        W 5831  11.787   3.097   2.901
37603W        W 5832  25.676  17.552   1.250
37604W        W 5833  29.380  23.180  14.866
37605W        W 5834  14.806  33.846  14.432
37606W        W 5835   3.718  32.085  14.923
37607W        W 5836  21.297  18.621  13.365
37608W        W 5837  37.023  38.400  11.219
37609W        W 5838  18.379  31.967  14.466
37610W        W 5839   1.888  29.760  14.352
37611W        W 5840  13.334  31.134  11.226
37612W        W 5841  29.049  21.014   1.192
37613W        W 5842  43.847  30.480   1.441
37614W        W 5843   2.924  20.095   4.494
37615W        W 5844  27.061  36.511  13.498
37616W        W 5845  25.875  37.511   1.610
37617W        W 5846  10.575   4.739  13.304
37618W        W 5847  42.007  40.992   1.428
37619W        W 5848  38.732  10.509  11.394
37620W        W 5849  12.059   8.411  10.444
37621W        W 5850  17.495  38.412   3.330
37622W        W 5851  35.456  21.551  12.766
37623W        W 5852  18.779  15.556  11.583
37624W        W 5853  26.162   6.902  13.983
37625W        W 5854  34.309  29.427   1.430
37626W        W 5855   7.224  36.418  13.398
37627W        W 5856  39.250  34.314   2.114
37628W        W 5857   7.259  17.484   3.986
37629W        W 5858  31.488  36.057   1.733
37630W        W 5859  31.945  36.023   3.267
37631W        W 5860   3.138  15.214  14.760
37632W        W 5861  25.121  43.906   1.517
37633W        W 5862  16.319  27.534  10.908
37634W        W 5863  23.422   5.890  11.679
37635W        W 5864  25.234  28.230   2.811
37636W        W 5865   7.413  34.538  11.131
37637W        W 5866  18.238  41.220  11.511
37638W        W 5867  25.154  18.190   2.430
37639W        W 5868  42.318   4.487  12.520
37640W        W 5869  21.552  36.576  12.952
37641W        W 5870   8.772   4.433  14.473
37642W        W 5871   8.858  39.024   4.961
37643W        W 5872   5.822  35.001  11.226
37644W        W 5873  40.934  35.973   4.699
37645W        W 5874  14.800  29.063  13.970
37646W        W 5875  22.552   7.034  10.638
37647W        W 5876  26.648  39.452  12.350
37648W        W 5877  30.446  26.174   4.508
37649W        W 5878  41.003  21.642   0.048
37650W        W 5879   3.779   6.623  13.807
37651W        W 5880  36.472   1.181  12.986
37652W        W 5881  14.367   3.433  12.896
37653W        W 5882  32.442  24.963   1.643
37654W        W 5883  28.512   0.962   2.021
37655W        W 5884  11.869  40.505  14.261
37656W        W 5885   7.312  18.522   0.267
37657W        W 5886  11.635  44.426  13.779
37658W        W 5887   7.558  37.378  13.813
37659W        W 5888   5.655  24.146  11.034
37660W        W 5889  35.077  19.351  12.026
37661W        W 5890  33.255  32.710   2.588
37662W        W 5891  17.489  11.049   2.516
37663W        W 5892  43.641   6.334  13.604
37664W        W 5893   1.077  44.247   1.787
37665W        W 5894  12.575  44.780  14.341
37666W        W 5895   9.485   0.214  10.990
37667W        W 5896  14.074  38.839   3.544
37668W        W 5897  25.444   7.801   4.522
37669W        W 5898  19.808  32.019  14.249
37670W        W 5899  23.799   2.447   1.265
37671W        W 5900   5.354  36.978   2.198
37672W        W 5901  14.733  32.863   0.550
37673W        W 5902  23.670  25.068   0.373
37674W        W 5903  14.825   7.859   0.392
37675W        W 5904  38.599   8.289   1.412
37676W        W 5905  30.479  44.250   4.107
37677W        W 5906  33.124  36.782   1.926
37678W        W 5907  15.868  15.880   2.318
37679W        W 5908  21.703  17.781   3.245
37680W        W 5909  30.656  37.795   0.885
37681W        W 5910  13.985  12.753   3.193
37682W        W 5911  30.887  27.193   3.628
37683W        W 5912   0.403   9.926   4.447
37684W        W 5913  33.428  42.629  12.094
37685W        W 5914  19.593  21.061   0.814
37686W        W 5915  29.951  28.996   2.004
37687W        W 5916  27.233  33.825  14.572
37688W        W 5917  15.946  34.652   0.841
37689W        W 5918  11.777  36.942  14.765
37690W        W 5919   1.716  19.988   4.234
37691W        W 5920  14.986  37.038  12.924
37692W        W 5921   9.303  37.053  11.434
37693W        W 5922   8.696  25.210   2.864
37694W        W 5923  32.790  32.596  11.631
37695W        W 5924  23.913  30.415   2.777
37696W        W 5925   8.390   7.953  12.041
37697W        W 5926   8.750  20.606  14.334
37698W        W 5927  13.144   0.744  13.328
37699W        W 5928  24.771   8.918  11.856
37700W        W 5929  22.268  16.531   0.263
37701W        W 5930  36.814  42.717   1.295
37702W        W 5931  42.083   2.041   0.547
37703W        W 5932  41.825  34.854   1.328
37704W        W 5933  25.630  19.962  10.857
37705W        W 5934  21.080  29.466  12.531
37706W        W 5935   0.558  43.401  11.585
37707W        W 5936  31.438   1.650   4.966
37708W        W 5937  30.756  25.186   3.888
37709W        W 5938  19.642  17.700   2.792
37710W        W 5939  13.327  22.987  12.537
37711W        W 5940  12.409  31.045   4.009
37712W        W 5941  24.509  21.094   0.283
37713W        W 5942  34.828  11.274  13.409
37714W        W 5943   3.001  14.304  12.529
37715W        W 5944  15.526  39.056  11.415
37716W        W 5945  16.619  29.583   3.603
37717W        W 5946  12.914  35.945  13.014
37718W        W 5947  41.216  36.548   2.327
37719W        W 5948  44.703  24.425   0.930
37720W        W 5949  37.760  44.224   2.283
37721W        W 5950  12.541  15.621   0.883
37722W        W 5951  39.429  16.143   3.696
37723W        W 5952  27.977  39.600   0.821
37724W        W 5953  30.092   0.432   4.770
37725W        W 5954   3.780  38.916   1.748
37726W        W 5955  44.463  40.020   3.276
37727W        W 5956  24.010  28.863   4.148
37728W        W 5957  11.842   2.806   1.929
37729W        W 5958  32.016  10.450   3.658
37730W        W 5959  32.672  42.728  11.613
37731W        W 5960  23.810   4.343   2.766
37732W        W 5961  37.447   2.775  11.238
37733W        W 5962  10.841  14.249  11.436
37734W        W 5963  41.775  22.141  13.606
37735W        W 5964  37.080  25.644  14.041
37736W        W 5965  14.480  39.489   4.676
37737W        W 5966  42.812   9.917   2.843
37738W        W 5967  11.439  32.533   3.283
37739W        W 5968   9.836  19.566   3.268
37740W        W 5969   3.283  27.579  12.666
37741W        W 5970  13.076  14.027   1.496
37742W        W 5971  25.001  18.257  10.586
37743W        W 5972  33.691  23.494   4.218
37744W        W 5973  17.091  21.842   2.392
37745W        W 5974   2.824  27.108   4.367
37746W        W 5975  39.261   0.676  10.197
37747W        W 5976  31.772   6.765   3.096
37748W        W 5977   3.434  41.815  10.282
37749W        W 5978   6.141  13.968   5.002
37750W        W 5979  35.417  16.598  10.247
37751W        W 5980  11.268  25.550  10.583
37752W        W 5981  10.776  23.528  13.950
37753W        W 5982  13.812  34.500   2.806
37754W        W 5983   0.442  40.757  11.527
37755W        W 5984  36.099  10.402  10.404
37756W        W 5985  29.930  35.965  13.485
37757W        W 5986  15.753  26.205   0.576
37758W        W 5987  33.355   8.162   3.312
37759W        W 5988  26.692  44.632   2.737
37760W        W 5989  37.023   5.361   4.948
37761W        W 5990   8.753  21.120  14.406
37762W        W 5991   4.397  42.838  10.544
37763W        W 5992  17.220  43.997   0.753
37764W        W 5993  26.947  10.839  12.445
37765W        W 5994  10.613  36.874  10.637
37766W        W 5995  37.782  40.236  14.951
37767W        W 5996  18.487  24.441  14.299
37768W        W 5997  36.402  19.583   2.271
37769W        W 5998  12.408  13.573   2.919
37770W        W 5999  19.628   8.777  13.071
37771W        W 6000  20.667  21.964   3.612
37772W        W 6001  27.356  32.587  13.903
37773W        W 6002  26.633  36.883   1.893
37774W        W 6003   8.210  35.112   1.285
37775W        W 6004  33.053  22.623   2.406
37776W        W 6005  20.614  21.316  14.189
37777W        W 6006   9.428  40.908  13.012
37778W        W 6007  29.019  40.550   0.043
37779W        W 6008  11.564   9.873   0.215
37780W        W 6009  33.204  30.119   4.523
37781W        W 6010   0.671  24.005   3.167
37782W        W 6011  30.674  16.569   2.650
37783W        W 6012  37.627  19.274   1.860
37784W        W 6013   9.213  23.065   3.859
37785W        W 6014  33.539   0.326   3.095
37786W        W 6015  15.771  24.645  12.001
37787W        W 6016  21.388  16.851   3.163
37788W        W 6017   2.585  37.426  12.542
37789W        W 6018   8.348   7.255  13.406
37790W        W 6019   1.345  33.051   5.216
37791W        W 6020  30.516  14.155   4.266
37792W        W 6021  23.030  33.553   2.169
37793W        W 6022  18.615  40.295  13.910
37794W        W 6023  35.058  24.248   3.750
37795W        W 6024   8.716   2.797   2.363
37796W        W 6025  16.912  13.696  14.474
37797W        W 6026  17.325   4.426   0.754
37798W        W 6027  43.591   7.437  13.537
37799W        W 6028  13.202   7.845   4.770
37800W        W 6029  18.527  29.554   2.206
37801W        W 6030  37.351   1.967  14.667
37802W        W 6031  26.260  44.980   0.816
37803W        W 6032  30.139  33.165  11.156
37804W        W 6033  37.134  29.715  12.514
37805W        W 6034  36.623   0.261   3.102
37806W        W 6035   3.164  28.004   0.129
37807W        W 6036  40.029  35.909   4.945
37808W        W 6037   6.732  23.339  11.974
37809W        W 6038   0.510  36.819  14.753
37810W        W 6039  22.173  33.496  12.482
37811W        W 6040   5.557  31.835  14.068
37812W        W 6041   6.508  27.052  11.141
37813W        W 6042  41.658  13.482   4.144
37814W        W 6043  23.227  38.248  12.205
37815W        W 6044  30.927  27.926  14.055
37816W        W 6045  15.223  29.604   0.026
37817W        W 6046  22.190   1.291  12.077
37818W        W 6047  41.111  15.138   1.345
37819W        W 6048   7.850  23.147   3.630
37820W        W 6049  25.064  19.235   1.482
37821W        W 6050   3.500  39.613  11.994
37822W        W 6051  34.595  44.451  11.554
37823W        W 6052   4.815  16.897  11.249
37824W        W 6053   1.961  39.461  13.335
37825W        W 6054  34.904  42.424   2.177
37826W        W 6055  39.513  12.843  10.922
37827W        W 6056  33.946   1.317   0.300
37828W        W 6057  16.140  32.235  13.615
37829W        W 6058  22.722  40.436   0.841
37830W        W 6059  37.429  20.794   4.128
37831W        W 6060   1.039  42.478   3.627
37832W        W 6061  36.147  18.186   3.169
37833W        W 6062  26.865  21.100  12.373
37834W        W 6063  12.347   4.238   3.759
37835W        W 6064  26.481  41.483   0.437
37836W        W 6065  15.888  21.506  12.072
37837W        W 6066  16.401  39.998   3.637
37838W        W 6067  29.752  41.888   1.184
37839W        W 6068  10.727  37.059  11.671
37840W        W 6069  10.204  12.102   3.743
37841W        W 6070   8.217  40.522   3.705
37842W        W 6071  32.046   8.765   2.251
37843W        W 6072  16.053  19.039  14.003
37844W        W 6073   9.454  39.061  11.126
37845W        W 6074  19.646  12.415   0.211
37846W        W 6075  13.150  35.460  13.664
37847W        W 6076   3.429  22.965   0.491
37848W        W 6077  42.229  39.426  12.389
37849W        W 6078  31.855   9.706   1.988
37850W        W 6079  24.462  38.011  14.870
37851W        W 6080  24.167  17.592   4.024
37852W        W 6081  32.921  18.876  11.166
37853W        W 6082  30.457  28.290   4.403
37854W        W 6083  37.796   1.289  12.305
37855W        W 6084  15.047  39.389  13.993
37856W        W 6085  31.504  19.022   0.408
37857W        W 6086  33.277  40.025  13.878
37858W        W 6087  43.812  24.249   3.260
37859W        W 6088   8.262  12.165   2.179
37860W        W 6089  24.623  19.237  11.655
37861W        W 6090  43.271  15.675   2.751
37862W        W 6091  31.061  18.257  11.971
37863W        W 6092  18.443  38.046   0.026
37864W        W 6093  25.688  32.039  14.530
37865W        W 6094   6.885  42.847  13.010
37866W        W 6095  16.605  13.772  11.627
37867W        W 6096  13.804  13.158  14.818
37868W        W 6097  38.364  21.529   3.408
37869W        W 6098  21.103  10.170   0.654
37870W        W 6099  14.320  40.434   2.336
37871W        W 6100  20.555   9.170   0.238
37872W        W 6101   0.581   3.284   4.556
37873W        W 6102  25.284  18.343   1.929
37874W        W 6103   1.713  38.771   0.433
37875W        W 6104  23.480   9.900   0.279
37876W        W 6105  11.771   8.102   1.003
37877W        W 6106  10.003  27.460  10.406
37878W        W 6107   2.229   3.919  12.040
37879W        W 6108  40.472  23.203   3.124
37880W        W 6109   8.418  12.793   2.026
37881W        W 6110  15.731  12.277  14.968
37882W        W 6111  34.087  29.489  14.797
37883W        W 6112  28.489  20.592   3.096
37884W        W 6113   7.297   3.066  11.601
37885W        W 6114  38.816   7.201  11.181
37886W        W 6115  12.858  23.549   0.750
37887W        W 6116  15.323  33.246  12.261
37888W        W 6117  27.058  23.427   2.765
37889W        W 6118  42.051   0.044   4.178
37890W        W 6119   3.194  17.826   2.381
37891W        W 6120  17.665   5.355  11.186
37892W        W 6121  43.408  32.623   1.802
37893W        W 6122   9.476   6.644   3.267
37894W        W 6123   9.786  35.442  11.138
37895W        W 6124  24.664  44.515   2.934
37896W        W 6125  18.444   6.755   0.787
37897W        W 6126  11.906   2.910  12.565
37898W        W 6127  21.671  17.781  10.300
37899W        W 6128  10.817  28.350  10.698
37900W        W 6129  29.020  44.499  11.957
37901W        W 6130  27.870  15.303   1.715
37902W        W 6131  17.157   9.870  13.764
37903W        W 6132  14.397  42.194   1.056
37904W        W 6133   4.736  20.322   3.786
37905W        W 6134  44.237  22.716  12.896
37906W        W 6135  33.996  17.055  12.508
37907W        W 6136  44.024  39.386   1.739
37908W        W 6137  20.553  19.192   0.498
37909W        W 6138   6.165  19.059   1.201
37910W        W 6139  38.185  16.178   0.425
37911W        W 6140  33.241  20.508  12.043
37912W        W 6141  12.116  25.147   1.251
37913W        W 6142   9.408  30.421   1.294
37914W        W 6143  31.336   3.094  12.048
37915W        W 6144  10.832  42.481   3.367
37916W        W 6145  35.243  39.342  14.901
37917W        W 6146  10.246  36.960   1.917
37918W        W 6147  14.830  34.206  10.761
37919W        W 6148  37.138  13.135  12.461
37920W        W 6149  23.454   2.171  11.107
37921W        W 6150  32.953  33.872  13.747
37922W        W 6151  26.098  31.924  13.733
37923W        W 6152  36.017  39.335   4.814
37924W        W 6153  35.094  38.333  12.481
37925W        W 6154  17.821  38.568  12.420
37926W        W 6155  42.474   4.732   0.881
37927W        W 6156  36.226  28.971   3.729
37928W        W 6157  21.204  30.654   2.256
37929W        W 6158   8.964  29.200  11.771
37930W        W 6159  36.498  13.225   2.358
37931W        W 6160  35.485  17.748  10.921
37932W        W 6161  12.638  34.958  11.594
37933W        W 6162  31.846  13.802   2.881
37934W        W 6163  43.991  19.431   2.074
37935W        W 6164  34.249  22.049  13.900
37936W        W 6165  40.657  36.069   1.294
37937W        W 6166  34.226   2.837   1.025
37938W        W 6167  22.605   2.755  14.781
37939W        W 6168   8.158   9.705   0.767
37940W        W 6169  23.867  32.499   5.035
37941W        W 6170  26.064  18.010   3.684
37942W        W 6171  44.656  15.557  12.209
37943W        W 6172  22.771  31.829   4.045
37944W        W 6173  37.206  17.275   3.714
37945W        W 6174  14.288  35.994  10.436
37946W        W 6175   4.201  18.625  13.378
37947W        W 6176  17.119   1.423  11.994
37948W        W 6177  38.934  29.982   4.458
37949W        W 6178  10.365  35.975  10.761
37950W        W 6179  26.141  19.825   1.201
37951W        W 6180  25.943  22.629  13.465
37952W        W 6181  38.822  11.837  12.534
37953W        W 6182   3.408  42.698   1.178
37954W        W 6183  26.460   8.146  13.972
37955W        W 6184  41.877  24.732  13.115
37956W        W 6185  34.415   7.362  11.048
37957W        W 6186   8.121  29.072   1.852
37958W        W 6187  16.558  38.977  13.629
37959W        W 6188  40.045  28.726  12.549
37960W        W 6189  41.080  13.479   1.867
37961W        W 6190  15.568  40.099   3.995
37962W        W 6191  28.474  16.755  13.748
37963W        W 6192  16.078  39.427  14.783
37964W        W 6193   3.436  30.310   1.749
37965W        W 6194  10.913  27.715  11.374
37966W        W 6195  33.401  23.403  14.415
37967W        W 6196  30.776   6.939   0.731
37968W        W 6197  31.057   7.909   4.895
37969W        W 6198  24.671  31.417  14.130
37970W        W 6199  22.115  30.109   2.145
37971W        W 6200   7.439  13.174  11.933
37972W        W 6201  28.930  13.544  11.606
37973W        W 6202   7.399   2.496   2.338
37974W        W 6203  22.453  36.478  11.598
37975W        W 6204   4.264  16.184  14.236
37976W        W 6205   6.040  33.879  10.483
37977W        W 6206  17.678  22.444   1.396
37978W        W 6207  31.711   6.739  12.096
37979W        W 6208   4.771  39.509   5.097
37980W        W 6209  42.739  20.760   4.071
37981W        W 6210  32.867  30.581  14.213
37982W        W 6211  25.577   7.971   1.957
37983W        W 6212   4.541  27.078   3.581
37984W        W 6213   5.958   8.399   4.265
37985W        W 6214  25.684  24.225   2.214
37986W        W 6215  19.367   7.780   2.798
37987W        W 6216  19.043   2.318  12.890
37988W        W 6217  43.226  12.423  11.150
37989W        W 6218  23.230   1.502  13.907
37990W        W 6219  14.662  11.065   4.588
37991W        W 6220  32.575  12.990   3.834
37992W        W 6221  35.646  22.975   0.341
37993W        W 6222  13.378   6.829   2.213
37994W        W 6223   4.734  41.410  11.589
37995W        W 6224  36.428   5.004  14.843
37996W        W 6225  29.873   1.360  11.161
37997W        W 6226  41.283  33.388  14.443
37998W        W 6227  44.668  20.776   0.590
37999W        W 6228  31.962  21.210  12.687
38000W        W 6229  23.439  10.193  11.616
38001W        W 6230   3.904  39.355   3.266
38002W        W 6231  15.397  10.381   2.711
38003W        W 6232   4.124  12.628  12.195
38004W        W 6233   3.780  41.663  11.601
38005W        W 6234  15.075  24.680  11.620
38006W        W 6235  10.669  42.463  10.580
38007W        W 6236  37.590  37.559   4.571
38008W        W 6237  27.740   4.889   0.892
38009W        W 6238  27.458  32.404  14.784
38010W        W 6239  30.672  19.137   2.710
38011W        W 6240   8.896   3.401   4.694
38012W        W 6241   5.056  36.308   4.074
38013W        W 6242  32.891   1.081   3.987
38014W        W 6243  10.691  41.389   3.494
38015W        W 6244  14.598   5.992  12.788
38016W        W 6245   4.246  37.854  12.864
38017W        W 6246   4.695   2.237  14.084
38018W        W 6247  18.643  15.878  12.034
38019W        W 6248  10.353  40.828  14.194
38020W        W 6249  12.767  26.455  13.771
38021W        W 6250  16.154   7.890  10.978
38022W        W 6251   8.127   6.157  11.551
38023W        W 6252  13.645  22.960   0.313
38024W        W 6253  42.360  18.026  14.846
38025W        W 6254   7.406   9.745   0.318
38026W        W 6255  27.581   9.392   1.370
38027W        W 6256   5.179  34.392  13.796
38028W        W 6257   6.771  11.265   1.040
38029W        W 6258  36.034  22.079  10.757
38030W        W 6259  13.803  44.494  12.433
38031W        W 6260  30.980  12.686   4.920
38032W        W 6261  28.030  17.888   3.221
38033W        W 6262  21.350  43.364  12.009
38034W        W 6263  21.044  20.635   0.191
38035W        W 6264   7.442   7.906  11.947
38036W        W 6265  34.925  14.211   2.237
38037W        W 6266  29.133   8.927   4.005
38038W        W 6267  10.323  36.431  11.120
38039W        W 6268  19.278  38.116   2.755
38040W        W 6269  28.444  10.091   3.685
38041W        W 6270   7.676  39.918   0.247
38042W        W 6271  23.788  25.784   4.224
38043W        W 6272  20.674  17.664  14.807
38044W        W 6273  37.933  40.327  13.509
38045W        W 6274  34.576  42.048   3.602
38046W        W 6275  35.455   0.658  14.915
38047W        W 6276  25.850  34.645   4.666
38048W        W 6277  42.195   2.172  11.952
38049W        W 6278  43.054   6.009  12.161
38050W        W 6279  30.118   8.429   3.084
38051W        W 6280  16.411  17.226   0.514
38052W        W 6281  35.899  22.908   3.215
38053W        W 6282  41.653  30.958   4.143
38054W        W 6283  28.695  25.331  13.514
38055W        W 6284  36.080   1.876  12.582
38056W        W 6285  14.004  30.977  11.621
38057W        W 6286   4.393  28.041  12.903
38058W        W 6287  28.455  28.741  14.625
38059W        W 6288  30.443  43.991  14.986
38060W        W 6289  42.537  39.762  12.072
38061W        W 6290   6.669  32.406  10.887
38062W        W 6291  39.939  40.011  11.181
38063W        W 6292  35.926  11.454   4.340
38064W        W 6293   2.399  12.562  12.410
38065W        W 6294   7.721  14.862   2.839
38066W        W 6295   1.930  31.104   3.389
38067W        W 6296  11.342   5.454  14.697
38068W        W 6297   9.310  10.754  13.000
38069W        W 6298  34.083  33.639  11.211
38070W        W 6299   0.754  34.763   2.561
38071W        W 6300   4.344   8.769  14.714
38072W        W 6301   6.505  40.051   4.213
38073W        W 6302  16.011   3.619   3.562
38074W        W 6303   0.501   4.893   1.824
38075W        W 6304  36.255  25.107   0.911
38076W        W 6305   8.280  34.769   3.702
38077W        W 6306  29.112  43.383  13.826
38078W        W 6307  37.995   0.455   1.904
38079W        W 6308  34.958  10.699   0.438
38080W        W 6309  42.589  18.702   4.030
38081W        W 6310  16.477  37.830   1.845
38082W        W 6311  35.381  34.533  11.068
38083W        W 6312   6.851  43.927  11.402
38084W        W 6313  43.866  39.072  13.984
38085W        W 6314   7.344  24.791   3.974
38086W        W 6315  11.918  42.560   3.818
38087W        W 6316  27.317  29.049  13.646
38088W        W 6317  19.299   1.302   4.194
38089W        W 6318  37.049  20.217   2.011
38090W        W 6319  44.832  19.588  11.122
38091W        W 6320  27.563  42.571  11.531
38092W        W 6321   6.921  34.508  11.262
38093W        W 6322  31.968  28.638  14.732
38094W        W 6323  10.531  44.576  10.228
38095W        W 6324  27.892  36.428   1.403
38096W        W 6325  10.966  38.432   0.435
38097W        W 6326  13.061  15.167  14.949
38098W        W 6327  25.694  33.528   9.866
38099W        W 6328  43.265  38.129  10.403
38100W        W 6329  33.839  43.776  14.833
38101W        W 6330   1.992  27.547  10.803
38102W        W 6331  12.801  32.398  14.519
38103W        W 6332   3.465  15.152   1.266
38104W        W 6333  27.651  27.520   0.883
38105W        W 6334  32.494   2.594   0.292
38106W        W 6335   7.424   7.613  10.678
38107W        W 6336  30.220  21.964  13.433
38108W        W 6337  24.532   9.538   4.092
38109W        W 6338  37.116  36.981   0.024
38110W        W 6339   1.625  16.304   1.832
38111W        W 6340   3.350   9.410   4.104
38112W        W 6341  19.971  13.261   1.391
38113W        W 6342  21.004   6.662   0.252
38114W        W 6343  31.299  11.626  14.457
38115W        W 6344  13.275  13.478   3.384
38116W        W 6345  10.482  30.879   5.013
38117W        W 6346  27.203  34.520   3.206
38118W        W 6347  11.710  22.269   2.281
38119W        W 6348  11.836  14.862   2.284
38120W        W 6349  43.864  35.203   4.603
38121W        W 6350  26.743  10.381  11.599
38122W        W 6351  23.578  10.402   3.685
38123W        W 6352   0.898  10.227  14.269
38124W        W 6353  22.528  14.306  14.394
38125W        W 6354  42.342  31.364   2.211
38126W        W 6355  37.862  41.254  14.804
38127W        W 6356   6.780  23.417  12.935
38128W        W 6357  23.166  25.283  11.515
38129W        W 6358  15.935   8.372  14.915
38130W        W 6359   0.326  12.656   4.718
38131W        W 6360  39.263  44.481  10.631
38132W        W 6361  22.230  16.640   1.729
38133W        W 6362  22.955   4.713  13.992
38134W        W 6363  41.435  37.330  10.641
38135W        W 6364  37.396  42.865  10.709
38136W        W 6365  21.006  21.963  11.117
38137W        W 6366  17.168  37.129   4.369
38138W        W 6367  43.132  25.211  12.708
38139W        W 6368   0.272  26.596  14.471
38140W        W 6369  39.611  17.341   1.868
38141W        W 6370  40.392   2.387   2.091
38142W        W 6371   8.594   5.927  13.414
38143W        W 6372  35.904  22.526   0.412
38144W        W 6373  41.063   8.870  11.166
38145W        W 6374  38.202   5.777   2.079
38146W        W 6375  17.136  12.064   3.694
38147W        W 6376  42.416  18.642   3.534
38148W        W 6377  39.362  23.234  12.945
38149W        W 6378  19.704  39.379   2.830
38150W        W 6379  33.692  34.367  12.392
38151W        W 6380  11.640  15.338   1.654
38152W        W 6381  16.497   7.673   3.737
38153W        W 6382   3.696  23.600  12.882
38154W        W 6383  25.784  35.158  10.758
38155W        W 6384  37.147  20.219  11.550
38156W        W 6385  26.481  17.754   0.830
38157W        W 6386  23.422  33.999   0.531
38158W        W 6387   2.135  39.786   2.799
38159W        W 6388  37.315  32.164   1.454
38160W        W 6389   4.926  33.921  11.154
38161W        W 6390  10.819   2.551  12.920
38162W        W 6391  27.547   1.828   4.583
38163W        W 6392  17.586  30.980   0.317
38164W        W 6393  29.492   0.042   1.855
38165W        W 6394  16.639   7.282  10.552
38166W        W 6395  23.283  35.935  12.085
38167W        W 6396  38.023  11.123   4.368
38168W        W 6397  15.699  29.437   4.954
38169W        W 6398   4.855  22.487  13.949
38170W        W 6399  22.392  14.746  13.610
38171W        W 6400  11.750  19.141  14.866
38172W        W 6401  11.947  37.452   2.944
38173W        W 6402   7.344  13.846   3.182
38174W        W 6403  29.729  18.988  12.519
38175W        W 6404  18.776  19.170   2.316
38176W        W 6405  42.546  39.364  13.354
38177W        W 6406  34.442  22.538  13.975
38178W        W 6407  29.611  43.561  12.623
38179W        W 6408   5.289  24.541   2.158
38180W        W 6409  44.735   0.482   3.187
38181W        W 6410  37.666  29.240  12.496
38182W        W 6411  42.816  23.746   3.273
38183W        W 6412  14.241  11.706   3.624
38184W        W 6413  33.588   7.429   1.478
38185W        W 6414  18.822  38.084   4.545
38186W        W 6415   9.280  23.568   1.691
38187W        W 6416   2.790   8.209  10.648
38188W        W 6417  41.521  31.128   2.212
38189W        W 6418   1.384  37.586   4.080
38190W        W 6419  15.226  18.510   1.686
38191W        W 6420   6.488  27.926  12.879
38192W        W 6421   7.925  34.282   0.007
38193W        W 6422  27.601  34.372  14.901
38194W        W 6423  29.897   5.823   2.261
38195W        W 6424  28.926  22.917  12.762
38196W        W 6425  35.946  16.842  12.538
38197W        W 6426   0.913  16.389  13.428
38198W        W 6427  44.601  36.051  12.431
38199W        W 6428  42.502  21.075  14.866
38200W        W 6429  33.467  13.385  11.700
38201W        W 6430  21.589  32.348   1.246
38202W        W 6431   3.341  31.714  14.925
38203W        W 6432  27.034  15.765   0.514
38204W        W 6433  42.749  33.135  12.597
38205W        W 6434  31.887   2.019   1.728
38206W        W 6435  23.238  40.420  10.539
38207W        W 6436   5.872  12.225   1.728
38208W        W 6437  29.466   6.696  13.873
38209W        W 6438  34.611   5.667   2.310
38210W        W 6439  16.612   0.620   3.257
38211W        W 6440  20.321  15.554   0.166
38212W        W 6441  43.347  33.297  10.526
38213W        W 6442  11.256  29.914  13.928
38214W        W 6443  10.121  33.579   2.848
38215W        W 6444  27.126  44.605   3.291
38216W        W 6445  44.034  12.849   2.251
38217W        W 6446  21.800  38.106  12.133
38218W        W 6447  31.600  29.075  10.658
38219W        W 6448  35.579  38.670  14.276
38220W        W 6449   8.736   5.878  12.524
38221W        W 6450  31.524  24.155   3.821
38222W        W 6451   0.710  34.186   4.567
38223W        W 6452  22.609  42.049  10.772
38224W        W 6453  22.655   3.565  13.183
38225W        W 6454   2.440  27.453   1.282
38226W        W 6455  26.946  15.841   1.934
38227W        W 6456  20.317  25.069  10.675
38228W        W 6457  13.465  39.462  12.237
38229W        W 6458  13.866  26.427  13.535
38230W        W 6459  26.199  33.476  13.804
38231W        W 6460  18.366  30.430  11.114
38232W        W 6461  16.756  21.542  10.054
38233W        W 6462  21.199  30.922   0.949
38234W        W 6463   2.676  42.783   0.998
38235W        W 6464  42.350   8.161   3.699
38236W        W 6465  40.817  15.949   1.880
38237W        W 6466  13.360  34.137  14.491
38238W        W 6467  11.518   4.875  14.313
38239W        W 6468  15.684  38.154  13.553
38240W        W 6469  40.392  18.820   0.209
38241W        W 6470  43.006  21.832  12.422
38242W        W 6471  11.670  14.845   1.788
38243W        W 6472  17.508   5.230   1.325
38244W        W 6473   5.541  30.152  11.133
38245W        W 6474  16.285  23.252   3.190
38246W        W 6475   9.854  38.097   0.776
38247W        W 6476  33.557  26.909   3.470
38248W        W 6477  23.139  12.529  10.692
38249W        W 6478  35.238  27.446  11.064
38250W        W 6479  27.979  17.291  14.273
38251W        W 6480  17.696  32.914   0.679
38252W        W 6481  18.698  36.456   1.867
38253W        W 6482  39.054  21.163  14.246
38254W        W 6483   8.079  17.369   3.641
38255W        W 6484  15.114  31.859  12.121
38256W        W 6485  13.613  22.380   4.943
38257W        W 6486  24.383  12.068   2.405
38258W        W 6487   2.812  42.828  11.488
38259W        W 6488  29.386  44.318   3.865
38260W        W 6489  27.105  35.645   0.056
38261W        W 6490   8.287  17.732   3.303
38262W        W 6491  17.883  22.105  11.546
38263W        W 6492  39.040  37.432  11.756
38264W        W 6493  11.703  41.730   2.819
38265W        W 6494   1.213  42.379  10.716
38266W        W 6495  19.385  37.131  11.147
38267W        W 6496  32.575  27.537  14.904
38268W        W 6497  32.923  28.890   0.130
38269W        W 6498   6.647  41.637   4.019
38270W        W 6499  39.271  16.623  14.825
38271W        W 6500  11.220  35.551  10.787
38272W        W 6501  38.765  14.547  13.006
38273W        W 6502  39.338  19.233   3.487
38274W        W 6503  12.775   3.776  12.027
38275W        W 6504  11.316  30.425  13.879
38276W        W 6505  35.953  30.010  12.027
38277W        W 6506   0.999  38.521  12.317
38278W        W 6507   2.003  11.149  13.856
38279W        W 6508  23.687  44.524  13.449
38280W        W 6509  43.836   0.790   0.358
38281W        W 6510  26.048  27.438   2.086
38282W        W 6511  26.431  14.545   0.804
38283W        W 6512  40.354  27.056   0.281
38284W        W 6513   4.942  29.087   2.344
38285W        W 6514  21.574  35.085  13.486
38286W        W 6515   0.439   2.097   1.858
38287W        W 6516   9.690  38.437  12.738
38288W        W 6517   9.292  30.202   4.599
38289W        W 6518   6.721   4.414   4.672
38290W        W 6519  26.898  33.125  14.838
38291W        W 6520  43.939  42.206  14.851
38292W        W 6521  17.706  34.287   2.709
38293W        W 6522  10.760  40.438  11.254
38294W        W 6523   4.902  25.631  11.437
38295W        W 6524   9.688  11.100   1.182
38296W        W 6525   5.215  44.815  12.490
38297W        W 6526  31.988  30.937  10.441
38298W        W 6527  40.944  41.707   2.237
38299W        W 6528   3.334  10.611  13.127
38300W        W 6529  11.064  30.093  12.340
38301W        W 6530   7.775  36.458  13.725
38302W        W 6531  22.013  16.839  11.483
38303W        W 6532  30.374  12.424   4.772
38304W        W 6533  21.169  10.678   0.738
38305W        W 6534  18.722  17.768  12.526
38306W        W 6535  27.935  37.084  14.564
38307W        W 6536  16.786  30.924   4.525
38308W        W 6537  32.348  28.106  10.666
38309W        W 6538  14.470  36.553   2.049
38310W        W 6539  23.894  41.675   2.837
38311W        W 6540  17.665   3.439  12.063
38312W        W 6541  43.366  42.246  11.009
38313W        W 6542  12.749  40.732   0.436
38314W        W 6543  26.957  33.251  11.608
38315W        W 6544  36.852  18.963   1.748
38316W        W 6545  16.360  19.323   2.868
38317W        W 6546  32.274  35.916  14.851
38318W        W 6547  10.366   1.571   0.830
38319W        W 6548  12.441   7.877   0.873
38320W        W 6549  40.511  42.511   2.125
38321W        W 6550  31.045  38.552   1.780
38322W        W 6551  15.617  40.914  10.224
38323W        W 6552  26.602  26.072  14.380
38324W        W 6553  18.502  21.321  10.105
38325W        W 6554  39.931  13.165   1.230
38326W        W 6555  44.866  28.181  12.824
38327W        W 6556  17.345  16.199  14.905
38328W        W 6557   9.962   2.907  11.540
38329W        W 6558   4.341  15.796   0.641
38330W        W 6559  27.522  16.669  13.523
38331W        W 6560  30.133  13.588  11.949
38332W        W 6561   5.759  32.972   3.091
38333W        W 6562   3.805  28.503   2.667
38334W        W 6563  23.744   5.128  12.478
38335W        W 6564  16.271   0.023   0.699
38336W        W 6565  15.333  30.702   1.643
38337W        W 6566  40.522  38.448  12.493
38338W        W 6567  30.610   3.856   2.930
38339W        W 6568  42.112   4.550   1.226
38340W        W 6569  44.942  41.137  13.424
38341W        W 6570   5.316  43.305   3.184
38342W        W 6571  14.532   9.292  12.463
38343W        W 6572   1.261  18.685  10.785
38344W        W 6573  23.853   4.251   3.658
38345W        W 6574  13.369   4.061  10.918
38346W        W 6575  13.558   4.250   3.099
38347W        W 6576  44.716  37.886  10.597
38348W        W 6577  11.161  12.650   0.863
38349W        W 6578  20.631   5.165  12.614
38350W        W 6579  43.841  12.333   3.057
38351W        W 6580  19.002  15.816  12.833
38352W        W 6581  40.202  39.586   0.716
38353W        W 6582  22.950  21.745  14.453
38354W        W 6583  14.339  18.492  13.783
38355W        W 6584   0.759  32.146   4.853
38356W        W 6585  35.186   3.215   1.761
38357W        W 6586  33.983  44.838   1.351
38358W        W 6587  19.803  26.398   2.300
38359W        W 6588  19.568  30.191   1.798
38360W        W 6589  29.915  14.331  13.738
38361W        W 6590  13.137  35.899  10.659
38362W        W 6591  30.668  27.563  11.127
38363W        W 6592  11.252   0.746  13.038
38364W        W 6593  29.907  11.131  13.864
38365W        W 6594  43.315  40.999   4.560
38366W        W 6595  12.806  13.862   0.399
38367W        W 6596  14.011  41.441  10.669
38368W        W 6597  11.387   5.344  11.569
38369W        W 6598  25.302  30.080   2.783
38370W        W 6599  21.953   8.324   3.047
38371W        W 6600  14.780   1.738  10.277
38372W        W 6601  37.722  28.139  11.893
38373W        W 6602   6.262   5.053  11.597
38374W        W 6603  22.391  18.110  13.939
38375W        W 6604   9.988  42.284  14.315
38376W        W 6605  42.016  29.026   1.688
38377W        W 6606   5.320  15.090   2.203
38378W        W 6607  35.191  17.052   2.880
38379W        W 6608  25.707  37.980   1.772
38380W        W 6609  26.218  25.252   0.634
38381W        W 6610  25.479  40.802  11.534
38382W        W 6611  31.970  13.252   0.063
38383W        W 6612  27.045  29.116  12.679
38384W        W 6613   5.891  13.734  13.853
38385W        W 6614  39.198  41.452  14.095
38386W        W 6615  21.490  23.223  13.671
38387W        W 6616  18.236  21.625  14.426
38388W        W 6617  40.129  24.981   0.902
38389W        W 6618  34.946  22.206  13.002
38390W        W 6619  19.094  10.901   0.935
38391W        W 6620  30.600   4.799  10.368
38392W        W 6621  11.137  13.420  13.729
38393W        W 6622  14.248  40.016   0.900
38394W        W 6623  44.433  38.032   1.015
38395W        W 6624  25.446   6.391   4.198
38396W        W 6625  42.746   3.347  13.406
38397W        W 6626  12.207  18.521  14.042
38398W        W 6627   0.568  34.659  12.760
38399W        W 6628  38.856  11.562   3.338
38400W        W 6629  35.420  20.688   0.236
38401W        W 6630  18.736  28.419   4.693
38402W        W 6631  34.539  18.749   3.018
38403W        W 6632  12.425  35.530   0.030
38404W        W 6633   8.356  16.026  12.449
38405W        W 6634  12.092  21.111  11.107
38406W        W 6635  33.338  27.975   2.219
38407W        W 6636  41.824  34.656   3.249
38408W        W 6637  41.454  29.181  12.302
38409W        W 6638  33.386  41.787  10.711
38410W        W 6639  27.686  30.446   3.100
38411W        W 6640  33.721  24.023   4.189
38412W        W 6641  44.624  19.261  10.402
38413W        W 6642  23.489  42.581  13.917
38414W        W 6643  30.267  35.346   5.165
38415W        W 6644  38.963  26.167   4.555
38416W        W 6645   4.497  42.983   3.270
38417W        W 6646  20.191  20.634  12.294
38418W        W 6647  21.213  37.296   2.238
38419W        W 6648  27.415   7.754   4.239
38420W        W 6649  31.919  24.616  10.408
38421W        W 6650  23.498   2.891   0.190
38422W        W 6651  44.795  18.532  14.428
38423W        W 6652  18.532  44.131  10.568
38424W        W 6653  12.804  23.489   3.689
38425W        W 6654  28.903  34.456  13.433
38426W        W 6655  41.316  41.562   1.197
38427W        W 6656   1.199  22.978   3.285
38428W        W 6657  15.150   8.765   2.214
38429W        W 6658  44.936   4.309  13.561
38430W        W 6659  29.981  25.338  10.574
38431W        W 6660   4.762  13.792   4.189
38432W        W 6661  14.826  40.753   1.859
38433W        W 6662  31.616   2.382   2.256
38434W        W 6663  31.635  21.560   2.179
38435W        W 6664  24.017   5.182  12.024
38436W        W 6665  23.708  38.031  11.653
38437W        W 6666  10.115  13.257   1.230
38438W        W 6667  14.221  20.086   3.452
38439W        W 6668   1.860   0.415  12.889
38440W        W 6669  33.947  10.657   4.853
38441W        W 6670   6.233   9.358   1.092
38442W        W 6671   1.234   3.157   3.710
38443W        W 6672  36.961  29.962   4.134
38444W        W 6673  43.063   6.475  14.273
38445W        W 6674  32.079   8.925   0.733
38446W        W 6675  40.602   8.131   1.472
38447W        W 6676   4.739  11.815   3.057
38448W        W 6677  38.144  34.115   1.919
38449W        W 6678   6.916  10.386  11.074
38450W        W 6679   4.102  13.447  14.462
38451W        W 6680  16.048  10.174  13.182
38452W        W 6681  38.588  24.836   4.122
38453W        W 6682  28.629  10.350  14.446
38454W        W 6683  27.009   6.589   1.641
38455W        W 6684   8.162  16.509  12.518
38456W        W 6685  19.086  23.591  12.014
38457W        W 6686  29.896   2.287   2.946
38458W        W 6687  29.724  42.642  13.847
38459W        W 6688   9.294   8.849   0.064
38460W        W 6689  13.462  21.745   4.875
38461W        W 6690   9.421   1.884   4.278
38462W        W 6691  18.866  26.188  14.968
38463W        W 6692   6.247  35.917   9.934
38464W        W 6693  18.186   4.890  12.262
38465W        W 6694   0.264  19.480  12.154
38466W        W 6695  33.451  36.110  14.415
38467W        W 6696   0.520   1.274   0.224
38468W        W 6697  34.926   5.726  13.975
38469W        W 6698  20.456  38.452  12.908
38470W        W 6699  10.138  43.981  12.072
38471W        W 6700  11.750   4.629   4.567
38472W        W 6701  39.644  28.654   4.599
38473W        W 6702  44.955  19.268   4.524
38474W        W 6703  34.854  21.962   0.889
38475W        W 6704  40.966  40.081   4.868
38476W        W 6705   2.988  20.337  14.005
38477W        W 6706  36.838  33.290   2.809
38478W        W 6707  36.000  30.918   1.237
38479W        W 6708  13.863  44.873  12.075
38480W        W 6709  26.220  16.519   0.650
38481W        W 6710   1.892   9.061   0.115
38482W        W 6711   6.474  29.096  11.981
38483W        W 6712  10.016   4.254  12.111
38484W        W 6713  39.999  14.321  13.837
38485W        W 6714  15.278  42.720  12.961
38486W        W 6715  20.260  40.603   2.652
38487W        W 6716  13.683  15.124   4.977
38488W        W 6717  34.961  30.338   4.992
38489W        W 6718  30.153   3.737   2.724
38490W        W 6719  40.837  29.733  13.300
38491W        W 6720  25.125   0.828   1.005
38492W        W 6721  33.077  20.114   4.056
38493W        W 6722  24.543  38.970   3.195
38494W        W 6723  44.715  13.766  12.611
38495W        W 6724  11.715  42.398  11.474
38496W        W 6725  17.284  32.689   0.424
38497W        W 6726  41.884   1.446   1.883
38498W        W 6727   7.444  38.206  11.027
38499W        W 6728  28.852  32.087  12.989
38500W        W 6729   2.732  28.945  14.064
38501W        W 6730  24.059  30.949  13.136
38502W        W 6731  21.919  34.622  11.713
38503W        W 6732  23.731  37.020   5.086
38504W        W 6733  41.334  31.666   1.423
38505W        W 6734  29.413  15.139   1.995
38506W        W 6735  23.898  16.282   4.860
38507W        W 6736  28.230  44.996   1.356
38508W        W 6737  27.484  18.806   4.570
38509W        W 6738   6.457  36.617   0.127
38510W        W 6739  32.093  10.857   4.480
38511W        W 6740  40.368  11.058   3.247
38512W        W 6741  31.130  26.138  12.560
38513W        W 6742  23.755  23.156  12.892
38514W        W 6743  11.292  32.947   2.588
38515W        W 6744   9.225  22.675   4.631
38516W        W 6745  20.317  21.611   3.783
38517W        W 6746  27.816  12.276  14.639
38518W        W 6747  10.298  14.402   3.213
38519W        W 6748  30.071  26.600   0.377
38520W        W 6749  14.755  20.718  13.479
38521W        W 6750  14.532   2.681   1.222
38522W        W 6751   3.708  28.511  14.250
38523W        W 6752  23.522  17.251  12.853
38524W        W 6753  15.252  39.871   4.578
38525W        W 6754  18.489  20.050   2.765
38526W        W 6755  29.243   2.738   1.235
38527W        W 6756  30.125  30.062  13.367
38528W        W 6757  17.118  13.814   0.493
38529W        W 6758  35.182  27.393   3.613
38530W        W 6759  24.017   1.684   0.017
38531W        W 6760  39.653  25.154   2.156
38532W        W 6761   7.169   9.274  12.650
38533W        W 6762  16.673  19.130  14.420
38534W        W 6763  33.107  23.935  12.466
38535W        W 6764  40.401  19.721  13.108
38536W        W 6765  42.641  29.568  14.250
38537W        W 6766  36.903  13.637  12.451
38538W        W 6767  14.916  16.857   3.293
38539W        W 6768  35.672  35.121  12.977
38540W        W 6769  34.415  17.373  13.572
38541W        W 6770  41.923  22.830  12.383
38542W        W 6771  29.491  43.744  13.097
38543W        W 6772  34.904  38.260   0.894
38544W        W 6773  18.158  17.124  13.295
38545W        W 6774  20.771  28.829   3.901
38546W        W 6775   8.181  41.998   1.786
38547W        W 6776   3.197  23.600   1.830
38548W        W 6777  44.514  23.249  12.172
38549W        W 6778  32.957  38.496   3.014
38550W        W 6779  18.498  31.211  13.693
38551W        W 6780   2.527  18.313  11.265
38552W        W 6781  15.750  34.104   4.101
38553W        W 6782   0.768   6.628  12.094
38554W        W 6783  31.613  34.365   4.154
38555W        W 6784  27.441  27.601  14.352
38556W        W 6785   2.652  26.390  12.929
38557W        W 6786  23.255  19.000   0.004
38558W        W 6787   1.172  38.300  11.149
38559W        W 6788  42.462  16.178  11.102
38560W        W 6789  36.989  36.736   2.378
38561W        W 6790   2.302  38.278  14.436
38562W        W 6791  37.787  25.412   0.887
38563W        W 6792  27.522   3.740  11.513
38564W        W 6793  38.828  19.257   3.139
38565W        W 6794  37.947   9.947  12.904
38566W        W 6795  18.574  17.005  11.052
38567W        W 6796  24.087   2.912   1.303
38568W        W 6797  24.661  17.174  11.192
38569W        W 6798   9.724  25.185  14.564
38570W        W 6799   8.816   0.500   3.480
38571W        W 6800  42.825  15.730  10.674
38572W        W 6801  19.586  10.465   2.287
38573W        W 6802  27.436  27.408  11.095
38574W        W 6803   9.258   0.469  14.409
38575W        W 6804  32.412  15.807  10.269
38576W        W 6805  34.587  26.427   1.277
38577W        W 6806  33.540  35.108   1.437
38578W        W 6807  13.430  36.568  14.873
38579W        W 6808   7.471  17.193   3.253
38580W        W 6809  21.778   0.438   0.978
38581W        W 6810  18.596   5.678  11.142
38582W        W 6811  40.837  39.476   1.496
38583W        W 6812  16.119  22.861   1.299
38584W        W 6813  37.570   1.325   2.132
38585W        W 6814  44.976  21.466   0.380
38586W        W 6815  11.131  22.616   0.299
38587W        W 6816  15.232  22.332   3.240
38588W        W 6817  19.762  13.418  11.125
38589W        W 6818  16.040   1.383   3.751
38590W        W 6819  42.357  14.139   4.561
38591W        W 6820   7.413  37.519  10.698
38592W        W 6821   2.220  34.648   3.249
38593W        W 6822  36.926  15.042   0.545
38594W        W 6823  36.314  42.717   3.296
38595W        W 6824  39.842  25.518   0.755
38596W        W 6825   4.018  36.321   2.084
38597W        W 6826  40.812  17.285   2.651
38598W        W 6827   8.283  24.746   2.685
38599W        W 6828  23.923  44.831  11.208
38600W        W 6829  14.160  18.270   4.886
38601W        W 6830  41.097  27.399  12.803
38602W        W 6831  37.057   3.105   1.363
38603W        W 6832  37.969  26.846   1.367
38604W        W 6833  31.163  22.620   4.785
38605W        W 6834  33.280  14.180  11.583
38606W        W 6835  33.573  36.028   0.441
38607W        W 6836  21.746  39.179   4.235
38608W        W 6837  25.243  24.113  11.239
38609W        W 6838  19.754   8.581   3.089
38610W        W 6839  14.860  13.687   1.931
38611W        W 6840   6.782  32.379   0.405
38612W        W 6841  42.033  22.294  11.631
38613W        W 6842  29.333   5.953   0.713
38614W        W 6843  41.942  25.165   4.598
38615W        W 6844  24.293  38.940   1.229
38616W        W 6845  15.539  13.161   1.293
38617W        W 6846  28.123  33.416   4.678
38618W        W 6847  27.231   6.304  10.960
38619W        W 6848   6.313   4.160   1.458
38620W        W 6849  40.522  25.503  11.159
38621W        W 6850  33.130  35.310   1.753
38622W        W 6851   0.084  43.021  12.241
38623W        W 6852   6.412   0.495  13.382
38624W        W 6853   2.971  20.046  11.129
38625W        W 6854  41.392  27.735  11.939
38626W        W 6855  21.524  17.530   4.570
38627W        W 6856  20.629  16.470   4.425
38628W        W 6857   7.230  10.112  14.952
38629W        W 6858  27.645   0.677  14.953
38630W        W 6859  23.822  21.774   1.229
38631W        W 6860  40.388   5.396   1.940
38632W        W 6861   9.045  16.170   4.055
38633W        W 6862  19.105   9.188   3.905
38634W        W 6863  24.439  29.889   1.796
38635W        W 6864  16.595  17.355  10.732
38636W        W 6865  10.096   0.962   3.259
38637W        W 6866  28.266  22.252   3.677
38638W        W 6867  20.988   8.816   0.858
38639W        W 6868   9.520  23.198  12.068
38640W        W 6869  25.754  33.279  11.982
38641W        W 6870   3.288  33.927   3.103
38642W        W 6871  35.592   8.862  12.452
38643W        W 6872  20.112  29.894   1.000
38644W        W 6873  11.274  41.362  13.210
38645W        W 6874  26.569  43.384   2.025
38646W        W 6875  13.915  19.744   1.719
38647W        W 6876  26.739  33.603   0.932
38648W        W 6877   1.535  12.244   4.697
38649W        W 6878  38.397   8.797   0.522
38650W        W 6879  25.219   1.482  12.981
38651W        W 6880  24.939  20.875   3.722
38652W        W 6881   6.148  13.836   2.854
38653W        W 6882  11.970  27.268  12.857
38654W        W 6883  21.246  27.902  12.097
38655W        W 6884   6.856  27.401   4.225
38656W        W 6885  17.693  39.942  13.312
38657W        W 6886  19.024  24.538  14.258
38658W        W 6887   6.098  30.473  13.987
38659W        W 6888  29.724   1.920  14.802
38660W        W 6889  17.401  30.329  12.520
38661W        W 6890  43.412  24.714  12.105
38662W        W 6891  31.162  19.711   2.278
38663W        W 6892   8.310  21.315  10.589
38664W        W 6893   9.311  25.215  12.845
38665W        W 6894   5.951  13.754   1.252
38666W        W 6895   3.461  24.749  11.581
38667W        W 6896  23.016   5.373  11.035
38668W        W 6897  44.830   4.430   3.368
38669W        W 6898   1.239  29.068  14.897
38670W        W 6899  32.982  18.314   3.782
38671W        W 6900  18.718  18.024  14.328
38672W        W 6901  25.655  36.694  11.265
38673W        W 6902   2.203  12.790   3.811
38674W        W 6903   3.768  13.795  12.371
38675W        W 6904  35.473  43.000  11.114
38676W        W 6905  16.251  18.159   3.625
38677W        W 6906   8.802  37.163   1.474
38678W        W 6907  33.219  11.301   1.163
38679W        W 6908   1.770  34.003  11.409
38680W        W 6909  23.224  35.480   3.289
38681W        W 6910  38.061  37.713   4.353
38682W        W 6911  10.727  15.187  10.502
38683W        W 6912  36.068  18.154  14.411
38684W        W 6913  30.789   6.725  10.671
38685W        W 6914  26.073  10.731  11.244
38686W        W 6915  30.255  37.572   1.748
38687W        W 6916   2.048   1.797   3.991
38688W        W 6917  36.934  43.826  13.862
38689W        W 6918  19.895  18.731  14.283
38690W        W 6919   3.754  31.565   3.840
38691W        W 6920  28.184   3.220  14.419
38692W        W 6921  30.758   2.008   0.736
38693W        W 6922   5.695   5.280   3.877
38694W        W 6923  32.499  39.537  12.029
38695W        W 6924  37.552  41.444  13.831
38696W        W 6925  37.908  42.891  12.979
38697W        W 6926  35.846  29.057   1.740
38698W        W 6927  12.225  20.614   3.830
38699W        W 6928  17.511  41.414   4.447
38700W        W 6929   2.219  36.046   4.483
38701W        W 6930  24.164   9.249   0.337
38702W        W 6931  35.631  27.058  12.259
38703W        W 6932   8.836  20.043  11.509
38704W        W 6933  43.546  25.470  10.486
38705W        W 6934  31.517  12.148  13.835
38706W        W 6935  34.625   4.017  10.727
38707W        W 6936  17.582   4.464   4.030
38708W        W 6937   0.096  28.533   2.709
38709W        W 6938  10.698  25.964   4.747
38710W        W 6939  27.692   4.604  11.591
38711W        W 6940  39.515  34.787   0.361
38712W        W 6941  12.759  18.999   4.902
38713W        W 6942   8.263  22.071   0.456
38714W        W 6943  18.590  31.886  11.981
38715W        W 6944  40.392   2.185  10.787
38716W        W 6945  40.018  41.451   4.101
38717W        W 6946  35.391  19.568   1.662
38718W        W 6947   1.416  27.560   2.912
38719W        W 6948  24.691   4.004   3.177
38720W        W 6949  39.512  25.345  11.147
38721W        W 6950  10.412  19.721   4.545
38722W        W 6951  28.048  21.580   1.880
38723W        W 6952  36.372  14.662   1.920
38724W        W 6953  16.153  17.555  14.446
38725W        W 6954   6.783  22.622   3.336
38726W        W 6955  25.523  38.060   5.779
38727W        W 6956  39.810  35.923   0.407
38728W        W 6957  15.091  19.258   3.644
38729W        W 6958  17.041  16.534  14.561
38730W        W 6959  31.970  43.538  14.551
38731W        W 6960  27.814   4.490   0.533
38732W        W 6961  32.681  18.015  10.880
38733W        W 6962  13.335  14.832  12.396
38734W        W 6963  25.486  20.051  13.990
38735W        W 6964  27.846   5.161  10.496
38736W        W 6965  27.606  39.408  14.567
38737W        W 6966  32.646  31.375  10.573
38738W        W 6967   0.454  22.453  12.446
38739W        W 6968  32.331  25.028  13.879
38740W        W 6969  10.714  21.477  14.748
38741W        W 6970   0.872  35.721  13.550
38742W        W 6971  24.696  39.062  12.596
38743W        W 6972  30.497  15.928  13.089
38744W        W 6973  30.462  21.466  13.483
38745W        W 6974  14.665   6.997  12.937
38746W        W 6975   5.316  38.677   2.751
38747W        W 6976  43.815   9.162   2.384
38748W        W 6977  11.289   4.742   3.306
38749W        W 6978  40.029   1.278   2.391
38750W        W 6979  15.191  29.477   4.758
38751W        W 6980  28.013   6.981   1.260
38752W        W 6981   9.950  39.347  11.144
38753W        W 6982   5.262  20.989  10.656
38754W        W 6983  34.911   3.835  11.168
38755W        W 6984  37.528   0.012   0.467
38756W        W 6985  30.611   9.985  12.399
38757W        W 6986  28.647   1.370  14.419
38758W        W 6987  24.819  11.346  14.821
38759W        W 6988  10.966  12.688  10.685
38760W        W 6989  13.715  13.204   4.711
38761W        W 6990   8.690   2.969   1.880
38762W        W 6991  18.753  16.640   1.823
38763W        W 6992  27.777  23.121  12.109
38764W        W 6993   9.901  22.578  14.446
38765W        W 6994  41.348  39.910   4.514
38766W        W 6995  20.952   9.727   0.920
38767W        W 6996  22.630  25.308  10.368
38768W        W 6997  33.820  34.904  14.582
38769W        W 6998  39.068  38.128  11.016
38770W        W 6999  17.968  14.345   4.489
38771W        W 7000   8.287   6.595   2.740
38772W        W 7001   3.704  14.625  12.037
38773W        W 7002  15.532  33.942   3.176
38774W        W 7003  37.589  43.426   0.041
38775W        W 7004  33.970  35.433   2.331
38776W        W 7005   0.184   1.193  13.538
38777W        W 7006   4.856  18.725   0.902
38778W        W 7007   9.241  14.245  12.082
38779W        W 7008  18.073   4.508   1.814
38780W        W 7009  36.444  15.294  10.476
38781W        W 7010  22.841  19.969   0.983
38782W        W 7011   4.236   3.971   0.917
38783W        W 7012  42.457   7.168   4.592
38784W        W 7013  29.320  16.351  11.071
38785W        W 7014  18.569  18.643  11.594
38786W        W 7015  16.098  27.120   0.796
38787W        W 7016   4.640  18.232  11.926
38788W        W 7017  31.203  28.128   3.821
38789W        W 7018  28.170   8.666  12.103
38790W        W 7019  31.156   9.982   1.302
38791W        W 7020  18.298   8.581   3.357
38792W        W 7021  31.431   9.553   1.374
38793W        W 7022   2.763  23.379   1.642
38794W        W 7023  32.081   4.691  14.906
38795W        W 7024   5.482  25.691   2.779
38796W        W 7025  34.400  16.272  11.538
38797W        W 7026  35.695  42.501  13.242
38798W        W 7027  33.127  29.612  14.408
38799W        W 7028  38.091  12.049   0.306
38800W        W 7029  24.497  32.935   1.748
38801W        W 7030   7.249  21.099   4.516
38802W        W 7031  20.249   6.989   4.683
38803W        W 7032  14.810  18.666  11.126
38804W        W 7033  12.266  39.300   0.727
38805W        W 7034  17.080  36.759  12.595
38806W        W 7035  36.896  15.923  10.936
38807W        W 7036   2.433   9.682  11.106
38808W        W 7037  38.466   3.676  12.433
38809W        W 7038  16.817  38.942   2.686
38810W        W 7039  28.731   5.629  10.712
38811W        W 7040   7.695  29.841   0.347
38812W        W 7041  21.010   1.433  10.304
38813W        W 7042  21.703   9.199  11.614
38814W        W 7043  41.888   1.125  10.434
38815W        W 7044  13.181  16.848   1.926
38816W        W 7045  11.610  18.602  14.733
38817W        W 7046  20.142   1.088  10.584
38818W        W 7047  43.225  13.379  11.161
38819W        W 7048  20.766  31.992  12.069
38820W        W 7049  20.054  20.039  11.959
38821W        W 7050   4.201  15.885  10.822
38822W        W 7051  43.214  13.442  13.854
38823W        W 7052  18.313  23.500  12.540
38824W        W 7053  43.081  14.119   0.007
38825W        W 7054  17.227  33.854   1.744
38826W        W 7055   6.374   3.209   2.344
38827W        W 7056  42.787   0.931   3.764
38828W        W 7057  23.512  10.252  11.097
38829W        W 7058  16.364   8.317   2.210
38830W        W 7059   7.900  19.663  12.451
38831W        W 7060  32.094  38.676   0.301
38832W        W 7061   3.031  33.651  13.946
38833W        W 7062  21.892  27.935   1.707
38834W        W 7063  15.118  16.843   0.905
38835W        W 7064  34.885  31.327   4.498
38836W        W 7065  31.343  38.943  11.104
38837W        W 7066  41.759  17.947   3.531
38838W        W 7067  14.363  35.040  13.469
38839W        W 7068  31.851  40.794  13.991
38840W        W 7069  19.031  20.270  11.987
38841W        W 7070   1.530  13.373   3.763
38842W        W 7071  29.986   3.487  14.296
38843W        W 7072   6.183  32.913  14.772
38844W        W 7073  40.063  34.805  12.138
38845W        W 7074  41.814   1.526  14.381
38846W        W 7075   3.688  24.621   1.417
38847W        W 7076  19.655  41.261   1.646
38848W        W 7077  39.111  15.784   2.817
38849W        W 7078  20.341  29.277  11.564
38850W        W 7079  38.871  30.108   2.292
38851W        W 7080  19.687  32.132   0.430
38852W        W 7081  11.375  37.954  13.286
38853W        W 7082  44.066  24.523   3.666
38854W        W 7083  27.874  30.849   4.184
38855W        W 7084   4.233  23.614   3.597
38856W        W 7085   9.840  16.701  14.429
38857W        W 7086  24.114   8.004   1.125
38858W        W 7087  39.468   6.229   1.635
38859W        W 7088  12.308  18.641   0.380
38860W        W 7089  16.287  19.558  12.881
38861W        W 7090  34.431  31.400  14.268
38862W        W 7091  43.315  28.794  11.432
38863W        W 7092  17.280  34.339  14.522
38864W        W 7093  31.572  37.946   2.812
38865W        W 7094  35.253  39.605   2.498
38866W        W 7095  25.149  26.995   0.882
38867W        W 7096   5.159  12.120  11.667
38868W        W 7097   6.420  11.796  13.378
38869W        W 7098   2.937  16.696   0.195
38870W        W 7099  30.048   1.271   3.416
38871W        W 7100  44.028   3.677  13.666
38872W        W 7101  28.541   3.766   2.853
38873W        W 7102   6.418  40.888  14.115
38874W        W 7103  36.867  33.500   1.869
38875W        W 7104  37.355  39.033   0.755
38876W        W 7105   1.123  34.659  12.427
38877W        W 7106  22.121  17.519  13.438
38878W        W 7107  43.732   4.469  12.571
38879W        W 7108  41.048   9.251  12.925
38880W        W 7109  22.512  10.719   2.262
38881W        W 7110  33.058  28.127   3.768
38882W        W 7111  18.357   7.677  11.529
38883W        W 7112  12.384  14.804   0.142
38884W        W 7113   3.924   9.732  13.418
38885W        W 7114  35.587  30.474  12.585
38886W        W 7115  24.702   9.901   0.291
38887W        W 7116   3.193  22.861   2.326
38888W        W 7117  35.003   3.318  13.209
38889W        W 7118  24.215  41.682  12.368
38890W        W 7119  25.477  22.998   0.958
38891W        W 7120  10.271   1.945   1.824
38892W        W 7121  38.568  17.204   3.616
38893W        W 7122  24.220  29.064  12.362
38894W        W 7123  25.121   2.503   4.657
38895W        W 7124  42.893  41.040  13.936
38896W        W 7125   1.385   5.674   4.560
38897W        W 7126  20.972   4.461  11.176
38898W        W 7127  41.336   5.275   0.437
38899W        W 7128   9.440  28.455   2.790
38900W        W 7129   0.201  41.686  11.718
38901W        W 7130  26.933  13.397  14.553
38902W        W 7131  30.121  41.999   4.657
38903W        W 7132  15.211  39.070   2.127
38904W        W 7133   6.848  41.288  11.930
38905W        W 7134   7.791  31.093  11.194
38906W        W 7135  23.723  36.878   4.069
38907W        W 7136  13.255  34.756  11.405
38908W        W 7137  27.611   2.480   0.213
38909W        W 7138   9.765  40.566   1.721
38910W        W 7139  18.496  42.185  11.611
38911W        W 7140  27.669  30.017   0.932
38912W        W 7141  10.416   7.667  10.023
38913W        W 7142  13.784  16.329   2.416
38914W        W 7143  38.519   5.803  13.289
38915W        W 7144   2.281  39.548   2.224
38916W        W 7145  44.877  33.746   0.724
38917W        W 7146  18.972  33.980  12.065
38918W        W 7147   9.252  38.449   2.391
38919W        W 7148   4.368  13.086   3.511
38920W        W 7149   3.682   9.888   2.520
38921W        W 7150   8.732  28.453   3.353
38922W        W 7151   1.807  31.397  13.481
38923W        W 7152  32.873   2.687  10.706
38924W        W 7153  28.396   7.819   4.548
38925W        W 7154   4.391  23.051   3.758
38926W        W 7155  12.670  22.326   1.531
38927W        W 7156  23.508   8.853  10.664
38928W        W 7157   7.825  31.790  11.590
38929W        W 7158   6.823   6.883   1.233
38930W        W 7159  34.042   1.820  10.683
38931W        W 7160   1.721  34.106   9.444
38932W        W 7161   2.755  30.613   1.300
38933W        W 7162   1.075  19.011   3.600
38934W        W 7163  21.302  27.754   3.151
38935W        W 7164   1.492  38.732   3.000
38936W        W 7165  22.465  24.501   0.052
38937W        W 7166  13.694  11.019   1.762
38938W        W 7167   7.300  36.694   4.294
38939W        W 7168   9.685  16.701  13.554
38940W        W 7169   6.438  25.989  14.767
38941W        W 7170  36.020  21.319  11.286
38942W        W 7171  20.742  41.986   4.453
38943W        W 7172  11.460  19.385  11.159
38944W        W 7173  44.747  11.664   2.254
38945W        W 7174  37.848  38.473  12.222
38946W        W 7175  14.840  28.422   0.772
38947W        W 7176  39.473  28.549  12.958
38948W        W 7177   3.863   9.976   4.758
38949W        W 7178  34.615  39.018  11.185
38950W        W 7179  31.066  13.267  13.938
38951W        W 7180  34.283  43.019  14.554
38952W        W 7181  24.246   1.561  13.392
38953W        W 7182  36.018  21.127   1.658
38954W        W 7183  26.792  39.945  13.510
38955W        W 7184  40.366  39.895  11.451
38956W        W 7185  15.811   1.339   3.144
38957W        W 7186  14.377   4.795   3.745
38958W        W 7187  11.276   2.953  11.870
38959W        W 7188  36.222  11.592   2.925
38960W        W 7189  12.745   5.995   2.282
38961W        W 7190  34.797  18.295   1.332
38962W        W 7191  21.583  27.349   3.658
38963W        W 7192  27.091  26.304   0.696
38964W        W 7193  30.304   7.708   4.263
38965W        W 7194  35.537   8.227   3.658
38966W        W 7195  32.583  26.933  13.565
38967W        W 7196  19.074  42.865  11.690
38968W        W 7197  10.600  25.522  11.955
38969W        W 7198  11.034  16.105   4.052
38970W        W 7199  20.668  24.028  13.440
38971W        W 7200  10.314  15.183   2.144
38972W        W 7201  25.619  13.909  10.647
38973W        W 7202  25.552  22.158   4.798
38974W        W 7203  21.425  37.576  13.498
38975W        W 7204  30.221  22.153   0.257
38976W        W 7205   3.479  31.028   4.972
38977W        W 7206   0.174  21.526   4.646
38978W        W 7207   3.642   7.645   4.855
38979W        W 7208  18.224  14.867  14.944
38980W        W 7209  24.115  40.459   0.687
38981W        W 7210  20.051  36.549   2.825
38982W        W 7211  39.861  34.797  12.622
38983W        W 7212  10.766   9.065  12.584
38984W        W 7213   3.675  22.770  12.510
38985W        W 7214   3.208  30.529  12.113
38986W        W 7215  27.921  16.745  11.183
38987W        W 7216  12.230  15.300  10.589
38988W        W 7217  37.832   9.265   9.713
38989W        W 7218  19.615  42.769   1.806
38990W        W 7219  31.051  32.527  11.678
38991W        W 7220  15.160  35.882   2.649
38992W        W 7221   5.782  31.459   3.955
38993W        W 7222   1.796  39.943  13.379
38994W        W 7223  38.080   4.240   4.729
38995W        W 7224   9.876  21.579  11.364
38996W        W 7225   7.000  21.010  10.363
38997W        W 7226  24.791  34.119   1.309
38998W        W 7227  19.231  24.568   3.986
38999W        W 7228  37.361  18.525  13.365
39000W        W 7229  14.750  32.001   1.307
39001W        W 7230  25.946  19.984  12.481
39002W        W 7231  24.448  14.722  11.885
39003W        W 7232   1.773   9.189   3.746
39004W        W 7233  13.128   9.297   4.284
39005W        W 7234  42.356  24.433  14.962
39006W        W 7235   1.709  10.436  11.168
39007W        W 7236  26.774  30.980  13.075
39008W        W 7237  23.733  39.790   0.194
39009W        W 7238  31.803  26.628   3.349
39010W        W 7239   9.748   3.843   1.933
39011W        W 7240  14.390  20.569   4.606
39012W        W 7241  23.134  37.449  13.879
39013W        W 7242  44.035   5.826  14.275
39014W        W 7243   1.684  26.089  12.177
39015W        W 7244  11.351   8.825   3.211
39016W        W 7245   9.622   3.418   0.230
39017W        W 7246   9.192  40.693  12.058
39018W        W 7247   4.661  31.388   2.188
39019W        W 7248   8.604  35.553   3.365
39020W        W 7249   4.725  11.373  13.925
39021W        W 7250   9.716  41.907  13.352
39022W        W 7251  39.489  43.988   1.791
39023W        W 7252  33.411  38.934  12.628
39024W        W 7253  10.839  17.727  14.294
39025W        W 7254   8.097  11.112  14.797
39026W        W 7255  36.696   0.363  13.997
39027W        W 7256  14.126  33.164  12.150
39028W        W 7257  29.284   6.034  12.099
39029W        W 7258  24.202  25.072   1.850
39030W        W 7259  11.483  31.456  14.965
39031W        W 7260  12.362  38.123   4.209
39032W        W 7261   8.597   1.379   3.354
39033W        W 7262  24.877   3.389   1.775
39034W        W 7263   9.256  23.993  12.417
39035W        W 7264  34.714  30.498   0.237
39036W        W 7265  24.465   7.052  11.833
39037W        W 7266  23.950  19.037  13.057
39038W        W 7267  33.541  36.893  13.475
39039W        W 7268  13.173  15.138  10.364
39040W        W 7269   0.551  22.004  11.554
39041W        W 7270  31.236  44.484   5.088
39042W        W 7271   0.811   1.977   5.124
39043W        W 7272  20.670  34.996  14.440
39044W        W 7273  13.133  29.865   3.125
39045W        W 7274  33.710  12.425   4.777
39046W        W 7275  35.160   7.063   0.514
39047W        W 7276   9.714   1.580  12.261
39048W        W 7277  21.054  11.907  11.458
39049W        W 7278  39.597   0.346  12.543
39050W        W 7279  16.721  31.868  11.520
39051W        W 7280  41.948  32.398   3.960
39052W        W 7281  40.719  30.305  12.577
39053W        W 7282   1.457  39.810   2.624
39054W        W 7283  33.501  22.095   0.588
39055W        W 7284   8.167   5.797  12.538
39056W        W 7285  38.974  38.554   0.333
39057W        W 7286   4.358  26.216   4.510
39058W        W 7287   5.127  27.008  14.341
39059W        W 7288   0.945  44.754   0.011
39060W        W 7289  36.086  14.384  11.270
39061W        W 7290  11.852  19.779   2.234
39062W        W 7291   1.160  16.078   1.854
39063W        W 7292   2.272  34.056  11.233
39064W        W 7293   6.682  28.081   2.842
39065W        W 7294   0.988  14.987  13.147
39066W        W 7295  25.734  16.279  10.977
39067W        W 7296  10.825  27.982   0.881
39068W        W 7297  41.710  25.422   0.022
39069W        W 7298  40.767  24.872  13.865
39070W        W 7299   9.400  18.361   4.307
39071W        W 7300   6.669   7.323   1.473
39072W        W 7301  35.097  18.196   1.796
39073W        W 7302  24.871  11.656  11.070
39074W        W 7303  44.941  44.407  12.935
39075W        W 7304   2.450   7.747  14.824
39076W        W 7305  16.675   3.360  12.002
39077W        W 7306  11.034  41.455   3.117
39078W        W 7307  10.629  35.417   3.384
39079W        W 7308  12.296  14.456   3.032
39080W        W 7309  23.119   8.836   4.207
39081W        W 7310   0.495   8.314   2.791
39082W        W 7311  18.496  23.040   5.002
39083W        W 7312   8.381  34.623  12.535
39084W        W 7313  37.360  44.363  11.640
39085W        W 7314  22.065  17.825  11.101
39086W        W 7315  33.168  33.599  14.784
39087W        W 7316   8.908   4.789  14.827
39088W        W 7317  22.724  13.330  13.478
39089W        W 7318  12.336  33.587  11.858
39090W        W 7319  13.286  33.499  14.808
39091W        W 7320  25.017  38.874  10.722
39092W        W 7321  17.669  17.239   1.965
39093W        W 7322  40.110  41.922   2.069
39094W        W 7323  28.650  29.067  13.719
39095W        W 7324  18.895  32.594  13.359
39096W        W 7325   8.250  20.537  11.120
39097W        W 7326  26.033  44.081  14.860
39098W        W 7327   6.108  17.012  13.802
39099W        W 7328  28.449  26.505  12.133
39100W        W 7329  23.643  40.316   1.818
39101W        W 7330   0.802  12.407  13.908
39102W        W 7331   8.811  15.880  12.683
39103W        W 7332  11.203   9.881   2.356
39104W        W 7333  41.067  13.695  13.659
39105W        W 7334  31.690  40.327  12.921
39106W        W 7335  32.018  20.996  10.245
39107W        W 7336  29.899  38.886  13.515
39108W        W 7337  15.108  25.673  10.301
39109W        W 7338  29.628  42.827   4.585
39110W        W 7339  23.682  34.427  10.847
39111W        W 7340  31.479  18.832   4.586
39112W        W 7341  15.286  35.149  12.950
39113W        W 7342  25.566  10.219  13.806
39114W        W 7343  14.263  39.023   4.552
39115W        W 7344  43.472  25.675  12.025
39116W        W 7345  41.338  29.803   0.381
39117W        W 7346  17.674  18.938  11.079
39118W        W 7347  36.936   5.146   4.500
39119W        W 7348  30.010  25.547   2.431
39120W        W 7349   6.925  10.133   3.409
39121W        W 7350  23.205  31.511   3.213
39122W        W 7351  30.453  10.443  12.611
39123W        W 7352  16.283   4.674   3.407
39124W        W 7353  27.142  30.659  13.332
39125W        W 7354   0.896  16.454  10.179
39126W        W 7355  14.352  35.057   1.204
39127W        W 7356  36.431  39.859  13.515
39128W        W 7357  21.563   5.978   2.372
39129W        W 7358   5.251  38.441  13.536
39130W        W 7359  41.249  37.913   3.249
39131W        W 7360  14.637  28.594  13.068
39132W        W 7361  34.436  40.225   2.871
39133W        W 7362  43.756  26.141  12.516
39134W        W 7363  25.642  28.984  11.804
39135W        W 7364  44.697  31.984  10.259
39136W        W 7365  31.576  31.572   2.876
39137W        W 7366  19.813  30.121   1.359
39138W        W 7367  16.559  36.900  10.694
39139W        W 7368  13.234   6.939  14.849
39140W        W 7369   5.254  25.398  13.655
39141W        W 7370  37.484  39.878  13.864
39142W        W 7371  14.299  31.916   0.516
39143W        W 7372  37.937  18.794  14.034
39144W        W 7373   3.420   0.479   4.527
39145W        W 7374  30.479  37.535   2.621
39146W        W 7375  32.369  20.713   3.556
39147W        W 7376  27.622  19.751  14.316
39148W        W 7377   0.816  31.388   1.360
39149W        W 7378  39.880   8.316   3.608
39150W        W 7379  32.016  28.161  11.626
39151W        W 7380  44.994  26.508  14.912
39152W        W 7381  16.782   9.816  14.738
39153W        W 7382  20.590  27.305  12.277
39154W        W 7383  10.848   9.748  12.166
39155W        W 7384   9.701  27.066  11.551
39156W        W 7385  30.937  18.698   4.694
39157W        W 7386  35.916  36.295   0.274
39158W        W 7387  42.572  29.491  11.580
39159W        W 7388   1.399  43.804  13.563
39160W        W 7389  15.097  11.331   0.893
39161W        W 7390  22.340  12.189  12.377
39162W        W 7391   4.754   1.981   4.613
39163W        W 7392   0.708  19.728   1.436
39164W        W 7393   5.665  24.603  13.035
39165W        W 7394  27.483  35.869  10.456
39166W        W 7395  24.643   4.993  12.975
39167W        W 7396  15.444  26.153   1.924
39168W        W 7397  26.462  13.465  11.871
39169W        W 7398   2.091  28.759   4.244
39170W        W 7399  12.370  19.720   3.960
39171W        W 7400  41.258  35.179   0.315
39172W        W 7401  37.642  35.527   3.202
39173W        W 7402   5.615  42.311  13.060
39174W        W 7403   4.841  35.944   3.363
39175W        W 7404  28.235  42.852   0.918
39176W        W 7405  18.072  13.271  10.843
39177W        W 7406  32.358  19.052   3.351
39178W        W 7407  28.740  12.730   3.604
39179W        W 7408  22.711  21.984  10.914
39180W        W 7409  21.461  39.551  13.464
39181W        W 7410  30.644  24.982   0.942
39182W        W 7411  17.824  14.131  11.012
39183W        W 7412  29.182  36.382  11.012
39184W        W 7413  12.714  11.439  13.831
39185W        W 7414  31.954  17.039  13.420
39186W        W 7415   3.152  23.199  14.713
39187W        W 7416  10.241   7.814   2.409
39188W        W 7417  28.601  44.619   4.053
39189W        W 7418   2.627  34.078  11.639
39190W        W 7419  15.204  37.808   1.258
39191W        W 7420  35.445  27.991   2.725
39192W        W 7421  18.144  21.963  14.830
39193W        W 7422  33.060   5.834  14.440
39194W        W 7423  29.106  30.248   2.807
39195W        W 7424  12.834  32.138  14.964
39196W        W 7425  30.063  17.518   3.820
39197W        W 7426   2.758  39.563  14.329
39198W        W 7427  17.665  35.503  12.179
39199W        W 7428  35.553  29.587  11.418
39200W        W 7429  35.273  16.853  14.023
39201W        W 7430   2.795   0.226  11.958
39202W        W 7431  21.152  15.102  13.384
39203W        W 7432  28.569  29.456  12.384
39204W        W 7433   0.279   3.281   3.592
39205W        W 7434  23.563  29.263   0.369
39206W        W 7435   0.451  13.175   1.022
39207W        W 7436  34.488   0.950  10.639
39208W        W 7437  21.096   9.623   2.362
39209W        W 7438   3.804  43.498  12.450
39210W        W 7439  42.354  17.815   4.477
39211W        W 7440  16.720  22.206  13.973
39212W        W 7441  20.024  33.988   3.192
39213W        W 7442   1.420  12.140  10.896
39214W        W 7443   8.479  32.451   1.010
39215W        W 7444  41.741  23.879   3.573
39216W        W 7445  10.622  40.111  12.972
39217W        W 7446  23.994   6.878  12.490
39218W        W 7447  32.730  40.926   0.577
39219W        W 7448  36.417   5.241  12.832
39220W        W 7449  42.217   6.848   1.878
39221W        W 7450  37.563  19.228  11.724
39222W        W 7451  40.713   5.838   4.622
39223W        W 7452  42.552  37.072  12.485
39224W        W 7453  22.245   4.283   3.904
39225W        W 7454  24.244   9.598   1.984
39226W        W 7455  28.915  15.653  12.963
39227W        W 7456  38.507  21.501   4.939
39228W        W 7457  36.250  12.259   4.148
39229W        W 7458  11.943  17.910  13.482
39230W        W 7459  23.724  35.882   4.101
39231W        W 7460  21.659  34.309   1.245
39232W        W 7461   0.121  11.233  13.277
39233W        W 7462  30.152  35.100  13.996
39234W        W 7463  44.943  12.045   2.614
39235W        W 7464  22.060  17.831  11.632
39236W        W 7465  13.508  32.576  11.638
39237W        W 7466  16.410  42.559   1.294
39238W        W 7467  10.852  41.373  14.488
39239W        W 7468  37.994  32.294   4.828
39240W        W 7469  18.547   8.622   5.114
39241W        W 7470  22.941  20.303  11.742
39242W        W 7471  14.664   2.626  11.451
39243W        W 7472  43.091  40.969  14.881
39244W        W 7473   6.390   9.928  13.648
39245W        W 7474  23.059   0.429  12.596
39246W        W 7475  19.636  22.459   0.758
39247W        W 7476  43.258  12.616   1.244
39248W        W 7477   0.500  14.703   3.790
39249W        W 7478  23.100   8.238  12.129
39250W        W 7479  32.825   6.777   4.279
39251W        W 7480  17.748   6.750   4.819
39252W        W 7481  34.511   5.533  11.022
39253W        W 7482  25.984  24.468   4.930
39254W        W 7483  20.473   8.666  10.693
39255W        W 7484  38.000  12.077  12.526
39256W        W 7485  14.464  42.850  12.605
39257W        W 7486  17.223  39.061  14.960
39258W        W 7487   0.600  41.940   1.621
39259W        W 7488  25.197  40.317   3.785
39260W        W 7489  15.793   9.140  12.939
39261W        W 7490   0.183  39.055  11.116
39262W        W 7491  27.824   6.371  13.486
39263W        W 7492  40.518  29.086   0.261
39264W        W 7493  21.886  34.547   9.927
39265W        W 7494   3.034  40.902   3.742
39266W        W 7495  30.679  24.179   1.352
39267W        W 7496  33.351  12.247  13.805
39268W        W 7497  26.225  33.400   4.111
39269W        W 7498  17.975  30.107   5.401
39270W        W 7499  40.983  11.398   3.105
39271W        W 7500  14.157   1.524  13.139
39272W        W 7501  30.040  21.708   2.685
39273W        W 7502  10.195  26.473   2.791
39274W        W 7503  30.486  32.565  13.257
39275W        W 7504   2.989  27.947   2.102
39276W        W 7505  42.268  11.951   1.824
39277W        W 7506  22.587  33.525   0.333
39278W        W 7507   9.246  42.566   0.430
39279W        W 7508  38.837  18.077  10.735
39280W        W 7509  43.890  33.871  10.969
39281W        W 7510  36.160  42.280  11.451
39282W        W 7511  35.481   4.983  11.916
39283W        W 7512  25.705  40.591  12.479
39284W        W 7513  39.439  36.113   1.856
39285W        W 7514   1.401  30.932  11.553
39286W        W 7515  28.881  42.279   1.405
39287W        W 7516  35.560  24.086   0.484
39288W        W 7517  41.810  23.718  14.818
39289W        W 7518  27.161  21.943  12.473
39290W        W 7519  29.952   7.403   3.416
39291W        W 7520  23.945  39.872   2.834
39292W        W 7521   5.087  28.071   0.249
39293W        W 7522  27.100   4.922  11.973
39294W        W 7523  22.523  22.126   1.548
39295W        W 7524  26.691   7.920  11.796
39296W        W 7525   2.714  23.874   1.857
39297W        W 7526  43.544  25.492  13.043
39298W        W 7527  20.026   3.153  13.446
39299W        W 7528  16.080  34.069   4.717
39300W        W 7529   7.668  24.661  14.989
39301W        W 7530  39.622  16.239  14.989
39302W        W 7531  21.595  22.102  13.188
39303W        W 7532  18.120  38.121  13.835
39304W        W 7533   1.662  27.586   4.684
39305W        W 7534  32.034  27.269  13.386
39306W        W 7535  16.602   4.764   2.541
39307W        W 7536   9.862  24.926   2.330
39308W        W 7537  25.859  14.774  12.037
39309W        W 7538  33.626   0.744   1.386
39310W        W 7539   5.370  27.573   2.385
39311W        W 7540  16.805  10.116   3.461
39312W        W 7541  33.300  42.653  10.193
39313W        W 7542  18.015  16.741  14.981
39314W        W 7543  22.278   1.450   0.094
39315W        W 7544   1.731  44.664  12.649
39316W        W 7545  14.974   3.807  14.835
39317W        W 7546  26.208  22.411   0.151
39318W        W 7547  16.582  11.112  11.961
39319W        W 7548  31.506   1.719   4.437
39320W        W 7549   7.751  31.212   4.595
39321W        W 7550  21.004   0.332  12.465
39322W        W 7551   0.079   3.814   4.953
39323W        W 7552  33.912  18.561   2.311
39324W        W 7553  12.757  41.480   1.181
39325W        W 7554   3.846  12.398   2.307
39326W        W 7555  29.081  42.262   4.640
39327W        W 7556  34.265  27.954  10.676
39328W        W 7557   4.247   5.388   2.963
39329W        W 7558   7.885  13.818   1.978
39330W        W 7559   4.088  19.142  13.302
39331W        W 7560  25.357   6.774   3.869
39332W        W 7561  19.721   9.294   2.691
39333W        W 7562  20.498  28.943  12.950
39334W        W 7563  29.050  26.145   2.334
39335W        W 7564  37.631  29.256  10.426
39336W        W 7565  30.772   5.573   1.390
39337W        W 7566   2.354  30.858  14.971
39338W        W 7567  24.213  37.163  13.266
39339W        W 7568  26.646   8.227   0.401
39340W        W 7569  27.236  39.013  11.127
39341W        W 7570  44.486  28.517  14.883
39342W        W 7571  42.449  30.043  11.022
39343W        W 7572   2.817   2.970   0.832
39344W        W 7573  17.356  10.224  14.105
39345W        W 7574  42.962  27.164  10.787
39346W        W 7575   7.861  44.883  12.690
39347W        W 7576  34.203  39.874   1.234
39348W        W 7577  31.915   8.423   2.776
39349W        W 7578  36.469   9.096  10.644
39350W        W 7579  31.697  44.706   4.068
39351W        W 7580  17.067  38.508   4.246
39352W        W 7581  17.305  36.615   0.824
39353W        W 7582  24.575   1.218   1.534
39354W        W 7583  15.844  44.972  10.772
39355W        W 7584   6.477  25.491   5.116
39356W        W 7585  22.286   7.156   0.300
39357W        W 7586  14.299  30.686   1.893
39358W        W 7587  29.945   5.840   4.548
39359W        W 7588  14.789  32.659  11.631
39360W        W 7589  11.826   8.314  12.150
39361W        W 7590  25.212  18.262  11.056
39362W        W 7591  32.142  26.183   4.631
39363W        W 7592  37.787  22.536  14.534
39364W        W 7593  23.308  20.613  13.890
39365W        W 7594  26.848  23.683  14.361
39366W        W 7595  13.345   9.867  12.818
39367W        W 7596   2.613   6.621  10.891
39368W        W 7597  21.530  36.859   4.428
39369W        W 7598   5.294  18.338   1.703
39370W        W 7599  26.914  35.603  11.093
39371W        W 7600  37.601  43.420   0.557
39372W        W 7601  12.218   9.632   1.907
39373W        W 7602  27.016  19.558   1.682
39374W        W 7603  14.075  27.269  14.181
39375W        W 7604   6.189  27.267   2.806
39376W        W 7605  37.926  44.129  10.503
39377W        W 7606  29.958  24.609   3.442
39378W        W 7607  25.382  18.420  12.934
39379W        W 7608  30.508  27.524  13.155
39380W        W 7609   9.689  33.531  12.344
39381W        W 7610  18.127  27.532  11.580
39382W        W 7611  29.190  22.095   2.715
39383W        W 7612  32.028  25.266   0.892
39384W        W 7613  43.374  10.912  10.497
39385W        W 7614  41.556  43.382  14.721
39386W        W 7615  19.085   5.410   0.181
39387W        W 7616  43.871  10.497   2.748
39388W        W 7617  21.610  10.628  14.925
39389W        W 7618  35.607  32.360  10.973
39390W        W 7619   6.791  15.354  11.216
39391W        W 7620  10.976   3.767  11.506
39392W        W 7621   6.903   8.369   0.913
39393W        W 7622  13.846  43.074  12.706
39394W        W 7623   1.246  41.538   0.325
39395W        W 7624  36.568  14.497   1.461
39396W        W 7625   2.893  39.782  12.679
39397W        W 7626  41.230   3.216  11.763
39398W        W 7627  14.696  35.524  11.356
39399W        W 7628   6.857  15.789   4.517
39400W        W 7629  30.686  15.317   3.365
39401W        W 7630  27.768   8.701  13.026
39402W        W 7631  42.585  17.782   3.187
39403W        W 7632  34.188  21.804   4.008
39404W        W 7633  31.172  24.931   0.843
39405W        W 7634  20.121  17.164  13.122
39406W        W 7635   8.623  10.808   2.257
39407W        W 7636  37.395  23.475   3.907
39408W        W 7637   6.773  12.649  14.362
39409W        W 7638  32.942  41.085   4.651
39410W        W 7639  25.077   8.616   2.721
39411W        W 7640  19.304  11.737  13.440
39412W        W 7641  39.091  33.210  13.412
39413W        W 7642  20.744  24.009  10.710
39414W        W 7643   2.446  33.423   1.127
39415W        W 7644  22.211   5.795  10.525
39416W        W 7645  41.921  41.225  14.024
39417W        W 7646  15.282  26.898   2.319
39418W        W 7647  14.098   2.998  12.877
39419W        W 7648  30.729  44.299  14.285
39420W        W 7649  24.300  24.045   3.567
39421W        W 7650  42.453  35.177   3.079
39422W        W 7651  30.709  10.251  14.460
39423W        W 7652  41.866  18.491  12.446
39424W        W 7653   0.853  34.085   0.747
39425W        W 7654  39.621  13.249  11.697
39426W        W 7655  34.326  25.438   2.754
39427W        W 7656  10.996   5.272  13.739
39428W        W 7657  22.692  31.656   2.321
39429W        W 7658  37.918  42.274  11.235
39430W        W 7659  19.649  43.740   2.802
39431W        W 7660  39.337  14.121  14.390
39432W        W 7661  12.861   2.509  12.509
39433W        W 7662  11.385  11.314   1.299
39434W        W 7663  21.231   4.313   2.661
39435W        W 7664  31.639  26.479  11.775
39436W        W 7665  18.666  33.631  13.340
39437W        W 7666  42.339   3.095  10.827
39438W        W 7667  27.929  33.289   4.213
39439W        W 7668  21.310  17.909  11.060
39440W        W 7669  18.017  34.612   2.446
39441W        W 7670  44.983  23.323  12.369
39442W        W 7671  42.380  16.825   4.433
39443W        W 7672  11.157  18.362   4.858
39444W        W 7673  12.310   4.793   1.317
39445W        W 7674  25.613  44.759   2.703
39446W        W 7675  42.013  24.570   2.412
39447W        W 7676   2.608   1.713   1.856
39448W        W 7677  24.518  29.176  13.920
39449W        W 7678   3.794  13.700   1.807
39450W        W 7679   9.941   2.003   4.308
39451W        W 7680  12.010  31.552   0.132
39452W        W 7681  37.515   0.179  14.423
39453W        W 7682  34.504  35.112   0.771
39454W        W 7683   2.017  26.048   3.545
39455W        W 7684  34.956   9.578   0.654
39456W        W 7685  24.143  23.195   3.149
39457W        W 7686  32.073  43.029  11.099
39458W        W 7687  34.663  22.400  12.602
39459W        W 7688  32.399   2.347   2.043
39460W        W 7689  41.973  41.037   4.372
39461W        W 7690  35.099   8.000   3.308
39462W        W 7691  32.142  16.032  14.965
39463W        W 7692  35.475  17.083   4.642
39464W        W 7693  27.654  21.472   3.624
39465W        W 7694   1.925  39.792  14.177
39466W        W 7695   5.864   6.165   3.942
39467W        W 7696  15.790  15.993  10.677
39468W        W 7697   2.904   0.877   3.808
39469W        W 7698  23.050  39.100   0.250
39470W        W 7699  28.413  23.478   2.331
39471W        W 7700  32.599  24.921   4.547
39472W        W 7701  35.907  22.511  13.850
39473W        W 7702   7.494  25.594  10.744
39474W        W 7703  28.946   9.913  14.483
39475W        W 7704  39.252  40.341   1.838
39476W        W 7705   0.082   2.689  11.499
39477W        W 7706  22.297   8.182   2.158
39478W        W 7707  23.979  25.671  14.718
39479W        W 7708  12.512  44.268  12.591
39480W        W 7709  37.604  29.736   2.742
39481W        W 7710  44.314  23.229  13.490
39482W        W 7711   9.193  19.283  12.541
39483W        W 7712  19.902   2.968   5.050
39484W        W 7713   5.618  32.165  11.161
39485W        W 7714  19.355  25.987  10.733
39486W        W 7715  23.405   8.219   3.645
39487W        W 7716  39.572   4.825   4.765
39488W        W 7717  37.972   8.166   2.222
39489W        W 7718  31.318  38.429   1.357
39490W        W 7719  13.794  24.105  11.910
39491W        W 7720   1.674  22.318   3.728
39492W        W 7721   3.353  11.327   2.451
39493W        W 7722  37.638  19.488  13.410
39494W        W 7723  44.610  10.164  10.782
39495W        W 7724  16.534   3.202   2.269
39496W        W 7725   6.566   5.043   1.973
39497W        W 7726   0.478  43.704   3.143
39498W        W 7727  10.630  31.208  13.971
39499W        W 7728  39.232  13.551  11.563
39500W        W 7729  17.291  18.178  12.871
39501W        W 7730  12.580  20.130   1.752
39502W        W 7731  18.920  41.559   4.853
39503W        W 7732   4.628  30.872   1.327
39504W        W 7733  16.116  19.067   1.161
39505W        W 7734   7.299  13.729  13.980
39506W        W 7735  31.843  23.280  13.450
39507W        W 7736  29.827  40.839  14.008
39508W        W 7737  24.680  30.464   3.085
39509W        W 7738  19.138  23.104  13.747
39510W        W 7739  39.253  42.353   4.559
39511W        W 7740  28.822   3.826  14.967
39512W        W 7741  15.183  18.819   1.257
39513W        W 7742  25.572  40.886   4.643
39514W        W 7743  23.744   3.370   0.178
39515W        W 7744  20.334  13.293  10.539
39516W        W 7745  25.303  34.860   3.304
39517W        W 7746  36.444  15.788  13.471
39518W        W 7747  32.608  40.500   1.370
39519W        W 7748   8.171   4.425   2.716
39520W        W 7749  44.432  36.456   4.090
39521W        W 7750  10.137  12.326   2.287
39522W        W 7751  33.785  27.927  10.351
39523W        W 7752  40.405  15.576   1.704
39524W        W 7753  39.568   0.656   1.683
39525W        W 7754  14.429   5.963  11.175
39526W        W 7755  37.876  34.102   0.278
39527W        W 7756  10.244   9.903   0.321
39528W        W 7757   5.650   0.706   4.549
39529W        W 7758  25.670  36.154   9.772
39530W        W 7759   0.715   1.984  14.758
39531W        W 7760  22.284   6.897   2.464
39532W        W 7761   0.560  40.180  10.700
39533W        W 7762  15.724   2.521  12.841
39534W        W 7763   4.973   3.261   3.247
39535W        W 7764  21.094  29.557  12.025
39536W        W 7765  39.903  15.661   1.883
39537W        W 7766   5.871  39.900   0.894
39538W        W 7767  24.645  22.240  13.292
39539W        W 7768  12.829  22.977   3.764
39540W        W 7769  39.440   5.565  14.068
39541W        W 7770  25.775  28.948  13.337
39542W        W 7771  23.478  16.290   0.269
39543W        W 7772  35.474   9.669   0.672
39544W        W 7773  27.431   5.173  13.159
39545W        W 7774   6.513  44.527   0.828
39546W        W 7775  25.046  23.862  13.955
39547W        W 7776  22.982  13.185  13.891
39548W        W 7777  23.025   9.203  14.875
39549W        W 7778   1.444  11.402  14.429
39550W        W 7779  32.474   3.891  10.947
39551W        W 7780  41.296   7.412   1.900
39552W        W 7781   5.783  17.517  14.550
39553W        W 7782  32.651  10.370  12.073
39554W        W 7783  39.604  33.234   2.627
39555W        W 7784  25.126  28.670   4.018
39556W        W 7785  18.834  40.112  14.927
39557W        W 7786  32.446  21.989   2.908
39558W        W 7787  35.583  22.341  10.778
39559W        W 7788  17.216  18.901  14.052
39560W        W 7789  29.858   0.908  13.392
39561W        W 7790  16.969   7.142  14.580
39562W        W 7791  17.053  14.881   3.443
39563W        W 7792   6.873   0.783   3.666
39564W        W 7793  42.012  42.765   4.642
39565W        W 7794  43.787  44.397   1.747
39566W        W 7795  28.438   8.386  14.810
39567W        W 7796   5.256  43.645   1.429
39568W        W 7797  28.676  36.962  11.959
39569W        W 7798  12.838  22.105  10.556
39570W        W 7799  19.147  25.558  10.955
39571W        W 7800  36.290  37.258   2.348
39572W        W 7801   2.704  24.043   4.671
39573W        W 7802  24.937  35.390  11.499
39574W        W 7803  44.966  36.397  11.246
39575W        W 7804  39.483  24.144  14.753
39576W        W 7805  16.989  44.473  11.470
39577W        W 7806  25.169  21.146  10.643
39578W        W 7807  21.490  17.607   0.987
39579W        W 7808  11.828  21.319   0.525
39580W        W 7809  13.184  13.615  12.820
39581W        W 7810  37.051  14.817   2.767
39582W        W 7811   9.851  39.363   3.190
39583W        W 7812  24.177   4.334  14.474
39584W        W 7813  33.421   6.918  14.951
39585W        W 7814  23.965  42.342  13.019
39586W        W 7815  16.723  10.690  11.167
39587W        W 7816   1.312  31.334   4.281
39588W        W 7817  39.938  10.666   3.149
39589W        W 7818  39.607  10.020  10.720
39590W        W 7819  31.143  21.619   2.426
39591W        W 7820  10.601  27.190  12.514
39592W        W 7821  24.010  27.566   4.513
39593W        W 7822  14.422  37.993   4.816
39594W        W 7823   3.976  17.809  14.699
39595W        W 7824  40.641   8.033   4.449
39596W        W 7825  34.604   2.442  12.950
39597W        W 7826  25.724  13.633  12.561
39598W        W 7827  42.488  14.629  12.089
39599W        W 7828   9.274  33.935  10.154
39600W        W 7829  41.619  19.985  13.797
39601W        W 7830  44.931  15.123  12.877
39602W        W 7831  12.871  15.323   2.290
39603W        W 7832  35.096  24.729  12.401
39604W        W 7833   1.351   2.862  12.572
39605W        W 7834  14.815  17.629  13.513
39606W        W 7835  36.725   2.139   4.631
39607W        W 7836  35.286  17.738   2.101
39608W        W 7837  33.110  20.667  10.899
39609W        W 7838  33.609   2.159   1.304
39610W        W 7839  20.817   5.193  11.870
39611W        W 7840  13.040  40.599   2.979
39612W        W 7841  10.973   2.948  12.573
39613W        W 7842  24.702  40.905  13.642
39614W        W 7843   2.626  29.222  11.102
39615W        W 7844  44.778  32.056   0.431
39616W        W 7845   0.612  18.251   1.200
39617W        W 7846  16.216   9.217  14.155
39618W        W 7847  28.705  43.239   3.329
39619W        W 7848  22.188  38.524   3.588
39620W        W 7849  15.378  23.193  12.584
39621W        W 7850  19.636   6.960  14.341
39622W        W 7851   5.146  14.858   0.997
39623W        W 7852  12.087  34.472   0.014
39624W        W 7853  32.161  14.850  10.681
39625W        W 7854   5.777  42.550   1.359
39626W        W 7855  13.295  16.902  14.694
39627W        W 7856  26.899  41.309   4.520
39628W        W 7857  18.175  38.407  14.779
39629W        W 7858  39.391   5.309  10.649
39630W        W 7859  34.092  28.797  11.160
39631W        W 7860  23.666  17.722  14.829
39632W        W 7861  11.150  11.250  11.424
39633W        W 7862  33.047  16.619   2.244
39634W        W 7863  24.966  29.870  14.720
39635W        W 7864  37.042   7.748  13.353
39636W        W 7865  27.090  22.329   1.207
39637W        W 7866  17.178  22.182   1.376
39638W        W 7867  40.727   6.760  10.606
39639W        W 7868  29.514  30.552   3.676
39640W        W 7869  30.670  24.746   2.679
39641W        W 7870  11.598  15.731  11.555
39642W        W 7871   3.574   9.917  14.051
39643W        W 7872   9.822  11.484   0.855
39644W        W 7873  13.099  17.751   0.159
39645W        W 7874  13.013  33.947  14.859
39646W        W 7875  13.899   7.915   0.803
39647W        W 7876  33.458   6.173   0.870
39648W        W 7877   0.452  38.783   9.765
39649W        W 7878  31.572  37.839   4.893
39650W        W 7879   9.360  34.380   4.013
39651W        W 7880  20.951  16.540   4.029
39652W        W 7881  20.792  11.172   2.209
39653W        W 7882  20.085  30.908   2.800
39654W        W 7883  26.104  17.551   2.482
39655W        W 7884  39.604  16.731   4.504
39656W        W 7885  42.264  17.595  12.812
39657W        W 7886  28.512  22.604  12.831
39658W        W 7887  28.402  21.063   2.317
39659W        W 7888  35.941   5.709  14.789
39660W        W 7889  35.769  31.970  14.672
39661W        W 7890  41.771  32.151  14.472
39662W        W 7891   9.384  28.041   4.197
39663W        W 7892   6.846  27.635   4.717
39664W        W 7893  22.706  33.537   1.749
39665W        W 7894   1.783   2.195  11.060
39666W        W 7895  22.790  25.195   3.283
39667W        W 7896  35.346  13.810   0.944
39668W        W 7897  19.469  15.606  12.898
39669W        W 7898   7.247  24.013   1.264
39670W        W 7899  41.588  43.459   4.371
39671W        W 7900  11.406  10.783  14.891
39672W        W 7901   0.932   2.973  10.662
39673W        W 7902  42.027  25.296  13.346
39674W        W 7903   7.464  29.969   4.562
39675W        W 7904  35.849   6.717   4.947
39676W        W 7905  38.456  21.792   0.982
39677W        W 7906  35.650   2.908  14.472
39678W        W 7907  16.825  21.782  13.065
39679W        W 7908  31.031  19.246   0.484
39680W        W 7909   1.912  18.593   1.773
39681W        W 7910  42.226  44.527  10.895
39682W        W 7911   7.668  16.199  13.149
39683W        W 7912  26.524  41.853   2.706
39684W        W 7913  14.141  18.092   4.090
39685W        W 7914  21.525   4.793  13.477
39686W        W 7915   3.918  37.979  12.491
39687W        W 7916  42.398  43.591   1.788
39688W        W 7917   0.991  32.617   4.868
39689W        W 7918  27.064  30.452   5.096
39690W        W 7919  41.804  17.128  12.386
39691W        W 7920   8.222  20.626   0.064
39692W        W 7921  21.487   2.017  14.320
39693W        W 7922  42.741  14.680  11.650
39694W        W 7923  16.816  36.673   3.638
39695W        W 7924  20.032  22.103   2.444
39696W        W 7925  27.036  20.429   4.249
39697W        W 7926  30.793  13.736   4.098
39698W        W 7927  28.844  24.336   4.197
39699W        W 7928  32.912  10.446  12.506
39700W        W 7929  32.975  18.195  12.626
39701W        W 7930  30.984  21.795   3.874
39702W        W 7931  25.504   8.936   5.072
39703W        W 7932  36.663  18.687   4.204
39704W        W 7933   3.488  22.001   3.758
39705W        W 7934  32.441  36.918  10.672
39706W        W 7935  41.388  35.595   4.364
39707W        W 7936  38.082  20.482   4.657
39708W        W 7937  13.768  21.024  11.603
39709W        W 7938  17.084  38.409  12.049
39710W        W 7939   5.554  26.162   3.606
39711W        W 7940  27.869  32.695   5.491
39712W        W 7941  14.633   6.701   1.429
39713W        W 7942  28.559  42.898   3.746
39714W        W 7943  15.392   9.480   0.490
39715W        W 7944  31.415  31.062   0.802
39716W        W 7945   0.223  38.465  11.655
39717W        W 7946  20.049   4.442   4.309
39718W        W 7947  34.427  20.037  10.554
39719W        W 7948  18.187  36.358  14.677
39720W        W 7949  35.816  40.599   0.217
39721W        W 7950  11.518  16.401   1.023
39722W        W 7951  30.468  40.148   4.537
39723W        W 7952  21.130  18.010   0.953
39724W        W 7953  24.720  28.544   4.538
39725W        W 7954  30.473  13.175  10.698
39726W        W 7955  31.899  12.290   4.580
39727W        W 7956  26.713  20.001   3.329
39728W        W 7957  37.163   6.107  11.164
39729W        W 7958  23.627  16.712   2.666
39730W        W 7959   6.759  33.150   1.925
39731W        W 7960  18.976  19.607  14.967
39732W        W 7961  40.095  13.250  11.528
39733W        W 7962  10.497   4.998   3.543
39734W        W 7963  38.961  26.687  12.022
39735W        W 7964  44.861   7.902   3.826
39736W        W 7965  23.644  36.546  13.665
39737W        W 7966  14.031  36.370  13.396
39738W        W 7967   1.954  26.957  13.849
39739W        W 7968  30.677  30.048  11.959
39740W        W 7969  19.634  42.984  12.005
39741W        W 7970  44.846   4.244   4.364
39742W        W 7971  31.700  23.140  10.672
39743W        W 7972  35.296  18.088  14.468
39744W        W 7973  28.346  35.510   4.974
39745W        W 7974  12.513  19.921   2.742
39746W        W 7975  35.380  33.695  13.453
39747W        W 7976  31.506  37.415   1.572
39748W        W 7977  14.699  20.759  12.555
39749W        W 7978  36.520  38.523   4.511
39750W        W 7979   5.204  21.407  11.541
39751W        W 7980  11.742  19.288  11.562
39752W        W 7981  31.718   9.315  12.035
39753W        W 7982   8.564  28.691  11.998
39754W        W 7983  33.111   1.998  11.861
39755W        W 7984  39.041  36.735   3.400
39756W        W 7985   6.366  13.613   3.804
39757W        W 7986   9.707  20.982  13.009
39758W        W 7987  11.128   9.661   4.999
39759W        W 7988  32.774  28.563   1.620
39760W        W 7989   9.724  38.653   3.949
39761W        W 7990  33.068   5.000  13.994
39762W        W 7991  33.340  22.810  11.104
39763W        W 7992  26.174  32.714  11.420
39764W        W 7993   0.039  33.676  12.007
39765W        W 7994   6.330  36.010  10.475
39766W        W 7995  30.048  26.455   2.871
39767W        W 7996   4.974  31.857   5.018
39768W        W 7997  41.639   4.137  10.999
39769W        W 7998   1.245  30.879  14.255
39770W        W 7999  14.334  29.688  11.850
39771W        W 8000  16.081  33.213   4.104
39772W        W 8001  25.624  37.497   5.079
39773W        W 8002   1.312  20.649  12.112
39774W        W 8003  38.699  21.306  10.647
39775W        W 8004  31.517   7.212  12.023
39776W        W 8005  15.572   5.580  10.134
39777W        W 8006  19.416  19.291   5.098
39778W        W 8007   0.827  40.392   3.179
39779W        W 8008  36.143  20.248   1.808
39780W        W 8009   0.677  33.331   1.428
39781W        W 8010  20.568   9.594   2.262
39782W        W 8011   5.453  27.883   3.581
39783W        W 8012  35.726  27.999  14.560
39784W        W 8013   7.116  38.509  11.281
39785W        W 8014   8.820  21.836   4.154
39786W        W 8015  22.255  37.316  11.385
39787W        W 8016  20.986  12.215  13.489
39788W        W 8017  39.365  18.290   1.903
39789W        W 8018  20.218  43.443   4.872
39790W        W 8019  10.811  39.779  12.420
39791W        W 8020  34.459  28.870  13.527
39792W        W 8021  41.048  30.589  13.353
39793W        W 8022  38.884  16.540   0.313
39794W        W 8023  21.068  31.900   1.860
39795W        W 8024  20.807  31.462   1.321
39796W        W 8025  16.034   5.437   2.072
39797W        W 8026  44.794  20.995   0.134
39798W        W 8027   1.915   2.718   2.796
39799W        W 8028  28.243  23.672   4.338
39800W        W 8029   3.246   3.702  13.052
39801W        W 8030  10.834   0.784  13.503
39802W        W 8031  16.554   4.293  13.122
39803W        W 8032  20.183  26.193   2.613
39804W        W 8033  43.759   0.390   4.331
39805W        W 8034  38.958   6.443  14.788
39806W        W 8035   1.108  43.039  12.287
39807W        W 8036   5.251   8.719   3.787
39808W        W 8037  29.397  14.540  13.476
39809W        W 8038  20.491  34.470  14.459
39810W        W 8039  13.218  14.669   3.788
39811W        W 8040  16.672  37.877   4.624
39812W        W 8041  29.649  10.830   1.715
39813W        W 8042  20.160  30.048   0.096
39814W        W 8043  18.093   0.144   4.569
39815W        W 8044  14.581  23.531  10.028
39816W        W 8045  31.104  39.276  14.618
39817W        W 8046  28.193  38.007   4.363
39818W        W 8047  28.087  23.802   3.647
39819W        W 8048  22.525  28.644   3.132
39820W        W 8049   4.757   6.446  11.668
39821W        W 8050  28.677  31.300   4.549
39822W        W 8051  11.172   1.495   4.149
39823W        W 8052  43.024  33.449  12.290
39824W        W 8053  32.536  26.375   0.790
39825W        W 8054  25.211   2.548   1.399
39826W        W 8055  36.152   8.746   0.327
39827W        W 8056   3.311  33.420   3.205
39828W        W 8057  20.511  44.963   2.265
39829W        W 8058  26.471  24.102  10.801
39830W        W 8059  38.858   1.442  14.278
39831W        W 8060  23.565  21.635  12.011
39832W        W 8061  39.887  26.859  14.420
39833W        W 8062  27.758  24.518   2.314
39834W        W 8063  16.106  23.496   0.364
39835W        W 8064  24.994  16.524  14.169
39836W        W 8065  42.418  37.982  14.454
39837W        W 8066   4.653  34.472  10.030
39838W        W 8067   3.353  34.976   3.950
39839W        W 8068  20.692   6.285  12.002
39840W        W 8069  19.677  22.989  11.566
39841W        W 8070  41.815  26.054  14.468
39842W        W 8071  14.793  11.733   3.805
39843W        W 8072  11.083  39.399   4.571
39844W        W 8073   7.813  23.178  11.017
39845W        W 8074  43.000  14.207  11.693
39846W        W 8075  21.491  23.198   2.212
39847W        W 8076   7.992  28.907   0.087
39848W        W 8077  43.304  38.489  12.069
39849W        W 8078  16.147  16.749  14.775
39850W        W 8079  44.827  11.321   4.538
39851W        W 8080   8.753  12.087   1.871
39852W        W 8081  36.345   7.668   1.240
39853W        W 8082  15.711  26.856   1.311
39854W        W 8083  15.226  29.569   1.429
39855W        W 8084  34.469  10.830   2.437
39856W        W 8085  28.261  25.504   5.281
39857W        W 8086  39.054  27.470   2.275
39858W        W 8087   3.497  22.616   3.700
39859W        W 8088  37.971  26.623  11.925
39860W        W 8089  19.281   7.611   4.258
39861W        W 8090  36.403  44.060  12.972
39862W        W 8091  41.706  17.927  11.643
39863W        W 8092  20.571  25.678  13.061
39864W        W 8093   9.856   3.735  14.773
39865W        W 8094   9.548  33.336  14.417
39866W        W 8095  37.512  13.866   1.404
39867W        W 8096  34.488  11.623   1.911
39868W        W 8097  44.794  31.021   0.581
39869W        W 8098  39.962  37.580  10.778
39870W        W 8099  36.853  44.828  11.057
39871W        W 8100   3.927  39.480  11.076
39872W        W 8101  34.067  13.333  12.565
39873W        W 8102  20.305  25.175  13.482
39874W        W 8103  32.903   4.247  10.908
39875W        W 8104  44.381  14.091   3.362
39876W        W 8105  16.156  27.601  14.840
39877W        W 8106  14.045  33.686   0.908
39878W        W 8107  38.343  41.826   2.669
39879W        W 8108  30.864  28.187  11.580
39880W        W 8109  34.384   6.467  13.913
39881W        W 8110   3.492  20.716  13.414
39882W        W 8111  30.490   7.920  11.495
39883W        W 8112  38.562  39.430  14.433
39884W        W 8113  21.127   0.430   3.104
39885W        W 8114  19.496  22.655  13.831
39886W        W 8115  12.297   2.362   4.914
39887W        W 8116  36.334  42.379  12.549
39888W        W 8117  21.578  42.374  11.694
39889W        W 8118   0.023  32.187  12.155
39890W        W 8119  22.394   9.390  11.175
39891W        W 8120  27.921  44.181  12.396
39892W        W 8121  37.832   6.008  13.130
39893W        W 8122  22.910   6.669   4.249
39894W        W 8123  36.942  19.764  12.559
39895W        W 8124  33.043   7.754   2.369
39896W        W 8125  36.029  34.869  13.291
39897W        W 8126  36.642  17.604   4.498
39898W        W 8127  42.568  34.934   4.382
39899W        W 8128  25.893  34.530  10.778
39900W        W 8129  33.061   5.348   3.627
39901W        W 8130  44.263  12.795   9.747
39902W        W 8131  10.440   4.485   0.090
39903W        W 8132   2.542  40.390   2.124
39904W        W 8133  40.567  15.477  12.529
39905W        W 8134   1.438  14.124  11.190
39906W        W 8135  27.189  13.190  13.077
39907W        W 8136  36.067  32.819  13.955
39908W        W 8137  34.547  10.202   1.628
39909W        W 8138  40.348   2.778   2.948
39910W        W 8139  34.430   8.159   0.259
39911W        W 8140  35.393   3.660   4.817
39912W        W 8141  32.538  29.671  11.992
39913W        W 8142  31.717  21.301  11.731
39914W        W 8143  22.964   0.437   3.790
39915W        W 8144  42.734   2.826  14.633
39916W        W 8145  13.502  42.442   2.833
39917W        W 8146  12.866  36.108   0.486
39918W        W 8147  25.975  43.061   0.706
39919W        W 8148   6.285  16.169  12.561
39920W        W 8149  35.422  21.220  13.965
39921W        W 8150   3.404  34.926   4.468
39922W        W 8151   8.405  37.830  14.213
39923W        W 8152  22.427  24.073  13.305
39924W        W 8153  20.180  28.953   3.672
39925W        W 8154  31.411  13.605   1.237
39926W        W 8155  34.708  43.424   1.129
39927W        W 8156  40.367  40.316  13.982
39928W        W 8157   6.349  42.340  10.457
39929W        W 8158  10.086  23.555  12.448
39930W        W 8159  23.244  26.940   4.271
39931W        W 8160  12.244  41.126  14.993
39932W        W 8161  22.870  18.236  14.057
39933W        W 8162  19.494  16.680  10.558
39934W        W 8163  15.748  28.644  14.686
39935W        W 8164  35.560  41.271  12.491
39936W        W 8165  19.066  38.006  10.565
39937W        W 8166  11.327   5.727   2.776
39938W        W 8167  16.291  21.187   2.258
39939W        W 8168  22.953   7.829   1.434
39940W        W 8169  16.609  28.345  11.116
39941W        W 8170   8.305  42.286  10.433
39942W        W 8171  21.071  32.417   1.853
39943W        W 8172  36.637  37.830   3.947
39944W        W 8173  17.640   9.426  14.999
39945W        W 8174  41.259  40.246   0.007
39946W        W 8175   4.967  26.483   0.434
39947W        W 8176  37.866  21.148   2.229
39948W        W 8177  35.656  15.691   4.194
39949W        W 8178   3.879  36.986  12.451
39950W        W 8179  36.829  29.426  11.022
39951W        W 8180   3.366  32.387   4.302
39952W        W 8181  37.730  41.257  14.290
39953W        W 8182  39.862  15.255   4.565
39954W        W 8183  12.580  23.642   1.421
39955W        W 8184  10.717  18.142  12.978
39956W        W 8185  37.807  30.433   0.387
39957W        W 8186   6.223  26.930   3.321
39958W        W 8187  43.621  32.403   4.783
39959W        W 8188  41.202  25.996  12.533
39960W        W 8189  14.529  39.101  14.583
39961W        W 8190  43.973   1.305  12.052
39962W        W 8191  11.680  34.736   5.148
39963W        W 8192   2.508   3.928   0.704
39964W        W 8193  25.746  25.216  10.189
39965W        W 8194  43.894   7.155  13.157
39966W        W 8195  25.009  16.606   1.766
39967W        W 8196   4.245  33.544  12.809
39968W        W 8197   1.791  38.334  14.489
39969W        W 8198  43.520  21.970  12.385
39970W        W 8199  38.945   4.713   2.673
39971W        W 8200  40.025  38.611  12.452
39972W        W 8201  16.024  43.523  11.557
39973W        W 8202  14.615  30.123   0.502
39974W        W 8203   8.362  34.494   1.855
39975W        W 8204  40.833   6.426  13.954
39976W        W 8205   0.490  25.560  10.743
39977W        W 8206   2.664  18.766  11.443
39978W        W 8207  31.835  21.080   4.757
39979W        W 8208  23.469   8.229   0.837
39980W        W 8209  30.842  44.557  12.931
39981W        W 8210  22.013   6.543  11.660
39982W        W 8211  36.140  39.437  14.906
39983W        W 8212  42.904   3.193   4.283
39984W        W 8213  22.968  17.617   0.911
39985W        W 8214  40.558  44.907  12.079
39986W        W 8215   0.195  41.632   0.994
39987W        W 8216  30.665  26.506  11.771
39988W        W 8217  42.014  24.172   1.196
39989W        W 8218  38.518   7.150  12.846
39990W        W 8219  40.751  39.808   2.348
39991W        W 8220   1.501   2.305   4.172
39992W        W 8221  33.384  11.179   3.249
39993W        W 8222  31.777  14.411  13.883
39994W        W 8223  41.555  22.033   0.282
39995W        W 8224  17.224  41.212  10.299
39996W        W 8225  25.633  42.652   4.348
39997W        W 8226   8.546  34.617   2.398
39998W        W 8227  32.951  33.676   1.240
39999W        W 8228  13.910  34.356  11.943
40000W        W 8229   5.234  35.088   3.302
40001W        W 8230  34.037  10.385  10.726
40002W        W 8231  11.580   8.374   3.143
40003W        W 8232  10.865  16.334   1.892
40004W        W 8233  41.331  38.150  14.010
40005W        W 8234   6.898   6.758   2.940
40006W        W 8235  10.407  22.278  12.308
40007W        W 8236  20.547  44.192   3.327
40008W        W 8237  15.153   3.882   3.642
40009W        W 8238  32.213  38.548  13.381
40010W        W 8239  18.211   8.940  10.954
40011W        W 8240  12.768  28.315  12.469
40012W        W 8241  27.116  21.127   1.896
40013W        W 8242  17.286  26.674  11.479
40014W        W 8243  18.517   1.322   2.550
40015W        W 8244  31.358  18.279  14.846
40016W        W 8245  16.827  36.895  14.962
40017W        W 8246   1.430  36.685   3.716
40018W        W 8247   3.371  38.394   2.279
40019W        W 8248  29.946  28.482  14.929
40020W        W 8249  14.343  11.870  14.939
40021W        W 8250   2.697  15.345  11.914
40022W        W 8251   0.978  14.907   2.336
40023W        W 8252  17.652  39.837   3.152
40024W        W 8253  26.037  38.637  12.565
40025W        W 8254  18.271  25.676  12.068
40026W        W 8255  39.995  34.549   3.739
40027W        W 8256  16.588  18.566   3.177
40028W        W 8257  38.563  26.254   0.784
40029W        W 8258  43.853   1.220  10.652
40030W        W 8259  14.871  40.209  10.124
40031W        W 8260   7.398  33.573   0.781
40032W        W 8261  44.772  32.380  13.825
40033W        W 8262   8.295   1.698   0.972
40034W        W 8263  11.137   7.188   3.185
40035W        W 8264  27.691  11.051   2.893
40036W        W 8265  34.477  16.856  14.487
40037W        W 8266  18.234  25.431   2.947
40038W        W 8267  38.796  27.662  11.196
40039W        W 8268   8.082  36.506   3.277
40040W        W 8269  13.867  22.638   2.284
40041W        W 8270   9.887  37.511  14.813
40042W        W 8271  42.544  32.519  11.097
40043W        W 8272  37.620  15.279   0.283
40044W        W 8273   0.758   7.171   3.591
40045W        W 8274  22.093  24.365  13.537
40046W        W 8275  39.746  10.003   4.768
40047W        W 8276  14.859   0.125   3.277
40048W        W 8277  14.886  19.925  11.083
40049W        W 8278  16.240  40.342   2.405
40050W        W 8279   4.223  31.136  11.147
40051W        W 8280  17.412  13.649   1.495
40052W        W 8281  27.683   5.235  11.350
40053W        W 8282  31.848   6.786  12.865
40054W        W 8283  37.364  29.220  13.359
40055W        W 8284  13.035  18.597  11.025
40056W        W 8285  17.123  41.295  12.463
40057W        W 8286  38.023  22.221   1.724
40058W        W 8287  35.070   1.998   3.262
40059W        W 8288  21.506  34.615   4.311
40060W        W 8289  13.850   0.358  14.431
40061W        W 8290  38.213   8.241  12.000
40062W        W 8291  33.600  33.072  11.570
40063W        W 8292  30.621  20.247   0.944
40064W        W 8293  40.793  44.892  14.724
40065W        W 8294  28.175  37.512  11.514
40066W        W 8295  34.489  21.580  13.828
40067W        W 8296   2.187  43.943   0.771
40068W        W 8297  20.183  43.815  14.156
40069W        W 8298  10.581  13.865  10.644
40070W        W 8299  20.008   1.698  13.505
40071W        W 8300  37.090  15.726   1.691
40072W        W 8301  26.447   1.219  12.606
40073W        W 8302  22.707  14.602  12.703
40074W        W 8303   2.011   5.947   2.812
40075W        W 8304  34.109  20.822   4.230
40076W        W 8305  21.161  14.775  11.184
40077W        W 8306   6.256  39.782  12.037
40078W        W 8307   3.508  37.050  10.568
40079W        W 8308  19.639   3.293   2.992
40080W        W 8309  18.938  12.128  10.879
40081W        W 8310  40.440  41.930  10.694
40082W        W 8311   3.090  12.630   1.289
40083W        W 8312   1.822   7.409  14.381
40084W        W 8313  16.011  41.962  13.070
40085W        W 8314  13.867  43.508   1.823
40086W        W 8315  22.297  35.385  12.948
40087W        W 8316  30.581   0.625   4.700
40088W        W 8317   9.429  11.615   9.794
40089W        W 8318   5.432  32.422   0.982
40090W        W 8319  28.935  21.935   2.277
40091W        W 8320  24.250  41.432   3.726
40092W        W 8321  27.603  16.743   2.671
40093W        W 8322  34.743   8.728  10.709
40094W        W 8323   0.901  18.336  12.073
40095W        W 8324  10.223  42.502  14.743
40096W        W 8325  34.791  38.149  11.204
40097W        W 8326   7.252   9.381   1.871
40098W        W 8327  42.264   0.735   2.660
40099W        W 8328  13.064   7.536   9.845
40100W        W 8329  33.399  12.851  13.120
40101W        W 8330  39.670   9.595  13.522
40102W        W 8331   5.177  11.828  10.740
40103W        W 8332  36.545  27.044  14.457
40104W        W 8333  16.802  33.398   0.485
40105W        W 8334  21.335  44.756   2.016
40106W        W 8335  29.571  32.844  13.401
40107W        W 8336  29.565  16.065  12.441
40108W        W 8337   9.464  10.922  10.721
40109W        W 8338   5.114  13.710   1.450
40110W        W 8339  27.587  35.832  10.974
40111W        W 8340   9.570  10.255   4.313
40112W        W 8341  23.581  29.007  10.626
40113W        W 8342  23.577  28.473  12.449
40114W        W 8343  27.156   7.650  13.441
40115W        W 8344  40.573   8.302   9.721
40116W        W 8345  33.816   5.869   3.197
40117W        W 8346   4.621  13.474  12.477
40118W        W 8347  16.999  18.125   3.280
40119W        W 8348  15.025   8.396   4.138
40120W        W 8349  39.766  21.387   3.332
40121W        W 8350   5.381   8.472  14.776
40122W        W 8351  14.753  13.175  10.674
40123W        W 8352   4.032   7.876  14.947
40124W        W 8353  18.481  14.356   4.559
40125W        W 8354  40.352  40.077   3.172
40126W        W 8355   5.421  25.494  12.691
40127W        W 8356  13.143   4.455  13.573
40128W        W 8357  12.779   2.006   0.178
40129W        W 8358   5.685  18.832   3.735
40130W        W 8359  41.121  24.480  13.903
40131W        W 8360  30.066  26.443  12.916
40132W        W 8361  33.936  24.939   1.772
40133W        W 8362  32.359  30.877  13.469
40134W        W 8363  39.788  36.401   1.219
40135W        W 8364  17.044  20.927  11.424
40136W        W 8365  22.922  19.832   4.028
40137W        W 8366  19.644  15.713   1.977
40138W        W 8367  30.794  13.749  10.709
40139W        W 8368  36.577   9.010   1.705
40140W        W 8369   2.697  35.438   1.451
40141W        W 8370  41.207  29.762  11.960
40142W        W 8371  10.956  18.169  12.525
40143W        W 8372  16.015  28.002   0.773
40144W        W 8373  10.406  29.551  11.948
40145W        W 8374  37.561  13.636  11.253
40146W        W 8375   0.564  21.185   5.049
40147W        W 8376   1.813  25.922  13.016
40148W        W 8377  10.095  10.810   3.197
40149W        W 8378  17.669  18.263  13.499
40150W        W 8379  20.309   2.255  12.121
40151W        W 8380  26.022  43.831  10.704
40152W        W 8381   5.002  15.362  11.179
40153W        W 8382   9.675  14.661  13.609
40154W        W 8383   8.858  13.190   2.746
40155W        W 8384  44.391  14.255  13.769
40156W        W 8385   2.943  26.025  14.973
40157W        W 8386  21.492  25.321  12.565
40158W        W 8387   5.672  26.953  14.369
40159W        W 8388  26.391  25.308   2.428
40160W        W 8389  42.885  10.383   2.580
40161W        W 8390  29.666  35.863   2.363
40162W        W 8391  43.779  16.874   4.433
40163W        W 8392  12.489   8.866   2.338
40164W        W 8393  38.443  41.287  10.920
40165W        W 8394  26.116  26.605   2.687
40166W        W 8395   2.253  26.005  12.120
40167W        W 8396   3.959  30.878  10.375
40168W        W 8397   4.989  19.493   3.655
40169W        W 8398  28.717  44.799  11.013
40170W        W 8399   2.219   3.216  14.949
40171W        W 8400  36.230   5.687   0.211
40172W        W 8401  41.846  19.487   1.318
40173W        W 8402  43.236  31.197   1.716
40174W        W 8403   2.764   3.866  13.002
40175W        W 8404   1.899  42.729  11.995
40176W        W 8405  30.457  15.596  10.720
40177W        W 8406  32.551  43.457  14.469
40178W        W 8407  34.033  15.933  11.552
40179W        W 8408   7.938  15.202   3.605
40180W        W 8409  42.518  29.146  13.025
40181W        W 8410  44.587  42.866  12.142
40182W        W 8411   9.947  42.728   3.324
40183W        W 8412  20.745  17.089   1.982
40184W        W 8413  13.611  24.559  12.159
40185W        W 8414  14.085  37.476  11.416
40186W        W 8415  24.109  21.903  11.220
40187W        W 8416   1.420   0.531   2.333
40188W        W 8417   7.998  16.557   0.220
40189W        W 8418   6.530  44.311  11.545
40190W        W 8419  39.782  10.184  11.164
40191W        W 8420  21.913  20.260   1.714
40192W        W 8421  42.149   6.304  14.962
40193W        W 8422  24.570   2.256  12.419
40194W        W 8423  12.545  28.392  13.297
40195W        W 8424  34.128  33.351   4.187
40196W        W 8425  35.880  42.855   0.251
40197W        W 8426  26.660   6.286  13.460
40198W        W 8427  18.196   5.892  13.976
40199W        W 8428  15.732  17.851   4.188
40200W        W 8429   4.752  37.132  14.121
40201W        W 8430  41.814  19.466  13.900
40202W        W 8431  15.530  43.929  13.869
40203W        W 8432  28.158  26.669  13.536
40204W        W 8433  11.165  32.695   4.289
40205W        W 8434  21.191  20.277  11.733
40206W        W 8435  35.391  26.865  11.846
40207W        W 8436   9.368   5.893  13.787
40208W        W 8437   1.254  11.464   0.882
40209W        W 8438  14.114  31.043   0.317
40210W        W 8439  38.042  15.304  11.601
40211W        W 8440  20.570  16.681   1.298
40212W        W 8441  15.746   7.868  14.280
40213W        W 8442   7.954   5.512  14.231
40214W        W 8443   0.296   2.869  13.108
40215W        W 8444  34.249  28.787   2.710
40216W        W 8445  19.622  11.978   1.257
40217W        W 8446  43.003  36.729   4.898
40218W        W 8447  26.614  18.159   0.363
40219W        W 8448  10.737   7.757   4.573
40220W        W 8449  40.753  32.210   2.326
40221W        W 8450   9.892  32.519  14.868
40222W        W 8451  25.952  22.323   1.666
40223W        W 8452   5.910  31.004   2.134
40224W        W 8453  19.771   4.874  11.256
40225W        W 8454  22.593  13.972  10.550
40226W        W 8455  20.909  23.194  14.450
40227W        W 8456  44.751   8.917   0.990
40228W        W 8457  44.545   3.037   0.925
40229W        W 8458   6.415  34.397  12.011
40230W        W 8459  34.334  18.883   0.466
40231W        W 8460   4.885  21.152  13.309
40232W        W 8461  33.529  10.866  14.281
40233W        W 8462   6.894  23.126  13.379
40234W        W 8463  31.434  10.422   1.799
40235W        W 8464  14.178  18.351  10.755
40236W        W 8465  24.356  35.361   2.650
40237W        W 8466  20.450  20.042   2.002
40238W        W 8467  32.119  25.465  12.992
40239W        W 8468  14.137  21.789   3.685
40240W        W 8469  39.793   9.276   4.551
40241W        W 8470  27.198  25.799   0.776
40242W        W 8471  29.496  13.640   4.889
40243W        W 8472  16.777  40.803   0.810
40244W        W 8473   3.196  18.646   2.707
40245W        W 8474  17.283  10.343   0.850
40246W        W 8475  28.549  10.673  12.585
40247W        W 8476  26.077  24.515  10.827
40248W        W 8477  24.443  43.699   0.267
40249W        W 8478  10.187  23.089   0.735
40250W        W 8479  15.072  36.631   0.200
40251W        W 8480  33.627   0.742  12.133
40252W        W 8481   2.066  44.690  14.445
40253W        W 8482  24.183  24.182  12.167
40254W        W 8483  24.838  26.644  13.059
40255W        W 8484  42.946  35.540   3.720
40256W        W 8485  42.790   8.470   2.272
40257W        W 8486  26.919  27.110   1.274
40258W        W 8487  33.607  33.650   1.269
40259W        W 8488  44.735  19.506   0.627
40260W        W 8489  28.704  38.900  11.428
40261W        W 8490  14.044  11.589  13.417
40262W        W 8491   9.158  16.397  12.849
40263W        W 8492  31.613  42.753  11.174
40264W        W 8493  42.911  12.640  12.964
40265W        W 8494  42.894  11.255   3.170
40266W        W 8495   7.904  39.037   3.752
40267W        W 8496  21.165   2.890  13.345
40268W        W 8497   9.349  33.558  11.402
40269W        W 8498  13.345   5.193  10.679
40270W        W 8499  31.022  39.952   3.878
40271W        W 8500  20.521  42.269   1.992
40272W        W 8501  38.512  40.934  12.587
40273W        W 8502  44.500  10.278   3.175
40274W        W 8503  11.031   6.232  14.417
40275W        W 8504  15.779  34.550  12.477
40276W        W 8505   5.482   9.858  11.940
40277W        W 8506  36.426  19.084  11.549
40278W        W 8507  44.804   3.417  13.596
40279W        W 8508  11.632   3.518  13.557
40280W        W 8509   9.851  11.236  12.281
40281W        W 8510  42.877  16.015  13.335
40282W        W 8511  25.543  24.824  11.544
40283W        W 8512  24.583  33.313  10.569
40284W        W 8513   5.987  33.200  13.053
40285W        W 8514  15.818  39.935  13.101
40286W        W 8515  23.967  29.288  10.880
40287W        W 8516   0.837  32.383   3.897
40288W        W 8517  15.869  38.951  14.818
40289W        W 8518  21.637  23.907  14.800
40290W        W 8519   0.440  24.243  12.963
40291W        W 8520  12.670   4.142   2.773
40292W        W 8521  35.981  31.463   1.361
40293W        W 8522   6.433  29.353   1.297
40294W        W 8523  44.281   3.185   2.792
40295W        W 8524  17.972  19.357  11.082
40296W        W 8525  42.804   2.191  10.647
40297W        W 8526  30.076  40.221  10.845
40298W        W 8527  39.379   9.591   4.570
40299W        W 8528  24.686  35.320   3.056
40300W        W 8529   2.434  18.473   1.741
40301W        W 8530   4.860  32.670  11.220
40302W        W 8531  13.547  20.148   4.292
40303W        W 8532   9.851  31.581   3.394
40304W        W 8533   2.858   0.708  11.862
40305W        W 8534  32.108  11.418   0.337
40306W        W 8535  14.329  31.084   4.571
40307W        W 8536  39.561   9.319  13.095
40308W        W 8537  32.595  11.579   4.238
40309W        W 8538  43.309  20.546  10.883
40310W        W 8539  36.906  41.263   4.188
40311W        W 8540  10.162  37.443   4.123
40312W        W 8541  26.038  22.548  12.604
40313W        W 8542  21.124  29.087   4.767
40314W        W 8543  25.650   5.450   2.827
40315W        W 8544  21.742  38.254   4.699
40316W        W 8545  32.674  35.885   3.179
40317W        W 8546  39.653  41.378   2.714
40318W        W 8547  17.736  32.285   2.115
40319W        W 8548   3.060  27.718   3.325
40320W        W 8549   7.043   7.464   2.418
40321W        W 8550   0.743  44.041  13.094
40322W        W 8551  17.762  26.516   5.159
40323W        W 8552  19.317  34.908   2.826
40324W        W 8553   2.891  37.860  10.665
40325W        W 8554   2.568   6.678  11.392
40326W        W 8555   6.166  41.389   1.801
40327W        W 8556  13.076  23.475   2.161
40328W        W 8557  27.653   0.996   4.249
40329W        W 8558   9.084  19.164   0.316
40330W        W 8559  17.452  20.635  11.561
40331W        W 8560  35.337  34.910  11.768
40332W        W 8561   1.590  27.442  12.065
40333W        W 8562  39.868  20.612  14.371
40334W        W 8563  21.068  40.057  10.699
40335W        W 8564  15.073   5.375  13.334
40336W        W 8565  16.913   1.443  11.443
40337W        W 8566   8.086   2.980   1.415
40338W        W 8567   5.695  12.075  11.702
40339W        W 8568   6.891  44.196  13.784
40340W        W 8569  39.332  15.282   2.779
40341W        W 8570   5.330  30.232  14.466
40342W        W 8571  18.529  11.270  13.338
40343W        W 8572  15.790  36.675  13.123
40344W        W 8573  18.739  34.400  13.719
40345W        W 8574  36.556  34.897  12.622
40346W        W 8575   9.622  35.445   4.280
40347W        W 8576  24.617  15.231   1.441
40348W        W 8577   0.363  41.332   0.013
40349W        W 8578  23.617   2.389  12.603
40350W        W 8579   8.357  44.514  14.117
40351W        W 8580  11.879   8.128  14.893
40352W        W 8581  29.641   9.808   4.163
40353W        W 8582  37.898   1.493   2.813
40354W        W 8583  39.959  43.976  14.306
40355W        W 8584  30.612   1.421  11.581
40356W        W 8585  11.941  29.858  12.399
40357W        W 8586  24.846  39.614   2.456
40358W        W 8587   1.368  13.395   5.016
40359W        W 8588  43.541  25.983   0.325
40360W        W 8589  29.728  35.987   5.021
40361W        W 8590   5.770  15.267   2.364
40362W        W 8591  16.958  30.566  10.771
40363W        W 8592  21.025  24.718  14.459
40364W        W 8593   8.398   7.757   2.363
40365W        W 8594  18.290  35.926  12.635
40366W        W 8595  39.340  28.719  10.679
40367W        W 8596  20.260  37.617  10.067
40368W        W 8597  42.967  32.937   3.893
40369W        W 8598  13.952  27.954   4.892
40370W        W 8599  38.527  44.578  12.113
40371W        W 8600   7.828  41.537  13.118
40372W        W 8601   5.896  18.037  14.970
40373W        W 8602  27.241  10.212  13.400
40374W        W 8603  29.181  36.050  12.037
40375W        W 8604  21.227   5.659  11.539
40376W        W 8605  10.153  30.132  14.523
40377W        W 8606  24.442  37.662  12.585
40378W        W 8607   0.053  33.854  10.483
40379W        W 8608  18.610  40.743   2.353
40380W        W 8609  11.637   6.815   3.810
40381W        W 8610  28.310  44.110  14.442
40382W        W 8611  19.761   8.834   4.541
40383W        W 8612  28.452   5.510   2.717
40384W        W 8613  22.659   5.414   0.309
40385W        W 8614  15.187   2.799  12.081
40386W        W 8615  32.988  19.599  14.830
40387W        W 8616  19.263  32.084  12.873
40388W        W 8617   2.234  29.677   4.158
40389W        W 8618  31.450  18.188   0.716
40390W        W 8619  32.866  43.249  11.591
40391W        W 8620  43.859   8.639   3.124
40392W        W 8621  28.484  39.458   0.073
40393W        W 8622  28.074  18.339  10.619
40394W        W 8623  42.956  34.506  11.526
40395W        W 8624  22.981  32.861   2.816
40396W        W 8625  41.003  44.351   2.761
40397W        W 8626  36.377   1.709  12.973
40398W        W 8627  20.143  37.555   0.676
40399W        W 8628  35.998  25.100  11.122
40400W        W 8629  16.133  40.442   2.905
40401W        W 8630  12.110  24.694   2.501
40402W        W 8631  27.331  19.922  12.226
40403W        W 8632  30.342  18.861  14.807
40404W        W 8633  19.564  40.023  12.579
40405W        W 8634  19.236  16.778   1.253
40406W        W 8635  40.999  34.961   4.557
40407W        W 8636  13.197  22.719   3.061
40408W        W 8637   0.449  25.107   2.265
40409W        W 8638   4.183  30.022  14.004
40410W        W 8639  28.915   6.882   1.273
40411W        W 8640  36.798  21.042   2.408
40412W        W 8641   5.135  38.884   2.257
40413W        W 8642  31.809  15.419   0.424
40414W        W 8643  31.054   8.282   4.508
40415W        W 8644  35.153  18.776   1.486
40416W        W 8645  41.553  25.074   4.964
40417W        W 8646  36.268  29.199   4.173
40418W        W 8647   2.311   2.734   0.748
40419W        W 8648   5.317  27.960   0.682
40420W        W 8649  35.782   8.399   0.930
40421W        W 8650  24.679  13.500  13.273
40422W        W 8651  27.650  29.772   3.859
40423W        W 8652  11.756  36.025  12.015
40424W        W 8653  26.895  20.967  13.969
40425W        W 8654   9.789  21.650   1.851
40426W        W 8655  36.064  36.360   1.123
40427W        W 8656  16.873  36.818  13.547
40428W        W 8657  17.438  28.676   0.377
40429W        W 8658  22.102  13.610   2.297
40430W        W 8659  37.943  30.673   4.117
40431W        W 8660  13.181  34.423   3.093
40432W        W 8661   3.870  15.488  13.874
40433W        W 8662  32.091  16.461   0.276
40434W        W 8663  32.451  41.032   4.940
40435W        W 8664  39.489   3.187   0.102
40436W        W 8665  24.487  32.628  14.002
40437W        W 8666  21.864  29.604   0.303
40438W        W 8667  25.180   1.512   4.344
40439W        W 8668  28.160  36.893   3.590
40440W        W 8669   5.594  13.655  12.102
40441W        W 8670  24.412   9.230  12.050
40442W        W 8671  15.154  41.079   3.975
40443W        W 8672  37.026  37.532  13.370
40444W        W 8673  36.841   9.083   4.634
40445W        W 8674   2.004  40.256   0.416
40446W        W 8675  41.134  15.700  12.145
40447W        W 8676  18.046   7.502   0.923
40448W        W 8677  14.734  23.494  10.531
40449W        W 8678  36.273  43.007  14.926
40450W        W 8679  33.556   1.211  13.109
40451W        W 8680  13.705   6.134  11.715
40452W        W 8681  32.530  20.746  13.246
40453W        W 8682  24.502  29.514   0.664
40454W        W 8683  31.739   9.680   0.969
40455W        W 8684  13.340  21.156   1.484
40456W        W 8685  11.101  27.099   2.723
40457W        W 8686  16.610  28.195   3.717
40458W        W 8687  34.373  16.236   1.190
40459W        W 8688  29.022  43.174  12.209
40460W        W 8689  26.315  34.358  13.518
40461W        W 8690  37.873  21.058  12.989
40462W        W 8691  13.366   9.757  14.746
40463W        W 8692  24.710  40.732   4.568
40464W        W 8693  20.932  15.190   2.351
40465W        W 8694  37.295  10.743   2.172
40466W        W 8695   9.168  34.870  11.060
40467W        W 8696  27.144  11.144   3.662
40468W        W 8697  31.912  18.191  14.384
40469W        W 8698   2.006  23.106   1.216
40470W        W 8699  38.051  40.965  10.802
40471W        W 8700   1.813  12.789   0.888
40472W        W 8701  37.899   0.748   2.323
40473W        W 8702  22.695   2.414   0.322
40474W        W 8703  26.962   3.926  13.120
40475W        W 8704  33.604   3.855  10.743
40476W        W 8705  14.094   5.127  13.308
40477W        W 8706  41.849   2.947  14.812
40478W        W 8707   3.414  39.043   4.495
40479W        W 8708  18.825   8.888   4.197
40480W        W 8709  37.891  27.671  12.032
40481W        W 8710  31.622  16.185   0.079
40482W        W 8711  21.481  32.010   0.257
40483W        W 8712   4.283  35.928  14.982
40484W        W 8713   4.449   4.846   1.847
40485W        W 8714  10.930   0.359  14.795
40486W        W 8715  34.590  38.355  10.723
40487W        W 8716  31.149  21.071  14.445
40488W        W 8717  11.062  20.176   2.002
40489W        W 8718   5.461  16.690   2.254
40490W        W 8719  15.804   0.320  12.043
40491W        W 8720  22.215  35.547   1.086
40492W        W 8721  13.879  14.287   3.223
40493W        W 8722   3.271  30.432   3.664
40494W        W 8723  41.369  34.847   3.066
40495W        W 8724   0.294  31.498   1.459
40496W        W 8725  39.513  35.512   1.126
40497W        W 8726  11.961  30.083  11.922
40498W        W 8727  32.292   6.176  14.016
40499W        W 8728  31.975  27.605   3.623
40500W        W 8729   6.411   4.968  13.361
40501W        W 8730   3.028  36.472   0.996
40502W        W 8731  43.006  23.449   2.299
40503W        W 8732  22.587  33.820  12.510
40504W        W 8733  43.137  22.316   4.962
40505W        W 8734  40.472   7.167   3.226
40506W        W 8735  29.936  25.621  14.320
40507W        W 8736   0.316  10.959  12.449
40508W        W 8737   8.852   1.806   2.656
40509W        W 8738  21.764  11.802  11.040
40510W        W 8739  38.175  41.707   1.799
40511W        W 8740   6.891  37.600  10.746
40512W        W 8741   5.020   2.734  10.688
40513W        W 8742  10.520   2.355   3.251
40514W        W 8743   8.316   7.490   3.247
40515W        W 8744  41.013   0.231   0.329
40516W        W 8745  27.607  24.968   2.793
40517W        W 8746  14.414  16.633  13.907
40518W        W 8747  25.501   6.711  14.314
40519W        W 8748  24.390  44.034   2.084
40520W        W 8749  26.755  42.968  11.977
40521W        W 8750  31.093  17.258  12.087
40522W        W 8751  11.157  44.065   2.362
40523W        W 8752  41.764   6.878  13.803
40524W        W 8753   6.212   0.523   3.800
40525W        W 8754   8.347   5.308  12.602
40526W        W 8755  12.697  10.196  12.347
40527W        W 8756  25.891   6.663  12.487
40528W        W 8757  26.092   0.452   2.931
40529W        W 8758  25.595  43.946   4.591
40530W        W 8759  26.661   6.339  14.444
40531W        W 8760  14.389  14.340   4.993
40532W        W 8761  35.172   7.968  12.513
40533W        W 8762   6.699  42.011   0.869
40534W        W 8763  17.074  18.647   0.960
40535W        W 8764  36.120  19.416  14.718
40536W        W 8765  15.563   5.917   4.460
40537W        W 8766   2.291  31.849   3.076
40538W        W 8767  18.980  20.059   4.180
40539W        W 8768  40.391   7.116   0.763
40540W        W 8769   4.764  19.561  11.637
40541W        W 8770  24.244  10.650  14.016
40542W        W 8771  17.348  25.436   1.704
40543W        W 8772  39.401  27.499  12.552
40544W        W 8773  23.777  31.908   2.687
40545W        W 8774  39.993  17.321  12.994
40546W        W 8775  20.143  42.182  13.557
40547W        W 8776  33.917  34.547   2.222
40548W        W 8777   4.613   3.991   2.371
40549W        W 8778  16.361  42.822  11.472
40550W        W 8779  26.961   8.740  11.136
40551W        W 8780  43.840  10.372   4.776
40552W        W 8781  39.088  26.970   4.141
40553W        W 8782  29.750  31.448   1.427
40554W        W 8783  21.206  36.415  14.783
40555W        W 8784  36.367  41.765  11.518
40556W        W 8785   2.766  30.621   3.070
40557W        W 8786  32.410  14.228  13.094
40558W        W 8787  30.597  26.207  11.023
40559W        W 8788  38.250  11.705   4.012
40560W        W 8789   9.254  42.477   1.330
40561W        W 8790  25.567  38.814   0.317
40562W        W 8791   1.956  37.063  11.906
40563W        W 8792  40.521  11.754   3.763
40564W        W 8793  12.782   7.212  12.568
40565W        W 8794   5.296  19.669  14.750
40566W        W 8795  39.955   2.379  14.156
40567W        W 8796   9.145  40.697  12.580
40568W        W 8797   4.602  16.354  13.874
40569W        W 8798   7.890  23.019  12.957
40570W        W 8799  24.047  35.001  14.824
40571W        W 8800  23.473  27.610   1.787
40572W        W 8801  33.836  27.471   1.448
40573W        W 8802  19.997   0.392   0.955
40574W        W 8803  19.410  27.662   1.772
40575W        W 8804  32.764  33.914  14.227
40576W        W 8805  43.837  24.463   2.784
40577W        W 8806  22.093  15.619   1.240
40578W        W 8807  14.245  37.497   2.890
40579W        W 8808   7.806   7.164  10.305
40580W        W 8809  13.122  26.065  14.519
40581W        W 8810  26.968  15.929  12.899
40582W        W 8811  39.517  26.963  12.550
40583W        W 8812  43.265  11.698  14.956
40584W        W 8813  31.015  23.298  12.400
40585W        W 8814  44.579  32.914  13.860
40586W        W 8815  29.819  38.187   1.770
40587W        W 8816  39.880  37.406  14.856
40588W        W 8817  30.663  10.369   3.662
40589W        W 8818  23.625  24.127  12.131
40590W        W 8819  35.149  15.337   0.808
40591W        W 8820  44.803  42.408  13.328
40592W        W 8821  44.678   6.840  12.841
40593W        W 8822  37.560  28.732  12.481
40594W        W 8823  12.961  43.998   1.824
40595W        W 8824  13.209  43.281   1.778
40596W        W 8825  31.514   9.825  10.677
40597W        W 8826  18.434  24.886   1.978
40598W        W 8827  13.231  23.770   0.270
40599W        W 8828  42.275  20.480  13.998
40600W        W 8829  24.169  13.172   1.441
40601W        W 8830  14.438  31.446   0.369
40602W        W 8831  28.763  38.954  12.837
40603W        W 8832  34.566   2.477   4.602
40604W        W 8833  23.651  10.061  13.417
40605W        W 8834  20.595  25.228   2.295
40606W        W 8835  35.485  17.962  10.068
40607W        W 8836  17.113  40.551   0.376
40608W        W 8837  21.477  21.773  11.000
40609W        W 8838  36.565   2.926   3.691
40610W        W 8839   9.421   5.464   1.387
40611W        W 8840  42.917  13.587  12.902
40612W        W 8841  24.896  24.037  11.595
40613W        W 8842  18.533   6.234   0.794
40614W        W 8843  34.916   9.129   0.931
40615W        W 8844   6.772  18.044   0.524
40616W        W 8845  38.606   3.834   2.171
40617W        W 8846   3.642   5.422   0.348
40618W        W 8847  10.853   4.246   2.900
40619W        W 8848  35.264  32.152   3.354
40620W        W 8849  32.684  15.632   1.844
40621W        W 8850  10.258   4.850   3.123
40622W        W 8851  15.832  19.622   4.705
40623W        W 8852   3.901  25.525  13.645
40624W        W 8853  10.814  24.973   1.897
40625W        W 8854   6.941  22.022  10.636
40626W        W 8855  14.571  14.103  13.027
40627W        W 8856  11.803  11.933  13.906
40628W        W 8857   3.529  30.000   2.213
40629W        W 8858  11.996  37.259  11.640
40630W        W 8859  15.402  40.890   4.388
40631W        W 8860  19.053  11.266  13.380
40632W        W 8861  19.257  17.103  10.870
40633W        W 8862   2.507  17.295  14.120
40634W        W 8863   0.594  17.149   3.223
40635W        W 8864  31.376  42.710   2.662
40636W        W 8865   5.499  21.212   3.696
40637W        W 8866  25.590  41.269   4.263
40638W        W 8867  23.796  18.604  11.532
40639W        W 8868  29.136  39.711  11.566
40640W        W 8869  28.997  27.087  11.058
40641W        W 8870   7.549  32.399  11.644
40642W        W 8871  32.840   3.101  11.644
40643W        W 8872   4.262  21.689   4.876
40644W        W 8873  37.520  25.052   0.654
40645W        W 8874  21.072  17.635  14.088
40646W        W 8875  31.401  10.194  11.172
40647W        W 8876  42.927  20.823   2.694
40648W        W 8877   2.550  20.695  14.541
40649W        W 8878  27.013  38.803  11.554
40650W        W 8879  40.313   7.145   4.593
40651W        W 8880  11.740  10.856  12.163
40652W        W 8881   1.903  25.244  11.221
40653W        W 8882   9.333   5.571  13.378
40654W        W 8883  12.538  17.361   3.284
40655W        W 8884   6.840  24.393  11.148
40656W        W 8885  38.626  11.082   3.173
40657W        W 8886   1.743   9.781   2.096
40658W        W 8887  10.841  21.668  11.020
40659W        W 8888  14.865   2.255  13.285
40660W        W 8889   9.845  20.019  12.637
40661W        W 8890  34.335  43.474  14.288
40662W        W 8891  16.398   9.378   3.848
40663W        W 8892   4.386  28.251   1.897
40664W        W 8893  22.258  31.624   4.200
40665W        W 8894  34.512  17.791   5.136
40666W        W 8895  38.241   5.689  11.447
40667W        W 8896  31.993  43.282  14.998
40668W        W 8897  11.792   0.400   1.984
40669W        W 8898  22.750  34.150   4.554
40670W        W 8899  18.269   1.477  10.676
40671W        W 8900  16.201  24.003  13.807
40672W        W 8901  24.553  42.748  11.122
40673W        W 8902  27.424  18.499  13.975
40674W        W 8903  36.998  15.110   4.104
40675W        W 8904  28.647  15.561  13.460
40676W        W 8905  15.793  28.034   2.667
40677W        W 8906  12.834  26.202  12.722
40678W        W 8907  42.776  20.658  12.562
40679W        W 8908  34.853  14.404   1.701
40680W        W 8909  37.442   9.697  14.543
40681W        W 8910  44.893  43.423  12.850
40682W        W 8911   6.108  44.372   2.150
40683W        W 8912   8.152  43.743   2.330
40684W        W 8913  35.743  29.066   4.252
40685W        W 8914  16.812   0.574  14.266
40686W        W 8915  43.584  29.584   3.164
40687W        W 8916   9.862  21.540  13.926
40688W        W 8917  39.336  21.306   0.797
40689W        W 8918   1.381   8.114  11.279
40690W        W 8919  20.682  17.291  12.075
40691W        W 8920  21.234  25.410  13.852
40692W        W 8921  20.012  19.829   4.200
40693W        W 8922  23.725  39.491   3.157
40694W        W 8923   6.341  42.529   2.807
40695W        W 8924  19.059  27.277   0.680
40696W        W 8925  13.804  22.737  11.199
40697W        W 8926  31.960  26.646  12.570
40698W        W 8927  32.892   1.780   1.887
40699W        W 8928  36.463   7.425  14.138
40700W        W 8929  18.735  20.069  14.984
40701W        W 8930  30.592  42.513   2.212
40702W        W 8931  38.390  35.027  12.026
40703W        W 8932   6.427  37.383   4.234
40704W        W 8933  19.369  24.240  14.534
40705W        W 8934   4.449   7.191  14.332
40706W        W 8935  15.154  13.270  12.190
40707W        W 8936  29.086  11.727  13.103
40708W        W 8937  44.857  37.422   4.142
40709W        W 8938  44.696  14.796   4.012
40710W        W 8939  37.463  28.492   3.581
40711W        W 8940  18.312  23.161  12.097
40712W        W 8941  34.011  43.403  10.735
40713W        W 8942  27.232   8.593  11.546
40714W        W 8943  38.494   4.058  10.618
40715W        W 8944   4.229  33.897   3.263
40716W        W 8945  35.781  32.391   2.312
40717W        W 8946   3.146  22.230   3.448
40718W        W 8947  12.712  14.751   9.926
40719W        W 8948  18.777  33.066   2.677
40720W        W 8949  31.648  39.002   4.550
40721W        W 8950   7.840  22.053   1.718
40722W        W 8951  25.905  18.479   4.991
40723W        W 8952  20.541  14.544   3.675
40724W        W 8953   6.394  29.561  11.812
40725W        W 8954  17.236  25.272   2.208
40726W        W 8955   5.793  30.179   4.547
40727W        W 8956  28.587   7.056   3.125
40728W        W 8957  41.036  39.473   3.607
40729W        W 8958  38.886  18.719  14.031
40730W        W 8959  40.947  30.008   2.803
40731W        W 8960  40.848  43.294   3.095
40732W        W 8961  40.889  36.550   1.259
40733W        W 8962  16.780  41.009   2.656
40734W        W 8963  25.983   7.874  14.945
40735W        W 8964  19.940  36.553  13.857
40736W        W 8965  21.726   6.587  12.860
40737W        W 8966  23.029   1.525  14.407
40738W        W 8967   6.757   8.303  14.683
40739W        W 8968  17.882  21.939   2.715
40740W        W 8969  20.548   8.468  11.174
40741W        W 8970  43.365  37.935   4.315
40742W        W 8971  14.586  15.396   0.182
40743W        W 8972  14.348  24.562   3.156
40744W        W 8973  13.105   0.517  12.827
40745W        W 8974  21.519  10.211  10.104
40746W        W 8975  25.130  37.334   0.533
40747W        W 8976   4.255  18.020  11.058
40748W        W 8977  37.652  43.051  14.481
40749W        W 8978  34.797  42.383  14.835
40750W        W 8979  40.025  15.399  13.786
40751W        W 8980  43.198  23.976   5.043
40752W        W 8981  25.810   7.455   3.877
40753W        W 8982   1.669  39.511   4.590
40754W        W 8983   4.248  37.479  14.014
40755W        W 8984  34.104  28.970   1.345
40756W        W 8985  28.496  24.609   1.787
40757W        W 8986  30.530  32.809  11.107
40758W        W 8987  14.805  42.336   0.742
40759W        W 8988  43.319  42.935  13.333
40760W        W 8989  33.020  12.091   3.118
40761W        W 8990  19.147   8.247  14.921
40762W        W 8991  41.788   0.654  12.571
40763W        W 8992   8.954  26.136   0.855
40764W        W 8993   7.998  29.602  13.859
40765W        W 8994  35.089   7.468  12.474
40766W        W 8995  12.775  26.832  12.571
40767W        W 8996   5.033  17.741   0.016
40768W        W 8997  26.184   7.654   2.055
40769W        W 8998  29.090   8.873  13.531
40770W        W 8999  21.703  42.961   2.049
40771W        W 9000  31.831  16.579  12.186
40772W        W 9001  27.938  31.181  11.157
40773W        W 9002  13.996  44.493  12.914
40774W        W 9003  39.812  36.838  14.486
40775W        W 9004  12.413  12.705   4.057
40776W        W 9005  26.144  42.897  14.636
40777W        W 9006  22.253   7.685  13.454
40778W        W 9007   3.322  25.561   3.184
40779W        W 9008  12.950  16.511  14.855
40780W        W 9009  25.223  22.310   4.109
40781W        W 9010  21.307  27.799   0.033
40782W        W 9011  15.150  33.170   4.441
40783W        W 9012  40.763   8.568   0.702
40784W        W 9013  33.851  36.363   0.166
40785W        W 9014   8.046   3.350  14.090
40786W        W 9015  19.503  25.759  14.576
40787W        W 9016   7.224  27.709   3.947
40788W        W 9017  37.324   7.820   2.732
40789W        W 9018  23.255  44.527   3.360
40790W        W 9019  14.618   2.202  14.084
40791W        W 9020  20.330  40.937  14.484
40792W        W 9021  19.620   2.393  14.096
40793W        W 9022  38.155  26.158  14.889
40794W        W 9023  44.597  23.166   1.719
40795W        W 9024   9.248   7.474   0.201
40796W        W 9025   2.992   7.377   0.576
40797W        W 9026  33.441  16.144  13.034
40798W        W 9027  13.691  44.858   2.195
40799W        W 9028  37.959  32.504   2.978
40800W        W 9029  41.846  21.265  11.636
40801W        W 9030  19.443  21.075  12.328
40802W        W 9031  38.482  40.008  14.981
40803W        W 9032  26.701  26.042  10.460
40804W        W 9033  23.924  39.478  12.606
40805W        W 9034  15.386  27.332  11.141
40806W        W 9035  43.799  12.765  13.878
40807W        W 9036  34.568  20.721  12.166
40808W        W 9037  32.276  40.021  11.103
40809W        W 9038  24.414  36.889   0.340
40810W        W 9039  43.176  17.837  13.130
40811W        W 9040  23.296  33.412  12.493
40812W        W 9041  42.904  35.656  11.980
40813W        W 9042   3.115   6.903   0.335
40814W        W 9043   8.739  27.813   4.942
40815W        W 9044  28.064  38.763   2.092
40816W        W 9045   3.693   4.895   9.997
40817W        W 9046  23.042  36.927   3.499
40818W        W 9047  27.613   2.638  12.865
40819W        W 9048  29.574  34.633   4.401
40820W        W 9049  12.753  26.202   2.602
40821W        W 9050  34.219  24.979  11.477
40822W        W 9051  38.329   6.871   0.440
40823W        W 9052  39.092   7.318  12.170
40824W        W 9053  37.737  44.900  12.339
40825W        W 9054   5.686  30.703   3.638
40826W        W 9055  25.655  29.041   1.633
40827W        W 9056  41.262  35.055  11.455
40828W        W 9057  30.831  41.455   0.707
40829W        W 9058   8.156  21.928   0.941
40830W        W 9059  19.323  25.122  11.988
40831W        W 9060  44.946  42.431   1.760
40832W        W 9061   8.657  38.513   1.688
40833W        W 9062   1.263  11.542  10.789
40834W        W 9063  19.709   1.143  11.939
40835W        W 9064   6.339  31.736   1.361
40836W        W 9065   0.191   5.124   4.211
40837W        W 9066   5.217  41.917  12.370
40838W        W 9067  13.634  13.102   1.655
40839W        W 9068  35.047  20.938   2.060
40840W        W 9069  12.199  32.468   1.423
40841W        W 9070  31.040   2.748   0.415
40842W        W 9071  17.696  26.114   4.334
40843W        W 9072  36.785  19.179   3.099
40844W        W 9073   9.454  32.100   4.559
40845W        W 9074   2.615  15.108  14.823
40846W        W 9075   4.307   1.037   2.004
40847W        W 9076  18.920  23.936  10.616
40848W        W 9077  32.206  20.786   5.003
40849W        W 9078  26.455  30.148  12.880
40850W        W 9079   0.352   3.022  11.130
40851W        W 9080  27.080  42.411  11.539
40852W        W 9081   1.838  33.088  13.048
40853W        W 9082  19.509  31.933  13.296
40854W        W 9083   0.819  17.064   0.727
40855W        W 9084  22.497  12.552  13.134
40856W        W 9085  34.458  29.227   1.884
40857W        W 9086  41.366   4.256  14.218
40858W        W 9087  38.863  23.136   3.827
40859W        W 9088  43.490  43.312  14.102
40860W        W 9089  29.411  38.123   0.392
40861W        W 9090  16.506   4.220  13.622
40862W        W 9091  12.635  30.937  12.677
40863W        W 9092  25.839  25.664   4.209
40864W        W 9093  40.730   6.862  12.459
40865W        W 9094  44.225   4.833  11.692
40866W        W 9095  12.407  10.604   5.451
40867W        W 9096   6.396   6.788  11.232
40868W        W 9097  24.930  23.389  14.820
40869W        W 9098   7.082  23.525   1.331
40870W        W 9099  44.912  18.699   4.500
40871W        W 9100   0.780  37.161   2.731
40872W        W 9101   3.017  26.555   3.307
40873W        W 9102  15.746  24.812  11.223
40874W        W 9103  42.012  32.465  12.403
40875W        W 9104  31.517  42.094   0.305
40876W        W 9105  36.596  21.426  11.703
40877W        W 9106   0.942  36.866  14.450
40878W        W 9107  28.453   9.877  14.821
40879W        W 9108  44.652  19.945   5.183
40880W        W 9109  10.797  33.054   2.767
40881W        W 9110  22.263  14.528  11.910
40882W        W 9111  20.460  28.345   4.569
40883W        W 9112  35.387  22.749   3.041
40884W        W 9113   8.784  41.101  11.434
40885W        W 9114  16.792   8.123  11.398
40886W        W 9115  18.008   3.400   3.590
40887W        W 9116  18.048  41.935   4.891
40888W        W 9117  43.377  35.568  12.138
40889W        W 9118  15.166  21.330  14.332
40890W        W 9119  11.801   9.858  14.743
40891W        W 9120  25.335  31.656  14.444
40892W        W 9121  24.389  17.172   2.700
40893W        W 9122  31.827  37.039   1.362
40894W        W 9123  43.816  15.069   2.636
40895W        W 9124   9.367   1.487   3.274
40896W        W 9125  13.789  10.621  11.918
40897W        W 9126  43.183  42.471   3.204
40898W        W 9127  16.596  29.565   2.215
40899W        W 9128  37.740  34.002  13.346
40900W        W 9129  22.013  20.546  12.789
40901W        W 9130   7.382  13.135  12.835
40902W        W 9131  37.574  21.978   0.206
40903W        W 9132  34.494  35.651   4.128
40904W        W 9133  10.648  34.133  11.870
40905W        W 9134  24.928  13.603  12.810
40906W        W 9135  29.377  40.371  11.105
40907W        W 9136   1.513  38.070   3.793
40908W        W 9137  33.651  15.614  13.901
40909W        W 9138  14.145   9.386   0.940
40910W        W 9139   8.145  10.048  14.908
40911W        W 9140  41.932  35.149   3.255
40912W        W 9141  42.679  38.146  14.896
40913W        W 9142  29.893  15.122  11.140
40914W        W 9143   4.425  26.434   3.032
40915W        W 9144   6.108  12.184  14.309
40916W        W 9145   5.185  16.734   1.810
40917W        W 9146  40.764   2.750  11.251
40918W        W 9147   5.933   6.833  10.540
40919W        W 9148  32.163   0.010   0.353
40920W        W 9149  30.062  20.160   0.274
40921W        W 9150  38.536  26.718  13.440
40922W        W 9151  17.243   7.719  14.523
40923W        W 9152  30.175  29.950  11.954
40924W        W 9153  20.810  41.077  13.030
40925W        W 9154  22.250  17.268  14.060
40926W        W 9155  15.740  29.484   0.198
40927W        W 9156   0.455  38.340   5.254
40928W        W 9157  14.362  30.829  14.054
40929W        W 9158  31.138   8.636   4.102
40930W        W 9159  32.461  39.515   0.349
40931W        W 9160  40.858  17.600  13.064
40932W        W 9161  17.089   8.398  13.356
40933W        W 9162  33.485  22.235  12.607
40934W        W 9163  12.177  17.238  10.644
40935W        W 9164  10.400  19.485   2.811
40936W        W 9165  37.440  13.319   4.169
40937W        W 9166   0.258   3.884  12.904
40938W        W 9167  32.034  41.409   4.258
40939W        W 9168  42.739  29.592   2.841
40940W        W 9169  28.001  17.850   1.931
40941W        W 9170  36.289  17.708   1.901
40942W        W 9171  38.896  15.078   3.119
40943W        W 9172   9.704  37.654  14.343
40944W        W 9173  17.073  27.200  13.121
40945W        W 9174  38.940   9.828  12.971
40946W        W 9175   8.732  26.423   0.448
40947W        W 9176  17.587  10.709   3.804
40948W        W 9177  16.499  11.652  12.015
40949W        W 9178  42.486  12.750   3.393
40950W        W 9179  28.930  40.710   3.075
40951W        W 9180   6.354  22.546   4.092
40952W        W 9181  31.127   4.232   3.143
40953W        W 9182  14.749  44.644   3.127
40954W        W 9183  19.072  31.449  14.360
40955W        W 9184  35.671  19.547  13.066
40956W        W 9185  10.529   6.013  14.395
40957W        W 9186   1.796   4.335  14.966
40958W        W 9187  30.741  12.732  10.737
40959W        W 9188  26.020  27.103   4.425
40960W        W 9189  28.427  18.636   0.228
40961W        W 9190  30.662  11.938  11.906
40962W        W 9191   3.438  27.558   4.228
40963W        W 9192  26.007  13.309   4.982
40964W        W 9193   6.785  37.452   2.262
40965W        W 9194  28.916   6.983  13.086
40966W        W 9195  30.059   3.290   0.449
40967W        W 9196   9.580  36.844  14.068
40968W        W 9197   2.690  22.365  12.520
40969W        W 9198   7.285  36.450   0.992
40970W        W 9199  21.695  25.132  13.657
40971W        W 9200  39.972  44.444   3.231
40972W        W 9201  21.758   2.043  13.859
40973W        W 9202  38.394  43.626   2.868
40974W        W 9203  22.570  34.694   3.233
40975W        W 9204  19.891  17.782   3.677
40976W        W 9205  28.963  42.855  12.620
40977W        W 9206  44.034  41.349   3.296
40978W        W 9207   8.154  35.738   3.636
40979W        W 9208  41.577   4.314   2.591
40980W        W 9209  26.279  41.118  14.783
40981W        W 9210  14.845  15.092  12.128
40982W        W 9211  30.128  40.565   1.667
40983W        W 9212  39.601  35.421  11.842
40984W        W 9213   0.489   7.298   4.642
40985W        W 9214  28.530   4.814  11.764
40986W        W 9215  38.975  28.628  10.272
40987W        W 9216   2.734  31.689   1.144
40988W        W 9217  22.313  41.796   0.489
40989W        W 9218  10.034  33.904  13.035
40990W        W 9219  26.460  40.104   2.922
40991W        W 9220  34.881  12.383   4.303
40992W        W 9221  29.335  32.137   3.241
40993W        W 9222  31.006   2.438  13.085
40994W        W 9223  15.384  18.263  13.427
40995W        W 9224  23.677   8.311   1.879
40996W        W 9225  34.528  14.617  10.715
40997W        W 9226  27.907  28.527  10.910
40998W        W 9227  30.603   9.631   3.139
40999W        W 9228  25.098  44.257   9.964
41000W        W 9229  38.381  15.373   2.461
41001W        W 9230  34.416  39.011  14.765
41002W        W 9231  34.505  21.113  11.088
41003W        W 9232  35.001  36.027   4.801
41004W        W 9233  38.385  24.645  13.404
41005W        W 9234  41.826  44.103   1.222
41006W        W 9235  13.382  28.460   1.027
41007W        W 9236  34.804  24.666   3.874
41008W        W 9237   7.358  39.315   0.461
41009W        W 9238   4.489  34.848   0.968
41010W        W 9239  24.999  19.931  14.412
41011W        W 9240  26.093  32.406  14.926
41012W        W 9241   8.181   4.668  11.503
41013W        W 9242   2.660  40.958   0.836
41014W        W 9243  43.500  26.598  12.495
41015W        W 9244  25.070  11.616   3.246
41016W        W 9245  24.147   7.797   1.591
41017W        W 9246  21.577  15.597  11.454
41018W        W 9247  21.094  31.803  12.418
41019W        W 9248  36.516  16.774  13.396
41020W        W 9249  10.420  10.394   3.316
41021W        W 9250  15.151  35.794  10.582
41022W        W 9251  21.803  27.161  13.577
41023W        W 9252  24.788  37.580  13.935
41024W        W 9253  10.671   1.537  10.817
41025W        W 9254  15.168  37.433   3.759
41026W        W 9255   1.047  32.707  14.409
41027W        W 9256   8.710  11.173   3.221
41028W        W 9257  44.638   5.420   4.946
41029W        W 9258   8.685  40.517   0.522
41030W        W 9259  21.471   1.393   1.874
41031W        W 9260  41.963   4.748   0.774
41032W        W 9261  27.112   3.917  11.273
41033W        W 9262   2.868  42.312   1.357
41034W        W 9263  31.338  38.522  12.156
41035W        W 9264  40.490   4.822   0.563
41036W        W 9265  10.611  43.232  11.442
41037W        W 9266   6.079  35.999  12.992
41038W        W 9267  21.931  28.016  11.581
41039W        W 9268  16.695  17.949  13.278
41040W        W 9269  20.000   8.858   1.899
41041W        W 9270  28.478  20.625  11.975
41042W        W 9271  19.770  16.599  14.314
41043W        W 9272  36.543  21.012  11.417
41044W        W 9273  23.426  42.159  12.129
41045W        W 9274   1.819  38.033  12.587
41046W        W 9275   8.497  39.145  10.070
41047W        W 9276  34.092   0.899   2.557
41048W        W 9277  40.504  12.298  13.249
41049W        W 9278  12.229  30.208  14.734
41050W        W 9279  25.171  29.715  11.004
41051W        W 9280  25.524  18.728   4.130
41052W        W 9281  23.118   9.333  14.352
41053W        W 9282  28.209  26.664   0.272
41054W        W 9283  30.554  23.162  13.628
41055W        W 9284  18.500  19.607   2.250
41056W        W 9285   8.117  23.186  14.874
41057W        W 9286  39.591  21.162  12.825
41058W        W 9287  31.064  17.764  12.083
41059W        W 9288  44.003  32.764   0.306
41060W        W 9289  43.484  27.956   4.047
41061W        W 9290   0.816  24.477   3.882
41062W        W 9291  38.371  22.773   2.470
41063W        W 9292  38.920   0.328  10.390
41064W        W 9293  11.335  39.137   4.016
41065W        W 9294  23.923  42.350   1.525
41066W        W 9295   8.188   8.328   4.926
41067W        W 9296  19.276  24.524  12.768
41068W        W 9297   2.692  17.097   3.086
41069W        W 9298   9.244  14.400   2.380
41070W        W 9299  25.847  26.862   3.512
41071W        W 9300  29.204  43.286  12.811
41072W        W 9301  35.508  34.920   4.711
41073W        W 9302  20.784  43.921  14.022
41074W        W 9303  36.297  20.833   0.664
41075W        W 9304   6.248   8.209   1.838
41076W        W 9305  23.908  20.757   2.267
41077W        W 9306  44.286   3.383   3.295
41078W        W 9307  44.293  43.850   2.623
41079W        W 9308  32.919  14.033   3.464
41080W        W 9309  35.552  43.273   1.989
41081W        W 9310   9.479  24.556  14.537
41082W        W 9311  44.692  40.279  13.327
41083W        W 9312  40.019  26.655  14.937
41084W        W 9313  35.920   7.596   2.390
41085W        W 9314  41.050  32.030   5.000
41086W        W 9315   9.565  24.481  13.821
41087W        W 9316  39.553   1.355   2.234
41088W        W 9317  21.247  43.067  13.504
41089W        W 9318  14.786   7.305  14.894
41090W        W 9319  24.255  19.207   1.918
41091W        W 9320  27.094   1.283  14.584
41092W        W 9321  17.413  26.472  14.757
41093W        W 9322  30.205  33.905   1.956
41094W        W 9323   7.310  35.065  11.486
41095W        W 9324   6.179  18.845  14.878
41096W        W 9325   5.967  38.121  12.406
41097W        W 9326  25.633  36.743  14.512
41098W        W 9327   1.453  35.298   2.933
41099W        W 9328  25.366  32.813   4.069
41100W        W 9329  38.840  18.076   3.702
41101W        W 9330  31.209  12.984   3.281
41102W        W 9331  20.315   5.926  12.451
41103W        W 9332  10.210  43.755   1.493
41104W        W 9333  25.602  27.196  12.373
41105W        W 9334   4.806  34.906  13.343
41106W        W 9335   8.651  35.920  11.466
41107W        W 9336  33.778  39.403   0.819
41108W        W 9337  23.730   8.406   0.414
41109W        W 9338  22.191  10.590   4.243
41110W        W 9339  23.499  44.946   3.216
41111W        W 9340   0.989  26.155  11.444
41112W        W 9341  14.078  37.742  13.897
41113W        W 9342  12.064  28.100  13.347
41114W        W 9343  40.756  35.498  10.903
41115W        W 9344  32.031   8.794  14.282
41116W        W 9345  27.080   0.517  12.843
41117W        W 9346   9.709  32.583   1.277
41118W        W 9347   0.247  37.090   3.450
41119W        W 9348  28.565  13.416   2.174
41120W        W 9349  40.609  15.153   0.903
41121W        W 9350  40.840   0.353  12.001
41122W        W 9351   8.918  38.355  11.100
41123W        W 9352   5.621   9.858  13.875
41124W        W 9353  36.967  32.086  12.371
41125W        W 9354  36.280   6.298   2.845
41126W        W 9355  37.222  36.286   2.270
41127W        W 9356  16.383  18.703  14.245
41128W        W 9357  37.035  41.935  12.176
41129W        W 9358  16.390  41.863   0.250
41130W        W 9359  40.364   0.360  13.846
41131W        W 9360   5.501  28.439  13.414
41132W        W 9361   6.902  20.925   2.865
41133W        W 9362  14.700  24.002  14.461
41134W        W 9363  44.638  42.466   3.412
41135W        W 9364  29.500  34.907  14.701
41136W        W 9365  19.772  19.281  11.547
41137W        W 9366  41.230  12.069   0.412
41138W        W 9367  21.594  39.750   4.197
41139W        W 9368  35.072  41.981  11.895
41140W        W 9369  12.321   8.903   3.733
41141W        W 9370  33.117  31.603  10.644
41142W        W 9371  20.524  21.095   2.240
41143W        W 9372  20.255   2.479  13.857
41144W        W 9373  17.179  26.477   3.877
41145W        W 9374  29.371  16.812   5.329
41146W        W 9375   5.734  18.536  14.955
41147W        W 9376   3.954  29.655  11.224
41148W        W 9377  27.517   5.960  13.524
41149W        W 9378   4.335  34.649   2.747
41150W        W 9379  43.812  33.448   2.238
41151W        W 9380  10.645  44.549  13.910
41152W        W 9381  21.231   4.821   1.577
41153W        W 9382   7.688  37.611  10.245
41154W        W 9383   2.446  39.388  11.130
41155W        W 9384  41.550  10.648  10.946
41156W        W 9385  39.732  28.617   0.311
41157W        W 9386  44.943   3.754   4.088
41158W        W 9387  32.906  44.379   4.577
41159W        W 9388  15.796   4.209   2.655
41160W        W 9389   4.310  18.505  10.756
41161W        W 9390  11.286  28.241   5.047
41162W        W 9391  27.614  39.023   1.983
41163W        W 9392  16.047   1.834   3.485
41164W        W 9393  32.001  34.397   1.897
41165W        W 9394  41.933  34.611   0.853
41166W        W 9395  12.880  11.772   4.053
41167W        W 9396  19.058  17.123   3.219
41168W        W 9397  26.698  23.248  12.385
41169W        W 9398  34.284  31.828  13.968
41170W        W 9399   0.819  30.354  11.840
41171W        W 9400  16.124   4.789   0.237
41172W        W 9401  42.574  23.741   0.396
41173W        W 9402   6.468  16.632  13.818
41174W        W 9403  14.534  40.915   2.263
41175W        W 9404  40.574  42.733   1.287
41176W        W 9405  19.778  41.782   0.795
41177W        W 9406   9.788   4.011  11.016
41178W        W 9407  22.828  16.439  12.581
41179W        W 9408  28.655  24.695  11.221
41180W        W 9409  14.203  11.188  13.098
41181W        W 9410  33.041  19.266   0.703
41182W        W 9411  44.360  14.391   3.780
41183W        W 9412  30.116  42.055  11.239
41184W        W 9413  10.118   7.600  13.555
41185W        W 9414  20.027   8.294   3.859
41186W        W 9415  11.248  41.281  12.695
41187W        W 9416  27.741  23.756  12.463
41188W        W 9417  39.428  34.138   2.597
41189W        W 9418   6.935  34.823   1.324
41190W        W 9419  11.900  18.282  12.545
41191W        W 9420  33.880  32.139  11.877
41192W        W 9421  26.240  16.587   3.407
41193W        W 9422  37.856   0.885   1.394
41194W        W 9423  32.976  17.853   1.082
41195W        W 9424  25.897  40.553   3.192
41196W        W 9425  20.330  11.858   3.447
41197W        W 9426  34.134  35.540   4.657
41198W        W 9427  27.639  44.790  14.548
41199W        W 9428  42.561  17.730   1.177
41200W        W 9429  36.889  36.318   4.616
41201W        W 9430  38.975  28.032   5.146
41202W        W 9431  27.904   2.175   1.740
41203W        W 9432   8.001   4.530   1.819
41204W        W 9433  22.343  29.715   2.391
41205W        W 9434  40.403  18.289   0.202
41206W        W 9435  10.000  11.147   5.002
41207W        W 9436  15.489  11.327  12.488
41208W        W 9437  23.156  31.132  14.705
41209W        W 9438  12.970  15.784  13.284
41210W        W 9439  33.605  21.760  12.800
41211W        W 9440   6.458  19.273  13.482
41212W        W 9441  16.601  16.665  12.625
41213W        W 9442   4.784   4.151  14.410
41214W        W 9443  35.099   1.786  12.523
41215W        W 9444   7.407  24.503   3.168
41216W        W 9445   7.177  26.278   2.653
41217W        W 9446  26.150  26.152  10.543
41218W        W 9447   2.358  35.091  13.308
41219W        W 9448   7.650  17.715   3.737
41220W        W 9449  18.363  40.571   0.770
41221W        W 9450  30.462  30.615  13.499
41222W        W 9451   7.307  11.327   2.590
41223W        W 9452   4.781   4.926  10.517
41224W        W 9453  18.019  43.606   2.177
41225W        W 9454  25.054  11.963  11.959
41226W        W 9455  38.476  29.519  10.184
41227W        W 9456  15.602  23.540   3.241
41228W        W 9457  27.255  37.535   1.361
41229W        W 9458  36.856   1.643   3.322
41230W        W 9459  24.687  25.250   1.927
41231W        W 9460  22.559   4.895  13.039
41232W        W 9461  22.418   4.888   3.241
41233W        W 9462  27.873  24.652  14.421
41234W        W 9463  34.528  14.853   3.090
41235W        W 9464   1.426  27.568   3.438
41236W        W 9465  23.757  42.889  12.950
41237W        W 9466  31.865  32.046   0.949
41238W        W 9467  41.864  42.736  11.546
41239W        W 9468  31.067  44.560  13.944
41240W        W 9469  41.820  21.828  14.086
41241W        W 9470  15.021  12.805   4.174
41242W        W 9471  41.103  19.720   3.213
41243W        W 9472  34.268  27.723   1.305
41244W        W 9473  39.841  16.609   0.684
41245W        W 9474  37.105  43.616  12.006
41246W        W 9475   5.358  42.599  11.440
41247W        W 9476  14.806  28.135   2.243
41248W        W 9477  19.876  15.224   3.684
41249W        W 9478  10.179  44.690  10.617
41250W        W 9479  14.309  19.705  14.427
41251W        W 9480  12.134  28.756   4.591
41252W        W 9481  39.772  41.836   4.345
41253W        W 9482  27.178  13.732   4.637
41254W        W 9483  11.819  36.995   3.178
41255W        W 9484  31.434  21.959   2.811
41256W        W 9485  31.661  26.464   1.386
41257W        W 9486   8.433  27.746   0.019
41258W        W 9487   5.814  44.261   1.732
41259W        W 9488  34.430  29.996  11.891
41260W        W 9489  37.882  12.590  13.402
41261W        W 9490   3.922  28.749   2.229
41262W        W 9491   8.357  41.749   3.397
41263W        W 9492  19.145  11.922  14.757
41264W        W 9493  32.495  11.388   2.876
41265W        W 9494  32.511  43.436   0.784
41266W        W 9495  41.998   3.677   2.954
41267W        W 9496  16.835  44.258   4.489
41268W        W 9497  17.635  31.724  11.976
41269W        W 9498   5.445  28.084  13.006
41270W        W 9499  22.571   6.801   2.904
41271W        W 9500  29.192   4.502  11.082
41272W        W 9501   0.221  13.820  12.684
41273W        W 9502   6.555  32.455   1.833
41274W        W 9503  22.350  35.465  13.776
41275W        W 9504   0.772  33.637  14.370
41276W        W 9505  19.573  10.947   3.621
41277W        W 9506  42.902  23.942  14.682
41278W        W 9507   7.316   7.474  11.573
41279W        W 9508  43.046  13.914   4.286
41280W        W 9509  42.817  32.953  11.130
41281W        W 9510  28.126  22.570   1.075
41282W        W 9511  17.774  27.805   1.410
41283W        W 9512  43.836  44.806   1.440
41284W        W 9513  42.455  15.750   0.405
41285W        W 9514  43.895  27.562  14.707
41286W        W 9515  26.805  27.747  12.960
41287W        W 9516  17.666  14.399  11.992
41288W        W 9517  12.647  39.648  10.650
41289W        W 9518  16.717  40.068  11.441
41290W        W 9519  44.395  19.013   1.190
41291W        W 9520  17.025   5.204  13.447
41292W        W 9521   4.196  25.264  12.812
41293W        W 9522   3.385  14.811  11.634
41294W        W 9523  22.186   6.413  12.502
41295W        W 9524  27.671  15.067   0.428
41296W        W 9525  22.375  28.436   0.105
41297W        W 9526  29.916  35.962   0.520
41298W        W 9527  38.322  10.398  12.308
41299W        W 9528   0.018  23.080  14.015
41300W        W 9529  44.919  37.795  12.886
41301W        W 9530   0.246  21.013   0.360
41302W        W 9531  24.002   4.921   1.827
41303W        W 9532  21.233  24.071  10.573
41304W        W 9533   6.812  32.885  11.196
41305W        W 9534  23.272  18.004  14.699
41306W        W 9535  22.614  28.521   1.150
41307W        W 9536  11.859  37.780  14.985
41308W        W 9537  41.184   3.194  12.636
41309W        W 9538  20.682  26.042  10.783
41310W        W 9539   0.701  35.975   2.763
41311W        W 9540  12.789   0.810   2.789
41312W        W 9541  18.312  12.674   2.732
41313W        W 9542  24.973   9.794   4.907
41314W        W 9543   9.292  16.244  11.025
41315W        W 9544  25.775   9.169   3.978
41316W        W 9545   6.887  25.430  11.306
41317W        W 9546  44.804  37.776  11.104
41318W        W 9547  16.684  20.217   2.429
41319W        W 9548  23.142  17.086  11.983
41320W        W 9549  27.658  30.451  12.351
41321W        W 9550  43.505  15.813  13.951
41322W        W 9551  25.490  21.140   1.772
41323W        W 9552  20.148  12.314  12.494
41324W        W 9553  14.696   6.324   4.303
41325W        W 9554  32.583  28.414  12.615
41326W        W 9555  35.395  31.061   2.420
41327W        W 9556  34.597   7.276  12.478
41328W        W 9557  16.357   9.497   1.336
41329W        W 9558  11.319  31.693  11.053
41330W        W 9559  14.726  22.982  14.462
41331W        W 9560  31.959  17.862  12.023
41332W        W 9561  32.328   9.221   4.323
41333W        W 9562   9.306   1.263   4.900
41334W        W 9563   8.234   8.358   2.388
41335W        W 9564  35.413  25.179  13.816
41336W        W 9565  38.565  38.699  13.559
41337W        W 9566   3.225   8.863  14.289
41338W        W 9567  10.191  32.731   2.689
41339W        W 9568  43.596  25.067  14.435
41340W        W 9569   1.079  43.228   3.166
41341W        W 9570  20.702  42.032   3.934
41342W        W 9571  35.749  42.883  14.767
41343W        W 9572  21.769   5.333   3.782
41344W        W 9573  22.602  34.494  14.638
41345W        W 9574  37.054   1.836  14.281
41346W        W 9575  32.519  42.423  13.409
41347W        W 9576   3.130  10.699  14.560
41348W        W 9577  37.825   2.519  14.268
41349W        W 9578  30.454  25.618   3.743
41350W        W 9579  20.762  20.681   3.540
41351W        W 9580  34.411   2.400  11.267
41352W        W 9581  13.567  31.983  13.741
41353W        W 9582  43.408  18.257  10.469
41354W        W 9583  11.644  22.346   3.263
41355W        W 9584   7.968  24.731   4.963
41356W        W 9585  26.699   4.949   3.395
41357W        W 9586  22.948   1.252   2.890
41358W        W 9587  28.511   2.985   3.734
41359W        W 9588  34.622   2.491  12.110
41360W        W 9589   5.156  18.190  11.094
41361W        W 9590  16.125  29.669  11.143
41362W        W 9591  36.150  14.878   1.331
41363W        W 9592  24.699  23.566   4.987
41364W        W 9593  32.224  17.386  14.859
41365W        W 9594  26.947  21.621  11.647
41366W        W 9595  26.268  44.977   0.302
41367W        W 9596  31.890  33.110   3.729
41368W        W 9597   7.357  40.830  11.627
41369W        W 9598   4.971  36.104   0.680
41370W        W 9599  20.131   8.318  10.821
41371W        W 9600  33.363   6.181  11.769
41372W        W 9601  26.554   6.625   4.969
41373W        W 9602  23.054  30.667  14.290
41374W        W 9603   6.075  29.744   5.100
41375W        W 9604   4.095  31.917   4.059
41376W        W 9605   3.067   4.250  12.103
41377W        W 9606  10.061  31.557  10.161
41378W        W 9607  13.731   6.122  12.225
41379W        W 9608  43.355  38.052   2.426
41380W        W 9609  14.540  43.269   0.538
41381W        W 9610   2.982  44.790  13.890
41382W        W 9611  24.083  39.444   1.304
41383W        W 9612  29.062  10.917   4.666
41384W        W 9613  24.417  11.312  13.949
41385W        W 9614  23.473  33.771  11.808
41386W        W 9615   3.411  41.765  14.450
41387W        W 9616   4.701  13.909   1.769
41388W        W 9617  42.496  20.579   4.905
41389W        W 9618  43.269  36.921  11.594
41390W        W 9619   6.456  13.030   0.975
41391W        W 9620  18.641  40.867   4.529
41392W        W 9621  26.588  28.691  13.138
41393W        W 9622  22.624  40.339  14.175
41394W        W 9623   8.135  24.105  11.098
41395W        W 9624  16.787  32.876   0.559
41396W        W 9625  13.595  15.047  11.187
41397W        W 9626  41.990  19.348   2.289
41398W        W 9627   3.933   2.166   4.164
41399W        W 9628   0.384  15.774  12.945
41400W        W 9629  31.164  15.113  13.072
41401W        W 9630  34.122   8.856   4.751
41402W        W 9631  26.359  30.613  12.648
41403W        W 9632  18.042  34.969  11.468
41404W        W 9633  20.776   0.839  14.953
41405W        W 9634  25.547   1.327   2.194
41406W        W 9635  16.469  44.401   0.472
41407W        W 9636  10.277  16.686  13.761
41408W        W 9637  24.558  36.366  13.445
41409W        W 9638  27.386  18.036   1.391
41410W        W 9639  27.281  20.588   1.864
41411W        W 9640  28.175  15.071   2.678
41412W        W 9641   7.417   8.791   0.820
41413W        W 9642   6.788   3.247   0.301
41414W        W 9643   0.904   8.214  13.475
41415W        W 9644  24.271  25.717   0.153
41416W        W 9645  28.137  27.886   0.782
41417W        W 9646   2.681   6.444  13.029
41418W        W 9647  15.844  33.151   2.634
41419W        W 9648  20.229   8.767   1.341
41420W        W 9649  41.348  24.533   1.620
41421W        W 9650   9.878  33.141   2.767
41422W        W 9651  37.292  39.924  11.187
41423W        W 9652   9.552  30.501  11.574
41424W        W 9653  44.493  27.584   3.588
41425W        W 9654  13.217  11.396   3.189
41426W        W 9655  38.991  37.626  11.051
41427W        W 9656  16.170  43.514  13.433
41428W        W 9657  10.612  33.142  14.929
41429W        W 9658  40.232   6.725   4.177
41430W        W 9659   1.739  37.565  14.935
41431W        W 9660  34.977  20.038   1.186
41432W        W 9661  19.201  24.066  14.087
41433W        W 9662   6.454   6.354  13.805
41434W        W 9663  43.962  18.786  13.958
41435W        W 9664  20.091  12.873   2.376
41436W        W 9665  40.999  43.865   4.361
41437W        W 9666  18.202  34.122   0.599
41438W        W 9667   2.210   7.385  12.987
41439W        W 9668  36.078  30.341   3.736
41440W        W 9669  16.925  30.622   1.358
41441W        W 9670  24.706   7.929   3.794
41442W        W 9671  22.497  17.901  14.402
41443W        W 9672   0.573  24.759  11.190
41444W        W 9673  12.580  13.739  13.628
41445W        W 9674  16.894   4.203  13.949
41446W        W 9675   4.737   2.746  11.116
41447W        W 9676   7.759  42.399  13.402
41448W        W 9677  35.670  33.529  11.684
41449W        W 9678  30.459  11.588   4.047
41450W        W 9679  22.148   1.821  12.011
41451W        W 9680  32.254  16.162   3.196
41452W        W 9681  44.340  30.699   2.250
41453W        W 9682   2.879   7.634   2.868
41454W        W 9683  40.537  42.033  14.536
41455W        W 9684  14.581  32.085   1.800
41456W        W 9685  22.162  22.499  13.458
41457W        W 9686  24.672  11.028   0.706
41458W        W 9687  15.778  12.390  12.133
41459W        W 9688  38.181  39.995  10.935
41460W        W 9689  11.627  27.821  13.551
41461W        W 9690  26.868  35.864  12.503
41462W        W 9691  25.884  30.516  11.525
41463W        W 9692  34.624  22.432  10.786
41464W        W 9693  34.585  16.749  10.673
41465W        W 9694  22.961   3.191  11.753
41466W        W 9695  31.990  30.093  13.382
41467W        W 9696  28.360  44.387   0.381
41468W        W 9697  21.290  30.183   0.009
41469W        W 9698   6.978  39.354   2.772
41470W        W 9699  17.354  10.902  12.979
41471W        W 9700  18.185  18.307   4.234
41472W        W 9701  12.538  42.079   1.504
41473W        W 9702  26.507  28.437   3.011
41474W        W 9703   4.927  21.654   3.378
41475W        W 9704  27.999  38.544   3.046
41476W        W 9705  11.652  32.085  10.190
41477W        W 9706  34.134  34.478  12.622
41478W        W 9707  28.223   3.182   9.954
41479W        W 9708  25.140   4.636  12.018
41480W        W 9709   5.896  11.419  11.904
41481W        W 9710  18.283  30.618   1.778
41482W        W 9711  32.118  41.922  14.581
41483W        W 9712  20.561  13.141   4.427
41484W        W 9713  21.440   3.209  12.610
41485W        W 9714  33.391  33.066   2.996
41486W        W 9715  10.879  33.741  13.987
41487W        W 9716  24.563   8.192   4.596
41488W        W 9717  15.258  15.045   3.899
41489W        W 9718  42.055  10.075   2.310
41490W        W 9719   1.697  38.675   4.601
41491W        W 9720  16.260  16.076  11.902
41492W        W 9721  14.358  40.055  13.151
41493W        W 9722  12.381  26.283  12.970
41494W        W 9723   6.461  14.235   2.709
41495W        W 9724  35.154  12.217   3.339
41496W        W 9725  10.907   9.363  10.763
41497W        W 9726  32.185  39.972   1.910
41498W        W 9727   1.043  13.044  10.769
41499W        W 9728  19.780   4.337  13.454
41500W        W 9729  24.290   7.340   0.392
41501W        W 9730   6.273  28.221   3.123
41502W        W 9731  16.201  29.509   1.476
41503W        W 9732  10.851  28.669  12.140
41504W        W 9733   9.188  42.261   3.668
41505W        W 9734  17.735  35.403   2.739
41506W        W 9735  30.593  20.671  11.859
41507W        W 9736  41.838  26.804  13.604
41508W        W 9737  13.567  43.211   0.324
41509W        W 9738  35.614  31.090  11.864
41510W        W 9739  22.580  38.401   4.363
41511W        W 9740  23.488  33.062  14.449
41512W        W 9741  37.880   6.273   2.335
41513W        W 9742  20.129  29.463  14.290
41514W        W 9743  32.635  40.379  11.034
41515W        W 9744  22.166  39.188  14.258
41516W        W 9745  44.576  28.102  13.496
41517W        W 9746  12.346  34.195   4.632
41518W        W 9747  10.329  33.092   3.033
41519W        W 9748  11.799   2.151   2.650
41520W        W 9749   0.495  40.273  12.703
41521W        W 9750  22.489  36.579  14.430
41522W        W 9751   5.746  36.914   4.119
41523W        W 9752  34.318  36.086   0.886
41524W        W 9753  29.841  22.136   1.216
41525W        W 9754   0.697  25.498   2.493
41526W        W 9755  10.646  17.065   4.786
41527W        W 9756  41.374   9.042  11.583
41528W        W 9757  10.033  26.091  13.472
41529W        W 9758  23.099  30.147  14.792
41530W        W 9759   2.996  11.057   0.356
41531W        W 9760  34.842  38.789  12.519
41532W        W 9761  38.418  34.143  13.075
41533W        W 9762  35.666   2.326   4.544
41534W        W 9763  12.497  41.405   2.564
41535W        W 9764   1.534  42.429   0.171
41536W        W 9765  42.735   7.401   4.982
41537W        W 9766  21.732  29.451   4.456
41538W        W 9767  19.312  13.788  12.991
41539W        W 9768   3.237  44.993  11.982
41540W        W 9769  15.362   4.507   1.191
41541W        W 9770  30.276   5.717  13.406
41542W        W 9771  41.742  19.688   4.501
41543W        W 9772  25.169  32.028  10.705
41544W        W 9773  39.795  13.304   4.551
41545W        W 9774  34.605  23.994  13.400
41546W        W 9775  19.517   0.154   3.631
41547W        W 9776   9.951   3.448   2.414
41548W        W 9777  30.269  22.943   3.701
41549W        W 9778  14.322  43.744   1.732
41550W        W 9779  28.410  20.843   1.273
41551W        W 9780  30.963  16.052  10.369
41552W        W 9781  23.512  31.115   0.817
41553W        W 9782  29.490  20.214  11.376
41554W        W 9783  44.569   5.660  10.762
41555W        W 9784   6.638  30.703   3.668
41556W        W 9785  27.153  24.527  12.970
41557W        W 9786  17.160  21.456  10.688
41558W        W 9787  37.547   4.648   2.685
41559W        W 9788  15.761  29.150   4.142
41560W        W 9789  31.485   4.951  14.773
41561W        W 9790  30.547  44.333   0.799
41562W        W 9791   3.323  40.472   1.444
41563W        W 9792   4.419  24.946   1.938
41564W        W 9793  14.325   5.439  13.929
41565W        W 9794   6.264  28.449  10.288
41566W        W 9795  37.965   4.604  13.638
41567W        W 9796   1.674  36.496   0.378
41568W        W 9797   9.488  23.407   2.152
41569W        W 9798  19.170  13.294  12.366
41570W        W 9799  39.021  14.863   2.657
41571W        W 9800  37.448  42.575  13.363
41572W        W 9801  42.553  32.619  10.588
41573W        W 9802  16.864  25.852   1.645
41574W        W 9803  25.670  42.771  13.888
41575W        W 9804  40.534  14.046  12.540
41576W        W 9805   0.426   0.980  14.799
41577W        W 9806  38.522  32.507  10.530
41578W        W 9807  41.817  29.607   2.371
41579W        W 9808  40.305  35.982  12.562
41580W        W 9809  10.869  20.772  11.541
41581W        W 9810  13.025  29.219  12.373
41582W        W 9811  34.498  19.803   2.313
41583W        W 9812  13.239  14.354  13.665
41584W        W 9813  16.880  14.549  11.148
41585W        W 9814  20.378  26.404  14.119
41586W        W 9815  40.010   3.750  13.050
41587W        W 9816  21.294  16.257  11.586
41588W        W 9817  11.777  18.195  13.921
41589W        W 9818   6.782  18.775   1.837
41590W        W 9819  13.793   5.815   4.653
41591W        W 9820  35.773  44.578   1.394
41592W        W 9821  26.873  42.161  13.374
41593W        W 9822   2.359  13.221  14.520
41594W        W 9823  35.225   4.367  11.406
41595W        W 9824  16.652  25.042  11.522
41596W        W 9825  40.592  26.336  11.627
41597W        W 9826  30.110  25.010   4.283
41598W        W 9827  31.061  10.427   2.788
41599W        W 9828  27.118  27.185   4.701
41600W        W 9829  14.838  15.758   3.498
41601W        W 9830  12.300  40.075  12.533
41602W        W 9831  17.237  27.919  13.499
41603W        W 9832  22.721  33.687  13.011
41604W        W 9833  15.642  30.180  14.570
41605W        W 9834  33.691  41.629  11.106
41606W        W 9835  23.530  35.154  13.870
41607W        W 9836  32.340  26.666   0.016
41608W        W 9837  41.857  11.610   0.017
41609W        W 9838  25.095   5.440  12.466
41610W        W 9839   5.784  43.975  11.932
41611W        W 9840  26.194  31.049  13.404
41612W        W 9841  11.865  11.603   3.130
41613W        W 9842  39.764  44.863  14.738
41614W        W 9843  40.283  43.459   1.831
41615W        W 9844  39.405   9.612  12.006
41616W        W 9845   3.888   7.022  10.202
41617W        W 9846   5.214  28.909   0.687
41618W        W 9847  37.107  42.022  12.715
41619W        W 9848  36.012  40.475  10.661
41620W        W 9849  30.203  10.927  12.601
41621W        W 9850  44.339  41.014   4.598
41622W        W 9851  17.765  43.194  14.914
41623W        W 9852  32.653  22.609   3.649
41624W        W 9853  34.393  20.296   0.310
41625W        W 9854  25.247  32.633   0.499
41626W        W 9855  25.871  29.144  11.365
41627W        W 9856  15.515  19.107   2.943
41628W        W 9857   6.896  43.846  13.394
41629W        W 9858  28.251  12.582   5.136
41630W        W 9859  33.938  37.334  14.013
41631W        W 9860  43.084  14.759   2.657
41632W        W 9861  41.027   3.802  12.972
41633W        W 9862  28.594  16.345   1.242
41634W        W 9863  23.740  37.009  13.432
41635W        W 9864  29.395   2.532  11.136
41636W        W 9865  33.460  11.759   1.027
41637W        W 9866   6.622  40.968  10.638
41638W        W 9867   0.305  15.558   1.511
41639W        W 9868  22.924  39.314   1.374
41640W        W 9869  14.299  39.105   2.122
41641W        W 9870  20.046  12.202   0.461
41642W        W 9871  37.055  41.421   2.756
41643W        W 9872  24.372  21.256  11.965
41644W        W 9873   2.033  20.670   2.910
41645W        W 9874  44.908  17.249   0.495
41646W        W 9875   7.837  10.107   3.386
41647W        W 9876  30.969  30.397  13.480
41648W        W 9877  34.819  14.668  11.905
41649W        W 9878  33.608   3.845   4.129
41650W        W 9879   0.970   1.839   3.762
41651W        W 9880  20.108  35.706   4.685
41652W        W 9881  25.937  10.317   0.885
41653W        W 9882  20.198  26.245   0.971
41654W        W 9883   0.392  23.744   0.201
41655W        W 9884  36.550  36.239   5.176
41656W        W 9885  20.022  10.700  14.320
41657W        W 9886  18.159  34.143   2.949
41658W        W 9887  26.871  11.893  14.528
41659W        W 9888  19.380   7.408   2.381
41660W        W 9889  27.523  11.126  13.800
41661W        W 9890   3.744   5.253   1.254
41662W        W 9891   9.934  17.719  12.954
41663W        W 9892  15.020  39.322   0.991
41664W        W 9893  34.518  25.038  10.692
41665W        W 9894  15.636   7.441  11.584
41666W        W 9895  30.660   7.199   2.779
41667W        W 9896  42.877  22.721   1.241
41668W        W 9897  18.664   7.740   4.796
41669W        W 9898  38.326  11.720  13.819
41670W        W 9899  39.343  18.235   3.793
41671W        W 9900  17.971  29.290   4.513
41672W        W 9901  34.061  38.013  13.345
41673W        W 9902  21.329  17.111   0.853
41674W        W 9903  14.834   3.949   4.050
41675W        W 9904  17.706  41.712   3.052
41676W        W 9905  34.452  34.829  11.474
41677W        W 9906  21.266  24.074   0.539
41678W        W 9907  32.775  38.542   4.130
41679W        W 9908  11.856  38.061  11.234
41680W        W 9909  21.438  23.633   1.545
41681W        W 9910  10.318  42.355   1.693
41682W        W 9911  38.417   5.545  14.302
41683W        W 9912  14.584  11.189  11.637
41684W        W 9913  40.989  35.059  10.997
41685W        W 9914   0.784  30.433   3.694
41686W        W 9915   6.340  40.133  11.652
41687W        W 9916  18.189  42.259  10.921
41688W        W 9917  19.239  34.112   4.830
41689W        W 9918   6.767  26.770  11.509
41690W        W 9919  18.079   8.759  13.328
41691W        W 9920  22.188  44.846  12.118
41692W        W 9921   6.190  27.036   0.275
41693W        W 9922   0.827   2.991  12.450
41694W        W 9923  31.025  20.285   0.605
41695W        W 9924  44.024   8.312  12.831
41696W        W 9925  36.103  44.779   0.538
41697W        W 9926  23.224  22.063   3.725
41698W        W 9927  12.067  43.483  12.920
41699W        W 9928  11.104   4.518  14.482
41700W        W 9929  25.061  35.072   0.031
41701W        W 9930  40.869  37.971   2.858
41702W        W 9931  15.586  17.774  14.953
41703W        W 9932   8.635   3.378  12.426
41704W        W 9933  23.073  34.445   0.558
41705W        W 9934  30.214   3.462   3.171
41706W        W 9935  35.211  36.819  11.470
41707W        W 9936  30.871  11.817  11.446
41708W        W 9937  17.744  15.934   2.840
41709W        W 9938  16.229   5.423   4.748
41710W        W 9939  28.583  12.637   1.712
41711W        W 9940  22.108  34.009  12.374
41712W        W 9941  34.611  18.525  11.932
41713W        W 9942  38.885  13.941  10.381
41714W        W 9943   2.442  16.802  11.933
41715W        W 9944   1.895  25.014   2.141
41716W        W 9945  37.561  21.948   1.720
41717W        W 9946  38.664  10.650   4.058
41718W        W 9947  22.475   6.171  11.588
41719W        W 9948  21.211  39.909   2.154
41720W        W 9949  40.190  40.950   3.314
41721W        W 9950  43.263  12.829  12.422
41722W        W 9951   5.390  40.980   1.681
41723W        W 9952  40.612  38.052   3.725
41724W        W 9953  29.983  19.503  14.527
41725W        W 9954  30.024  15.853   4.607
41726W        W 9955  21.596  16.395   3.287
41727W        W 9956  41.978   1.150  14.737
41728W        W 9957   0.908  43.563  13.006
41729W        W 9958  42.043   5.756   4.207
41730W        W 9959  30.312  25.554   0.251
41731W        W 9960  44.983  31.030   2.448
41732W        W 9961   7.665  18.975   0.301
41733W        W 9962   3.793  20.129  11.978
41734W        W 9963  19.552   5.918   5.070
41735W        W 9964   3.628  35.444   4.017
41736W        W 9965  12.073  30.426  11.537
41737W        W 9966  15.328  38.417   3.947
41738W        W 9967  26.922  27.567   2.649
41739W        W 9968  23.338  38.938  14.827
41740W        W 9969   5.816  16.048   2.803
41741W        W 9970  41.316  27.502  13.269
41742W        W 9971  14.132   9.285  13.382
41743W        W 9972  36.477  44.195  11.611
41744W        W 9973  15.542   3.851   1.735
41745W        W 9974  42.881  11.780   5.014
41746W        W 9975  13.361  38.726   0.808
41747W        W 9976  17.286   8.081  14.909
41748W        W 9977  29.629  15.093  11.608
41749W        W 9978   3.925  31.092   0.355
41750W        W 9979  13.291  15.518   0.701
41751W        W 9980   2.857  37.429   4.426
41752W        W 9981  29.418   8.306  12.141
41753W        W 9982  34.864  32.542   2.202
41754W        W 9983  37.736  28.237  13.828
41755W        W 9984  43.963  36.123   0.877
41756W        W 9985   3.019  37.037   4.693
41757W        W 9986  20.341  33.395   4.078
41758W        W 9987  11.113   6.682   1.362
41759W        W 9988  32.519  43.948   0.992
41760W        W 9989   7.455  21.201  11.263
41761W        W 9990  44.042  44.007  14.591
41762W        W 9991  43.737  31.636  14.008
41763W        W 9992  44.530  11.074   0.985
41764W        W 9993  36.243  37.892   1.206
41765W        W 9994  15.001  25.167   1.825
41766W        W 9995  17.585  43.120   2.825
41767W        W 9996  37.539  44.353  13.675
41768W        W 9997  43.840  31.393  12.542
41769W        W 9998  11.580  37.041   2.154
41770W        W 9999  19.827   2.624   1.839
41771W        W10000  11.408   0.301   3.188
41772W        W10001  21.729  41.096  10.416
41773W        W10002  11.612  40.514  11.400
41774W        W10003  41.880  25.010  11.238
41775W        W10004  22.555  19.690   0.646
41776W        W10005  21.803  42.702  12.060
41777W        W10006  42.968  14.605   0.920
41778W        W10007  24.706  27.557   4.359
41779W        W10008  20.764   0.795   1.787
41780W        W10009  16.099  12.513   2.570
41781W        W10010  15.545  42.162   1.179
41782W        W10011  33.586  34.844   3.654
41783W        W10012   1.710  39.989   3.707
41784W        W10013  32.057  16.196  11.428
41785W        W10014   4.490  20.648  12.782
41786W        W10015  34.437  26.888   1.072
41787W        W10016  42.288  23.456  13.972
41788W        W10017  26.792   9.409   1.690
41789W        W10018  27.299  36.025  14.758
41790W        W10019  39.942  13.546   3.237
41791W        W10020  18.359  36.355   2.227
41792W        W10021  38.148  42.848  14.484
41793W        W10022  21.228  24.174   0.040
41794W        W10023  17.740  44.755   4.543
41795W        W10024  24.507   7.814  14.359
41796W        W10025  11.380  35.802   0.395
41797W        W10026  39.429   4.416   1.274
41798W        W10027  44.975  13.047   2.811
41799W        W10028  36.131  38.966  13.373
41800W        W10029   8.647  27.859  12.882
41801W        W10030  28.239  36.968   2.679
41802W        W10031  43.996  11.242  11.428
41803W        W10032  32.156  41.946   2.222
41804W        W10033  27.463  24.632   1.875
41805W        W10034   8.461  22.562  13.368
41806W        W10035  30.154  28.153  14.324
41807W        W10036  17.592  19.650   2.246
41808W        W10037  31.986  31.049  14.949
41809W        W10038  16.800  38.519  12.470
41810W        W10039  22.102  27.620   0.551
41811W        W10040   9.728  14.615   2.627
41812W        W10041  14.682   0.203  14.005
41813W        W10042  43.689  11.782   1.917
41814W        W10043  23.135  17.733   2.360
41815W        W10044  23.981  10.519  11.115
41816W        W10045  40.366   8.946  13.229
41817W        W10046  20.137  37.374  14.403
41818W        W10047  11.136   7.398   4.656
41819W        W10048  22.812  34.628   4.808
41820W        W10049  13.730  32.581  11.182
41821W        W10050  41.510  27.358   4.362
41822W        W10051   9.143   1.482  13.502
41823W        W10052  36.528  38.128   3.132
41824W        W10053  10.884   2.041  12.103
41825W        W10054  10.602  34.112  10.601
41826W        W10055  25.543  41.719   4.529
41827W        W10056  25.271  44.110   0.324
41828W        W10057  34.894  29.232   0.653
41829W        W10058   0.477  32.116  12.498
41830W        W10059  18.668  33.647  12.407
41831W        W10060   4.116   7.726  14.142
41832W        W10061  17.138  40.515   1.596
41833W        W10062  25.224  11.801  11.494
41834W        W10063   4.882  29.079   4.329
41835W        W10064  16.271  35.378   0.375
41836W        W10065   7.133  41.076   4.590
41837W        W10066  22.955  43.557  11.156
41838W        W10067  28.183  21.621  12.765
41839W        W10068  12.690  44.560   0.234
41840W        W10069  13.759  16.243   0.703
41841W        W10070   9.797   7.972   1.194
41842W        W10071  28.584  38.954   0.383
41843W        W10072  38.938  24.250   4.561
41844W        W10073  35.698  36.832  12.465
41845W        W10074  29.842  40.902  12.930
41846W        W10075  37.580  16.657   1.899
41847W        W10076  30.911  20.791   3.664
41848W        W10077  43.601  32.306  13.603
41849W        W10078   3.705  27.988  14.398
41850W        W10079  22.741  34.023   0.416
41851W        W10080  16.520  26.561   4.574
41852W        W10081   9.200   3.450  14.896
41853W        W10082  17.473  40.750  12.063
41854W        W10083   9.955  10.728   1.448
41855W        W10084  30.461   7.800   1.283
41856W        W10085  26.785   0.879   4.573
41857W        W10086  38.728  33.661  14.385
41858W        W10087  28.189  41.544  12.520
41859W        W10088  14.054   2.941  14.081
41860W        W10089   2.279  42.290   3.206
41861W        W10090  16.132   0.922  12.503
41862W        W10091  42.028  33.423   2.833
41863W        W10092  27.949   3.646  10.716
41864W        W10093  26.539  23.692   0.339
41865W        W10094  42.095   5.397  12.493
41866W        W10095  30.405   4.888  11.398
41867W        W10096  40.893  31.545  14.595
41868W        W10097  33.583  20.040   4.134
41869W        W10098   9.149  37.753   2.267
41870W        W10099   1.124   1.355  12.972
41871W        W10100  37.550   5.795  10.089
41872W        W10101  14.404  21.241   0.434
41873W        W10102   4.396  35.717   2.691
41874W        W10103  39.017   7.455   2.956
41875W        W10104  41.570   9.884   0.434
41876W        W10105  25.046  40.054  14.045
41877W        W10106  26.605  16.649  11.471
41878W        W10107   4.890  10.312   0.972
41879W        W10108   9.111  33.116   0.929
41880W        W10109  10.770  35.900   4.053
41881W        W10110   4.535   8.645  13.376
41882W        W10111  43.301  29.842  13.496
41883W        W10112  30.556  40.829   1.796
41884W        W10113  18.608   0.855  13.295
41885W        W10114  40.078  22.898   3.305
41886W        W10115  16.546  38.319  12.040
41887W        W10116  12.125  34.023  12.375
41888W        W10117   7.777  44.662  11.235
41889W        W10118  35.533   1.304   1.694
41890W        W10119  24.639   5.389  10.685
41891W        W10120  37.290  33.543  13.494
41892W        W10121  22.627  44.467   2.198
41893W        W10122  41.096   8.377  13.736
41894W        W10123  11.539  35.309  13.635
41895W        W10124  24.673  24.124  11.143
41896W        W10125  38.490  23.742  11.366
41897W        W10126   5.200   4.325   4.813
41898W        W10127  16.586  13.674  14.006
41899W        W10128   3.935  10.078   0.375
41900W        W10129   2.746  38.753   4.749
41901W        W10130  26.544  22.918   1.398
41902W        W10131  25.677  32.370   4.578
41903W        W10132  38.532   5.248  11.397
41904W        W10133  44.800  25.506  11.077
41905W        W10134  23.933  27.063   1.676
41906W        W10135   5.925  42.827   3.741
41907W        W10136   8.861   0.783  14.467
41908W        W10137  41.844  19.983   1.450
41909W        W10138  18.996  27.722   0.912
41910W        W10139   2.265  29.662   0.567
41911W        W10140  39.786  18.640   2.336
41912W        W10141  38.540  34.162  12.560
41913W        W10142  15.759  25.154  14.777
41914W        W10143  26.397  39.366  10.359
41915W        W10144  12.306  11.948   0.830
41916W        W10145  25.754  17.538   3.530
41917W        W10146  16.111  34.806  13.636
41918W        W10147  19.159  43.237   2.284
41919W        W10148  30.063  41.079   1.736
41920W        W10149  38.874  39.440  10.632
41921W        W10150  44.477   0.223   2.444
41922W        W10151  21.772  36.598  13.441
41923W        W10152  36.870   8.892  13.110
41924W        W10153  40.067  37.787  14.332
41925W        W10154   4.935  14.734  11.833
41926W        W10155  19.624   3.930   2.225
41927W        W10156   5.741  25.465  11.177
41928W        W10157  36.290  18.722  14.806
41929W        W10158  18.725   3.103  14.074
41930W        W10159   3.235   9.099  13.050
41931W        W10160   2.185   8.609  11.802
41932W        W10161  21.751   1.055  13.926
41933W        W10162  42.171  37.501   1.127
41934W        W10163   0.293  25.781   2.266
41935W        W10164  13.506  10.134   0.066
41936W        W10165  34.091  37.332   4.103
41937W        W10166  15.103  17.226   2.117
41938W        W10167  21.931   4.873  13.821
41939W        W10168  20.726  42.155   3.433
41940W        W10169  31.623  25.119  10.486
41941W        W10170  14.234   2.666   1.850
41942W        W10171   4.378  34.924   4.093
41943W        W10172  22.680  43.777   2.620
41944W        W10173  24.172   7.636   2.965
41945W        W10174  29.411  27.351   1.356
41946W        W10175  16.684  26.539   0.412
41947W        W10176  26.574  16.094  11.455
41948W        W10177  19.829  24.035   4.517
41949W        W10178   6.808  18.709   3.939
41950W        W10179  42.020  13.841   1.961
41951W        W10180  23.058  26.362  12.348
41952W        W10181  31.185   3.900   1.774
41953W        W10182   7.996  14.132  14.469
41954W        W10183  36.045  32.158  14.282
41955W        W10184  28.927  37.434  14.236
41956W        W10185   2.140  34.970  11.687
41957W        W10186   3.011   6.685   3.536
41958W        W10187  43.503  32.938   4.631
41959W        W10188  11.239  21.717   4.660
41960W        W10189  30.743   1.747  13.634
41961W        W10190  19.279   6.768  13.145
41962W        W10191  26.836  27.201   3.628
41963W        W10192   4.514   3.516   0.794
41964W        W10193  43.340   3.405   0.300
41965W        W10194  15.439   8.530   1.353
41966W        W10195  37.664  39.817   4.643
41967W        W10196  39.845   3.126  14.311
41968W        W10197   6.687   8.174  10.739
41969W        W10198  35.040   9.171  10.263
41970W        W10199  29.433   4.799  11.688
41971W        W10200  17.633  36.389  13.915
41972W        W10201  23.005  17.802  14.299
41973W        W10202  40.960  11.951   2.246
41974W        W10203   5.248   5.297  13.036
41975W        W10204  10.889  15.753  14.496
41976W        W10205  41.916   0.454  13.040
41977W        W10206  37.913  23.293   3.655
41978W        W10207  35.128  33.152  14.043
41979W        W10208  37.559  22.059  12.502
41980W        W10209   4.695  15.878   4.707
41981W        W10210  18.098  20.108   1.356
41982W        W10211   4.008  37.117   4.947
41983W        W10212  14.585  26.257   2.746
41984W        W10213  15.864   0.315  13.361
41985W        W10214  23.524  38.909   0.333
41986W        W10215  27.599  39.575  14.065
41987W        W10216  44.405  20.157   4.765
41988W        W10217   7.077  34.535   2.242
41989W        W10218  25.975   2.540  12.520
41990W        W10219   2.105  31.596  14.392
41991W        W10220  34.563  37.072  13.128
41992W        W10221  26.134  10.590  10.757
41993W        W10222  40.664  21.347   1.456
41994W        W10223  29.722  18.445  14.454
41995W        W10224   6.975  43.745  14.534
41996W        W10225   8.634  44.883   0.803
41997W        W10226  18.137  34.039  13.765
41998W        W10227  40.823  24.778  10.387
41999W        W10228  12.849  26.663   3.351
42000W        W10229  27.196  29.702   2.733
42001W        W10230  17.358  42.830  13.427
42002W        W10231   6.268  10.724   0.291
42003W        W10232  11.244  10.159  14.030
42004W        W10233  30.403   2.313   3.794
42005W        W10234   9.842  17.504  13.959
42006W        W10235   6.804   1.129   4.033
42007W        W10236  13.579  18.244   3.764
42008W        W10237  21.008  23.551  11.255
42009W        W10238  14.861  22.717  12.415
42010W        W10239  20.951  28.695  14.937
42011W        W10240  24.162  11.014  11.045
42012W        W10241  44.819   5.225  13.886
42013W        W10242  37.745  23.816   3.773
42014W        W10243   7.120  29.107  13.861
42015W        W10244  35.406  44.377  13.585
42016W        W10245  12.054  14.647   0.507
42017W        W10246  23.958   5.224  10.782
42018W        W10247   2.370  21.119   1.402
42019W        W10248   7.260  35.987  11.497
42020W        W10249  31.162   6.405  10.496
42021W        W10250  33.689  28.341   4.894
42022W        W10251  24.464  13.224   2.186
42023W        W10252   1.465  36.148  12.461
42024W        W10253  41.579   3.901  12.106
42025W        W10254  29.408  21.554  13.339
42026W        W10255  18.267  26.468  10.801
42027W        W10256  21.633  21.294   0.238
42028W        W10257  24.198  17.088  12.124
42029W        W10258  24.979  37.434   4.574
42030W        W10259  19.187  31.383  12.582
42031W        W10260  11.616  39.517  13.587
42032W        W10261  18.475  43.260   2.941
42033W        W10262  18.589   9.184   1.738
42034W        W10263   6.607  38.417  11.204
42035W        W10264   0.717  26.148   3.165
42036W        W10265  11.052   7.458   3.650
42037W        W10266  27.471  21.699   0.030
42038W        W10267   9.797  35.893   4.058
42039W        W10268   6.252  39.250  10.613
42040W        W10269  31.058  18.524   2.758
42041W        W10270  41.464  17.197  11.190
42042W        W10271  27.411  40.344   4.151
42043W        W10272  17.692  19.142  13.980
42044W        W10273  29.715  12.288  11.055
42045W        W10274  32.938  43.834  13.011
42046W        W10275   9.559  33.480   1.347
42047W        W10276  10.874  29.613  12.144
42048W        W10277  20.899   6.445   1.045
42049W        W10278  30.481   1.609  14.536
42050W        W10279  39.981  25.582   3.628
42051W        W10280   3.736  33.065  12.505
42052W        W10281  15.014  27.115   3.342
42053W        W10282  19.791  25.304  11.792
42054W        W10283  40.494  24.095   1.785
42055W        W10284   9.891  23.686  11.220
42056W        W10285   7.182  44.398   1.720
42057W        W10286   4.867   1.185   3.191
42058W        W10287   0.869  28.155   3.282
42059W        W10288  38.287  33.833   0.448
42060W        W10289  27.268   1.696   2.189
42061W        W10290  25.303  40.254  11.074
42062W        W10291  11.948  41.541  14.995
42063W        W10292  44.518   4.737   2.317
42064W        W10293  15.746  38.748  12.369
42065W        W10294   7.560   0.764   1.931
42066W        W10295  39.160  42.502   2.827
42067W        W10296  17.737  38.954   4.584
42068W        W10297   8.774   7.205  12.966
42069W        W10298   6.586   7.828   1.680
42070W        W10299  10.688  28.161   4.460
42071W        W10300  16.275  16.030  14.104
42072W        W10301  34.962  27.794  14.888
42073W        W10302  31.964  42.845  13.845
42074W        W10303  35.421  27.207   1.155
42075W        W10304  17.322  28.419   0.865
42076W        W10305  10.683  40.644  13.841
42077W        W10306  35.235  16.171  12.065
42078W        W10307  42.328  16.117  13.003
42079W        W10308  16.176   0.643   4.900
42080W        W10309  22.021   8.812  11.521
42081W        W10310   8.254  38.443   2.013
42082W        W10311  11.182  22.278  14.907
42083W        W10312  42.553   1.681   2.807
42084W        W10313   9.301   9.944  13.337
42085W        W10314  42.176  27.292  12.814
42086W        W10315  15.783   0.205   2.308
42087W        W10316  20.733   1.311  13.163
42088W        W10317  24.636  43.984  12.517
42089W        W10318  27.000  40.820  14.349
42090W        W10319   9.147   6.978  11.246
42091W        W10320  16.225  28.778  11.660
42092W        W10321   6.670  21.783   4.430
42093W        W10322  25.031  33.670   2.489
42094W        W10323  28.730   4.262  13.841
42095W        W10324   3.522  41.526  11.142
42096W        W10325  34.402  22.380   4.861
42097W        W10326   4.392  26.549  11.247
42098W        W10327  30.470   3.227  13.587
42099W        W10328  31.665  10.947  11.376
42100W        W10329  13.928  14.327   0.090
42101W        W10330  20.246  22.980   3.840
42102W        W10331  26.004  41.342  13.094
42103W        W10332  16.175   9.881  14.933
42104W        W10333  38.447   0.767  13.551
42105W        W10334  34.065  14.756  12.562
42106W        W10335  35.584  21.601  14.748
42107W        W10336  13.115  12.757   0.642
42108W        W10337  18.496  43.212  11.550
42109W        W10338   2.734  44.016  13.488
42110W        W10339  29.555   5.739  13.970
42111W        W10340  13.771  19.139  13.943
42112W        W10341  37.924   0.192  14.757
42113W        W10342  20.566  44.902  14.532
42114W        W10343  28.798  22.617  11.934
42115W        W10344  26.220  38.597  14.506
42116W        W10345  27.471  35.003  10.753
42117W        W10346   6.675  33.836   1.344
42118W        W10347   8.820  37.324  14.242
42119W        W10348  34.637  26.004   1.566
42120W        W10349  10.733  41.167   4.485
42121W        W10350  34.467  30.347  14.331
42122W        W10351  31.866  14.139   1.099
42123W        W10352   9.766  27.476   1.790
42124W        W10353  17.270  24.160   1.746
42125W        W10354  44.776   3.310   1.340
42126W        W10355  34.050  24.526  10.687
42127W        W10356   2.884  19.624   0.963
42128W        W10357  11.053  29.502   2.250
42129W        W10358  16.520   3.755   2.123
42130W        W10359  28.438  12.601  12.761
42131W        W10360  19.628  16.313   0.337
42132W        W10361  40.762   0.988   0.834
42133W        W10362   7.187  36.794  10.714
42134W        W10363  17.695   3.712   4.690
42135W        W10364  12.645  18.792  13.849
42136W        W10365  12.332  43.960  11.018
42137W        W10366  35.567  27.362  14.384
42138W        W10367  33.524   9.050   2.415
42139W        W10368  24.718  37.051   2.927
42140W        W10369  24.695  39.858  11.456
42141W        W10370   2.043  22.600  10.793
42142W        W10371  19.118  23.471  14.966
42143W        W10372  17.493  26.938  12.976
42144W        W10373  44.763  21.678  10.554
42145W        W10374  31.639   8.362  12.550
42146W        W10375  35.930   6.183  14.487
42147W        W10376   1.857  10.228  13.825
42148W        W10377  18.296  41.110  14.055
42149W        W10378  20.461  10.443   3.223
42150W        W10379  14.190  12.147  11.485
42151W        W10380  41.239   8.747  13.358
42152W        W10381  20.278  19.313  12.770
42153W        W10382  23.149  30.994  12.857
42154W        W10383   2.025  35.002   2.142
42155W        W10384  23.210   3.713  11.670
42156W        W10385  13.774  27.649   1.278
42157W        W10386  37.578  33.540  11.971
42158W        W10387  43.961  23.853   4.582
42159W        W10388  39.835  29.068   1.749
42160W        W10389   4.566  37.553  12.505
42161W        W10390  13.399  34.499  13.793
42162W        W10391   4.952   4.381  11.474
42163W        W10392   2.852  26.240   1.985
42164W        W10393  17.332   5.650  13.529
42165W        W10394  29.208  41.470  12.408
42166W        W10395  34.490  38.344   4.611
42167W        W10396  40.279  35.400  11.219
42168W        W10397  22.118  20.809  12.360
42169W        W10398   7.848  28.524   2.265
42170W        W10399  25.632  22.562   0.708
42171W        W10400  11.409  25.963   1.286
42172W        W10401  33.522  22.554   3.137
42173W        W10402  20.833  24.115   4.668
42174W        W10403  35.012  14.096  13.882
42175W        W10404  26.220  11.143   3.657
42176W        W10405  42.456  40.636   2.293
42177W        W10406  44.969  17.058   4.497
42178W        W10407  12.367  11.688   4.028
42179W        W10408   3.931  29.228   3.371
42180W        W10409  14.547   2.592   4.025
42181W        W10410  21.239  16.629   3.610
42182W        W10411  42.216  14.611  13.638
42183W        W10412   4.000   9.200  13.013
42184W        W10413  11.006   3.007  10.848
42185W        W10414  13.102  37.208  10.228
42186W        W10415  43.208  29.414   1.440
42187W        W10416   3.731   1.928   0.700
42188W        W10417  37.140  39.835  10.712
42189W        W10418  24.666  17.557   2.983
42190W        W10419  34.889   0.821   3.166
42191W        W10420  38.838   8.748   1.300
42192W        W10421   8.985   8.657   3.760
42193W        W10422  18.739  14.750   0.642
42194W        W10423  35.700  43.587  11.188
42195W        W10424  28.219  41.363  10.345
42196W        W10425   5.242  42.090   4.154
42197W        W10426  38.019  42.829   3.912
42198W        W10427  21.637  35.057   0.482
42199W        W10428  13.340  16.058   2.373
42200W        W10429  24.472  11.260  11.792
42201W        W10430   0.218  41.995   3.781
42202W        W10431  21.696  30.409   2.307
42203W        W10432  21.811  22.111  14.062
42204W        W10433  27.526   8.848   3.731
42205W        W10434   0.864  20.500   3.931
42206W        W10435  21.176  20.473  10.866
42207W        W10436  23.105   3.126   4.134
42208W        W10437   3.360  13.890   0.159
42209W        W10438   2.886  40.231   3.107
42210W        W10439  39.357   2.943   1.421
42211W        W10440  11.678  17.538  11.402
42212W        W10441  42.804  41.731  14.281
42213W        W10442  17.057  41.318  14.985
42214W        W10443  21.280  34.024   0.268
42215W        W10444  23.646   0.846  14.310
42216W        W10445  35.311  26.721  12.603
42217W        W10446   4.257  20.364  13.136
42218W        W10447  38.332  22.463   4.528
42219W        W10448   9.659  30.945   4.573
42220W        W10449  29.030  42.300   0.132
42221W        W10450  38.286  32.581   1.144
42222W        W10451  25.236  11.110  10.884
42223W        W10452  15.929   3.145   3.750
42224W        W10453  27.968   4.690  14.724
42225W        W10454  21.661  36.483   4.883
42226W        W10455  36.523  34.392   2.178
42227W        W10456  15.091  23.734  13.528
42228W        W10457  34.985   9.747  11.070
42229W        W10458  26.517  15.182   2.989
42230W        W10459  19.707  20.152   1.236
42231W        W10460  18.545  19.290   3.778
42232W        W10461  15.751  27.960   3.187
42233W        W10462  19.293  36.293   4.410
42234W        W10463  12.611   2.022  14.573
42235W        W10464   9.467  33.853  14.396
42236W        W10465  24.695  36.757   3.804
42237W        W10466  37.059  22.911  10.878
42238W        W10467  26.963  38.989  12.925
42239W        W10468  30.674  26.636   0.559
42240W        W10469   2.770  18.740  12.487
42241W        W10470   4.814  30.013   4.106
42242W        W10471  27.562  19.527   3.426
42243W        W10472  17.063  42.764  10.340
42244W        W10473  38.289  28.956  11.931
42245W        W10474  42.301  41.772   0.021
42246W        W10475  40.344   7.505   9.950
42247W        W10476   3.815  34.329  12.028
42248W        W10477   0.258  16.010   0.150
42249W        W10478   6.481  36.240   4.181
42250W        W10479  35.336  24.445   2.632
42251W        W10480  29.771   3.834  14.589
42252W        W10481  38.568  43.033   2.273
42253W        W10482   6.247  44.763  11.653
42254W        W10483   4.778  37.629  13.895
42255W        W10484  26.875  36.713   3.712
42256W        W10485  36.338   2.409   3.798
42257W        W10486   1.004  24.085   4.140
42258W        W10487  25.560  23.184   2.926
42259W        W10488  26.730   3.196   1.858
42260W        W10489  23.692  10.650  14.746
42261W        W10490  23.569   1.058  12.626
42262W        W10491   2.731  13.859   0.826
42263W        W10492   9.430  15.336   2.678
42264W        W10493  32.778  10.008   4.004
42265W        W10494   0.941   7.204   4.938
42266W        W10495  24.309  24.765  12.826
42267W        W10496  39.603  33.116  11.554
42268W        W10497   6.506  39.959  14.014
42269W        W10498   7.160   8.590   4.183
42270W        W10499  40.610  39.610  12.027
42271W        W10500  22.783   0.944  12.444
42272W        W10501   1.832  14.455   4.168
42273W        W10502  17.610  38.340   1.105
42274W        W10503  36.902  10.964  13.145
42275W        W10504   7.754   0.426  10.991
42276W        W10505   1.415  12.699  12.088
42277W        W10506  14.470  41.334   3.625
42278W        W10507  27.391  22.064  11.071
42279W        W10508  18.567  30.765  13.419
42280W        W10509   2.360   9.378  14.334
42281W        W10510  33.910  16.042   1.308
42282W        W10511  24.641   9.724   9.837
42283W        W10512  32.454  24.338  11.502
42284W        W10513   6.413  25.535  12.682
42285W        W10514  23.281  18.994   1.969
42286W        W10515   9.924  41.820  12.895
42287W        W10516   2.707  40.889   4.982
42288W        W10517  18.152  39.868   1.325
42289W        W10518  44.080  17.077   2.227
42290W        W10519   3.740  19.706   1.241
42291W        W10520  29.786   8.710   0.742
42292W        W10521   5.055   2.337  11.160
42293W        W10522  10.274   5.925   2.044
42294W        W10523  14.294  17.811  14.425
42295W        W10524   0.360  22.719   3.723
42296W        W10525  22.540  35.990  13.786
42297W        W10526  14.711   5.647   3.084
42298W        W10527   1.354  21.515  12.523
42299W        W10528  16.802  27.244  14.902
42300W        W10529  17.249   0.367   1.281
42301W        W10530   9.275  36.448  14.959
42302W        W10531  15.640  44.362  14.132
42303W        W10532  27.256  38.609  14.380
42304W        W10533  28.970  16.936  11.475
42305W        W10534  26.136  16.238   1.122
42306W        W10535  22.956  22.493   3.717
42307W        W10536  38.809  39.513   1.668
42308W        W10537  43.085  32.186   1.964
42309W        W10538  28.669  15.861   3.857
42310W        W10539  32.672  26.714  11.538
42311W        W10540  41.420  21.798  13.341
42312W        W10541   2.854  42.042  10.614
42313W        W10542  28.463  27.221   1.388
42314W        W10543  13.240   2.426  13.842
42315W        W10544  23.210  31.631  11.105
42316W        W10545  24.796   5.461   0.046
42317W        W10546  21.659  25.759  13.393
42318W        W10547   0.874  37.582   0.818
42319W        W10548  21.099  29.309   5.240
42320W        W10549  25.627  28.521   3.927
42321W        W10550  21.448   1.786   4.530
42322W        W10551  24.898  24.604  13.604
42323W        W10552  33.536  16.084  10.308
42324W        W10553  14.114   4.433   3.336
42325W        W10554  14.724  20.618  14.030
42326W        W10555   4.172   7.479   1.867
42327W        W10556  42.442   2.483   0.440
42328W        W10557  18.838   1.304   0.805
42329W        W10558   4.625   0.755  14.856
42330W        W10559  28.506   9.314   2.862
42331W        W10560  37.442   2.892  13.570
42332W        W10561  40.515  15.364  13.964
42333W        W10562  20.755  17.555  11.623
42334W        W10563  35.692  28.693  10.735
42335W        W10564  12.174   5.231  11.225
42336W        W10565   3.454  38.640   4.068
42337W        W10566  42.700  44.001   4.916
42338W        W10567  21.231  23.791   4.782
42339W        W10568  14.251  42.891   3.238
42340W        W10569  24.176  23.317   0.370
42341W        W10570  29.585  21.340   1.894
42342W        W10571  40.473  37.818  10.702
42343W        W10572  17.832  31.559   2.914
42344W        W10573  19.200   8.220   1.744
42345W        W10574  37.384  19.793   1.122
42346W        W10575   5.254  24.301  11.787
42347W        W10576  13.800  18.332  12.045
42348W        W10577  36.640  21.244   2.879
42349W        W10578  44.166  41.824   3.539
42350W        W10579  29.162  32.418  14.242
42351W        W10580  33.810   8.350   3.112
42352W        W10581  26.198  15.672   2.654
42353W        W10582  24.118   6.672   2.680
42354W        W10583  24.567  39.970  13.374
42355W        W10584   6.366   0.834   1.253
42356W        W10585  39.965   7.989   0.007
42357W        W10586  37.972  36.014   3.360
42358W        W10587  35.914   8.269   0.398
42359W        W10588  27.104  19.454   0.272
42360W        W10589  40.791   1.213  13.552
42361W        W10590  38.065  36.415  14.484
42362W        W10591  39.291  13.159   3.370
42363W        W10592  25.628  18.548   2.778
42364W        W10593  16.093   2.303  12.187
42365W        W10594   5.882   0.451   1.220
42366W        W10595   7.987  22.636  12.057
42367W        W10596  17.511  22.780   3.252
42368W        W10597  34.509  16.890  13.639
42369W        W10598  43.555   0.558  14.997
42370W        W10599  41.655   6.085  12.056
42371W        W10600   5.751  40.796   4.990
42372W        W10601  41.835  32.327  13.971
42373W        W10602  33.420  44.166  13.838
42374W        W10603  23.447  18.152  13.051
42375W        W10604  28.003  24.743  12.460
42376W        W10605   5.566  17.626   0.007
42377W        W10606  39.747  38.232  13.494
42378W        W10607  40.787  40.372   1.721
42379W        W10608  19.699   6.302  11.146
42380W        W10609   0.432  22.618  14.888
42381W        W10610  35.616  26.179   4.300
42382W        W10611  28.773  35.002  11.035
42383W        W10612  44.495  29.169  14.437
42384W        W10613  16.890  12.289  14.696
42385W        W10614   1.503  18.677   3.368
42386W        W10615   2.209  36.966  13.655
42387W        W10616  24.671  35.402  14.422
42388W        W10617  17.301  18.523  11.044
42389W        W10618  18.698  27.243   0.194
42390W        W10619  28.423  22.160   0.932
42391W        W10620  33.456  41.326  13.429
42392W        W10621   8.408  18.732  13.004
42393W        W10622  33.109   7.813   4.618
42394W        W10623  32.814  16.796  14.693
42395W        W10624   2.197  18.775  11.224
42396W        W10625   2.756  12.349   0.893
42397W        W10626  10.112  44.392  12.680
42398W        W10627  17.829  26.090  13.041
42399W        W10628  20.228   6.262   3.723
42400W        W10629   5.285  33.098  10.674
42401W        W10630  24.635  21.605  12.219
42402W        W10631   1.374  14.949   1.143
42403W        W10632  40.427  10.425   5.007
42404W        W10633   7.062  16.382  14.851
42405W        W10634  28.140   7.359   3.588
42406W        W10635   6.917  26.730   2.765
42407W        W10636   6.271   1.255  11.215
42408W        W10637  42.850  35.884  14.261
42409W        W10638  14.323  32.473  11.922
42410W        W10639  17.571  42.457  14.285
42411W        W10640  30.893   0.078  12.978
42412W        W10641  30.743  20.750   0.894
42413W        W10642  36.869  15.220   4.612
42414W        W10643  41.861   6.357   3.825
42415W        W10644  40.036  24.260   2.840
42416W        W10645  17.217  27.897   2.702
42417W        W10646  22.496  18.979  14.392
42418W        W10647  34.985  10.354  13.044
42419W        W10648  25.094  38.011   2.669
42420W        W10649  35.004  12.681   3.530
42421W        W10650  37.789  42.527  10.808
42422W        W10651   7.582   0.827   2.445
42423W        W10652  20.750   9.988   3.240
42424W        W10653  34.054   0.992  10.923
42425W        W10654  17.362  34.550   0.919
42426W        W10655  39.821   1.998   4.169
42427W        W10656   4.582  23.552   4.973
42428W        W10657  42.140  12.765   4.836
42429W        W10658  39.655  12.874   1.646
42430W        W10659  29.864  27.089   0.364
42431W        W10660  14.167  43.747  14.798
42432W        W10661  17.362  12.224  10.575
42433W        W10662  44.263  26.205  12.510
42434W        W10663  41.009  41.796  14.383
42435W        W10664   1.674  15.625   1.350
42436W        W10665  38.773  26.047   2.098
42437W        W10666  23.011  35.085   4.654
42438W        W10667   8.190  17.778   4.526
42439W        W10668  17.109  39.060  12.396
42440W        W10669   2.391   8.940   1.656
42441W        W10670  35.106  21.998   2.801
42442W        W10671  21.117  30.403  11.244
42443W        W10672  19.356   6.670   4.551
42444W        W10673   8.687  30.111  11.137
42445W        W10674  32.164  20.549  14.846
42446W        W10675  18.296   9.297  10.551
42447W        W10676  23.467  15.363   0.175
42448W        W10677  44.774   9.885   2.046
42449W        W10678   8.300  15.550   2.301
42450W        W10679  15.108  35.940   3.649
42451W        W10680  39.832  43.804   4.575
42452W        W10681  39.545  13.176   0.846
42453W        W10682  18.230   3.125  14.271
42454W        W10683  24.829   0.298   3.355
42455W        W10684   8.786  38.002   1.924
42456W        W10685  23.201  18.202  12.452
42457W        W10686  15.935  43.034  11.697
42458W        W10687  12.829  36.829  13.245
42459W        W10688  25.113  19.092  12.946
42460W        W10689  43.672   0.205  12.879
42461W        W10690  32.571   3.858   2.126
42462W        W10691   6.689  41.249   2.682
42463W        W10692  39.137  36.466  13.984
42464W        W10693  17.327  36.463   2.273
42465W        W10694  36.255  19.566   1.310
42466W        W10695   8.739  30.517  11.924
42467W        W10696   8.276  17.124   1.706
42468W        W10697  44.081   8.734  11.668
42469W        W10698  23.442  20.687  10.893
42470W        W10699   3.344  11.681  12.345
42471W        W10700  18.293  21.655   2.650
42472W        W10701  40.934  40.468   2.670
42473W        W10702  42.960   3.210  14.973
42474W        W10703  17.693  39.746   3.699
42475W        W10704  36.626  30.339  12.480
42476W        W10705  15.931  37.898   4.664
42477W        W10706  40.605   3.400   1.384
42478W        W10707   5.877  21.911   2.580
42479W        W10708  43.923  10.157   0.022
42480W        W10709   4.471  15.707  14.710
42481W        W10710  43.400  13.504   0.432
42482W        W10711  26.184  14.636   3.632
42483W        W10712  34.014  35.027   4.617
42484W        W10713   3.662  34.019  12.410
42485W        W10714   7.585   1.272  11.508
42486W        W10715   5.327  37.079  13.062
42487W        W10716   0.848  23.467  11.124
42488W        W10717  17.688  19.678   4.233
42489W        W10718  23.010  18.847  10.670
42490W        W10719  13.140  42.736   1.841
42491W        W10720   1.531  27.109   3.223
42492W        W10721  15.139  21.541  11.425
42493W        W10722  19.671  11.382   1.494
42494W        W10723  25.050  16.278   1.347
42495W        W10724   0.438  16.874   1.040
42496W        W10725   2.306  18.707   4.505
42497W        W10726  21.754  18.672   3.620
42498W        W10727   0.665  23.842  14.783
42499W        W10728   1.111  33.938   4.799
42500W        W10729   4.784  20.048   5.187
42501W        W10730   8.937   2.930  11.538
42502W        W10731  33.494  33.608   2.960
42503W        W10732  32.903  11.432  13.395
42504W        W10733  43.513  18.129  14.576
42505W        W10734  20.519   6.961  12.460
42506W        W10735  42.819  43.808   0.476
42507W        W10736  44.585  17.094  14.735
42508W        W10737  34.892  18.649  13.268
42509W        W10738  25.317  33.200  13.560
42510W        W10739  31.527  20.163  14.311
42511W        W10740  27.117  16.780   2.371
42512W        W10741   8.414  31.574  14.439
42513W        W10742  15.673  32.182  13.023
42514W        W10743   5.458  44.284  10.733
42515W        W10744  42.061  34.958   1.861
42516W        W10745  17.327  42.485  10.731
42517W        W10746  25.997  40.786  11.509
42518W        W10747   7.662  43.888  14.091
42519W        W10748  23.813  18.273   3.808
42520W        W10749  41.060  37.230   3.985
42521W        W10750  32.031  12.534  11.128
42522W        W10751  12.283  35.818   2.494
42523W        W10752  43.397   6.356   1.687
42524W        W10753  44.406   8.372   3.096
42525W        W10754  36.375  40.485   2.610
42526W        W10755  39.105  12.823   1.709
42527W        W10756  20.209  29.496  13.046
42528W        W10757  23.772   7.411   0.475
42529W        W10758  36.098   4.249   0.792
42530W        W10759  21.002  11.773   2.838
42531W        W10760  12.394  40.897  12.973
42532W        W10761  23.589   0.326   2.813
42533W        W10762  35.092  17.635  12.615
42534W        W10763  29.106  10.491   3.035
42535W        W10764   6.189  15.705   0.947
42536W        W10765  18.298  27.615   4.147
42537W        W10766   1.607   9.506  13.486
42538W        W10767   1.671  14.522  14.248
42539W        W10768  31.623  14.337  14.450
42540W        W10769  39.228   4.006  11.035
42541W        W10770  39.174  18.997   0.337
42542W        W10771  39.747  33.356   1.289
42543W        W10772   7.945  27.196  10.945
42544W        W10773   6.768  30.655  10.792
42545W        W10774  30.638  41.345   1.802
42546W        W10775   2.384  21.955   0.795
42547W        W10776   2.643  28.691  12.736
42548W        W10777  25.648  17.759   2.143
42549W        W10778  39.771  22.522  11.098
42550W        W10779  17.508  41.276  12.116
42551W        W10780   7.284  41.577   3.869
42552W        W10781  29.551  12.112  13.334
42553W        W10782   6.846   0.660  11.484
42554W        W10783  12.759  11.676   0.837
42555W        W10784   5.168  39.998   5.119
42556W        W10785   8.987  29.631   1.417
42557W        W10786  36.873   3.060   2.124
42558W        W10787  25.073  25.431   3.140
42559W        W10788  30.135  23.161  10.747
42560W        W10789  21.689   6.915   1.340
42561W        W10790  27.186  11.138   2.727
42562W        W10791  37.062  20.808  12.127
42563W        W10792  25.897  24.900  14.287
42564W        W10793  37.935  30.407   2.258
42565W        W10794  33.560   6.177  13.107
42566W        W10795  19.055   5.821  10.882
42567W        W10796  13.100  38.929   3.188
42568W        W10797   9.268   7.344   1.639
42569W        W10798  14.094  36.546   1.064
42570W        W10799  36.997  43.030   3.641
42571W        W10800  20.741  29.457   4.668
42572W        W10801  17.201   7.255   3.381
42573W        W10802   5.897  19.097   4.336
42574W        W10803   6.075  30.994  12.484
42575W        W10804  16.291  22.686   0.814
42576W        W10805  32.243  37.083  14.345
42577W        W10806  29.474  19.261  12.162
42578W        W10807  42.166   8.186  12.483
42579W        W10808  26.674  12.644   1.709
42580W        W10809  38.403  30.213  12.037
42581W        W10810  33.912   7.337  11.554
42582W        W10811  10.673   3.948   4.714
42583W        W10812  32.117  12.001  14.612
42584W        W10813  41.347  23.084  14.438
42585W        W10814   2.529  34.886  14.948
42586W        W10815  18.052  23.521  10.234
42587W        W10816   9.331  39.742  13.886
42588W        W10817  16.816   0.910  12.855
42589W        W10818   8.304  29.547  12.008
42590W        W10819  16.472  22.673  10.282
42591W        W10820  20.515  10.541  12.557
42592W        W10821  29.453   7.028  10.636
42593W        W10822  21.174  44.906  11.395
42594W        W10823  44.512  25.956   4.502
42595W        W10824  35.910  20.424  12.908
42596W        W10825   2.740  33.038  12.528
42597W        W10826   3.734  35.354  11.141
42598W        W10827   3.733   0.479  11.564
42599W        W10828  35.570  27.514  12.474
42600W        W10829  35.501  18.353   4.149
42601W        W10830  22.238  19.541  12.640
42602W        W10831  39.052  22.550  13.097
42603W        W10832   0.142   2.048   1.440
42604W        W10833   1.465  35.370  14.452
42605W        W10834   3.813  33.847  12.859
42606W        W10835  38.066  32.651   0.017
42607W        W10836  30.531  30.926   2.849
42608W        W10837   5.146  24.588   4.031
42609W        W10838  16.713   5.855  10.365
42610W        W10839  26.906   5.410   3.443
42611W        W10840   6.938  12.656  11.548
42612W        W10841   9.832   7.226   4.364
42613W        W10842  19.780  22.094  10.088
42614W        W10843  22.287  16.198  10.670
42615W        W10844  26.069  12.408  12.977
42616W        W10845   7.601  36.237  11.185
42617W        W10846  32.822  26.777   1.686
42618W        W10847  39.605  19.733  14.514
42619W        W10848   0.011  19.760  11.568
42620W        W10849  28.604   1.213   4.462
42621W        W10850  32.676  34.074  11.982
42622W        W10851   3.326  34.360   1.682
42623W        W10852  23.565  16.405  13.081
42624W        W10853  14.689  20.591  14.589
42625W        W10854   9.278  37.621   4.460
42626W        W10855  39.325  36.847  14.336
42627W        W10856   2.005   4.608   3.717
42628W        W10857   4.379   7.687  12.099
42629W        W10858  12.038  26.991   3.294
42630W        W10859  32.025  41.507  14.905
42631W        W10860  10.271   9.751  13.361
42632W        W10861   0.797  44.878   3.658
42633W        W10862   3.599  33.454  11.187
42634W        W10863  43.313  29.187   4.541
42635W        W10864  20.531  43.160   1.462
42636W        W10865  20.450  37.298   4.063
42637W        W10866  26.592   7.160   2.786
42638W        W10867   5.280  43.994   1.889
42639W        W10868  10.870  43.076  10.053
42640W        W10869  19.332  43.254   0.186
42641W        W10870  41.520  22.515   2.693
42642W        W10871  19.072  44.860   2.317
42643W        W10872  32.213  28.022   1.001
42644W        W10873  12.600  26.634   2.874
42645W        W10874  43.807  27.091  11.259
42646W        W10875  36.490  20.050   3.665
42647W        W10876  30.956   4.735  13.882
42648W        W10877  39.522  31.941  13.932
42649W        W10878  31.143  17.777  14.449
42650W        W10879  30.740  38.409   0.085
42651W        W10880   3.387  27.788  11.189
42652W        W10881  15.392   1.816  12.134
42653W        W10882  30.658  39.019   2.596
42654W        W10883  38.279  25.505  12.499
42655W        W10884   5.833  27.690  11.675
42656W        W10885  42.395   5.856   0.929
42657W        W10886   0.777   7.313   3.045
42658W        W10887  37.514  35.836   2.216
42659W        W10888  14.806  15.889   2.280
42660W        W10889  30.608   1.388  10.740
42661W        W10890  34.371  32.089   3.353
42662W        W10891  44.915  14.624  13.682
42663W        W10892  37.876  16.771  10.424
42664W        W10893  18.640   5.157  11.132
42665W        W10894  16.346  36.454   1.202
42666W        W10895  38.997  25.581   4.392
42667W        W10896  27.422  26.073   3.312
42668W        W10897  33.409  16.068   2.575
42669W        W10898  42.004  13.124   4.462
42670W        W10899  43.953  15.502   4.567
42671W        W10900  27.841  44.218  10.696
42672W        W10901  35.513  19.892  11.052
42673W        W10902  43.833  15.016  13.331
42674W        W10903  12.185  39.292   4.541
42675W        W10904  36.899   4.658  12.460
42676W        W10905  25.711  11.272   9.685
42677W        W10906  41.440  43.435  11.149
42678W        W10907  31.530  30.214   2.186
42679W        W10908  24.554  15.206  12.067
42680W        W10909  37.037  39.159   2.221
42681W        W10910  27.494   3.785   4.740
42682W        W10911  31.130  14.686   3.791
42683W        W10912   1.797  25.662   3.294
42684W        W10913  26.446  43.804   1.751
42685W        W10914   4.757  38.157   2.403
42686W        W10915  40.472  32.676  12.551
42687W        W10916  42.342   1.808   4.737
42688W        W10917   6.823  32.561   3.223
42689W        W10918  24.924   9.124   2.307
42690W        W10919   8.364   7.292  14.299
42691W        W10920  25.290   0.887  12.071
42692W        W10921  13.915   2.520   3.149
42693W        W10922  20.546  40.105  10.724
42694W        W10923  38.631  38.990   3.712
42695W        W10924   6.171  22.738  14.439
42696W        W10925  20.212  22.082  13.695
42697W        W10926  23.885  16.335   3.116
42698W        W10927  13.088  38.125   3.017
42699W        W10928  37.084  20.824   3.715
42700W        W10929  27.061  39.788   0.693
42701W        W10930   7.204   2.427   4.525
42702W        W10931   9.219  33.050  11.156
42703W        W10932  12.836  11.394   2.845
42704W        W10933  19.711   4.365  11.405
42705W        W10934  33.945  27.612   3.286
42706W        W10935  26.906  27.188  13.524
42707W        W10936  18.980  23.847   3.253
42708W        W10937  39.480  42.902   3.656
42709W        W10938  14.200  40.741  13.907
42710W        W10939  27.128  32.953  10.516
42711W        W10940  41.741  38.725   5.125
42712W        W10941  34.629  34.815  14.837
42713W        W10942  36.842  24.973  11.553
42714W        W10943  13.704   0.444   2.391
42715W        W10944  25.695  30.480  10.130
42716W        W10945  44.431  40.838  14.908
42717W        W10946   0.736  25.913  12.422
42718W        W10947  11.679  11.253   2.387
42719W        W10948  41.476  25.426   4.064
42720W        W10949  29.993   2.560   1.205
42721W        W10950  24.037  10.210  14.813
42722W        W10951  36.307   9.144   1.112
42723W        W10952  25.681  29.576   3.628
42724W        W10953  24.899  43.894   2.005
42725W        W10954  15.356  22.749  12.216
42726W        W10955  27.622  36.064  12.003
42727W        W10956  31.523  10.537  14.032
42728W        W10957  37.812  25.979   0.295
42729W        W10958  24.544   9.597  10.340
42730W        W10959  21.180  22.986  14.053
42731W        W10960  31.951  36.542  12.184
42732W        W10961  42.540  44.634   1.109
42733W        W10962  11.786  22.557  12.892
42734W        W10963  28.534  33.111   0.254
42735W        W10964  38.494  15.758   4.118
42736W        W10965  23.930  39.533   4.190
42737W        W10966  33.786  14.580   2.706
42738W        W10967   2.519  29.047   4.163
42739W        W10968  16.771  25.158  13.986
42740W        W10969  27.024  26.680  11.120
42741W        W10970  12.399  11.267   1.272
42742W        W10971  26.990  24.408  14.737
42743W        W10972   1.101  29.753  13.448
42744W        W10973  15.808  37.553   0.730
42745W        W10974  11.162  11.602   0.246
42746W        W10975  43.220   4.948   4.580
42747W        W10976  41.889  31.703   3.408
42748W        W10977   0.698  37.494   1.878
42749W        W10978  31.998  13.590   0.446
42750W        W10979  43.932  42.944   2.924
42751W        W10980  30.705  37.486  11.042
42752W        W10981   0.883  10.709  14.463
42753W        W10982  33.925  37.834   4.236
42754W        W10983   9.432  12.651  10.660
42755W        W10984  37.906   2.286  13.811
42756W        W10985  20.734  38.877  13.119
42757W        W10986  38.348  21.642   2.907
42758W        W10987   6.729   0.286  11.150
42759W        W10988  30.943  29.049  12.401
42760W        W10989  43.940  36.891  10.221
42761W        W10990  41.946  26.044   2.100
42762W        W10991  30.701  43.028   2.229
42763W        W10992  33.190  10.474  13.510
42764W        W10993  20.891  21.981  11.607
42765W        W10994   2.793  24.900   2.666
42766W        W10995  23.619   5.420  11.200
42767W        W10996  11.293  13.394   1.299
42768W        W10997  12.228  42.977  12.042
42769W        W10998  37.815   8.316   1.733
42770W        W10999  39.526  34.637   2.734
42771W        W11000  30.384  15.687   1.438
42772W        W11001  36.792  43.718  12.531
42773W        W11002   3.196  33.403  13.532
42774W        W11003  29.352   1.992  11.828
42775W        W11004  36.933  30.733  12.538
42776W        W11005  13.555  41.888  11.124
42777W        W11006  20.731  35.599   2.452
42778W        W11007   1.385   5.871  11.046
42779W        W11008  12.358  11.813   2.215
42780W        W11009  35.422   8.870   1.526
42781W        W11010   0.824  38.792   0.340
42782W        W11011  20.379  21.556  12.825
42783W        W11012   8.986  28.496  13.379
42784W        W11013   8.264   3.261   1.849
42785W        W11014  11.601   0.037   3.788
42786W        W11015  12.252  19.525  12.680
42787W        W11016  27.004   7.508   4.057
42788W        W11017   5.197  28.433   0.918
42789W        W11018   8.586   7.444   2.784
42790W        W11019  35.627  17.339   3.771
42791W        W11020  24.150  40.565  11.632
42792W        W11021   6.727  42.325  11.196
42793W        W11022  32.925  32.729   2.167
42794W        W11023  36.604  27.288  12.318
42795W        W11024  44.582  20.280   1.820
42796W        W11025  15.736  33.061   3.761
42797W        W11026  24.295  41.132  13.411
42798W        W11027  19.157  18.362   2.740
42799W        W11028  40.329  40.000   0.417
42800W        W11029   3.819   3.039  12.411
42801W        W11030  21.601  21.931  12.334
42802W        W11031  29.635  36.772   3.975
42803W        W11032  11.122   0.929  12.577
42804W        W11033  44.116  40.924  12.807
42805W        W11034   6.953   5.484  14.815
42806W        W11035  32.271  33.260  10.302
42807W        W11036  38.513   0.165   2.844
42808W        W11037  33.467   1.179   4.198
42809W        W11038   0.527  38.009  11.728
42810W        W11039  36.362  13.705  12.428
42811W        W11040  17.561  24.731   2.900
42812W        W11041  12.258  13.829   4.000
42813W        W11042  10.319  28.271   1.699
42814W        W11043  12.763   8.898   3.363
42815W        W11044  33.355  26.564  14.474
42816W        W11045  11.924  23.647  13.452
42817W        W11046  14.607  29.419  13.666
42818W        W11047   3.413  16.878   0.192
42819W        W11048   6.303   0.866  13.037
42820W        W11049  10.738  31.689   0.398
42821W        W11050  27.302   0.829   4.641
42822W        W11051  16.631  15.543  11.156
42823W        W11052   6.823  28.112   0.745
42824W        W11053  44.953  35.460   3.345
42825W        W11054  36.801  38.643   0.363
42826W        W11055  28.068  37.149   3.164
42827W        W11056  39.429  22.934   4.831
42828W        W11057  22.431  19.111  13.080
42829W        W11058  20.130  15.897  14.073
42830W        W11059  18.075   1.462  11.816
42831W        W11060  15.235  15.176   1.011
42832W        W11061  42.294  11.671  10.688
42833W        W11062  39.522  20.230  11.064
42834W        W11063   6.958  15.668  13.004
42835W        W11064  36.964  23.537  11.708
42836W        W11065  10.918  20.979   0.899
42837W        W11066   7.590  39.141  11.959
42838W        W11067  26.982  44.168  14.316
42839W        W11068  30.196   2.954   3.248
42840W        W11069  22.877  26.116   3.063
42841W        W11070  19.015  16.734   3.566
42842W        W11071   8.374  27.058  11.877
42843W        W11072  33.614  27.385   0.942
42844W        W11073   4.843  21.227  14.222
42845W        W11074  16.536  27.041   0.373
42846W        W11075  32.551   7.697  13.802
42847W        W11076  37.541  38.336  12.662
42848W        W11077  15.725  23.848  14.694
42849W        W11078  14.628  36.567   1.022
42850W        W11079   5.292  25.035  10.911
42851W        W11080  43.948  28.522   4.492
42852W        W11081  37.387  32.922  14.228
42853W        W11082  27.537  21.300   0.985
42854W        W11083  35.375   2.739   4.830
42855W        W11084  28.413  11.199  12.102
42856W        W11085  17.888  26.894   5.520
42857W        W11086   7.819  31.701   2.339
42858W        W11087  14.864   5.424   4.272
42859W        W11088  20.088  10.585   1.092
42860W        W11089  33.079  40.291   2.910
42861W        W11090  42.950   3.264   3.007
42862W        W11091  40.833  24.212  13.550
42863W        W11092  37.611  35.482   0.405
42864W        W11093  32.030  25.394   3.621
42865W        W11094  10.764  39.822  13.414
42866W        W11095  37.999  18.622   0.582
42867W        W11096  27.465  37.011  11.940
42868W        W11097  16.935   7.195   1.481
42869W        W11098  37.178  14.773  10.749
42870W        W11099  20.675  44.561   2.608
42871W        W11100  24.083  32.641   0.392
42872W        W11101  14.399  35.412  14.890
42873W        W11102  17.566  40.337   0.161
42874W        W11103  30.532   7.349  14.994
42875W        W11104   0.307  15.684   2.010
42876W        W11105  15.685  14.863  14.532
42877W        W11106  30.957  36.659   3.978
42878W        W11107  28.091   6.747  14.359
42879W        W11108  11.160   7.025  13.509
42880W        W11109  26.630  17.576  11.203
42881W        W11110  28.928  21.703   1.795
42882W        W11111  29.626  17.201  12.209
42883W        W11112  35.578   7.816  11.533
42884W        W11113   6.843  38.376  10.435
42885W        W11114  39.991  13.341  14.259
42886W        W11115   4.699  44.388  14.194
42887W        W11116   6.476  17.634   0.492
42888W        W11117  43.417   2.917  12.393
42889W        W11118  28.997  14.032   3.645
42890W        W11119  43.871  22.661  14.209
42891W        W11120  16.030   8.174  13.089
42892W        W11121  24.091   7.040   3.668
42893W        W11122  20.523  27.015  13.980
42894W        W11123  27.020   5.789   2.031
42895W        W11124   0.333  14.307  11.066
42896W        W11125  18.646  14.639  13.138
42897W        W11126  38.592  23.763  14.446
42898W        W11127   5.196   6.900  13.855
42899W        W11128  39.946  29.392   3.662
42900W        W11129   9.117   8.665  10.670
42901W        W11130   2.333   5.074   0.556
42902W        W11131  11.310  35.121   4.209
42903W        W11132  10.184  10.704   0.063
42904W        W11133  25.631  30.902  12.193
42905W        W11134  27.459   2.859  13.335
42906W        W11135   0.956   9.326  12.609
42907W        W11136   0.939   7.801  14.758
42908W        W11137  33.093  22.556  14.946
42909W        W11138   4.864  14.287   4.608
42910W        W11139  32.116  12.728   4.744
42911W        W11140  18.091  43.661   1.303
42912W        W11141   0.990  35.533  12.880
42913W        W11142  33.080  14.423   0.943
42914W        W11143  15.182   9.943   3.637
42915W        W11144  24.256  22.786   5.285
42916W        W11145  28.700  24.419  11.641
42917W        W11146   6.000  28.994   2.520
42918W        W11147  28.141  34.435  14.460
42919W        W11148  37.898  14.724  14.606
42920W        W11149  44.295  14.849   0.835
42921W        W11150   9.377  26.663   3.113
42922W        W11151   6.218  11.107  11.663
42923W        W11152  17.744  44.111   2.648
42924W        W11153  43.232  26.089   1.239
42925W        W11154  24.708  18.110   4.757
42926W        W11155  31.596  43.982  14.602
42927W        W11156   9.145  17.112  14.886
42928W        W11157  37.437  24.909  10.535
42929W        W11158  19.487   5.644  14.885
42930W        W11159  28.659  12.857  14.298
42931W        W11160  39.031  24.120   2.032
42932W        W11161  19.884   3.860   4.673
42933W        W11162  26.523   9.220  14.956
42934W        W11163   2.213   1.866   0.428
42935W        W11164  14.257   1.410  11.734
42936W        W11165  40.826  39.751  12.454
42937W        W11166  28.317   2.025   9.890
42938W        W11167   3.050  10.610   0.076
42939W        W11168  25.545  13.797   2.600
42940W        W11169   2.291   0.203  11.208
42941W        W11170  17.999  12.791   4.508
42942W        W11171  15.321  27.435   2.408
42943W        W11172  34.291  25.193   3.237
42944W        W11173  14.753  38.567   1.386
42945W        W11174  20.080  11.581  11.235
42946W        W11175  24.273  19.063   0.274
42947W        W11176  14.431   4.920   1.199
42948W        W11177   2.851  23.542   0.610
42949W        W11178   0.539  19.072   1.831
42950W        W11179  17.199  13.920  13.462
42951W        W11180  19.900  14.100   0.599
42952W        W11181  36.175  14.951  11.270
42953W        W11182  30.922  19.543   4.251
42954W        W11183   6.955  42.734  13.539
42955W        W11184   5.656  25.648   4.006
42956W        W11185  29.919   5.701  14.854
42957W        W11186  29.718  12.815   5.001
42958W        W11187  10.954  31.040  10.445
42959W        W11188  33.226  14.392  12.054
42960W        W11189   5.843  13.100   3.220
42961W        W11190  32.205  33.576  10.734
42962W        W11191  43.808  34.462   3.271
42963W        W11192  41.092  14.120   2.194
42964W        W11193  43.749  32.494   4.270
42965W        W11194  11.825  43.863  13.200
42966W        W11195  38.936  37.424   2.868
42967W        W11196  42.995   0.350   3.646
42968W        W11197   2.961  12.591  10.593
42969W        W11198  42.101  29.461   3.266
42970W        W11199  11.376  37.943   1.084
42971W        W11200  11.318  23.211   2.402
42972W        W11201  36.450  38.567   1.806
42973W        W11202   9.201  42.265   0.850
42974W        W11203  24.853  11.369  13.125
42975W        W11204  30.080   7.735   3.800
42976W        W11205   8.141  21.483   2.350
42977W        W11206   1.558  14.668  11.121
42978W        W11207  38.114  28.127   2.313
42979W        W11208  44.829   7.840   4.359
42980W        W11209   8.248   9.055  13.946
42981W        W11210   4.819  24.755  13.375
42982W        W11211   9.368  39.320   1.362
42983W        W11212  10.242  38.779   2.720
42984W        W11213  26.703   0.948   5.173
42985W        W11214  13.068   2.736   0.769
42986W        W11215   9.565   1.313  13.246
42987W        W11216  30.645  33.679   1.777
42988W        W11217  32.996  11.121  10.920
42989W        W11218   3.475  41.193  14.455
42990W        W11219  12.833  38.488   3.340
42991W        W11220   8.873   2.352   3.248
42992W        W11221  42.600   0.248  14.957
42993W        W11222  16.039  16.170  10.124
42994W        W11223  21.675  13.363  12.157
42995W        W11224  39.629  22.285  13.896
42996W        W11225  12.425  15.530  11.010
42997W        W11226  17.309  36.424  10.562
42998W        W11227  25.184  20.040   2.324
42999W        W11228  13.573   4.732  12.715
43000W        W11229  19.646   7.753   1.005
43001W        W11230  44.450  10.205  10.287
43002W        W11231  10.340  22.636  13.595
43003W        W11232  35.875  28.569   0.875
43004W        W11233  36.027   6.350   4.631
43005W        W11234  10.894   2.969  14.358
43006W        W11235  15.329  41.457  12.010
43007W        W11236  13.753   1.286  14.456
43008W        W11237  15.285  15.643  12.968
43009W        W11238  37.128  29.099  13.814
43010W        W11239   4.078  37.889  13.353
43011W        W11240   7.505  40.729   2.861
43012W        W11241   9.679   0.905   3.658
43013W        W11242   8.063   0.035  11.058
43014W        W11243   6.628  31.051   4.365
43015W        W11244  17.597   7.726   4.639
43016W        W11245  34.909  30.142  14.571
43017W        W11246  10.133  22.202   3.844
43018W        W11247  44.062  27.920  12.891
43019W        W11248  21.774  41.414  11.413
43020W        W11249  27.098   9.337   2.555
43021W        W11250   3.476  13.318   2.952
43022W        W11251  13.637  16.129  12.428
43023W        W11252  14.261   0.014   3.891
43024W        W11253  33.268  39.394   0.886
43025W        W11254  44.822  42.848   2.249
43026W        W11255  24.057  34.178  13.798
43027W        W11256   6.150  19.760  14.325
43028W        W11257  17.536  42.498   0.486
43029W        W11258   7.818  39.092  13.406
43030W        W11259   6.898   3.498  14.832
43031W        W11260  25.027  41.523   2.245
43032W        W11261  29.793   3.783  11.323
43033W        W11262  26.306  14.772  12.548
43034W        W11263  24.210  22.177  10.796
43035W        W11264  21.490  17.020   4.558
43036W        W11265  36.096  31.536  13.832
43037W        W11266  19.570   1.150   3.776
43038W        W11267  24.997   1.938  13.875
43039W        W11268  33.673  16.695   3.217
43040W        W11269  33.425  12.873  14.520
43041W        W11270  31.103  23.589  14.830
43042W        W11271  28.961   5.639  12.141
43043W        W11272  40.620   3.505  11.081
43044W        W11273  34.907  26.685   0.971
43045W        W11274   9.188  44.276   3.524
43046W        W11275  26.101  28.079  10.666
43047W        W11276  17.203  44.794   1.395
43048W        W11277   9.243  33.512  13.369
43049W        W11278   5.500  12.697   4.063
43050W        W11279  35.770  19.989   2.613
43051W        W11280  17.495   0.751   1.894
43052W        W11281  37.329  27.402   2.943
43053W        W11282   6.504  19.658  14.728
43054W        W11283  27.658  44.698  10.635
43055W        W11284   7.990  13.033  10.683
43056W        W11285  14.351  24.479  14.881
43057W        W11286  24.144  36.094   2.276
43058W        W11287  42.581  20.742   0.288
43059W        W11288  15.273  16.195  13.050
43060W        W11289   9.187   8.628   1.842
43061W        W11290  25.193  42.267   2.757
43062W        W11291  15.763  15.475  10.645
43063W        W11292  40.367  14.171  13.454
43064W        W11293  19.480  27.058  12.966
43065W        W11294  25.756  15.216  11.822
43066W        W11295  14.686  44.037  14.948
43067W        W11296  18.722  17.712   1.661
43068W        W11297  29.508  10.644   4.562
43069W        W11298  26.592   5.451  10.381
43070W        W11299  40.927  31.458  12.610
43071W        W11300  25.659   4.317  12.207
43072W        W11301  21.734  44.223   4.690
43073W        W11302   6.473   4.711   4.244
43074W        W11303   3.942  38.759   1.272
43075W        W11304  18.101  31.207   4.509
43076W        W11305  20.550   4.250  14.748
43077W        W11306  30.535  17.670   4.056
43078W        W11307   6.168  27.128   3.802
43079W        W11308   9.637  43.514   3.497
43080W        W11309  15.585   7.432   4.696
43081W        W11310  30.479   0.541  14.716
43082W        W11311  40.344   5.906   3.815
43083W        W11312  28.721  24.220   0.404
43084W        W11313  32.432   0.091  14.905
43085W        W11314  11.438  39.152   1.559
43086W        W11315  25.193   2.005   4.496
43087W        W11316   2.983  27.510   0.269
43088W        W11317  34.474  25.615   4.730
43089W        W11318  39.826  36.489  11.618
43090W        W11319   2.391  30.907   3.422
43091W        W11320  17.766  19.589  14.331
43092W        W11321  11.769   6.287   1.460
43093W        W11322  21.993  25.564  13.743
43094W        W11323  20.501   2.726   3.636
43095W        W11324  18.796  33.459  11.955
43096W        W11325  15.596   5.004  12.633
43097W        W11326   9.895   9.562  14.417
43098W        W11327  44.115   8.825  12.502
43099W        W11328  38.899  38.967   0.811
43100W        W11329  31.972  27.321   4.057
43101W        W11330  14.625   5.812   4.047
43102W        W11331  32.323  36.470   1.858
43103W        W11332  10.709  23.052   0.767
43104W        W11333  20.866   9.761   3.688
43105W        W11334  23.114  13.507   2.178
43106W        W11335  27.704  41.447  13.934
43107W        W11336   0.201   8.359   0.768
43108W        W11337  27.625  43.812   1.887
43109W        W11338  21.760  40.651  10.673
43110W        W11339  11.812  43.240  11.938
43111W        W11340  31.194   1.278  14.357
43112W        W11341  10.496   4.650  14.604
43113W        W11342  40.476  13.429  11.832
43114W        W11343  28.461   1.949  13.842
43115W        W11344  25.418   3.196   0.782
43116W        W11345  16.898  13.310   0.416
43117W        W11346  35.728  44.497   2.753
43118W        W11347   9.309  21.994   0.987
43119W        W11348   7.092  17.116   4.944
43120W        W11349  12.103   2.731   0.101
43121W        W11350  41.765  23.633   2.044
43122W        W11351   4.514   6.815  13.050
43123W        W11352   2.887  41.797  13.053
43124W        W11353  14.627  32.181   5.213
43125W        W11354  21.975  36.752  14.343
43126W        W11355  26.998  36.873  14.543
43127W        W11356  23.670  20.237  10.753
43128W        W11357  18.335  31.770   5.348
43129W        W11358   1.525  26.139   3.648
43130W        W11359  16.340  22.179  14.842
43131W        W11360  14.675   0.052  14.961
43132W        W11361  34.672   8.647   0.352
43133W        W11362  24.340   5.674  14.818
43134W        W11363  38.664   5.507  12.688
43135W        W11364  25.627  21.624  12.171
43136W        W11365  11.901  37.546   1.376
43137W        W11366  19.654   4.494   2.193
43138W        W11367   8.644   8.390  12.498
43139W        W11368   4.827  44.694  13.389
43140W        W11369  16.611   0.316   4.110
43141W        W11370  38.321  14.245   1.807
43142W        W11371   2.876   4.434   4.586
43143W        W11372  24.443   1.964   2.899
43144W        W11373  35.502  29.105   3.135
43145W        W11374   5.290   9.701   3.494
43146W        W11375  30.829  42.067   4.267
43147W        W11376  36.633  42.575   2.699
43148W        W11377  14.135  25.239  14.337
43149W        W11378  40.973  41.533  14.835
43150W        W11379  33.980  34.270   1.018
43151W        W11380  30.221  12.729   0.301
43152W        W11381   9.192   4.653   4.716
43153W        W11382  21.442  32.552   0.804
43154W        W11383   7.871  17.805  13.854
43155W        W11384   3.961  29.773  12.652
43156W        W11385  36.587  43.329   2.330
43157W        W11386   4.462  39.347   0.792
43158W        W11387   7.765  28.061  14.454
43159W        W11388  28.074   3.789   2.653
43160W        W11389  44.892  16.913   0.108
43161W        W11390  34.722  12.306   0.346
43162W        W11391  21.851  14.633  12.841
43163W        W11392  11.561  30.940   0.600
43164W        W11393   2.936  42.131   0.303
43165W        W11394   5.374   2.551  13.557
43166W        W11395  17.088  25.022  11.225
43167W        W11396  11.283   7.184  10.917
43168W        W11397   6.703  30.860   3.188
43169W        W11398  15.751  28.733   3.790
43170W        W11399   9.155  18.494  13.523
43171W        W11400  42.936  43.389   0.956
43172W        W11401   1.278  44.786  13.949
43173W        W11402  10.666  37.286   3.055
43174W        W11403  33.516  26.465  13.601
43175W        W11404  33.709  15.838   4.095
43176W        W11405  32.009  30.380   2.368
43177W        W11406  14.319  37.043  13.398
43178W        W11407   9.799  15.795   2.003
43179W        W11408  26.139  35.196  13.036
43180W        W11409   5.844  24.614   1.386
43181W        W11410   7.196  14.617   1.854
43182W        W11411  37.211  12.498   3.638
43183W        W11412  44.060  29.448  13.686
43184W        W11413  42.453  28.119   0.516
43185W        W11414  25.123  10.332   4.066
43186W        W11415   9.813  43.818   2.460
43187W        W11416  33.042  10.288   2.731
43188W        W11417  24.347   2.373  14.361
43189W        W11418  20.176  26.026   3.636
43190W        W11419  31.899  19.491   1.799
43191W        W11420  43.001  31.146  11.408
43192W        W11421  34.062  16.752  14.979
43193W        W11422  42.721  36.039   3.727
43194W        W11423  27.774  32.282   9.722
43195W        W11424   0.890  33.048  14.040
43196W        W11425  41.318  42.370  11.957
43197W        W11426  31.182  13.414  13.465
43198W        W11427  31.490   4.375   2.081
43199W        W11428  23.506   2.987  10.700
43200W        W11429  17.129  11.635  14.077
43201W        W11430  44.916  39.824  11.670
43202W        W11431  20.209   4.220   0.504
43203W        W11432  31.856  39.902  13.986
43204W        W11433  29.072  23.577   0.008
43205W        W11434  11.315  24.160   2.797
43206W        W11435  13.173  27.333   2.915
43207W        W11436  44.804  38.529   3.845
43208W        W11437  41.578   0.397  11.094
43209W        W11438  10.281  17.755   1.264
43210W        W11439  35.383  25.953   4.704
43211W        W11440  28.618  32.871  14.760
43212W        W11441  14.817  13.664  12.078
43213W        W11442   7.796  12.847  12.987
43214W        W11443  42.995  13.539   1.756
43215W        W11444  27.864  27.423   3.686
43216W        W11445   4.378  44.444   0.506
43217W        W11446  16.393  26.657  10.901
43218W        W11447  41.202   0.331  12.374
43219W        W11448   0.791  20.681  14.929
43220W        W11449  32.807  42.382  14.409
43221W        W11450  21.542  28.234  12.975
43222W        W11451  29.626  15.586  12.675
43223W        W11452  38.505  23.026  14.027
43224W        W11453  32.799  42.809  10.239
43225W        W11454  18.768  20.510   3.170
43226W        W11455  38.672  24.754   1.880
43227W        W11456  30.846  28.913   2.163
43228W        W11457  24.717   4.892  14.912
43229W        W11458  32.125  33.006  12.987
43230W        W11459   5.970  27.219  14.025
43231W        W11460  18.263  44.718   4.836
43232W        W11461  29.816  29.840   2.240
43233W        W11462  24.045  44.777  12.406
43234W        W11463  36.214   0.759   4.301
43235W        W11464   6.758  35.603  14.989
43236W        W11465   3.026  26.696   2.799
43237W        W11466  14.888  14.770   4.136
43238W        W11467  23.191  10.953   4.173
43239W        W11468   7.129  31.387   2.928
43240W        W11469   9.499  19.734   4.182
43241W        W11470  42.453  41.880   4.318
43242W        W11471   6.918   4.009  14.779
43243W        W11472   4.396   0.857   3.282
43244W        W11473   4.353   3.494   2.416
43245W        W11474  13.116  24.023   2.201
43246W        W11475  12.779  36.977   3.503
43247W        W11476  37.011  30.696  11.674
43248W        W11477  28.044  17.683   3.717
43249W        W11478   1.633   3.453  10.201
43250W        W11479   4.719  27.742  14.033
43251W        W11480  19.770  21.197  13.945
43252W        W11481  12.170   5.753  10.412
43253W        W11482  10.806  23.398  12.854
43254W        W11483  29.900  39.373   0.295
43255W        W11484  10.126  26.666  14.382
43256W        W11485   6.687   5.310   3.071
43257W        W11486  29.017  23.983   2.209
43258W        W11487  20.135  25.951   1.798
43259W        W11488  32.551  39.506  13.426
43260W        W11489  28.139  30.643   2.793
43261W        W11490  13.431  33.301   5.032
43262W        W11491  34.496  43.595   3.620
43263W        W11492   4.719  42.040   0.930
43264W        W11493  39.123  27.220  11.205
43265W        W11494  27.583  30.510   3.605
43266W        W11495   0.782  12.912  13.843
43267W        W11496   2.773   3.211   3.926
43268W        W11497  14.851   2.590   4.448
43269W        W11498  39.903  27.686  12.638
43270W        W11499  35.478  25.059  14.361
43271W        W11500   2.357  13.669  11.694
43272W        W11501  26.274  30.312   2.794
43273W        W11502  27.341  11.030  13.322
43274W        W11503  26.020  16.701  13.502
43275W        W11504  25.706  18.212  11.770
43276W        W11505  43.021   4.374  10.844
43277W        W11506   7.421   5.199  12.448
43278W        W11507  29.997   8.645  12.462
43279W        W11508   2.816  15.632  10.660
43280W        W11509  16.321  22.385   5.559
43281W        W11510  22.563  42.048  12.227
43282W        W11511  20.053   3.597  10.461
43283W        W11512  28.158  15.450  11.326
43284W        W11513  13.524  25.138   1.768
43285W        W11514  15.615  42.694  11.419
43286W        W11515  15.207   7.199  12.660
43287W        W11516   9.958  40.685  10.991
43288W        W11517  19.815  18.078  14.781
43289W        W11518  25.885  14.732   0.892
43290W        W11519  26.338  37.155   4.231
43291W        W11520   2.743  27.543   4.633
43292W        W11521  29.693  44.213  12.973
43293W        W11522   7.472  44.406  10.505
43294W        W11523  22.490  18.403   4.983
43295W        W11524   6.323  23.982  10.504
43296W        W11525  22.670  11.228  10.564
43297W        W11526  31.544  42.926   4.979
43298W        W11527  24.247   2.824  12.989
43299W        W11528  13.752  43.972   4.736
43300W        W11529   9.406   5.893   0.221
43301W        W11530  23.002  40.877  12.465
43302W        W11531  18.849  26.148  12.986
43303W        W11532  15.765  25.873   4.367
43304W        W11533  36.160  26.127  10.727
43305W        W11534  14.215  29.451   1.316
43306W        W11535  25.048   2.903   1.763
43307W        W11536   8.174  28.861   0.621
43308W        W11537  34.004  41.082  13.525
43309W        W11538  19.487  38.388   2.286
43310W        W11539   3.360  20.343  12.120
43311W        W11540  17.082  29.611  13.888
43312W        W11541  17.564   9.180  13.693
43313W        W11542   1.472   9.028   0.418
43314W        W11543  28.055   9.672   3.832
43315W        W11544   8.691  44.388  13.166
43316W        W11545   9.963  10.289  11.102
43317W        W11546   9.651  26.648   1.298
43318W        W11547  29.351  10.474   4.089
43319W        W11548  18.625  17.424   3.159
43320W        W11549  20.974  27.098   5.146
43321W        W11550  17.590  18.060   0.936
43322W        W11551   2.527   0.256   0.949
43323W        W11552  27.229  40.966   2.315
43324W        W11553  21.736  44.004   1.786
43325W        W11554  30.644  39.439   2.022
43326W        W11555   5.220  17.532   1.200
43327W        W11556   9.206  14.565  10.657
43328W        W11557  30.811  38.905  11.036
43329W        W11558   2.707  13.362   0.919
43330W        W11559  35.324  36.899  14.647
43331W        W11560  40.338  35.686  12.991
43332W        W11561   0.393  22.488   1.447
43333W        W11562  23.516  38.483   0.640
43334W        W11563  28.753   1.946   1.146
43335W        W11564  27.021  22.520  11.222
43336W        W11565  26.933  22.288   3.576
43337W        W11566  30.586   0.803  12.077
43338W        W11567  23.432   1.020  10.742
43339W        W11568  37.516  24.818  11.881
43340W        W11569  34.995  10.380   2.349
43341W        W11570  39.315   0.530   3.078
43342W        W11571  40.751  33.531   0.389
43343W        W11572  25.027  32.033  10.218
43344W        W11573  26.606  17.624   0.330
43345W        W11574   0.426  33.030   2.889
43346W        W11575  13.558   2.947   0.808
43347W        W11576  19.542  21.155  11.832
43348W        W11577   3.552  11.652   4.093
43349W        W11578   1.754   3.891   0.205
43350W        W11579   7.241  27.776  14.576
43351W        W11580  36.831  25.684   0.536
43352W        W11581  42.368   1.289  10.559
43353W        W11582  14.763  10.932  14.467
43354W        W11583  12.442  40.517  13.865
43355W        W11584  25.363  34.523   2.620
43356W        W11585  25.655  28.914   4.692
43357W        W11586  33.072  13.923   0.965
43358W        W11587  27.736  15.567  14.532
43359W        W11588  38.834  14.815  12.570
43360W        W11589  21.604  42.442   1.132
43361W        W11590  44.794   4.860   0.311
43362W        W11591  16.362  29.237   4.293
43363W        W11592   9.247   5.864   2.292
43364W        W11593  16.137  43.136   5.217
43365W        W11594  24.946  40.600   3.433
43366W        W11595   5.855  37.462  11.847
43367W        W11596  43.477  17.176  10.380
43368W        W11597   2.356  13.388   1.296
43369W        W11598  12.426  42.877  11.583
43370W        W11599  40.149  28.977   2.418
43371W        W11600  35.476  14.271   4.387
43372W        W11601  21.281  35.045  11.456
43373W        W11602  28.571  12.221   4.947
43374W        W11603  27.639  28.096   0.867
43375W        W11604  23.708   5.768   1.458
43376W        W11605  20.625  43.079  10.773
43377W        W11606   5.204  20.109  13.540
43378W        W11607  19.585   5.604   3.257
43379W        W11608  21.517   5.477  13.037
43380W        W11609  19.000  10.836  10.647
43381W        W11610   5.656   5.307  14.320
43382W        W11611  19.039  37.513   0.910
43383W        W11612  19.976  18.630   2.462
43384W        W11613  22.885  27.967  14.268
43385W        W11614  28.627   7.317   4.780
43386W        W11615  43.371   2.460   3.139
43387W        W11616  10.277  34.433   1.793
43388W        W11617  29.373   4.930   2.834
43389W        W11618  14.191   3.608  11.207
43390W        W11619   9.968  29.650  11.670
43391W        W11620  10.290   9.470   5.146
43392W        W11621   7.638   2.017  13.456
43393W        W11622  28.633   6.208   0.245
43394W        W11623  23.164  28.173  12.381
43395W        W11624  31.958  44.674   3.191
43396W        W11625  33.535  16.670  13.075
43397W        W11626   0.986   4.861   3.377
43398W        W11627  38.085  33.547  12.001
43399W        W11628   5.278  26.409   4.009
43400W        W11629  13.767  25.179  13.949
43401W        W11630  17.544   4.697   3.147
43402W        W11631  19.920  34.488  11.204
43403W        W11632  21.015  23.097  12.834
43404W        W11633  37.172  10.862  13.588
43405W        W11634   9.785  15.779  14.493
43406W        W11635  40.544  31.647   5.111
43407W        W11636  33.680  39.878   1.364
43408W        W11637  41.342   4.798  10.983
43409W        W11638   6.756  33.074   3.379
43410W        W11639  26.515  39.499  13.332
43411W        W11640  39.402  37.941  12.871
43412W        W11641   9.440  32.917  14.099
43413W        W11642  16.603  43.272   3.238
43414W        W11643   1.093  28.657  12.509
43415W        W11644  36.015   5.925  12.102
43416W        W11645  39.926  14.873  13.818
43417W        W11646  31.309  22.066  11.504
43418W        W11647  44.290  25.548  10.989
43419W        W11648  38.747  32.617   3.503
43420W        W11649   7.198  15.142   1.772
43421W        W11650  36.816  28.659  13.783
43422W        W11651  10.593  42.994  13.006
43423W        W11652  26.028   9.837  11.695
43424W        W11653  19.567  40.916   3.258
43425W        W11654  44.526   5.375  14.799
43426W        W11655  17.848  18.770   4.317
43427W        W11656  30.073  14.091  11.948
43428W        W11657   1.471   9.853   4.759
43429W        W11658  26.178  43.421   4.256
43430W        W11659  30.623  36.948  10.870
43431W        W11660  23.257  20.519   3.652
43432W        W11661  44.328  36.022  11.992
43433W        W11662   2.199   5.147   3.123
43434W        W11663  40.391  19.198  13.033
43435W        W11664  12.790  33.960   3.748
43436W        W11665  31.262  17.548  14.999
43437W        W11666  34.433  42.916  11.186
43438W        W11667  33.753  36.369   2.284
43439W        W11668  44.925  44.064   4.363
43440W        W11669  22.764  23.250  10.700
43441W        W11670  29.530  37.403  11.488
43442W        W11671  36.506  16.011  13.008
43443W        W11672  23.103   5.384   0.927
43444W        W11673  34.991  14.914  10.783
43445W        W11674   2.456  21.280  11.959
43446W        W11675   4.194  38.328   0.020
43447W        W11676  28.556  26.807   2.155
43448W        W11677  42.313  43.271  12.149
43449W        W11678   0.316  29.528  11.032
43450W        W11679  41.725  36.354   2.202
43451W        W11680   7.726  11.460  14.576
43452W        W11681  21.706   9.281  13.047
43453W        W11682   6.227  26.609  13.010
43454W        W11683  12.699  14.214  14.439
43455W        W11684   2.769  30.575  10.701
43456W        W11685  17.146   1.472  14.790
43457W        W11686  29.872  25.077  14.817
43458W        W11687  21.044   5.319  14.545
43459W        W11688  44.994  34.535   0.012
43460W        W11689  10.247   7.133   4.682
43461W        W11690  12.818  22.180   0.993
43462W        W11691  40.612   1.860  14.224
43463W        W11692  14.713  32.569  12.559
43464W        W11693  33.228  38.573  14.596
43465W        W11694  27.630   9.469  14.416
43466W        W11695  32.907   1.820   0.952
43467W        W11696  39.319  34.631  13.927
43468W        W11697   1.465  42.489   1.865
43469W        W11698  17.299  34.831  13.393
43470W        W11699  36.893   2.163   3.190
43471W        W11700  29.980  32.812  10.803
43472W        W11701   5.761   1.492   0.845
43473W        W11702  25.997   0.726  13.610
43474W        W11703  41.358  33.970  13.033
43475W        W11704  27.103  38.472  13.478
43476W        W11705   5.946  12.722   1.769
43477W        W11706   5.849   4.016   2.385
43478W        W11707  14.894  15.134  11.621
43479W        W11708  35.517  21.985   1.478
43480W        W11709  12.187  31.014   2.547
43481W        W11710   9.863  27.199  12.016
43482W        W11711  41.699  32.358  10.574
43483W        W11712  11.226  36.061  11.942
43484W        W11713  38.057  11.445  11.392
43485W        W11714  11.039  11.961  13.466
43486W        W11715  22.921   1.999   0.511
43487W        W11716  14.210  29.489  13.352
43488W        W11717   9.344  42.787   4.826
43489W        W11718  32.618   8.765  12.026
43490W        W11719  25.966  36.348  12.469
43491W        W11720  24.071  16.083   4.114
43492W        W11721  40.064   9.907   2.487
43493W        W11722  43.359   2.254  13.160
43494W        W11723  30.025  20.070   1.283
43495W        W11724  17.795  31.899  14.811
43496W        W11725  40.131  24.711  13.292
43497W        W11726  19.114   3.291   2.885
43498W        W11727  39.106  13.384  12.573
43499W        W11728  33.911  31.024   3.752
43500W        W11729  12.869  23.884  12.014
43501W        W11730  10.856   4.774  12.078
43502W        W11731  15.354  32.525   2.740
43503W        W11732  21.282   6.933   2.779
43504W        W11733  12.261   9.315   1.441
43505W        W11734  36.005  24.979  10.569
43506W        W11735  17.688   2.330  12.484
43507W        W11736   2.526  27.550  10.653
43508W        W11737   2.869   9.349   2.248
43509W        W11738  23.748  42.512   2.902
43510W        W11739  41.456  42.752   1.349
43511W        W11740   8.769  17.101   2.399
43512W        W11741  33.766   2.811  11.585
43513W        W11742  44.259  40.062   4.183
43514W        W11743  35.964  14.402   2.163
43515W        W11744  17.610  15.682   3.785
43516W        W11745  12.739  43.212  12.874
43517W        W11746   0.647  30.627   3.024
43518W        W11747  26.059  41.099   2.419
43519W        W11748  43.078  17.216   4.157
43520W        W11749  36.844  26.269   2.951
43521W        W11750  26.439  21.003  14.784
43522W        W11751   2.802  14.578  10.739
43523W        W11752  25.070  17.032   0.769
43524W        W11753  24.491  15.697   4.537
43525W        W11754  15.838  35.052  10.795
43526W        W11755  22.707  38.060  12.470
43527W        W11756  38.238   9.901  10.253
43528W        W11757   2.045   4.370   4.194
43529W        W11758  40.695   2.194  11.235
43530W        W11759  32.164  37.931   2.751
43531W        W11760  17.929  14.287  12.877
43532W        W11761  31.508   3.311   0.002
43533W        W11762  21.053   6.418   4.256
43534W        W11763  20.525   8.861   2.690
43535W        W11764  37.150  24.029  11.588
43536W        W11765  13.640  35.795   5.082
43537W        W11766  33.039  20.125  13.892
43538W        W11767  37.964   0.201   3.259
43539W        W11768  13.815  44.613   4.471
43540W        W11769  28.394   0.465  12.139
43541W        W11770  31.858  24.068  14.027
43542W        W11771  20.026  17.073   4.233
43543W        W11772  40.554  19.991   2.482
43544W        W11773  21.565  13.699   0.305
43545W        W11774  32.569  18.875   4.833
43546W        W11775   6.719  27.166   0.920
43547W        W11776  42.354  32.629   1.878
43548W        W11777  36.726  19.777   2.870
43549W        W11778   3.497  16.688  14.354
43550W        W11779  19.271   7.613  11.522
43551W        W11780   2.433  22.462   0.880
43552W        W11781  40.335  33.558  14.499
43553W        W11782   1.035  20.063  13.879
43554W        W11783  31.953  30.788  10.930
43555W        W11784  23.655  20.180   4.526
43556W        W11785   8.082  41.795  10.606
43557W        W11786  25.422  25.617   4.510
43558W        W11787  18.719  26.960   1.624
43559W        W11788  24.125  10.154  13.212
43560W        W11789   1.011   1.809  13.388
43561W        W11790  26.924  36.084   0.308
43562W        W11791   4.408  37.313   1.837
43563W        W11792   8.381  41.245   4.196
43564W        W11793  34.150  28.570   0.440
43565W        W11794  32.858   2.736  12.870
43566W        W11795  23.206  43.570   2.280
43567W        W11796  38.439   8.592   1.007
43568W        W11797  29.746  33.060  12.972
43569W        W11798  40.482  38.828   0.090
43570W        W11799  11.598  30.660  13.367
43571W        W11800   3.716  25.218   2.239
43572W        W11801   1.848  18.781   0.422
43573W        W11802  40.091   9.606   3.920
43574W        W11803  35.916   7.324  13.303
43575W        W11804   5.418  23.212  14.899
43576W        W11805  16.537  35.596  10.204
43577W        W11806   8.541  43.322  10.709
43578W        W11807  18.517  31.238   1.286
43579W        W11808   0.248  23.550  14.741
43580W        W11809  37.320  35.962   4.596
43581W        W11810  29.131  37.787   5.017
43582W        W11811  15.203   1.016  14.297
43583W        W11812  37.534  44.474  10.342
43584W        W11813  23.479  40.787  11.021
43585W        W11814   7.569  43.804   2.662
43586W        W11815   3.457  40.526   0.931
43587W        W11816  16.271  36.110  13.906
43588W        W11817  31.949  44.928   2.714
43589W        W11818   7.155  27.616   1.763
43590W        W11819  22.707  29.616  10.889
43591W        W11820  32.890  33.219  11.104
43592W        W11821   6.870  30.528  13.570
43593W        W11822  40.573  29.141   4.719
43594W        W11823  25.093  28.033  13.955
43595W        W11824  24.063  16.533  12.967
43596W        W11825   3.129  10.707  13.576
43597W        W11826  44.513  32.060   3.240
43598W        W11827   6.671  34.028  13.159
43599W        W11828  19.023  21.972   3.370
43600W        W11829  36.340   3.278   4.525
43601W        W11830   8.104  22.152  12.119
43602W        W11831  27.574  28.468  12.376
43603W        W11832  31.008  33.063   2.282
43604W        W11833  22.665  40.959   1.547
43605W        W11834  18.378  42.179  14.288
43606W        W11835   9.842  15.994   0.523
43607W        W11836  36.658  35.826  11.592
43608W        W11837  37.003   0.354  12.724
43609W        W11838  11.131  30.395   3.702
43610W        W11839  40.961   4.217   3.838
43611W        W11840   4.580  21.632   2.316
43612W        W11841  41.414  43.474   1.780
43613W        W11842  27.761  44.460  11.124
43614W        W11843  23.060   4.025   2.318
43615W        W11844  12.539   7.151  13.060
43616W        W11845   5.191  12.055  12.546
43617W        W11846   7.202  13.679  10.793
43618W        W11847  21.683  26.665  13.442
43619W        W11848  41.649  14.127  12.072
43620W        W11849   6.656  32.389   2.566
43621W        W11850   6.911  22.172   0.024
43622W        W11851  13.662  13.709   2.421
43623W        W11852   6.754  14.820  12.573
43624W        W11853   1.452   9.286  14.925
43625W        W11854  31.592  40.600   1.205
43626W        W11855  36.950   2.751  11.522
43627W        W11856   6.292  35.854   4.481
43628W        W11857  35.600  20.236   0.467
43629W        W11858  36.541  27.896   0.868
43630W        W11859   8.160  26.039   4.565
43631W        W11860  43.416  11.125  14.309
43632W        W11861  13.809  19.781  12.262
43633W        W11862   1.843  21.104  10.903
43634W        W11863  32.049   0.952  13.921
43635W        W11864  11.825  19.230  12.874
43636W        W11865   7.753   0.905   1.106
43637W        W11866  19.816   4.840   0.370
43638W        W11867  22.628  38.027  11.605
43639W        W11868  13.754   0.115  13.398
43640W        W11869  17.820  36.355  11.901
43641W        W11870  22.643  30.529  11.867
43642W        W11871  18.099  23.818   0.181
43643W        W11872  23.911  25.736   2.484
43644W        W11873  25.228  14.268  14.503
43645W        W11874   1.464  35.505   0.429
43646W        W11875  43.009  15.892   1.482
43647W        W11876  16.450  17.585  11.504
43648W        W11877  27.173  40.541   3.708
43649W        W11878   6.668  11.889  11.103
43650W        W11879  39.386  32.662  10.211
43651W        W11880  24.145  13.874   0.767
43652W        W11881  35.062  21.280  10.234
43653W        W11882  34.870   5.598  11.396
43654W        W11883  27.040  18.673  14.898
43655W        W11884  20.552  17.464   5.057
43656W        W11885   8.350  25.105  13.255
43657W        W11886  21.241  21.471  13.069
43658W        W11887  17.532  35.578   3.195
43659W        W11888   9.261  41.187  11.277
43660W        W11889  12.612  24.303   2.434
43661W        W11890   7.323  30.120   4.071
43662W        W11891   2.395  13.786  10.769
43663W        W11892  27.052  19.180  14.817
43664W        W11893   4.804   2.239   4.162
43665W        W11894  13.588  43.260  13.544
43666W        W11895  44.936  30.426  13.611
43667W        W11896  34.579   2.324   1.578
43668W        W11897  43.947  11.596  12.213
43669W        W11898   0.882  32.530  13.926
43670W        W11899   2.300  26.329  11.674
43671W        W11900  26.449  37.993   2.269
43672W        W11901  38.540  20.672  14.026
43673W        W11902  21.101  18.591  14.956
43674W        W11903  36.406  16.414   1.499
43675W        W11904  41.994  33.365  14.687
43676W        W11905   3.065   9.200  10.731
43677W        W11906  16.419  34.015  14.936
43678W        W11907  43.540  34.158   3.674
43679W        W11908   0.771  35.772  11.983
43680W        W11909  30.489   8.016  10.637
43681W        W11910  13.012  21.373  13.349
43682W        W11911  34.561  28.707  11.731
43683W        W11912  15.297  32.249  13.363
43684W        W11913  31.043   4.141   2.191
43685W        W11914   2.606  19.882   4.173
43686W        W11915  10.608  40.234   0.829
43687W        W11916  40.256  32.412  11.683
43688W        W11917  32.172  30.618  12.559
43689W        W11918  16.127  35.406  10.475
43690W        W11919  44.369  38.031  13.347
43691W        W11920  20.314  43.954   2.897
43692W        W11921  39.524  35.152   2.820
43693W        W11922  17.234  32.550  13.819
43694W        W11923  10.880   8.852  13.485
43695W        W11924  43.957  34.363  12.838
43696W        W11925  10.785  24.098  14.980
43697W        W11926  27.273  39.385  13.068
43698W        W11927  42.853  22.944   3.682
43699W        W11928  36.280  37.468   4.144
43700W        W11929  10.870   8.770  12.124
43701W        W11930  17.170  12.114   9.558
43702W        W11931   8.727  12.221   3.217
43703W        W11932  11.783  44.901  13.975
43704W        W11933  43.800  30.099  11.146
43705W        W11934  12.688  27.338  12.520
43706W        W11935  34.045  16.676  13.540
43707W        W11936   3.496  12.262  11.599
43708W        W11937  10.886  19.720  11.656
43709W        W11938  14.211   6.652   1.152
43710W        W11939  41.334  10.767  10.499
43711W        W11940  41.591   9.418   2.644
43712W        W11941  27.730  17.294   3.582
43713W        W11942   6.909   9.763   1.694
43714W        W11943  42.832   5.569   3.314
43715W        W11944  40.067  35.463  14.303
43716W        W11945  43.711  41.709  13.271
43717W        W11946   4.850   4.771   0.192
43718W        W11947  42.324   5.119  14.064
43719W        W11948  32.223   6.701  10.914
43720W        W11949  27.951  21.147  12.641
43721W        W11950  37.950  26.613  13.162
43722W        W11951  40.651  32.504  10.690
43723W        W11952  15.337  17.484  12.495
43724W        W11953  15.801  30.928   4.202
43725W        W11954  10.286  27.057   3.225
43726W        W11955  40.059  15.140   0.207
43727W        W11956  16.802  38.552   1.395
43728W        W11957  29.635  30.852   0.886
43729W        W11958  34.471  36.991   1.660
43730W        W11959  18.575  11.153  11.147
43731W        W11960  40.619   1.728  13.737
43732W        W11961  13.701  37.483   0.104
43733W        W11962  18.050  23.213   1.221
43734W        W11963  39.856   3.412  11.534
43735W        W11964  26.009  31.374  11.032
43736W        W11965   9.337   8.411  14.748
43737W        W11966  14.911  14.440   5.009
43738W        W11967   4.852  18.052  12.374
43739W        W11968   5.598   5.219  13.468
43740W        W11969  19.161  22.307   0.983
43741W        W11970  25.975  27.676   1.616
43742W        W11971  24.732   1.931  11.794
43743W        W11972   6.734  14.523   0.062
43744W        W11973   2.947  12.039  13.565
43745W        W11974  13.557  18.534   4.212
43746W        W11975  14.780   9.652  14.784
43747W        W11976   7.831  11.242   1.408
43748W        W11977  18.357  17.744   4.327
43749W        W11978  22.013   5.230   2.015
43750W        W11979  36.467  22.975   3.277
43751W        W11980  33.003  10.034  10.996
43752W        W11981  24.621  18.278  14.248
43753W        W11982   3.304   4.325  12.574
43754W        W11983  10.476  30.604  13.334
43755W        W11984  26.101  13.790   5.101
43756W        W11985   8.042  10.927  11.616
43757W        W11986  19.046  16.048  14.638
43758W        W11987  26.915  30.479  10.645
43759W        W11988  10.441  26.245   3.683
43760W        W11989   4.532  42.877   0.563
43761W        W11990  43.117  36.472  10.679
43762W        W11991   8.092  39.039  11.988
43763W        W11992  36.990   2.490   0.857
43764W        W11993  34.314   0.021   3.525
43765W        W11994  29.150  34.626   2.864
43766W        W11995   0.413  10.163   1.373
43767W        W11996  14.730  42.753  11.187
43768W        W11997  14.441  34.653   0.881
43769W        W11998  21.586  10.256   4.073
43770W        W11999  30.995   5.028  10.603
43771W        W12000  26.048  42.119  14.950
43772W        W12001  13.150  28.560   4.731
43773W        W12002  17.355  33.722   2.650
43774W        W12003  15.824  29.028   3.203
43775W        W12004   4.198  40.986   2.229
43776W        W12005   5.303  41.831   3.708
43777W        W12006  33.983  12.079   0.681
43778W        W12007  31.377  31.493   3.792
43779W        W12008  10.409   3.455  13.130
43780W        W12009  11.841  44.037   3.608
43781W        W12010  40.724  38.571  11.568
43782W        W12011   6.240  18.066   3.715
43783W        W12012  18.753  32.388   2.409
43784W        W12013   1.731   9.245   1.983
43785W        W12014  17.986  10.155   2.238
43786W        W12015  13.598  31.897  12.434
43787W        W12016  38.983  39.975   3.268
43788W        W12017  15.105  21.551   4.097
43789W        W12018  27.892  18.171   3.664
43790W        W12019   3.231   5.339   1.183
43791W        W12020  15.346   0.400   3.167
43792W        W12021  28.660  30.611  14.766
43793W        W12022  31.015  12.595   4.386
43794W        W12023   8.593  36.476  12.658
43795W        W12024  40.537  28.561   0.962
43796W        W12025  11.097   6.001  13.351
43797W        W12026  22.053  34.571   1.440
43798W        W12027  43.511   8.220  11.214
43799W        W12028  24.982  13.681   0.821
43800W        W12029  11.086  30.819  12.067
43801W        W12030  25.947   9.380   4.421
43802W        W12031  18.716  43.881  13.585
43803W        W12032  28.155  31.466   2.252
43804W        W12033  22.662  42.309  11.349
43805W        W12034  29.878  14.255   3.753
43806W        W12035  40.125  12.700  13.406
43807W        W12036   3.235   9.414  14.764
43808W        W12037  34.613  42.810   2.369
43809W        W12038  41.741  39.910  14.057
43810W        W12039  43.479  31.937   3.788
43811W        W12040  36.638  24.364   4.790
43812W        W12041  21.713  42.610  12.576
43813W        W12042  38.903  25.895  10.822
43814W        W12043   4.363  41.737   2.885
43815W        W12044   7.324  17.417  12.930
43816W        W12045   7.217  43.699  12.147
43817W        W12046  28.127  18.316  12.356
43818W        W12047  34.453  30.955  11.418
43819W        W12048  16.064  22.801  12.045
43820W        W12049  36.524  32.206   5.039
43821W        W12050  44.257  43.102   0.597
43822W        W12051  27.498  31.031   4.502
43823W        W12052  10.791  40.525   2.847
43824W        W12053  26.976  17.701  12.191
43825W        W12054   3.167  15.399   4.307
43826W        W12055  16.517   7.736   4.584
43827W        W12056  27.336  10.648   0.960
43828W        W12057  15.770  36.424  10.389
43829W        W12058  42.837  42.314   0.425
43830W        W12059  24.150  31.149   4.631
43831W        W12060  10.263   8.455   4.089
43832W        W12061   7.850  30.463  13.936
43833W        W12062  39.913  32.614   0.042
43834W        W12063  37.951  41.764  11.244
43835W        W12064  24.171  20.590   0.941
43836W        W12065  15.171  43.786   4.566
43837W        W12066  32.563  33.035   4.600
43838W        W12067  40.822  39.243  12.433
43839W        W12068  16.993   6.375   4.522
43840W        W12069  35.138  36.637   2.262
43841W        W12070  42.070  37.480  11.252
43842W        W12071  36.903  31.398   1.526
43843W        W12072  35.686  28.508  14.643
43844W        W12073  41.910  42.821  10.671
43845W        W12074  23.035  42.848  12.367
43846W        W12075  42.818  41.239   1.852
43847W        W12076   5.368  42.995  14.991
43848W        W12077   1.804  24.488   0.847
43849W        W12078   8.844  14.567  12.078
43850W        W12079  22.289  27.017   2.921
43851W        W12080   7.247  21.520   2.263
43852W        W12081  14.357  39.379  11.462
43853W        W12082  16.249  44.516  13.401
43854W        W12083  39.423  22.364   0.854
43855W        W12084  27.709  28.015   4.234
43856W        W12085   8.718   7.442   0.974
43857W        W12086  19.310   3.968   0.247
43858W        W12087  40.076  28.026   1.438
43859W        W12088  18.232  31.009   9.794
43860W        W12089  20.945  44.924   2.879
43861W        W12090  22.837   6.050   2.342
43862W        W12091   7.733  23.535   0.687
43863W        W12092  43.887  39.713   4.203
43864W        W12093   6.759  35.812  11.669
43865W        W12094  43.011  22.200  14.014
43866W        W12095  14.135  20.055  14.980
43867W        W12096  43.959   0.276  11.951
43868W        W12097  16.543  43.271   3.776
43869W        W12098  42.610  39.834  14.529
43870W        W12099   2.699  37.297   0.805
43871W        W12100  35.002  16.720  13.575
43872W        W12101  33.439  27.629  12.060
43873W        W12102  24.240  30.002   2.764
43874W        W12103  40.354  34.407   3.187
43875W        W12104  40.282  18.447  13.349
43876W        W12105   6.658   3.554   0.675
43877W        W12106  23.051  34.952  10.943
43878W        W12107  30.929   5.710   4.709
43879W        W12108   5.973  14.760   1.384
43880W        W12109  33.695  35.829  14.036
43881W        W12110  14.251  34.823  13.934
43882W        W12111  18.234  14.057   3.213
43883W        W12112  29.210  14.043  12.983
43884W        W12113  10.905  30.387   0.568
43885W        W12114  20.130  13.332   4.658
43886W        W12115  42.953  34.432  14.896
43887W        W12116  22.648  19.237   1.407
43888W        W12117  17.107  20.962  10.550
43889W        W12118  41.804   1.147   1.473
43890W        W12119  13.792   3.323  14.306
43891W        W12120  10.291  26.928   4.169
43892W        W12121   6.740  10.202  10.616
43893W        W12122  26.354  13.927   4.194
43894W        W12123  39.313   7.246  13.468
43895W        W12124  38.547  22.471  14.899
43896W        W12125  44.087   1.697   1.360
43897W        W12126  31.468  42.517   3.195
43898W        W12127  16.201  30.146   4.597
43899W        W12128  34.293  23.014  14.937
43900W        W12129  13.140  24.677  11.630
43901W        W12130   1.892  35.766   0.503
43902W        W12131  28.458  29.570   4.089
43903W        W12132  38.684  33.793   9.784
43904W        W12133  34.035  20.607  14.981
43905W        W12134   3.460  24.021  14.629
43906W        W12135  33.356   8.417  14.010
43907W        W12136  19.429  34.915  14.522
43908W        W12137   9.433  19.687  13.882
43909W        W12138  15.206  25.266   0.423
43910W        W12139  34.199  41.794  13.056
43911W        W12140  32.940  27.668   4.052
43912W        W12141  35.300  35.600  10.724
43913W        W12142  23.117  36.900   1.754
43914W        W12143  23.747  13.178  13.308
43915W        W12144  42.222   1.848   1.800
43916W        W12145  25.582  12.100  11.287
43917W        W12146  20.279   0.438   4.341
43918W        W12147  33.356  34.908   0.977
43919W        W12148  42.370  44.563   0.574
43920W        W12149   1.017  18.631   3.221
43921W        W12150   2.014  37.354   1.456
43922W        W12151  27.091  33.864   3.904
43923W        W12152  14.292  23.567  12.162
43924W        W12153   7.502  31.549   1.955
43925W        W12154  17.519   4.480   1.761
43926W        W12155  32.883  23.223   1.702
43927W        W12156  12.684  11.633  12.581
43928W        W12157  18.616  31.740  10.003
43929W        W12158  12.325  17.470   2.797
43930W        W12159  34.914  23.568   0.318
43931W        W12160  12.273  12.144  11.184
43932W        W12161  30.965  15.974  12.819
43933W        W12162  32.305   1.495   1.368
43934W        W12163  24.996  40.511   4.199
43935W        W12164  32.773  18.054  14.097
43936W        W12165   3.502  14.267  12.387
43937W        W12166   2.467  42.563  12.687
43938W        W12167   1.613   7.372  11.927
43939W        W12168  37.534  41.049   3.957
43940W        W12169  44.155  18.549   1.269
43941W        W12170  27.137  28.673   0.915
43942W        W12171  34.369  39.406  14.390
43943W        W12172  24.025   1.938   2.325
43944W        W12173  17.802  21.199   1.806
43945W        W12174   2.802  27.093  13.401
43946W        W12175  37.733  10.632   1.390
43947W        W12176  26.947   8.388  13.940
43948W        W12177  38.349   7.249  12.378
43949W        W12178   2.362  14.501   2.968
43950W        W12179  42.749  16.766  14.439
43951W        W12180  38.046  14.988   2.526
43952W        W12181  27.953  34.377  11.829
43953W        W12182   9.976  18.189   0.362
43954W        W12183   4.680  21.198   0.713
43955W        W12184   3.821  34.028  13.881
43956W        W12185   9.216  32.598  13.248
43957W        W12186  31.672   4.973  11.716
43958W        W12187  17.338  14.315  13.770
43959W        W12188   2.393  27.200  14.721
43960W        W12189  37.841  24.210  11.057
43961W        W12190  19.763  29.353  12.657
43962W        W12191  17.767   3.426  14.348
43963W        W12192  15.697  14.195   0.360
43964W        W12193  30.066  41.384  12.918
43965W        W12194  35.332  32.063  14.011
43966W        W12195  37.771  11.867   4.108
43967W        W12196   8.692   8.364  10.711
43968W        W12197   8.164  23.626   2.723
43969W        W12198  36.806  10.688   0.358
43970W        W12199  23.096  10.143  14.051
43971W        W12200  10.349  21.560  11.153
43972W        W12201  43.869   0.696   1.344
43973W        W12202  22.540  20.021  11.065
43974W        W12203  21.460  33.580  13.556
43975W        W12204   4.948   0.487  14.520
43976W        W12205  36.904  29.155   2.427
43977W        W12206  24.462   2.297   4.579
43978W        W12207  34.274  38.045  11.150
43979W        W12208  12.207  22.964  13.873
43980W        W12209  33.398   2.670  12.369
43981W        W12210  28.691  12.317  14.297
43982W        W12211  32.534  24.579  13.726
43983W        W12212   6.237  13.032   4.682
43984W        W12213   0.751   0.237   4.160
43985W        W12214  21.623  24.441  14.854
43986W        W12215  26.710  10.765  12.927
43987W        W12216  34.664   6.325   1.500
43988W        W12217  25.551  38.917   1.916
43989W        W12218  11.341  35.329   4.685
43990W        W12219  37.389  41.055  11.993
43991W        W12220  34.169  14.958   2.701
43992W        W12221   5.291  26.693  13.117
43993W        W12222  41.788  43.278  12.227
43994W        W12223  24.897  25.037  12.371
43995W        W12224   2.919  38.117  10.213
43996W        W12225  41.026  16.063   0.360
43997W        W12226  14.466   9.243   0.334
43998W        W12227  20.795  33.175   9.788
43999W        W12228  36.377  29.182  12.014
44000W        W12229  41.142   3.037  14.338
44001W        W12230   6.410   0.174   4.122
44002W        W12231  42.892   6.077   3.323
44003W        W12232  44.193  31.518  14.918
44004W        W12233  20.190  21.175  11.051
44005W        W12234  15.550   6.301  13.070
44006W        W12235  28.565  33.388  10.748
44007W        W12236   3.735  30.772   0.702
44008W        W12237   2.188  34.822   0.800
44009W        W12238  10.429  42.759   2.678
44010W        W12239  14.191  17.701   2.259
44011W        W12240  38.974   0.681  13.367
44012W        W12241  19.234  20.480   3.960
44013W        W12242   1.496  43.311  11.300
44014W        W12243  28.894  30.884   0.405
44015W        W12244   4.942  20.043  11.519
44016W        W12245  10.362  28.161  13.759
44017W        W12246   3.820  28.343  12.004
44018W        W12247  42.395  31.043   1.712
44019W        W12248  26.481  39.969  14.479
44020W        W12249  17.358  10.833   4.271
44021W        W12250  11.192   5.481   3.791
44022W        W12251  30.955   8.904  13.941
44023W        W12252   4.524  43.948  14.452
44024W        W12253  35.017  38.809   3.101
44025W        W12254  17.577  36.570  10.975
44026W        W12255  11.887   5.434  11.599
44027W        W12256  44.818  21.677   0.837
44028W        W12257  13.829   6.637  13.609
44029W        W12258  11.696  17.332   1.749
44030W        W12259  32.983  12.600  14.084
44031W        W12260   2.796  37.636  14.834
44032W        W12261  19.455  36.036  12.039
44033W        W12262  32.410  11.630  11.630
44034W        W12263   0.370  40.579   1.795
44035W        W12264  42.071   8.701  12.358
44036W        W12265   9.150  28.738  14.917
44037W        W12266  28.976  21.433   3.257
44038W        W12267   8.194  23.053  13.387
44039W        W12268   3.617  15.349  10.352
44040W        W12269  14.090  25.751  13.222
44041W        W12270  14.339  33.615  11.452
44042W        W12271  15.889   8.744   0.272
44043W        W12272  35.127  31.542   4.074
44044W        W12273  23.989  18.645  12.719
44045W        W12274  28.181  21.037  10.670
44046W        W12275  10.831  17.343   1.970
44047W        W12276  27.260   2.847   1.313
44048W        W12277   1.479  26.550  10.964
44049W        W12278   3.972   9.814  10.661
44050W        W12279  21.707  24.304  11.108
44051W        W12280  42.285  14.240   0.277
44052W        W12281  39.306  42.278  11.098
44053W        W12282  34.127  11.601   3.540
44054W        W12283  36.303  26.747  14.844
44055W        W12284   9.009  14.475   1.872
44056W        W12285  17.733  34.599  14.491
44057W        W12286  11.782  14.575  14.067
44058W        W12287  26.778   2.098   2.308
44059W        W12288  31.616  37.030   2.821
44060W        W12289  24.065  24.243   4.969
44061W        W12290  32.907  14.606  14.249
44062W        W12291  11.866  44.421  14.226
44063W        W12292  18.550  21.200  14.400
44064W        W12293  31.500  20.999   1.419
44065W        W12294   3.160  38.466   5.276
44066W        W12295  20.294  42.555   2.355
44067W        W12296  28.517  43.312  12.089
44068W        W12297  33.164  43.356  12.807
44069W        W12298   9.767   7.717   2.213
44070W        W12299   9.368  26.130  14.431
44071W        W12300   7.855  33.398  13.024
44072W        W12301  31.549  26.175   0.952
44073W        W12302  20.731   2.284  13.949
44074W        W12303  14.881  17.674   2.755
44075W        W12304  29.913  22.743  10.959
44076W        W12305  27.922  31.095  12.020
44077W        W12306  13.521   6.334   4.648
44078W        W12307  30.245  37.967  12.559
44079W        W12308   2.276  39.411  14.798
44080W        W12309  11.590   6.907  11.667
44081W        W12310   9.428  39.398  10.345
44082W        W12311  10.782  36.060   1.224
44083W        W12312  23.669  11.110   4.208
44084W        W12313   1.041  35.272   0.284
44085W        W12314  26.553  31.404   4.616
44086W        W12315  30.513  42.750   1.279
44087W        W12316  42.241  30.066  10.002
44088W        W12317  12.640  32.579   1.730
44089W        W12318  31.723  10.135  14.303
44090W        W12319   8.285  31.939  10.909
44091W        W12320  22.073  27.651   4.825
44092W        W12321  33.537  22.076   2.911
44093W        W12322  37.472  17.658  13.158
44094W        W12323  14.684  40.013  14.729
44095W        W12324  34.335  18.156  11.649
44096W        W12325  25.251  12.875   2.152
44097W        W12326  31.443   9.626  14.122
44098W        W12327  12.656  36.504  10.615
44099W        W12328  31.955  11.215  13.403
44100W        W12329  15.123  41.581   4.047
44101W        W12330  11.421  14.320  12.391
44102W        W12331  33.618  44.236  11.900
44103W        W12332  36.006  32.362   4.540
44104W        W12333  12.415  27.169   1.390
44105W        W12334  25.774  43.997   2.308
44106W        W12335  38.601  11.365  12.493
44107W        W12336   5.834   4.409   4.207
44108W        W12337  18.602  21.629   3.406
44109W        W12338  28.691  18.285  13.038
44110W        W12339  43.433  28.241  14.292
44111W        W12340  39.055  33.692  10.748
44112W        W12341  28.790   2.921  12.451
44113W        W12342  10.462  33.394   3.426
44114W        W12343  11.371   7.721  12.919
44115W        W12344   3.469  18.943  10.640
44116W        W12345  11.137  38.861  11.624
44117W        W12346  15.113  23.142   4.784
44118W        W12347  10.666  10.178   1.263
44119W        W12348   7.764  20.982   4.492
44120W        W12349   7.216  25.703  14.498
44121W        W12350  34.599  28.605   4.493
44122W        W12351   8.208  21.459  11.749
44123W        W12352   0.036  36.750  14.935
44124W        W12353  41.162  33.143   3.296
44125W        W12354   6.802   1.223  13.949
44126W        W12355  44.452  43.994   1.102
44127W        W12356  18.974  40.928   4.123
44128W        W12357  44.764   8.443  10.645
44129W        W12358   9.606  17.548  10.731
44130W        W12359   5.192   9.714  11.510
44131W        W12360  33.917  17.611   1.983
44132W        W12361  39.546  22.588   4.151
44133W        W12362  33.333  24.075  11.631
44134W        W12363  23.152   6.440   4.639
44135W        W12364  21.949  29.729   4.846
44136W        W12365  38.847  22.259  10.772
44137W        W12366  31.166  41.358  12.966
44138W        W12367  15.527  37.533  11.364
44139W        W12368  35.955  17.194  11.389
44140W        W12369   5.345  31.602   3.691
44141W        W12370  25.130  13.226   1.052
44142W        W12371  28.762  11.339   4.577
44143W        W12372  35.407  23.948   1.474
44144W        W12373  18.268   8.289   4.267
44145W        W12374   7.239  27.441   1.279
44146W        W12375  32.657  29.877  14.337
44147W        W12376   2.959  25.443   4.029
44148W        W12377  31.961   0.495  11.313
44149W        W12378  22.467  20.589   0.291
44150W        W12379  43.976   9.820   0.973
44151W        W12380  28.624  14.475   2.503
44152W        W12381  21.452  12.452  10.646
44153W        W12382  13.368  29.471   0.427
44154W        W12383  21.206  16.419  13.928
44155W        W12384  11.084   4.720   2.821
44156W        W12385  15.013  15.336   4.236
44157W        W12386  38.045  43.367  14.324
44158W        W12387  24.903  17.093   3.620
44159W        W12388  39.090  42.986  11.235
44160W        W12389  37.038  20.227   2.854
44161W        W12390   6.127  31.807   4.087
44162W        W12391   8.699  14.736  11.615
44163W        W12392  28.530  15.855  13.875
44164W        W12393  16.263  26.397   3.847
44165W        W12394   5.826  12.787   3.639
44166W        W12395  36.822  30.126  14.584
44167W        W12396   1.232   2.085   4.540
44168W        W12397  37.332  24.173   2.709
44169W        W12398  31.448   2.312   0.839
44170W        W12399  31.370  34.384  12.435
44171W        W12400   9.886  33.581  11.383
44172W        W12401  35.322  38.131  11.313
44173W        W12402  42.782  43.940   2.209
44174W        W12403  15.673  19.612   2.248
44175W        W12404   6.911  21.035  13.028
44176W        W12405  28.105  16.540   1.242
44177W        W12406  39.178  18.481  12.181
44178W        W12407  14.407  39.598   2.207
44179W        W12408   8.517  14.437  13.005
44180W        W12409   5.903  15.157  11.657
44181W        W12410  38.363  40.464  12.327
44182W        W12411  13.077   5.657  10.659
44183W        W12412   3.620  39.793   3.316
44184W        W12413  10.556  30.444  10.710
44185W        W12414  43.671  15.223  14.320
44186W        W12415  15.577   3.797   4.478
44187W        W12416  10.808  29.814   1.901
44188W        W12417  35.372  35.591  14.915
44189W        W12418   7.824   2.186  11.450
44190W        W12419  40.953  39.589   0.463
44191W        W12420  29.640   0.832   4.934
44192W        W12421  23.941  31.053   1.278
44193W        W12422   2.249  22.027   2.958
44194W        W12423  13.878  10.420  11.445
44195W        W12424   9.077  11.646   2.751
44196W        W12425  42.043   6.843  13.376
44197W        W12426  27.686  25.894  11.818
44198W        W12427  26.662  40.873  12.908
44199W        W12428  33.607   4.358   4.042
44200W        W12429  10.576   7.809  14.097
44201W        W12430  10.081  23.220  11.907
44202W        W12431  35.621   0.366   3.027
44203W        W12432   6.747  15.048  12.116
44204W        W12433  38.006  14.343  11.686
44205W        W12434  30.969   4.339  11.924
44206W        W12435  23.310  26.324   2.798
44207W        W12436  32.827   4.991  12.669
44208W        W12437  31.050  44.180  12.520
44209W        W12438  35.787  27.080  11.571
44210W        W12439  18.975  38.123  14.135
44211W        W12440  29.330  21.584  14.248
44212W        W12441  30.352  31.481  13.928
44213W        W12442  15.251   4.012   1.320
44214W        W12443  11.852  35.346  11.554
44215W        W12444  24.685  11.165  12.692
44216W        W12445  33.548  30.833  11.509
44217W        W12446   6.241  15.251   2.564
44218W        W12447   4.249  17.510  11.208
44219W        W12448  35.109  26.185   4.287
44220W        W12449  25.023  39.865   2.860
44221W        W12450  14.749  35.794  12.660
44222W        W12451  30.653  31.726   5.005
44223W        W12452   9.164  26.390   4.150
44224W        W12453  25.664  12.629  11.555
44225W        W12454  42.412  40.947   0.463
44226W        W12455  43.822  21.025   3.519
44227W        W12456   9.489  29.660  11.052
44228W        W12457  21.706   5.590  11.725
44229W        W12458  21.171  37.123  14.202
44230W        W12459  43.119  11.276  14.697
44231W        W12460  39.521   1.018  14.235
44232W        W12461  17.178  22.010  13.396
44233W        W12462   4.645   4.308   0.788
44234W        W12463  17.834  27.927  12.820
44235W        W12464  22.821  15.228  13.983
44236W        W12465  32.538  15.918  14.463
44237W        W12466  21.283   2.278   4.615
44238W        W12467  16.047  19.500  11.966
44239W        W12468  38.235   2.545   2.370
44240W        W12469  43.886   1.961  12.514
44241W        W12470  36.561   4.336   3.106
44242W        W12471  17.104  11.477  10.055
44243W        W12472  36.494  29.340   2.189
44244W        W12473  24.398  22.342   0.818
44245W        W12474  22.308  19.038  12.576
44246W        W12475   1.730  40.423  11.478
44247W        W12476   1.470  31.822  13.523
44248W        W12477  22.680  36.724   0.978
44249W        W12478  42.658  13.252  12.021
44250W        W12479   9.445  20.318  12.554
44251W        W12480  40.879  34.471  13.812
44252W        W12481   2.916  40.517   1.773
44253W        W12482  11.232   0.448   0.713
44254W        W12483   1.452  35.986   0.730
44255W        W12484  41.028  30.347   3.763
44256W        W12485   6.334  35.299   1.813
44257W        W12486   4.743  27.116   4.539
44258W        W12487  29.170  25.395  14.857
44259W        W12488   4.685   2.664   0.979
44260W        W12489  35.800  30.958  12.528
44261W        W12490  33.542   6.495  12.683
44262W        W12491  14.537  11.232  12.670
44263W        W12492   4.330  37.563   4.933
44264W        W12493   6.738  42.842  14.532
44265W        W12494  25.294  15.739   4.032
44266W        W12495  16.027  21.808  13.410
44267W        W12496   5.933  31.674   0.462
44268W        W12497  32.047   4.131   0.916
44269W        W12498  32.467  31.180  14.798
44270W        W12499   0.974  31.427  14.685
44271W        W12500  26.137  40.539   4.631
44272W        W12501  13.004  33.471   2.792
44273W        W12502  29.487  15.801   2.840
44274W        W12503   5.675  43.517  13.358
44275W        W12504   9.707   3.522  10.959
44276W        W12505  11.637  16.680  11.590
44277W        W12506  26.985  12.252  13.936
44278W        W12507  23.093   5.679  12.050
44279W        W12508  15.016  38.722   1.806
44280W        W12509  36.939  12.889   1.790
44281W        W12510  35.493  15.285   3.362
44282W        W12511  31.252   5.968  13.052
44283W        W12512  42.519  43.523  12.550
44284W        W12513  34.017   7.721   2.354
44285W        W12514  30.527  25.451   1.145
44286W        W12515  29.894  35.943  11.539
44287W        W12516  33.885  19.203  14.782
44288W        W12517  25.698  21.189   4.160
44289W        W12518  43.289   2.900  14.542
44290W        W12519  26.166  27.932   2.230
44291W        W12520  23.211  31.408   2.203
44292W        W12521   4.689   1.990   2.763
44293W        W12522  35.136  17.069  11.052
44294W        W12523  36.469   1.973   4.127
44295W        W12524   8.371  34.375   4.089
44296W        W12525  41.531  22.030   4.609
44297W        W12526  23.127   8.004   4.391
44298W        W12527  34.044  29.511  10.438
44299W        W12528  14.842  12.172   0.225
44300W        W12529  20.366  16.792   1.813
44301W        W12530  23.245  18.664  13.943
44302W        W12531  20.250   0.845  14.949
44303W        W12532  25.997  41.826   2.723
44304W        W12533   6.797   7.869   2.189
44305W        W12534  21.154  34.819   4.709
44306W        W12535  23.338   9.345   1.904
44307W        W12536  20.715  16.535  14.338
44308W        W12537   1.638  25.000   1.702
44309W        W12538  25.538  28.994  13.834
44310W        W12539  16.374   2.928  11.154
44311W        W12540  11.061  12.557   3.929
44312W        W12541  38.204  27.989   4.597
44313W        W12542  18.682  34.146  12.455
44314W        W12543  31.864  13.112  11.335
44315W        W12544  41.730  15.860  14.746
44316W        W12545  14.304  14.379   1.858
44317W        W12546  13.295   0.223   3.122
44318W        W12547  29.334  32.076   2.703
44319W        W12548  37.830  10.171   3.690
44320W        W12549  35.026  39.945  11.794
44321W        W12550  42.363  29.199   2.889
44322W        W12551   5.783  40.982   1.323
44323W        W12552  34.844  10.254  11.183
44324W        W12553  38.815  41.242   2.491
44325W        W12554  37.845  35.373  14.714
44326W        W12555  24.851  14.571   0.820
44327W        W12556  11.665  18.187  10.624
44328W        W12557   0.459  13.303   2.749
44329W        W12558  23.544  18.084   2.296
44330W        W12559  11.858  17.152   4.893
44331W        W12560  15.557  36.774   0.254
44332W        W12561  20.507   9.751  11.984
44333W        W12562  19.429  39.915  12.088
44334W        W12563   6.810   9.783   1.163
44335W        W12564  26.275  28.974  13.456
44336W        W12565  27.999  29.593  13.553
44337W        W12566  16.199  13.471   0.303
44338W        W12567  34.046   5.930   4.423
44339W        W12568  35.033  28.840  11.135
44340W        W12569  11.095   4.595   4.047
44341W        W12570  25.088  21.672  10.578
44342W        W12571  42.444  21.529   4.489
44343W        W12572  11.710   0.049   0.003
44344W        W12573  26.862  39.767  14.777
44345W        W12574   6.003  22.562  12.037
44346W        W12575   5.668  31.236   2.638
44347W        W12576  36.414   0.608   4.769
44348W        W12577  28.966  11.338   4.109
44349W        W12578   6.437  13.063  13.145
44350W        W12579   5.150  20.175  13.038
44351W        W12580  23.232  29.070  11.930
44352W        W12581  17.053   7.211   3.894
44353W        W12582   7.485  26.907  10.876
44354W        W12583  23.468  39.089   3.465
44355W        W12584  31.953   7.908   2.747
44356W        W12585  19.495   1.978   1.422
44357W        W12586   7.767  42.440  12.030
44358W        W12587   4.405  22.771   0.226
44359W        W12588  14.180  40.476  12.433
44360W        W12589  26.172  12.776   1.669
44361W        W12590  18.176  31.178  10.722
44362W        W12591   7.187  12.067  11.201
44363W        W12592   3.344   9.702   3.409
44364W        W12593  20.793  11.370  14.455
44365W        W12594  22.764   1.231   2.412
44366W        W12595  13.895  11.618  11.975
44367W        W12596  10.768   7.326  11.703
44368W        W12597   3.110   6.723  10.671
44369W        W12598  14.935  37.483   4.211
44370W        W12599   1.014  15.863   2.324
44371W        W12600  41.067   1.323  10.647
44372W        W12601   9.918  15.581  12.991
44373W        W12602  21.170   2.257   3.749
44374W        W12603  44.230  15.053   3.270
44375W        W12604  39.184   1.384   0.416
44376W        W12605   8.382   9.753  13.354
44377W        W12606  25.205  17.815  10.797
44378W        W12607  19.709  28.435  13.138
44379W        W12608   2.602  30.714  14.518
44380W        W12609  25.592   8.372   0.280
44381W        W12610  27.105  39.365  12.583
44382W        W12611  15.312   7.879  14.539
44383W        W12612  17.514  33.974  12.770
44384W        W12613  23.601  38.776  13.015
44385W        W12614  14.295  34.037   2.282
44386W        W12615   3.791  41.971  11.179
44387W        W12616  30.383  18.284   2.231
44388W        W12617  28.180  17.657   2.370
44389W        W12618  42.733   5.667   0.586
44390W        W12619   7.856  21.938  14.764
44391W        W12620  38.886  28.117   4.652
44392W        W12621  30.913  13.208   4.789
44393W        W12622  39.598  17.006   3.315
44394W        W12623  29.820  20.561   1.238
44395W        W12624  11.198   6.491  13.491
44396W        W12625  10.934  36.511   2.406
44397W        W12626  14.168  38.769  13.873
44398W        W12627  14.362  12.213  10.992
44399W        W12628  15.330  20.173   2.679
44400W        W12629  23.158  27.382  14.970
44401W        W12630  21.677  18.972   2.708
44402W        W12631  41.746  10.486   5.017
44403W        W12632   0.835   3.196   1.210
44404W        W12633  12.102  38.921   3.231
44405W        W12634  34.886  17.298  11.429
44406W        W12635  18.708  32.429  12.010
44407W        W12636  28.235  40.495  12.033
44408W        W12637  21.664  21.124   1.246
44409W        W12638  43.060  29.102   3.293
44410W        W12639   7.330   0.810  11.578
44411W        W12640   2.267  19.613  11.186
44412W        W12641  29.409  40.976  14.285
44413W        W12642  25.140   7.813  13.790
44414W        W12643  11.957  12.741   2.185
44415W        W12644  14.565  34.074  11.603
44416W        W12645  23.746  23.805  13.572
44417W        W12646  41.463  26.389  12.304
44418W        W12647  43.436  19.183   4.409
44419W        W12648  17.579  21.702  12.572
44420W        W12649  41.401  35.811  13.446
44421W        W12650  22.175  31.246   1.374
44422W        W12651  39.824  40.058   4.482
44423W        W12652   0.021  35.959   3.265
44424W        W12653  23.668   2.637  11.075
44425W        W12654  43.973  25.073  11.602
44426W        W12655  18.443  13.483   1.319
44427W        W12656  31.411  22.039   2.276
44428W        W12657  34.471  19.609   4.468
44429W        W12658   4.717  18.700  13.915
44430W        W12659   4.233  27.487   3.803
44431W        W12660  24.284  28.591  13.029
44432W        W12661  21.368   3.140   4.951
44433W        W12662  36.358  17.345   0.325
44434W        W12663  37.607  33.489   1.470
44435W        W12664  19.528   2.202   1.882
44436W        W12665  15.759  15.184   2.675
44437W        W12666  39.835  17.639  14.791
44438W        W12667  37.341  27.087  11.757
44439W        W12668  28.619  29.852  10.552
44440W        W12669   0.355  42.351   2.696
44441W        W12670  36.124  18.606   0.275
44442W        W12671  38.512  10.598  11.866
44443W        W12672  44.053  14.692   2.879
44444W        W12673  26.006   5.253   0.037
44445W        W12674  14.628  16.540   5.050
44446W        W12675  25.707  23.743  11.227
44447W        W12676   4.249  44.400   1.434
44448W        W12677  44.884   9.709  12.478
44449W        W12678  31.030   0.971  13.980
44450W        W12679   7.773  28.317  13.135
44451W        W12680  27.303  44.351  10.771
44452W        W12681  44.325  29.553  11.653
44453W        W12682  16.574  24.499  14.572
44454W        W12683   6.775  30.755   0.326
44455W        W12684  26.421  18.719  12.002
44456W        W12685  37.846  34.344  14.812
44457W        W12686  30.968  44.781  11.115
44458W        W12687  40.874  36.809   0.750
44459W        W12688   4.014  16.701  14.276
44460W        W12689   3.462  36.548  13.964
44461W        W12690  44.732   5.081  10.963
44462W        W12691  31.854  35.082   0.778
44463W        W12692  12.815   0.328   4.139
44464W        W12693  18.832   3.864  10.495
44465W        W12694  39.797  32.654  11.905
44466W        W12695  20.432   4.668   3.651
44467W        W12696  14.869   9.194  12.063
44468W        W12697  14.242  44.993  13.508
44469W        W12698   3.170  24.474   3.236
44470W        W12699   7.448  33.041   0.144
44471W        W12700  28.271   4.846  10.774
44472W        W12701  34.849  24.765  11.011
44473W        W12702   8.630  10.227   0.017
44474W        W12703  21.647   8.047  14.332
44475W        W12704  20.675  16.322   2.753
44476W        W12705  11.636  20.482   0.375
44477W        W12706  27.330  12.106  14.706
44478W        W12707  31.806  26.530  13.576
44479W        W12708  22.111   4.457   2.384
44480W        W12709   6.882  43.204   3.766
44481W        W12710   9.353   9.010   3.998
44482W        W12711  23.693  17.529   3.176
44483W        W12712  31.622  40.301  11.121
44484W        W12713  25.457   6.250  11.410
44485W        W12714   1.958  40.986  14.773
44486W        W12715  42.488  19.992  14.923
44487W        W12716  33.490  21.893  11.432
44488W        W12717  27.618  35.190   3.570
44489W        W12718  26.467  28.145   4.995
44490W        W12719  39.395  24.679   2.266
44491W        W12720  20.051  34.893   4.268
44492W        W12721  12.710  39.440   1.495
44493W        W12722  20.777  11.383   4.224
44494W        W12723  11.790  29.157   0.486
44495W        W12724  12.113  42.056   1.206
44496W        W12725  31.484   2.912  10.682
44497W        W12726  24.189  31.874   4.069
44498W        W12727  38.659   0.456   4.167
44499W        W12728  14.735  24.172  13.164
44500W        W12729  35.333  32.855  12.866
44501W        W12730  36.954  43.974   0.289
44502W        W12731  29.403  42.447   4.292
44503W        W12732  19.656   4.673   3.108
44504W        W12733  31.721   4.540  12.978
44505W        W12734  22.197  29.196  11.232
44506W        W12735  17.007  39.262   3.062
44507W        W12736   7.048  15.831   9.813
44508W        W12737  37.091  26.691   4.527
44509W        W12738  24.476   2.790  14.053
44510W        W12739   9.107   6.269   3.242
44511W        W12740  28.264   9.882  11.146
44512W        W12741   3.284  33.565  14.398
44513W        W12742  12.570  16.807  13.097
44514W        W12743  26.621  39.116   2.694
44515W        W12744  19.540  21.204  11.130
44516W        W12745  44.773   0.627  11.533
44517W        W12746  33.889  11.612  13.733
44518W        W12747  39.959  23.489   0.726
44519W        W12748   3.362   7.452   2.697
44520W        W12749   3.885  23.539   4.903
44521W        W12750   7.226  43.522  11.367
44522W        W12751  43.363  33.901  11.003
44523W        W12752  38.834   2.001  14.746
44524W        W12753  38.847   5.527  12.200
44525W        W12754  23.372  24.180   3.274
44526W        W12755  24.191  41.396  13.889
44527W        W12756  31.047  18.928   1.830
44528W        W12757   2.029  10.173   2.863
44529W        W12758  37.133  22.479   0.953
44530W        W12759  42.702  44.057  11.064
44531W        W12760  32.423  37.347   2.975
44532W        W12761  39.524  43.839  13.966
44533W        W12762  10.219  24.545   2.114
44534W        W12763   2.451  20.032   4.718
44535W        W12764  30.098   7.806   2.709
44536W        W12765  31.114  14.157   2.679
44537W        W12766   2.229  14.699  12.557
44538W        W12767  18.629  39.795  10.808
44539W        W12768  38.254  30.009   0.034
44540W        W12769   4.963  22.228   2.823
44541W        W12770  37.438  38.546  10.926
44542W        W12771   8.232  28.132  12.992
44543W        W12772  26.203  33.440   1.747
44544W        W12773  16.348  28.293   4.917
44545W        W12774  20.640  10.179  14.729
44546W        W12775  35.106  44.310  10.322
44547W        W12776  24.286  28.208  10.221
44548W        W12777  39.150   5.852   3.321
44549W        W12778  29.002  14.329  14.245
44550W        W12779  31.393  31.718   1.883
44551W        W12780  20.144   2.891   0.643
44552W        W12781   2.536  10.006  11.499
44553W        W12782  39.016  33.812   3.378
44554W        W12783  15.033   8.689  11.929
44555W        W12784   6.696   3.759  11.491
44556W        W12785  39.952  35.046   0.512
44557W        W12786  15.389   0.861  12.985
44558W        W12787  12.539  20.165   0.192
44559W        W12788  41.225  13.559  11.540
44560W        W12789   2.921  43.341   2.683
44561W        W12790  39.338  43.718   4.752
44562W        W12791  18.667  44.922  12.618
44563W        W12792  12.767  44.737   1.251
44564W        W12793  23.718  10.857   1.803
44565W        W12794  23.132   5.407   3.707
44566W        W12795  41.408  32.116   1.208
44567W        W12796  43.276  37.791   2.863
44568W        W12797   0.764  27.503   4.106
44569W        W12798  25.707  31.602   4.997
44570W        W12799  39.603  27.479  11.543
44571W        W12800  12.527  35.483  12.169
44572W        W12801  12.439  19.775  11.080
44573W        W12802  10.768   3.200  13.397
44574W        W12803  35.451  28.085  13.143
44575W        W12804  29.696  14.726  14.775
44576W        W12805  29.575  23.262   4.113
44577W        W12806  33.521  43.315   4.923
44578W        W12807   7.752  26.722   0.305
44579W        W12808   4.268  36.595   3.980
44580W        W12809  31.737   2.256  11.480
44581W        W12810  27.027  27.141  10.738
44582W        W12811   5.479   1.211   4.504
44583W        W12812  21.734   6.219  13.779
44584W        W12813   3.605  31.958   4.172
44585W        W12814  41.912   1.958  13.146
44586W        W12815  14.143   0.495  13.333
44587W        W12816  21.513   4.429   0.754
44588W        W12817  28.146  38.465  13.237
44589W        W12818   0.303  12.241   4.416
44590W        W12819   9.259  29.515   0.262
44591W        W12820  23.537  26.556  13.518
44592W        W12821  44.597   0.413   4.973
44593W        W12822   7.754  42.422   2.844
44594W        W12823   6.788  11.237  12.482
44595W        W12824  26.068   1.289  14.450
44596W        W12825   2.329  40.530   5.002
44597W        W12826   1.724  17.666   1.776
44598W        W12827   1.188  27.017  12.046
44599W        W12828  15.393  26.589  11.578
44600W        W12829  31.133  13.017  14.385
44601W        W12830  18.709  13.794   4.696
44602W        W12831  25.540  20.698   4.198
44603W        W12832   1.946  27.093   1.066
44604W        W12833  19.605  24.461   0.780
44605W        W12834  25.102  25.950  12.543
44606W        W12835  43.045  35.373  11.552
44607W        W12836  17.165  34.177   2.731
44608W        W12837  23.114  21.570   4.580
44609W        W12838  41.575  34.634  14.364
44610W        W12839  17.214  27.650   2.245
44611W        W12840  35.186  13.159  11.889
44612W        W12841  18.199  32.484  12.123
44613W        W12842  42.631  26.822   2.835
44614W        W12843  14.370  36.097   0.908
44615W        W12844  44.774  15.026  14.961
44616W        W12845  39.001  26.281  14.401
44617W        W12846  14.742  25.215  13.050
44618W        W12847  37.817  10.735   0.289
44619W        W12848  12.807  14.074   4.974
44620W        W12849  12.032   8.139  13.379
44621W        W12850  33.205  16.649   1.268
44622W        W12851  22.143   0.110   1.205
44623W        W12852  24.058  37.636  14.761
44624W        W12853   3.227   4.935  14.255
44625W        W12854  34.922   1.986  13.905
44626W        W12855  31.203   9.200  14.293
44627W        W12856  44.940  23.032  10.488
44628W        W12857   9.173  24.912   3.237
44629W        W12858  28.826  35.505   3.619
44630W        W12859  16.270  10.068   2.777
44631W        W12860  43.412  36.463   4.246
44632W        W12861  35.007  18.170   4.198
44633W        W12862   9.173  12.993   3.146
44634W        W12863   8.333  44.728  12.826
44635W        W12864  43.957  22.594   1.262
44636W        W12865   3.950  18.854   1.424
44637W        W12866  35.924   9.674   2.799
44638W        W12867  16.987  39.072   1.391
44639W        W12868  18.358  10.268  13.418
44640W        W12869   0.783  39.467  10.200
44641W        W12870  12.212   4.285   3.250
44642W        W12871  12.204  13.635   2.424
44643W        W12872  34.210  22.452   0.917
44644W        W12873  23.629   2.105   4.319
44645W        W12874  43.743  34.314   0.399
44646W        W12875  41.821  31.202   3.281
44647W        W12876  32.488  30.176  14.994
44648W        W12877  32.472   8.935  10.710
44649W        W12878  39.794  24.552   3.278
44650W        W12879   7.187  14.940  11.830
44651W        W12880  26.482  37.281   0.482
44652W        W12881  14.315   8.314   2.354
44653W        W12882  23.927   9.030  11.963
44654W        W12883   6.700  19.517  11.639
44655W        W12884  26.566  39.642   2.679
44656W        W12885  10.873   3.854  12.406
44657W        W12886   8.162  22.433   2.370
44658W        W12887   2.211  10.745   0.424
44659W        W12888  35.553  18.987  12.607
44660W        W12889  37.131  35.609   3.116
44661W        W12890  26.663  31.021  12.544
44662W        W12891  25.412   5.186   1.930
44663W        W12892  17.287   6.788   4.560
44664W        W12893  15.109  25.054   1.016
44665W        W12894  35.319  19.210   4.180
44666W        W12895  39.558  31.782   5.473
44667W        W12896  37.966   0.458   2.811
44668W        W12897   0.426  25.070  12.561
44669W        W12898  39.565  25.276   3.975
44670W        W12899  33.877  37.092  11.387
44671W        W12900   7.957  23.591  10.745
44672W        W12901  36.576   8.638  13.453
44673W        W12902  28.958  31.896   3.570
44674W        W12903   0.247  35.712   3.700
44675W        W12904  43.806  18.621  11.483
44676W        W12905   5.719  43.567   1.184
44677W        W12906   9.678  42.286   0.408
44678W        W12907  43.793  41.386  10.637
44679W        W12908  37.933  14.280  10.702
44680W        W12909  19.277  19.198  14.882
44681W        W12910  29.008   6.239  13.489
44682W        W12911   1.724   5.777  13.221
44683W        W12912  29.005  22.629   0.559
44684W        W12913  44.292   9.566  12.062
44685W        W12914  22.812   4.974   4.085
44686W        W12915  35.514  29.166   1.327
44687W        W12916  37.592  10.885  13.931
44688W        W12917   1.402  11.296   1.923
44689W        W12918  44.594  25.058   4.189
44690W        W12919  12.175   6.847  12.835
44691W        W12920   0.798  25.773  11.113
44692W        W12921  19.559   6.408   4.138
44693W        W12922   2.574  10.502  11.433
44694W        W12923  12.616  18.493   1.884
44695W        W12924  25.190  40.694  13.266
44696W        W12925  41.887   8.637   1.724
44697W        W12926  41.118   8.861   2.874
44698W        W12927  42.913  26.651  10.833
44699W        W12928  27.912  23.754  11.456
44700W        W12929   5.457  36.938  13.888
44701W        W12930  12.891   9.249   2.877
44702W        W12931  38.925  13.888   1.825
44703W        W12932   9.219  11.252   0.470
44704W        W12933  14.252  42.512   4.203
44705W        W12934  14.144   9.425  10.486
44706W        W12935   6.254  13.671   0.514
44707W        W12936  44.876  39.320   1.407
44708W        W12937  37.869  42.038   3.384
44709W        W12938   9.812   3.336  13.850
44710W        W12939  43.979  38.803  10.710
44711W        W12940  30.658  41.890  14.075
44712W        W12941   4.396  30.416   1.262
44713W        W12942  33.444  22.698  13.550
44714W        W12943  15.300  26.457  14.231
44715W        W12944  20.477  24.686  14.358
44716W        W12945  37.809  40.908   4.834
44717W        W12946  41.702  39.988  14.766
44718W        W12947  22.154  21.365  11.198
44719W        W12948  12.137  35.321   0.402
44720W        W12949  36.885  10.727   5.007
44721W        W12950  26.939  29.531   4.686
44722W        W12951   7.427  16.893  13.900
44723W        W12952  10.867  15.018   0.649
44724W        W12953  36.905  17.210  11.624
44725W        W12954  26.322  37.368  13.728
44726W        W12955  23.276  19.072  11.056
44727W        W12956  38.437   4.986  10.584
44728W        W12957  32.634   7.614   4.542
44729W        W12958  25.924   4.178  11.543
44730W        W12959   0.240   6.213  11.506
44731W        W12960   8.280  44.936  11.957
44732W        W12961  26.645   7.660  12.792
44733W        W12962   6.823  24.970   2.873
44734W        W12963  35.376  42.895   0.415
44735W        W12964  21.547  22.984   0.805
44736W        W12965  44.371  21.636  14.572
44737W        W12966   6.204  34.367   3.298
44738W        W12967  43.552  31.623   1.812
44739W        W12968  12.527  11.880  13.532
44740W        W12969  18.686  43.714   1.890
44741W        W12970  31.430  12.392   0.741
44742W        W12971  24.414  35.343  11.540
44743W        W12972  38.629  40.279  10.959
44744W        W12973  24.857  22.036  11.972
44745W        W12974   4.202  42.113   4.307
44746W        W12975  19.532  36.361  13.512
44747W        W12976  15.872   7.771   2.858
44748W        W12977  16.161  29.504  14.910
44749W        W12978  37.380   6.755   1.738
44750W        W12979  18.155  42.634  11.276
44751W        W12980  25.683  19.915  11.456
44752W        W12981  44.368  44.908  11.947
44753W        W12982   3.222   2.105   3.668
44754W        W12983  28.685  37.894   4.523
44755W        W12984  12.705  29.057   0.421
44756W        W12985  25.092  24.022   0.419
44757W        W12986  20.930  35.661  14.937
44758W        W12987   7.903  42.328   1.476
44759W        W12988  26.888  14.175   4.627
44760W        W12989  30.724  34.873  11.839
44761W        W12990  25.013  33.346   3.577
44762W        W12991  33.135   1.320   1.762
44763W        W12992  15.663   5.826   2.708
44764W        W12993  27.875  37.265   2.382
44765W        W12994  18.173   1.024   4.900
44766W        W12995  15.731  26.421  11.916
44767W        W12996  27.490  25.103  10.631
44768W        W12997  29.766  31.522  14.401
44769W        W12998   3.764  44.305  13.924
44770W        W12999  17.925  20.344   3.327
44771W        W13000  29.038   7.959  13.054
44772W        W13001  33.844   1.541  14.834
44773W        W13002  34.398  24.361  13.731
44774W        W13003  15.658   7.455  14.647
44775W        W13004   4.182  11.844   4.736
44776W        W13005  10.567   7.741   0.437
44777W        W13006  42.449  39.273  11.953
44778W        W13007  33.418  36.544  11.931
44779W        W13008  24.622  16.322  14.524
44780W        W13009   8.655  16.562  13.458
44781W        W13010  29.757  41.740   2.792
44782W        W13011  39.661  44.539   4.159
44783W        W13012  16.490   3.764   1.570
44784W        W13013  35.510  30.737   0.129
44785W        W13014  28.209   7.881  14.708
44786W        W13015  28.473  32.433  14.960
44787W        W13016  43.818  31.081  14.787
44788W        W13017  35.943  21.104   3.634
44789W        W13018   8.974  24.602  11.172
44790W        W13019  24.786  18.282   1.764
44791W        W13020  17.999  41.293  11.035
44792W        W13021  38.775  44.485   0.427
44793W        W13022   2.544  28.179   3.291
44794W        W13023  22.236   4.791  10.927
44795W        W13024  44.352  36.626   0.295
44796W        W13025  15.634  23.151   4.056
44797W        W13026  10.383  21.506  14.019
44798W        W13027  37.147  34.739   0.698
44799W        W13028  40.734  30.345   4.195
44800W        W13029  10.582  35.031   0.871
44801W        W13030  15.492  15.846  13.378
44802W        W13031  41.265  25.601   2.755
44803W        W13032  41.774  15.293   3.192
44804W        W13033  21.780  41.839  14.055
44805W        W13034  36.915  33.593  11.303
44806W        W13035   2.816  41.521   1.594
44807W        W13036  20.391  33.998  12.149
44808W        W13037  36.240  12.586   0.042
44809W        W13038   7.852  37.174  11.555
44810W        W13039  12.991  32.992   1.757
44811W        W13040   9.072  12.262   2.242
44812W        W13041   8.811  21.505  11.577
44813W        W13042  12.373  22.593   4.430
44814W        W13043  41.794  28.696  12.179
44815W        W13044  29.746  18.540  11.155
44816W        W13045  17.130  21.052  14.967
44817W        W13046  40.106  41.682  14.745
44818W        W13047   4.512  17.379   4.255
44819W        W13048  42.305  42.192   3.441
44820W        W13049  26.406  40.638   2.200
44821W        W13050   4.721  16.107  14.478
44822W        W13051  18.876  18.525  14.518
44823W        W13052  26.609  26.989   2.597
44824W        W13053  40.324  44.529   0.403
44825W        W13054   6.410  31.374   4.023
44826W        W13055  40.873  13.684  10.741
44827W        W13056  42.384  38.875  13.172
44828W        W13057  24.816  33.375   1.806
44829W        W13058  33.231  28.579   2.745
44830W        W13059  35.482  41.050  12.948
44831W        W13060  18.932  14.753  11.230
44832W        W13061   1.856  28.889  13.612
44833W        W13062   7.819  33.636   2.071
44834W        W13063  28.499   7.301   1.698
44835W        W13064  31.969  42.285   2.551
44836W        W13065  37.360   6.235   2.346
44837W        W13066  33.216  44.333  13.393
44838W        W13067  43.387  34.716  10.838
44839W        W13068  19.811  12.322   3.167
44840W        W13069   6.420  44.433  13.921
44841W        W13070  21.972   8.814  10.645
44842W        W13071  43.723  37.994  10.617
44843W        W13072  26.148  30.964  14.864
44844W        W13073  13.350  10.081   3.084
44845W        W13074  18.264  32.166  10.801
44846W        W13075  17.760   8.883   4.821
44847W        W13076   7.240  26.541   3.118
44848W        W13077  38.992  31.908  13.882
44849W        W13078   3.778  14.925   3.962
44850W        W13079  42.559   0.799   1.670
44851W        W13080  33.031   6.784  12.915
44852W        W13081  44.766  17.194   1.465
44853W        W13082  39.348  20.829  11.925
44854W        W13083  30.690  23.829   2.777
44855W        W13084  16.291  34.388   2.770
44856W        W13085  30.083  11.675   4.736
44857W        W13086  15.684  35.584   1.936
44858W        W13087  12.783  44.687   0.738
44859W        W13088  20.693  21.962  12.991
44860W        W13089   4.812  19.392   2.788
44861W        W13090   3.929  44.503   3.190
44862W        W13091  18.724  13.127   1.632
44863W        W13092   1.499   6.890   3.737
44864W        W13093   4.844  15.300  14.009
44865W        W13094  27.236  25.749  11.106
44866W        W13095  41.287   6.674  13.848
44867W        W13096  44.894  44.818  14.066
44868W        W13097   1.305  19.318   2.275
44869W        W13098  14.699  26.037   1.421
44870W        W13099   1.446  12.664   2.256
44871W        W13100  43.268  44.352   3.360
44872W        W13101   2.849  28.694  14.796
44873W        W13102  25.862  12.363   1.712
44874W        W13103  39.495  42.680   1.172
44875W        W13104  41.634  28.640  12.918
44876W        W13105  11.829  13.422  11.149
44877W        W13106  25.427   8.257  10.714
44878W        W13107  22.817  33.369  13.954
44879W        W13108  22.948  38.405  13.533
44880W        W13109   4.447  42.007  14.954
44881W        W13110  19.495   1.336   1.605
44882W        W13111  10.395  16.150   3.631
44883W        W13112  21.673  34.841   3.629
44884W        W13113  39.947  25.551   3.090
44885W        W13114  27.451  35.515  13.026
44886W        W13115  43.208  16.715   2.416
44887W        W13116   4.729  38.130   3.590
44888W        W13117  20.334  16.374   3.781
44889W        W13118  40.552  44.741   5.034
44890W        W13119  35.120  15.285  12.464
44891W        W13120  26.182  31.328   2.453
44892W        W13121  38.651  43.415  13.051
44893W        W13122  17.602   4.991   1.790
44894W        W13123  22.546  43.840   1.381
44895W        W13124  21.015  29.748  14.900
44896W        W13125   6.980  24.483   2.872
44897W        W13126   6.305  16.539   4.153
44898W        W13127  27.450  26.358  11.050
44899W        W13128  16.652  19.865  13.071
44900W        W13129  11.797  11.531  11.435
44901W        W13130  34.890  26.444   1.702
44902W        W13131   8.897  36.017  12.736
44903W        W13132   9.010  17.412   3.970
44904W        W13133  33.866  35.882   2.770
44905W        W13134  32.728  15.619  12.574
44906W        W13135   1.706  12.197  11.311
44907W        W13136  11.640   2.229  14.334
44908W        W13137  30.331  38.122  11.650
44909W        W13138  12.788  11.283  11.042
44910W        W13139   5.497  20.090   0.533
44911W        W13140   7.009  29.708   4.024
44912W        W13141  30.504  29.668  10.629
44913W        W13142  35.964   9.601   1.296
44914W        W13143  10.090   4.807   2.273
44915W        W13144  25.034  19.582  13.526
44916W        W13145  44.171  11.737  11.313
44917W        W13146  15.958  10.855  13.057
44918W        W13147  29.729  38.521  14.292
44919W        W13148  35.161  39.034   4.568
44920W        W13149  24.035  44.959  11.908
44921W        W13150   8.597  19.524  14.388
44922W        W13151   4.437  13.242   2.353
44923W        W13152  29.580  24.287   3.225
44924W        W13153  13.604  31.024   0.259
44925W        W13154  28.034  44.680   1.900
44926W        W13155  32.888   3.512   1.904
44927W        W13156   8.525   2.678  14.736
44928W        W13157  36.479  41.425  14.244
44929W        W13158  24.250   0.174   5.155
44930W        W13159  42.310  24.150   3.215
44931W        W13160  21.772   4.821  14.326
44932W        W13161  11.297   3.289   5.172
44933W        W13162  42.361   8.691   4.570
44934W        W13163  33.664  36.035  12.568
44935W        W13164   8.117  33.933   4.221
44936W        W13165  41.159   6.606  14.771
44937W        W13166   8.809  40.015  14.352
44938W        W13167  20.211   1.357  11.009
44939W        W13168  24.549   0.791  14.727
44940W        W13169  33.450  19.460  12.093
44941W        W13170  36.897  43.347  13.451
44942W        W13171  10.551   5.966  11.561
44943W        W13172   9.589  29.126   2.319
44944W        W13173  14.678  31.865  11.841
44945W        W13174  44.924   6.848  12.389
44946W        W13175  33.171  10.756   0.405
44947W        W13176  39.870   4.471   0.480
44948W        W13177  34.887   0.603   2.678
44949W        W13178   1.416  11.489  13.500
44950W        W13179   0.869  24.978   4.183
44951W        W13180  34.956   9.408  13.866
44952W        W13181   3.667  31.997  11.112
44953W        W13182  13.468  32.349   3.897
44954W        W13183   6.467  24.155   4.026
44955W        W13184  31.934   7.397   2.941
44956W        W13185  31.005   1.825   1.158
44957W        W13186  31.400  35.410   2.119
44958W        W13187  42.207   6.695  12.513
44959W        W13188  32.300  29.025  11.221
44960W        W13189  33.242  17.178   2.605
44961W        W13190  28.441   2.907   0.979
44962W        W13191   2.750  37.876   1.883
44963W        W13192  22.472  12.108  10.705
44964W        W13193  43.456  23.768   2.727
44965W        W13194  30.541   3.920  12.424
44966W        W13195  13.711   2.033   3.291
44967W        W13196  26.331  37.021   0.061
44968W        W13197   1.584  42.146  12.944
44969W        W13198  42.754  34.628   3.628
44970W        W13199  19.218  14.171  14.327
44971W        W13200  43.918  31.446   4.252
44972W        W13201  28.618  24.419  13.972
44973W        W13202  11.579  40.334   3.968
44974W        W13203  12.139  10.116  13.586
44975W        W13204  27.103  19.205  11.628
44976W        W13205  15.801  24.091   3.030
44977W        W13206  26.237  21.208   4.070
44978W        W13207  22.752   8.375   2.334
44979W        W13208  25.378   5.520   0.765
44980W        W13209  25.626  28.005   0.895
44981W        W13210  33.053  32.486   1.227
44982W        W13211   6.722  19.897   0.464
44983W        W13212   4.890  31.863  12.435
44984W        W13213  37.963  11.227   2.887
44985W        W13214   1.250   2.182  13.864
44986W        W13215  22.173   9.264  12.171
44987W        W13216   2.925  24.045  10.671
44988W        W13217  28.531  22.276   4.169
44989W        W13218  11.358  32.011  11.506
44990W        W13219   5.035  12.371   2.829
44991W        W13220   0.732  39.341  14.054
44992W        W13221   9.708  25.727   3.336
44993W        W13222  42.527  13.202   3.122
44994W        W13223  44.196  11.106   3.734
44995W        W13224  25.415  42.378  10.749
44996W        W13225  11.885  28.590  11.159
44997W        W13226  28.203  32.461   4.592
44998W        W13227  25.486  40.326  14.005
44999W        W13228  35.578  39.451   2.086
45000W        W13229  44.582  18.007  11.048
45001W        W13230  42.649  23.144   4.129
45002W        W13231  37.476  35.899  12.579
45003W        W13232   5.113  30.567  14.133
45004W        W13233  24.062  14.571  11.118
45005W        W13234  29.552  41.069  12.308
45006W        W13235  12.219  21.305   3.057
45007W        W13236   6.230  29.599   2.387
45008W        W13237  22.477  10.232  11.690
45009W        W13238  27.131  11.249  14.099
45010W        W13239  43.574  23.006  10.674
45011W        W13240  11.835   9.335  11.264
45012W        W13241  25.061  14.436   4.716
45013W        W13242  23.349  11.818   4.568
45014W        W13243   0.746  43.841   1.799
45015W        W13244   1.737   8.226  11.671
45016W        W13245  29.611   6.384   0.699
45017W        W13246  32.158  14.632   2.347
45018W        W13247  27.359  33.421  13.368
45019W        W13248  14.931  28.448  12.056
45020W        W13249  41.282  18.298   1.606
45021W        W13250  18.994  27.685   0.315
45022W        W13251  37.601  42.113   2.396
45023W        W13252  25.510  21.866  13.083
45024W        W13253   3.058  32.447  13.586
45025W        W13254  10.557  22.013  13.890
45026W        W13255   1.466   3.460   2.909
45027W        W13256   2.650   4.872   0.900
45028W        W13257  41.652   7.657   3.361
45029W        W13258   4.380  31.043  11.632
45030W        W13259  22.528  25.156   3.715
45031W        W13260  44.323  24.217   4.540
45032W        W13261  40.954  42.343  11.176
45033W        W13262  33.104  16.615  11.475
45034W        W13263  30.128   1.869   4.734
45035W        W13264  15.281  44.535  11.159
45036W        W13265   9.739  20.717   2.617
45037W        W13266   5.458  34.334   4.313
45038W        W13267  39.033  27.930   3.831
45039W        W13268  41.413  35.511   3.838
45040W        W13269  38.454  18.785  11.019
45041W        W13270  10.255  39.354   0.937
45042W        W13271  16.103  24.391   2.684
45043W        W13272  42.994  24.546   1.339
45044W        W13273  11.190  23.570   1.471
45045W        W13274   5.442  31.118   3.752
45046W        W13275  30.387  19.189   3.145
45047W        W13276   0.653   3.923  14.160
45048W        W13277  10.974  16.274  14.734
45049W        W13278  39.956  19.006  11.520
45050W        W13279   6.301  25.256  11.843
45051W        W13280  22.990  23.532   3.661
45052W        W13281  24.594  23.484  10.476
45053W        W13282  41.946   7.871  11.965
45054W        W13283  15.887  14.482   4.054
45055W        W13284  21.358  20.505   2.906
45056W        W13285  10.166  20.534   2.366
45057W        W13286  34.651  23.633  11.549
45058W        W13287  33.366  17.118   3.112
45059W        W13288  12.428   5.949  12.866
45060W        W13289   4.833  35.899   3.868
45061W        W13290  33.346  11.845  11.628
45062W        W13291  15.850   5.809   3.713
45063W        W13292  27.248  29.573   1.762
45064W        W13293  35.147   0.250  14.014
45065W        W13294  14.258  15.570  11.167
45066W        W13295   8.018   9.366  14.289
45067W        W13296   2.010  37.661   2.387
45068W        W13297  24.239  24.117   0.691
45069W        W13298  40.893  41.283  13.467
45070W        W13299  34.711   0.645   0.907
45071W        W13300  15.771  44.735  11.219
45072W        W13301  44.752   9.285  13.773
45073W        W13302  39.310  21.060   3.372
45074W        W13303  12.063  20.128   1.840
45075W        W13304  32.679   6.859  11.677
45076W        W13305   8.706  10.869   0.888
45077W        W13306  25.975  20.689   2.296
45078W        W13307   2.856  24.337  11.672
45079W        W13308   7.444  42.533   0.332
45080W        W13309  32.679   9.538   2.027
45081W        W13310   5.691  30.741  14.969
45082W        W13311  19.772  18.414   4.381
45083W        W13312  29.657  32.826   2.214
45084W        W13313  21.442  36.443  11.470
45085W        W13314  20.054   7.248  14.363
45086W        W13315   0.564   1.477  11.128
45087W        W13316   2.696  20.409   4.149
45088W        W13317   3.747  33.386   2.781
45089W        W13318   7.766  22.747  13.390
45090W        W13319  33.282   7.424  14.920
45091W        W13320  29.252  14.683   4.137
45092W        W13321  40.934  27.264  10.662
45093W        W13322  20.752  15.301   0.341
45094W        W13323  37.418  31.172   0.839
45095W        W13324  22.167  20.655   2.838
45096W        W13325  44.279   6.057   1.551
45097W        W13326  22.140  23.068   1.740
45098W        W13327   2.817   2.871   4.313
45099W        W13328  13.630   0.524   3.367
45100W        W13329  32.120   8.004   1.255
45101W        W13330  29.065  11.588   1.380
45102W        W13331  39.076  20.093   3.636
45103W        W13332   5.909  40.485   2.181
45104W        W13333  33.629   0.901   2.354
45105W        W13334   6.676   2.772  14.592
45106W        W13335  12.104  38.111  13.958
45107W        W13336  31.902  34.082  14.793
45108W        W13337  24.133  17.047  13.045
45109W        W13338  16.303   0.818   2.638
45110W        W13339  25.801  40.273   2.731
45111W        W13340  33.758  11.332   0.982
45112W        W13341  10.843  19.692  13.515
45113W        W13342   4.993  23.999  12.076
45114W        W13343   2.365  30.888   2.918
45115W        W13344  12.112  34.891  11.595
45116W        W13345  22.577  18.182  13.138
45117W        W13346  10.081  29.711   4.247
45118W        W13347  13.239  40.428  14.971
45119W        W13348  26.968  34.135   1.698
45120W        W13349  10.849  44.482  11.137
45121W        W13350  30.458  20.225   4.177
45122W        W13351  16.363   3.928  12.818
45123W        W13352  39.255  26.181   3.620
45124W        W13353  35.056  19.263  10.099
45125W        W13354   9.959  13.160   0.264
45126W        W13355  26.293  15.725  14.296
45127W        W13356  30.207  18.024  14.031
45128W        W13357   2.787  32.941  13.446
45129W        W13358   0.802   6.856   4.553
45130W        W13359  25.155  29.710  12.298
45131W        W13360  10.422   9.967  12.887
45132W        W13361  38.937  39.336  14.835
45133W        W13362  38.018  38.048   1.385
45134W        W13363   5.909  21.041   1.480
45135W        W13364  40.396  29.619   3.751
45136W        W13365  31.835  27.335   0.310
45137W        W13366  12.727  19.726   0.392
45138W        W13367  34.350  36.643  11.203
45139W        W13368  11.350  42.733   4.459
45140W        W13369  31.587  31.498  12.031
45141W        W13370  41.340  20.046  10.525
45142W        W13371  12.710  25.872  13.111
45143W        W13372  13.332  31.979   1.810
45144W        W13373  13.240   1.541  12.553
45145W        W13374  28.587   4.545  13.439
45146W        W13375  31.186  15.160   4.848
45147W        W13376  37.336  16.568  12.039
45148W        W13377  30.756  10.353  10.582
45149W        W13378  10.374   2.390  12.431
45150W        W13379   0.873   0.799   3.855
45151W        W13380  32.428  16.781  13.394
45152W        W13381  32.915  28.068   0.416
45153W        W13382  18.692  13.776  12.979
45154W        W13383  42.894  21.621   0.766
45155W        W13384  12.155  13.972   0.096
45156W        W13385  21.750  36.290   1.419
45157W        W13386   9.811  33.866   0.247
45158W        W13387  13.732  35.398   1.592
45159W        W13388  26.142   6.522  14.345
45160W        W13389  16.447  23.005   4.389
45161W        W13390  11.338  25.441   2.220
45162W        W13391  16.219  44.881   2.232
45163W        W13392  40.606  26.148   3.687
45164W        W13393  40.469  33.098   0.400
45165W        W13394  10.218  32.691   1.487
45166W        W13395  32.820  39.993   2.096
45167W        W13396  32.658  18.340   0.431
45168W        W13397  11.157  36.605  13.133
45169W        W13398  29.509   1.251   3.293
45170W        W13399  14.420  31.905   3.838
45171W        W13400  15.160  20.814  14.468
45172W        W13401   2.729  27.539  13.918
45173W        W13402  27.084  30.022   1.945
45174W        W13403  39.249  13.051   0.385
45175W        W13404  26.082  15.979  12.338
45176W        W13405  33.082   0.577   3.215
45177W        W13406  37.405   3.916   3.554
45178W        W13407  24.138  21.228  12.419
45179W        W13408  27.380   3.863  10.459
45180W        W13409  14.327  17.462   3.697
45181W        W13410  24.859   7.333   4.299
45182W        W13411  24.019   2.005  14.162
45183W        W13412  24.196  27.469  13.013
45184W        W13413  28.889  43.262   4.924
45185W        W13414   2.818  37.789   0.783
45186W        W13415  13.169  34.317   2.593
45187W        W13416  39.948  24.696  13.770
45188W        W13417  39.476  11.411  11.956
45189W        W13418   5.321  17.373  13.380
45190W        W13419  20.549  37.901  12.562
45191W        W13420  26.096  20.735   1.356
45192W        W13421  44.531  34.056   3.841
45193W        W13422   9.669  17.991   4.556
45194W        W13423   8.978  27.728   0.044
45195W        W13424  33.478  20.160  11.539
45196W        W13425  17.246   5.716  11.162
45197W        W13426   3.693  18.441   1.190
45198W        W13427  44.686  32.022  11.215
45199W        W13428   5.425  35.862   9.465
45200W        W13429  24.539  11.189   2.183
45201W        W13430  43.732  27.031  13.804
45202W        W13431  30.170  15.843   0.859
45203W        W13432   4.157  24.408  13.049
45204W        W13433  29.336  11.895   2.644
45205W        W13434  16.607  12.883  11.615
45206W        W13435  20.989  21.156  12.273
45207W        W13436  23.596  44.433  11.213
45208W        W13437   2.730  38.900   3.357
45209W        W13438   5.852  17.068  12.152
45210W        W13439  38.424   9.408  13.461
45211W        W13440   9.612  30.456   2.686
45212W        W13441  35.276   1.492  14.847
45213W        W13442  36.920   1.971  10.819
45214W        W13443   5.718   4.288   4.717
45215W        W13444  21.063  33.179   3.845
45216W        W13445  41.816  36.153   4.122
45217W        W13446  34.464  34.316  11.415
45218W        W13447  31.626  41.245  10.950
45219W        W13448   0.768  36.251  13.606
45220W        W13449  11.679  28.505  14.071
45221W        W13450  40.449  41.507   0.519
45222W        W13451  27.736  39.837   4.092
45223W        W13452   5.212  39.729   0.410
45224W        W13453  10.181  14.828  11.960
45225W        W13454  21.086  22.476  11.667
45226W        W13455  19.114  28.051  14.251
45227W        W13456  27.177  14.193  14.989
45228W        W13457  28.055  12.809  13.046
45229W        W13458  35.245   6.579   0.372
45230W        W13459   8.285  14.611  14.704
45231W        W13460  13.361  10.807   2.451
45232W        W13461  42.804  28.382  13.079
45233W        W13462  10.916  16.724   4.139
45234W        W13463  44.947   1.892   1.890
45235W        W13464  16.057  41.052   2.169
45236W        W13465  43.562  12.703  13.389
45237W        W13466  28.584  26.285   0.224
45238W        W13467  44.497  16.957   4.654
45239W        W13468  14.376   7.880   2.628
45240W        W13469   4.746  15.083  13.412
45241W        W13470  16.765   4.287   4.602
45242W        W13471  30.988  32.940  10.894
45243W        W13472   2.105  33.463   3.651
45244W        W13473  20.368  22.295  13.239
45245W        W13474   7.167  13.624  14.468
45246W        W13475   9.179   6.648   2.819
45247W        W13476  18.966   8.754   2.808
45248W        W13477  23.096  32.439   2.376
45249W        W13478  27.219  43.129  12.056
45250W        W13479  12.157   8.599   2.020
45251W        W13480  30.888  20.678  13.173
45252W        W13481  32.679   0.078   4.068
45253W        W13482   0.767  37.006  13.972
45254W        W13483   2.705  27.126   1.627
45255W        W13484  36.780  38.340   3.626
45256W        W13485   4.293   2.834  12.585
45257W        W13486  18.672  19.464  14.477
45258W        W13487  37.351  44.733   3.136
45259W        W13488  17.819  16.741   1.799
45260W        W13489  29.862  11.476  11.224
45261W        W13490  19.132   2.034  10.587
45262W        W13491  17.264  15.643  12.314
45263W        W13492  26.148   5.692  14.374
45264W        W13493  14.698  17.972   2.315
45265W        W13494  28.934   9.966   2.196
45266W        W13495  37.640  24.037  11.479
45267W        W13496  10.479   1.313  13.347
45268W        W13497  28.080   4.671   1.184
45269W        W13498  25.750  44.247   0.516
45270W        W13499  18.506  10.772   4.512
45271W        W13500   5.942  29.169   3.554
45272W        W13501  15.134  11.473  10.562
45273W        W13502  13.049  44.998   4.509
45274W        W13503  27.307  33.010  13.082
45275W        W13504  15.576   0.659   1.062
45276W        W13505  32.751   0.478   0.080
45277W        W13506  24.787  25.755   2.792
45278W        W13507  10.826  17.620   1.375
45279W        W13508   3.859   1.469  14.762
45280W        W13509   2.937  14.249   2.310
45281W        W13510  34.924   6.963   1.981
45282W        W13511   4.121  22.066  12.935
45283W        W13512   8.050  17.303  14.666
45284W        W13513  18.389  15.280   4.792
45285W        W13514   9.696  42.066   0.866
45286W        W13515   2.146  34.920  14.607
45287W        W13516  11.403   9.044  13.392
45288W        W13517  21.165  20.810  11.872
45289W        W13518  14.342  37.997  14.282
45290W        W13519  28.728  40.595   0.907
45291W        W13520  21.715  28.902   0.271
45292W        W13521   9.605  38.853   3.144
45293W        W13522  10.861  11.198  13.977
45294W        W13523   0.193  38.366   4.804
45295W        W13524  21.923  27.122  14.791
45296W        W13525   0.041  44.725  11.255
45297W        W13526  13.690  23.977   3.133
45298W        W13527  25.175   4.380  13.299
45299W        W13528  35.170   8.765   0.230
45300W        W13529   6.529  34.321   1.533
45301W        W13530   7.233  17.630  10.874
45302W        W13531   4.247  22.206  11.098
45303W        W13532  25.438   7.864   0.236
45304W        W13533   9.345  20.988   2.417
45305W        W13534   8.967   1.380   2.930
45306W        W13535  29.064  14.533   2.802
45307W        W13536  37.431  30.077   1.317
45308W        W13537  20.072  16.755  11.555
45309W        W13538  24.555  21.230  11.461
45310W        W13539  19.577  14.053  12.348
45311W        W13540   5.365  41.860   1.517
45312W        W13541  13.314   4.715   5.004
45313W        W13542   8.955  13.863   3.198
45314W        W13543  16.026  32.490   0.813
45315W        W13544  23.650  12.658   2.625
45316W        W13545  44.761  37.070   4.726
45317W        W13546  18.116  34.081   0.088
45318W        W13547  36.992  19.018   5.012
45319W        W13548  12.865   2.032   2.051
45320W        W13549  41.043  25.241  13.358
45321W        W13550  28.145  12.387   3.155
45322W        W13551  12.282  39.500  11.014
45323W        W13552  12.817  16.802  11.046
45324W        W13553  42.618  30.952  14.399
45325W        W13554   5.512  33.409   3.256
45326W        W13555  10.793  35.914  12.185
45327W        W13556  39.428  40.857   3.930
45328W        W13557  30.093  33.751   2.938
45329W        W13558  34.228  27.623   0.387
45330W        W13559  18.769  19.757   3.672
45331W        W13560   3.452  38.443  11.578
45332W        W13561  21.166   1.609   0.860
45333W        W13562  23.531  42.544   4.211
45334W        W13563  16.565   2.388  11.981
45335W        W13564  26.631   0.303  10.828
45336W        W13565  19.344   7.814  11.988
45337W        W13566  19.149  28.931   1.638
45338W        W13567  41.976   6.445   3.322
45339W        W13568   7.842   0.827  11.666
45340W        W13569  28.527   9.558   3.665
45341W        W13570   8.885  32.629   2.335
45342W        W13571  11.889  27.221   2.188
45343W        W13572  12.431  37.116   4.372
45344W        W13573  13.219  13.023   4.336
45345W        W13574  16.999  18.664   1.458
45346W        W13575  40.135  43.286   3.700
45347W        W13576  21.095  13.669  10.849
45348W        W13577  15.787   4.436  12.487
45349W        W13578   2.914  42.048   2.404
45350W        W13579   9.306  11.750   0.557
45351W        W13580  33.357  32.206   2.685
45352W        W13581  18.218  35.394  13.342
45353W        W13582  27.251  24.007  14.482
45354W        W13583  16.381  18.986   4.428
45355W        W13584  13.692  16.013  10.671
45356W        W13585  32.038  23.140  12.194
45357W        W13586  13.788   4.772  14.045
45358W        W13587  28.505  20.836  14.801
45359W        W13588   1.832  44.962  11.213
45360W        W13589  13.209  25.055   3.072
45361W        W13590   1.678  17.511  11.200
45362W        W13591   0.513   6.262   1.254
45363W        W13592   9.815  12.180   4.179
45364W        W13593  40.406  16.311  14.314
45365W        W13594  10.686  16.281   1.060
45366W        W13595  30.604  41.004  10.758
45367W        W13596  39.268  29.963  14.065
45368W        W13597  39.570  40.304  13.060
45369W        W13598  12.624  13.165   2.670
45370W        W13599  15.504  25.028   4.212
45371W        W13600  43.726   1.878  11.945
45372W        W13601  43.160  20.134  11.146
45373W        W13602  19.835  25.395   5.085
45374W        W13603   6.312   8.333  13.966
45375W        W13604  44.744  35.036  13.677
45376W        W13605  31.002  18.949  11.475
45377W        W13606   1.621  29.411   1.614
45378W        W13607   0.514  16.559  11.074
45379W        W13608  33.926  19.691  14.931
45380W        W13609  18.857  32.948  12.958
45381W        W13610   8.906   1.328   1.967
45382W        W13611  15.855  33.311   1.350
45383W        W13612  35.839  19.438  13.877
45384W        W13613  40.529   4.764  12.161
45385W        W13614  33.233  16.603  13.933
45386W        W13615  44.125  14.293   2.039
45387W        W13616  27.139   6.713  12.137
45388W        W13617  27.477  24.233   3.255
45389W        W13618  19.349  19.788   1.203
45390W        W13619  24.998  36.616   2.825
45391W        W13620  37.827   2.187  14.687
45392W        W13621   6.105  42.986  12.547
45393W        W13622  44.968  26.034  12.958
45394W        W13623   4.074   9.922  13.889
45395W        W13624   6.886   0.758  10.423
45396W        W13625  33.150   6.871   3.368
45397W        W13626  44.080  44.305   2.173
45398W        W13627  17.105  39.941   4.184
45399W        W13628  16.555  30.626  11.052
45400W        W13629  25.452  44.871  14.834
45401W        W13630   7.097  17.590  14.299
45402W        W13631   1.976  12.957   4.249
45403W        W13632   6.003  17.035  12.889
45404W        W13633  17.613  17.264   2.471
45405W        W13634  14.079  10.301  12.529
45406W        W13635  32.585  34.488  14.824
45407W        W13636  10.829  36.981   4.128
45408W        W13637  28.171  15.346  11.823
45409W        W13638  24.649  10.500   4.211
45410W        W13639  11.283   4.856  13.870
45411W        W13640  25.380  10.691  12.551
45412W        W13641   8.646  19.260  13.883
45413W        W13642  27.611  40.848  14.365
45414W        W13643  37.842   4.852  12.461
45415W        W13644   6.181  42.788   2.399
45416W        W13645  38.870   4.456  14.986
45417W        W13646  11.545  41.453   3.208
45418W        W13647  35.678  42.950  13.488
45419W        W13648   8.368   3.711  13.959
45420W        W13649  37.768  17.050   4.368
45421W        W13650   8.756  35.987  10.187
45422W        W13651  13.365  20.679  13.994
45423W        W13652  40.519   0.509  11.472
45424W        W13653  35.663  13.791  11.433
45425W        W13654  24.789  38.512  13.968
45426W        W13655  23.834  26.529  10.444
45427W        W13656  31.909  28.192   1.385
45428W        W13657  37.376  40.544  12.064
45429W        W13658   1.452  20.323   1.944
45430W        W13659  27.457  23.547  12.087
45431W        W13660  28.318  15.884   2.293
45432W        W13661  18.267   6.633   4.157
45433W        W13662   7.381  31.067  11.500
45434W        W13663   8.618   9.603   3.293
45435W        W13664  31.135  43.667   0.382
45436W        W13665  25.700  26.250  10.243
45437W        W13666   5.624  38.774   3.383
45438W        W13667  38.891   4.775   4.131
45439W        W13668  23.185   4.892   3.715
45440W        W13669  19.120  18.894   2.597
45441W        W13670  27.945   0.022  10.304
45442W        W13671   4.210  11.896  10.953
45443W        W13672  44.073  30.491  13.554
45444W        W13673  25.537  33.147  14.880
45445W        W13674   5.915  39.878   2.778
45446W        W13675  16.784   7.719  11.706
45447W        W13676   5.189  17.127   3.772
45448W        W13677  33.122  44.467  11.948
45449W        W13678  19.319  25.592   5.003
45450W        W13679   0.785  27.529  12.598
45451W        W13680  42.499  27.630  11.462
45452W        W13681   1.796  32.028   1.770
45453W        W13682  22.151  13.619   0.758
45454W        W13683  39.184  33.155   1.853
45455W        W13684  20.969  20.138   1.995
45456W        W13685  21.305  31.646  11.264
45457W        W13686  11.340  27.424  13.349
45458W        W13687  26.383  24.178  13.978
45459W        W13688  19.078   5.957  12.933
45460W        W13689  36.564  34.572   0.499
45461W        W13690   6.381  25.069   1.858
45462W        W13691   4.876  13.180  12.091
45463W        W13692  38.681  14.167   0.903
45464W        W13693  42.008  39.043  12.862
45465W        W13694  42.494  16.504  14.823
45466W        W13695  14.993   7.228  12.162
45467W        W13696   1.334  44.744   3.269
45468W        W13697  10.688  31.885   5.165
45469W        W13698  20.785  43.040  12.664
45470W        W13699  14.337  22.186  10.885
45471W        W13700  44.449  30.532   0.769
45472W        W13701  40.422  24.047  13.261
45473W        W13702   1.090  40.126   2.431
45474W        W13703  43.498  42.338   2.310
45475W        W13704   9.214  33.634   1.692
45476W        W13705  22.583  33.305   2.191
45477W        W13706  28.412  31.627   3.586
45478W        W13707   8.922   0.339   0.786
45479W        W13708  21.658  35.049   2.135
45480W        W13709   8.359  35.450  13.423
45481W        W13710   3.982  34.875  11.139
45482W        W13711  31.901  29.060   4.633
45483W        W13712  15.151  21.122   2.891
45484W        W13713  14.127   2.849   3.889
45485W        W13714  36.499  23.659  11.893
45486W        W13715  28.278   2.059   1.330
45487W        W13716   9.731  42.504  14.946
45488W        W13717  43.500  27.977  13.832
45489W        W13718  14.285  20.123  13.982
45490W        W13719  22.424   4.175   0.759
45491W        W13720  32.832  10.184  14.375
45492W        W13721  11.021  24.611   3.428
45493W        W13722  33.494  25.617   4.898
45494W        W13723  27.128  35.111   3.693
45495W        W13724  26.021  27.669   1.084
45496W        W13725  29.731  44.242  13.978
45497W        W13726  16.213  23.776  14.905
45498W        W13727   8.811   6.448   3.659
45499W        W13728  11.247  13.140  14.672
45500W        W13729  25.594  15.823  11.204
45501W        W13730   6.570  34.501   2.114
45502W        W13731   4.751  30.806   2.726
45503W        W13732  21.771  41.152  10.931
45504W        W13733  30.181   2.980  11.155
45505W        W13734  35.952  10.342   4.674
45506W        W13735   2.809  14.078  10.637
45507W        W13736   9.596  27.985   3.674
45508W        W13737  43.451  34.762   4.147
45509W        W13738  41.530  26.279   3.641
45510W        W13739   2.031   0.975   2.829
45511W        W13740   4.670  41.964   4.133
45512W        W13741  33.611   4.887   2.374
45513W        W13742  33.541  19.556   1.407
45514W        W13743  30.532  42.832   3.619
45515W        W13744   6.320   9.784   4.495
45516W        W13745   8.805  31.673  11.552
45517W        W13746  16.552   6.685   0.478
45518W        W13747  18.690   6.808   2.695
45519W        W13748  33.433  38.454   2.762
45520W        W13749  13.822  18.954   2.305
45521W        W13750  18.808  26.812  12.594
45522W        W13751  27.534   0.694   0.863
45523W        W13752  42.804   4.920   1.727
45524W        W13753  26.119  42.716   1.096
45525W        W13754  39.959  23.259   2.977
45526W        W13755   1.363  18.012   3.888
45527W        W13756  35.035  36.164   3.367
45528W        W13757  28.604  37.085  14.003
45529W        W13758  27.413  14.393  10.791
45530W        W13759  43.515   5.036  13.576
45531W        W13760  29.386  27.956   0.257
45532W        W13761  27.869  40.407  13.834
45533W        W13762  19.772   2.620   0.897
45534W        W13763  17.661  42.661  12.951
45535W        W13764  31.358  12.079   3.255
45536W        W13765  39.264   5.742   9.843
45537W        W13766  41.129  11.429   2.218
45538W        W13767  22.303  39.914  10.595
45539W        W13768  26.861  43.904  11.814
45540W        W13769   0.792  44.930   4.615
45541W        W13770  14.233  11.045  14.552
45542W        W13771  28.470  16.761  11.221
45543W        W13772  40.007  43.038   4.217
45544W        W13773  36.879  33.131  14.326
45545W        W13774  36.707  23.580  10.542
45546W        W13775  20.628  13.596   4.179
45547W        W13776  26.175  42.835  10.744
45548W        W13777  15.301  20.128  14.967
45549W        W13778   8.144   5.709   2.461
45550W        W13779  18.083  24.550  12.490
45551W        W13780  29.559   0.858   1.059
45552W        W13781   8.967  28.158  12.623
45553W        W13782  36.118  15.588  13.805
45554W        W13783  36.325  31.304  11.292
45555W        W13784  25.007  14.942   4.530
45556W        W13785  20.923  24.137  11.979
45557W        W13786  29.459  27.892   1.956
45558W        W13787  24.182   3.157   3.551
45559W        W13788  12.163  32.449   4.715
45560W        W13789  30.627  21.682  14.787
45561W        W13790  36.864  28.415  12.938
45562W        W13791  34.100  36.951   4.769
45563W        W13792  18.712  19.763  10.260
45564W        W13793   7.378  37.417   0.532
45565W        W13794  22.177   5.670  11.959
45566W        W13795  11.538   4.290  12.121
45567W        W13796   2.963   1.307   3.151
45568W        W13797  14.641  30.821  11.136
45569W        W13798  44.417   3.878  13.350
45570W        W13799   6.828  27.104   4.655
45571W        W13800   3.901  12.891   4.685
45572W        W13801  44.534  30.451  13.296
45573W        W13802  43.825  10.137   1.466
45574W        W13803   9.799  19.622   1.359
45575W        W13804   5.632  34.099  12.994
45576W        W13805  30.973  36.204   9.744
45577W        W13806   2.869  10.554   3.778
45578W        W13807  23.307  22.569  11.068
45579W        W13808  28.203  21.337   3.642
45580W        W13809  20.814  44.046  13.530
45581W        W13810  42.522   7.296  14.557
45582W        W13811  43.730  11.887  14.986
45583W        W13812   5.295  39.965   1.512
45584W        W13813  14.713   9.618  11.770
45585W        W13814  13.228  30.592   1.925
45586W        W13815  10.112   2.969   2.557
45587W        W13816   9.391  42.046  10.871
45588W        W13817  33.952  12.627  11.901
45589W        W13818  10.683  30.863   0.765
45590W        W13819  24.150  26.559  14.944
45591W        W13820   6.419   4.812   3.257
45592W        W13821  24.853  16.771  11.475
45593W        W13822  37.411  29.707  10.295
45594W        W13823  20.527   0.845   4.540
45595W        W13824   5.986  42.996   4.231
45596W        W13825   8.618  26.124   1.698
45597W        W13826  12.844   0.873  12.148
45598W        W13827  21.571  33.868  14.855
45599W        W13828   4.947  12.880   2.737
45600W        W13829  15.801   9.249  14.473
45601W        W13830   9.072  30.630  10.531
45602W        W13831  41.622  14.659  14.365
45603W        W13832   2.318  27.340  12.021
45604W        W13833  26.429  38.042   1.075
45605W        W13834  27.079  28.549   3.148
45606W        W13835   4.113   9.069   1.367
45607W        W13836  25.732  30.079   3.741
45608W        W13837  14.179  40.029   1.997
45609W        W13838  15.194  10.163  12.086
45610W        W13839  40.442  44.459   4.594
45611W        W13840  41.556   5.145  14.786
45612W        W13841   8.257   2.011   0.503
45613W        W13842  13.814   2.007  10.677
45614W        W13843  21.572  42.032   1.428
45615W        W13844  15.158  42.997  12.085
45616W        W13845   5.275  31.607   2.758
45617W        W13846  11.088  23.393  11.612
45618W        W13847  41.088  37.963  12.129
45619W        W13848  10.356  36.516  12.483
45620W        W13849  16.533  37.029   0.374
45621W        W13850  30.426  42.391  13.349
45622W        W13851  23.675   2.243  13.611
45623W        W13852  39.069  40.887  10.460
45624W        W13853  11.530   2.181  13.426
45625W        W13854   5.230  37.605  12.849
45626W        W13855  10.812  28.750   4.900
45627W        W13856  26.670  39.867  10.144
45628W        W13857  43.473  37.501  11.199
45629W        W13858   6.353  35.829  12.403
45630W        W13859   7.903   8.438   4.509
45631W        W13860   4.788  36.049   5.548
45632W        W13861  43.753  18.051  10.796
45633W        W13862  28.970  34.458   2.275
45634W        W13863   4.963  19.713   2.411
45635W        W13864  23.241  32.699   4.266
45636W        W13865  23.989  16.584   4.298
45637W        W13866  36.842  30.032   2.460
45638W        W13867  40.038   2.466   0.312
45639W        W13868  34.975  11.092   1.413
45640W        W13869  32.645   8.030  14.761
45641W        W13870  39.726   4.070  11.171
45642W        W13871  19.010  28.706  11.759
45643W        W13872  35.528  43.981   4.160
45644W        W13873  44.552  40.344  12.345
45645W        W13874  44.268  17.662  13.914
45646W        W13875  15.092  38.022  13.829
45647W        W13876  31.509  36.123   3.534
45648W        W13877  39.925  28.074   1.933
45649W        W13878   2.265   8.327   1.136
45650W        W13879  21.491  11.202  11.181
45651W        W13880  22.079  11.245  12.488
45652W        W13881   5.702  25.241  10.696
45653W        W13882   7.747   5.816  13.876
45654W        W13883  19.347  25.179  10.217
45655W        W13884  21.690  10.820   4.104
45656W        W13885  33.031  26.971   2.675
45657W        W13886  16.919   3.129  11.641
45658W        W13887  29.413  25.116  10.649
45659W        W13888  41.307  35.487  14.920
45660W        W13889  28.119  11.237  14.395
45661W        W13890  16.682  36.836   2.219
45662W        W13891  20.493  22.687  12.890
45663W        W13892  20.835  14.790  14.779
45664W        W13893  30.843  39.937   2.141
45665W        W13894  26.227  38.808   0.084
45666W        W13895  15.787  31.142   0.915
45667W        W13896  33.368   9.260  12.425
45668W        W13897   3.326   9.619   2.239
45669W        W13898  27.927  16.648  12.094
45670W        W13899  37.831   9.588  14.146
45671W        W13900  40.791  44.481   1.694
45672W        W13901  37.588  31.577  11.543
45673W        W13902  33.123  27.084   3.702
45674W        W13903  10.584  11.297   3.606
45675W        W13904  18.606  12.162   4.148
45676W        W13905  23.142  43.512  14.520
45677W        W13906   3.667  43.836   4.314
45678W        W13907   8.884   6.282   1.641
45679W        W13908  44.387  15.803   4.001
45680W        W13909  23.728  35.332   3.260
45681W        W13910  34.025   9.244   2.272
45682W        W13911  19.236   1.281   4.728
45683W        W13912   4.253  41.263   3.022
45684W        W13913  21.654  20.281  10.664
45685W        W13914  10.080  28.731   1.645
45686W        W13915  42.949  34.633   4.089
45687W        W13916  11.404  36.016   3.519
45688W        W13917   1.493  38.364   0.684
45689W        W13918  42.700  35.540   4.178
45690W        W13919  36.806  12.056  10.674
45691W        W13920  32.507  41.941   3.185
45692W        W13921   5.491  42.875   3.476
45693W        W13922   8.329  10.586  10.935
45694W        W13923  10.819  16.090  10.814
45695W        W13924   4.681  44.797   2.273
45696W        W13925  22.786  21.338   0.682
45697W        W13926  14.631  37.998  11.597
45698W        W13927  31.027  19.213   1.367
45699W        W13928  44.898  22.001   4.657
45700W        W13929  31.921  43.638   4.757
45701W        W13930   4.114  33.472  11.061
45702W        W13931   4.685   3.451   2.849
45703W        W13932  40.616  23.996  10.366
45704W        W13933  12.054  42.722  13.493
45705W        W13934  42.054   6.674   0.304
45706W        W13935  32.099  34.989   4.963
45707W        W13936  37.295  23.527  14.566
45708W        W13937  36.468  32.605   1.818
45709W        W13938  29.083   3.951  13.039
45710W        W13939  25.179  37.861   1.705
45711W        W13940  44.216   7.957  11.302
45712W        W13941  24.489  36.330  11.595
45713W        W13942  19.106   6.899   3.225
45714W        W13943  31.628  32.667   1.829
45715W        W13944   8.487  20.988   3.289
45716W        W13945  32.562   7.631   3.530
45717W        W13946  41.697   2.826   2.817
45718W        W13947  31.163  10.725   2.109
45719W        W13948  40.043  21.851  13.767
45720W        W13949  14.451  39.778   2.864
45721W        W13950  13.285   0.482   4.633
45722W        W13951  41.732  32.837  13.921
45723W        W13952  13.213   5.007   1.762
45724W        W13953  24.663  14.393   0.256
45725W        W13954   7.812   3.511  13.623
45726W        W13955  16.622  11.057   4.998
45727W        W13956  27.931   3.399   2.996
45728W        W13957  11.142   0.274   3.662
45729W        W13958  24.749  24.971   4.428
45730W        W13959  12.198  26.680   1.391
45731W        W13960  33.238  25.959   1.695
45732W        W13961   9.168  36.000   2.776
45733W        W13962  10.211  35.631   2.144
45734W        W13963  26.453  24.400   4.695
45735W        W13964  35.650  10.596  14.243
45736W        W13965  20.716  33.463   1.731
45737W        W13966   8.826  28.746  11.559
45738W        W13967   9.490   8.282  12.426
45739W        W13968   4.086  37.457  11.223
45740W        W13969  21.113  34.907  13.686
45741W        W13970  24.101  11.277   3.562
45742W        W13971  38.180  43.775   1.579
45743W        W13972  31.966  12.687   1.406
45744W        W13973  14.320  15.117   3.411
45745W        W13974  32.812  14.568   1.735
45746W        W13975  26.413  24.497  13.448
45747W        W13976  36.157  10.653  13.495
45748W        W13977  31.484  26.694   0.951
45749W        W13978  31.214  39.295   0.980
45750W        W13979  32.488  19.129  10.123
45751W        W13980   9.349  40.397   4.572
45752W        W13981  19.230  30.952  14.320
45753W        W13982  20.033  14.574   2.704
45754W        W13983  22.486   9.726   4.160
45755W        W13984  19.674  28.592  12.163
45756W        W13985   2.052  37.908  11.128
45757W        W13986  36.983  21.323   3.664
45758W        W13987   3.980  42.087   0.391
45759W        W13988  37.764   4.056   4.330
45760W        W13989  40.449  21.033  12.674
45761W        W13990   5.444  39.032  12.471
45762W        W13991  23.467  18.612  11.152
45763W        W13992   4.953  15.837  14.918
45764W        W13993   1.455  37.273   4.475
45765W        W13994  38.016  14.729  13.606
45766W        W13995  23.247  29.049   2.763
45767W        W13996  34.039  18.261  13.233
45768W        W13997   9.169  12.718  10.228
45769W        W13998  40.386  12.642  13.860
45770W        W13999  41.745  40.331  11.183
45771W        W14000  18.636  36.213   0.445
45772W        W14001  26.730  33.132  11.094
45773W        W14002  11.950  39.382  12.028
45774W        W14003   0.870  42.240   0.835
45775W        W14004   4.343  38.472  11.348
45776W        W14005  30.054  16.657  12.885
45777W        W14006  22.304  18.617   0.986
45778W        W14007  27.256  12.978  10.288
45779W        W14008  19.735   3.848  11.563
45780W        W14009  26.749   2.970  12.453
45781W        W14010  21.015   2.996  12.857
45782W        W14011  11.962  10.563   5.211
45783W        W14012   4.713   5.441  10.601
45784W        W14013  34.942   6.432  11.144
45785W        W14014  10.050   3.406   3.281
45786W        W14015  27.043  10.192  14.296
45787W        W14016  23.480   2.396  11.586
45788W        W14017  20.607   3.886   2.213
45789W        W14018   3.625  34.934  12.642
45790W        W14019  20.442  18.371   2.613
45791W        W14020   4.818  39.802   2.337
45792W        W14021  20.671  21.574   4.164
45793W        W14022   5.284   7.938  14.785
45794W        W14023   1.791  37.577   5.388
45795W        W14024   2.463  16.070   3.884
45796W        W14025  19.103   2.382   2.652
45797W        W14026  17.246  22.255  13.869
45798W        W14027  19.174  17.229   3.707
45799W        W14028   6.905  33.637   4.716
45800W        W14029  24.031   5.424   4.516
45801W        W14030   2.039   6.943   1.880
45802W        W14031  43.685  23.541   3.735
45803W        W14032  22.388  37.038   1.292
45804W        W14033  30.144  24.058   1.429
45805W        W14034  21.629  40.767   1.786
45806W        W14035  22.013   6.733   4.148
45807W        W14036  27.565  29.382   0.269
45808W        W14037   4.869  36.446  11.427
45809W        W14038  24.622  17.351   0.832
45810W        W14039  14.735  41.701  13.381
45811W        W14040  35.149  27.438   0.223
45812W        W14041  33.579  28.313   3.971
45813W        W14042  37.524   5.742  12.094
45814W        W14043  17.522  37.825  10.675
45815W        W14044  33.200  14.449   3.403
45816W        W14045  34.120   3.728  12.509
45817W        W14046  32.487  15.272  11.663
45818W        W14047  32.398  39.278  11.594
45819W        W14048  27.256   9.287   3.586
45820W        W14049   3.454  42.849  10.769
45821W        W14050   4.962   4.958  11.777
45822W        W14051  16.801  29.509  12.366
45823W        W14052  29.098   6.337  10.745
45824W        W14053  44.300  25.405  14.747
45825W        W14054  31.314  31.386   1.482
45826W        W14055   4.334  39.850   1.665
45827W        W14056   6.902   0.997   1.335
45828W        W14057  15.655  44.757   3.718
45829W        W14058  32.983  35.490  12.484
45830W        W14059  33.005  10.494   3.800
45831W        W14060  25.396  37.419  10.474
45832W        W14061   4.859  41.061   0.857
45833W        W14062  32.593   2.266  12.878
45834W        W14063  30.456   0.436   3.705
45835W        W14064  35.529  37.063   3.992
45836W        W14065  32.779   0.493   0.618
45837W        W14066  19.630  35.115   1.328
45838W        W14067   7.484   8.188   4.306
45839W        W14068  14.367   7.844   1.767
45840W        W14069  38.423   6.245  12.392
45841W        W14070   9.595  44.705  11.007
45842W        W14071   0.008  36.227   3.693
45843W        W14072  32.213  15.515  13.460
45844W        W14073  14.608   8.116   4.285
45845W        W14074  31.546   0.399  11.607
45846W        W14075  38.470  25.440  13.804
45847W        W14076   2.824  17.497   3.845
45848W        W14077  24.456  21.473  10.800
45849W        W14078  15.676  34.386  14.371
45850W        W14079  32.303   0.880   2.782
45851W        W14080  19.260  21.109  13.624
45852W        W14081  22.952  44.029   2.216
45853W        W14082  20.474  33.483  13.426
45854W        W14083  16.674  32.033  11.031
45855W        W14084  26.895  30.458  11.516
45856W        W14085  18.632  20.244   1.345
45857W        W14086   9.913  30.199  12.945
45858W        W14087  25.096   8.114   2.780
45859W        W14088  38.533   9.592  12.192
45860W        W14089   5.401  18.122  14.842
45861W        W14090  34.853  43.532  12.538
45862W        W14091  30.575  18.015  11.980
45863W        W14092  29.507  30.143   1.802
45864W        W14093  26.487  22.999   0.888
45865W        W14094  37.542  22.116  10.509
45866W        W14095   1.867  16.126  14.530
45867W        W14096  17.191  12.838  12.052
45868W        W14097  20.761  16.583  13.362
45869W        W14098  36.450  12.951  10.337
45870W        W14099   4.130  44.078  11.750
45871W        W14100  13.666   7.682  12.546
45872W        W14101  38.539  37.270   0.472
45873W        W14102  28.178   7.404  10.414
45874W        W14103  21.923   9.853   4.139
45875W        W14104  12.896  29.203   1.310
45876W        W14105  10.042  24.622  11.207
45877W        W14106  43.442  15.789   4.569
45878W        W14107  15.660  15.124   0.717
45879W        W14108  11.623  19.760   1.170
45880W        W14109  40.534  44.909   1.850
45881W        W14110  33.492   0.679  13.997
45882W        W14111  36.983  41.571  14.016
45883W        W14112  14.319  10.470   2.239
45884W        W14113  16.049  38.761   0.304
45885W        W14114  27.184  29.447  10.324
45886W        W14115  33.155   1.455   3.769
45887W        W14116  19.642  25.672  12.609
45888W        W14117  32.618  21.092   1.984
45889W        W14118  18.080  17.727  11.404
45890W        W14119  38.169  20.335  11.532
45891W        W14120   3.168  26.164  13.594
45892W        W14121  34.456   1.415   0.524
45893W        W14122  32.440  33.949   2.839
45894W        W14123   0.017   5.844  10.607
45895W        W14124  24.409  13.742  10.663
45896W        W14125  14.752  37.518  12.895
45897W        W14126   8.251  12.639   4.555
45898W        W14127  18.991  39.887   4.110
45899W        W14128  35.222  18.835   3.822
45900W        W14129   6.895  44.999  12.127
45901W        W14130  14.279  26.709  13.442
45902W        W14131  24.980  22.620  11.343
45903W        W14132  13.653  42.213  11.509
45904W        W14133  43.548   7.942   1.860
45905W        W14134  15.082  13.908  12.980
45906W        W14135   0.734  41.027  14.685
45907W        W14136  43.052   5.363  13.521
45908W        W14137  14.147  24.801   4.195
45909W        W14138  32.339   3.899  12.934
45910W        W14139  40.307  12.563   4.982
45911W        W14140  40.237   4.194  12.918
45912W        W14141  31.024   3.900  12.621
45913W        W14142  23.281  44.851  13.948
45914W        W14143  36.338  33.204   2.726
45915W        W14144  40.390   4.508   3.178
45916W        W14145   7.920  35.418  10.951
45917W        W14146  23.689  22.267  13.739
45918W        W14147  36.469  35.884   4.774
45919W        W14148  18.748  18.145   3.014
45920W        W14149  14.840   6.318  12.457
45921W        W14150  39.521  12.707   4.586
45922W        W14151  43.588   0.338  11.032
45923W        W14152   8.110  44.616  14.557
45924W        W14153  22.559  29.626  12.866
45925W        W14154  22.780   5.094  11.537
45926W        W14155   1.019   1.481   3.126
45927W        W14156  32.064   5.906  11.689
45928W        W14157  38.556  42.190  10.766
45929W        W14158   2.875  16.140   3.572
45930W        W14159   8.115  33.032   4.145
45931W        W14160   2.365  36.101   0.414
45932W        W14161  23.042  13.937   4.311
45933W        W14162  19.147  22.787   0.724
45934W        W14163   6.908  12.701  12.489
45935W        W14164  10.778  21.813  13.346
45936W        W14165  16.310  37.870  12.041
45937W        W14166  37.897   7.732  14.547
45938W        W14167   6.485  14.736   1.366
45939W        W14168  21.282  29.523   4.148
45940W        W14169  32.212  41.546  13.593
45941W        W14170  19.057  23.776  11.520
45942W        W14171  23.111  16.550  11.165
45943W        W14172  22.506  13.353  11.558
45944W        W14173   8.857  19.646  12.471
45945W        W14174   7.441  28.616  13.409
45946W        W14175  32.504  37.910   0.371
45947W        W14176   7.349  11.651   0.315
45948W        W14177  15.224  19.274  13.566
45949W        W14178   1.230  27.601   0.764
45950W        W14179  32.405  14.330  11.525
45951W        W14180  17.279  44.884  13.030
45952W        W14181   9.968   9.686  11.641
45953W        W14182  32.368  33.413   1.963
45954W        W14183   7.651  33.707  14.451
45955W        W14184  23.770  33.559  12.651
45956W        W14185  43.419  38.003  14.389
45957W        W14186  25.501  19.435  12.904
45958W        W14187  38.368   7.459  14.416
45959W        W14188  34.631  23.624   3.223
45960W        W14189   3.766  14.636  13.496
45961W        W14190   0.255  22.638  13.892
45962W        W14191  19.462   8.688  14.147
45963W        W14192  11.179   2.433  11.905
45964W        W14193  39.077  23.518  14.968
45965W        W14194   9.738  43.417   4.553
45966W        W14195  31.942  30.160  12.353
45967W        W14196  33.197   5.482  11.040
45968W        W14197  25.662  15.595   4.410
45969W        W14198  18.051   1.522   0.337
45970W        W14199  21.693  17.259   3.107
45971W        W14200  28.393  14.113   5.046
45972W        W14201  41.616   1.239   2.266
45973W        W14202  28.103   7.227  11.858
45974W        W14203   2.828  44.439  10.707
45975W        W14204  38.590  28.109  11.066
45976W        W14205   9.956   6.511   2.908
45977W        W14206  32.053  21.499  13.495
45978W        W14207  11.638  19.139   2.366
45979W        W14208  10.195   1.540   4.231
45980W        W14209   4.149   3.888  11.281
45981W        W14210  39.790  28.589   3.308
45982W        W14211  24.272  40.603   1.172
45983W        W14212  28.662  12.844   5.328
45984W        W14213  32.863  39.051   4.066
45985W        W14214  17.211  26.273   9.671
45986W        W14215   6.695  10.541   3.132
45987W        W14216  17.417  10.381  10.545
45988W        W14217  37.386   6.418   0.346
45989W        W14218  37.685  25.488   0.387
45990W        W14219  22.640  37.959   4.109
45991W        W14220   2.486  38.236   3.986
45992W        W14221  36.288  24.292  11.603
45993W        W14222  35.615  18.103   1.786
45994W        W14223   9.215   2.978  12.029
45995W        W14224   3.324   5.797  12.142
45996W        W14225  21.442  27.007   1.002
45997W        W14226   1.481  11.595   3.745
45998W        W14227  42.281  17.647   0.266
45999W        W14228  38.806  41.591   1.302
46000W        W14229  14.787  43.750  13.560
46001W        W14230  13.165  40.635  14.477
46002W        W14231  27.408  21.761  13.565
46003W        W14232  38.485   4.786   4.477
46004W        W14233  19.162  33.152  14.744
46005W        W14234  22.683  42.933   3.169
46006W        W14235  12.608   0.930   1.871
46007W        W14236  11.673  23.115  14.688
46008W        W14237  33.386  24.585  11.415
46009W        W14238   1.691  28.070   0.929
46010W        W14239   6.750   6.927  14.843
46011W        W14240  31.906  27.135  12.455
46012W        W14241   1.842  32.101   3.235
46013W        W14242  25.939  29.190   4.369
46014W        W14243  38.063  33.884   0.957
46015W        W14244  36.531  24.222   3.934
46016W        W14245  28.033  16.893   0.829
46017W        W14246  11.658  26.683   1.295
46018W        W14247  16.173  39.837   2.329
46019W        W14248   0.157  34.205  12.135
46020W        W14249   5.754  42.098   4.753
46021W        W14250  29.550   3.866  12.812
46022W        W14251  29.953   1.968  10.659
46023W        W14252  22.977  28.077   0.734
46024W        W14253  21.770   6.652   0.859
46025W        W14254  37.462  37.387  13.134
46026W        W14255  12.685   3.890  12.532
46027W        W14256  39.801  39.605   3.289
46028W        W14257  32.442  10.688  12.408
46029W        W14258   9.729  43.556   1.622
46030W        W14259  10.823  23.989   4.257
46031W        W14260  19.027  35.144   5.074
46032W        W14261  10.869  25.692  12.368
46033W        W14262  19.064   9.576  14.443
46034W        W14263  34.299  37.845   4.662
46035W        W14264  14.638  17.132   0.937
46036W        W14265  20.123  30.741  12.530
46037W        W14266  32.280  44.507  11.114
46038W        W14267  10.706  29.623  14.829
46039W        W14268  27.638  35.939   0.840
46040W        W14269   0.817  33.604   3.253
46041W        W14270  19.306  15.187   1.683
46042W        W14271  11.079   7.467   1.746
46043W        W14272  41.786  27.199  13.944
46044W        W14273   7.768   4.853  13.914
46045W        W14274  19.245  14.345  11.315
46046W        W14275  11.721   5.970   1.015
46047W        W14276   0.255  26.537   4.330
46048W        W14277  24.632  22.767   0.961
46049W        W14278   7.265  25.760   2.470
46050W        W14279  11.161  10.219   1.073
46051W        W14280  39.250   5.759  11.520
46052W        W14281  35.465  20.880  11.118
46053W        W14282  22.449  24.549  13.069
46054W        W14283  14.629  42.514  10.723
46055W        W14284  27.055   4.473  14.793
46056W        W14285  40.301   8.806  10.624
46057W        W14286  38.999  12.909  11.175
46058W        W14287  44.755  34.486   4.021
46059W        W14288  37.965  17.950   3.134
46060W        W14289   3.365  42.993  13.059
46061W        W14290  24.055  44.151  11.613
46062W        W14291   8.681   4.245  10.696
46063W        W14292  12.660  18.224   2.334
46064W        W14293  35.219  18.592  11.470
46065W        W14294   6.515  22.009  12.311
46066W        W14295  27.423  37.083  13.380
46067W        W14296   6.831   5.495   1.098
46068W        W14297  12.755  19.520   4.288
46069W        W14298  37.996  31.404   2.148
46070W        W14299   7.266  32.880  12.048
46071W        W14300  39.315   7.768   2.632
46072W        W14301   6.660  34.018   4.415
46073W        W14302  42.460  23.662  12.437
46074W        W14303   3.159   4.280  11.144
46075W        W14304  28.519   9.845  13.429
46076W        W14305  14.663  18.325   3.312
46077W        W14306  26.605  16.712   2.219
46078W        W14307  37.901  42.471   2.168
46079W        W14308   6.107  44.864  14.438
46080W        W14309   7.106  39.471  13.056
46081W        W14310  23.666   4.727   3.870
46082W        W14311  31.447   7.338   3.158
46083W        W14312  28.536  29.137   3.795
46084W        W14313  27.125  44.131   0.385
46085W        W14314   3.200  18.823  14.875
46086W        W14315  24.188  19.604  12.492
46087W        W14316   2.037  25.304  14.365
46088W        W14317   7.176  25.208  13.491
46089W        W14318  43.981  22.043   4.402
46090W        W14319  12.205  28.294   3.115
46091W        W14320   0.858  26.204   2.656
46092W        W14321   7.832  30.937   4.169
46093W        W14322  39.334  44.427   1.995
46094W        W14323  32.498  19.494  14.732
46095W        W14324  37.562  41.818   5.286
46096W        W14325   8.130  39.855   1.197
46097W        W14326  19.520  39.582  14.286
46098W        W14327  43.984  15.935   4.306
46099W        W14328  10.931  18.974   4.664
46100W        W14329   2.849  32.603  10.626
46101W        W14330  22.491  11.356  12.203
46102W        W14331  14.212  26.248   1.371
46103W        W14332  44.071  11.417  10.933
46104W        W14333  22.476   1.521  13.486
46105W        W14334  12.439  29.875  12.682
46106W        W14335   2.873  15.383  11.103
46107W        W14336  44.971  23.464   0.293
46108W        W14337  37.481   1.265  13.602
46109W        W14338  19.795  13.694  11.534
46110W        W14339   0.763  21.402  14.497
46111W        W14340  34.491  34.589  12.996
46112W        W14341   2.365  38.410   3.168
46113W        W14342  38.932   5.274  13.077
46114W        W14343  35.808  28.223   1.935
46115W        W14344   3.498   4.849   1.755
46116W        W14345   4.249  34.865   4.596
46117W        W14346  13.169   5.546  13.445
46118W        W14347   4.671  23.994   4.704
46119W        W14348   9.739  31.372  12.112
46120W        W14349  12.612  12.776  14.858
46121W        W14350  30.373  35.425  13.260
46122W        W14351  42.359  35.944  14.446
46123W        W14352  29.693  17.350  14.923
46124W        W14353   3.824  36.360   3.249
46125W        W14354  29.880   1.384   4.780
46126W        W14355  37.045   4.871  13.655
46127W        W14356  37.568   2.253  12.067
46128W        W14357   1.074  20.076   1.653
46129W        W14358  40.481  40.798   1.331
46130W        W14359   5.606  39.598   1.871
46131W        W14360  18.410  32.673  11.680
46132W        W14361  35.322  32.427  13.669
46133W        W14362  33.604  13.082  12.112
46134W        W14363  40.306  26.149   0.495
46135W        W14364  30.680  32.946  12.966
46136W        W14365  17.172  32.798  14.272
46137W        W14366  11.245  19.545  14.372
46138W        W14367  40.060  41.157  13.832
46139W        W14368  15.278  43.241  10.765
46140W        W14369   2.886  36.839  14.354
46141W        W14370  12.774   0.456  12.437
46142W        W14371  13.379  41.384  12.515
46143W        W14372  14.271   8.373  13.520
46144W        W14373   8.544  14.993   4.655
46145W        W14374  36.432  10.624  11.591
46146W        W14375  35.700  32.452  14.028
46147W        W14376   1.449  34.450  12.927
46148W        W14377  42.273  41.221  14.997
46149W        W14378  40.971  41.032  12.971
46150W        W14379  35.429   5.737  14.872
46151W        W14380  41.833  25.050   4.116
46152W        W14381  20.512  17.325   4.202
46153W        W14382   7.372   2.883   4.138
46154W        W14383   5.816  34.684  13.526
46155W        W14384  23.729  27.785   0.489
46156W        W14385   6.299  39.384  11.108
46157W        W14386  23.233  10.344   1.490
46158W        W14387  18.714  25.476   2.761
46159W        W14388  21.638  40.055   2.420
46160W        W14389   5.882  44.528   1.315
46161W        W14390  10.659  12.938  11.013
46162W        W14391   5.162  16.628  12.578
46163W        W14392  22.000  41.954  12.541
46164W        W14393  35.938   4.519   1.933
46165W        W14394  39.137  27.135  14.939
46166W        W14395  26.783   8.867  11.617
46167W        W14396   9.883   4.724  11.944
46168W        W14397  39.888  39.624  10.708
46169W        W14398  21.681  25.365  11.085
46170W        W14399  22.043  30.386  12.774
46171W        W14400  31.065  18.448  11.503
46172W        W14401  21.165  42.015   1.772
46173W        W14402  43.048  34.128   1.511
46174W        W14403  17.711  25.970   0.671
46175W        W14404  10.593  36.924  13.853
46176W        W14405  42.822  37.174  11.657
46177W        W14406   2.284   8.954  13.114
46178W        W14407  13.291  35.419   1.847
46179W        W14408  21.993  18.161   4.158
46180W        W14409  31.038  22.179   3.085
46181W        W14410  22.547   0.866   2.730
46182W        W14411  13.503  41.246  11.553
46183W        W14412  19.540   9.673  14.837
46184W        W14413  37.889  18.555  13.536
46185W        W14414  28.466   6.926   4.485
46186W        W14415  17.830  41.904  13.462
46187W        W14416  35.028   4.015  14.942
46188W        W14417   0.227  39.316   3.598
46189W        W14418  40.827   9.745   4.535
46190W        W14419  10.183   2.894   1.056
46191W        W14420  26.428  12.159   0.834
46192W        W14421  11.776  11.793   1.667
46193W        W14422   7.933  42.278  13.870
46194W        W14423  27.606  39.968   1.426
46195W        W14424   8.690  36.859  10.642
46196W        W14425  22.125  40.842   1.309
46197W        W14426  11.690  15.608  13.916
46198W        W14427   3.209  41.471   2.814
46199W        W14428  44.256  14.403   1.077
46200W        W14429  10.849  14.423  14.929
46201W        W14430   3.416  41.474   0.844
46202W        W14431  19.648   1.432  13.806
46203W        W14432  14.713  26.989  13.428
46204W        W14433  25.265  14.187  12.969
46205W        W14434  28.465   9.823   3.220
46206W        W14435  16.036  16.981   2.866
46207W        W14436  35.106  35.879   0.485
46208W        W14437  26.134  27.103  11.164
46209W        W14438  17.849  35.345   3.746
46210W        W14439   4.316   7.232   2.324
46211W        W14440  10.422  35.871  13.108
46212W        W14441   8.224  31.976  10.408
46213W        W14442  12.752  32.192   4.639
46214W        W14443  43.478  17.848  11.691
46215W        W14444  33.604  29.929  14.199
46216W        W14445  24.915  38.248   0.338
46217W        W14446   6.998  19.813  14.783
46218W        W14447  42.015  36.557   4.423
46219W        W14448  22.239  16.355   1.283
46220W        W14449  37.563   4.291   4.749
46221W        W14450  11.333  22.948   1.258
46222W        W14451  18.286  26.719   0.826
46223W        W14452  26.680  18.976  10.702
46224W        W14453  30.896  17.783   3.164
46225W        W14454  26.846   5.241  11.587
46226W        W14455  22.093  26.564   3.084
46227W        W14456  31.985  21.801   0.319
46228W        W14457  21.994   4.295  12.014
46229W        W14458  24.290  34.385  12.277
46230W        W14459  36.097  30.992   1.740
46231W        W14460  42.978  21.243   4.799
46232W        W14461   3.039  36.787   3.664
46233W        W14462   0.172  27.185   4.583
46234W        W14463   1.177  36.111   1.733
46235W        W14464   2.332   5.449   1.511
46236W        W14465  24.465  17.139  14.923
46237W        W14466  22.780  41.552  13.525
46238W        W14467  10.576  14.803   3.404
46239W        W14468  18.624  30.459  10.682
46240W        W14469   1.628  10.750   3.817
46241W        W14470  34.201  40.900  12.160
46242W        W14471  40.897  11.949   3.023
46243W        W14472   2.918  14.819   3.655
46244W        W14473   5.214  30.021   1.278
46245W        W14474   9.610   2.395  13.563
46246W        W14475  42.898  40.693   2.783
46247W        W14476  32.391  34.797   3.940
46248W        W14477  18.474  13.354   4.849
46249W        W14478  12.599   1.413  12.451
46250W        W14479  27.996  15.139  12.827
46251W        W14480  30.465  34.490   3.768
46252W        W14481  16.652   2.044   4.772
46253W        W14482  28.949  14.345   5.085
46254W        W14483  19.588  20.835   3.659
46255W        W14484  20.723  10.554   0.490
46256W        W14485  29.507  10.299  11.702
46257W        W14486  29.983  14.276  10.710
46258W        W14487   3.702   1.017  12.447
46259W        W14488  41.250  35.443  11.942
46260W        W14489  39.019  27.095  12.617
46261W        W14490  10.436  44.020  12.525
46262W        W14491   2.404  10.337  11.913
46263W        W14492  10.245   4.511   1.799
46264W        W14493  15.166  42.479  11.212
46265W        W14494  32.494  24.189   2.849
46266W        W14495  13.314  29.279   5.061
46267W        W14496  11.777  33.163   2.457
46268W        W14497  20.576  29.962   4.296
46269W        W14498  37.454   5.683   9.579
46270W        W14499  33.006  42.604  13.500
46271W        W14500  10.913   3.481   4.633
46272W        W14501  25.492  34.648   3.729
46273W        W14502  10.722  35.632   2.144
46274W        W14503   8.236   8.370   1.238
46275W        W14504  19.050  44.756  14.657
46276W        W14505  24.816   8.946   3.584
46277W        W14506  34.065   5.536   0.741
46278W        W14507  13.172   9.413   0.532
46279W        W14508  15.015  35.864  11.524
46280W        W14509  20.106  35.838   2.309
46281W        W14510  29.202  12.536   2.730
46282W        W14511  33.694  38.408   1.393
46283W        W14512  18.585  20.210   4.485
46284W        W14513   4.905  38.995  13.338
46285W        W14514  21.942  37.184  12.604
46286W        W14515  38.133  31.575  11.528
46287W        W14516   8.753  40.316  11.066
46288W        W14517  37.046  33.429   3.272
46289W        W14518  20.052  22.853   3.106
46290W        W14519  15.700  10.194  11.497
46291W        W14520  44.927  39.799   3.200
46292W        W14521  27.536  22.170   4.894
46293W        W14522  24.554  36.596   1.614
46294W        W14523  43.546  19.624  10.748
46295W        W14524   9.794  10.611   0.391
46296W        W14525  31.505  23.618  10.638
46297W        W14526   6.648  42.273  13.430
46298W        W14527   9.234  32.214  11.932
46299W        W14528   2.324  19.309   2.169
46300W        W14529   9.839   0.728  12.695
46301W        W14530   2.345  28.867  11.912
46302W        W14531  27.601  39.796  13.116
46303W        W14532   9.429  22.413  11.797
46304W        W14533  12.144  38.958  11.756
46305W        W14534  27.580  33.778   3.157
46306W        W14535  41.400  33.814  10.836
46307W        W14536  22.528  19.100   3.088
46308W        W14537  33.503  11.388  14.427
46309W        W14538  25.922  25.965  11.965
46310W        W14539  18.797  24.891   0.647
46311W        W14540   0.859  21.583  11.515
46312W        W14541  27.820  33.780  10.159
46313W        W14542  28.276  36.199   3.228
46314W        W14543  18.755  30.371   3.475
46315W        W14544   2.449  33.830   0.798
46316W        W14545  22.541   4.246  11.231
46317W        W14546  19.179  39.334  14.615
46318W        W14547   9.448  14.611  11.097
46319W        W14548  33.652  32.854   0.359
46320W        W14549  41.047   8.849  12.566
46321W        W14550  21.152  42.445  11.385
46322W        W14551  42.540  25.498   1.808
46323W        W14552   2.330  42.329  14.446
46324W        W14553  31.622  17.058   0.849
46325W        W14554  11.637   6.366   4.092
46326W        W14555  38.449  23.720  12.460
46327W        W14556   1.563  38.232  14.042
46328W        W14557  12.532   3.872   0.861
46329W        W14558   7.238   5.045  11.637
46330W        W14559  10.917  27.990  14.925
46331W        W14560  23.749  24.633  14.390
46332W        W14561  32.865  41.818   4.141
46333W        W14562  21.071  28.208  14.794
46334W        W14563  33.395  11.500  13.542
46335W        W14564  41.929  33.765  10.781
46336W        W14565  21.078  41.980  13.547
46337W        W14566  29.393  40.867  11.274
46338W        W14567   5.949  34.477   0.282
46339W        W14568  14.307  12.819   2.643
46340W        W14569  31.803  10.099   2.357
46341W        W14570  27.493  13.785   5.106
46342W        W14571  13.089   6.194  10.690
46343W        W14572   9.827  34.890  13.946
46344W        W14573  17.325  43.390  12.162
46345W        W14574  36.054  28.154  14.931
46346W        W14575  37.265   1.548   3.611
46347W        W14576   4.819  27.243   3.128
46348W        W14577  18.606  35.518  10.112
46349W        W14578  42.442   3.767   4.121
46350W        W14579  32.062  36.529  11.668
46351W        W14580  23.542  24.942   2.285
46352W        W14581  17.082  39.380   2.168
46353W        W14582  21.321  37.804  10.674
46354W        W14583  29.446   7.448   4.132
46355W        W14584   2.321  39.495   1.078
46356W        W14585  14.667  43.372  11.426
46357W        W14586   5.117  19.877   2.879
46358W        W14587  15.424  37.287   5.099
46359W        W14588  14.231   9.747  13.599
46360W        W14589  37.872  37.473   3.323
46361W        W14590  29.205  10.304   0.335
46362W        W14591   5.647  38.158  14.438
46363W        W14592  20.549  16.690  14.883
46364W        W14593  31.515   2.520   0.342
46365W        W14594  23.689  40.307   2.685
46366W        W14595  27.428   7.733  10.427
46367W        W14596   6.818  34.090  12.194
46368W        W14597  30.931  22.680   3.170
46369W        W14598   1.697  18.743   1.307
46370W        W14599  10.545   9.717  10.615
46371W        W14600   6.557  22.353  10.522
46372W        W14601  42.913  13.326   4.520
46373W        W14602  38.516  25.954  12.577
46374W        W14603  41.897  29.951   5.281
46375W        W14604  42.436   9.663  11.538
46376W        W14605  18.537  21.063  10.816
46377W        W14606  16.228  17.837   0.796
46378W        W14607  22.080  34.774  14.942
46379W        W14608   6.057  17.653   0.881
46380W        W14609  44.800  26.620  13.246
46381W        W14610  42.769  25.406  14.969
46382W        W14611  25.736  34.501   1.421
46383W        W14612  18.224  41.472  10.615
46384W        W14613  23.602  38.921   4.764
46385W        W14614  30.928   0.379  12.149
46386W        W14615  11.465   0.560  12.565
46387W        W14616  35.988   7.235   3.866
46388W        W14617   8.867   6.653  12.059
46389W        W14618  11.983  26.474   4.999
46390W        W14619  39.565  18.392   0.785
46391W        W14620  28.097   5.118  14.436
46392W        W14621   5.022  12.461  14.836
46393W        W14622   9.855  42.978  12.521
46394W        W14623  14.020  32.406   4.630
46395W        W14624   4.528   9.868   1.677
46396W        W14625  22.898  15.604   1.411
46397W        W14626  21.224  11.103   4.127
46398W        W14627  36.972  21.810   0.038
46399W        W14628  36.615   3.325  12.052
46400W        W14629  16.068  23.178   0.844
46401W        W14630  16.821  27.031   1.374
46402W        W14631  36.409  33.115   3.750
46403W        W14632  11.667   6.379   3.547
46404W        W14633  29.480  28.895   2.232
46405W        W14634  32.552  24.034  14.457
46406W        W14635  35.585  21.136   1.372
46407W        W14636   5.490  10.143   3.706
46408W        W14637  12.993   6.038  13.410
46409W        W14638   9.671  32.956   3.219
46410W        W14639  21.526  42.692  13.862
46411W        W14640   2.757  41.007   4.412
46412W        W14641  13.183  44.026  14.527
46413W        W14642   4.266  23.254   4.656
46414W        W14643  34.459   5.447  14.027
46415W        W14644   9.457   8.951  11.610
46416W        W14645  20.124  21.671  14.893
46417W        W14646  10.581  24.973   0.289
46418W        W14647   1.747  41.965   0.060
46419W        W14648   9.243  19.588   1.750
46420W        W14649  40.048  10.355  13.359
46421W        W14650  28.568  16.723   2.120
46422W        W14651  22.573  26.978   0.093
46423W        W14652  15.861  19.436   2.807
46424W        W14653  44.890  12.098   1.271
46425W        W14654  17.128  12.386  13.652
46426W        W14655  26.949  31.523  12.067
46427W        W14656   2.525  19.673  14.356
46428W        W14657  38.612  38.908  14.338
46429W        W14658  10.827   1.689  11.711
46430W        W14659   4.224  41.946   3.806
46431W        W14660  34.655   2.019   2.006
46432W        W14661  27.440  20.818  12.022
46433W        W14662  17.682   1.290  12.454
46434W        W14663  34.652  26.375  12.414
46435W        W14664  25.133   7.302  13.967
46436W        W14665  24.243   6.519   3.671
46437W        W14666   5.426   5.742   2.822
46438W        W14667   2.998  31.438  13.970
46439W        W14668  40.390  17.287   1.385
46440W        W14669  14.254  35.934  12.623
46441W        W14670   8.354  22.978   0.315
46442W        W14671  11.143  25.047  10.700
46443W        W14672  38.971  34.071  12.872
46444W        W14673  11.028  27.769  13.107
46445W        W14674  13.328  41.082  12.936
46446W        W14675   3.447   9.092  13.862
46447W        W14676  38.025   4.528  13.143
46448W        W14677  32.588  12.479   3.918
46449W        W14678  38.835  26.286   1.233
46450W        W14679  35.696   3.775  13.249
46451W        W14680  33.432  27.823   3.081
46452W        W14681  44.504  33.110   1.662
46453W        W14682  21.474  17.862   1.866
46454W        W14683  36.298  30.919  11.638
46455W        W14684  27.027   2.381   1.383
46456W        W14685  22.834  41.190   0.319
46457W        W14686  30.353  20.655  14.356
46458W        W14687  15.682  24.241  12.979
46459W        W14688  19.444   1.890  12.633
46460W        W14689  32.114  15.909   9.854
46461W        W14690  24.211  27.708   2.268
46462W        W14691   9.064   9.705  14.753
46463W        W14692  21.639  30.953  12.418
46464W        W14693  15.676  21.148   1.183
46465W        W14694  11.757  12.850   0.200
46466W        W14695  40.257  15.077  13.449
46467W        W14696   8.297  36.469  14.997
46468W        W14697  40.817   2.268  13.811
46469W        W14698   7.122  28.197  10.527
46470W        W14699  44.937  16.567  10.713
46471W        W14700   5.013  39.222  12.008
46472W        W14701   2.675  41.913   0.710
46473W        W14702  13.309  17.501  13.441
46474W        W14703  18.145  27.786  11.098
46475W        W14704  40.005  19.213  10.518
46476W        W14705   0.993  24.498  10.983
46477W        W14706  36.317   3.710  12.921
46478W        W14707  38.236  43.162  13.332
46479W        W14708  35.695  19.713   3.895
46480W        W14709  29.571  24.469  14.707
46481W        W14710  36.104  35.082  14.964
46482W        W14711  13.984   3.808   1.841
46483W        W14712  35.380  41.986  13.428
46484W        W14713  25.703   5.243   0.453
46485W        W14714  41.924  10.179   1.410
46486W        W14715  19.895  18.561  13.078
46487W        W14716  37.937   7.835  11.116
46488W        W14717  13.670  35.419  13.805
46489W        W14718  39.913  25.026   4.271
46490W        W14719  41.855   4.253  14.416
46491W        W14720  19.662  44.856   4.041
46492W        W14721   6.414   3.991   4.800
46493W        W14722  31.413  33.692   2.836
46494W        W14723  24.668  44.369  13.884
46495W        W14724  10.890  12.342   0.503
46496W        W14725  40.493  42.830  11.674
46497W        W14726  40.173  32.166  13.370
46498W        W14727  44.282  36.373   4.588
46499W        W14728  26.128   5.669   2.779
46500W        W14729  28.048  31.585   4.176
46501W        W14730  22.174   9.319   3.013
46502W        W14731   2.999  14.305   3.634
46503W        W14732  14.679  15.400  13.365
46504W        W14733  33.027  42.954  12.003
46505W        W14734   8.424  33.053  13.036
46506W        W14735  10.339   6.905   4.200
46507W        W14736  41.887   8.478   4.585
46508W        W14737  40.908  35.774   4.182
46509W        W14738  21.756  26.251   1.328
46510W        W14739  20.016  18.634   4.781
46511W        W14740  23.068  30.607   3.094
46512W        W14741  17.094  40.260   2.732
46513W        W14742  12.073  24.204   4.550
46514W        W14743   9.648  28.888   1.868
46515W        W14744  16.689   2.318   2.449
46516W        W14745  40.366  38.877  14.544
46517W        W14746  33.832  16.513   0.408
46518W        W14747   8.716  12.296  12.427
46519W        W14748   6.661  42.711   1.349
46520W        W14749  21.219  21.534   0.001
46521W        W14750  12.234  44.532   3.344
46522W        W14751  34.175  42.882  10.731
46523W        W14752  35.461  12.680   4.872
46524W        W14753   1.281   6.284  14.719
46525W        W14754  43.642  32.035  14.349
46526W        W14755  11.696  32.069   3.178
46527W        W14756  44.751  41.845   1.052
46528W        W14757  14.730  14.638  13.907
46529W        W14758  12.172  41.738  13.511
46530W        W14759  30.802  29.961   4.207
46531W        W14760  13.633   7.724   3.463
46532W        W14761  30.402  44.738   4.292
46533W        W14762   4.439  18.794   3.244
46534W        W14763   0.178  17.471  13.633
46535W        W14764  18.324  25.249   4.154
46536W        W14765  19.149  25.316   0.885
46537W        W14766  24.088  17.247  14.565
46538W        W14767  19.540   1.934  14.406
46539W        W14768   4.844  23.161   1.597
46540W        W14769  30.199  26.011   3.122
46541W        W14770  35.806  39.456  11.158
46542W        W14771   9.613   3.488   4.225
46543W        W14772  11.640  26.946  11.402
46544W        W14773  13.373   7.376  14.116
46545W        W14774  20.314  42.973   3.165
46546W        W14775  26.441   1.694   1.883
46547W        W14776  23.808  38.579   1.854
46548W        W14777   9.188  34.420  10.392
46549W        W14778  41.756  10.309   1.924
46550W        W14779  35.470  41.394  12.001
46551W        W14780  37.187  38.858  12.192
46552W        W14781  14.281   9.193   2.394
46553W        W14782   7.797   3.991   2.886
46554W        W14783  13.773  30.339   4.112
46555W        W14784  29.063  22.618   1.442
46556W        W14785  13.680  12.337   3.233
46557W        W14786  23.576  37.137   1.771
46558W        W14787  17.788  10.999   2.097
46559W        W14788  41.971  32.884   3.828
46560W        W14789  11.288  30.713  11.164
46561W        W14790   7.524   2.886  14.943
46562W        W14791  33.439  37.487   4.672
46563W        W14792   7.772  35.915  10.818
46564W        W14793  30.682   5.867  12.525
46565W        W14794  40.306   5.757  14.936
46566W        W14795   8.647   3.152  12.887
46567W        W14796  13.652  15.488  11.517
46568W        W14797   3.096  37.894  12.831
46569W        W14798  41.020  37.612   0.381
46570W        W14799  32.397   5.709  13.095
46571W        W14800  13.340   0.329   1.142
46572W        W14801   9.332  36.389  13.977
46573W        W14802  22.950  14.109  14.141
46574W        W14803  34.939  33.537  14.356
46575W        W14804  43.128   1.045  14.425
46576W        W14805   8.199   4.188   0.821
46577W        W14806  38.472  43.287   3.266
46578W        W14807  16.780  37.818  14.957
46579W        W14808  36.978  36.981   2.866
46580W        W14809  24.429   4.866  14.468
46581W        W14810  11.122  38.796   1.278
46582W        W14811  44.529  12.492   3.295
46583W        W14812  44.183   0.146  12.987
46584W        W14813  29.005  39.911   3.695
46585W        W14814  24.806  19.102  13.356
46586W        W14815  13.551  44.802  10.589
46587W        W14816  16.661  11.766   0.323
46588W        W14817  31.444  26.957  11.681
46589W        W14818   2.142  25.706  11.166
46590W        W14819  43.312  15.821   3.667
46591W        W14820  30.559  37.072  14.868
46592W        W14821  35.356   4.620   3.208
46593W        W14822  23.896  23.245  12.062
46594W        W14823   4.411  20.787   0.471
46595W        W14824   2.542  18.888   0.489
46596W        W14825  35.564  31.506  11.531
46597W        W14826   3.224   8.647   2.124
46598W        W14827  12.214  13.962  11.849
46599W        W14828  43.313  30.107   2.974
46600W        W14829  19.371  29.157   3.103
46601W        W14830   0.984  43.327   0.913
46602W        W14831  38.033  13.794  10.992
46603W        W14832  12.565  28.934  13.297
46604W        W14833  11.615  41.222   0.259
46605W        W14834  18.538  38.867   2.292
46606W        W14835   8.586  26.765  12.261
46607W        W14836  32.462  10.083  13.010
46608W        W14837  20.889  35.326  10.799
46609W        W14838  24.075  17.770  14.527
46610W        W14839  27.847  35.357   5.042
46611W        W14840  11.398   5.999   3.789
46612W        W14841  19.787   2.490  11.138
46613W        W14842  21.944  24.676   0.892
46614W        W14843   7.708  26.909  12.590
46615W        W14844  33.992  32.620   1.465
46616W        W14845  41.799  36.025   1.781
46617W        W14846  10.950  32.371  14.814
46618W        W14847  33.092   3.955   0.957
46619W        W14848  42.054   0.277   2.316
46620W        W14849  19.914  27.544   1.904
46621W        W14850  42.895  31.100  14.833
46622W        W14851   6.146   2.900   0.428
46623W        W14852  41.586  18.062  12.511
46624W        W14853   7.398   0.460  14.270
46625W        W14854   0.246   1.681  12.375
46626W        W14855  15.259  42.434   3.779
46627W        W14856  22.272  23.356   2.193
46628W        W14857  38.239  27.502   2.778
46629W        W14858  20.495   9.447  11.155
46630W        W14859   8.359  29.966  10.362
46631W        W14860  13.275  44.588   2.420
46632W        W14861  16.160   0.983  14.539
46633W        W14862  38.659  28.673   4.109
46634W        W14863  20.015  13.292   3.230
46635W        W14864  44.278  37.925   2.849
46636W        W14865  30.881  36.638   1.408
46637W        W14866  40.536  18.100   0.926
46638W        W14867  44.307  26.988   3.654
46639W        W14868  14.353  21.607  13.784
46640W        W14869  31.461  24.230   4.325
46641W        W14870  22.556  37.067  14.591
46642W        W14871  20.546  15.202  14.872
46643W        W14872  42.493  24.657   3.178
46644W        W14873  39.089   2.117  11.319
46645W        W14874  14.313  31.393  12.718
46646W        W14875  11.322  15.098  13.041
46647W        W14876  26.590  29.997  10.572
46648W        W14877  31.668  35.243   2.935
46649W        W14878  43.465   0.061   0.024
46650W        W14879   8.544  27.352   0.854
46651W        W14880  33.578  32.437   3.613
46652W        W14881  21.946  14.241  11.614
46653W        W14882  13.654  22.446   3.198
46654W        W14883  15.337  39.399   4.360
46655W        W14884  39.642  25.011   3.056
46656W        W14885  29.838  18.171   4.242
46657W        W14886   2.907  42.570   2.423
46658W        W14887   8.272  39.992   4.656
46659W        W14888  42.519   5.855   3.010
46660W        W14889  22.200  25.981   1.335
46661W        W14890  34.615   6.569  11.647
46662W        W14891   9.927   5.995   0.247
46663W        W14892  43.294  39.524   0.501
46664W        W14893  24.953  20.097   0.965
46665W        W14894  29.197  30.518   0.216
46666W        W14895  29.709   5.877   4.096
46667W        W14896   3.015  40.563  11.106
46668W        W14897  43.834  18.113   2.449
46669W        W14898   5.964  43.949  14.409
46670W        W14899  21.775   1.429   0.189
46671W        W14900   2.259   5.767   4.797
46672W        W14901  41.330  38.475   4.389
46673W        W14902  28.969   7.379   1.461
46674W        W14903  19.325  40.825  11.101
46675W        W14904  16.055   5.117   3.198
46676W        W14905  11.685   5.297   0.240
46677W        W14906  14.049  35.474  13.405
46678W        W14907  13.978  16.014  10.225
46679W        W14908  40.397  42.744   2.556
46680W        W14909  13.756  37.793   4.121
46681W        W14910  13.645   4.714  11.687
46682W        W14911  18.584   0.176   3.672
46683W        W14912   8.377  35.938   4.106
46684W        W14913  32.482   4.969   0.245
46685W        W14914  25.983  27.701   0.573
46686W        W14915  26.693  21.286   4.577
46687W        W14916  43.881   0.769   2.377
46688W        W14917   5.551  35.975   4.928
46689W        W14918  27.088  33.804  11.606
46690W        W14919  11.586  10.958   5.161
46691W        W14920   4.224  31.308  13.193
46692W        W14921   0.710  19.711   0.465
46693W        W14922  10.792  35.322  11.007
46694W        W14923  11.171  20.557  14.234
46695W        W14924  42.970   1.028  12.050
46696W        W14925  14.649  41.902  14.477
46697W        W14926  20.207  20.509   0.756
46698W        W14927  16.980  44.134  14.188
46699W        W14928  11.012   4.303  11.219
46700W        W14929   8.248  27.744  13.356
46701W        W14930  40.333  36.117   4.092
46702W        W14931   7.227   6.038  11.634
46703W        W14932  41.998  33.388   3.780
46704W        W14933  13.473  30.836   3.452
46705W        W14934  37.377  21.232  14.257
46706W        W14935  42.433  37.178  13.895
46707W        W14936  16.548  33.584   3.153
46708W        W14937  30.543  37.004   4.690
46709W        W14938   1.211  38.466   4.665
46710W        W14939   3.779  31.170  12.852
46711W        W14940  24.661  26.908   0.698
46712W        W14941  25.509  32.099   3.208
46713W        W14942  31.625  41.277   3.742
46714W        W14943  37.829  20.687  14.816
46715W        W14944  29.448  41.868  10.442
46716W        W14945   1.936  16.028  11.024
46717W        W14946  33.046   8.903   0.932
46718W        W14947  38.044  28.392  11.550
46719W        W14948  38.675  29.780  12.030
46720W        W14949  19.667  37.303   0.692
46721W        W14950   2.395  16.192   0.527
46722W        W14951  32.639  24.707   2.930
46723W        W14952  29.089  13.068  11.528
46724W        W14953  26.517  36.854  12.359
46725W        W14954   0.273  43.494   2.669
46726W        W14955  42.373  31.653   3.609
46727W        W14956  40.756   5.410  13.530
46728W        W14957  43.041  38.862   0.759
46729W        W14958  26.239   2.974  14.818
46730W        W14959  44.694  40.693  12.709
46731W        W14960  19.425  24.095  10.580
46732W        W14961   5.276  21.653  14.337
46733W        W14962  10.901  44.837  12.529
46734W        W14963  33.189   5.451   4.511
46735W        W14964  23.016  41.498   3.178
46736W        W14965  24.946  29.025  11.555
46737W        W14966  21.561  18.494  14.374
46738W        W14967  39.088  37.558  13.007
46739W        W14968  39.515   4.270  10.676
46740W        W14969  33.513  26.913   2.929
46741W        W14970  41.010  15.595  13.568
46742W        W14971  17.652  39.885   0.402
46743W        W14972  11.781   8.839   1.745
46744W        W14973   8.915  40.112  13.441
46745W        W14974  11.857   9.544   2.277
46746W        W14975  38.315  36.423  13.602
46747W        W14976  22.267  37.031  12.245
46748W        W14977  22.135   7.578  11.957
46749W        W14978  37.390   1.839   1.678
46750W        W14979  36.526  37.595  13.618
46751W        W14980  14.020   2.381   4.135
46752W        W14981  24.131  44.776   4.223
46753W        W14982   7.847  44.714   2.453
46754W        W14983  13.408  27.053   1.863
46755W        W14984  34.990  11.829  12.044
46756W        W14985  14.539  38.690  10.766
46757W        W14986  27.859  33.082  14.470
46758W        W14987  42.529  41.064  14.533
46759W        W14988  32.736   5.235  11.017
46760W        W14989   1.804   5.241  12.557
46761W        W14990  28.142   6.202   0.019
46762W        W14991   9.022  23.565   0.272
46763W        W14992  34.554  28.667   3.114
46764W        W14993  33.335   1.490   2.714
46765W        W14994  41.726  35.491  12.120
46766W        W14995  37.246  23.167   2.220
46767W        W14996  37.454  33.879  14.638
46768W        W14997  38.642  19.998  13.910
46769W        W14998   9.186  39.785  10.066
46770W        W14999   9.352  29.015   3.289
46771W        W15000  11.095  13.726   0.383
46772W        W15001  36.247  22.801  11.596
46773W        W15002   0.824   0.755  12.915
46774W        W15003  38.416   5.318  13.096
46775W        W15004   6.082  18.401  12.019
46776W        W15005  14.776  23.657  13.068
46777W        W15006  26.576   9.143   1.284
46778W        W15007  24.206  26.249   4.096
46779W        W15008  34.915   9.090   4.598
46780W        W15009  13.188  13.541   4.212
46781W        W15010   5.226   3.060   4.099
46782W        W15011  23.735   7.306   4.580
46783W        W15012  44.272  17.028  11.025
46784W        W15013  36.583  12.204  14.290
46785W        W15014   9.154   0.928   2.192
46786W        W15015  17.576  26.502   5.654
46787W        W15016  13.333  20.689  10.744
46788W        W15017  34.083  10.469  14.947
46789W        W15018   0.383  17.144   0.253
46790W        W15019  32.690   6.854  12.185
46791W        W15020  18.035  37.928  10.610
46792W        W15021  35.940  15.902  13.399
46793W        W15022  19.660  28.762  14.603
46794W        W15023   3.253  15.641   3.349
46795W        W15024   3.449  37.587   1.894
46796W        W15025  22.285  15.531  11.189
46797W        W15026  37.315  22.370  12.903
46798W        W15027   0.233  33.045   3.900
46799W        W15028  35.825  26.173   2.267
46800W        W15029  32.436  39.125  13.010
46801W        W15030  27.646  41.013   3.634
46802W        W15031  36.997  12.062   0.564
46803W        W15032   8.367   5.290  14.000
46804W        W15033  16.589  29.194   2.649
46805W        W15034  14.288  44.515   3.994
46806W        W15035   4.768   2.651  12.409
46807W        W15036  38.499  21.648  11.370
46808W        W15037  41.905  42.731  14.029
46809W        W15038  26.557  19.747  10.433
46810W        W15039  27.676   1.571   1.825
46811W        W15040  43.004  29.478  13.830
46812W        W15041  24.966   4.411   4.493
46813W        W15042   8.700  14.553  13.464
46814W        W15043  41.542  26.173  14.016
46815W        W15044  36.442  27.965   4.606
46816W        W15045  27.901  34.516   3.723
46817W        W15046   8.644  43.857  13.018
46818W        W15047  36.796  20.022   4.136
46819W        W15048  26.928  43.151   1.654
46820W        W15049  44.862  14.304   2.212
46821W        W15050  26.200  35.353  11.973
46822W        W15051  21.003  43.737  12.089
46823W        W15052  22.946  10.689   1.228
46824W        W15053  36.404  27.208  12.792
46825W        W15054  16.356   9.885   3.697
46826W        W15055  22.685  13.841   2.142
46827W        W15056   7.218  43.547  14.024
46828W        W15057  39.865   8.210   4.097
46829W        W15058  38.133  30.157   1.790
46830W        W15059  43.025  25.323   0.448
46831W        W15060  42.805  32.932  11.640
46832W        W15061  17.734  11.795   0.584
46833W        W15062  28.522  16.868   4.726
46834W        W15063  38.008  40.337   2.102
46835W        W15064  23.646  16.694   4.679
46836W        W15065  19.398  35.442   2.253
46837W        W15066  32.980   6.278   4.161
46838W        W15067  13.823  26.215   4.330
46839W        W15068  13.173  35.636  11.195
46840W        W15069  10.328   3.328   1.379
46841W        W15070  19.631   9.414  14.391
46842W        W15071  27.999  20.782   3.110
46843W        W15072  23.984  34.572  11.242
46844W        W15073  38.246  19.741  10.651
46845W        W15074  33.445  28.135  14.783
46846W        W15075  19.746  12.275  11.941
46847W        W15076   7.960   0.450   4.150
46848W        W15077  42.399  42.396  10.947
46849W        W15078  26.813  22.994  11.076
46850W        W15079  39.328   8.905   1.191
46851W        W15080  39.994  39.188   2.095
46852W        W15081  23.159  15.163   1.365
46853W        W15082  36.830   5.133  11.148
46854W        W15083  43.751  14.117   1.719
46855W        W15084  22.295  20.764  14.817
46856W        W15085  26.622  22.406   1.497
46857W        W15086  41.364  36.786   2.794
46858W        W15087   2.672   0.904   3.333
46859W        W15088  39.520   7.241   4.214
46860W        W15089  22.405  39.067   1.618
46861W        W15090  40.963  36.404  10.818
46862W        W15091  15.892   2.686  11.091
46863W        W15092  12.280  11.366  14.452
46864W        W15093  33.595  37.898  13.591
46865W        W15094  17.545  24.238  13.417
46866W        W15095   3.722   3.198   3.064
46867W        W15096   6.691  36.139  13.425
46868W        W15097  17.636  12.343  11.051
46869W        W15098  12.244  39.557   2.617
46870W        W15099  28.890  42.033  11.695
46871W        W15100  28.756  43.286  13.472
46872W        W15101  43.755   3.709  14.103
46873W        W15102  36.486  38.346  11.922
46874W        W15103  29.181  44.482  10.470
46875W        W15104  44.919  35.825   0.979
46876W        W15105  31.008  24.683   0.309
46877W        W15106  28.271  39.597  11.584
46878W        W15107  12.607  39.759  12.870
46879W        W15108  21.991  16.098   0.371
46880W        W15109   7.193  22.649  10.797
46881W        W15110  19.385   3.113   4.217
46882W        W15111   4.471   1.601  11.635
46883W        W15112  26.495  39.031  12.019
46884W        W15113  22.733   7.275  10.001
46885W        W15114  34.493  27.563  11.499
46886W        W15115   7.173  33.524  14.315
46887W        W15116  42.821  35.907   0.275
46888W        W15117  32.634  32.125   1.426
46889W        W15118  33.592  14.563   4.572
46890W        W15119  20.154  31.417   2.742
46891W        W15120  23.161  27.743  12.098
46892W        W15121  22.991  12.064   0.372
46893W        W15122  14.812  40.367  11.587
46894W        W15123  14.153   4.871  11.665
46895W        W15124  32.602  19.812  10.606
46896W        W15125   3.021  26.186   3.666
46897W        W15126   0.323  25.441   1.507
46898W        W15127  18.846  14.601   4.261
46899W        W15128  24.197  19.468  13.878
46900W        W15129   6.346   1.489   2.221
46901W        W15130  42.524  28.706   2.855
46902W        W15131   3.286   8.027  10.659
46903W        W15132  23.245  38.276  11.668
46904W        W15133   9.355  35.902   0.389
46905W        W15134  41.580  20.755  11.103
46906W        W15135  14.293  41.331   1.190
46907W        W15136  36.488  19.089  10.720
46908W        W15137  44.940  40.830   3.270
46909W        W15138  18.176  34.505  14.766
46910W        W15139  10.659  18.383   1.951
46911W        W15140  14.114  21.729   2.207
46912W        W15141  12.541  11.356   2.439
46913W        W15142  32.610  41.254   2.137
46914W        W15143   4.352  14.041   0.857
46915W        W15144  42.179  12.328  13.488
46916W        W15145  23.023   8.362   4.011
46917W        W15146  32.978  38.539   2.503
46918W        W15147  43.865   5.467   3.886
46919W        W15148  43.684  28.909  12.482
46920W        W15149  43.041   5.438  11.677
46921W        W15150  13.705  38.559  11.375
46922W        W15151  38.112  23.743   3.429
46923W        W15152  40.422  38.973  13.486
46924W        W15153  30.631   1.358   1.701
46925W        W15154   6.982  31.518   0.838
46926W        W15155  21.592   2.147   0.033
46927W        W15156   3.360  26.012  13.123
46928W        W15157  12.826   4.439   3.954
46929W        W15158  24.558   5.907  11.148
46930W        W15159  31.536   6.809  14.970
46931W        W15160  20.747  38.789  14.573
46932W        W15161  37.059  30.780   0.756
46933W        W15162  40.353  42.585  13.604
46934W        W15163   3.569   0.170  11.180
46935W        W15164  11.836  30.227  11.124
46936W        W15165  12.786   6.856  14.572
46937W        W15166   4.266   3.931  14.484
46938W        W15167  24.685   7.859  12.485
46939W        W15168   8.714  20.329   0.338
46940W        W15169  10.819   0.527   4.171
46941W        W15170  44.363   4.238   3.607
46942W        W15171  31.470  21.795  10.442
46943W        W15172   5.218  21.670   1.395
46944W        W15173  15.728  42.413  14.665
46945W        W15174   9.180  14.941   1.774
46946W        W15175  12.884  32.679  14.959
46947W        W15176  29.040  25.275   1.965
46948W        W15177  10.780  15.135  11.529
46949W        W15178  11.052  22.475   4.120
46950W        W15179  18.959   3.405   2.362
46951W        W15180   4.981  35.599   2.300
46952W        W15181  44.955  38.286  13.758
46953W        W15182  40.123  10.780  12.477
46954W        W15183   4.759  18.349   2.762
46955W        W15184  27.090  39.850  10.935
46956W        W15185  44.304  21.716   3.614
46957W        W15186  12.015  35.326   3.239
46958W        W15187   6.197  17.819   4.847
46959W        W15188  39.836  44.302   3.703
46960W        W15189   1.190  15.785   1.409
46961W        W15190  34.406  15.732   3.609
46962W        W15191   1.516  12.066   3.428
46963W        W15192   8.914  31.119  12.915
46964W        W15193  20.255  43.907  11.564
46965W        W15194  30.436  27.919  11.518
46966W        W15195  30.071   2.473  14.217
46967W        W15196  31.137  42.811  13.022
46968W        W15197  31.002  41.165  10.440
46969W        W15198  29.132  13.639   1.381
46970W        W15199  41.418  15.532   1.205
46971W        W15200  29.870   7.909   3.197
46972W        W15201  26.516   6.468  14.948
46973W        W15202  39.492   2.477  13.180
46974W        W15203   4.727   9.648  14.315
46975W        W15204  27.659  44.768   3.997
46976W        W15205  12.114  15.588   0.197
46977W        W15206  40.036  14.848   2.918
46978W        W15207  13.087   8.305  14.203
46979W        W15208   7.819  21.323  12.204
46980W        W15209  24.281  18.281  14.645
46981W        W15210  24.107  23.812   0.284
46982W        W15211  42.736  38.226   2.223
46983W        W15212  36.907   1.527   2.361
46984W        W15213  38.173  43.388  12.866
46985W        W15214   5.790  26.939   3.045
46986W        W15215  15.929   8.851  14.752
46987W        W15216  11.327  35.053   1.980
46988W        W15217  31.379  34.953   0.904
46989W        W15218  31.976   6.771  10.453
46990W        W15219   7.234  20.972   4.007
46991W        W15220  25.720  37.043  12.133
46992W        W15221   5.853   7.881   0.475
46993W        W15222  33.370  11.501  12.596
46994W        W15223  37.348   6.678  12.147
46995W        W15224  25.207  35.457  11.937
46996W        W15225  14.195  24.020   4.653
46997W        W15226   2.243  39.224   1.794
46998W        W15227  35.610  10.659   1.905
46999W        W15228  37.657  15.656   0.758
47000W        W15229   7.132   9.690  12.938
47001W        W15230   7.411   3.360  11.191
47002W        W15231  45.000   7.387   1.639
47003W        W15232  21.163  15.609  13.475
47004W        W15233  19.566   6.906   2.623
47005W        W15234  12.750   5.215   1.868
47006W        W15235  40.229  42.760   0.918
47007W        W15236   5.494   1.072   2.320
47008W        W15237   3.295   7.637   4.468
47009W        W15238   1.281   1.756   0.418
47010W        W15239  24.661  13.818   2.954
47011W        W15240  14.634   9.231   2.802
47012W        W15241   8.327  32.676  14.774
47013W        W15242   6.514   6.684  14.412
47014W        W15243  22.162  22.464   0.775
47015W        W15244  24.288  10.211   0.259
47016W        W15245  22.532   1.959   0.086
47017W        W15246   2.169   7.896  12.095
47018W        W15247  14.870   9.282   4.675
47019W        W15248  13.916  24.056   3.855
47020W        W15249  27.919  28.479  13.152
47021W        W15250  40.451  17.665  14.024
47022W        W15251  10.731   8.255  12.117
47023W        W15252  10.183  32.303  13.514
47024W        W15253  21.004  39.004   4.616
47025W        W15254  24.534   1.106   2.331
47026W        W15255  42.587  33.380  10.945
47027W        W15256   4.226  15.226  14.820
47028W        W15257  41.118  27.000   0.558
47029W        W15258   8.644   2.457   1.888
47030W        W15259  20.956  19.437  11.710
47031W        W15260  14.151   2.750  12.376
47032W        W15261  42.484  16.350   4.244
47033W        W15262  27.534  14.202  11.662
47034W        W15263  44.914  36.776   1.423
47035W        W15264  28.087  19.601  14.491
47036W        W15265  44.697  18.710   2.665
47037W        W15266  14.391  23.960  14.935
47038W        W15267  24.238  39.511   3.071
47039W        W15268  30.145  29.163  14.526
47040W        W15269  14.606  41.731   1.229
47041W        W15270   6.566  41.751   2.597
47042W        W15271  28.733  42.970  13.993
47043W        W15272  34.707   9.493  12.032
47044W        W15273   5.998  13.337   2.286
47045W        W15274  24.293   6.947   9.891
47046W        W15275  30.466  24.648  10.648
47047W        W15276  39.656  20.836  13.948
47048W        W15277  20.678   7.194   2.865
47049W        W15278  27.148  28.844   1.399
47050W        W15279  29.244  10.823  13.060
47051W        W15280  27.891  36.181   2.854
47052W        W15281  19.609  25.366   2.447
47053W        W15282  30.105  10.629  11.210
47054W        W15283  43.372  11.013   3.211
47055W        W15284   0.443   3.726   3.908
47056W        W15285  29.579  39.875  13.582
47057W        W15286  16.362  16.150   9.710
47058W        W15287  11.143   9.376   2.261
47059W        W15288  32.039  32.621   3.972
47060W        W15289  14.075  22.217   1.332
47061W        W15290  10.873  11.366  12.066
47062W        W15291  41.645  38.102   2.943
47063W        W15292  25.641   4.313   4.705
47064W        W15293  14.036  11.855   1.629
47065W        W15294  37.536   9.424  11.318
47066W        W15295  15.104   7.652   2.250
47067W        W15296  38.998  39.825   2.654
47068W        W15297  24.956  43.723   0.432
47069W        W15298  30.475  20.306   0.011
47070W        W15299  33.861  19.671  14.019
47071W        W15300  14.718   8.891  14.359
47072W        W15301   2.351   2.817  13.941
47073W        W15302   9.357   1.731  11.261
47074W        W15303  19.293  29.120  11.566
47075W        W15304  10.360   9.944  13.841
47076W        W15305  29.631   9.506  14.487
47077W        W15306  30.844  27.212   2.239
47078W        W15307   3.552  18.338   0.237
47079W        W15308  12.093   9.712  14.327
47080W        W15309  32.144  11.733   4.922
47081W        W15310   1.986  43.729   1.181
47082W        W15311   6.275  43.812  12.680
47083W        W15312  34.242  36.551   2.322
47084W        W15313  36.035  20.550  10.813
47085W        W15314  14.002   9.235  13.973
47086W        W15315  37.476   0.195  11.574
47087W        W15316  39.145  38.903   2.363
47088W        W15317   3.866   4.822  10.712
47089W        W15318  15.167  42.441  12.103
47090W        W15319  34.195  12.801  13.945
47091W        W15320   1.174  28.671   0.300
47092W        W15321   0.321  39.330  13.076
47093W        W15322  31.256  13.818  13.130
47094W        W15323  27.943  13.870  13.575
47095W        W15324  25.613  42.589  11.172
47096W        W15325  39.990   7.267  13.564
47097W        W15326  37.493  33.504   0.964
47098W        W15327   7.995  10.299  14.477
47099W        W15328  39.955   4.972   2.789
47100W        W15329   6.707  20.212   4.626
47101W        W15330  15.129  34.051   4.396
47102W        W15331  44.712  29.047  14.909
47103W        W15332  43.266  29.048  14.522
47104W        W15333  32.421  35.463   0.593
47105W        W15334   0.943  44.248   4.103
47106W        W15335   7.083  34.289  13.876
47107W        W15336   0.464   9.121   4.202
47108W        W15337   7.320  30.022  10.903
47109W        W15338  38.876  44.254  14.965
47110W        W15339  35.063  41.381  13.234
47111W        W15340  39.601  13.656  13.349
47112W        W15341  36.447  13.690  11.918
47113W        W15342   2.384   0.758   3.764
47114W        W15343  11.001  44.688  14.408
47115W        W15344   5.219  27.002  10.886
47116W        W15345   4.212  35.475  10.244
47117W        W15346  35.895  28.038   3.912
47118W        W15347  33.412   7.422  12.366
47119W        W15348  16.857   7.136   2.969
47120W        W15349   1.332  15.785  13.114
47121W        W15350  36.306   7.336  13.654
47122W        W15351  23.745  35.591  14.030
47123W        W15352  13.950   9.983   0.355
47124W        W15353  19.596   4.393   0.306
47125W        W15354  27.869   5.449  13.341
47126W        W15355  16.655  25.960  11.585
47127W        W15356   4.479  36.952   2.779
47128W        W15357  32.565  29.339  13.562
47129W        W15358  35.979   1.142   1.997
47130W        W15359   3.864  28.801   3.086
47131W        W15360  43.002  12.845  13.423
47132W        W15361  23.580   6.837   0.029
47133W        W15362   6.942  28.511   0.441
47134W        W15363  22.449  41.403   1.778
47135W        W15364  33.079  41.455   2.273
47136W        W15365  39.754  42.933   0.798
47137W        W15366  40.523   5.260   4.088
47138W        W15367  16.435  14.013   1.171
47139W        W15368  35.809  44.060   0.897
47140W        W15369  30.910  34.476  13.856
47141W        W15370  29.548  34.052   0.795
47142W        W15371  22.594   8.008   0.884
47143W        W15372  40.006  29.674   4.093
47144W        W15373  12.130   0.826  11.526
47145W        W15374   5.866  39.769  12.906
47146W        W15375  35.567  19.982  14.488
47147W        W15376  39.991   0.281  12.204
47148W        W15377  40.944  35.994  13.308
47149W        W15378  38.673  31.951  13.467
47150W        W15379   5.765  32.854   1.785
47151W        W15380   6.347  34.155   2.841
47152W        W15381  36.742  18.570  11.550
47153W        W15382   9.123  33.936   2.312
47154W        W15383  28.348  44.071  10.714
47155W        W15384  12.411   3.613  13.934
47156W        W15385   5.127  11.931   1.876
47157W        W15386   6.667  23.070  11.533
47158W        W15387  11.280  24.915   2.130
47159W        W15388  28.564  34.314   1.454
47160W        W15389   5.305  39.554   2.299
47161W        W15390   2.986   0.600  14.421
47162W        W15391  30.165  30.149  11.480
47163W        W15392  24.578  32.712   2.246
47164W        W15393  23.961  11.088  13.880
47165W        W15394   9.261  26.425  10.703
47166W        W15395  23.187  15.854   0.246
47167W        W15396  26.461  17.143  14.888
47168W        W15397   8.631  30.402   2.011
47169W        W15398  36.418  25.101   3.120
47170W        W15399  43.048  42.809  12.025
47171W        W15400  32.094  31.682   3.334
47172W        W15401  16.988   2.514  14.090
47173W        W15402  44.004  13.658   1.715
47174W        W15403  18.916   1.430  13.969
47175W        W15404   7.741   4.956   0.472
47176W        W15405   0.391  33.716  11.599
47177W        W15406   6.838  31.475  11.645
47178W        W15407  32.966  11.629  10.768
47179W        W15408  32.269  17.860  13.386
47180W        W15409  26.520  42.496   3.281
47181W        W15410   1.892   9.562  14.958
47182W        W15411  40.944  21.482   4.133
47183W        W15412  37.995  36.804  13.430
47184W        W15413  17.943   2.737  11.073
47185W        W15414  15.534  42.922   1.735
47186W        W15415  19.234   4.265   4.709
47187W        W15416  13.668  41.323   2.782
47188W        W15417  15.719  17.357   2.741
47189W        W15418  18.597   9.772  14.094
47190W        W15419  23.468  30.094   2.970
47191W        W15420  13.807   6.909   1.009
47192W        W15421  29.050   0.685  14.879
47193W        W15422  16.786  16.068   4.758
47194W        W15423  30.514  26.529  13.167
47195W        W15424  44.989  18.670   3.118
47196W        W15425  23.939  38.466   3.627
47197W        W15426  30.825  35.984   0.962
47198W        W15427  32.452   2.991  12.369
47199W        W15428  35.134  44.305   0.694
47200W        W15429   7.615  17.662  13.392
47201W        W15430  26.106  13.369  14.403
47202W        W15431   1.341   4.799  14.392
47203W        W15432  32.363  40.499  10.143
47204W        W15433  18.411  23.264   2.239
47205W        W15434  26.789  18.250  11.963
47206W        W15435  34.758  25.564  14.379
47207W        W15436  28.540  17.732   3.844
47208W        W15437  37.479  20.693  10.462
47209W        W15438   3.699   0.911   4.581
47210W        W15439  10.861   7.911  10.512
47211W        W15440  27.288  28.965   0.076
47212W        W15441  11.754  11.757  12.471
47213W        W15442  32.419  40.564  14.458
47214W        W15443  37.578  31.971   1.859
47215W        W15444  42.602  20.753   3.412
47216W        W15445  29.570  25.226  13.465
47217W        W15446  10.364  24.154   2.919
47218W        W15447  20.937   4.659   2.421
47219W        W15448  27.461   7.809  10.946
47220W        W15449   6.858   4.870   2.383
47221W        W15450  20.658  19.375   0.030
47222W        W15451  38.728  33.607   0.292
47223W        W15452  21.290  34.503  13.998
47224W        W15453  13.824  40.101   1.206
47225W        W15454  19.697  27.024  12.059
47226W        W15455   7.777  11.366  12.616
47227W        W15456   6.465  28.850  13.426
47228W        W15457  42.329  18.324   4.564
47229W        W15458  20.320  38.825  13.437
47230W        W15459  44.707  12.758   3.699
47231W        W15460  25.167  32.648   5.412
47232W        W15461  30.942  44.628   1.719
47233W        W15462  14.356  35.683   1.370
47234W        W15463  44.335  40.761  13.996
47235W        W15464  32.039  31.376   3.721
47236W        W15465  30.637  20.577  10.930
47237W        W15466  42.938  41.882  11.855
47238W        W15467  11.872  19.522  13.305
47239W        W15468  38.270  29.475  11.907
47240W        W15469  28.514  25.194   0.267
47241W        W15470  40.066   4.831  13.478
47242W        W15471   2.651   1.964  12.026
47243W        W15472  43.898  42.956  11.517
47244W        W15473  19.569  21.238   4.379
47245W        W15474  33.707  22.540   0.770
47246W        W15475  12.786   6.110   0.388
47247W        W15476   3.024  37.613   3.982
47248W        W15477  31.447  23.281  11.095
47249W        W15478   4.325  36.590  10.642
47250W        W15479  40.500  27.332  11.060
47251W        W15480  28.133   9.331  14.517
47252W        W15481  11.248  40.720   3.185
47253W        W15482  19.607   8.262  12.906
47254W        W15483  24.045  37.315   1.927
47255W        W15484  21.593  35.079   3.177
47256W        W15485  22.586  40.247   4.081
47257W        W15486  21.282  41.513   4.697
47258W        W15487  23.084  27.369   4.529
47259W        W15488   0.293  23.110   0.010
47260W        W15489   0.217   4.716  11.017
47261W        W15490  22.716  36.223   1.158
47262W        W15491   7.856  26.553   3.761
47263W        W15492  29.954  34.633  11.952
47264W        W15493  27.204  18.471   1.089
47265W        W15494  37.546  11.783  12.477
47266W        W15495  12.735   0.448   2.360
47267W        W15496   0.270  27.584  14.903
47268W        W15497  25.979   8.754   3.743
47269W        W15498   7.213  32.927  11.511
47270W        W15499   3.046  18.564   0.916
47271W        W15500  43.829  20.563   2.761
47272W        W15501  41.390   6.337   2.277
47273W        W15502  13.286  30.145   2.192
47274W        W15503  36.375   6.338  12.140
47275W        W15504  27.025  20.737  11.102
47276W        W15505  28.604  20.857  14.285
47277W        W15506  10.131  21.299  13.025
47278W        W15507  21.033  16.704  11.498
47279W        W15508  40.763  35.303  11.391
47280W        W15509   3.856  30.504  11.157
47281W        W15510  35.632   4.051  11.499
47282W        W15511  41.027  38.333  12.571
47283W        W15512  30.007  29.662  11.551
47284W        W15513  36.459  30.492  14.416
47285W        W15514  32.175  26.239  13.346
47286W        W15515  30.436  26.853   1.971
47287W        W15516   7.667   5.374   4.231
47288W        W15517   1.738  16.610   4.297
47289W        W15518  15.818   3.569   4.074
47290W        W15519  30.415   9.473   1.392
47291W        W15520  17.588  13.136   4.561
47292W        W15521   9.720  17.752  14.402
47293W        W15522  16.147  28.703   3.451
47294W        W15523  16.772  11.285   0.476
47295W        W15524   4.378  19.624   1.844
47296W        W15525   5.281   6.491   2.205
47297W        W15526  21.692  26.573   2.256
47298W        W15527  12.291  16.143   0.266
47299W        W15528  16.690  11.360  12.395
47300W        W15529  20.509   8.615  11.676
47301W        W15530  12.718  11.006  11.489
47302W        W15531  22.189  28.327   1.876
47303W        W15532  11.370   6.390  12.480
47304W        W15533  17.507  43.383   0.316
47305W        W15534  40.586  31.695   3.675
47306W        W15535  11.399  32.959  10.750
47307W        W15536  28.860   2.825  11.517
47308W        W15537  12.689   3.630   2.749
47309W        W15538  39.061  38.041   3.674
47310W        W15539  34.617  22.973  13.692
47311W        W15540   8.268  33.321  11.393
47312W        W15541  12.410  26.748   3.586
47313W        W15542  26.285  41.415   2.844
47314W        W15543   0.445  31.140  11.575
47315W        W15544  37.644  40.654   1.471
47316W        W15545  20.549  32.133  11.626
47317W        W15546  21.664   2.222   1.411
47318W        W15547   2.744   0.056   4.227
47319W        W15548   1.785  37.469   0.453
47320W        W15549   2.743  24.420   1.774
47321W        W15550  25.155  29.505  10.535
47322W        W15551  40.510  26.698   1.712
47323W        W15552  44.918   8.368   3.623
47324W        W15553  26.319  21.504   1.971
47325W        W15554   9.001  12.767  13.263
47326W        W15555   3.663  31.448  11.545
47327W        W15556  23.362   0.302   1.499
47328W        W15557  38.254  17.663   1.790
47329W        W15558   6.979  20.252   0.191
47330W        W15559   9.820   6.668  13.416
47331W        W15560   9.991   2.138  10.984
47332W        W15561  39.180  30.606  13.559
47333W        W15562   5.734   5.620   0.649
47334W        W15563  37.843  31.447   1.630
47335W        W15564  39.878  15.334  11.139
47336W        W15565  11.231  24.126  12.939
47337W        W15566  27.823   2.367  12.071
47338W        W15567  37.564  24.990  14.162
47339W        W15568  25.137  17.827   1.248
47340W        W15569  10.658   0.538   3.675
47341W        W15570  23.983  15.833   3.184
47342W        W15571  38.090   0.519   4.821
47343W        W15572  24.689  35.364  11.969
47344W        W15573   3.939  21.025  10.927
47345W        W15574  35.545  16.850  14.897
47346W        W15575  38.061  33.304   1.620
47347W        W15576  12.847  15.563  14.475
47348W        W15577  22.207  19.561   1.053
47349W        W15578  42.870  25.547   2.267
47350W        W15579  25.162  32.137  14.490
47351W        W15580  28.948  36.003   0.936
47352W        W15581   7.140   8.802  11.843
47353W        W15582  44.688  14.631   4.499
47354W        W15583  35.306  26.848   9.719
47355W        W15584  16.041   9.383  12.460
47356W        W15585  40.296  22.755   1.238
47357W        W15586  35.168   9.764   1.651
47358W        W15587  22.904   9.895  10.315
47359W        W15588  22.633  28.568  11.341
47360W        W15589  32.054  44.183  14.750
47361W        W15590  44.843  30.597   1.335
47362W        W15591  33.421  33.410  14.354
47363W        W15592  21.127  17.719  13.583
47364W        W15593  11.225  28.610  10.846
47365W        W15594  10.206   7.087   3.719
47366W        W15595  26.434   7.704  14.282
47367W        W15596  43.321  44.128   2.890
47368W        W15597   3.775  28.743  10.363
47369W        W15598   1.606   3.759   1.619
47370W        W15599  10.792  26.946  10.796
47371W        W15600  39.475  25.843  11.149
47372W        W15601  24.958  36.059  13.599
47373W        W15602  22.099  10.418   0.071
47374W        W15603   7.099  28.684   3.878
47375W        W15604  43.595  41.241  13.440
47376W        W15605   7.187  38.010  14.295
47377W        W15606   2.452  29.706  13.598
47378W        W15607  24.897  24.606   3.650
47379W        W15608  31.534  10.672  10.960
47380W        W15609  25.175  21.096   4.142
47381W        W15610  16.482  17.292  12.485
47382W        W15611   4.751   3.105   2.301
47383W        W15612  21.235   8.653  14.279
47384W        W15613  35.299  21.511  11.543
47385W        W15614  31.864  43.307  11.478
47386W        W15615  30.118  23.252  12.186
47387W        W15616  42.111  30.990  12.855
47388W        W15617  19.864   3.221   3.476
47389W        W15618  29.252  37.835   0.812
47390W        W15619  23.186  24.655  10.647
47391W        W15620   6.225  23.549   1.006
47392W        W15621   0.785  11.652   0.728
47393W        W15622  10.447   3.028  11.405
47394W        W15623  18.277  33.336  13.181
47395W        W15624  17.320  12.936   4.166
47396W        W15625  25.106  44.093   3.833
47397W        W15626   3.838  34.364  12.983
47398W        W15627  33.611  38.950   3.631
47399W        W15628  37.462  35.868   1.219
47400W        W15629  32.451   0.853  14.291
47401W        W15630  14.651   0.861   2.488
47402W        W15631  42.805  30.228   0.543
47403W        W15632  38.865  38.822  14.855
47404W        W15633  19.839   0.370  13.229
47405W        W15634  40.576  33.931   3.178
47406W        W15635  43.376  28.886   0.537
47407W        W15636  41.486  25.167   2.973
47408W        W15637  12.768  29.851  14.526
47409W        W15638  39.555  28.559  13.464
47410W        W15639   1.468  19.603   3.094
47411W        W15640  32.568  31.580  11.035
47412W        W15641  23.696  14.917  14.969
47413W        W15642  23.822  15.509  14.846
47414W        W15643  19.983  22.414  12.048
47415W        W15644  14.395  21.223   2.285
47416W        W15645   1.546  13.721   1.263
47417W        W15646  37.995  13.622  12.023
47418W        W15647   9.577   5.700  11.577
47419W        W15648  43.432  44.863   3.202
47420W        W15649  36.829  12.534  11.863
47421W        W15650   0.896  37.784   0.332
47422W        W15651   8.441  10.655  11.920
47423W        W15652  39.997  12.230  10.658
47424W        W15653   6.852  21.320   0.411
47425W        W15654  36.099  42.677   2.616
47426W        W15655  22.592  29.083   0.275
47427W        W15656  44.041   5.869   4.163
47428W        W15657  23.398  15.595   1.233
47429W        W15658  25.185  30.537   0.337
47430W        W15659  29.223   9.651   2.760
47431W        W15660  25.939  24.581  11.321
47432W        W15661   2.086  10.686  11.441
47433W        W15662  17.993  18.350   0.777
47434W        W15663  39.073  26.693   4.580
47435W        W15664  37.046  17.625   1.341
47436W        W15665   5.769  14.266   1.427
47437W        W15666  32.191  26.642   0.507
47438W        W15667  11.411  43.860  11.646
47439W        W15668  38.097   2.080  14.248
47440W        W15669  18.024  27.208  11.985
47441W        W15670  35.335   5.540   3.876
47442W        W15671  23.893  42.802  11.699
47443W        W15672  22.831  23.248   3.226
47444W        W15673  14.076  14.199   1.437
47445W        W15674  27.548  17.698   1.772
47446W        W15675  33.863  22.829  11.108
47447W        W15676  22.723  18.376  13.586
47448W        W15677  17.753  38.201   2.175
47449W        W15678  29.493  38.161   3.839
47450W        W15679  25.770   7.399   4.410
47451W        W15680  21.148  29.374  13.938
47452W        W15681  19.991  17.973   3.212
47453W        W15682  31.641  44.866   2.196
47454W        W15683  31.938  35.546   3.599
47455W        W15684  44.384  30.977   1.009
47456W        W15685  26.718  27.499   4.321
47457W        W15686  10.380   6.408  10.764
47458W        W15687  23.991   3.499  13.834
47459W        W15688  10.321  23.037   2.207
47460W        W15689   5.102  43.168  12.620
47461W        W15690  28.893  43.298  11.733
47462W        W15691  38.797  44.416  10.867
47463W        W15692  35.240   6.277   1.485
47464W        W15693   4.912  35.296  14.318
47465W        W15694  26.945  26.350  12.102
47466W        W15695  43.814  21.683  14.983
47467W        W15696  21.320  35.431   1.350
47468W        W15697  10.854   0.351   3.228
47469W        W15698   6.646  40.912   4.555
47470W        W15699  44.222  39.383   2.213
47471W        W15700   6.697  32.875   2.820
47472W        W15701  32.864  34.521  11.626
47473W        W15702  34.910   7.883   2.420
47474W        W15703  39.555  40.339  11.162
47475W        W15704  37.955  15.683   3.972
47476W        W15705  16.830  12.074   1.746
47477W        W15706  39.876  24.603  14.282
47478W        W15707  18.067  35.904   1.353
47479W        W15708  37.975  26.423   1.657
47480W        W15709  22.080  27.106   4.661
47481W        W15710  20.375   3.349   2.285
47482W        W15711  12.668  41.951  13.400
47483W        W15712  34.318  36.127  11.142
47484W        W15713  32.878  43.917   1.866
47485W        W15714  43.364   2.063   4.596
47486W        W15715  24.535  28.875   4.204
47487W        W15716  29.236  23.250  10.493
47488W        W15717  15.753  43.733  12.124
47489W        W15718  11.053  37.774  10.574
47490W        W15719   9.704  28.894   0.943
47491W        W15720  25.041  35.579  13.841
47492W        W15721  24.736  26.526  13.886
47493W        W15722  18.999  15.304  14.029
47494W        W15723   6.170  24.610   4.010
47495W        W15724  14.603  36.884  13.786
47496W        W15725   6.056  20.000   0.257
47497W        W15726  41.785  12.293  14.577
47498W        W15727  25.814  19.872   0.774
47499W        W15728  29.894   8.339   2.623
47500W        W15729  10.783  17.569   0.641
47501W        W15730  37.577   2.877   1.847
47502W        W15731   1.735  29.526  12.387
47503W        W15732  11.843  19.561   4.619
47504W        W15733  37.152  19.215   2.093
47505W        W15734   0.261  10.414   4.570
47506W        W15735   3.996  28.911  14.402
47507W        W15736  34.074  30.041  13.999
47508W        W15737  16.583  28.176  10.230
47509W        W15738  31.980   4.788   3.071
47510W        W15739  41.015  30.862  11.802
47511W        W15740  32.335   1.333   2.136
47512W        W15741  26.929  18.740  11.830
47513W        W15742  41.575   5.828   1.269
47514W        W15743  35.342  22.262   3.747
47515W        W15744  16.299   9.308   3.328
47516W        W15745  11.877  26.104  10.668
47517W        W15746  11.233  28.294   0.881
47518W        W15747  27.210  21.622  11.185
47519W        W15748  43.996   0.730  14.795
47520W        W15749  30.552  11.409  10.707
47521W        W15750   4.828  27.686   2.447
47522W        W15751  13.596  43.737   0.429
47523W        W15752  11.611  15.113  12.384
47524W        W15753  27.550  12.924   2.173
47525W        W15754  38.174  25.638   0.123
47526W        W15755  13.052  41.121  14.406
47527W        W15756   6.971  11.425  12.003
47528W        W15757   8.245   3.009   2.317
47529W        W15758   8.696  38.732  11.526
47530W        W15759   6.086  39.524  13.297
47531W        W15760  13.663  35.027  10.657
47532W        W15761  20.251  20.256  10.496
47533W        W15762  33.121  34.093   2.310
47534W        W15763  29.415  24.985  11.674
47535W        W15764  26.113  17.632  13.595
47536W        W15765  24.484  30.499   1.661
47537W        W15766   2.523  18.278   0.481
47538W        W15767  39.042  31.498  13.554
47539W        W15768  42.834   3.236   4.801
47540W        W15769   6.183   5.888   0.667
47541W        W15770  31.103  32.181  13.423
47542W        W15771  12.111   7.733   1.394
47543W        W15772  32.176  28.637  12.411
47544W        W15773  12.620  24.640  11.558
47545W        W15774  29.126  32.091  12.532
47546W        W15775  16.841   6.779   3.711
47547W        W15776  11.679  10.415   4.493
47548W        W15777   6.913  34.860  13.078
47549W        W15778  16.796  29.055  13.266
47550W        W15779  39.350  39.501   4.285
47551W        W15780  33.020  30.217   3.190
47552W        W15781  33.877   9.313  12.451
47553W        W15782   1.709  37.011   0.817
47554W        W15783  13.998  26.710   4.215
47555W        W15784  42.076  42.279   1.717
47556W        W15785   4.869   3.338  11.457
47557W        W15786  11.663  20.252  11.097
47558W        W15787  41.532  29.895   2.027
47559W        W15788  27.673  12.641   0.850
47560W        W15789  44.469  31.633  11.492
47561W        W15790  11.115  40.842  13.472
47562W        W15791   0.520  11.192   3.419
47563W        W15792  30.384  18.997  11.105
47564W        W15793  17.053  25.048   0.766
47565W        W15794  29.299  34.182   1.973
47566W        W15795  42.321  28.218   0.994
47567W        W15796   0.849  20.649   2.431
47568W        W15797  40.342  40.898  11.576
47569W        W15798  33.667  31.066   4.611
47570W        W15799  30.147  43.428   0.192
47571W        W15800  21.328   6.930  11.975
47572W        W15801  15.670  39.697   3.198
47573W        W15802  44.763  44.808  12.701
47574W        W15803  21.477  39.378   3.827
47575W        W15804  30.373  41.960  11.667
47576W        W15805  20.654  22.976  13.630
47577W        W15806  16.755  19.532   5.592
47578W        W15807  28.453  42.308  13.521
47579W        W15808  31.578  28.405   2.643
47580W        W15809  14.172  32.372   3.881
47581W        W15810   9.776   8.655  14.939
47582W        W15811  24.636   2.430  11.902
47583W        W15812  44.493   6.211   0.289
47584W        W15813  36.848   8.234  13.253
47585W        W15814  36.755  27.928  13.107
47586W        W15815  20.173  19.023   0.158
47587W        W15816  36.645  36.614  11.792
47588W        W15817  44.215   1.282  13.630
47589W        W15818  29.019  21.963  12.422
47590W        W15819   8.374   8.462  12.026
47591W        W15820   1.925   1.875  11.478
47592W        W15821   2.378   7.897  10.672
47593W        W15822   4.593  16.307   3.547
47594W        W15823  21.676  13.896  13.339
47595W        W15824   0.215  27.425   4.092
47596W        W15825  24.659   5.223   1.229
47597W        W15826   3.443  14.181   2.436
47598W        W15827   0.525  24.479  10.747
47599W        W15828  18.792  38.649  14.464
47600W        W15829  40.518  25.795  14.557
47601W        W15830  12.642  18.116  10.525
47602W        W15831  39.008  39.745  11.557
47603W        W15832  34.030  26.661  10.904
47604W        W15833  32.990  31.576   0.763
47605W        W15834   7.616  30.877   1.282
47606W        W15835   5.816  39.286  10.931
47607W        W15836  22.796   1.046  11.536
47608W        W15837  41.669  22.703  11.202
47609W        W15838   5.691  37.468  11.351
47610W        W15839  30.038   6.868   1.276
47611W        W15840  38.725  16.249   4.204
47612W        W15841  17.678   8.045  14.529
47613W        W15842  41.984  18.933   3.699
47614W        W15843   7.337  20.070  13.111
47615W        W15844  11.184  26.144   4.603
47616W        W15845   0.366   4.165  13.335
47617W        W15846  12.312  35.356   2.837
47618W        W15847  37.541  42.582  12.093
47619W        W15848  25.753  28.459  12.535
47620W        W15849  43.269  40.524   0.276
47621W        W15850  34.994   4.225  13.269
47622W        W15851  34.345  39.994   4.210
47623W        W15852  38.076   1.223   4.082
47624W        W15853  11.715   6.246  12.857
47625W        W15854  15.166  10.211  14.254
47626W        W15855  11.376   8.101   0.170
47627W        W15856  25.602   7.354  11.240
47628W        W15857  27.468  40.762  12.356
47629W        W15858  11.522  12.848   2.464
47630W        W15859   3.945  43.927   3.246
47631W        W15860  18.078  13.120   1.346
47632W        W15861   3.431   8.230  13.904
47633W        W15862  41.379  19.556   0.944
47634W        W15863   5.874  40.682   2.987
47635W        W15864  21.445  38.359  12.546
47636W        W15865  28.178   8.858  10.469
47637W        W15866  43.843   3.232   2.186
47638W        W15867  40.800  27.604   1.795
47639W        W15868  32.520  38.547   1.621
47640W        W15869  17.183  40.446   4.655
47641W        W15870  38.082  24.665  11.068
47642W        W15871  43.418  25.280   1.647
47643W        W15872  19.315  26.452  14.051
47644W        W15873  13.537   4.672   4.329
47645W        W15874  32.193   9.330   1.566
47646W        W15875  35.349  13.805   4.618
47647W        W15876  13.319  32.424  10.940
47648W        W15877   8.171  30.823  12.545
47649W        W15878  40.446  28.410  13.549
47650W        W15879  13.559  36.271  13.229
47651W        W15880  17.658   8.150   0.457
47652W        W15881  21.452  42.173  13.829
47653W        W15882  17.809  39.975   0.911
47654W        W15883  41.768  24.126   2.266
47655W        W15884  40.959  32.342  12.968
47656W        W15885   8.638   1.949  12.464
47657W        W15886  30.090  15.698  13.334
47658W        W15887  10.999  11.675   1.226
47659W        W15888  22.690  26.665  13.825
47660W        W15889  13.734   3.771   3.258
47661W        W15890  43.932  22.522  12.482
47662W        W15891  15.179  43.490  11.204
47663W        W15892  12.844  24.038   2.816
47664W        W15893  26.112  43.448  13.882
47665W        W15894  39.496  18.566   0.284
47666W        W15895   6.865  36.831  13.917
47667W        W15896  39.379  32.898   1.402
47668W        W15897  27.536  36.446   0.690
47669W        W15898  35.142  12.276  11.764
47670W        W15899  23.018  15.345   3.740
47671W        W15900  36.173  27.047   0.861
47672W        W15901  44.650   2.286   3.616
47673W        W15902  37.782   5.863  10.556
47674W        W15903  31.656   7.921   0.285
47675W        W15904   0.295  43.583  14.856
47676W        W15905  44.385  33.170  10.675
47677W        W15906  13.571  12.677  13.025
47678W        W15907  40.968  28.237  12.559
47679W        W15908  26.907  41.290  11.194
47680W        W15909   7.433  11.848  12.485
47681W        W15910  43.743  23.060   0.410
47682W        W15911   0.837   2.328   0.898
47683W        W15912   0.693  42.886   1.845
47684W        W15913  38.183  40.469   0.734
47685W        W15914   0.699  40.283   2.101
47686W        W15915  37.574  31.023  12.066
47687W        W15916  41.470   7.843  10.519
47688W        W15917  37.545  14.789   1.643
47689W        W15918   2.583  35.082  13.785
47690W        W15919  23.598  23.572  14.526
47691W        W15920  16.249  31.087   2.552
47692W        W15921  35.550  22.245  13.562
47693W        W15922  11.011  18.662  12.370
47694W        W15923  20.627  44.418  10.429
47695W        W15924  41.469  37.250  11.832
47696W        W15925   5.124  20.218   2.419
47697W        W15926  42.020  39.575  12.843
47698W        W15927  31.052  10.979   0.117
47699W        W15928  12.727   8.047  12.863
47700W        W15929   5.308  27.217   1.732
47701W        W15930  27.091  36.773   4.584
47702W        W15931  15.158  33.232  10.907
47703W        W15932  43.104  12.624   9.474
47704W        W15933   6.977  31.937  12.648
47705W        W15934   1.199   9.776   2.783
47706W        W15935  43.021   8.020  11.122
47707W        W15936  17.786  41.186  14.187
47708W        W15937  40.852  18.320  14.913
47709W        W15938  30.118  28.662  14.467
47710W        W15939   6.660   5.398   3.588
47711W        W15940  34.451  36.208  14.422
47712W        W15941   4.992  21.102   1.740
47713W        W15942  32.524  32.172  14.772
47714W        W15943  25.979  14.345   4.155
47715W        W15944  31.720  23.206   0.860
47716W        W15945  32.519   2.741  13.767
47717W        W15946  44.892  44.813   0.386
47718W        W15947   4.641   6.410   1.846
47719W        W15948  22.655   3.178  13.541
47720W        W15949  38.314  36.126   1.054
47721W        W15950  40.709  14.731   2.299
47722W        W15951  19.671  20.720  14.965
47723W        W15952  42.341  31.515   4.093
47724W        W15953  10.884  14.243   4.006
47725W        W15954  15.090  27.082   0.638
47726W        W15955  25.421   5.972  10.979
47727W        W15956  41.991  38.466   3.763
47728W        W15957   7.881  33.106  12.129
47729W        W15958   6.221   1.317   1.059
47730W        W15959  32.541  20.170   1.888
47731W        W15960  43.929  27.212   0.099
47732W        W15961  33.817  38.139   1.964
47733W        W15962   1.307  24.777  14.166
47734W        W15963   8.205  44.245   3.182
47735W        W15964  37.001  27.143   4.296
47736W        W15965   7.674  13.411  13.322
47737W        W15966  14.762  44.627   0.911
47738W        W15967   2.037  33.493   0.831
47739W        W15968   5.678  10.790   3.648
47740W        W15969  23.449  18.596   0.328
47741W        W15970  37.098   0.282  11.240
47742W        W15971  13.611  21.774   4.352
47743W        W15972  19.770  44.468  10.526
47744W        W15973  34.046  11.494   2.153
47745W        W15974  41.044  17.773   4.896
47746W        W15975  40.794  10.775  10.488
47747W        W15976  23.985   2.948   0.371
47748W        W15977  30.438   9.843   4.552
47749W        W15978   2.012  11.834   0.173
47750W        W15979  33.912  27.761  11.932
47751W        W15980  29.479  30.142  14.028
47752W        W15981   3.801  20.654   1.274
47753W        W15982  28.383  24.128   4.088
47754W        W15983   8.496  11.482   3.586
47755W        W15984  37.071  40.825  14.518
47756W        W15985  40.903  42.452   2.466
47757W        W15986  30.453  22.811   2.953
47758W        W15987  12.084  21.644  12.371
47759W        W15988  35.851  31.951   0.654
47760W        W15989  25.087  38.937  14.017
47761W        W15990  38.741  15.252   1.318
47762W        W15991   0.822   2.834  14.942
47763W        W15992  39.829  28.686  14.804
47764W        W15993  15.444  14.383   1.418
47765W        W15994  18.637   1.788   0.487
47766W        W15995  39.377  18.152   1.289
47767W        W15996   6.347  30.346   0.427
47768W        W15997  19.350  33.122  12.858
47769W        W15998  13.069  12.809   0.114
47770W        W15999  29.430  23.286  11.374
47771W        W16000  17.216  20.602  11.079
47772W        W16001   3.888  32.370  10.657
47773W        W16002   5.481  20.244   1.522
47774W        W16003   3.958  27.494   4.244
47775W        W16004  37.498  26.606  11.689
47776W        W16005  38.290  27.035  11.610
47777W        W16006  28.127  10.412  12.541
47778W        W16007   8.792  16.064   0.624
47779W        W16008  41.694   7.818  13.500
47780W        W16009  33.485   4.879   4.096
47781W        W16010  35.489  40.032  13.109
47782W        W16011   3.580  42.101   3.763
47783W        W16012  44.785  14.848   2.222
47784W        W16013   6.279   1.719   3.295
47785W        W16014   3.387   0.944   2.735
47786W        W16015  35.479  32.334  12.913
47787W        W16016   0.826  16.242   0.017
47788W        W16017  14.397  17.359   4.992
47789W        W16018  40.077   9.366  13.147
47790W        W16019  44.919   2.663  10.706
47791W        W16020  44.532  12.306  10.708
47792W        W16021  44.405  33.453  13.840
47793W        W16022  37.598  12.237   2.241
47794W        W16023  41.061  27.058   3.631
47795W        W16024  37.867  16.102   1.705
47796W        W16025  18.765   4.005   4.728
47797W        W16026   0.508   4.556   0.649
47798W        W16027   6.142  30.478  14.952
47799W        W16028   9.691  22.740  13.979
47800W        W16029  32.883  21.332   0.517
47801W        W16030  27.068   5.898   1.178
47802W        W16031  35.823  44.866  11.154
47803W        W16032  33.822  39.540   2.904
47804W        W16033  44.913  38.777   4.546
47805W        W16034   8.840   0.118   0.298
47806W        W16035  31.612  31.069   4.565
47807W        W16036  11.936  22.163  11.615
47808W        W16037  26.121  44.659  10.353
47809W        W16038  34.936  25.104  14.505
47810W        W16039  41.996  43.321  14.450
47811W        W16040  31.402  37.261  13.603
47812W        W16041   2.850  34.211  12.923
47813W        W16042  37.341   3.433   0.403
47814W        W16043   2.455  13.095  12.415
47815W        W16044  29.681   7.363  12.926
47816W        W16045  19.132  35.912   4.730
47817W        W16046  37.908   6.861   0.764
47818W        W16047  33.851  15.217   1.243
47819W        W16048  14.775  36.746  13.319
47820W        W16049  38.169  28.921  10.140
47821W        W16050  23.418  23.096   1.263
47822W        W16051   8.525   6.169   1.290
47823W        W16052   4.092   0.737   0.481
47824W        W16053   7.282  31.681   1.486
47825W        W16054  15.030   6.209   4.724
47826W        W16055  43.454  12.076  11.888
47827W        W16056  24.589  33.416   0.350
47828W        W16057   0.819  24.502  12.098
47829W        W16058   6.475  22.638  14.028
47830W        W16059  18.277   4.748   1.308
47831W        W16060  23.567  23.240   4.884
47832W        W16061  41.903  30.185   4.812
47833W        W16062  23.677  22.885   2.682
47834W        W16063  11.791   9.828  13.088
47835W        W16064  25.489  12.627  14.365
47836W        W16065  15.939  15.843  13.604
47837W        W16066  33.933  14.140  14.897
47838W        W16067  22.869  25.912  13.202
47839W        W16068  19.713  36.465  12.159
47840W        W16069   3.729  39.468  14.894
47841W        W16070  33.584  37.034   1.164
47842W        W16071   8.478  41.737   4.185
47843W        W16072  19.734  42.455  11.908
47844W        W16073  14.369   2.193   1.656
47845W        W16074  44.902  13.103  14.608
47846W        W16075  18.743   2.914  10.683
47847W        W16076   7.693   8.068  12.627
47848W        W16077  35.627  30.505   0.975
47849W        W16078  15.861   1.404  13.962
47850W        W16079  23.980  32.994   1.886
47851W        W16080   7.030   1.215   2.766
47852W        W16081  42.749  11.245  12.962
47853W        W16082  26.727  11.588  11.976
47854W        W16083  32.413  42.538   2.646
47855W        W16084  30.045  33.914   0.913
47856W        W16085   0.620  44.395   4.518
47857W        W16086  11.460   9.652   1.968
47858W        W16087  44.391  26.666  12.326
47859W        W16088  17.098  28.500  12.001
47860W        W16089  16.083  32.855   1.413
47861W        W16090  36.670  20.259  11.360
47862W        W16091  42.331   4.008  14.456
47863W        W16092  17.389  16.137   3.657
47864W        W16093  18.514   0.900  14.394
47865W        W16094  25.546  12.128  10.777
47866W        W16095  25.432   0.881   3.429
47867W        W16096  30.504  34.485   2.697
47868W        W16097   4.680  23.406  14.377
47869W        W16098  24.659  13.727   4.254
47870W        W16099   1.439   5.798   1.859
47871W        W16100  37.052  29.483  14.174
47872W        W16101  32.421  32.516   4.392
47873W        W16102   8.087  36.898   0.800
47874W        W16103   4.605  10.083  13.944
47875W        W16104  37.763  40.165  11.240
47876W        W16105  32.036   5.003   5.039
47877W        W16106  13.277   4.451  13.059
47878W        W16107  44.519   0.404  13.283
47879W        W16108  25.202  13.806   4.149
47880W        W16109  21.587  36.858  13.896
47881W        W16110  41.417  21.567   4.337
47882W        W16111  21.364  13.629   1.970
47883W        W16112  30.812  36.263   0.044
47884W        W16113  29.163  27.980  10.467
47885W        W16114  25.112  21.251   2.104
47886W        W16115  19.261  43.005  11.186
47887W        W16116   7.145  44.918   1.822
47888W        W16117  24.004  41.227  10.420
47889W        W16118  15.303   6.920   3.972
47890W        W16119  19.073  31.598  10.767
47891W        W16120  30.115   1.505  11.591
47892W        W16121  19.942   2.214  13.505
47893W        W16122  26.570  27.283   4.748
47894W        W16123   1.868  32.467  14.495
47895W        W16124  36.244   9.547  11.574
47896W        W16125   2.800  10.153  14.902
47897W        W16126  29.404  24.428   2.742
47898W        W16127  26.757  13.336   0.302
47899W        W16128  18.737  30.365  12.622
47900W        W16129   2.166   2.986  11.181
47901W        W16130  35.774  21.288  14.369
47902W        W16131  17.647  24.081   2.100
47903W        W16132  17.083   5.748   0.702
47904W        W16133  10.388  30.164  11.156
47905W        W16134  36.506  15.808   4.093
47906W        W16135  39.923  39.162  12.429
47907W        W16136   0.209   6.779   3.266
47908W        W16137  27.414  15.599  11.087
47909W        W16138   3.805  41.518  12.394
47910W        W16139  36.411   3.776   1.440
47911W        W16140  28.956   7.044  13.768
47912W        W16141  28.984  34.203  10.491
47913W        W16142  36.410  35.666  12.806
47914W        W16143  40.704   4.096   0.999
47915W        W16144  34.828  43.966   0.972
47916W        W16145  37.908   5.826   1.674
47917W        W16146  44.994  31.382  13.121
47918W        W16147  36.693  29.470   1.709
47919W        W16148  22.494  28.177   4.524
47920W        W16149  36.625  15.014   1.519
47921W        W16150  10.837   2.410   0.483
47922W        W16151  39.538  38.729   2.695
47923W        W16152  20.498  11.070   4.623
47924W        W16153  34.165  31.501   3.802
47925W        W16154   5.930  38.334  10.534
47926W        W16155  27.179   8.064  11.597
47927W        W16156  19.514  27.993  10.664
47928W        W16157  27.479  13.104   3.333
47929W        W16158  28.471  41.986  12.520
47930W        W16159  40.437  18.617  13.826
47931W        W16160   2.419  21.521   4.733
47932W        W16161   7.643  39.930  11.423
47933W        W16162  10.498   8.631  12.482
47934W        W16163  14.244   1.443  14.415
47935W        W16164  15.557  16.653  13.040
47936W        W16165  30.031  38.810   3.693
47937W        W16166  16.132  15.134  13.027
47938W        W16167   1.903  35.505  10.686
47939W        W16168  17.632  37.476   0.862
47940W        W16169  35.421   7.284  11.248
47941W        W16170   9.761  15.985  11.474
47942W        W16171  13.129   4.232   0.471
47943W        W16172  19.627  31.194  10.723
47944W        W16173  22.510  40.429   4.569
47945W        W16174  40.573  12.772   1.774
47946W        W16175  10.740  31.517  13.095
47947W        W16176   8.801  38.231   2.932
47948W        W16177  29.852   1.795  13.311
47949W        W16178  12.932  26.471  11.016
47950W        W16179  27.304  32.895  14.595
47951W        W16180  27.987  44.981  13.020
47952W        W16181  28.918  17.076  12.827
47953W        W16182  38.077  39.579   3.642
47954W        W16183  17.308   9.990  10.899
47955W        W16184  38.841   6.993   2.813
47956W        W16185   6.873  40.456  13.454
47957W        W16186   3.975  24.924   3.177
47958W        W16187  16.761  38.778   3.166
47959W        W16188   4.923  13.392   4.470
47960W        W16189   7.069  37.897   3.922
47961W        W16190  26.172  39.475  12.949
47962W        W16191  40.170  40.543  11.944
47963W        W16192   3.285  41.454  11.576
47964W        W16193  24.648  42.269   4.570
47965W        W16194  18.676   4.156  13.948
47966W        W16195  41.957  26.524   3.488
47967W        W16196  37.824  19.029  12.126
47968W        W16197   7.848   2.208  13.008
47969W        W16198  12.172  28.127   0.399
47970W        W16199  23.748   1.345   3.191
47971W        W16200   6.804  34.395  12.593
47972W        W16201  34.650   5.712  14.440
47973W        W16202  36.899  12.424   0.902
47974W        W16203  11.827  24.669   4.634
47975W        W16204  20.702  31.302   4.039
47976W        W16205  12.145  40.991   1.886
47977W        W16206   0.762  31.582   0.141
47978W        W16207  14.731   9.413  10.765
47979W        W16208  34.812  19.718  10.283
47980W        W16209   9.284  14.622  14.046
47981W        W16210  11.647  43.451  10.726
47982W        W16211  27.876  42.925   4.154
47983W        W16212  33.039  39.738   3.594
47984W        W16213  34.017  36.528  13.422
47985W        W16214  11.804  41.687   0.473
47986W        W16215  17.569  25.105   0.849
47987W        W16216  30.930  31.223   3.605
47988W        W16217  17.656   8.305  14.066
47989W        W16218  37.735  10.105   1.437
47990W        W16219  24.928  32.258   0.773
47991W        W16220   6.384  20.552   2.293
47992W        W16221  15.400  17.047  11.281
47993W        W16222   6.696  17.477   2.111
47994W        W16223  30.699  40.086   1.248
47995W        W16224   7.471  29.157  11.713
47996W        W16225   4.315  28.436  12.143
47997W        W16226  22.586  24.113  10.372
47998W        W16227  21.608   7.532   2.248
47999W        W16228  37.983  10.092  14.136
48000W        W16229  15.276  38.480  14.053
48001W        W16230  26.140  22.102   4.170
48002W        W16231  37.350   3.827  12.102
48003W        W16232  41.041  26.359  14.010
48004W        W16233   5.005  34.094   1.711
48005W        W16234   0.527  31.654  10.614
48006W        W16235  32.104  22.467  11.486
48007W        W16236   7.217  25.995   4.553
48008W        W16237  10.909  12.795   0.176
48009W        W16238  14.854   3.934  13.449
48010W        W16239  41.351   9.888  10.582
48011W        W16240  36.371  36.839  13.776
48012W        W16241  26.926   4.652   3.753
48013W        W16242  33.733   1.230  11.237
48014W        W16243  42.058  17.184  10.418
48015W        W16244  37.064  44.428   0.952
48016W        W16245  38.988  16.324  12.873
48017W        W16246  42.876  19.016   2.779
48018W        W16247  37.391  29.486  12.115
48019W        W16248  14.175  19.657   0.327
48020W        W16249   7.089  34.936   4.354
48021W        W16250  23.879   0.460   2.380
48022W        W16251  21.297  31.036  12.976
48023W        W16252  29.686  43.204   2.931
48024W        W16253  40.854  26.419   0.497
48025W        W16254   3.827   0.382  10.783
48026W        W16255  44.313  35.149  13.440
48027W        W16256  25.394  37.773  11.213
48028W        W16257   6.765  32.181  13.523
48029W        W16258  42.482   7.904  11.108
48030W        W16259  25.114   4.015  13.644
48031W        W16260  16.776   2.179   3.993
48032W        W16261  31.881  23.436  11.320
48033W        W16262  16.640  12.767   4.884
48034W        W16263  14.823   2.763   3.601
48035W        W16264  28.403  42.833   3.195
48036W        W16265   6.663   6.477  10.928
48037W        W16266  33.475  43.500  14.551
48038W        W16267   1.505   5.461   0.745
48039W        W16268   7.540  11.805   2.637
48040W        W16269  42.363  22.038  14.820
48041W        W16270   1.569  30.608  12.575
48042W        W16271  10.098  38.545  13.513
48043W        W16272  34.165  38.488  12.969
48044W        W16273  44.501  40.090  11.779
48045W        W16274  10.643  43.930  12.045
48046W        W16275  43.368  25.425   2.139
48047W        W16276   8.670  17.478   0.217
48048W        W16277  26.072   3.413   1.099
48049W        W16278   3.368  20.058   3.581
48050W        W16279  18.161   3.210   4.063
48051W        W16280   8.178   2.236   1.730
48052W        W16281   1.526  14.721   3.857
48053W        W16282  40.054  37.880   4.562
48054W        W16283   4.818  32.666  12.933
48055W        W16284   0.895  24.773  14.923
48056W        W16285  10.304  18.728   3.470
48057W        W16286  40.538   0.639  12.859
48058W        W16287  27.009  19.646  13.528
48059W        W16288  31.665  41.376   0.914
48060W        W16289   1.261  41.783   1.705
48061W        W16290  36.882  44.480   1.460
48062W        W16291  20.569  33.563  12.429
48063W        W16292  12.142  44.523  12.887
48064W        W16293  13.258  15.288   3.702
48065W        W16294  37.993  36.096   0.412
48066W        W16295  41.789  24.218   3.189
48067W        W16296  10.565  40.304   0.292
48068W        W16297  38.446   5.433   3.702
48069W        W16298  15.567  25.526   1.122
48070W        W16299  15.123   0.805  12.517
48071W        W16300  26.622  16.663  14.712
48072W        W16301  21.262   3.884   4.849
48073W        W16302   8.929  40.825  13.041
48074W        W16303  25.175  20.816  12.406
48075W        W16304   3.452  11.095  13.409
48076W        W16305  33.394  43.878   3.761
48077W        W16306  36.028  35.120   2.769
48078W        W16307   9.895  34.405   0.978
48079W        W16308  41.304  38.986   4.227
48080W        W16309  16.555  22.245   0.845
48081W        W16310  40.579  21.733  12.893
48082W        W16311  23.755  24.809   2.769
48083W        W16312  38.952  14.232   3.671
48084W        W16313  32.409  29.897   2.604
48085W        W16314  34.298   8.475   4.433
48086W        W16315  27.473  15.222  13.059
48087W        W16316   9.782  19.041   4.508
48088W        W16317   9.838   5.843  14.409
48089W        W16318  24.895  25.560   2.325
48090W        W16319   3.024   7.901  13.910
48091W        W16320  13.814   5.218  12.870
48092W        W16321  11.328   9.876   1.495
48093W        W16322  17.334  22.286  12.431
48094W        W16323  30.729  30.403   1.552
48095W        W16324  15.858  35.589  11.532
48096W        W16325  35.817  17.238  11.876
48097W        W16326  13.322   7.468  14.929
48098W        W16327   1.096   3.535  10.247
48099W        W16328   1.344   1.187  14.097
48100W        W16329   2.287  12.573   0.905
48101W        W16330   8.109  28.084  10.694
48102W        W16331   1.428  36.821  14.627
48103W        W16332  41.108  16.188  10.622
48104W        W16333  11.660  20.709   1.375
48105W        W16334  27.149  17.746  12.676
48106W        W16335  29.711  17.222   5.230
48107W        W16336  34.252  18.973  12.810
48108W        W16337   4.506   2.920  10.673
48109W        W16338  10.549  23.716  12.562
48110W        W16339  16.072  42.076   2.141
48111W        W16340  32.170  11.649  13.598
48112W        W16341   1.871  11.304  13.357
48113W        W16342   9.365  29.740  14.788
48114W        W16343  16.028  31.829   4.962
48115W        W16344  22.648   3.449   0.261
48116W        W16345  35.328  14.180  13.110
48117W        W16346  31.323   5.944   0.847
48118W        W16347  25.365  15.621   1.892
48119W        W16348  25.776  16.566   0.370
48120W        W16349  12.215  23.081  14.799
48121W        W16350  41.914  15.893  14.271
48122W        W16351   6.056  28.848  12.130
48123W        W16352  11.789  29.651  11.713
48124W        W16353  43.952  18.157   2.945
48125W        W16354  11.760  39.984  12.588
48126W        W16355  27.907  26.503  12.173
48127W        W16356  41.407  42.415  12.938
48128W        W16357  23.796  26.697  14.579
48129W        W16358  15.345  13.891  14.302
48130W        W16359  21.990  23.802   4.545
48131W        W16360  44.717  13.215   3.231
48132W        W16361  11.855  32.282   2.720
48133W        W16362  41.328  40.820  11.364
48134W        W16363  31.606  21.463   1.656
48135W        W16364  42.753   0.617  13.015
48136W        W16365  23.790  18.757   3.618
48137W        W16366  15.450  19.322  12.703
48138W        W16367  28.299  26.548  14.016
48139W        W16368  37.915  14.454   3.659
48140W        W16369  43.257  31.328   1.211
48141W        W16370   8.905  37.140   2.289
48142W        W16371  34.816  31.860  14.002
48143W        W16372  15.953  27.076   4.565
48144W        W16373  11.707  18.630   1.203
48145W        W16374  42.859  20.674  10.709
48146W        W16375   1.823  35.806   1.048
48147W        W16376   8.856  39.968   3.993
48148W        W16377  35.009  42.579   1.155
48149W        W16378  15.534  22.625   1.441
48150W        W16379  11.454  18.346  14.306
48151W        W16380  30.521  28.616  10.893
48152W        W16381  44.393   5.957  11.713
48153W        W16382   0.266  33.547  14.295
48154W        W16383  24.371   4.408   1.910
48155W        W16384  28.811   2.250  11.879
48156W        W16385  36.864  22.534   0.459
48157W        W16386  23.244  34.167   5.482
48158W        W16387  30.376  34.070   1.371
48159W        W16388  22.786  20.634  14.012
48160W        W16389   8.725  19.524   3.809
48161W        W16390  30.170  31.195   1.243
48162W        W16391  17.421  19.735   5.187
48163W        W16392  34.807   9.579   3.659
48164W        W16393   2.646  21.765   4.019
48165W        W16394  25.498   8.941   3.585
48166W        W16395   4.243  38.828  14.904
48167W        W16396  17.260  21.655   0.628
48168W        W16397  13.603  35.947   2.734
48169W        W16398  13.553  44.384   3.649
48170W        W16399   3.447  19.576   4.807
48171W        W16400   8.511  16.604  12.126
48172W        W16401  14.722  36.275  12.447
48173W        W16402   1.834  20.715  11.241
48174W        W16403  29.505  17.532   2.017
48175W        W16404  14.144  10.301   5.108
48176W        W16405  13.480  19.654   0.918
48177W        W16406  42.924  10.949  11.035
48178W        W16407  44.241  44.771   0.331
48179W        W16408   0.415  14.191   3.750
48180W        W16409  39.458  27.628   3.662
48181W        W16410  10.221  27.426   4.196
48182W        W16411  13.382  22.556   0.777
48183W        W16412  35.822  37.995  12.021
48184W        W16413  18.388  41.640  14.217
48185W        W16414  24.741   2.453   0.279
48186W        W16415  13.841   8.368  14.980
48187W        W16416  24.225  13.369  14.538
48188W        W16417   6.275   8.834   3.549
48189W        W16418  36.351  35.144   1.871
48190W        W16419  37.157  43.058   4.156
48191W        W16420  13.123  11.836  12.300
48192W        W16421  28.462   9.785  12.824
48193W        W16422  35.077  20.531   2.417
48194W        W16423  44.351  17.709   0.823
48195W        W16424  43.499  14.303  12.584
48196W        W16425  24.056  17.267   2.293
48197W        W16426  35.365  37.472  14.279
48198W        W16427   1.123  23.435  10.262
48199W        W16428  34.889  16.597  11.086
48200W        W16429  37.636   8.265  11.932
48201W        W16430  31.833  18.220  12.390
48202W        W16431  19.146   6.703   4.088
48203W        W16432   4.774   4.592   3.607
48204W        W16433  18.234  41.062   0.890
48205W        W16434   9.916  44.398   0.029
48206W        W16435   1.478   8.840   3.144
48207W        W16436  29.499  15.262   0.989
48208W        W16437   3.957  13.663  13.462
48209W        W16438  16.642  13.173   4.577
48210W        W16439   5.965  35.098   1.484
48211W        W16440  26.132   5.735   1.658
48212W        W16441  30.913  18.241   2.276
48213W        W16442  20.619  27.975   3.780
48214W        W16443  43.471  27.221   2.614
48215W        W16444  16.159   4.466   1.228
48216W        W16445   7.838   1.154   4.835
48217W        W16446   9.649  33.956   2.274
48218W        W16447  25.871   8.252  11.659
48219W        W16448   0.408  19.781   4.281
48220W        W16449  17.686  27.431  14.909
48221W        W16450   0.398  10.911   0.208
48222W        W16451   0.605  15.656  12.483
48223W        W16452   5.334  18.484  11.541
48224W        W16453   7.790  43.116   5.119
48225W        W16454  16.279  33.605   1.350
48226W        W16455  31.724   2.317   1.317
48227W        W16456  29.457   3.547   4.425
48228W        W16457  12.761  10.140  10.443
48229W        W16458  15.719  10.075   9.692
48230W        W16459   3.228  16.861   4.300
48231W        W16460  25.572   7.674   1.289
48232W        W16461  44.633  20.240   0.868
48233W        W16462   2.891  15.851   2.250
48234W        W16463  26.494  25.161   1.935
48235W        W16464  31.059  10.265   4.046
48236W        W16465  16.959  13.088  13.075
48237W        W16466   1.006  43.427   4.538
48238W        W16467  16.214  39.943  12.757
48239W        W16468  25.631  41.875   0.743
48240W        W16469   5.789  27.163  10.818
48241W        W16470  31.618  22.035  11.092
48242W        W16471  14.687  42.510  13.791
48243W        W16472  34.655   3.014   2.896
48244W        W16473   2.361   4.151  14.313
48245W        W16474  10.268   9.277   3.622
48246W        W16475  26.035  22.686   3.626
48247W        W16476  26.886  18.833  13.063
48248W        W16477  34.287  18.309   1.400
48249W        W16478  31.224   8.341  11.302
48250W        W16479  22.009  23.233   3.660
48251W        W16480  21.108  30.299  11.790
48252W        W16481  11.233  42.110  14.836
48253W        W16482   8.164  16.473   2.210
48254W        W16483   6.441  20.570  11.378
48255W        W16484  40.370   8.365  14.510
48256W        W16485  22.755  14.292   4.062
48257W        W16486   1.779  14.966   4.240
48258W        W16487  35.991  33.652   4.268
48259W        W16488  39.961  18.572   0.026
48260W        W16489   5.852  30.455   4.093
48261W        W16490   8.342  37.579  11.994
48262W        W16491   5.279  35.194   2.782
48263W        W16492  12.312  35.304   1.802
48264W        W16493  34.899  21.768  14.458
48265W        W16494  31.593   4.290   1.559
48266W        W16495  34.013  34.326  13.088
48267W        W16496  13.732   4.240  12.932
48268W        W16497   0.592  29.614  13.407
48269W        W16498  20.071  43.441   2.686
48270W        W16499  12.211  28.735  12.032
48271W        W16500  15.264  41.999  12.561
48272W        W16501   9.835  12.801  13.980
48273W        W16502   2.840   9.133  12.012
48274W        W16503  35.436  22.990  14.850
48275W        W16504  25.480   4.091   0.860
48276W        W16505  32.951  18.438   2.756
48277W        W16506  12.779  13.056   4.953
48278W        W16507  26.652   9.819   1.419
48279W        W16508  13.367  27.101   4.717
48280W        W16509  25.079   7.810   4.166
48281W        W16510   5.888  12.442  14.775
48282W        W16511  31.166  22.269   1.723
48283W        W16512  13.641  33.081  14.327
48284W        W16513  31.154   5.224   3.727
48285W        W16514  17.836  31.304  11.100
48286W        W16515   3.019  43.045   1.273
48287W        W16516  33.137  19.286   1.215
48288W        W16517  23.478  44.940   0.726
48289W        W16518  30.153  32.539   4.074
48290W        W16519  42.246  24.347  11.656
48291W        W16520   0.982  15.327  12.193
48292W        W16521   9.262   3.318   2.885
48293W        W16522  22.580  29.451  11.891
48294W        W16523  34.960   4.957  13.451
48295W        W16524  38.775  38.011   4.614
48296W        W16525  19.525  24.036   2.247
48297W        W16526   0.999  22.496   2.736
48298W        W16527  36.995  20.773   1.968
48299W        W16528  39.575  44.713  12.922
48300W        W16529  36.627  16.309   0.271
48301W        W16530  20.161  20.061   3.759
48302W        W16531  14.386  37.087  11.228
48303W        W16532   7.570  24.145  13.942
48304W        W16533  10.158   5.777   0.716
48305W        W16534  27.891  14.198   2.341
48306W        W16535  18.283  11.823   1.722
48307W        W16536   7.719  36.654   1.708
48308W        W16537  33.830  16.605  14.536
48309W        W16538  38.324  18.165   1.823
48310W        W16539  20.049   3.374   4.562
48311W        W16540  24.228  24.004  12.667
48312W        W16541  37.294   1.291  12.176
48313W        W16542  14.247  18.155   2.545
48314W        W16543  21.018  37.597  12.744
48315W        W16544  28.049  26.415   0.917
48316W        W16545  10.399  30.310   0.502
48317W        W16546   1.654  19.528  13.372
48318W        W16547  18.785   0.530  12.045
48319W        W16548  11.886  30.567  12.014
48320W        W16549  15.350  39.384   0.311
48321W        W16550  38.001  40.850  13.508
48322W        W16551  28.133  14.731  14.041
48323W        W16552  25.438  11.236   3.245
48324W        W16553  23.186  23.835   0.245
48325W        W16554  31.453  33.122  14.548
48326W        W16555   3.258  42.823  14.359
48327W        W16556   4.469  27.949   3.697
48328W        W16557  29.456  35.432   1.370
48329W        W16558  43.751  20.808  13.852
48330W        W16559  42.944  22.717  11.426
48331W        W16560  40.490  43.755  11.297
48332W        W16561   4.546   3.241  11.066
48333W        W16562  31.229   7.746   3.937
48334W        W16563  36.345   3.703   4.824
48335W        W16564  15.181  34.649  12.224
48336W        W16565  38.776  24.528  10.482
48337W        W16566  43.469  17.575   1.290
48338W        W16567  40.108  19.736   0.271
48339W        W16568  13.147  11.192  13.078
48340W        W16569  32.132  21.067   4.323
48341W        W16570  26.732  17.709  12.981
48342W        W16571  16.633  31.161   9.843
48343W        W16572  38.974  43.872  14.628
48344W        W16573  31.233  34.401  13.456
48345W        W16574  19.744  29.244   3.462
48346W        W16575  23.079   0.401   1.951
48347W        W16576   8.330   1.408   4.698
48348W        W16577   2.305  42.912  11.407
48349W        W16578  44.305  41.924  12.170
48350W        W16579  35.780  41.891   4.368
48351W        W16580  25.462  42.032   1.430
48352W        W16581   4.224  14.017   3.628
48353W        W16582  18.315   5.832  12.632
48354W        W16583  10.141  35.952  14.525
48355W        W16584   5.621   8.756   1.375
48356W        W16585  33.494  12.785   4.043
48357W        W16586   0.438   2.509  12.020
48358W        W16587  44.324  26.954   5.054
48359W        W16588   8.308  39.433  14.981
48360W        W16589  17.316  17.297  12.744
48361W        W16590  43.320   6.242   3.781
48362W        W16591   9.274  40.268  13.842
48363W        W16592  22.101  33.171   1.156
48364W        W16593   7.889  28.427   4.267
48365W        W16594   6.343  23.934  12.504
48366W        W16595  15.230  20.480  14.055
48367W        W16596  43.264  25.033  10.520
48368W        W16597   9.665   9.355  11.390
48369W        W16598  32.494  26.048   3.549
48370W        W16599  42.381  40.958  14.041
48371W        W16600  44.793  12.137  14.284
48372W        W16601  16.725  18.206   0.294
48373W        W16602  31.070   2.028   5.029
48374W        W16603  41.025  32.215  13.535
48375W        W16604  14.286  10.410   1.726
48376W        W16605  25.937  14.963   5.527
48377W        W16606  37.778   6.249  14.961
48378W        W16607  39.393  42.379  14.811
48379W        W16608  26.851  35.530   3.760
48380W        W16609  43.873  26.468   3.106
48381W        W16610   4.832  31.924  10.530
48382W        W16611  12.673  12.800  13.070
48383W        W16612  33.002  37.851   3.668
48384W        W16613  18.790   0.378  13.357
48385W        W16614   5.692   1.198   1.834
48386W        W16615  21.290  18.268  12.668
48387W        W16616  37.580  11.433  13.910
48388W        W16617  11.310  17.430   3.781
48389W        W16618   7.460  13.783   2.278
48390W        W16619  21.444  28.122  11.667
48391W        W16620  16.852  20.676  13.763
48392W        W16621  33.487   4.088   4.589
48393W        W16622  33.840   6.766   4.111
48394W        W16623   3.352   3.253  12.547
48395W        W16624   4.352  16.875   4.138
48396W        W16625  44.294  31.073  10.511
48397W        W16626   2.719  12.264  11.325
48398W        W16627  17.488  11.525   2.717
48399W        W16628  21.007  15.020  10.766
48400W        W16629   9.293  32.650   1.905
48401W        W16630  16.916  22.064  14.471
48402W        W16631  12.600   7.837  14.046
48403W        W16632  33.552   7.750  13.330
48404W        W16633  11.277  21.322   0.750
48405W        W16634  41.412  28.524  11.173
48406W        W16635  10.815  21.314  14.251
48407W        W16636  21.313  13.633  11.886
48408W        W16637  22.660  11.612  11.386
48409W        W16638  41.990  30.906  11.481
48410W        W16639  11.861   8.617   3.526
48411W        W16640  33.624  40.638  11.282
48412W        W16641  12.852   9.250  10.931
48413W        W16642  38.861   0.441   0.961
48414W        W16643  38.144  43.801  11.419
48415W        W16644  21.455  25.910   3.900
48416W        W16645  26.982   1.362   3.479
48417W        W16646  42.902  36.306  13.959
48418W        W16647  28.801   0.795  12.303
48419W        W16648   9.638  29.635   2.266
48420W        W16649  26.979  26.660  14.357
48421W        W16650  27.732  36.073  13.743
48422W        W16651  19.719  14.259   2.946
48423W        W16652  29.066  36.962   0.825
48424W        W16653   1.261  27.215  13.809
48425W        W16654  40.808  27.194   4.075
48426W        W16655  37.056  12.285  13.517
48427W        W16656   0.937  32.598   2.363
48428W        W16657  29.713  28.184   0.928
48429W        W16658   3.404  35.081   0.509
48430W        W16659  28.938  13.114  10.664
48431W        W16660  17.602  27.639  14.405
48432W        W16661  31.094  40.390   2.114
48433W        W16662  34.335   1.948  11.474
48434W        W16663  28.542  30.974   2.895
48435W        W16664  35.474  16.853   3.417
48436W        W16665  28.782   8.621   0.523
48437W        W16666  44.800   5.812   3.243
48438W        W16667  44.253   3.548   2.181
48439W        W16668  43.525  14.749  11.207
48440W        W16669  31.328   6.236  10.963
48441W        W16670  21.598  17.760  11.855
48442W        W16671  15.707  14.423  12.778
48443W        W16672  34.662  31.318  11.112
48444W        W16673   4.796  40.366  12.698
48445W        W16674  10.375  14.837  10.982
48446W        W16675  42.319  43.294  14.844
48447W        W16676   6.778   0.585   2.169
48448W        W16677  41.848   3.429   1.149
48449W        W16678  19.030  31.663  13.071
48450W        W16679  22.334  35.920  12.907
48451W        W16680  10.815  40.934  11.424
48452W        W16681  42.549  16.635   0.402
48453W        W16682   0.090   0.239  14.316
48454W        W16683  32.850   6.742   1.286
48455W        W16684  11.825   6.345   0.351
48456W        W16685   9.268  17.066   3.128
48457W        W16686  32.888   9.301  10.781
48458W        W16687   9.926  28.094  14.576
48459W        W16688  44.325  23.690   4.262
48460W        W16689  27.478  42.547  14.540
48461W        W16690  17.493   7.959  12.427
48462W        W16691  42.911  14.556   3.741
48463W        W16692  20.491  21.781  11.902
48464W        W16693  41.388  43.440  13.806
48465W        W16694  42.808  10.565  14.035
48466W        W16695   2.319  38.941   9.958
48467W        W16696  38.145  28.433   1.874
48468W        W16697  32.585  33.414   0.923
48469W        W16698   1.461  41.651   3.489
48470W        W16699  15.555   2.349   2.194
48471W        W16700  43.705  30.017  12.871
48472W        W16701  19.102   8.194   3.623
48473W        W16702  27.530   2.623  14.667
48474W        W16703  36.695   0.229   1.498
48475W        W16704  23.484  12.254   0.374
48476W        W16705  26.639  33.646   2.097
48477W        W16706  40.081  37.417   0.412
48478W        W16707  23.636  22.538  13.297
48479W        W16708  42.547  44.345  13.010
48480W        W16709  35.689  38.810   0.902
48481W        W16710  18.783  25.437   3.824
48482W        W16711   0.228   1.874   4.189
48483W        W16712  35.997  15.760  11.046
48484W        W16713   5.266  35.012   3.820
48485W        W16714  32.051   7.031   1.002
48486W        W16715  31.898  15.931   0.440
48487W        W16716  14.651  32.035  14.221
48488W        W16717   2.984  15.772   0.900
48489W        W16718  35.507  35.198  13.985
48490W        W16719  31.820  43.767   0.034
48491W        W16720  13.370  37.660   1.534
48492W        W16721   4.156  12.935  12.588
48493W        W16722  28.167  28.213  10.569
48494W        W16723  41.229  40.012  11.567
48495W        W16724  28.570  21.335   1.909
48496W        W16725  23.720  24.448   2.410
48497W        W16726  21.651  22.441  12.204
48498W        W16727   6.807  12.788   0.653
48499W        W16728   2.992  20.530  12.653
48500W        W16729  38.018  16.184  11.615
48501W        W16730  30.356  22.549   1.858
48502W        W16731  21.801  10.357   4.525
48503W        W16732  36.665  38.620   3.186
48504W        W16733  28.694   4.355  12.506
48505W        W16734  12.769  37.844  11.370
48506W        W16735  24.708  35.772  12.775
48507W        W16736  32.480   2.736   1.728
48508W        W16737  24.425  42.300  13.779
48509W        W16738  44.965  25.172   5.217
48510W        W16739  17.594  40.608  14.741
48511W        W16740  15.712  38.694   4.206
48512W        W16741  43.688   4.504   0.692
48513W        W16742  16.879   6.354   2.314
48514W        W16743  31.629  13.675  10.536
48515W        W16744   6.332  19.789   1.876
48516W        W16745  26.162  16.668   1.903
48517W        W16746  13.715   8.866  14.949
48518W        W16747  23.208   6.394   2.383
48519W        W16748  26.712   4.659   4.645
48520W        W16749  14.727  22.479   3.260
48521W        W16750  13.880  40.753   4.173
48522W        W16751  11.122   0.897   1.418
48523W        W16752  16.065  20.796   2.558
48524W        W16753  20.237  30.557   2.146
48525W        W16754  29.482  41.266  12.934
48526W        W16755   9.300  31.976  11.127
48527W        W16756   9.801  13.156  14.411
48528W        W16757  28.546   2.438  12.394
48529W        W16758  11.234  31.324  12.009
48530W        W16759  42.365  34.865   0.894
48531W        W16760  30.091  43.089  12.115
48532W        W16761  25.301  18.745   3.158
48533W        W16762  19.025   1.376  14.859
48534W        W16763  38.775  26.883  10.659
48535W        W16764   1.489  15.148   1.607
48536W        W16765  17.449  17.403   0.345
48537W        W16766   9.588  17.558   4.260
48538W        W16767  16.603  14.724  14.394
48539W        W16768  41.838  28.052  12.537
48540W        W16769   2.806   2.251  11.632
48541W        W16770   1.541  44.665  14.543
48542W        W16771  14.638   0.812   0.340
48543W        W16772  29.969  38.792   4.574
48544W        W16773  33.679   6.831   0.395
48545W        W16774   4.889  14.866  11.299
48546W        W16775  27.021  40.429  11.587
48547W        W16776  30.147   6.230   0.858
48548W        W16777  42.836  23.434   4.864
48549W        W16778  39.804  20.608   1.266
48550W        W16779  44.090   5.425   0.866
48551W        W16780  43.368   7.449   4.533
48552W        W16781  18.933  22.457  10.190
48553W        W16782  25.692   7.346  10.678
48554W        W16783  33.914  37.849  13.986
48555W        W16784   2.447  37.059   2.851
48556W        W16785   1.784   9.956   1.223
48557W        W16786  29.666  19.200   2.754
48558W        W16787   7.362  43.918  13.160
48559W        W16788  17.258  20.020   4.263
48560W        W16789  33.469  15.070   2.637
48561W        W16790  20.982  44.404   4.127
48562W        W16791  26.406  41.785   1.202
48563W        W16792  19.993   0.318  14.907
48564W        W16793   6.357  29.467  12.809
48565W        W16794  25.717   7.619   2.298
48566W        W16795   9.501  12.393  12.851
48567W        W16796  33.134  21.034  11.287
48568W        W16797  19.699  12.845   1.498
48569W        W16798  40.938  15.667   3.144
48570W        W16799  41.972  14.976   3.616
48571W        W16800   4.368  25.063  11.936
48572W        W16801  42.046  26.978  14.343
48573W        W16802   0.941  42.042   0.344
48574W        W16803   7.447  18.232   4.377
48575W        W16804  33.909  12.814  12.418
48576W        W16805  19.083  36.679   5.177
48577W        W16806  31.076  35.912  11.057
48578W        W16807   4.777   7.927   1.434
48579W        W16808  26.843  44.473  10.548
48580W        W16809  30.900  22.048   2.100
48581W        W16810   9.399  43.990   2.149
48582W        W16811  33.003  13.084  10.420
48583W        W16812   4.479  21.094   1.631
48584W        W16813  42.823  17.581  10.680
48585W        W16814   5.269  11.409   1.748
48586W        W16815  32.894  25.571  12.281
48587W        W16816  37.773  35.295  11.469
48588W        W16817  16.637  36.992   3.136
48589W        W16818  23.531  41.264  11.237
48590W        W16819  33.749   3.326   4.167
48591W        W16820   7.754  21.227  10.867
48592W        W16821   5.980   5.927  10.759
48593W        W16822  29.381   4.899   1.915
48594W        W16823   8.897   9.702   3.742
48595W        W16824  19.531  40.330   4.563
48596W        W16825  19.155  15.571  13.294
48597W        W16826   8.303  28.260  14.882
48598W        W16827  28.897  15.303  10.556
48599W        W16828  41.426  17.110  12.014
48600W        W16829   8.152  40.987  13.423
48601W        W16830  26.768  15.642  11.661
48602W        W16831   9.963  33.373   3.289
48603W        W16832  22.711  23.664   4.104
48604W        W16833   6.120   8.844  11.515
48605W        W16834  27.341  29.673   1.245
48606W        W16835  37.357   1.039  12.602
48607W        W16836  44.880  26.095   2.255
48608W        W16837  21.497   4.334   0.249
48609W        W16838  11.319  42.448  11.775
48610W        W16839   8.959   9.127   0.372
48611W        W16840   0.434  33.093  14.881
48612W        W16841  32.676  34.917  10.742
48613W        W16842  14.448   0.837   3.482
48614W        W16843  21.725  24.423  14.326
48615W        W16844   6.217   9.235   0.225
48616W        W16845  31.598   0.467   3.220
48617W        W16846  30.380  17.368   2.065
48618W        W16847  39.587   0.933  11.525
48619W        W16848  22.545  33.053  13.545
48620W        W16849  16.009  41.741   3.030
48621W        W16850  43.496  32.041   4.424
48622W        W16851  35.466  16.797  12.811
48623W        W16852  41.748  37.397  13.575
48624W        W16853  26.037  20.720  12.797
48625W        W16854  16.770   0.989   2.509
48626W        W16855  30.576  36.700   0.226
48627W        W16856   1.231  40.412   2.847
48628W        W16857  30.241  21.574   2.237
48629W        W16858  25.525  16.856   3.125
48630W        W16859   4.494  36.098  11.529
48631W        W16860  12.877  41.462  12.439
48632W        W16861  13.613  40.915   1.861
48633W        W16862   0.384  24.298   0.241
48634W        W16863  20.826  27.346  11.458
48635W        W16864  25.820  28.412  14.211
48636W        W16865  28.209  41.334  13.850
48637W        W16866  15.134  25.558   0.854
48638W        W16867  23.019  40.807   3.886
48639W        W16868  22.720  17.368  14.428
48640W        W16869  21.051  21.755  10.642
48641W        W16870  41.784   9.337  12.465
48642W        W16871   9.729  13.088   3.509
48643W        W16872  32.988  39.423  10.685
48644W        W16873  23.257   0.402   3.340
48645W        W16874  11.598  23.534   0.454
48646W        W16875  39.436  41.312   3.633
48647W        W16876  43.832  12.383   0.009
48648W        W16877  44.426  32.082   4.215
48649W        W16878  34.160  40.950   4.583
48650W        W16879  13.147  19.855   4.150
48651W        W16880  44.885   7.641   2.398
48652W        W16881  32.557   9.745   4.414
48653W        W16882  11.066  14.680   0.318
48654W        W16883  19.576  12.361   4.107
48655W        W16884  24.759   8.231   3.196
48656W        W16885  22.182  18.996   0.669
48657W        W16886  35.877  35.578  14.871
48658W        W16887  16.047   4.896  12.086
48659W        W16888  17.645  10.093  14.564
48660W        W16889   5.442   1.486  10.697
48661W        W16890  10.924  25.763   2.296
48662W        W16891  30.064  28.898  10.429
48663W        W16892   5.798   0.171   4.672
48664W        W16893   8.848  22.185   0.802
48665W        W16894  24.113  36.656   3.336
48666W        W16895  40.075  22.195   1.447
48667W        W16896   1.124  31.508  13.731
48668W        W16897  42.963  32.591   3.188
48669W        W16898  25.982  18.955   0.634
48670W        W16899  34.046  30.546   1.223
48671W        W16900  11.210   7.912   4.775
48672W        W16901  43.375   1.958   3.292
48673W        W16902  37.044  30.322   5.434
48674W        W16903  20.772  31.117   3.540
48675W        W16904  20.986  40.321   1.137
48676W        W16905  43.438  10.221  10.889
48677W        W16906  42.478  24.638  12.590
48678W        W16907  21.327  27.127   1.973
48679W        W16908   2.212  18.674   1.322
48680W        W16909  33.154  21.463  12.928
48681W        W16910  40.807  22.764   1.364
48682W        W16911  32.692  42.339  13.894
48683W        W16912  11.077  37.524  13.053
48684W        W16913   3.466   1.484   0.542
48685W        W16914  40.400  21.085   1.858
48686W        W16915   6.304   9.047  11.940
48687W        W16916   4.485  12.311   2.224
48688W        W16917  44.578  14.518  14.993
48689W        W16918  20.084   4.756   2.325
48690W        W16919   8.305  19.632  10.733
48691W        W16920  14.504  39.952  14.256
48692W        W16921  27.120  43.020  10.065
48693W        W16922  10.565  20.244   2.104
48694W        W16923  40.078  40.968  12.487
48695W        W16924  26.397  21.245  10.228
48696W        W16925   3.957  36.372  11.020
48697W        W16926   5.455  10.841   4.115
48698W        W16927  44.984   5.617  14.648
48699W        W16928  11.408  35.182   2.477
48700W        W16929  29.619  25.505  13.050
48701W        W16930  28.197  15.337  14.750
48702W        W16931   6.828  30.446   0.741
48703W        W16932   9.178  23.058  11.134
48704W        W16933  12.601  35.832  12.551
48705W        W16934  36.630  17.016   2.678
48706W        W16935   7.682  33.197  14.370
48707W        W16936   4.837  29.042  14.504
48708W        W16937  35.025   7.714  13.448
48709W        W16938  30.949  26.961  13.886
48710W        W16939  30.125   8.211   1.342
48711W        W16940  40.677  34.505  14.303
48712W        W16941  40.198  37.881  14.829
48713W        W16942  40.317   1.347  11.084
48714W        W16943  18.606  11.213  10.633
48715W        W16944   3.886   6.682   2.863
48716W        W16945  36.492  35.835  11.117
48717W        W16946  44.726  28.416   0.330
48718W        W16947  34.047  25.506  12.534
48719W        W16948  38.761  42.808   0.833
48720W        W16949  20.344  39.804   2.289
48721W        W16950  38.777  40.461  14.849
48722W        W16951   5.274   2.986  14.435
48723W        W16952   4.711  22.716  11.670
48724W        W16953  12.718  29.206  11.973
48725W        W16954  24.707  36.953  14.861
48726W        W16955  28.039  35.309   4.107
48727W        W16956   8.824  27.368   1.286
48728W        W16957  33.413  30.073  10.507
48729W        W16958  39.844  44.349   1.729
48730W        W16959  40.080  20.114   3.685
48731W        W16960  26.568  22.693  14.034
48732W        W16961   9.843  35.763   0.676
48733W        W16962  31.605  38.529  11.216
48734W        W16963   0.032  21.223  12.396
48735W        W16964  10.166   4.802   0.407
48736W        W16965  41.440  16.740   1.508
48737W        W16966  23.279  39.791  14.787
48738W        W16967  27.600  22.506  10.591
48739W        W16968  16.599  27.417  11.535
48740W        W16969  32.853  34.044  14.714
48741W        W16970  38.895  31.247   4.595
48742W        W16971  29.996   6.766   2.711
48743W        W16972  29.423   7.663  13.268
48744W        W16973  44.762   2.228   2.377
48745W        W16974  27.144  22.459  12.493
48746W        W16975  36.899  21.537   3.214
48747W        W16976   5.898   1.167  11.561
48748W        W16977  27.221  41.565  14.851
48749W        W16978  35.322  40.746  12.527
48750W        W16979   8.781  21.942   0.322
48751W        W16980  18.991  27.925   3.100
48752W        W16981   6.489   0.230   3.176
48753W        W16982   5.126  38.751  13.949
48754W        W16983  41.008  37.023   4.735
48755W        W16984   7.997  27.918   1.664
48756W        W16985  21.674  15.899   3.369
48757W        W16986  17.068   8.915   4.144
48758W        W16987  35.053  39.391   2.039
48759W        W16988  37.980  22.088   4.479
48760W        W16989  18.068  23.831  13.458
48761W        W16990  29.435  29.022  14.217
48762W        W16991   5.967  21.334  12.055
48763W        W16992   0.225   1.255   1.394
48764W        W16993   5.341  19.664  13.762
48765W        W16994   2.293  20.733   4.366
48766W        W16995  35.127  12.833  13.421
48767W        W16996  30.037  41.187  12.451
48768W        W16997  19.071  44.985   3.799
48769W        W16998  14.302  35.109   3.181
48770W        W16999  24.553  16.995  13.671
48771W        W17000  31.527  43.528  14.297
48772W        W17001  22.053   4.386  13.978
48773W        W17002  40.840  38.787  12.770
48774W        W17003  32.529  24.533   0.189
48775W        W17004  37.212  20.989   4.558
48776W        W17005  18.204  37.599  13.825
48777W        W17006  14.350  25.057   3.759
48778W        W17007   4.237  16.332  12.481
48779W        W17008   3.711  26.040   1.906
48780W        W17009   6.120   8.931  10.794
48781W        W17010  41.877  16.199  11.150
48782W        W17011   7.430  42.936   3.776
48783W        W17012   7.738  22.703  10.802
48784W        W17013  30.468  37.530   3.355
48785W        W17014  40.322  33.838  11.145
48786W        W17015  25.208  38.519  12.078
48787W        W17016  10.736  22.179   3.734
48788W        W17017   1.469  24.246  13.124
48789W        W17018  37.768   7.819   1.891
48790W        W17019   6.885  42.753   2.766
48791W        W17020  42.338  19.786  13.435
48792W        W17021  43.815  38.401  11.975
48793W        W17022  12.078  37.476   3.458
48794W        W17023  14.225  24.215  14.466
48795W        W17024   5.389  39.423  13.370
48796W        W17025   1.052   8.517  14.708
48797W        W17026   8.422   0.169   3.361
48798W        W17027  12.715  36.479   3.648
48799W        W17028   3.113  22.186  13.134
48800W        W17029  36.413  28.205  10.334
48801W        W17030  28.962  31.675   1.792
48802W        W17031  27.101  41.587  10.834
48803W        W17032  34.679  42.970  11.646
48804W        W17033  17.293  32.445  12.366
48805W        W17034  37.534   1.296  11.273
48806W        W17035  16.086  21.020   3.715
48807W        W17036  18.825  36.439  10.641
48808W        W17037  19.408  24.051   9.711
48809W        W17038  27.467  30.134  11.434
48810W        W17039  36.031  18.255   4.609
48811W        W17040  17.921  43.987  14.243
48812W        W17041  10.650   0.868  14.218
48813W        W17042  34.796   8.489   4.231
48814W        W17043   0.164  40.301   2.161
48815W        W17044  11.579   9.857  10.654
48816W        W17045  39.987  39.553  14.620
48817W        W17046  11.094  23.546   4.222
48818W        W17047   0.851  32.852   1.398
48819W        W17048  23.128  16.856   2.734
48820W        W17049  13.711  23.989   0.381
48821W        W17050  25.559  19.067  11.208
48822W        W17051  32.818  26.529  14.830
48823W        W17052  10.253  33.330  10.320
48824W        W17053  13.289  18.306   1.913
48825W        W17054  10.678  30.696   1.653
48826W        W17055  28.652  13.977  12.907
48827W        W17056  17.378   2.043   1.567
48828W        W17057  24.354  37.114   5.134
48829W        W17058   7.221  30.239  14.535
48830W        W17059  23.549  16.123   2.367
48831W        W17060  13.420  41.816  13.989
48832W        W17061   6.231  40.789   3.353
48833W        W17062  30.461   4.270  14.437
48834W        W17063   9.910  43.936  12.553
48835W        W17064  18.133  11.166  13.944
48836W        W17065  24.365  23.644   3.260
48837W        W17066   3.028  42.407  14.812
48838W        W17067  11.488  23.875  13.315
48839W        W17068  25.492  38.291  11.072
48840W        W17069  16.251  42.870   4.305
48841W        W17070  16.208  32.019  14.922
48842W        W17071   9.651   0.156  14.368
48843W        W17072  25.332   8.923  13.071
48844W        W17073  26.167  11.666   3.622
48845W        W17074   7.221  12.676  11.120
48846W        W17075  13.626  17.503   1.376
48847W        W17076   8.201  14.034  13.969
48848W        W17077   1.209  30.663  12.159
48849W        W17078  38.050  37.985   3.370
48850W        W17079  21.435  43.272   0.229
48851W        W17080   1.858  43.557   3.843
48852W        W17081  26.317   9.644   3.808
48853W        W17082  32.967   8.767  10.747
48854W        W17083   2.192  42.844   1.716
48855W        W17084  38.327  34.488  11.301
48856W        W17085  13.554  11.240   2.209
48857W        W17086  17.857   2.894  12.893
48858W        W17087  14.058   7.965   3.602
48859W        W17088  30.103  16.499   1.259
48860W        W17089  42.372  38.537   1.371
48861W        W17090   8.276   5.783   3.233
48862W        W17091  18.624  10.970  11.641
48863W        W17092  16.514  25.697   5.000
48864W        W17093  20.635  40.021  11.617
48865W        W17094  37.079  14.707   1.429
48866W        W17095  24.165   0.041  14.180
48867W        W17096  14.322  27.150  13.753
48868W        W17097  26.464   8.218  14.885
48869W        W17098  15.873  41.496  14.281
48870W        W17099  31.772  25.149   4.296
48871W        W17100  30.402  40.524   4.177
48872W        W17101  38.861  30.194   3.995
48873W        W17102  29.121  34.830   4.665
48874W        W17103   3.352   7.159   2.252
48875W        W17104  37.408  17.389   4.186
48876W        W17105  17.479  27.550   1.778
48877W        W17106  40.844   4.963  13.806
48878W        W17107  14.665  14.374  13.451
48879W        W17108  43.853  15.106   0.762
48880W        W17109  37.430  18.177  11.942
48881W        W17110  30.578  44.220  10.416
48882W        W17111   7.443  37.985  12.698
48883W        W17112  30.657  20.573  13.901
48884W        W17113  17.561   6.614  10.750
48885W        W17114   4.195  12.282  13.909
48886W        W17115  10.833  36.606   4.630
48887W        W17116  15.182   6.438   4.088
48888W        W17117  39.182  43.463   3.769
48889W        W17118   0.361   3.743   4.408
48890W        W17119  43.700  43.471  11.491
48891W        W17120  19.794   9.401  12.167
48892W        W17121  20.668  35.019   4.081
48893W        W17122  30.189  15.484   3.299
48894W        W17123  37.996  41.373  13.557
48895W        W17124  37.577  21.832   0.743
48896W        W17125   1.340  15.300  10.952
48897W        W17126  32.673   7.773  13.007
48898W        W17127  35.892  22.827  11.221
48899W        W17128  30.048  25.021   0.347
48900W        W17129  37.401   6.616  14.841
48901W        W17130   1.201  34.545   2.371
48902W        W17131  44.939  24.058  12.981
48903W        W17132  17.275  27.665  13.024
48904W        W17133  35.473  24.720   1.774
48905W        W17134  17.279  19.770  12.053
48906W        W17135  19.981  19.800  14.897
48907W        W17136  19.818  42.344   3.545
48908W        W17137   4.693  28.226  12.464
48909W        W17138  12.690  35.418  11.278
48910W        W17139  44.709  12.617   1.346
48911W        W17140  31.203   3.207   3.170
48912W        W17141  28.002  17.556   1.463
48913W        W17142  41.305   7.645  14.842
48914W        W17143   6.918  11.909  12.907
48915W        W17144  44.112  26.691  13.146
48916W        W17145  10.620  27.241   2.401
48917W        W17146  44.328   0.986   3.094
48918W        W17147   7.710  19.881  14.339
48919W        W17148  35.975  44.008   2.831
48920W        W17149  21.121  10.631   1.640
48921W        W17150  38.319  23.819   0.369
48922W        W17151   6.321   0.790   2.371
48923W        W17152  28.379  11.637  13.698
48924W        W17153  14.776   3.706  12.983
48925W        W17154  23.498  34.504   2.326
48926W        W17155  44.259  11.452  11.823
48927W        W17156  34.506   6.194   0.054
48928W        W17157  25.479   5.862   3.591
48929W        W17158  31.743   0.341  12.520
48930W        W17159  32.649   9.270   1.018
48931W        W17160   8.971   9.161   3.658
48932W        W17161  41.776  31.653  14.582
48933W        W17162  14.107  35.075   0.753
48934W        W17163  42.582   5.985  13.038
48935W        W17164  27.164  32.087  13.801
48936W        W17165  30.595  31.256   4.716
48937W        W17166  35.487   8.794  11.647
48938W        W17167  19.428   7.327   1.221
48939W        W17168  16.184   9.180   4.271
48940W        W17169  35.471   6.401  13.637
48941W        W17170  36.778   6.462   2.723
48942W        W17171  26.523  34.812   0.365
48943W        W17172   7.415   5.977   1.936
48944W        W17173  30.971   7.228  10.659
48945W        W17174   2.705  10.642   0.449
48946W        W17175  41.284  43.909  13.996
48947W        W17176  29.087  18.022   2.777
48948W        W17177  18.670   7.888   3.811
48949W        W17178  31.067  32.040  10.551
48950W        W17179  18.156  14.767  10.763
48951W        W17180  37.870   3.498   0.426
48952W        W17181  20.478   0.311   0.813
48953W        W17182   7.911  37.374  14.189
48954W        W17183  16.063  14.177  10.957
48955W        W17184  36.036  22.616  10.761
48956W        W17185   5.978  25.499   1.369
48957W        W17186  21.195  11.377   1.227
48958W        W17187  41.926  30.537   4.069
48959W        W17188  32.443  31.567   5.010
48960W        W17189  35.569   0.559   0.408
48961W        W17190  17.150   6.740   3.183
48962W        W17191  40.276  31.754  13.026
48963W        W17192  27.951   5.864   2.185
48964W        W17193  20.729   3.025  12.155
48965W        W17194  33.145  28.762  12.346
48966W        W17195  26.588   5.530   5.045
48967W        W17196  34.089   7.755   3.201
48968W        W17197  13.093  17.997   3.674
48969W        W17198  20.430  35.832  12.141
48970W        W17199  18.158   6.403  14.015
48971W        W17200  18.733  27.955   3.814
48972W        W17201  13.572  12.765  13.960
48973W        W17202   1.137  44.402  14.289
48974W        W17203  13.276   9.204  13.410
48975W        W17204  20.736  32.981   2.884
48976W        W17205  37.806   3.974  11.946
48977W        W17206  11.245  13.244   2.695
48978W        W17207  11.929  35.778   3.481
48979W        W17208  36.940  20.990   1.190
48980W        W17209  36.308  33.503  12.510
48981W        W17210  12.090  26.715   2.845
48982W        W17211   5.239  43.432   4.441
48983W        W17212  11.694   7.633   4.832
48984W        W17213  26.804  24.220  13.243
48985W        W17214  37.848  13.379  10.729
48986W        W17215  14.051   6.415   3.874
48987W        W17216  29.716  22.107   2.584
48988W        W17217  16.329  34.387   1.766
48989W        W17218   8.150  23.484  13.779
48990W        W17219  29.681  38.644   1.584
48991W        W17220  12.797   4.953   1.420
48992W        W17221  31.476  13.864   4.656
48993W        W17222  27.960   3.614   3.504
48994W        W17223  28.194  22.047  13.589
48995W        W17224  34.913  36.453   3.782
48996W        W17225  31.590  14.195  10.621
48997W        W17226  36.340  41.055  12.914
48998W        W17227  38.796  13.212  12.121
48999W        W17228  22.451  17.290   1.267
49000W        W17229  18.356   1.765  11.495
49001W        W17230   2.638  43.976   2.204
49002W        W17231  14.263   5.033   0.297
49003W        W17232   5.394   3.954  10.381
49004W        W17233   8.251  23.191   1.771
49005W        W17234  34.061  33.938   1.433
49006W        W17235  36.421   6.925  13.980
49007W        W17236  28.518   7.159  13.529
49008W        W17237  41.414  34.992  14.843
49009W        W17238  26.958   5.713   2.524
49010W        W17239  34.170   5.729  13.571
49011W        W17240   6.268  10.249   0.075
49012W        W17241  42.302   3.620   1.305
49013W        W17242   7.445  25.566  11.663
49014W        W17243   1.292  29.503   2.455
49015W        W17244  44.886   6.139  13.954
49016W        W17245  22.971   2.648  11.810
49017W        W17246  28.691  30.513   3.145
49018W        W17247   7.464  32.538   2.165
49019W        W17248  13.759  20.986  10.672
49020W        W17249  34.112  43.650   3.278
49021W        W17250  25.215   5.877   4.068
49022W        W17251  43.116  30.696   0.091
49023W        W17252  34.694  41.741  13.162
49024W        W17253  35.394  28.351  13.744
49025W        W17254   4.941   6.870   1.735
49026W        W17255  32.559  15.663  14.913
49027W        W17256  25.113  12.340  13.361
49028W        W17257   3.920  41.491   0.947
49029W        W17258  41.050  41.269  14.393
49030W        W17259  37.350  33.409   2.840
49031W        W17260  21.537   1.715  11.093
49032W        W17261   6.460  33.457   3.553
49033W        W17262  13.799  17.132  14.281
49034W        W17263   4.175   8.324   0.845
49035W        W17264  42.546   9.466   3.196
49036W        W17265  25.987  21.708  10.865
49037W        W17266  40.798   0.811  11.779
49038W        W17267  10.467  33.646   1.152
49039W        W17268  30.212  22.212   2.522
49040W        W17269   1.846  33.148   9.697
49041W        W17270   2.886  33.578   1.361
49042W        W17271  33.841  12.637  12.896
49043W        W17272  19.901  39.446   1.256
49044W        W17273  44.438  37.457  10.723
49045W        W17274   9.949  17.302   1.343
49046W        W17275  24.863  42.265   1.378
49047W        W17276  12.679  11.665  12.032
49048W        W17277   4.630   2.903  13.371
49049W        W17278  39.640   8.017  14.451
49050W        W17279  16.292   1.785   2.490
49051W        W17280  23.083  33.405  14.436
49052W        W17281  38.876  35.788   3.204
49053W        W17282  31.719  34.494  12.002
49054W        W17283   8.067  21.079  13.775
49055W        W17284  33.894  32.383   0.537
49056W        W17285  10.650  37.289  14.227
49057W        W17286  44.066   7.106  11.205
49058W        W17287  32.830  29.722   2.315
49059W        W17288  41.905   5.254   3.032
49060W        W17289  15.227  14.682  14.740
49061W        W17290   2.242  22.460  13.749
49062W        W17291  42.211   9.407  10.759
49063W        W17292  33.054   0.921  10.570
49064W        W17293  23.461  44.803  14.774
49065W        W17294   5.996  33.336   3.380
49066W        W17295   3.516  31.912  14.457
49067W        W17296  13.062   6.732   2.593
49068W        W17297  41.081  14.777   4.127
49069W        W17298  12.773  21.946   3.746
49070W        W17299  32.326  22.740  11.096
49071W        W17300  34.075   8.145  10.504
49072W        W17301  34.114  18.382  12.067
49073W        W17302  10.089  38.568  12.434
49074W        W17303  42.852  11.432  11.215
49075W        W17304  24.181  30.660  13.564
49076W        W17305  42.045  28.523  12.613
49077W        W17306  41.551  19.274  14.449
49078W        W17307  16.351   1.452  13.802
49079W        W17308  26.940  21.366   1.378
49080W        W17309  43.484  44.718  11.658
49081W        W17310  22.718  34.995  12.867
49082W        W17311  23.495  41.501   0.979
49083W        W17312  26.097  14.815   9.777
49084W        W17313   3.398  23.769  10.658
49085W        W17314  17.588   1.878  11.163
49086W        W17315   2.716  36.254  11.197
49087W        W17316  16.644  21.210   9.679
49088W        W17317  37.561  26.430   4.324
49089W        W17318  43.381   7.203  12.532
49090W        W17319   1.964   4.733   2.303
49091W        W17320  38.365   0.122   1.680
49092W        W17321  21.693  25.738  11.891
49093W        W17322  11.664  12.689   1.230
49094W        W17323   3.446  42.586   3.897
49095W        W17324   2.272  37.147  10.722
49096W        W17325   0.118  14.486   4.093
49097W        W17326  14.749  26.562  12.487
49098W        W17327  11.815  12.537  14.769
49099W        W17328  32.339  18.138   3.224
49100W        W17329  38.664   3.326   0.817
49101W        W17330   2.440  37.396   4.129
49102W        W17331  16.366  30.847  13.417
49103W        W17332   2.768  31.929  13.977
49104W        W17333  35.857  21.793  11.165
49105W        W17334  33.454  42.517   4.602
49106W        W17335  32.685  28.630   4.429
49107W        W17336  31.102   3.691   4.053
49108W        W17337  24.467  14.804   0.531
49109W        W17338  25.117   2.722   2.246
49110W        W17339  34.311  24.563  12.885
49111W        W17340  24.976  14.702  14.315
49112W        W17341  36.195   1.984   0.334
49113W        W17342  36.693   9.777  13.500
49114W        W17343   1.689   2.462  13.933
49115W        W17344  26.194  36.193   9.840
49116W        W17345  29.734   6.866   0.838
49117W        W17346  37.067  12.751  13.821
49118W        W17347  13.787  10.581   4.242
49119W        W17348  20.816  42.904   4.350
49120W        W17349  20.300  34.249   1.421
49121W        W17350  33.887  14.323  12.833
49122W        W17351  41.705  38.451  11.260
49123W        W17352  41.793  19.431   2.790
49124W        W17353  19.695  20.544   0.883
49125W        W17354  40.434   6.431   1.848
49126W        W17355   0.539  43.777  10.647
49127W        W17356  38.998  14.831  13.389
49128W        W17357  42.940  31.000   2.863
49129W        W17358  28.585   8.026   3.256
49130W        W17359  14.371  26.927   4.570
49131W        W17360  13.076  17.540  12.563
49132W        W17361   1.380  39.302  12.505
49133W        W17362  19.164  19.111  13.681
49134W        W17363  21.855  30.007  12.377
49135W        W17364   2.455  29.073   3.242
49136W        W17365  27.185   4.391   4.294
49137W        W17366  25.468  43.483  12.164
49138W        W17367   4.741   3.386  10.582
49139W        W17368  31.823   2.324  14.418
49140W        W17369  11.237  29.476  12.924
49141W        W17370  19.937  13.947  10.352
49142W        W17371  22.929   7.597   2.699
49143W        W17372  24.988  19.555   3.289
49144W        W17373   5.797  15.361   0.893
49145W        W17374  24.859   3.995  14.082
49146W        W17375  44.142   4.952  14.975
49147W        W17376  14.713  41.982   3.381
49148W        W17377  42.489  26.765  11.086
49149W        W17378  21.675  43.305   1.205
49150W        W17379  35.640  22.278   4.326
49151W        W17380  11.736  15.785   1.874
49152W        W17381  44.940   6.617  11.919
49153W        W17382  17.694  41.248   0.454
49154W        W17383   3.685  36.826  11.992
49155W        W17384  19.629   4.291  11.906
49156W        W17385   5.540  20.341   3.764
49157W        W17386  27.714   3.457  11.938
49158W        W17387  25.525  44.966   0.823
49159W        W17388  11.747  30.926  12.602
49160W        W17389  38.416  17.554   4.213
49161W        W17390  31.390  15.897   1.363
49162W        W17391   0.953  41.042   1.958
49163W        W17392  37.586  42.875   4.392
49164W        W17393  36.838   2.628   1.327
49165W        W17394   5.538   3.847   1.924
49166W        W17395  11.536  23.741  12.501
49167W        W17396  12.642  14.471  13.037
49168W        W17397  17.672  31.437  14.597
49169W        W17398  33.362  26.856  12.573
49170W        W17399  40.118  36.639  10.805
49171W        W17400  15.723   7.130   4.147
49172W        W17401  37.019  16.037   2.277
49173W        W17402  42.952  34.352  10.126
49174W        W17403  22.441  24.972  14.831
49175W        W17404  26.760  29.927   4.999
49176W        W17405  11.547  27.083   3.107
49177W        W17406   7.876   5.379   3.209
49178W        W17407  27.981  41.428   2.242
49179W        W17408  34.686  44.474  12.848
49180W        W17409  34.356  28.515   1.326
49181W        W17410  18.860   8.133  14.499
49182W        W17411  22.693   4.284  14.889
49183W        W17412  39.784  31.901  13.095
49184W        W17413  40.830  37.227   3.512
49185W        W17414  19.796  11.918   3.951
49186W        W17415   1.377  15.265   4.381
49187W        W17416  10.135   1.969  12.879
49188W        W17417  29.244   3.830   2.438
49189W        W17418  19.634  15.813   4.798
49190W        W17419  25.268  22.018   2.693
49191W        W17420  26.046  28.136   0.265
49192W        W17421  30.474  41.403  12.389
49193W        W17422   7.636  44.466  12.486
49194W        W17423  36.060  26.938   2.926
49195W        W17424  43.791  16.785   0.049
49196W        W17425  32.347  34.470   3.184
49197W        W17426  33.090  20.989  14.338
49198W        W17427  26.199   8.654  14.230
49199W        W17428   7.170  24.294   0.805
49200W        W17429  28.840   7.694  10.693
49201W        W17430  31.403  15.410   0.761
49202W        W17431  37.513  44.637   1.856
49203W        W17432   7.257  44.344  12.835
49204W        W17433  16.665  33.854  12.197
49205W        W17434  36.405  40.349   1.286
49206W        W17435  33.334   1.435   4.666
49207W        W17436   4.970  16.359  12.073
49208W        W17437  17.662  43.974   1.309
49209W        W17438  29.030   0.427  14.322
49210W        W17439  36.903  27.059  12.701
49211W        W17440  42.780  24.291   5.025
49212W        W17441   5.323  35.757  13.715
49213W        W17442  32.893  28.983   2.801
49214W        W17443  38.545  15.652   3.614
49215W        W17444   1.779  13.063   2.308
49216W        W17445   8.232  22.320  14.997
49217W        W17446  18.688  29.957  10.451
49218W        W17447   0.291   2.707   0.327
49219W        W17448  36.581   1.813   2.648
49220W        W17449  38.032  12.305   3.340
49221W        W17450  21.280  28.002   4.882
49222W        W17451  38.470  15.485  11.894
49223W        W17452  28.979  10.435   4.476
49224W        W17453  15.627  11.308   3.720
49225W        W17454  37.868  33.434   0.119
49226W        W17455  27.400  17.348  12.383
49227W        W17456  34.609  21.493   0.757
49228W        W17457  34.691  25.054  12.133
49229W        W17458  41.851  31.809  14.069
49230W        W17459   1.716  29.621   1.141
49231W        W17460  27.106  44.901   0.777
49232W        W17461  39.578  25.873   0.027
49233W        W17462  22.730  20.483  14.517
49234W        W17463  11.752   1.824   2.154
49235W        W17464  30.563  37.474   1.294
49236W        W17465  16.384  35.323   2.268
49237W        W17466   3.399  40.336  12.998
49238W        W17467  35.533  30.873   2.863
49239W        W17468  11.551  26.170  12.580
49240W        W17469   5.296  27.449   3.818
49241W        W17470   3.662  37.960   2.196
49242W        W17471  25.870  32.846   2.333
49243W        W17472   0.079  44.516   2.093
49244W        W17473  37.560  24.691  11.117
49245W        W17474  11.208  30.543   2.311
49246W        W17475  26.925   0.238   4.038
49247W        W17476  18.102  43.618  13.851
49248W        W17477  27.885  20.606  10.772
49249W        W17478  31.579  26.620  10.773
49250W        W17479  18.171  44.873  14.256
49251W        W17480  37.398  33.974   4.575
49252W        W17481  40.817  43.255  11.927
49253W        W17482  25.659  21.005   1.315
49254W        W17483  41.991  11.097  12.561
49255W        W17484  43.834  44.370  12.280
49256W        W17485  15.988  10.948   2.989
49257W        W17486  33.430   0.523  10.609
49258W        W17487  37.770  20.254   0.452
49259W        W17488   3.196  22.479   1.462
49260W        W17489  37.453  19.700   0.604
49261W        W17490  41.467   8.487  14.465
49262W        W17491  24.636   4.716   1.301
49263W        W17492  38.966  30.112   1.370
49264W        W17493  25.576   8.048   2.545
49265W        W17494   7.734  30.591   4.601
49266W        W17495  13.912   5.183  13.773
49267W        W17496  40.755  28.907   3.286
49268W        W17497  23.995  44.757   2.197
49269W        W17498   4.451   2.214   3.778
49270W        W17499  36.583  39.505  11.665
49271W        W17500   9.103  40.381   0.237
49272W        W17501  11.937   6.029   3.845
49273W        W17502  16.348  26.532  14.355
49274W        W17503  27.587   1.195   0.848
49275W        W17504  25.904  41.968  11.989
49276W        W17505   6.817  21.729   3.410
49277W        W17506  17.834  42.243  13.857
49278W        W17507  20.442  28.671   0.010
49279W        W17508  26.188  29.674   1.761
49280W        W17509  13.923   1.561  14.025
49281W        W17510  36.501   8.297  14.536
49282W        W17511  27.058  13.667   0.006
49283W        W17512  41.326   5.166   3.625
49284W        W17513  33.834  32.029   2.796
49285W        W17514  26.864  18.499  10.894
49286W        W17515  27.666  16.274   3.625
49287W        W17516  30.569   7.543  10.437
49288W        W17517   2.492  20.036  11.020
49289W        W17518  42.567  19.545   0.188
49290W        W17519  32.860  22.032  10.937
49291W        W17520  20.562  23.159  13.123
49292W        W17521  35.697  18.465  11.369
49293W        W17522  15.209  10.923  12.257
49294W        W17523  41.341  26.878  14.866
49295W        W17524  43.363  22.271  10.270
49296W        W17525  16.357  25.246   2.926
49297W        W17526  17.328  38.291  11.603
49298W        W17527  38.422  33.168   3.152
49299W        W17528  42.641  10.514   1.736
49300W        W17529  10.174  39.204   5.049
49301W        W17530  18.406   9.893   0.529
49302W        W17531   0.702  37.975   3.234
49303W        W17532  14.341  14.673   4.148
49304W        W17533   6.216  20.181   3.213
49305W        W17534  22.430  11.413   3.621
49306W        W17535   1.843  12.237   3.081
49307W        W17536   1.886  24.060  11.739
49308W        W17537   8.412  41.356  11.974
49309W        W17538  23.596  23.700  14.041
49310W        W17539  43.770  23.717  14.054
49311W        W17540   8.797  42.995  11.654
49312W        W17541  17.820  14.614  12.451
49313W        W17542  43.341   0.188  11.458
49314W        W17543   1.219  33.053  11.939
49315W        W17544  35.056  10.654  10.896
49316W        W17545  14.661   3.305  11.261
49317W        W17546  12.696  11.910  14.043
49318W        W17547  20.584  16.821   2.811
49319W        W17548  44.368  43.335   2.765
49320W        W17549  24.649  26.032   2.337
49321W        W17550  40.886  42.494  11.670
49322W        W17551  32.390  32.058  11.029
49323W        W17552  22.540  32.737   3.058
49324W        W17553  17.081  16.191  10.233
49325W        W17554  41.479  29.599   9.808
49326W        W17555  39.076  39.662  14.457
49327W        W17556  39.503  28.186   1.599
49328W        W17557   9.072   2.313   4.123
49329W        W17558  24.675  29.109   4.674
49330W        W17559  34.915   7.269  11.286
49331W        W17560  10.853  11.672  12.508
49332W        W17561  32.115  29.891  14.366
49333W        W17562  38.979   2.688   2.279
49334W        W17563   6.898  25.545   4.293
49335W        W17564   2.929   5.014   2.296
49336W        W17565  31.894  13.311  12.548
49337W        W17566   6.708  18.524   2.850
49338W        W17567  11.217  13.016  13.418
49339W        W17568   0.016  36.274   0.699
49340W        W17569  40.752  19.221   4.059
49341W        W17570  44.304  40.542   4.806
49342W        W17571  44.047  11.195   0.006
49343W        W17572  14.240  11.207   4.316
49344W        W17573   5.827  15.616  13.285
49345W        W17574  22.769   9.889   2.649
49346W        W17575  30.820   7.725   0.870
49347W        W17576  25.271  38.565  14.887
49348W        W17577  37.940   9.334  10.985
49349W        W17578  30.196  10.110   3.708
49350W        W17579  22.847   3.357  10.675
49351W        W17580  12.324   1.918   3.328
49352W        W17581  25.106   7.859  14.761
49353W        W17582  37.290  21.587   0.400
49354W        W17583  42.123  18.516   4.105
49355W        W17584  31.106  11.947  12.164
49356W        W17585  22.923  10.626  14.051
49357W        W17586  38.094  11.671   2.673
49358W        W17587  43.781  41.878   0.710
49359W        W17588  15.786  19.658  12.934
49360W        W17589  15.530  15.249  12.746
49361W        W17590  31.882  20.758  12.476
49362W        W17591  16.293  42.780  12.623
49363W        W17592  22.867  30.362  12.290
49364W        W17593  34.074  26.517   0.023
49365W        W17594  16.317   1.237   1.814
49366W        W17595  36.604  37.885  14.021
49367W        W17596  32.540  27.946  13.320
49368W        W17597  26.603  14.255   2.515
49369W        W17598  28.849   0.316   0.247
49370W        W17599  37.413  10.665  11.479
49371W        W17600   7.398  43.833   4.584
49372W        W17601  44.698  13.242   0.541
49373W        W17602  21.166  24.039  13.299
49374W        W17603  26.502   1.723   2.762
49375W        W17604  27.937  23.978   1.296
49376W        W17605  24.066  31.619  10.409
49377W        W17606  27.520   5.367  10.859
49378W        W17607  38.924  29.366   9.935
49379W        W17608   5.929  44.469  12.141
49380W        W17609  36.624   8.425  12.823
49381W        W17610  21.008  18.241  13.590
49382W        W17611  39.578  38.354   3.062
49383W        W17612  26.615   1.484   1.421
49384W        W17613   6.941  17.152   3.246
49385W        W17614  41.148  16.505   1.153
49386W        W17615  33.776  26.024   5.013
49387W        W17616  14.422  42.023  10.775
49388W        W17617  42.334  29.528   4.774
49389W        W17618   6.966   4.829   3.922
49390W        W17619  29.810   3.529   1.411
49391W        W17620  10.199  29.600  14.892
49392W        W17621   9.858  37.911  12.990
49393W        W17622  39.244  37.080   3.734
49394W        W17623  40.220  27.836   3.118
49395W        W17624  31.601  31.067   0.294
49396W        W17625   5.690  39.728   3.302
49397W        W17626  31.715  40.559  11.558
49398W        W17627   4.033  32.899  14.286
49399W        W17628  38.336   6.714   4.425
49400W        W17629  26.740  29.519  13.867
49401W        W17630  23.389  39.544  11.753
49402W        W17631  37.832  13.876  14.936
49403W        W17632   5.873  35.119  13.050
49404W        W17633  22.192  12.596   3.905
49405W        W17634  43.377   6.223   4.347
49406W        W17635  12.831  19.689  13.362
49407W        W17636  39.358   4.429   0.269
49408W        W17637  11.790  29.520   4.613
49409W        W17638  32.100   8.447   0.957
49410W        W17639  34.192  43.384  11.203
49411W        W17640  38.858  25.404  10.650
49412W        W17641   6.687  23.573   4.263
49413W        W17642  17.576  23.874  12.200
49414W        W17643  21.865   0.471  14.469
49415W        W17644  34.865   8.219   4.705
49416W        W17645  10.298   5.288   0.915
49417W        W17646  34.457  39.577  12.323
49418W        W17647  18.589   9.334  13.562
49419W        W17648   5.085  28.053  14.295
49420W        W17649  13.193  12.209   4.111
49421W        W17650  16.267  26.148   4.942
49422W        W17651  42.965   9.442  12.796
49423W        W17652  33.874  10.739  12.358
49424W        W17653   3.005  30.608   1.755
49425W        W17654  26.766   6.674  12.488
49426W        W17655   4.729  41.924   3.637
49427W        W17656  37.275  44.309  10.765
49428W        W17657  44.560  39.934   0.764
49429W        W17658  27.624   4.343   4.572
49430W        W17659  13.035   6.214   0.939
49431W        W17660  17.559  18.747  13.293
49432W        W17661  26.108   8.905   2.755
49433W        W17662   4.311  24.177  10.444
49434W        W17663   3.806  26.582   3.840
49435W        W17664   6.453  19.095   3.587
49436W        W17665  11.287  17.873   2.320
49437W        W17666  44.067  31.493  13.395
49438W        W17667  28.010  21.243   0.760
49439W        W17668  41.002   3.343  13.927
49440W        W17669  36.334  38.294  13.869
49441W        W17670  29.633  23.054  12.249
49442W        W17671  44.571  11.670   0.339
49443W        W17672  23.675  35.592  12.061
49444W        W17673  19.876  26.098  14.536
49445W        W17674  11.062  22.201   4.754
49446W        W17675  18.065  18.582  11.193
49447W        W17676  44.678  43.021  13.572
49448W        W17677   2.391  34.589  13.091
49449W        W17678  42.469  33.834   0.771
49450W        W17679  22.422   8.833   2.897
49451W        W17680  14.752  12.610   3.694
49452W        W17681  32.251  12.189   0.922
49453W        W17682   7.668  36.413   2.325
49454W        W17683  31.832  23.008  14.700
49455W        W17684   2.736  16.157   2.679
49456W        W17685  41.566  36.410  14.348
49457W        W17686  10.593  20.630   2.621
49458W        W17687  10.785   8.354   3.765
49459W        W17688  19.407  37.138   3.360
49460W        W17689   6.932   5.680   0.507
49461W        W17690  16.178  26.145  12.741
49462W        W17691  39.774   6.137  10.653
49463W        W17692  44.027  38.365  10.412
49464W        W17693  16.712  20.734   4.988
49465W        W17694  36.329  26.120  11.358
49466W        W17695  26.210  36.541  10.223
49467W        W17696  41.072   0.326  14.799
49468W        W17697  10.850  37.866  11.993
49469W        W17698   4.213  41.426   1.967
49470W        W17699  37.396  15.176   2.923
49471W        W17700  11.082  26.670   4.550
49472W        W17701   1.241  28.058  13.457
49473W        W17702   4.003  14.248   5.063
49474W        W17703   7.241  16.956  12.019
49475W        W17704  21.286   1.603   2.685
49476W        W17705  44.863   7.200   2.093
49477W        W17706  21.262  35.758  12.957
49478W        W17707  25.747  38.190  12.483
49479W        W17708   1.934  15.656  12.246
49480W        W17709  29.953  22.400  13.534
49481W        W17710  26.197  28.676   1.014
49482W        W17711  14.124  33.110   1.684
49483W        W17712  18.004  13.716   1.982
49484W        W17713   1.337   1.896   2.320
49485W        W17714   7.829   2.111   3.763
49486W        W17715   7.167  32.572  13.069
49487W        W17716  24.161  16.242  14.299
49488W        W17717  28.975   0.365   4.091
49489W        W17718  31.378   4.867  11.317
49490W        W17719  17.667  25.036   0.292
49491W        W17720  25.650  39.407  12.911
49492W        W17721  28.677  16.674  10.554
49493W        W17722  40.758  30.575  14.384
49494W        W17723  32.563  11.785  14.428
49495W        W17724  16.280  18.296  14.814
49496W        W17725   8.741   3.716  14.841
49497W        W17726  42.801  38.261   1.249
49498W        W17727   7.343  42.245  14.899
49499W        W17728  24.963   2.364  10.622
49500W        W17729  17.893  39.471  13.464
49501W        W17730  23.732  24.085  11.219
49502W        W17731   2.258  33.365  13.824
49503W        W17732   9.638  13.068   1.143
49504W        W17733  23.588  10.644  11.450
49505W        W17734   9.391  34.991  11.521
49506W        W17735  39.470  32.658  13.662
49507W        W17736  34.864  13.084   2.238
49508W        W17737  12.323  31.981   0.906
49509W        W17738   5.108  16.296  13.994
49510W        W17739   1.365  25.188  10.588
49511W        W17740  33.060  31.410  13.951
49512W        W17741  44.236  39.471  11.558
49513W        W17742  12.340  13.328   4.729
49514W        W17743  33.503   8.095  12.958
49515W        W17744  18.096   4.848  11.776
49516W        W17745  26.982  34.118  13.719
49517W        W17746  44.996   2.430   1.966
49518W        W17747  22.929  18.629  12.477
49519W        W17748  19.247  18.485  10.686
49520W        W17749  32.461  29.053   3.705
49521W        W17750   5.882  23.295   4.114
49522W        W17751  30.747   2.479  10.743
49523W        W17752   3.781  41.302  14.039
49524W        W17753  34.705  17.324   5.069
49525W        W17754  18.314  31.857   0.954
49526W        W17755  22.017   6.084   2.150
49527W        W17756  37.817  43.532   1.259
49528W        W17757  15.840  13.249  14.937
49529W        W17758  42.255  28.040  10.733
49530W        W17759  22.650  13.249   0.239
49531W        W17760  16.703   9.319   4.262
49532W        W17761  38.323  27.502   4.098
49533W        W17762  36.036  15.671   1.734
49534W        W17763  28.174  10.553   4.915
49535W        W17764   3.350  31.859   2.321
49536W        W17765  21.586  26.173  11.224
49537W        W17766  17.771  11.659   4.166
49538W        W17767  31.523  27.084   4.775
49539W        W17768  37.485  37.115   2.887
49540W        W17769  34.605  11.030  14.846
49541W        W17770   9.192  33.898   3.211
49542W        W17771  31.754  15.245  14.333
49543W        W17772   4.000  35.865   2.358
49544W        W17773  42.568  22.242   3.257
49545W        W17774  35.464  41.119  11.117
49546W        W17775  28.054  14.894  12.039
49547W        W17776  15.271  31.306  14.796
49548W        W17777  43.401  21.059  10.118
49549W        W17778  21.220  15.521  12.122
49550W        W17779  43.460  15.080   0.279
49551W        W17780  34.776  27.952  10.459
49552W        W17781  12.717   9.733  12.102
49553W        W17782   4.458  31.433  13.655
49554W        W17783  29.672  36.128   2.870
49555W        W17784  14.380  22.642   2.302
49556W        W17785  15.247  27.551  10.706
49557W        W17786  18.551  32.417  14.224
49558W        W17787  14.372  26.699   3.853
49559W        W17788  27.143   8.887  13.024
49560W        W17789  17.152  42.275   0.717
49561W        W17790  10.900  42.745  11.504
49562W        W17791  33.632   2.392  14.808
49563W        W17792   5.021  33.905   2.608
49564W        W17793  25.758   2.410   2.874
49565W        W17794  28.262  40.346   2.815
49566W        W17795  23.182  43.364   4.506
49567W        W17796  34.899  39.489  11.544
49568W        W17797  31.433  42.081  11.922
49569W        W17798   0.285  28.489  11.911
49570W        W17799  19.250  14.753  14.833
49571W        W17800  15.144   9.382   2.784
49572W        W17801  30.335  44.024   1.843
49573W        W17802  20.738  26.523  14.485
49574W        W17803  13.889  37.245  13.577
49575W        W17804  13.096  12.638  13.828
49576W        W17805  36.785  15.846   2.721
49577W        W17806  30.681  20.942   0.291
49578W        W17807  21.224  44.244  10.673
49579W        W17808  16.709  25.728  13.922
49580W        W17809  27.234  40.464   2.819
49581W        W17810  26.627   1.759   0.977
49582W        W17811  15.026  37.591  14.882
49583W        W17812  39.427  12.151   0.583
49584W        W17813   2.065  16.369  12.750
49585W        W17814  27.080  14.207  13.038
49586W        W17815   5.883  14.703  12.497
49587W        W17816  28.620  37.819  11.634
49588W        W17817  33.977  36.452  12.021
49589W        W17818  22.781   0.776   0.817
49590W        W17819   7.455  38.289   3.223
49591W        W17820  42.001  36.973  11.967
49592W        W17821  25.074  44.611   4.770
49593W        W17822  35.772  30.677   2.446
49594W        W17823  41.321   4.566   1.615
49595W        W17824  11.302  23.929   0.210
49596W        W17825   0.920   2.253  12.938
49597W        W17826   0.825  16.819   2.663
49598W        W17827  41.361   7.451   3.754
49599W        W17828  39.567   2.438  12.463
49600W        W17829  35.377   6.422   9.888
49601W        W17830   3.807  35.864   1.207
49602W        W17831  10.316  41.996  14.639
49603W        W17832  17.583  28.408  11.512
49604W        W17833  13.874  17.311   3.531
49605W        W17834  26.088  21.577   0.132
49606W        W17835  39.685  11.141   3.301
49607W        W17836  26.491  16.621  13.270
49608W        W17837  15.799   1.883   2.233
49609W        W17838  44.865  25.993   0.979
49610W        W17839  32.440  35.865  10.721
49611W        W17840   5.955   5.951   1.577
49612W        W17841  21.619  17.908  13.661
49613W        W17842   1.734   7.589   0.363
49614W        W17843  22.781  33.332  12.557
49615W        W17844  17.723  23.287  14.787
49616W        W17845  25.096  39.242   0.466
49617W        W17846   6.065  26.759   4.198
49618W        W17847  14.142  20.707  10.913
49619W        W17848  14.690  30.506  10.721
49620W        W17849   9.341  42.999  11.621
49621W        W17850  18.131  30.094  13.122
49622W        W17851   1.367  17.013  12.334
49623W        W17852  25.073  34.163  11.183
49624W        W17853  27.727  12.073   3.166
49625W        W17854   5.803  41.865   3.849
49626W        W17855  33.966  13.352   3.832
49627W        W17856  16.105  11.214   3.413
49628W        W17857  16.206  39.764  13.975
49629W        W17858  26.122  42.561  13.566
49630W        W17859   2.262  23.183   2.623
49631W        W17860  38.987  33.117   2.348
49632W        W17861  36.006  16.539   4.197
49633W        W17862  11.852  40.020   3.661
49634W        W17863  14.774   8.315  12.146
49635W        W17864  30.022  20.194  10.773
49636W        W17865   6.675   9.687   3.329
49637W        W17866   6.256   9.833  13.147
49638W        W17867  24.426  31.000  13.890
49639W        W17868  34.367  42.411  11.160
49640W        W17869  43.310  39.020  11.938
49641W        W17870  16.767   1.467   2.721
49642W        W17871  11.274  44.888   4.766
49643W        W17872   2.390  10.277  13.779
49644W        W17873  29.304  27.745   3.846
49645W        W17874   3.939  37.684   4.028
49646W        W17875   3.009  29.393  11.374
49647W        W17876  21.138  23.226   1.788
49648W        W17877   7.077  16.818  13.535
49649W        W17878  16.634  37.352   2.148
49650W        W17879  12.718  12.680   3.059
49651W        W17880  20.989  29.108  12.976
49652W        W17881  32.879  22.647  13.103
49653W        W17882  15.444  38.209   2.584
49654W        W17883  27.530  32.598   2.271
49655W        W17884  28.455  44.069   0.812
49656W        W17885  44.181  43.374  11.623
49657W        W17886   8.691  26.714  13.586
49658W        W17887  15.615  22.507  11.808
49659W        W17888  22.525  16.844  14.931
49660W        W17889  26.761  26.696   3.749
49661W        W17890  36.714  17.875   1.018
49662W        W17891  29.754  37.690   2.553
49663W        W17892   5.195  20.223   4.592
49664W        W17893  31.986  10.657   1.479
49665W        W17894  22.767  11.440   2.823
49666W        W17895  39.670  19.157  12.716
49667W        W17896  26.492  32.673  11.044
49668W        W17897  14.069  40.490   3.734
49669W        W17898  35.861  27.586  12.896
49670W        W17899  33.471  18.465  11.054
49671W        W17900  44.862  18.792   3.612
49672W        W17901  25.149  22.966   3.374
49673W        W17902  20.982   3.864   2.824
49674W        W17903  27.710  42.835   0.958
49675W        W17904   6.421  25.619   4.591
49676W        W17905  44.536  40.937   4.130
49677W        W17906  10.206  10.880   4.613
49678W        W17907  34.618  12.277   2.403
49679W        W17908  43.211  39.941   0.821
49680W        W17909  38.875  10.651  14.027
49681W        W17910   5.596  11.797   1.709
49682W        W17911  32.234  13.133  10.916
49683W        W17912   0.005  35.482   0.345
49684W        W17913  11.934  44.779   4.144
49685W        W17914  36.857  35.058   0.973
49686W        W17915  17.710   6.705   1.292
49687W        W17916  43.777  42.890   1.915
49688W        W17917  41.861  32.913  12.166
49689W        W17918  27.953  25.397   4.758
49690W        W17919  10.898  30.841   3.538
49691W        W17920  33.906  28.703  11.618
49692W        W17921  28.018  30.123   1.350
49693W        W17922  28.010  38.734   1.201
49694W        W17923  29.178  26.360  13.604
49695W        W17924  31.147  10.043   5.077
49696W        W17925  32.997   5.306  11.468
49697W        W17926  14.703   9.921  14.317
49698W        W17927  19.392   0.322   4.111
49699W        W17928  29.868  12.752  14.651
49700W        W17929  10.272  36.356  12.975
49701W        W17930   5.057   4.057   4.208
49702W        W17931  36.149  31.546  10.367
49703W        W17932  27.876   5.667   1.703
49704W        W17933  10.416  25.204   1.618
49705W        W17934  26.880  31.055  14.419
49706W        W17935  25.717  22.353   3.400
49707W        W17936  14.296   2.386   5.001
49708W        W17937   7.339  10.758   3.335
49709W        W17938   1.547  34.461  13.464
49710W        W17939  35.125  16.053  12.965
49711W        W17940  20.137  43.326   0.230
49712W        W17941  40.271   3.898   4.398
49713W        W17942  31.320  37.826   2.241
49714W        W17943  13.309  14.428   3.286
49715W        W17944  22.733   8.426   2.891
49716W        W17945  38.916  30.984  14.785
49717W        W17946  35.549  42.585  11.389
49718W        W17947  23.508  17.318   3.633
49719W        W17948  14.397   3.297  10.299
49720W        W17949  22.778  18.433   3.823
49721W        W17950   5.760   8.424  13.176
49722W        W17951   3.298  29.040   1.353
49723W        W17952  36.785  32.044   3.176
49724W        W17953   5.769   3.937   1.428
49725W        W17954  43.477  12.300   2.685
49726W        W17955  15.083  36.580   4.758
49727W        W17956  42.488  40.333  14.754
49728W        W17957  29.501  15.352   3.828
49729W        W17958  23.636  17.120  12.329
49730W        W17959  15.555   6.392   0.930
49731W        W17960  32.285   8.679   4.974
49732W        W17961  37.585  28.232   0.998
49733W        W17962   2.007  38.346   1.962
49734W        W17963  36.740   0.522   4.357
49735W        W17964   8.665   4.338   1.356
49736W        W17965  29.235  33.049  12.900
49737W        W17966   4.706  10.486   4.530
49738W        W17967  41.043   9.695  13.175
49739W        W17968  25.786  16.050   4.669
49740W        W17969  31.931   9.316   0.362
49741W        W17970  10.853  33.185  14.045
49742W        W17971  18.742   5.841   2.707
49743W        W17972  43.461  36.892   3.393
49744W        W17973  18.172  19.073   1.154
49745W        W17974  33.121  31.372  12.077
49746W        W17975  23.562   5.231   1.631
49747W        W17976  29.697  11.126   4.568
49748W        W17977  17.260  22.838   5.433
49749W        W17978   7.093   7.899   1.759
49750W        W17979  14.632  35.096   2.387
49751W        W17980   9.642   6.692  14.985
49752W        W17981  12.302  19.760   4.465
49753W        W17982  41.987  16.329  13.542
49754W        W17983  13.099  35.148  14.652
49755W        W17984   8.975  19.957   1.515
49756W        W17985   8.335  16.962   2.183
49757W        W17986   0.753  44.538  11.456
49758W        W17987  19.043  36.055  13.303
49759W        W17988  30.161  29.510   0.728
49760W        W17989  33.906  27.536  13.626
49761W        W17990  24.143  27.643   3.660
49762W        W17991  44.537   0.217   1.928
49763W        W17992  11.908  10.273   4.059
49764W        W17993   9.757   5.147  12.223
49765W        W17994  25.010   5.419   4.762
49766W        W17995  32.370  38.773  11.615
49767W        W17996  17.187   2.690  10.795
49768W        W17997  27.905  44.558  12.742
49769W        W17998   1.846  22.971  12.958
49770W        W17999  35.923  22.200   2.375
49771W        W18000  32.078  20.907   1.280
49772W        W18001  23.303  17.213   1.028
49773W        W18002  26.758   5.493  14.738
49774W        W18003  17.217   5.891   2.215
49775W        W18004  26.535  27.018   2.077
49776W        W18005  38.169  12.110   4.359
49777W        W18006  15.540   0.864  13.903
49778W        W18007  29.881  13.056  12.447
49779W        W18008  14.830  13.289   4.057
49780W        W18009  18.163  32.396   1.788
49781W        W18010  40.416  36.470   3.709
49782W        W18011  30.277  34.451   3.210
49783W        W18012   6.881  10.144  12.962
49784W        W18013  18.489  38.370  10.946
49785W        W18014  13.530  31.033  12.540
49786W        W18015  32.016  41.481  11.214
49787W        W18016  26.446   4.056  13.934
49788W        W18017  15.171  39.492   2.451
49789W        W18018  28.934  18.216  10.918
49790W        W18019  29.067  35.535   3.149
49791W        W18020   0.778  31.906   0.637
49792W        W18021  13.083  44.848  10.341
49793W        W18022   2.854  12.154  10.827
49794W        W18023  35.811   0.485  14.344
49795W        W18024   0.859  32.323   1.433
49796W        W18025  15.337  13.278  14.758
49797W        W18026  26.593  32.112   3.702
49798W        W18027  27.136   9.754   0.928
49799W        W18028   4.906  13.827  14.040
49800W        W18029  34.027  31.657  14.436
49801W        W18030   5.435  24.060   2.310
49802W        W18031  25.650  31.440   3.142
49803W        W18032  33.344  12.424   4.387
49804W        W18033   9.900  34.351  11.287
49805W        W18034  40.035  32.026  13.860
49806W        W18035  41.298  16.789  14.340
49807W        W18036   1.737   9.938  11.207
49808W        W18037  24.066   9.914   1.034
49809W        W18038  31.826  26.984   0.681
49810W        W18039  21.352  15.572   2.141
49811W        W18040  26.924  24.717  13.426
49812W        W18041  14.252   4.760  14.852
49813W        W18042  31.011   0.435   2.725
49814W        W18043  17.579  37.394  13.111
49815W        W18044  22.416  19.636   0.133
49816W        W18045  38.813   7.862   2.650
49817W        W18046  30.332  30.452  12.019
49818W        W18047  14.133  39.375   0.263
49819W        W18048  27.480  11.629  13.931
49820W        W18049   4.314   5.697   1.045
49821W        W18050  13.800  30.890  11.162
49822W        W18051  14.737   2.353  11.034
49823W        W18052  10.057   1.470  13.085
49824W        W18053  34.109  17.675  11.606
49825W        W18054  25.004  21.487   4.767
49826W        W18055  41.439   8.364  10.425
49827W        W18056   2.845  11.057  13.868
49828W        W18057  16.165  34.487   1.273
49829W        W18058  44.998  13.820   4.162
49830W        W18059   2.548  39.105   2.293
49831W        W18060  39.473  36.035  13.955
49832W        W18061  40.873  20.153   4.950
49833W        W18062  39.819   2.645  11.171
49834W        W18063   7.241  23.752  14.911
49835W        W18064  10.344  15.472   4.494
49836W        W18065  40.535   0.380  14.861
49837W        W18066  25.575  12.659  13.433
49838W        W18067   2.272  29.081   4.613
49839W        W18068  16.384  16.130   1.912
49840W        W18069  29.640   3.753  14.002
49841W        W18070  15.595  26.503  14.744
49842W        W18071  16.193  34.519   4.514
49843W        W18072  26.875  40.124  10.557
49844W        W18073  21.054  19.611  11.211
49845W        W18074  38.041  44.921   0.649
49846W        W18075  26.917  39.538  10.486
49847W        W18076   2.299  41.741   4.184
49848W        W18077  40.922  35.979   3.278
49849W        W18078  41.796  11.864   0.903
49850W        W18079   6.164  12.327   1.314
49851W        W18080  30.221  30.678   3.203
49852W        W18081  32.682  40.746  11.402
49853W        W18082   5.963  19.572   1.057
49854W        W18083   1.513  12.731   4.168
49855W        W18084  19.228  44.740   4.804
49856W        W18085  22.188  19.874   3.342
49857W        W18086  34.854  17.510   2.278
49858W        W18087  15.079   1.000   1.785
49859W        W18088   4.717   7.861   4.128
49860W        W18089  29.383  32.368   2.261
49861W        W18090  23.159  29.382   3.236
49862W        W18091   0.388  11.272   2.925
49863W        W18092  25.062   9.436   3.780
49864W        W18093  26.583  38.483  14.896
49865W        W18094   3.292   7.504   3.644
49866W        W18095  40.646   9.006  13.944
49867W        W18096  42.240  28.419   4.214
49868W        W18097  30.605  11.098   4.123
49869W        W18098  30.207  37.779   3.730
49870W        W18099   4.157  31.958  12.010
49871W        W18100   1.179   1.215   1.044
49872W        W18101  27.926   1.208   3.804
49873W        W18102  13.120  18.505  13.866
49874W        W18103  43.575  40.509  10.902
49875W        W18104  39.337  12.725   3.103
49876W        W18105   7.186  15.021   2.840
49877W        W18106   4.861  12.887   4.631
49878W        W18107  17.343  44.448   3.692
49879W        W18108   2.795  29.738   3.312
49880W        W18109  34.381  41.900   1.831
49881W        W18110  31.427  21.020  12.470
49882W        W18111  39.118  30.852   3.502
49883W        W18112   3.369   7.780   1.687
49884W        W18113  37.696  24.186   1.178
49885W        W18114  15.815  33.952  11.110
49886W        W18115  40.830  30.416   0.316
49887W        W18116   6.775   2.793  13.039
49888W        W18117  21.661  37.395  10.652
49889W        W18118  26.832   6.700   2.955
49890W        W18119  28.697  27.770  12.080
49891W        W18120  21.969  12.790  11.042
49892W        W18121  30.889  11.877  13.057
49893W        W18122  41.640  23.066  11.612
49894W        W18123  22.711  39.480   1.857
49895W        W18124   0.851  29.617  12.895
49896W        W18125  28.613  15.526   2.470
49897W        W18126   0.301  14.608  11.492
49898W        W18127  18.825  16.071   2.647
49899W        W18128   1.919   8.669  14.773
49900W        W18129  15.273  24.661  12.539
49901W        W18130  11.536  32.089   1.245
49902W        W18131  35.545   7.884  14.440
49903W        W18132  29.456   5.368  13.641
49904W        W18133  21.055  12.400   2.311
49905W        W18134  36.567   2.942   4.218
49906W        W18135  22.092  33.222   4.722
49907W        W18136   9.879  23.480  12.893
49908W        W18137  17.243  19.376   4.852
49909W        W18138   3.445  28.557   2.283
49910W        W18139  30.545  38.945  12.679
49911W        W18140   8.162  30.571   2.806
49912W        W18141  19.290  16.204   4.813
49913W        W18142  35.221  22.221  12.085
49914W        W18143  21.492  41.842  10.355
49915W        W18144  12.315  40.414   0.774
49916W        W18145  10.625  37.654   3.411
49917W        W18146  25.040  18.764   1.728
49918W        W18147   3.011   1.972   4.767
49919W        W18148  28.617  15.356   3.811
49920W        W18149  12.634   4.533  11.527
49921W        W18150  22.978  30.815  13.791
49922W        W18151  37.482  25.425   4.981
49923W        W18152  33.055   9.756   0.310
49924W        W18153  38.085   7.785   3.632
49925W        W18154  43.981  39.329  10.694
49926W        W18155  36.459   2.607   0.953
49927W        W18156  23.638   3.233   1.177
49928W        W18157  28.548  23.895  14.016
49929W        W18158  17.287  22.619  11.111
49930W        W18159  24.104  39.563  11.211
49931W        W18160   9.281  13.658   5.185
49932W        W18161  28.519  11.780   2.062
49933W        W18162  11.927  25.032  11.020
49934W        W18163  35.554  29.490  10.401
49935W        W18164  28.379   8.179   1.867
49936W        W18165   6.432  24.195  12.951
49937W        W18166  17.161  26.596   1.444
49938W        W18167  17.676   5.128  10.691
49939W        W18168  31.105  27.476  10.863
49940W        W18169  11.694  15.675  13.087
49941W        W18170   8.403  19.750  13.922
49942W        W18171  18.476  10.738  10.773
49943W        W18172  19.961  32.209   2.241
49944W        W18173   4.393  26.181  12.945
49945W        W18174  26.152  26.582  14.979
49946W        W18175  30.195  37.460  11.085
49947W        W18176   3.851  12.502  14.517
49948W        W18177  33.055  40.561   4.670
49949W        W18178   8.578  15.810  14.043
49950W        W18179  10.814  24.149   2.627
49951W        W18180  28.735  27.915   1.863
49952W        W18181   8.404  26.562   1.422
49953W        W18182   3.169  27.614  14.773
49954W        W18183  12.033  15.224   1.954
49955W        W18184  12.733  24.708   1.680
49956W        W18185  36.465  40.593   3.144
49957W        W18186  23.996  30.406   4.101
49958W        W18187   1.215  21.172  13.127
49959W        W18188  44.241   1.952  11.681
49960W        W18189  20.194  29.199   3.173
49961W        W18190  38.311  13.098   4.636
49962W        W18191  19.728  38.319   4.619
49963W        W18192   4.943   6.483   4.109
49964W        W18193   3.660  14.850   4.445
49965W        W18194  23.142   8.825  12.507
49966W        W18195   8.591  17.268  10.844
49967W        W18196  29.565  42.768  11.415
49968W        W18197  41.294  20.139   0.228
49969W        W18198  31.233  22.877  11.364
49970W        W18199  26.686   3.697   1.763
49971W        W18200  18.197  40.723  13.035
49972W        W18201  18.707   9.614  10.647
49973W        W18202  37.933  37.814  10.463
49974W        W18203  34.487   8.904   1.947
49975W        W18204  43.900  27.002   2.844
49976W        W18205  26.578  33.167  14.447
49977W        W18206  42.486  40.796   1.426
49978W        W18207   2.946  42.881  13.915
49979W        W18208  37.113  27.355  11.398
49980W        W18209  27.190  41.002   1.405
49981W        W18210  24.627   7.400   3.097
49982W        W18211  35.832  37.993   0.879
49983W        W18212  23.082  38.515   4.134
49984W        W18213  44.240  27.606   1.685
49985W        W18214  35.149  13.412   2.713
49986W        W18215  36.891  40.216   4.340
49987W        W18216  23.254  11.928  14.911
49988W        W18217  40.585  22.688  10.702
49989W        W18218  27.738  30.609   1.365
49990W        W18219  22.961  42.364  12.147
49991W        W18220  22.141  20.758   1.744
49992W        W18221   0.448  19.633   3.274
49993W        W18222  18.104   9.430   1.755
49994W        W18223  25.548  19.103   1.324
49995W        W18224  15.623  31.902   0.504
49996W        W18225  10.115  41.076  13.302
49997W        W18226   9.202  11.009   0.962
49998W        W18227  35.006  23.191  14.405
49999W        W18228  40.891  38.107   0.354
50000W        W18229  27.694  23.733  14.869
50001W        W18230  30.273  28.619   4.068
50002W        W18231   5.633  43.333   3.606
50003W        W18232   0.444  11.759  11.874
50004W        W18233  10.235  37.135  14.884
50005W        W18234  28.386  11.245  11.579
50006W        W18235  22.881  40.540   9.948
50007W        W18236  10.525  41.587   4.172
50008W        W18237  29.356  36.663  14.312
50009W        W18238  27.180  19.858  13.099
50010W        W18239  28.513  21.159   0.901
50011W        W18240  22.280  28.617   4.030
50012W        W18241  19.620   3.360  12.604
50013W        W18242   3.356  27.427  12.183
50014W        W18243  28.144  20.523  11.586
50015W        W18244  44.253  11.259  12.955
50016W        W18245  18.757  19.209   4.574
50017W        W18246  30.436  19.726   4.351
50018W        W18247  31.501  22.735  10.931
50019W        W18248  44.902  44.761   3.694
50020W        W18249  25.459  23.598   1.729
50021W        W18250  31.535  20.518   0.323
50022W        W18251   1.030  23.236   1.627
50023W        W18252  28.451  10.821  10.708
50024W        W18253  16.790  30.697   1.875
50025W        W18254  26.225   1.497  14.011
50026W        W18255  15.697  17.540  12.113
50027W        W18256   4.662  30.100  13.005
50028W        W18257  19.109  34.186  14.841
50029W        W18258   9.937  30.548   4.339
50030W        W18259  22.267  40.186  12.179
50031W        W18260  36.156  15.977  10.237
50032W        W18261  30.325  20.194  12.441
50033W        W18262  12.329  44.914  12.012
50034W        W18263  39.148  34.537   3.075
50035W        W18264  44.528  34.039   2.278
50036W        W18265  19.180  21.582  11.073
50037W        W18266  23.724  15.243   3.460
50038W        W18267   3.973  35.820   3.892
50039W        W18268  24.240  27.391   1.350
50040W        W18269   3.626  18.768   4.244
50041W        W18270  33.657  37.282  13.126
50042W        W18271   7.371   2.359  13.148
50043W        W18272  12.244   2.209   1.401
50044W        W18273  18.924  13.949   2.908
50045W        W18274  17.146  24.081   3.791
50046W        W18275  14.879  10.356   5.067
50047W        W18276  34.879  25.157   3.312
50048W        W18277  14.871   1.883  14.478
50049W        W18278   7.191  21.669  11.066
50050W        W18279  15.858   7.792   1.929
50051W        W18280  23.618  20.839  11.657
50052W        W18281  36.409  29.113   3.284
50053W        W18282  10.099  35.467  12.941
50054W        W18283  20.303  34.184   4.532
50055W        W18284  15.092   1.449   3.740
50056W        W18285   8.414  40.052   3.715
50057W        W18286   2.992  32.853  14.354
50058W        W18287  22.238  43.241  13.481
50059W        W18288  41.469   3.015   2.342
50060W        W18289  40.982  32.009   1.539
50061W        W18290   0.046  40.099   4.628
50062W        W18291  20.108  26.744  13.838
50063W        W18292   6.247  35.097  11.496
50064W        W18293  10.871  40.228  10.282
50065W        W18294  29.818  26.274   4.047
50066W        W18295  30.129   8.799   2.702
50067W        W18296  21.718   5.120  12.618
50068W        W18297  35.582  15.791  13.045
50069W        W18298  40.439  26.536   0.193
50070W        W18299   7.675  21.370  13.585
50071W        W18300   1.401  44.978  10.916
50072W        W18301  43.295  33.022   2.108
50073W        W18302  12.143   2.320   0.438
50074W        W18303  17.296   6.161  11.875
50075W        W18304  38.291  44.274  14.035
50076W        W18305  15.353  33.964   0.333
50077W        W18306  31.915  19.509  13.900
50078W        W18307   1.882  36.790  14.370
50079W        W18308  34.209  27.137  12.708
50080W        W18309  10.733  20.001  13.105
50081W        W18310  41.342  28.650   1.332
50082W        W18311  20.048  30.085   1.984
50083W        W18312  19.168  34.279   4.069
50084W        W18313   1.741  27.360  11.225
50085W        W18314  18.504  34.625   0.354
50086W        W18315   3.672  17.198   2.859
50087W        W18316  17.211   4.288   3.154
50088W        W18317  32.960   9.241   0.192
50089W        W18318   8.636  11.000   3.693
50090W        W18319  38.943   8.900  14.886
50091W        W18320  16.565  36.985  11.614
50092W        W18321  29.474   2.518   2.759
50093W        W18322  32.984  11.629   3.339
50094W        W18323  20.972   9.858  12.576
50095W        W18324   0.533  13.244   4.543
50096W        W18325  35.063  16.673  14.556
50097W        W18326  22.046  44.488   2.887
50098W        W18327  12.708  26.879  13.505
50099W        W18328  22.997  30.603   3.602
50100W        W18329  39.373  41.999   2.903
50101W        W18330  20.001   2.418  11.733
50102W        W18331  28.651  25.629  13.947
50103W        W18332  13.030  23.080   4.677
50104W        W18333  24.319  27.197   2.638
50105W        W18334   5.901   6.497   1.388
50106W        W18335   2.484  17.125   1.400
50107W        W18336  18.515   0.585   1.275
50108W        W18337  13.390  18.231   2.882
50109W        W18338  36.017  15.008   4.326
50110W        W18339  26.500  25.447  14.529
50111W        W18340  27.087  26.543  11.612
50112W        W18341  38.765  21.194   3.231
50113W        W18342  18.530  40.918   3.649
50114W        W18343  24.675  30.542   0.235
50115W        W18344   5.063  10.627   1.721
50116W        W18345   2.500  11.221   1.259
50117W        W18346   0.507  10.229  11.752
50118W        W18347   4.223  26.889   2.247
50119W        W18348  15.180  41.970  11.204
50120W        W18349   4.911  41.457  13.448
50121W        W18350  24.203  15.160   3.654
50122W        W18351  24.717   0.430  10.439
50123W        W18352  23.694  23.276  11.550
50124W        W18353  16.193  33.858  10.224
50125W        W18354  10.126  40.615  12.498
50126W        W18355  34.601  17.736  12.449
50127W        W18356  14.605  24.630   3.872
50128W        W18357  16.358  37.909   0.259
50129W        W18358  25.151  41.526  11.490
50130W        W18359  15.585  19.220  13.945
50131W        W18360  26.151  13.241   0.731
50132W        W18361   7.094  30.943  12.497
50133W        W18362  17.761   5.209   2.252
50134W        W18363  41.041  35.051  13.608
50135W        W18364  31.049  21.729   0.498
50136W        W18365  23.688   4.887  11.120
50137W        W18366  23.562   9.145  11.088
50138W        W18367  27.325   1.960   4.062
50139W        W18368  35.027  21.585  10.662
50140W        W18369   1.222  31.400   2.626
50141W        W18370  31.527  37.081  14.051
50142W        W18371  29.389  41.361  11.107
50143W        W18372  26.887   3.426  11.479
50144W        W18373  32.668  37.986   0.874
50145W        W18374  13.234  36.929  13.564
50146W        W18375  24.609   8.203  11.136
50147W        W18376   0.830  40.585  12.938
50148W        W18377   3.489   2.276   2.125
50149W        W18378  22.968  32.881   0.713
50150W        W18379   9.484  42.326  13.568
50151W        W18380  32.190   4.369   2.844
50152W        W18381  36.626  13.863  10.579
50153W        W18382   0.310  39.058   1.268
50154W        W18383  33.984   0.384  13.864
50155W        W18384   4.793  41.461  10.694
50156W        W18385  32.979  25.490  14.753
50157W        W18386   2.797  29.401  13.809
50158W        W18387   7.189  14.502  13.463
50159W        W18388  29.052  38.289  13.078
50160W        W18389  14.763   5.481  14.879
50161W        W18390  41.930   1.824   2.249
50162W        W18391  24.494  16.639  11.103
50163W        W18392  17.568  31.929  12.449
50164W        W18393  35.013   4.281   1.898
50165W        W18394   0.068   6.258   4.547
50166W        W18395   2.248  43.694  13.486
50167W        W18396  26.423  20.166  12.578
50168W        W18397  42.823  29.006  11.533
50169W        W18398   4.718   0.720   4.081
50170W        W18399  10.140   2.750   3.649
50171W        W18400   7.580  36.435   3.328
50172W        W18401  23.053  26.275   1.814
50173W        W18402   4.292  38.867  13.722
50174W        W18403  19.670  41.833   3.677
50175W        W18404  33.570  39.767  11.150
50176W        W18405  37.079  11.715  11.607
50177W        W18406  29.958   8.591   3.569
50178W        W18407  43.352  10.251   2.757
50179W        W18408  31.437  32.828   1.365
50180W        W18409  39.982  17.128   3.735
50181W        W18410  22.764  27.047   2.716
50182W        W18411  34.561  22.150   1.913
50183W        W18412  24.159  30.934   1.912
50184W        W18413   5.697  20.815  10.830
50185W        W18414  25.901  31.931   0.014
50186W        W18415  37.856  32.517   4.000
50187W        W18416  13.663   4.342  10.581
50188W        W18417  15.424  11.849   4.602
50189W        W18418  31.586  41.730   4.726
50190W        W18419  25.180  16.231   4.120
50191W        W18420  28.521  15.068  13.546
50192W        W18421  42.090  14.553   2.715
50193W        W18422  38.943  40.420  13.833
50194W        W18423   5.680  16.740   4.818
50195W        W18424   3.731  36.010   0.706
50196W        W18425  25.947  44.718   1.739
50197W        W18426  40.713  16.318  12.351
50198W        W18427  39.817   0.754  13.466
50199W        W18428  19.178  28.131   2.194
50200W        W18429  38.359   1.857   2.391
50201W        W18430  10.345  11.841  12.599
50202W        W18431   5.952  39.063  12.565
50203W        W18432   5.926  13.340  12.983
50204W        W18433  42.422   2.943   3.331
50205W        W18434  16.415  26.740  11.431
50206W        W18435  39.863   4.715   1.326
50207W        W18436  33.782  18.093   4.064
50208W        W18437  43.523  18.788   4.724
50209W        W18438  12.662  10.210  13.889
50210W        W18439   9.624  22.257  11.057
50211W        W18440  11.164  35.629   1.301
50212W        W18441  35.081  37.323  11.111
50213W        W18442   6.870  43.262  12.699
50214W        W18443  38.910   3.936   1.451
50215W        W18444  26.217  26.348  14.116
50216W        W18445   8.632  41.103  13.531
50217W        W18446  38.091   8.717  13.487
50218W        W18447  19.632  13.193   0.993
50219W        W18448  40.831  42.912  10.710
50220W        W18449  24.713  42.775  12.932
50221W        W18450   9.105  35.368   4.256
50222W        W18451  15.871  37.599   3.233
50223W        W18452  29.371  14.816   0.168
50224W        W18453  31.569   6.227  12.174
50225W        W18454   3.449  15.703  14.900
50226W        W18455  16.847  12.672  13.349
50227W        W18456   6.335  22.585   3.582
50228W        W18457   7.275  28.397  12.972
50229W        W18458  20.343  25.884  14.664
50230W        W18459  37.973  11.637   4.509
50231W        W18460   0.782   6.549  14.071
50232W        W18461   2.566  29.649   3.762
50233W        W18462  27.601   7.766   2.126
50234W        W18463  28.234  42.864   0.007
50235W        W18464  41.846  39.824  10.646
50236W        W18465  34.855  25.226   2.442
50237W        W18466  42.483  17.078   0.694
50238W        W18467  41.377  21.684   2.877
50239W        W18468  30.374   8.892   1.405
50240W        W18469  10.974  42.622  12.801
50241W        W18470   7.698  36.033  14.486
50242W        W18471   3.400  24.582   1.867
50243W        W18472  23.748  44.414   1.818
50244W        W18473  18.377  42.333  14.888
50245W        W18474  33.501  37.417  11.487
50246W        W18475   4.650   2.779   0.454
50247W        W18476  17.189  31.226  13.789
50248W        W18477  14.687  26.506   4.742
50249W        W18478  34.831   8.430   3.221
50250W        W18479  11.132  31.819  10.196
50251W        W18480   2.052  18.157  12.864
50252W        W18481  22.541   5.525   1.696
50253W        W18482   3.209  12.587  12.450
50254W        W18483  39.987  25.901  11.213
50255W        W18484  27.478   1.836   0.274
50256W        W18485   7.745  44.075  12.808
50257W        W18486  12.734  34.077  11.145
50258W        W18487  41.526   6.068  13.412
50259W        W18488   0.880  43.353  13.960
50260W        W18489  38.773   3.823  14.677
50261W        W18490  18.657  30.112  11.958
50262W        W18491  43.684   8.716  14.805
50263W        W18492  16.489  43.200  12.430
50264W        W18493   4.417  21.136   4.103
50265W        W18494  25.429  25.486  13.483
50266W        W18495  23.944  11.101  14.882
50267W        W18496  26.665  42.018  11.529
50268W        W18497  17.593  21.097  10.373
50269W        W18498  33.114  43.448  13.296
50270W        W18499  22.012  32.865  11.435
50271W        W18500  24.558  39.871  13.903
50272W        W18501  21.143   6.961   4.213
50273W        W18502   2.432  15.508  12.342
50274W        W18503  20.709  30.240  13.531
50275W        W18504   2.361  38.100   4.595
50276W        W18505   7.937  34.114  11.707
50277W        W18506  18.623  26.736   3.319
50278W        W18507  35.498  33.936  14.465
50279W        W18508  21.505  28.538   4.533
50280W        W18509   2.649  16.617   2.902
50281W        W18510  38.903  28.966  10.665
50282W        W18511  27.976   4.651  14.217
50283W        W18512  40.947   7.782  14.499
50284W        W18513  22.955  36.839   0.322
50285W        W18514   2.960   3.026   4.787
50286W        W18515  24.547  11.540   4.163
50287W        W18516  12.301   1.493  13.451
50288W        W18517  12.249   2.294  14.856
50289W        W18518  12.788   1.175  14.455
50290W        W18519   2.405   6.469  10.438
50291W        W18520  34.359  16.077  13.356
50292W        W18521  41.275  35.571   3.334
50293W        W18522  15.247  10.904  14.964
50294W        W18523  43.459  36.462   4.764
50295W        W18524   3.869  44.236   1.826
50296W        W18525  20.550  16.553  11.560
50297W        W18526  17.242  39.036   1.832
50298W        W18527  38.800  32.396  13.895
50299W        W18528  28.957  37.780   2.306
50300W        W18529  16.222  21.710  11.215
50301W        W18530  42.967  44.555   4.096
50302W        W18531  12.881  43.726  11.283
50303W        W18532   4.725  25.075  10.063
50304W        W18533  12.441  26.543  11.020
50305W        W18534  19.480   5.653   1.927
50306W        W18535  11.037  14.412   1.299
50307W        W18536  21.341   7.944   1.296
50308W        W18537  13.217  13.361   4.738
50309W        W18538   9.876  13.295  11.225
50310W        W18539  16.159  28.036   2.057
50311W        W18540  13.771  31.418  11.189
50312W        W18541  26.023  40.372  13.496
50313W        W18542  14.638   0.558  14.887
50314W        W18543  18.509  21.599   1.306
50315W        W18544  42.809  44.851   0.742
50316W        W18545  26.456  17.996   1.293
50317W        W18546  20.902  22.281   0.390
50318W        W18547  22.601   7.521   5.062
50319W        W18548   9.151   9.281  13.657
50320W        W18549   7.414  36.129  12.949
50321W        W18550   3.232  22.248  12.069
50322W        W18551  10.455  38.446   0.416
50323W        W18552  12.215  12.611  12.878
50324W        W18553  43.011  17.256  14.796
50325W        W18554  27.638  26.209  14.727
50326W        W18555   4.443  23.167  11.550
50327W        W18556  22.777  21.725   1.185
50328W        W18557  17.766  22.782  11.075
50329W        W18558  41.604   7.142   3.397
50330W        W18559  16.642  19.727   2.613
50331W        W18560   4.154  28.055  12.445
50332W        W18561  21.134  15.145   1.391
50333W        W18562  12.209  18.000  12.844
50334W        W18563  33.974  29.072  13.410
50335W        W18564  27.538  35.914   4.738
50336W        W18565  11.429  32.029  13.411
50337W        W18566  15.183   4.914   0.283
50338W        W18567  27.298   5.659   0.788
50339W        W18568  33.344  23.759  11.209
50340W        W18569   1.248   3.863   0.358
50341W        W18570  32.194  20.245   3.360
50342W        W18571  39.743  41.260  13.369
50343W        W18572  33.834  37.479   1.313
50344W        W18573  20.051  22.985  12.880
50345W        W18574  44.484  16.288  10.625
50346W        W18575   0.003  36.357  11.731
50347W        W18576  13.120   5.505  12.432
50348W        W18577   1.256   7.537  13.030
50349W        W18578  33.602  37.184   0.345
50350W        W18579   7.706   3.927   1.342
50351W        W18580  24.422  26.503   2.283
50352W        W18581  36.565  26.435   1.227
50353W        W18582  19.760  34.909   3.771
50354W        W18583  39.892  39.139   4.521
50355W        W18584  21.052  44.916  12.752
50356W        W18585  12.672  44.363   1.618
50357W        W18586  43.189  18.263  13.853
50358W        W18587  33.106  33.787  12.049
50359W        W18588  36.508  15.768   0.968
50360W        W18589  22.623  30.991   4.446
50361W        W18590  23.313  22.005   0.037
50362W        W18591  16.649   7.766   0.693
50363W        W18592  17.118  12.360   3.214
50364W        W18593  42.064  34.034  11.637
50365W        W18594   1.468  10.655   1.763
50366W        W18595  32.423  42.317  11.407
50367W        W18596  26.182   6.868   1.092
50368W        W18597  11.936  42.862   2.177
50369W        W18598  44.012  36.137   5.030
50370W        W18599  41.895  17.623  12.467
50371W        W18600  26.119  24.436  12.959
50372W        W18601  23.658  42.869  11.017
50373W        W18602  27.085  10.637  10.515
50374W        W18603  25.336  23.489   0.873
50375W        W18604  12.666   4.647  13.371
50376W        W18605   7.044  14.227  13.046
50377W        W18606   1.823  13.682  14.118
50378W        W18607  17.263   5.923  13.971
50379W        W18608  24.749  38.498  14.909
50380W        W18609  40.378  10.981   1.791
50381W        W18610  11.398  27.384  14.864
50382W        W18611  34.023   0.951   3.564
50383W        W18612  24.986   2.746   0.939
50384W        W18613  18.146  43.847  12.151
50385W        W18614   7.356  18.926  12.179
50386W        W18615   0.984   8.799   2.179
50387W        W18616  42.008  40.129   4.866
50388W        W18617  40.042  25.518   4.136
50389W        W18618  43.225  15.381  14.910
50390W        W18619  14.895  36.774   3.796
50391W        W18620  15.572  19.934  11.972
50392W        W18621  17.193  25.009   3.497
50393W        W18622  32.376  27.140   0.421
50394W        W18623   5.021  14.268   4.116
50395W        W18624  32.835  20.813   3.795
50396W        W18625   9.388  15.091   2.225
50397W        W18626   9.702  12.642  14.459
50398W        W18627  16.073  12.056  13.520
50399W        W18628  13.746  21.949   3.393
50400W        W18629  18.343   1.795  12.779
50401W        W18630  41.530  15.117  14.095
50402W        W18631   7.881   7.650  13.960
50403W        W18632   6.200   4.781  11.077
50404W        W18633  36.841  32.990  12.120
50405W        W18634  20.530  11.266  11.586
50406W        W18635  33.594  27.619  11.569
50407W        W18636   3.426  37.971  10.631
50408W        W18637   8.220  17.345   0.439
50409W        W18638   7.798  43.544   0.804
50410W        W18639  26.680  44.341   0.205
50411W        W18640  24.891  14.604  12.945
50412W        W18641   8.066  18.702  12.614
50413W        W18642  11.753  19.007  13.366
50414W        W18643  42.540  38.537  11.478
50415W        W18644  43.714  32.311  12.471
50416W        W18645  44.478  25.683  14.331
50417W        W18646  42.638   9.481   5.047
50418W        W18647  16.836  43.974   1.464
50419W        W18648  37.098  41.986   2.254
50420W        W18649  38.597  34.847  11.032
50421W        W18650  38.529  39.939   4.112
50422W        W18651   0.728  34.340   1.643
50423W        W18652  16.318  32.974  11.303
50424W        W18653   2.357  29.047  13.315
50425W        W18654  36.274  28.710  13.914
50426W        W18655  33.505  21.569   1.331
50427W        W18656  38.820  27.947  11.626
50428W        W18657  41.065  44.433   0.651
50429W        W18658  34.573  43.830   3.157
50430W        W18659  22.534   2.544  12.400
50431W        W18660  16.165  16.915  12.559
50432W        W18661  41.035  17.129  12.838
50433W        W18662  18.621   6.741   3.215
50434W        W18663  12.615   3.710  14.409
50435W        W18664  16.745  44.744  10.748
50436W        W18665   2.544  34.028   5.274
50437W        W18666   0.847  33.658   0.445
50438W        W18667  12.154  11.643  12.038
50439W        W18668   2.414  38.094  13.984
50440W        W18669  16.334   2.705   2.264
50441W        W18670   1.487  40.913  13.051
50442W        W18671  24.724  23.690  12.729
50443W        W18672   8.772  15.835  14.557
50444W        W18673  20.287  22.308  10.780
50445W        W18674  15.579  19.704  14.904
50446W        W18675  39.917  44.370   4.545
50447W        W18676  44.908   7.408  11.357
50448W        W18677  17.659  29.348  11.616
50449W        W18678  44.781  12.581   4.580
50450W        W18679  31.515   8.128   4.658
50451W        W18680   9.478  28.447  13.368
50452W        W18681   8.695  15.795   3.994
50453W        W18682  23.876  13.231   4.938
50454W        W18683   2.189  18.156   3.548
50455W        W18684  44.907  29.660  14.275
50456W        W18685  43.031   7.260   1.292
50457W        W18686  26.600  38.608  10.215
50458W        W18687   0.292   8.382  11.865
50459W        W18688  37.271  10.839   1.384
50460W        W18689  22.851   0.213  12.063
50461W        W18690  21.622   2.587  10.881
50462W        W18691  16.507  21.074  13.856
50463W        W18692  28.549  12.009  11.823
50464W        W18693  11.934  42.821  10.723
50465W        W18694  32.411  36.661  13.098
50466W        W18695   7.702  17.024   3.669
50467W        W18696  41.387  23.742   4.743
50468W        W18697  44.145  35.400   2.988
50469W        W18698  15.920  19.271  12.437
50470W        W18699  22.623  18.644  10.351
50471W        W18700  39.541  22.136   3.378
50472W        W18701  22.242  24.922   2.263
50473W        W18702  23.249  32.310   4.657
50474W        W18703  36.475  26.454   0.243
50475W        W18704  24.778  18.959  12.547
50476W        W18705  34.110  24.018   0.024
50477W        W18706  21.797   0.402   1.487
50478W        W18707   3.285  15.564   4.790
50479W        W18708   6.133  43.666  14.790
50480W        W18709   1.488  43.305   1.701
50481W        W18710  11.173  24.424  11.512
50482W        W18711  32.551   0.398  11.118
50483W        W18712  15.835  29.795   3.561
50484W        W18713  36.758  39.485   3.707
50485W        W18714  14.646  28.616   2.307
50486W        W18715  30.445  41.800   3.362
50487W        W18716  13.538  36.412  11.034
50488W        W18717  14.863   4.941  14.026
50489W        W18718  42.004  32.227   1.793
50490W        W18719  28.679  32.143  13.499
50491W        W18720  19.186  29.101  12.054
50492W        W18721   2.546  26.245   0.890
50493W        W18722   3.403  38.040   4.652
50494W        W18723  12.214  27.366   0.940
50495W        W18724  44.551  17.201   2.417
50496W        W18725  38.408  32.852   9.565
50497W        W18726  35.835  11.943   4.205
50498W        W18727   3.113  33.607   3.738
50499W        W18728   1.828  29.851   1.745
50500W        W18729  39.395  40.857   1.957
50501W        W18730  13.268   0.780   4.198
50502W        W18731   9.132  21.988  11.775
50503W        W18732  32.885  19.225   4.043
50504W        W18733  17.013  27.610  13.848
50505W        W18734   3.194  11.606  13.316
50506W        W18735  16.392   8.538  14.749
50507W        W18736   0.960  13.321   1.723
50508W        W18737   1.565  16.159   3.182
50509W        W18738  42.578  39.159  13.957
50510W        W18739   9.669   6.246  11.008
50511W        W18740  15.180  26.227   1.437
50512W        W18741  39.930  40.033  13.885
50513W        W18742  33.092  10.050   3.585
50514W        W18743  20.104  39.547  12.033
50515W        W18744   2.726  38.465  12.841
50516W        W18745  27.038  17.557   1.800
50517W        W18746   5.428   4.867  14.455
50518W        W18747  43.299  28.460   0.201
50519W        W18748   8.262  32.019  12.335
50520W        W18749  22.857  37.898  10.364
50521W        W18750  23.136   7.434   1.735
50522W        W18751  27.215   9.055   4.069
50523W        W18752   8.950   4.120  13.178
50524W        W18753  34.647  43.995   0.450
50525W        W18754  24.237  44.166  14.891
50526W        W18755  30.958  18.604   3.733
50527W        W18756   1.136  14.302  11.590
50528W        W18757   1.638  36.712  12.848
50529W        W18758  10.257  32.171   0.685
50530W        W18759  35.366  34.101   1.661
50531W        W18760  19.016  33.140   0.683
50532W        W18761  41.345  23.111   1.933
50533W        W18762   3.233  33.115  12.392
50534W        W18763   7.203  23.813   1.767
50535W        W18764  33.457  37.656   2.628
50536W        W18765  43.408   9.199   3.764
50537W        W18766  39.900  24.449  11.809
50538W        W18767   7.912  32.077   3.665
50539W        W18768  43.179   6.804  12.833
50540W        W18769  17.008  38.381  11.197
50541W        W18770  19.666  10.373  11.139
50542W        W18771  30.421  29.423  12.598
50543W        W18772  22.018  20.561  11.909
50544W        W18773   2.151   2.491   1.223
50545W        W18774  14.163  43.001   2.346
50546W        W18775  42.706  20.868  12.096
50547W        W18776  23.731  34.230   5.299
50548W        W18777   1.736  24.227  14.443
50549W        W18778  19.672   1.991   4.907
50550W        W18779  31.402  33.541  13.329
50551W        W18780  17.076  13.674  13.902
50552W        W18781   7.450  27.114   1.616
50553W        W18782   5.725  30.200   3.637
50554W        W18783  44.995  39.572   2.740
50555W        W18784  35.243  43.773  14.801
50556W        W18785  19.995   8.311   1.507
50557W        W18786   0.034  35.361   4.980
50558W        W18787  37.033   8.389  14.819
50559W        W18788  12.053  35.816  11.643
50560W        W18789  22.018   8.884  14.027
50561W        W18790  31.521  18.356   2.591
50562W        W18791   0.649  33.056   2.429
50563W        W18792  32.408  11.150  12.615
50564W        W18793  39.324  28.194  12.044
50565W        W18794   9.432  19.064   3.136
50566W        W18795  27.133  17.285  14.481
50567W        W18796   6.190  28.249   2.170
50568W        W18797  25.752   6.980   1.742
50569W        W18798  39.867  10.151   3.430
50570W        W18799   6.996  17.097  12.731
50571W        W18800  27.730  20.776   1.680
50572W        W18801  25.146  29.156  12.978
50573W        W18802   5.691  41.757   4.335
50574W        W18803  44.273   0.436  14.469
50575W        W18804  12.765  21.715   2.434
50576W        W18805  38.880  37.843   4.137
50577W        W18806  20.140  15.759  13.475
50578W        W18807   8.911  13.611   1.809
50579W        W18808  25.946   2.271   3.372
50580W        W18809  36.480  27.753  14.995
50581W        W18810   4.533   8.302   2.347
50582W        W18811  23.067  33.557  11.599
50583W        W18812  41.338  22.806  14.002
50584W        W18813  19.271  37.515   1.930
50585W        W18814  25.773   3.319   2.068
50586W        W18815  31.649  14.922   0.553
50587W        W18816  21.206  17.728  11.524
50588W        W18817  32.690  14.890  14.773
50589W        W18818   2.442  27.995   3.791
50590W        W18819  11.845  19.040   4.587
50591W        W18820   6.331   3.776  11.993
50592W        W18821  17.141  16.274   0.945
50593W        W18822  27.692  21.639   2.252
50594W        W18823  25.025  31.359   2.712
50595W        W18824  26.978   9.282   4.447
50596W        W18825  38.051  38.326  10.656
50597W        W18826  42.428   8.645   1.865
50598W        W18827  12.583  28.077  10.818
50599W        W18828  13.222  37.881   0.553
50600W        W18829  43.428  34.941   4.631
50601W        W18830  12.920  18.591   2.841
50602W        W18831  24.858  23.755   3.482
50603W        W18832  16.366  17.709   4.432
50604W        W18833  39.174  33.141   2.886
50605W        W18834  43.575  42.095   2.867
50606W        W18835  14.612  38.339   2.705
50607W        W18836  30.224  17.320  14.977
50608W        W18837   6.815  15.524   4.065
50609W        W18838  20.513  23.172  12.026
50610W        W18839   0.715  18.724   1.438
50611W        W18840  21.982  17.576  12.643
50612W        W18841  21.592  22.000   3.734
50613W        W18842  15.587   5.720  14.299
50614W        W18843  20.549  23.805   1.260
50615W        W18844  27.407   4.353  10.719
50616W        W18845  40.756  38.862  10.243
50617W        W18846  15.473  37.906   2.121
50618W        W18847  20.533  19.028   1.367
50619W        W18848   4.967  31.206   3.608
50620W        W18849  10.774  35.408  12.304
50621W        W18850  39.856   3.340  10.612
50622W        W18851  37.992  15.645  13.653
50623W        W18852  20.338  31.384   3.677
50624W        W18853  13.560  29.399   1.846
50625W        W18854  41.273  28.772  12.019
50626W        W18855   5.006  43.851   0.386
50627W        W18856  12.308  36.287   2.240
50628W        W18857  35.078  22.662  10.821
50629W        W18858  15.079  18.376  11.488
50630W        W18859   8.929   9.808   2.372
50631W        W18860  41.384  36.920   0.651
50632W        W18861  17.037  18.569   2.776
50633W        W18862   6.212   5.437   1.869
50634W        W18863  12.167  33.985   2.209
50635W        W18864  13.165  17.295  11.608
50636W        W18865  35.311  26.057   2.165
50637W        W18866  15.869  31.936  14.535
50638W        W18867  18.311  35.654   3.654
50639W        W18868  24.551  36.414   2.123
50640W        W18869  18.987   5.534   4.213
50641W        W18870   7.331  34.555  11.624
50642W        W18871  39.189   0.392   3.870
50643W        W18872  25.717  12.885   2.360
50644W        W18873  19.292  15.607   3.303
50645W        W18874  42.866  10.006  13.844
50646W        W18875  24.729  29.049   0.784
50647W        W18876  16.400  27.259  12.012
50648W        W18877   2.422  13.483  11.210
50649W        W18878  13.077  20.397  14.384
50650W        W18879  18.591   6.494   1.628
50651W        W18880  15.261  28.856  12.026
50652W        W18881  39.511  14.452  13.996
50653W        W18882  16.896   5.793   0.230
50654W        W18883  23.869  20.154   0.922
50655W        W18884  19.771  29.906  11.034
50656W        W18885  15.215  23.953  13.060
50657W        W18886  20.677   6.290   0.038
50658W        W18887  24.011   8.241  11.094
50659W        W18888  39.215  15.053   1.399
50660W        W18889   5.005  38.306   2.936
50661W        W18890  42.418  44.981  14.126
50662W        W18891  17.267   3.370  11.383
50663W        W18892   4.970  30.165   0.807
50664W        W18893  18.442  16.756  13.723
50665W        W18894   5.531  27.259  11.750
50666W        W18895  11.278   8.890  14.413
50667W        W18896  15.815  28.405   4.850
50668W        W18897   3.640   6.694   3.329
50669W        W18898  10.675   9.865   2.840
50670W        W18899  26.120  27.137   2.719
50671W        W18900  38.586  43.316  12.543
50672W        W18901  12.676   2.866  14.392
50673W        W18902  39.891   2.943   1.512
50674W        W18903  34.920  34.149  10.948
50675W        W18904   5.275  36.905   3.241
50676W        W18905   2.857  19.198  14.454
50677W        W18906  28.597  44.185  12.101
50678W        W18907   7.741  38.872   4.996
50679W        W18908  16.723  24.074  11.949
50680W        W18909   7.964  15.157   2.190
50681W        W18910   8.200  37.138   4.790
50682W        W18911   8.167   8.092   2.812
50683W        W18912  22.804  14.097   2.600
50684W        W18913   0.486  27.554   3.654
50685W        W18914  27.446  38.859   3.213
50686W        W18915  16.298  22.719   1.766
50687W        W18916  37.512  35.201   2.794
50688W        W18917  38.838  23.787   2.855
50689W        W18918  11.240  33.764  11.613
50690W        W18919  31.988   1.024  11.989
50691W        W18920  12.444  16.050   2.672
50692W        W18921  25.087  19.662   1.209
50693W        W18922  41.780  19.595  11.039
50694W        W18923  22.258   5.026  13.445
50695W        W18924  42.480  19.079  12.565
50696W        W18925  20.074   4.595   2.816
50697W        W18926  22.726  42.555  13.516
50698W        W18927  43.081  42.080  13.826
50699W        W18928  39.714  20.687  13.022
50700W        W18929  38.990  39.089   0.302
50701W        W18930  25.938  40.129  12.571
50702W        W18931  12.146  22.536   2.460
50703W        W18932  30.128   5.249  12.613
50704W        W18933  17.184   6.775   1.290
50705W        W18934  41.656  17.411  11.615
50706W        W18935  34.806  39.495  11.024
50707W        W18936  30.089  25.031  13.464
50708W        W18937  21.048   8.611  11.975
50709W        W18938   8.992  24.652  14.751
50710W        W18939  13.681   7.241   4.834
50711W        W18940   1.838  22.986   2.213
50712W        W18941   3.514  37.442  14.506
50713W        W18942  18.099  20.010   4.332
50714W        W18943  12.324  18.535  12.708
50715W        W18944  32.101  23.975   1.385
50716W        W18945  32.204  33.179   0.597
50717W        W18946  40.384   9.196   1.179
50718W        W18947  40.052  44.814  12.008
50719W        W18948  40.090  28.831   1.273
50720W        W18949  22.394  27.831   1.815
50721W        W18950  44.385   0.594  12.794
50722W        W18951   5.211  17.467   0.411
50723W        W18952  36.363  31.705   0.040
50724W        W18953   7.640  19.241   0.792
50725W        W18954  20.413  16.596   3.271
50726W        W18955  31.493  15.370   4.512
50727W        W18956  19.353   9.841   0.782
50728W        W18957  35.937   4.309   4.940
50729W        W18958   8.253  35.933   0.784
50730W        W18959  14.199  20.843  10.416
50731W        W18960  42.387   3.493  14.457
50732W        W18961  39.910  42.569  14.841
50733W        W18962  38.267  17.725  12.560
50734W        W18963  29.623  39.817   0.362
50735W        W18964  16.383   9.954  10.729
50736W        W18965   8.900  32.559   4.212
50737W        W18966  21.770  27.547   3.227
50738W        W18967  26.225  19.768   2.680
50739W        W18968  36.912  31.774   3.593
50740W        W18969  42.292   4.982  11.343
50741W        W18970  33.864  34.810   1.753
50742W        W18971  15.623  19.363  11.116
50743W        W18972  28.014  39.460   2.903
50744W        W18973  24.784  42.004  14.445
50745W        W18974  33.592  32.360  13.298
50746W        W18975  41.102  11.041  12.586
50747W        W18976  29.056  43.049   1.736
50748W        W18977  10.145   7.668  11.122
50749W        W18978  44.983  30.473  12.998
50750W        W18979  44.606  22.024  12.382
50751W        W18980   0.486  33.394   4.173
50752W        W18981  33.363  16.236  12.546
50753W        W18982  39.323  30.844  12.415
50754W        W18983  14.043  28.766  11.152
50755W        W18984  21.895  39.003  13.860
50756W        W18985  26.466  22.765  12.360
50757W        W18986   2.416  25.991   0.442
50758W        W18987  11.268   5.676  12.000
50759W        W18988  33.514  15.139  13.007
50760W        W18989   0.380  39.067   0.346
50761W        W18990  17.860  23.598  14.353
50762W        W18991  35.553   3.694   4.316
50763W        W18992   5.708   6.284   2.404
50764W        W18993  30.050  38.290   3.665
50765W        W18994  22.370  23.020   1.247
50766W        W18995  39.865  26.493   0.453
50767W        W18996  31.978  36.836  13.953
50768W        W18997  43.980   6.957   1.151
50769W        W18998  23.267   0.354   4.802
50770W        W18999  22.605   6.795  14.417
50771W        W19000  20.003  34.346   1.835
50772W        W19001  14.715  31.913  14.719
50773W        W19002  22.028  23.927  12.076
50774W        W19003  29.369  42.338  11.634
50775W        W19004  28.721  27.964  12.911
50776W        W19005  11.702  21.743  13.255
50777W        W19006   8.328  41.348  11.410
50778W        W19007  25.293  33.542  11.962
50779W        W19008  35.343  11.170   2.028
50780W        W19009  43.003  34.984  11.911
50781W        W19010  22.020  30.141   3.741
50782W        W19011  32.094  31.042  12.992
50783W        W19012   0.902  21.743  12.674
50784W        W19013  21.211  19.558   0.832
50785W        W19014  15.725  22.169   1.235
50786W        W19015  43.214  23.193  12.322
50787W        W19016  17.207  12.078  12.674
50788W        W19017  18.568  30.514  14.393
50789W        W19018  43.003  15.734  12.465
50790W        W19019  23.601  12.246   2.220
50791W        W19020  44.814  20.610  13.118
50792W        W19021   5.993   0.817   0.291
50793W        W19022  31.161   4.366  11.419
50794W        W19023   0.441  36.124   3.962
50795W        W19024  17.281  29.111   3.213
50796W        W19025  42.254  31.913   0.271
50797W        W19026  37.078  41.182   0.413
50798W        W19027  25.519  32.852   4.535
50799W        W19028  25.667  23.268  14.567
50800W        W19029  24.487   9.431  13.363
50801W        W19030  19.729  31.665   1.865
50802W        W19031   0.370  40.391   4.956
50803W        W19032  14.764   1.359  14.392
50804W        W19033  31.522   0.402   4.246
50805W        W19034  26.990  36.866   2.356
50806W        W19035  13.600  11.123   0.915
50807W        W19036  40.295  44.464   2.029
50808W        W19037  19.043  21.770  12.208
50809W        W19038   1.040  14.319   0.592
50810W        W19039  31.933   1.837   1.253
50811W        W19040  19.089   9.866   4.182
50812W        W19041  13.329  44.538   4.672
50813W        W19042   4.282  41.311  10.695
50814W        W19043  36.498  36.504  12.808
50815W        W19044   7.025  18.779  12.853
50816W        W19045   5.628  28.688  12.560
50817W        W19046  36.136  17.357   3.703
50818W        W19047  36.098  25.747  11.064
50819W        W19048   5.983   6.699  12.457
50820W        W19049  11.254  31.981   4.153
50821W        W19050  25.692  30.437  11.988
50822W        W19051  42.032  44.392  13.752
50823W        W19052  15.270  28.650   1.027
50824W        W19053  32.080  21.193   1.718
50825W        W19054  10.491  35.468   2.578
50826W        W19055  37.077   7.796   3.576
50827W        W19056   7.166  28.191  11.638
50828W        W19057   8.691  35.028   1.470
50829W        W19058  22.163  10.872   2.929
50830W        W19059  20.112  17.797   0.930
50831W        W19060  11.589  15.259  13.450
50832W        W19061  19.810  39.340  10.674
50833W        W19062   7.717   3.711  13.113
50834W        W19063  26.973  32.594  14.866
50835W        W19064  16.593  20.146   2.982
50836W        W19065  19.100  34.972  13.157
50837W        W19066  20.748  36.526   2.339
50838W        W19067  11.918  43.782  11.567
50839W        W19068  34.117  38.547  14.720
50840W        W19069  28.624  23.711  13.513
50841W        W19070   7.220  32.960   3.597
50842W        W19071  30.573  35.153  13.645
50843W        W19072  35.400   9.066   4.773
50844W        W19073  36.473  40.813  12.488
50845W        W19074  33.700  40.775  12.129
50846W        W19075  31.289   8.381  12.166
50847W        W19076  37.449  34.627  12.873
50848W        W19077  11.914  43.396  12.420
50849W        W19078  32.444   2.661   3.897
50850W        W19079   4.840  23.155   2.108
50851W        W19080   2.818  22.244  11.338
50852W        W19081  18.365  43.209   1.239
50853W        W19082  23.102   6.779  14.267
50854W        W19083  32.939   2.480  11.631
50855W        W19084  43.490  25.189  11.794
50856W        W19085  43.967   7.759   2.417
50857W        W19086  27.032  39.966   4.179
50858W        W19087  17.990  13.133   4.919
50859W        W19088  15.690  14.868  13.061
50860W        W19089  22.099  23.098  10.716
50861W        W19090   9.859  20.377  10.666
50862W        W19091   1.000   9.660   0.839
50863W        W19092   1.508   5.985   0.996
50864W        W19093   6.290  26.574  11.861
50865W        W19094   3.651  34.433  11.049
50866W        W19095  18.124  36.461   2.900
50867W        W19096  42.017   3.179  12.464
50868W        W19097  36.353   2.427   1.433
50869W        W19098  13.932  39.892   0.489
50870W        W19099  33.359  16.160  12.026
50871W        W19100  39.491   3.370   5.185
50872W        W19101  21.545  30.596   1.853
50873W        W19102  22.722  37.848   0.845
50874W        W19103  21.192  15.798  11.127
50875W        W19104  34.632  28.087   1.239
50876W        W19105  38.279  16.767   0.882
50877W        W19106  13.092   2.379   2.754
50878W        W19107  31.978  28.609  13.798
50879W        W19108  43.938  28.891  12.973
50880W        W19109   3.574  32.461  13.586
50881W        W19110  35.201   2.784  14.246
50882W        W19111  33.833  25.541  14.878
50883W        W19112   8.092   0.836   2.195
50884W        W19113  33.516   6.565  12.060
50885W        W19114  39.493  11.245  12.956
50886W        W19115  15.369  18.639  11.143
50887W        W19116  36.901  34.882  10.959
50888W        W19117  14.658  17.059   4.267
50889W        W19118  12.008  24.462   0.107
50890W        W19119   3.433  18.435  10.687
50891W        W19120  35.913  35.820   1.204
50892W        W19121  26.703  33.165   4.585
50893W        W19122  21.033  30.348  12.393
50894W        W19123  12.063  40.476  11.184
50895W        W19124   3.852  38.025  13.838
50896W        W19125   3.645  26.513   4.766
50897W        W19126  15.607  42.306  11.038
50898W        W19127   6.902   6.008   1.911
50899W        W19128  36.008  36.403  11.551
50900W        W19129  33.150  39.042  11.019
50901W        W19130  37.176  19.147  14.019
50902W        W19131  22.694   1.637  13.957
50903W        W19132  39.853  37.370  13.422
50904W        W19133  18.927  13.738  14.815
50905W        W19134   0.470  21.456  12.325
50906W        W19135   0.680  35.272  11.905
50907W        W19136  41.450  40.569   0.526
50908W        W19137   7.205  15.065   4.696
50909W        W19138  18.552  24.540   0.294
50910W        W19139  26.573  29.668  10.991
50911W        W19140   6.188  18.293   0.758
50912W        W19141  37.575  32.079   4.611
50913W        W19142  30.022  33.306  10.647
50914W        W19143  20.296  30.717   4.064
50915W        W19144  18.103   3.855  12.132
50916W        W19145  38.946   6.160   0.689
50917W        W19146  40.559  18.753  10.696
50918W        W19147  27.126  22.323   4.097
50919W        W19148  37.441  35.223   0.005
50920W        W19149  32.369  12.682   1.024
50921W        W19150   9.298  16.038  14.719
50922W        W19151   6.621  16.847  12.468
50923W        W19152  22.012   4.929  14.824
50924W        W19153   9.371  14.215  12.573
50925W        W19154   4.937  31.020   1.711
50926W        W19155   6.903  41.966  14.885
50927W        W19156  43.455   3.710  12.985
50928W        W19157  14.722   2.574   1.711
50929W        W19158   0.890  39.097  14.910
50930W        W19159  17.078   9.814   3.152
50931W        W19160  22.826   6.451   2.007
50932W        W19161  13.231  36.297  12.858
50933W        W19162  17.453  38.999  13.137
50934W        W19163   2.745  39.619  11.462
50935W        W19164  41.413  23.566   3.850
50936W        W19165  23.344  34.418  13.438
50937W        W19166  44.155  20.776  12.508
50938W        W19167  38.634  31.682   2.793
50939W        W19168  29.657  26.713   0.701
50940W        W19169  20.775  34.413   1.589
50941W        W19170  11.226  16.663  11.890
50942W        W19171  18.796  25.417   0.186
50943W        W19172  39.547  44.972   0.321
50944W        W19173  13.880  18.632  13.982
50945W        W19174  32.559   5.923  11.917
50946W        W19175   5.424  12.563  12.534
50947W        W19176  16.358  40.725  11.119
50948W        W19177  29.816  33.558   1.959
50949W        W19178   0.853   9.881   3.165
50950W        W19179   5.518  39.103   2.533
50951W        W19180  35.100  40.383   3.522
50952W        W19181  20.050  10.535   3.544
50953W        W19182  16.696   8.400   4.606
50954W        W19183  21.651   9.842   4.588
50955W        W19184  38.312  34.242  14.000
50956W        W19185  36.756  10.240  11.463
50957W        W19186  24.541  32.929   2.727
50958W        W19187  27.338   0.784  14.541
50959W        W19188  27.091  26.192  13.479
50960W        W19189  34.918  28.720   0.680
50961W        W19190  39.932  42.328   0.861
50962W        W19191  30.986  12.687   1.430
50963W        W19192   4.567  41.206   0.374
50964W        W19193  31.541  25.568   3.578
50965W        W19194   9.688  28.190  12.075
50966W        W19195  33.713  35.686   4.952
50967W        W19196   9.609  38.460  12.221
50968W        W19197  35.235  43.406  14.410
50969W        W19198  16.489  35.563   1.833
50970W        W19199  14.741  10.418  11.068
50971W        W19200  37.141  17.016   1.889
50972W        W19201  12.839  40.368  14.177
50973W        W19202  44.600   1.318  11.158
50974W        W19203  22.734   9.362  11.547
50975W        W19204   7.213   0.440  12.865
50976W        W19205   7.207   2.766   3.643
50977W        W19206  26.607  31.189  11.139
50978W        W19207  20.656  17.365   3.697
50979W        W19208  22.003  18.180   3.208
50980W        W19209   4.811  30.435   0.394
50981W        W19210  40.856  34.627  12.870
50982W        W19211   7.371  32.568   3.243
50983W        W19212  19.374  10.245  13.371
50984W        W19213  41.951   8.660  14.517
50985W        W19214  35.873   5.114  11.599
50986W        W19215  39.903  11.669   4.856
50987W        W19216  44.722  35.472  13.966
50988W        W19217  30.174  33.111   0.426
50989W        W19218  17.065  36.011  11.917
50990W        W19219   7.780  11.706   1.704
50991W        W19220  32.897  35.402  13.911
50992W        W19221  44.348  42.084   0.409
50993W        W19222   0.308   9.954  12.713
50994W        W19223  31.824  14.192   5.024
50995W        W19224  10.671  21.119   2.775
50996W        W19225   3.619  34.939   5.460
50997W        W19226  32.057  22.338  13.751
50998W        W19227  15.336  26.010  13.847
50999W        W19228   0.769  44.827  12.420
51000W        W19229  19.176  31.794   3.584
51001W        W19230  22.667   7.381  13.280
51002W        W19231  28.806  26.496  14.131
51003W        W19232   5.775   4.491   1.615
51004W        W19233  33.394  38.907   1.312
51005W        W19234  21.106  44.816   0.510
51006W        W19235  16.703   7.863  12.183
51007W        W19236   2.455   9.312   1.269
51008W        W19237  17.104  13.619  11.579
51009W        W19238  42.921  33.586   4.259
51010W        W19239  25.531  41.925  12.366
51011W        W19240   6.221  41.015   1.009
51012W        W19241  21.977   3.358  13.864
51013W        W19242  28.545  28.610   0.159
51014W        W19243   9.528  24.947  11.607
51015W        W19244  35.424   8.637  13.741
51016W        W19245  14.577  32.171   2.664
51017W        W19246  11.291  28.592  11.852
51018W        W19247  43.103  16.093  10.447
51019W        W19248  43.774  22.239  11.133
51020W        W19249  26.694   5.669   3.829
51021W        W19250  10.694   6.827   4.695
51022W        W19251   1.507  23.752  11.562
51023W        W19252  17.674  31.651   4.356
51024W        W19253  32.468  35.376  10.541
51025W        W19254  43.647   1.223   2.197
51026W        W19255  31.876  37.372  10.294
51027W        W19256   4.849  38.302   4.974
51028W        W19257  23.760  36.123  12.355
51029W        W19258   2.781  29.932  14.964
51030W        W19259   6.735   1.347   4.478
51031W        W19260  43.788   9.483   2.877
51032W        W19261   2.493  13.820   0.359
51033W        W19262   9.697   5.399  12.651
51034W        W19263   5.498  38.364   3.137
51035W        W19264  11.276  22.113  12.608
51036W        W19265  10.283  25.021   3.256
51037W        W19266   8.851  38.700   2.700
51038W        W19267  34.829   7.528  11.995
51039W        W19268  17.532  27.753  13.893
51040W        W19269  15.240  37.822  14.454
51041W        W19270  24.292  13.871  11.536
51042W        W19271  19.945   7.306   1.177
51043W        W19272   3.217  23.193   0.891
51044W        W19273  31.666   7.710  11.992
51045W        W19274   5.797  32.957   1.263
51046W        W19275  15.417  26.616   2.737
51047W        W19276  25.991  10.857   0.695
51048W        W19277  26.466  17.926   2.402
51049W        W19278  15.405  10.188   4.571
51050W        W19279  24.536  40.778  14.958
51051W        W19280   0.053   8.401  14.360
51052W        W19281  35.398  25.458  12.205
51053W        W19282  42.057  20.589   2.226
51054W        W19283  20.589  37.839   1.429
51055W        W19284  13.802   9.571  11.087
51056W        W19285   8.308  26.000  10.667
51057W        W19286  16.335  40.473   3.898
51058W        W19287  35.001   8.846  11.538
51059W        W19288  42.328  27.657  14.541
51060W        W19289   7.365  36.988   3.874
51061W        W19290   6.474  10.834  10.454
51062W        W19291  23.464  26.497  11.628
51063W        W19292  43.139  21.813   1.190
51064W        W19293  36.549  40.485   4.045
51065W        W19294  28.871   3.731  14.316
51066W        W19295  30.359  27.107   3.622
51067W        W19296   1.632  40.385  13.557
51068W        W19297   9.288   0.553  10.678
51069W        W19298  17.243  25.700  13.486
51070W        W19299   5.731  42.069  14.390
51071W        W19300  15.237  30.309   2.821
51072W        W19301  19.567  37.456  12.006
51073W        W19302   7.735  27.722  14.047
51074W        W19303  12.642  10.939   1.669
51075W        W19304  35.882  35.056   4.167
51076W        W19305   0.408   0.232   3.227
51077W        W19306  13.210   1.772   1.035
51078W        W19307  27.095  19.551   2.662
51079W        W19308  34.740   3.318   0.465
51080W        W19309  21.064  39.850   0.226
51081W        W19310  24.110  20.830   4.349
51082W        W19311  43.200  36.491   2.416
51083W        W19312  18.646  33.900  13.787
51084W        W19313  28.573  12.926   1.263
51085W        W19314  40.820  34.340   1.433
51086W        W19315  19.282  12.645  11.770
51087W        W19316  35.648  44.339  14.042
51088W        W19317   5.111  13.568  12.331
51089W        W19318  39.855  28.614  11.231
51090W        W19319  24.963  16.357  11.166
51091W        W19320   2.633  15.169   3.189
51092W        W19321  23.031  10.897  13.518
51093W        W19322  28.181  41.971   3.053
51094W        W19323  20.690  18.719  14.352
51095W        W19324  19.577  44.585   3.103
51096W        W19325  24.460  37.711  13.089
51097W        W19326   7.850  23.170   2.574
51098W        W19327  43.337   3.923  11.623
51099W        W19328  20.545   4.724  13.083
51100W        W19329  22.615  44.863   1.266
51101W        W19330  31.607  43.724  11.304
51102W        W19331  34.428  37.349   4.815
51103W        W19332  17.700  34.408   1.313
51104W        W19333  31.692  44.450  11.947
51105W        W19334  12.663  22.617   0.293
51106W        W19335  10.637  15.818  11.234
51107W        W19336  11.436  31.732  12.267
51108W        W19337  28.371  29.495  11.428
51109W        W19338  17.839   7.428   2.864
51110W        W19339  43.839  44.340  11.742
51111W        W19340  31.095  30.418  10.852
51112W        W19341  11.080  44.147   2.895
51113W        W19342  11.593  40.758   1.019
51114W        W19343  38.167  33.124  13.548
51115W        W19344   4.902  16.720   3.607
51116W        W19345  34.799  26.012   2.052
51117W        W19346  34.298  17.207  10.729
51118W        W19347  25.594  44.435  10.000
51119W        W19348   2.366  32.597   0.026
51120W        W19349   2.304  31.580   2.624
51121W        W19350  17.715  22.509   3.651
51122W        W19351  14.728  18.810   4.575
51123W        W19352  19.560  18.563   9.661
51124W        W19353  41.633  29.077  13.173
51125W        W19354   5.696   2.529  12.133
51126W        W19355   2.691   9.636   2.869
51127W        W19356   4.367  23.041   1.794
51128W        W19357  34.397   2.522   2.836
51129W        W19358  11.179  39.919   4.519
51130W        W19359  36.459  26.513  14.399
51131W        W19360   5.470  44.909  11.213
51132W        W19361  37.710   6.455  13.993
51133W        W19362   9.506   9.846  12.466
51134W        W19363  29.743   5.471   4.904
51135W        W19364  10.146   4.308  11.229
51136W        W19365  40.064   5.892   1.287
51137W        W19366  35.563  20.232   4.989
51138W        W19367  17.275  34.822  14.344
51139W        W19368  23.762  13.079   3.334
51140W        W19369  20.833  41.901  13.093
51141W        W19370  44.522  12.572  14.422
51142W        W19371   0.431  26.123   0.243
51143W        W19372   2.420  40.393   0.148
51144W        W19373   9.592   8.865  10.510
51145W        W19374  26.420  37.688   4.093
51146W        W19375  37.820  17.458   1.933
51147W        W19376   3.349   9.544   1.286
51148W        W19377  39.547  17.256   4.668
51149W        W19378   9.796   5.741  13.481
51150W        W19379  32.785  30.579  11.057
51151W        W19380  22.228   1.774   1.004
51152W        W19381  10.748  42.377   4.620
51153W        W19382   9.860  21.540   1.303
51154W        W19383  36.586  10.649  14.424
51155W        W19384  25.439  22.693  13.448
51156W        W19385   4.173  25.791  12.650
51157W        W19386  22.962  38.216  11.229
51158W        W19387  10.701  10.382   2.866
51159W        W19388   6.149  35.159   2.747
51160W        W19389  15.854   8.285   2.344
51161W        W19390   8.788  43.519   4.468
51162W        W19391  10.447  35.337   1.744
51163W        W19392  39.282   1.316   2.673
51164W        W19393  16.496  42.419  11.155
51165W        W19394   1.712  31.562   0.408
51166W        W19395   4.237  13.941   0.300
51167W        W19396  14.205  38.429  11.485
51168W        W19397  12.681  27.492  14.321
51169W        W19398  11.784  20.536   3.569
51170W        W19399  24.146  35.792  12.040
51171W        W19400  38.442   4.837  13.305
51172W        W19401  14.123  21.520   3.165
51173W        W19402  38.930   6.995  12.559
51174W        W19403   0.274  18.606  11.599
51175W        W19404  32.251  42.757   0.087
51176W        W19405  20.755  32.317   4.048
51177W        W19406  43.332  38.592   0.407
51178W        W19407   3.184  41.931   0.749
51179W        W19408  22.998  41.351   1.715
51180W        W19409  41.168  13.318  14.867
51181W        W19410  17.079  11.036  10.999
51182W        W19411  27.089   0.481   2.138
51183W        W19412  35.176  43.495   0.268
51184W        W19413  27.860  30.315  14.070
51185W        W19414  13.819  25.979  10.937
51186W        W19415  33.705  23.437   2.900
51187W        W19416  26.596   6.451   1.932
51188W        W19417   2.494  31.444   0.767
51189W        W19418  38.409  32.570  11.461
51190W        W19419  23.620  26.524  12.140
51191W        W19420   8.507  37.430   3.255
51192W        W19421  39.877  29.478  11.258
51193W        W19422  36.734  39.899  10.391
51194W        W19423   2.601  41.804  12.031
51195W        W19424   9.030  26.406  12.575
51196W        W19425  30.119  26.928   3.161
51197W        W19426  10.354   5.688  11.104
51198W        W19427  19.505  39.578  12.907
51199W        W19428  16.382  12.222   0.415
51200W        W19429  20.509  36.408   3.020
51201W        W19430  23.702   9.087   0.891
51202W        W19431  37.199  14.632   0.750
51203W        W19432  20.991  24.678   0.858
51204W        W19433  16.633  35.167  12.501
51205W        W19434  20.654  43.357   4.571
51206W        W19435  33.520  19.780   3.688
51207W        W19436   4.370  17.046  10.933
51208W        W19437  10.096   4.811  11.119
51209W        W19438   6.966  14.131   2.835
51210W        W19439   7.603  33.044   4.153
51211W        W19440   2.907   3.404   4.428
51212W        W19441  32.016   6.957  13.319
51213W        W19442   3.311   2.875   3.151
51214W        W19443  31.381  26.240   4.660
51215W        W19444  38.905   4.535  13.577
51216W        W19445  29.672  29.886  12.061
51217W        W19446  18.633  20.619   1.721
51218W        W19447  20.610  38.708   1.937
51219W        W19448  32.824   3.202   2.741
51220W        W19449  16.463  41.525   1.361
51221W        W19450  17.776   8.172  10.636
51222W        W19451   0.047  40.893   2.118
51223W        W19452  41.466  26.036  13.010
51224W        W19453  17.791  33.471   1.409
51225W        W19454  35.708   7.034  12.924
51226W        W19455   9.445  41.372   1.962
51227W        W19456  37.985  11.260   1.900
51228W        W19457  17.166  18.846   0.488
51229W        W19458  33.928  43.187  11.618
51230W        W19459  23.427   0.895   3.099
51231W        W19460   3.865  13.121   1.626
51232W        W19461   4.824  13.770  12.880
51233W        W19462  41.319  22.318  12.011
51234W        W19463  41.469  39.505   0.520
51235W        W19464  19.013  34.627   4.910
51236W        W19465  26.174   8.291  11.271
51237W        W19466  22.744  15.702  14.322
51238W        W19467  28.498  36.790  10.904
51239W        W19468  39.081  39.269  13.506
51240W        W19469  38.003   0.347  12.436
51241W        W19470  14.574  36.354  11.959
51242W        W19471  37.836   9.243  12.376
51243W        W19472  18.184  16.440  14.089
51244W        W19473  36.244  15.261  14.284
51245W        W19474  23.266   7.390  12.515
51246W        W19475  20.413  20.673   2.560
51247W        W19476  17.992  14.526  14.430
51248W        W19477  11.706  21.229   0.004
51249W        W19478  42.427  43.206   2.738
51250W        W19479  39.952   5.415  14.079
51251W        W19480   9.266  11.896   1.899
51252W        W19481  12.431  23.732  13.432
51253W        W19482  39.443  19.237   2.018
51254W        W19483  40.191  27.640   2.635
51255W        W19484  43.590  34.156  14.173
51256W        W19485  38.704   4.864   4.928
51257W        W19486  15.853  12.681  11.158
51258W        W19487  27.695  18.097   2.825
51259W        W19488  23.183   6.352  11.652
51260W        W19489  23.047   5.920   0.900
51261W        W19490   8.132  35.875   2.735
51262W        W19491  18.286  15.687  12.395
51263W        W19492  11.938  25.045   5.020
51264W        W19493   1.283  15.576  14.860
51265W        W19494  20.614  40.108   1.442
51266W        W19495  25.833  24.982   3.688
51267W        W19496  27.489  40.101  13.978
51268W        W19497   6.793  33.642   3.222
51269W        W19498  26.759  31.316  13.872
51270W        W19499  11.674  40.704   2.867
51271W        W19500  21.529  31.194  11.205
51272W        W19501  38.340  12.737   3.195
51273W        W19502   4.431  44.922  12.938
51274W        W19503  36.340  43.276   4.186
51275W        W19504   4.262  28.757   1.851
51276W        W19505  10.128  40.262   1.010
51277W        W19506   1.760  21.947  13.060
51278W        W19507  41.887  19.723   0.844
51279W        W19508   7.165   9.708   3.154
51280W        W19509  28.080  40.871   0.347
51281W        W19510  11.330   3.445  11.689
51282W        W19511  12.918  35.397  12.501
51283W        W19512  32.629  28.316   3.523
51284W        W19513  31.717   0.879  11.578
51285W        W19514  25.480  31.898   2.278
51286W        W19515  15.213  29.259   4.290
51287W        W19516  38.405  12.174   1.838
51288W        W19517  38.584   1.921  14.277
51289W        W19518  43.824  19.299  13.980
51290W        W19519  20.944  39.357   3.942
51291W        W19520   2.357  14.682   1.882
51292W        W19521   9.586  40.853   2.225
51293W        W19522  35.899  10.989   2.216
51294W        W19523  10.140  13.573   4.327
51295W        W19524  15.212  40.141  11.889
51296W        W19525  22.180   6.500   2.798
51297W        W19526  22.793  23.993  12.394
51298W        W19527  22.834   1.159  13.761
51299W        W19528   4.426  37.508  13.514
51300W        W19529  19.725  40.492   2.215
51301W        W19530  12.207  22.531  13.402
51302W        W19531  18.825   7.100   0.741
51303W        W19532  37.959   6.041  12.315
51304W        W19533   7.400   9.882   3.633
51305W        W19534  33.925  23.693   2.498
51306W        W19535   9.802  14.515  13.100
51307W        W19536   8.719  21.008  14.959
51308W        W19537   9.864  42.981  11.637
51309W        W19538   2.351  42.285   1.233
51310W        W19539   5.393   8.141   4.648
51311W        W19540  16.489  36.515   0.319
51312W        W19541  43.913  15.912   0.330
51313W        W19542   6.341  23.194   4.337
51314W        W19543  24.615  28.237   0.227
51315W        W19544  16.660  24.903   0.437
51316W        W19545  13.800  37.326   2.489
51317W        W19546  28.518  42.563   4.864
51318W        W19547  36.454  30.683   1.342
51319W        W19548  38.523  11.166   1.845
51320W        W19549  15.910  41.024  13.104
51321W        W19550  42.815  34.641   0.768
51322W        W19551  40.711  44.047  12.174
51323W        W19552  12.878   1.696   3.809
51324W        W19553  26.098  36.925  11.499
51325W        W19554  24.486  36.281   2.660
51326W        W19555  13.695  19.976   4.750
51327W        W19556  31.625  39.533   1.247
51328W        W19557  26.082  13.886   3.268
51329W        W19558  25.399   0.453   1.344
51330W        W19559  36.296  27.385   2.357
51331W        W19560   9.963  39.170  14.358
51332W        W19561   5.227  35.318  10.297
51333W        W19562  36.555  33.138  14.743
51334W        W19563   8.960  40.880   0.259
51335W        W19564  24.240  34.853  11.615
51336W        W19565  27.613  31.097  11.588
51337W        W19566  41.219   6.987  12.491
51338W        W19567  43.746   2.409   4.738
51339W        W19568  35.058  34.979  13.939
51340W        W19569  39.868  14.011  12.146
51341W        W19570  12.265  32.035  12.858
51342W        W19571  17.248  36.174  10.116
51343W        W19572  43.603  22.246  13.290
51344W        W19573  11.124  15.167  12.554
51345W        W19574  38.361  31.022   2.253
51346W        W19575  32.140  14.610  13.341
51347W        W19576  16.525  22.070  10.969
51348W        W19577  18.017  12.324  11.409
51349W        W19578   4.911  24.718  11.082
51350W        W19579  14.685  36.126   1.319
51351W        W19580  18.535   2.311   0.389
51352W        W19581  30.572  41.440  13.820
51353W        W19582  18.084  25.932   4.869
51354W        W19583  16.213  17.716  10.628
51355W        W19584   0.825  37.230   0.425
51356W        W19585   7.896  26.895  14.777
51357W        W19586  39.844  26.490   1.353
51358W        W19587  36.498  29.689   1.285
51359W        W19588  33.585  22.697  14.899
51360W        W19589  15.167  20.975  12.661
51361W        W19590  33.901  20.476  11.395
51362W        W19591  30.697  12.109   3.931
51363W        W19592  28.008  36.315   0.890
51364W        W19593   3.853  42.049  14.466
51365W        W19594  28.010  42.501   1.237
51366W        W19595  35.584  19.751   0.621
51367W        W19596  32.657  15.066   1.880
51368W        W19597  10.320   1.541  11.569
51369W        W19598   3.600  42.080  12.169
51370W        W19599  30.526  14.903   4.624
51371W        W19600   0.653  33.766  14.869
51372W        W19601  39.241  38.204  13.349
51373W        W19602  32.389   4.415  11.972
51374W        W19603  16.264  19.931   4.600
51375W        W19604   0.527  33.091   1.007
51376W        W19605  18.663  12.145  12.526
51377W        W19606  37.639  12.414  11.034
51378W        W19607  32.494  16.073   2.728
51379W        W19608  42.994  23.607  11.619
51380W        W19609  18.335   2.274  11.594
51381W        W19610  34.838  19.577   4.099
51382W        W19611  19.129  37.128  10.699
51383W        W19612   1.450   3.559  13.630
51384W        W19613  30.729   3.754   4.406
51385W        W19614   0.792   4.136   1.546
51386W        W19615  41.622   4.422   1.225
51387W        W19616  17.524  39.918   2.129
51388W        W19617  27.968  20.706  12.016
51389W        W19618  27.256  43.637  11.988
51390W        W19619  43.789  27.513   4.135
51391W        W19620  28.577   2.237  13.270
51392W        W19621   0.476   1.944   3.742
51393W        W19622  29.095  42.113  11.238
51394W        W19623  25.288  26.882  10.009
51395W        W19624  35.327  30.329  13.013
51396W        W19625   8.963  16.329  13.814
51397W        W19626  20.739  42.266   2.936
51398W        W19627  33.142   1.831   0.473
51399W        W19628  17.266  36.161   0.553
51400W        W19629   0.603  17.815   2.908
51401W        W19630  15.390  44.750  13.775
51402W        W19631  21.290  17.252  13.784
51403W        W19632  44.501  24.084   5.134
51404W        W19633  22.144   5.282   0.299
51405W        W19634  43.900  42.832  14.208
51406W        W19635  42.595   1.965   0.447
51407W        W19636  40.904  40.944  11.083
51408W        W19637  35.099   5.222  11.654
51409W        W19638  26.058   8.629  12.005
51410W        W19639  38.913  38.369  10.569
51411W        W19640  25.641  42.860  10.722
51412W        W19641   0.436  14.667   1.539
51413W        W19642  16.639  29.427   1.253
51414W        W19643  36.028  34.161   4.443
51415W        W19644  37.869  10.134  12.425
51416W        W19645  44.484  30.109   1.990
51417W        W19646  27.618  11.245  14.300
51418W        W19647   3.574  25.346   3.587
51419W        W19648  43.035  23.061   1.939
51420W        W19649   7.369  16.615  12.963
51421W        W19650   4.346  18.725  14.345
51422W        W19651  40.365  43.252   3.239
51423W        W19652  36.304  30.458   1.773
51424W        W19653  31.537   2.111  11.042
51425W        W19654   4.499  36.004  13.857
51426W        W19655  12.197  26.472  14.411
51427W        W19656   3.707  41.621   0.431
51428W        W19657  16.026  41.832   0.627
51429W        W19658  23.107   4.712  11.720
51430W        W19659  21.932   1.478   3.677
51431W        W19660   7.785  23.080   4.187
51432W        W19661  17.983  40.069   2.787
51433W        W19662   5.855  23.248   1.842
51434W        W19663  33.925  30.502   0.728
51435W        W19664  12.706  31.101   1.854
51436W        W19665  20.885   3.451   3.147
51437W        W19666   9.964  41.555   3.342
51438W        W19667  35.051  21.289   1.622
51439W        W19668  40.333  13.701   2.378
51440W        W19669  33.549  20.926  12.157
51441W        W19670  18.015  43.394   0.358
51442W        W19671  28.021   5.247   0.477
51443W        W19672   7.468  41.454   2.316
51444W        W19673  21.971  41.756  14.522
51445W        W19674  15.830  36.878   4.076
51446W        W19675  44.523  42.765   0.875
51447W        W19676  18.765   7.671  10.360
51448W        W19677  38.310  41.361  12.383
51449W        W19678  11.333  20.568   1.765
51450W        W19679  18.919   7.203  13.040
51451W        W19680  44.568  44.308  12.538
51452W        W19681  37.471  33.699  13.955
51453W        W19682  42.457  14.814  11.231
51454W        W19683   1.757  27.015  10.786
51455W        W19684  31.135  40.477  13.829
51456W        W19685  41.156  17.374  13.507
51457W        W19686  15.541  31.040  12.451
51458W        W19687  21.670   7.216  14.177
51459W        W19688  28.508  24.941   2.648
51460W        W19689  32.154  35.333   3.153
51461W        W19690  35.715  32.672  12.565
51462W        W19691  15.680  14.327   1.864
51463W        W19692  10.243   2.433  10.653
51464W        W19693  28.161  30.377   0.339
51465W        W19694  34.415  19.768   3.661
51466W        W19695  11.501  39.211  14.618
51467W        W19696   1.319  29.898  14.394
51468W        W19697  44.080  16.836  12.481
51469W        W19698  18.621  40.421  13.398
51470W        W19699   2.020  30.164   4.105
51471W        W19700  30.048  32.599   0.550
51472W        W19701  42.428  40.964   2.732
51473W        W19702   9.163  25.733  11.273
51474W        W19703  27.209   7.007  12.547
51475W        W19704  17.120  33.604   3.531
51476W        W19705  24.289  36.076   3.178
51477W        W19706  21.263  34.571   3.302
51478W        W19707   2.557   2.366   3.287
51479W        W19708  37.776  17.048   4.902
51480W        W19709  12.898  29.738   1.393
51481W        W19710   1.886  40.710   2.645
51482W        W19711   9.995   4.690  14.911
51483W        W19712  36.489  34.083  14.714
51484W        W19713   5.001  22.761   0.794
51485W        W19714   6.410  16.538   1.250
51486W        W19715  18.316  32.734   0.454
51487W        W19716   1.479  12.136  12.196
51488W        W19717  11.805   4.868  13.816
51489W        W19718   5.212  19.718   0.270
51490W        W19719  12.189  22.154   4.645
51491W        W19720  41.711  21.946   4.100
51492W        W19721  22.622  36.850   4.395
51493W        W19722  41.176  15.521   4.931
51494W        W19723  37.754  37.051  13.804
51495W        W19724   0.351  41.261   2.353
51496W        W19725   3.654   5.055  12.781
51497W        W19726   5.411  29.814   2.160
51498W        W19727   0.469   9.294   1.312
51499W        W19728   7.176  14.819   3.345
51500W        W19729   7.794  43.913   3.145
51501W        W19730  20.493   9.859   1.808
51502W        W19731  27.250  38.927  12.397
51503W        W19732  26.312  37.618  12.960
51504W        W19733  41.706   6.618  14.267
51505W        W19734  28.034   7.707  13.296
51506W        W19735   3.426   8.005   3.531
51507W        W19736  41.668  37.546   1.274
51508W        W19737  35.523  17.734   2.974
51509W        W19738  33.383  25.786  14.916
51510W        W19739  21.448  28.667  10.582
51511W        W19740   2.918  43.598   3.140
51512W        W19741   1.102  11.938   3.703
51513W        W19742  21.916   9.824   3.220
51514W        W19743  25.693  14.537   3.704
51515W        W19744  17.697  18.143   3.870
51516W        W19745  25.105  29.022   2.299
51517W        W19746  12.105  28.829   1.769
51518W        W19747   1.410  32.361  14.273
51519W        W19748  10.247  26.711  10.760
51520W        W19749   7.570  34.363   2.343
51521W        W19750  43.513   2.034   2.796
51522W        W19751   5.699   6.698  11.511
51523W        W19752  11.585  24.288   0.910
51524W        W19753  34.348  26.955   1.944
51525W        W19754  43.504  36.938   4.969
51526W        W19755   5.275  11.124   0.914
51527W        W19756  13.392  18.380  14.316
51528W        W19757   4.644  35.960   1.671
51529W        W19758  13.783  34.384  14.742
51530W        W19759   1.928  33.741   4.155
51531W        W19760   2.525  20.115  13.961
51532W        W19761   7.609   5.278   1.763
51533W        W19762  44.715   9.293   3.916
51534W        W19763  11.059  25.552  11.057
51535W        W19764  34.882  37.466  14.045
51536W        W19765  40.364  41.375  11.754
51537W        W19766  31.867  33.502   2.093
51538W        W19767  15.104  22.545  10.966
51539W        W19768  15.054  44.367  12.876
51540W        W19769  44.587  33.352  11.123
51541W        W19770   0.834  18.125  11.249
51542W        W19771  28.604  15.825   2.906
51543W        W19772  28.015   6.862   4.745
51544W        W19773  33.574  31.237  12.347
51545W        W19774   7.366  41.271  13.071
51546W        W19775   8.598  41.225   2.064
51547W        W19776  34.998  14.795   0.288
51548W        W19777  10.993  15.433   2.725
51549W        W19778  41.464  37.847  14.435
51550W        W19779   8.615  20.299   3.288
51551W        W19780   3.470  17.174  11.176
51552W        W19781  37.290   4.594   0.331
51553W        W19782   4.933  24.385  14.366
51554W        W19783  38.053  22.329   4.023
51555W        W19784  37.963  21.157   4.822
51556W        W19785  10.328  17.326   4.461
51557W        W19786  31.879  17.291   3.739
51558W        W19787  28.740   3.756  10.529
51559W        W19788   9.647  11.209   4.607
51560W        W19789  19.035   4.737  12.058
51561W        W19790  31.486  19.108   2.269
51562W        W19791  10.253  34.688  11.553
51563W        W19792  40.333  22.521  14.927
51564W        W19793  44.311   6.444   4.241
51565W        W19794   7.687  36.928  14.952
51566W        W19795  12.784  39.366  11.064
51567W        W19796   9.895  26.198   4.134
51568W        W19797  10.339   9.922   2.147
51569W        W19798  26.677   4.002   2.249
51570W        W19799  26.250  16.801   2.931
51571W        W19800  41.827  12.716   3.198
51572W        W19801  31.478  15.407   1.293
51573W        W19802  28.650  33.523  10.262
51574W        W19803  43.923   0.775   1.862
51575W        W19804  35.523  30.529  13.434
51576W        W19805  34.045  44.524  12.001
51577W        W19806  14.226   2.683  14.905
51578W        W19807  30.076  41.292  13.810
51579W        W19808  26.199  27.263   1.349
51580W        W19809  42.118  23.973  12.080
51581W        W19810  24.599  42.536  13.363
51582W        W19811  16.143  27.163  11.550
51583W        W19812  39.877   6.847  12.231
51584W        W19813   1.768  43.596  10.934
51585W        W19814  30.103  35.020  13.474
51586W        W19815   8.888  24.079   0.276
51587W        W19816  13.843  40.368  10.733
51588W        W19817  18.614  43.739   3.689
51589W        W19818  31.490  25.373   0.695
51590W        W19819  18.184  42.347   1.604
51591W        W19820   0.726  18.030  14.825
51592W        W19821  14.536  19.349   5.073
51593W        W19822   7.017  37.043   4.569
51594W        W19823  20.342  13.096  13.904
51595W        W19824  41.772  24.532   1.919
51596W        W19825   6.469   1.598  10.785
51597W        W19826  43.001   7.739  13.803
51598W        W19827   5.144  16.685   0.840
51599W        W19828  20.268  36.773   0.036
51600W        W19829   8.259  24.678  11.093
51601W        W19830  32.969  33.045   0.457
51602W        W19831  11.906  33.552  11.049
51603W        W19832  43.282  34.095  12.026
51604W        W19833  20.771  44.024  10.722
51605W        W19834  13.823  11.399  10.302
51606W        W19835  36.840  18.288  12.415
51607W        W19836  29.500   9.357  13.015
51608W        W19837  22.905  25.892   4.098
51609W        W19838  11.455  13.768  12.972
51610W        W19839  12.777   0.501   4.625
51611W        W19840  17.585  43.755  10.437
51612W        W19841  44.036   0.211  13.955
51613W        W19842   5.614  32.845  14.702
51614W        W19843  14.385   4.191   2.520
51615W        W19844  22.199  34.483   0.938
51616W        W19845   9.883  39.514  12.553
51617W        W19846  32.010  28.521   3.190
51618W        W19847  30.229   5.327   0.026
51619W        W19848  33.366  36.931  11.587
51620W        W19849  43.311  16.360   3.743
51621W        W19850  20.350  30.115   3.301
51622W        W19851  43.309  19.424  13.949
51623W        W19852   1.268  10.692  12.460
51624W        W19853  34.567  28.275   3.572
51625W        W19854  29.734  41.493   2.294
51626W        W19855  29.050   3.047  11.975
51627W        W19856  41.852  38.295   4.241
51628W        W19857  31.497   3.656  12.827
51629W        W19858  10.205   2.719   1.542
51630W        W19859  14.844  37.958  11.122
51631W        W19860   2.366  27.732   2.209
51632W        W19861  25.944  34.540   0.947
51633W        W19862   4.917  17.127   3.299
51634W        W19863  35.467  16.224   1.569
51635W        W19864  15.143  31.912  10.203
51636W        W19865  14.151  20.642   1.209
51637W        W19866   8.018  38.818  10.109
51638W        W19867   5.329  44.339   2.850
51639W        W19868   8.359  20.004   0.569
51640W        W19869  34.075  24.592   2.376
51641W        W19870  15.685  19.720  12.430
51642W        W19871  20.880  39.229  11.538
51643W        W19872   0.821  39.513   0.886
51644W        W19873  12.694  42.446  12.401
51645W        W19874   8.491  29.625   1.260
51646W        W19875  39.418  34.540  11.700
51647W        W19876  38.445  18.664   1.757
51648W        W19877  39.103  23.442   4.174
51649W        W19878  13.395   9.667  14.011
51650W        W19879  26.673  37.791  11.547
51651W        W19880  18.299  24.169   0.931
51652W        W19881  26.739  41.875   1.573
51653W        W19882  11.586  43.893  11.151
51654W        W19883  12.613  42.242  11.542
51655W        W19884  27.648  13.230   4.856
51656W        W19885  31.471  44.458   3.151
51657W        W19886  24.009  42.860   0.685
51658W        W19887   6.580   6.403  13.314
51659W        W19888  36.348  27.635  12.035
51660W        W19889   9.530   8.782   9.964
51661W        W19890   4.261  31.458   1.071
51662W        W19891  34.005   3.751   2.405
51663W        W19892   2.064  15.970   3.227
51664W        W19893  41.742  37.864  13.841
51665W        W19894  44.375  24.209   2.701
51666W        W19895  35.567  29.462  14.002
51667W        W19896  10.334  25.030  11.128
51668W        W19897   5.341  26.957  12.618
51669W        W19898  44.177   1.895   4.089
51670W        W19899  13.361  18.765   2.186
51671W        W19900  15.248   7.150   4.415
51672W        W19901  23.149  24.326  14.244
51673W        W19902   7.946  30.968  13.866
51674W        W19903  39.004  28.035  12.468
51675W        W19904  36.373   4.002  14.790
51676W        W19905  37.941  35.084   1.277
51677W        W19906  36.001  11.599  11.392
51678W        W19907   5.817  40.524  14.126
51679W        W19908  31.355  34.768  13.811
51680W        W19909  43.410   1.846  12.406
51681W        W19910   4.724  35.308   0.276
51682W        W19911  22.547  16.319  14.880
51683W        W19912   6.185  15.149  13.895
51684W        W19913  13.827  42.373   2.400
51685W        W19914  43.367  34.772  13.597
51686W        W19915  27.961  41.443   4.491
51687W        W19916  25.609  35.365   0.282
51688W        W19917  12.182  39.523   2.076
51689W        W19918   8.078  30.120  13.123
51690W        W19919  36.472  39.549   4.621
51691W        W19920  41.619  40.313  13.734
51692W        W19921  38.368  39.309   1.861
51693W        W19922   4.177  28.975  11.603
51694W        W19923  14.578   1.791   2.951
51695W        W19924  12.796   8.680  13.974
51696W        W19925   6.133  13.556   4.698
51697W        W19926  17.787   8.741  12.898
51698W        W19927   9.342  25.188  13.356
51699W        W19928  34.902  25.589  13.014
51700W        W19929  28.993  36.398   4.130
51701W        W19930   4.812  14.397  11.454
51702W        W19931   2.179  37.304   3.706
51703W        W19932  27.335  11.049   4.575
51704W        W19933  18.164  41.488  12.374
51705W        W19934  29.301   0.874  11.376
51706W        W19935  19.715  42.003  13.330
51707W        W19936  36.756  14.290  14.298
51708W        W19937  42.767   3.424   1.481
51709W        W19938   7.011  40.849   2.727
51710W        W19939  14.761  13.808  10.265
51711W        W19940   4.889  17.148   0.678
51712W        W19941   7.062  35.095   2.819
51713W        W19942  26.454  36.537   4.638
51714W        W19943  14.284   5.826  14.889
51715W        W19944  26.657  22.245   4.321
51716W        W19945   4.404   1.420   3.221
51717W        W19946  36.834  19.898  11.818
51718W        W19947  23.220  38.671  11.294
51719W        W19948  37.548  13.048  14.716
51720W        W19949  42.941   8.796   1.869
51721W        W19950   9.283  27.003  10.665
51722W        W19951  43.259  33.537   2.238
51723W        W19952  42.416  17.790  13.538
51724W        W19953  16.310  21.732  12.194
51725W        W19954   0.811  28.535  12.086
51726W        W19955  39.774   2.189  12.869
51727W        W19956  10.123  20.823  10.593
51728W        W19957  27.546  14.200   0.737
51729W        W19958  18.664  15.570  13.162
51730W        W19959  30.093  24.681  11.564
51731W        W19960  25.165  40.086   1.219
51732W        W19961  31.361   0.384   2.118
51733W        W19962  17.042  15.559   9.643
51734W        W19963  19.093  20.290   0.622
51735W        W19964  23.046   5.889   2.795
51736W        W19965  29.094  23.502   4.138
51737W        W19966  32.631  43.051  10.698
51738W        W19967   4.583   3.922   4.147
51739W        W19968  37.309   3.379   4.572
51740W        W19969  34.021  25.779   3.008
51741W        W19970  12.187   6.272  11.163
51742W        W19971  38.687   2.825  12.435
51743W        W19972  16.845   9.316   2.325
51744W        W19973  14.646  14.404  12.609
51745W        W19974  43.788  17.606   1.710
51746W        W19975  44.736  41.916   2.229
51747W        W19976   7.887   7.842  14.907
51748W        W19977  41.521  19.536  10.603
51749W        W19978   8.167   8.197  12.466
51750W        W19979  31.748   1.926   3.052
51751W        W19980  27.765  38.983  12.466
51752W        W19981  38.773   4.369  14.078
51753W        W19982  41.075  27.904   1.422
51754W        W19983  31.159  26.560  11.953
51755W        W19984  29.542  29.081   4.520
51756W        W19985   8.182  30.627   1.914
51757W        W19986  22.513  27.637   4.535
51758W        W19987  36.862   1.698  13.826
51759W        W19988   7.293  23.981   0.383
51760W        W19989  14.700  19.280  12.178
51761W        W19990  21.074  10.221  11.086
51762W        W19991  35.026  22.920   5.142
51763W        W19992  35.404  14.721  13.086
51764W        W19993  34.993  35.563  14.576
51765W        W19994  38.911  29.588   2.152
51766W        W19995  21.503  18.570   0.471
51767W        W19996  43.901   2.871  14.349
51768W        W19997  17.719   5.402   2.753
51769W        W19998   1.405   0.928  13.106
51770W        W19999   5.423  24.607  11.178
51771W        W20000   6.174   3.929  13.548
51772W        W20001  34.844  24.593   1.037
51773W        W20002   6.577   1.938  14.576
51774W        W20003  25.850  13.510   5.469
51775W        W20004  25.375  21.103  13.954
51776W        W20005  15.087  35.611  13.113
51777W        W20006  35.093  30.792   0.676
51778W        W20007   5.782  25.681   3.486
51779W        W20008  24.231  37.129   2.379
51780W        W20009   4.857  10.196  10.926
51781W        W20010  40.046  12.219  12.438
51782W        W20011  37.999  34.231  12.557
51783W        W20012  44.093  10.160  10.698
51784W        W20013  24.043  21.739   2.383
51785W        W20014  32.097  31.923  13.582
51786W        W20015  39.554  32.444   3.213
51787W        W20016  26.983  42.511  14.830
51788W        W20017   9.874  17.141   0.805
51789W        W20018   3.675   7.170  11.970
51790W        W20019  17.551  20.734   1.554
51791W        W20020  38.752  41.091   9.976
51792W        W20021  15.729  35.308  14.285
51793W        W20022   9.429  18.046  13.503
51794W        W20023  30.877  21.224  14.846
51795W        W20024  22.151  13.585  12.261
51796W        W20025  30.739  41.841  13.127
51797W        W20026  26.818  32.790   2.054
51798W        W20027  16.656  24.506  12.215
51799W        W20028  19.730  11.284   4.215
51800W        W20029  40.048  14.577   0.731
51801W        W20030  25.003  24.544  11.095
51802W        W20031  19.592  38.815   3.705
51803W        W20032   6.599  30.458  14.027
51804W        W20033   6.506  28.370  13.574
51805W        W20034  12.045  39.266  13.406
51806W        W20035  43.572  35.697   2.339
51807W        W20036  43.340   9.414   3.146
51808W        W20037   3.965   5.122   1.720
51809W        W20038  39.527  42.396  11.565
51810W        W20039  12.723  29.924   2.825
51811W        W20040   8.281  17.644   1.793
51812W        W20041  11.963  14.623   1.422
51813W        W20042  33.729  18.809   1.867
51814W        W20043  38.925   9.793  11.912
51815W        W20044  34.018  13.290   3.322
51816W        W20045  42.465   2.807  13.775
51817W        W20046  35.649  24.502  14.335
51818W        W20047  22.986  30.337   0.705
51819W        W20048  13.655  34.639   0.182
51820W        W20049  27.181   1.310   2.510
51821W        W20050  39.993  36.493   4.331
51822W        W20051  42.185  17.299  14.378
51823W        W20052  13.064  32.631   3.721
51824W        W20053   6.709  22.703   0.289
51825W        W20054  35.821  21.455  13.098
51826W        W20055  25.184  43.247  14.210
51827W        W20056  44.228   8.139   2.214
51828W        W20057  35.640  40.904  12.122
51829W        W20058  33.507  25.538   4.381
51830W        W20059  29.428  28.427  14.958
51831W        W20060  10.621   9.840   4.986
51832W        W20061  40.797  24.476   3.267
51833W        W20062  35.849   4.847  10.597
51834W        W20063   0.905  16.912  12.117
51835W        W20064  16.724  30.180   1.488
51836W        W20065  32.045  16.791   2.065
51837W        W20066  35.505  40.912   4.616
51838W        W20067  13.856   3.494  13.837
51839W        W20068  37.824  41.417  13.091
51840W        W20069  27.117   3.673   2.085
51841W        W20070   2.401  40.201  10.619
51842W        W20071  30.439  44.549   2.684
51843W        W20072  11.627  10.378   0.924
51844W        W20073  11.721  19.598   0.212
51845W        W20074   2.951  27.880  12.915
51846W        W20075  31.067  42.773  14.485
51847W        W20076  30.803  27.955  10.173
51848W        W20077  21.037  24.134   3.824
51849W        W20078  11.789  36.027   2.540
51850W        W20079  19.466  29.687  13.421
51851W        W20080  19.722  11.860  10.986
51852W        W20081  26.979   7.860  10.707
51853W        W20082  22.681  16.595  13.533
51854W        W20083  18.675   8.301   1.681
51855W        W20084   6.799   1.641   4.042
51856W        W20085  37.370  21.779  14.259
51857W        W20086  36.133  13.640   1.883
51858W        W20087  19.227  18.179  11.124
51859W        W20088  24.565  12.196   1.319
51860W        W20089   8.911   0.910   2.651
51861W        W20090  24.191  39.763   4.604
51862W        W20091  32.998  35.114  14.923
51863W        W20092  23.000  31.481   2.728
51864W        W20093  23.973  22.624  12.506
51865W        W20094  36.478  10.722   0.828
51866W        W20095  16.738  37.423  12.876
51867W        W20096  32.365  30.092  13.929
51868W        W20097  44.944  19.003  11.153
51869W        W20098  25.253  32.107   0.386
51870W        W20099   4.726  39.984  11.627
51871W        W20100  31.396  34.981  14.823
51872W        W20101   5.089  10.537  12.475
51873W        W20102  12.843  31.059   0.831
51874W        W20103   4.911  40.762   3.188
51875W        W20104  28.075  16.269  11.141
51876W        W20105  17.508   4.437   2.690
51877W        W20106  28.108  22.578   5.000
51878W        W20107  20.097  11.470  14.892
51879W        W20108  40.183   6.678  11.451
51880W        W20109   2.914  14.564  11.563
51881W        W20110  32.196  40.689  11.698
51882W        W20111  16.387  28.875  10.998
51883W        W20112   1.942  42.006  12.561
51884W        W20113  29.295  11.692  10.415
51885W        W20114  10.152  12.995  10.932
51886W        W20115  13.125  17.048  13.696
51887W        W20116  17.542  19.681  10.963
51888W        W20117   4.849  25.253  14.942
51889W        W20118  33.164  11.891  11.156
51890W        W20119  15.084   1.947  13.998
51891W        W20120  13.974  20.999   3.274
51892W        W20121   3.231  41.438  14.065
51893W        W20122  29.657  39.064  11.164
51894W        W20123  33.215  41.880  14.453
51895W        W20124   6.257  12.534   3.746
51896W        W20125  38.702  13.053  10.357
51897W        W20126  17.795   6.193   1.186
51898W        W20127   4.652  40.750  14.870
51899W        W20128  40.908  38.466  14.076
51900W        W20129   3.872  29.948  14.488
51901W        W20130  34.510  14.089  12.198
51902W        W20131   1.997  43.210   0.324
51903W        W20132  12.847  30.449  11.053
51904W        W20133  24.175  38.254   1.676
51905W        W20134  14.172  43.559  11.454
51906W        W20135   9.678   6.741  12.927
51907W        W20136  19.106  43.702   4.512
51908W        W20137  21.530  28.614  11.079
51909W        W20138  28.571  29.910   1.651
51910W        W20139  16.277  29.233  11.379
51911W        W20140  29.925  21.171   2.233
51912W        W20141  38.358  21.132  11.911
51913W        W20142   6.819  14.566  11.908
51914W        W20143   9.618   6.959  13.811
51915W        W20144  34.534  14.571   4.039
51916W        W20145  29.954  20.903   4.938
51917W        W20146  14.695  29.483  13.152
51918W        W20147  32.577  18.121  12.980
51919W        W20148  20.614  44.510  11.905
51920W        W20149  38.597  31.440  13.322
51921W        W20150  19.192  19.559  14.486
51922W        W20151  42.399  42.037   2.054
51923W        W20152   5.366  44.130  10.211
51924W        W20153   0.901  30.514  13.849
51925W        W20154  20.089  18.040  12.183
51926W        W20155  11.241  25.476   1.239
51927W        W20156  44.429   1.735  14.487
51928W        W20157   4.860  26.664  11.423
51929W        W20158  16.203  22.971  13.798
51930W        W20159  33.161   4.843  11.609
51931W        W20160   1.451  26.005  14.035
51932W        W20161  42.778   4.940   2.246
51933W        W20162  40.548  36.381  14.506
51934W        W20163   2.739  31.628   2.336
51935W        W20164  22.990  37.435   3.668
51936W        W20165   9.629  24.643  13.331
51937W        W20166   1.315  13.218  14.404
51938W        W20167   4.800  44.281   0.200
51939W        W20168  11.668   2.887  14.793
51940W        W20169  21.205   2.753  10.611
51941W        W20170  20.483  18.254  13.640
51942W        W20171  13.678  27.017  12.476
51943W        W20172  13.811  29.054   4.428
51944W        W20173   2.305  18.792  10.542
51945W        W20174   9.724  36.263   3.712
51946W        W20175  29.374  28.405  11.171
51947W        W20176  15.969  39.553   3.795
51948W        W20177  44.918  34.390   4.881
51949W        W20178  36.192  24.627   2.399
51950W        W20179  22.255  41.888   2.448
51951W        W20180   5.117  25.143  13.234
51952W        W20181  14.627  37.415   4.724
51953W        W20182  15.865  43.894   0.658
51954W        W20183  38.996  40.731   2.285
51955W        W20184  26.081  27.182  11.690
51956W        W20185   0.129  40.751  11.124
51957W        W20186  25.069  38.386   1.454
51958W        W20187  20.642  32.988  13.449
51959W        W20188  44.522  23.059   0.787
51960W        W20189  13.726  36.416   1.416
51961W        W20190  42.781   1.561  12.721
51962W        W20191  31.697  34.389  13.227
51963W        W20192  14.768  31.153  12.931
51964W        W20193   4.194  17.479   0.455
51965W        W20194  34.650   5.917  13.526
51966W        W20195  31.815  34.707  14.071
51967W        W20196   5.166  28.442   2.877
51968W        W20197  14.942   9.874   0.720
51969W        W20198  27.505  10.799  14.965
51970W        W20199  29.281  17.938   1.765
51971W        W20200  25.287  20.811   0.906
51972W        W20201  22.934   5.234  12.831
51973W        W20202  29.209  20.601  11.534
51974W        W20203   0.871  21.986   4.270
51975W        W20204  42.705  42.241   4.685
51976W        W20205  34.716  18.625   1.713
51977W        W20206  28.414   3.916   3.380
51978W        W20207  29.955   2.301   0.737
51979W        W20208  30.548  28.229  10.539
51980W        W20209  29.144  19.046   2.755
51981W        W20210  22.930   2.665   4.237
51982W        W20211  18.862  14.101  11.646
51983W        W20212  29.134   8.279   0.350
51984W        W20213  40.413  31.928   3.209
51985W        W20214  19.180  14.736   4.675
51986W        W20215   3.210  15.075  12.802
51987W        W20216  32.522  17.078   0.827
51988W        W20217   4.626  33.146   1.720
51989W        W20218  11.582  35.584   3.149
51990W        W20219   5.985  14.213  10.507
51991W        W20220  15.454  20.856   3.740
51992W        W20221   4.368   6.801  12.561
51993W        W20222  33.898  40.849   3.180
51994W        W20223  23.731  30.681  11.882
51995W        W20224  40.224  24.735   5.050
51996W        W20225  34.487  10.266   4.357
51997W        W20226  22.891  12.284  14.307
51998W        W20227  29.059  34.457  12.947
51999W        W20228  23.131  20.979  12.497
52000W        W20229   9.873  16.473  13.971
52001W        W20230  29.474  28.277   2.359
52002W        W20231  14.786  26.508   3.571
52003W        W20232  32.929  24.017  14.039
52004W        W20233  18.460  14.243  12.826
52005W        W20234  18.447  44.942   2.406
52006W        W20235  40.995   2.511   3.894
52007W        W20236  14.820  31.960  13.323
52008W        W20237  36.605   0.317  11.027
52009W        W20238   4.370  42.185   1.285
52010W        W20239  41.305  29.023  12.767
52011W        W20240  18.647  16.088  12.513
52012W        W20241  36.404  11.794   4.871
52013W        W20242  39.875   8.187  10.647
52014W        W20243  39.916  36.369   3.835
52015W        W20244  23.130  27.377  12.461
52016W        W20245  34.753   6.030   3.253
52017W        W20246  13.203  41.530  11.221
52018W        W20247   7.407   0.205  12.434
52019W        W20248  40.547  28.074  12.870
52020W        W20249   0.401   5.143   0.008
52021W        W20250  43.877  11.889   4.493
52022W        W20251  13.637  18.964   1.194
52023W        W20252  34.183  44.515   1.752
52024W        W20253  25.627  42.571  14.354
52025W        W20254   8.948  42.987   3.462
52026W        W20255  34.803  39.471   0.784
52027W        W20256   4.174   0.937  13.334
52028W        W20257  31.638  43.249  12.935
52029W        W20258  32.257  19.096  13.154
52030W        W20259  20.202  29.481   4.791
52031W        W20260  44.108   5.828  10.898
52032W        W20261  28.412  20.028   0.283
52033W        W20262  11.959   6.939  14.516
52034W        W20263  34.943  11.060   0.814
52035W        W20264  36.907  40.537   2.605
52036W        W20265  40.251  44.956   0.691
52037W        W20266  43.765  43.957   1.447
52038W        W20267  18.153  18.818  13.969
52039W        W20268  11.908  44.523  14.726
52040W        W20269  29.430  14.792   1.217
52041W        W20270  16.590  29.657   4.108
52042W        W20271  32.723  10.003   2.336
52043W        W20272   0.746   6.471   4.065
52044W        W20273   3.838   7.672   1.490
52045W        W20274  19.567  13.039   2.389
52046W        W20275  14.511  41.415  10.769
52047W        W20276  12.868   2.304  12.051
52048W        W20277  30.024  26.068   3.617
52049W        W20278  12.654  19.709   1.373
52050W        W20279  13.615  15.140  14.219
52051W        W20280  24.453  40.769   0.471
52052W        W20281  40.573   5.463   3.170
52053W        W20282  26.731  41.993  11.014
52054W        W20283   2.712  22.829   0.133
52055W        W20284  27.905   6.743   1.914
52056W        W20285  32.858  33.284   1.843
52057W        W20286   5.947  36.501  12.960
52058W        W20287  15.324  24.010  14.994
52059W        W20288  40.500  23.085   1.725
52060W        W20289  26.052   1.369   4.457
52061W        W20290  11.771  37.428   5.122
52062W        W20291  11.961  19.625  10.821
52063W        W20292  30.320  15.277   2.123
52064W        W20293  14.670  36.509   0.514
52065W        W20294  44.014  11.404   1.748
52066W        W20295  11.247  35.183  12.121
52067W        W20296  23.712  14.626  13.559
52068W        W20297  38.592  21.237  10.139
52069W        W20298  17.718  29.183   1.940
52070W        W20299  24.176  30.573   3.182
52071W        W20300   5.982  24.664   2.818
52072W        W20301  36.527   8.303   3.119
52073W        W20302  33.620  18.804  14.149
52074W        W20303  22.973  26.374   3.946
52075W        W20304  31.571  32.650   3.689
52076W        W20305   6.360  11.703  14.443
52077W        W20306  44.935   6.102  14.471
52078W        W20307  11.567  30.390   4.581
52079W        W20308   0.254  24.768   3.161
52080W        W20309  33.173  28.616   1.927
52081W        W20310  20.188  38.078   4.352
52082W        W20311   5.093  39.569   1.799
52083W        W20312  27.057  29.080   1.849
52084W        W20313  26.964  14.010  13.536
52085W        W20314  27.095   9.268   1.145
52086W        W20315  38.958  30.993  13.860
52087W        W20316   3.324  21.765  11.872
52088W        W20317   2.308  31.640  12.214
52089W        W20318  13.522  13.616   3.814
52090W        W20319  34.037  30.848   2.352
52091W        W20320   6.272  26.975   0.798
52092W        W20321  22.947   6.701  10.585
52093W        W20322   6.666   7.363   3.719
52094W        W20323  21.571   1.016  10.574
52095W        W20324  30.329   5.695  12.864
52096W        W20325  44.154   9.268  10.736
52097W        W20326  36.521   6.539   9.896
52098W        W20327  19.890   9.620   0.831
52099W        W20328  19.664  12.891  14.507
52100W        W20329  32.232   9.269  13.929
52101W        W20330  21.289  38.559  14.409
52102W        W20331  28.430  35.835   4.573
52103W        W20332  42.903  33.314   1.915
52104W        W20333  13.254  27.713  11.080
52105W        W20334  16.765  10.691   3.629
52106W        W20335  39.784  23.591  10.359
52107W        W20336   7.358  12.179   0.453
52108W        W20337   6.935  30.887  11.245
52109W        W20338   4.718  39.046  14.853
52110W        W20339  30.297  23.202  11.629
52111W        W20340  26.249   8.850  14.727
52112W        W20341  43.890   9.694  12.426
52113W        W20342   6.436   0.948   4.534
52114W        W20343  31.305   7.922   1.652
52115W        W20344   2.212  11.237   0.752
52116W        W20345  33.684  22.708  12.536
52117W        W20346  31.783  40.927   3.111
52118W        W20347  10.069  24.713   3.639
52119W        W20348   7.177  42.995   2.355
52120W        W20349  19.121  24.075   5.255
52121W        W20350   0.420   9.173   1.805
52122W        W20351  10.154  27.433   1.345
52123W        W20352  30.084  42.121   1.505
52124W        W20353   7.338  39.953   4.549
52125W        W20354  17.764   9.684   3.750
52126W        W20355   0.304  15.834   2.964
52127W        W20356  38.885   0.796   2.294
52128W        W20357  14.380  34.829  11.217
52129W        W20358  41.918  21.479  10.462
52130W        W20359   9.624  11.052   0.125
52131W        W20360  34.833  33.388   3.110
52132W        W20361  16.299  21.561   0.192
52133W        W20362  34.526   0.977   3.689
52134W        W20363  33.427   3.543   3.724
52135W        W20364  26.930  12.384  14.505
52136W        W20365  16.203  34.071  12.936
52137W        W20366  16.727  17.077  13.496
52138W        W20367  36.612  41.567   0.760
52139W        W20368  29.557  34.960   3.681
52140W        W20369  32.649   8.514  14.520
52141W        W20370  43.319   2.661   2.270
52142W        W20371  11.790  19.158   2.859
52143W        W20372  41.334  14.335   2.607
52144W        W20373  30.521  29.408   3.587
52145W        W20374  10.699  26.352   2.667
52146W        W20375  29.162  26.721   1.655
52147W        W20376  10.168  20.192   0.407
52148W        W20377   7.220  31.233   1.192
52149W        W20378   8.320  12.093  14.766
52150W        W20379  19.239  23.596   2.348
52151W        W20380  38.881  41.676   2.210
52152W        W20381  11.793  14.362  14.574
52153W        W20382  33.333  18.565   0.562
52154W        W20383   1.012  27.676   2.587
52155W        W20384   9.577   4.565  14.339
52156W        W20385   3.711   1.903  10.710
52157W        W20386  42.808   9.304   0.209
52158W        W20387  29.388  38.085  11.471
52159W        W20388  21.035  19.048  13.519
52160W        W20389  15.173  13.729   2.929
52161W        W20390  19.035  17.262  13.177
52162W        W20391  16.343  32.187  14.452
52163W        W20392  25.713  32.097   1.873
52164W        W20393  30.046   0.249   0.677
52165W        W20394   8.910  29.978  14.885
52166W        W20395  22.718  16.446   3.607
52167W        W20396  30.700  27.213  10.663
52168W        W20397  33.042  25.657   4.648
52169W        W20398  41.788  21.305  14.026
52170W        W20399  33.052  17.626  13.774
52171W        W20400  21.237  43.811  14.311
52172W        W20401   1.321  32.320  13.749
52173W        W20402   8.374  12.395   1.708
52174W        W20403  28.014  24.854   0.850
52175W        W20404   5.144  19.974  11.977
52176W        W20405  14.124  41.016   2.541
52177W        W20406  22.725   9.010  11.125
52178W        W20407  35.629  24.922  14.864
52179W        W20408   7.640  19.723   1.046
52180W        W20409  35.053  10.180   1.343
52181W        W20410  29.125  28.456  13.479
52182W        W20411  20.354  20.107  11.507
52183W        W20412  11.154   9.316   1.710
52184W        W20413  31.128  23.137   3.313
52185W        W20414  40.405  32.194   3.675
52186W        W20415  16.971  40.011   1.349
52187W        W20416  42.934  41.744   2.761
52188W        W20417  29.944  35.419  11.468
52189W        W20418   2.701  13.331  12.800
52190W        W20419  18.311  22.202   2.629
52191W        W20420  31.476  18.971   1.277
52192W        W20421  16.698  39.639   3.249
52193W        W20422   4.786   2.942   2.807
52194W        W20423  18.275   9.417  12.383
52195W        W20424  24.083  26.414  11.264
52196W        W20425  35.974  38.976  11.273
52197W        W20426  34.353  27.586  12.942
52198W        W20427  12.010  14.746  13.612
52199W        W20428  18.337  23.097  10.292
52200W        W20429  37.556  41.828  12.931
52201W        W20430   8.416  11.708   0.767
52202W        W20431   1.800  15.573  13.100
52203W        W20432  33.192   2.276  10.670
52204W        W20433  36.873  41.191  11.651
52205W        W20434   8.248  25.524  14.925
52206W        W20435  35.359  39.371   1.610
52207W        W20436   8.306  10.330   3.334
52208W        W20437  16.535  36.135  11.527
52209W        W20438  10.796  41.219  10.609
52210W        W20439  40.009  10.209   1.326
52211W        W20440  44.455  13.070  14.348
52212W        W20441  27.647  43.308   2.139
52213W        W20442  40.959  33.394   4.728
52214W        W20443  13.612  41.729   0.855
52215W        W20444  21.360  42.783   5.382
52216W        W20445  13.851  24.997  11.979
52217W        W20446  27.734   9.641   2.743
52218W        W20447  12.200  19.037  14.043
52219W        W20448  40.265  44.375  13.557
52220W        W20449   1.861  41.681   2.698
52221W        W20450  13.651  18.492   0.518
52222W        W20451  29.903  15.072   3.024
52223W        W20452   3.860   4.459  10.344
52224W        W20453   9.290   3.661   1.751
52225W        W20454   3.700  12.066  11.075
52226W        W20455   6.518  22.183   3.278
52227W        W20456  28.136   1.398  10.674
52228W        W20457  30.174  20.292  13.019
52229W        W20458  38.298  15.206  13.386
52230W        W20459  40.048  37.735   2.266
52231W        W20460  29.105  31.176  12.940
52232W        W20461  33.449  33.153  13.566
52233W        W20462  19.194  20.760   0.879
52234W        W20463  42.227  10.727  13.949
52235W        W20464  20.108  17.542   2.941
52236W        W20465   1.727  33.853   0.248
52237W        W20466   9.713   1.208   1.479
52238W        W20467  30.806  20.935   4.573
52239W        W20468  11.175  43.909  14.579
52240W        W20469  32.103  11.893  12.479
52241W        W20470   9.142  39.069  13.325
52242W        W20471  25.506   9.376  12.372
52243W        W20472  43.865  41.987   2.441
52244W        W20473   1.429  23.161  11.922
52245W        W20474  30.505  36.413  10.845
52246W        W20475   2.194  37.338   1.961
52247W        W20476  16.438  44.415   2.954
52248W        W20477  10.410  43.044  12.485
52249W        W20478  31.616  23.556  14.033
52250W        W20479  18.005  13.636   0.026
52251W        W20480  34.413   6.414  10.961
52252W        W20481  34.594  36.946   4.521
52253W        W20482  44.920   0.027  12.265
52254W        W20483  16.483  35.050   1.515
52255W        W20484  23.728  17.729   0.342
52256W        W20485  31.336  13.157  11.155
52257W        W20486  39.156  31.916   1.777
52258W        W20487   6.286  34.856  14.469
52259W        W20488  28.853  34.113  11.002
52260W        W20489  18.237   1.936  11.965
52261W        W20490  41.383   3.375   3.636
52262W        W20491  30.148   1.227  13.913
52263W        W20492  20.026  15.529   4.095
52264W        W20493   3.533  36.315   1.183
52265W        W20494  21.561  18.671  11.466
52266W        W20495  18.814  35.942  12.842
52267W        W20496  20.979  28.162   2.773
52268W        W20497  21.753  39.019   2.442
52269W        W20498  35.733  19.509  10.776
52270W        W20499  18.720  35.160  12.437
52271W        W20500  37.153  12.045   3.377
52272W        W20501  17.662  30.061   1.433
52273W        W20502  21.102  32.040  13.439
52274W        W20503  44.244  34.937   2.775
52275W        W20504  12.674  17.286  10.890
52276W        W20505  26.392   8.344  11.728
52277W        W20506  15.583  18.207   2.439
52278W        W20507  34.091  14.832  13.708
52279W        W20508  16.732  16.738  11.130
52280W        W20509  30.461  43.300  10.943
52281W        W20510  24.219  13.259  13.515
52282W        W20511   2.248  20.181  10.595
52283W        W20512  21.057  39.792  12.735
52284W        W20513  12.091  30.933  11.540
52285W        W20514  41.421  14.699  10.697
52286W        W20515   1.950  36.650   4.480
52287W        W20516  14.107  39.004  14.308
52288W        W20517  12.090  21.124  13.697
52289W        W20518  23.379  10.742  13.861
52290W        W20519   7.845  21.002   1.761
52291W        W20520  14.141  29.962   4.143
52292W        W20521  41.827  11.666   1.819
52293W        W20522   9.608  12.712   2.913
52294W        W20523   2.604   2.702   1.206
52295W        W20524  23.494  27.812  11.626
52296W        W20525  13.794  22.027   0.071
52297W        W20526  43.865  42.293  11.211
52298W        W20527  37.626  40.928  13.870
52299W        W20528  16.722  17.031   3.945
52300W        W20529  12.842  29.424   3.132
52301W        W20530  32.164   5.461  14.432
52302W        W20531  17.948   0.096   2.480
52303W        W20532  33.633  23.221   2.391
52304W        W20533   0.346  41.459   2.853
52305W        W20534  38.417   4.571  11.891
52306W        W20535  21.237   6.899  14.054
52307W        W20536   1.251  33.874   1.051
52308W        W20537  18.195  17.297   2.823
52309W        W20538  13.849   3.223  11.505
52310W        W20539  16.614   7.880   2.405
52311W        W20540  22.932  14.849   2.344
52312W        W20541  18.487  18.291   4.948
52313W        W20542  13.642  15.840   4.250
52314W        W20543   5.910   6.863   0.287
52315W        W20544  23.106  12.856   0.890
52316W        W20545  33.887  21.286  11.966
52317W        W20546  14.265  22.158  14.892
52318W        W20547  14.053  30.976   2.239
52319W        W20548  10.586   4.970   4.857
52320W        W20549   9.808  39.997   4.002
52321W        W20550   8.709  41.611  11.148
52322W        W20551  43.485   2.289  11.041
52323W        W20552  22.636  37.505  14.279
52324W        W20553  12.360  24.141  10.575
52325W        W20554  12.730  42.722   2.948
52326W        W20555  38.423  36.388   0.504
52327W        W20556  18.489  15.335  14.836
52328W        W20557  34.487  19.041  10.681
52329W        W20558  23.199  33.407   2.705
52330W        W20559   2.998   3.782  13.523
52331W        W20560  38.827  36.895  10.427
52332W        W20561  43.228   7.127   4.153
52333W        W20562   6.931  28.566  13.362
52334W        W20563  42.314  22.667  11.982
52335W        W20564  41.145  18.538  11.985
52336W        W20565  35.065  33.043   0.059
52337W        W20566  22.576  28.115   3.178
52338W        W20567  41.864  43.484  13.506
52339W        W20568  32.911  17.378  13.335
52340W        W20569  35.091  14.097   1.324
52341W        W20570  23.433  38.013  11.212
52342W        W20571   3.307   1.836  13.744
52343W        W20572  35.111  29.538   1.007
52344W        W20573  38.628  34.596  12.320
52345W        W20574  42.512   9.225   4.602
52346W        W20575  25.645  25.459  13.025
52347W        W20576  42.896  28.171  11.977
52348W        W20577   9.317   1.815  14.053
52349W        W20578  16.589  21.619  12.622
52350W        W20579   3.218  43.217  13.533
52351W        W20580  32.304  41.513   2.456
52352W        W20581  21.181  14.996   4.052
52353W        W20582  19.173  21.075   0.420
52354W        W20583  27.433   9.917  14.565
52355W        W20584  11.783   4.023  10.882
52356W        W20585  35.828  38.724  13.014
52357W        W20586  36.387  19.420  14.198
52358W        W20587  34.528  17.970   4.123
52359W        W20588  31.199  23.024   0.794
52360W        W20589  21.223  16.793  13.532
52361W        W20590  27.740  42.248   3.052
52362W        W20591  21.261  12.821   4.440
52363W        W20592  23.070  42.606  14.454
52364W        W20593  12.330  20.808   1.837
52365W        W20594   4.859  20.980   9.892
52366W        W20595  29.594  15.629  11.636
52367W        W20596  39.284  23.757   1.763
52368W        W20597   1.145  16.153  10.561
52369W        W20598  41.733  38.922   0.663
52370W        W20599  20.479   6.670  13.281
52371W        W20600  31.960  17.660  14.286
52372W        W20601   4.407   3.179   0.222
52373W        W20602  17.239  40.608   3.567
52374W        W20603  26.061  24.686  14.741
52375W        W20604   5.209  32.935  13.327
52376W        W20605  18.195  36.156   0.921
52377W        W20606  22.607  19.720   3.634
52378W        W20607  44.871  16.227   4.111
52379W        W20608  40.557  17.054  14.995
52380W        W20609  26.207   5.112  10.322
52381W        W20610  35.113  31.635   5.245
52382W        W20611  25.229  12.745  14.800
52383W        W20612  34.033  14.876  14.254
52384W        W20613  23.516   6.590   2.003
52385W        W20614   6.293  28.941  12.960
52386W        W20615  35.790   8.614   3.929
52387W        W20616  31.409   1.281   3.674
52388W        W20617  13.194   1.812  14.933
52389W        W20618   1.212  31.019   0.614
52390W        W20619  16.578  39.555  12.982
52391W        W20620  14.871  15.628  12.053
52392W        W20621  12.102  29.573  13.013
52393W        W20622   6.188  39.413   3.654
52394W        W20623  27.950  28.041  12.821
52395W        W20624   2.772  24.635  12.093
52396W        W20625  11.757  31.116  13.102
52397W        W20626   0.356  15.746   4.830
52398W        W20627  33.599  41.750  12.017
52399W        W20628   1.714  28.695  13.063
52400W        W20629   0.392  17.058  13.891
52401W        W20630  13.582  35.052  11.634
52402W        W20631   2.856   6.275   4.785
52403W        W20632  17.847  17.638   1.691
52404W        W20633  41.646  15.498   2.184
52405W        W20634  17.318  19.008  12.322
52406W        W20635  13.396  28.502   0.373
52407W        W20636  40.831  31.999   0.508
52408W        W20637  11.898   0.437  13.890
52409W        W20638  32.099  19.917   1.983
52410W        W20639  22.828  15.295   0.944
52411W        W20640   7.183  22.076  13.738
52412W        W20641  17.189  26.024  10.656
52413W        W20642  20.590   3.418   0.765
52414W        W20643  26.278  25.580   2.852
52415W        W20644   9.296  14.113  11.066
52416W        W20645  34.354  10.389  14.242
52417W        W20646   9.085   1.446   0.885
52418W        W20647  28.905   4.442  13.040
52419W        W20648  30.476  13.270   2.424
52420W        W20649  40.005  32.217   3.293
52421W        W20650  31.518  17.637  11.557
52422W        W20651   4.944  21.154   1.187
52423W        W20652  39.401  23.658   2.277
52424W        W20653  29.238  26.902   4.182
52425W        W20654  22.084  25.351   4.640
52426W        W20655  38.084  44.285  12.055
52427W        W20656   6.596   8.752  12.878
52428W        W20657   5.637  38.097  13.549
52429W        W20658  14.376  26.544  11.302
52430W        W20659   0.954  40.941  10.945
52431W        W20660   0.589  25.492   1.951
52432W        W20661  40.298  16.288  11.158
52433W        W20662   3.465  28.034  12.908
52434W        W20663  11.260   3.720   3.534
52435W        W20664  35.998  10.648   4.250
52436W        W20665  14.067  26.324  11.656
52437W        W20666  31.052  44.730   3.027
52438W        W20667  20.983   1.759   4.745
52439W        W20668  22.570  22.931   2.870
52440W        W20669  33.649  22.536   4.631
52441W        W20670  21.742  39.999  14.504
52442W        W20671  35.106  30.630   3.762
52443W        W20672  24.118  40.391  12.538
52444W        W20673   4.006  35.894  13.893
52445W        W20674  17.054  24.691  11.633
52446W        W20675   8.010  14.792   0.509
52447W        W20676  35.871   9.431  13.841
52448W        W20677  11.546   7.282   3.599
52449W        W20678   3.527  41.731   3.154
52450W        W20679  21.985   7.432   0.603
52451W        W20680  43.256  26.073  12.448
52452W        W20681   6.424   0.053   0.229
52453W        W20682   8.797   4.587  13.973
52454W        W20683  15.761  28.829   0.885
52455W        W20684   8.379   1.935  12.016
52456W        W20685  14.218  12.679  12.344
52457W        W20686  25.061  19.391  10.539
52458W        W20687  40.920  21.290  12.596
52459W        W20688  33.881   7.286   3.189
52460W        W20689  18.780  20.100  11.533
52461W        W20690  34.301  40.884   2.360
52462W        W20691  26.924  32.154  10.259
52463W        W20692  15.835  18.278   3.898
52464W        W20693  14.765  41.809  11.624
52465W        W20694  14.827   6.768   2.770
52466W        W20695   3.491   1.097  12.994
52467W        W20696   8.771  10.579  13.948
52468W        W20697  23.254  16.986  14.525
52469W        W20698  40.759  28.375  14.032
52470W        W20699  26.564  37.140  14.575
52471W        W20700  31.236  31.960   4.595
52472W        W20701  16.648  23.031   2.000
52473W        W20702  14.355  32.086   4.341
52474W        W20703  33.982  25.222  11.959
52475W        W20704  25.903   3.670  11.495
52476W        W20705  16.117  26.553  13.366
52477W        W20706   7.376  20.727  11.476
52478W        W20707  21.264   3.857   2.386
52479W        W20708  13.747   6.945  11.931
52480W        W20709  30.647   5.274   2.316
52481W        W20710  21.033  44.831  10.916
52482W        W20711  20.535  29.063  12.441
52483W        W20712   8.650  11.960  13.746
52484W        W20713  39.277  36.903  12.465
52485W        W20714   9.741  37.930   3.287
52486W        W20715  26.031  17.961   0.944
52487W        W20716  15.904  41.022   4.364
52488W        W20717  15.888  15.922   4.129
52489W        W20718  36.889   5.277   2.329
52490W        W20719  37.171  26.957   0.773
52491W        W20720  21.049  15.322  14.816
52492W        W20721  39.700  22.107   4.054
52493W        W20722  24.527   5.184  13.576
52494W        W20723  37.114  28.685  14.202
52495W        W20724  13.155  25.534  12.044
52496W        W20725  38.422   7.567  11.164
52497W        W20726  23.140  19.476   3.721
52498W        W20727  28.034  34.272   4.159
52499W        W20728  22.784  14.257   4.991
52500W        W20729  43.510   3.802  14.987
52501W        W20730  39.655  21.258  11.905
52502W        W20731   1.223  32.970   4.223
52503W        W20732  24.139  34.525   3.686
52504W        W20733  39.913  44.797   3.598
52505W        W20734  20.490  25.220   1.404
52506W        W20735  28.168  20.213   2.921
52507W        W20736   9.218   1.984   3.275
52508W        W20737  40.801  13.281   4.614
52509W        W20738  10.123  43.436   3.716
52510W        W20739  13.767   3.252   0.451
52511W        W20740  30.883   9.942   2.229
52512W        W20741   4.577  23.530   1.841
52513W        W20742  42.543  35.529  11.579
52514W        W20743  14.209  21.297   3.629
52515W        W20744  19.063  21.278  12.056
52516W        W20745   6.014  23.552  10.546
52517W        W20746  23.685  17.814   3.625
52518W        W20747  28.685  43.478   0.392
52519W        W20748   3.757  39.767  13.440
52520W        W20749  22.698  21.972  14.043
52521W        W20750  29.995   3.160   3.724
52522W        W20751  28.414  10.381   0.859
52523W        W20752  43.395   7.886   3.111
52524W        W20753  14.207  16.120   0.356
52525W        W20754  22.568   3.475   2.862
52526W        W20755  15.597  21.066  13.720
52527W        W20756  38.778  17.281   4.577
52528W        W20757   9.572  28.126   3.159
52529W        W20758  39.033  18.547  11.670
52530W        W20759  34.136  28.950  14.887
52531W        W20760  36.607  15.509  13.083
52532W        W20761  13.044  12.585   2.084
52533W        W20762  35.494  21.281  13.446
52534W        W20763  26.535  39.909  12.116
52535W        W20764   0.418  25.111   3.998
52536W        W20765  35.637   4.706   2.347
52537W        W20766   2.650   8.306   3.380
52538W        W20767  36.623  13.762   1.644
52539W        W20768  43.586  21.755  11.898
52540W        W20769  36.071  26.600  11.413
52541W        W20770  10.609  30.444   3.736
52542W        W20771   3.305  29.544  13.288
52543W        W20772  35.395   4.406   1.385
52544W        W20773   3.907  10.386   3.350
52545W        W20774   3.425  25.422  13.894
52546W        W20775  41.187  14.338   3.127
52547W        W20776  34.008  16.249  14.877
52548W        W20777  27.810  41.288   2.710
52549W        W20778   9.980  31.920   3.741
52550W        W20779  37.991  13.074  13.581
52551W        W20780  28.923  20.147   2.172
52552W        W20781  29.312  18.163   5.186
52553W        W20782  23.658  42.633  12.128
52554W        W20783  34.594  28.608   3.970
52555W        W20784   0.890  22.023   0.860
52556W        W20785  13.210  39.965   0.992
52557W        W20786  29.713  36.063  12.022
52558W        W20787  26.146  29.020   4.848
52559W        W20788  34.617  38.518  13.923
52560W        W20789  13.626  26.204  13.918
52561W        W20790  33.173  32.514  14.273
52562W        W20791  20.756  13.324  12.118
52563W        W20792  19.651  13.688   1.784
52564W        W20793  19.227   1.760   4.987
52565W        W20794   7.333  34.417  12.545
52566W        W20795  42.489   7.401   0.050
52567W        W20796  38.281  26.620   4.096
52568W        W20797  35.584  29.737   2.243
52569W        W20798  34.316  37.271   3.615
52570W        W20799  23.728  28.049   2.725
52571W        W20800  24.655  35.949   1.807
52572W        W20801   2.354  41.931   4.651
52573W        W20802  41.351  13.946  12.455
52574W        W20803  12.325  41.396   4.407
52575W        W20804  27.015   4.318   3.344
52576W        W20805  11.692  40.408  14.748
52577W        W20806   5.001   6.153   4.504
52578W        W20807   6.255  36.388  13.550
52579W        W20808  31.557  17.328  13.818
52580W        W20809  28.902   0.367  11.986
52581W        W20810  29.271  44.784   2.269
52582W        W20811  31.250  36.846  14.427
52583W        W20812   9.629  41.904   3.056
52584W        W20813  27.460  26.422  14.158
52585W        W20814   1.511  43.182  14.391
52586W        W20815  26.978  37.320  10.674
52587W        W20816  44.583   1.283   2.200
52588W        W20817  24.485  34.419  11.777
52589W        W20818  17.118  13.214   4.748
52590W        W20819  42.877  42.812   1.782
52591W        W20820   2.830  14.904   1.680
52592W        W20821   7.769  13.804  12.994
52593W        W20822  15.932  25.727   4.835
52594W        W20823  14.577  37.934  13.826
52595W        W20824   3.845  21.802   2.075
52596W        W20825  32.938  11.205  13.863
52597W        W20826  40.434  19.555   4.316
52598W        W20827  19.725  22.290  10.595
52599W        W20828   0.458  40.075   1.251
52600W        W20829   6.272  18.167  11.605
52601W        W20830  24.042  41.412  11.391
52602W        W20831  25.900  27.050   1.758
52603W        W20832  31.252  28.186  10.255
52604W        W20833  35.948  44.586  10.322
52605W        W20834   1.884  20.640   0.890
52606W        W20835  42.799  20.249   4.072
52607W        W20836   7.138  17.617   3.497
52608W        W20837  32.586  41.959  12.082
52609W        W20838  23.017  22.156   0.923
52610W        W20839   3.311  13.088   1.465
52611W        W20840  17.816   9.133   1.332
52612W        W20841  42.965  10.490  13.564
52613W        W20842  42.207  11.243   1.907
52614W        W20843  23.773   3.822  13.429
52615W        W20844  29.653  38.918   2.783
52616W        W20845   1.761  32.095  13.849
52617W        W20846  35.396  17.829   3.488
52618W        W20847  15.832   8.157  12.034
52619W        W20848  35.426  24.531   0.240
52620W        W20849  44.611   4.277  10.028
52621W        W20850   3.440  12.199   3.248
52622W        W20851  39.266  42.168   5.048
52623W        W20852  26.190  24.874  11.668
52624W        W20853   2.271  37.588   0.622
52625W        W20854   5.216  29.695   1.698
52626W        W20855   3.505   1.773  13.271
52627W        W20856  11.281   7.613  10.622
52628W        W20857  28.443  36.592  13.844
52629W        W20858   5.823  36.192  10.609
52630W        W20859  32.130  25.409  11.072
52631W        W20860  12.368  23.494   0.945
52632W        W20861  24.500  22.143  12.796
52633W        W20862  15.351  20.105   1.893
52634W        W20863  31.156  25.012   1.360
52635W        W20864  44.501  15.489   2.359
52636W        W20865  32.504  23.636   0.860
52637W        W20866  42.940  15.047   3.637
52638W        W20867  44.907  33.690   0.195
52639W        W20868  18.950  12.734   3.127
52640W        W20869  23.389  41.804  14.330
52641W        W20870  35.443  26.889   3.751
52642W        W20871  30.982  18.945   0.916
52643W        W20872  17.785  22.508  10.628
52644W        W20873  23.506   0.587  12.799
52645W        W20874   7.639   1.973  12.564
52646W        W20875  26.737  27.965   2.939
52647W        W20876  36.554  19.159  14.733
52648W        W20877  29.925  34.195  14.946
52649W        W20878  21.299  39.056  13.363
52650W        W20879  34.892  25.649   4.350
52651W        W20880   0.562  31.907  12.041
52652W        W20881  22.082   6.247  10.752
52653W        W20882  38.470   6.960  14.514
52654W        W20883  43.226  29.286  13.377
52655W        W20884  29.035  15.048   2.803
52656W        W20885   7.915  41.994   0.561
52657W        W20886  35.319  21.647   1.861
52658W        W20887   9.416   8.200  11.139
52659W        W20888  32.361  10.290  10.292
52660W        W20889   9.271  35.882   1.346
52661W        W20890  33.853  40.264   1.005
52662W        W20891  39.567  20.981   4.705
52663W        W20892  44.986  20.501   0.273
52664W        W20893  34.008  34.075  13.560
52665W        W20894  37.437  38.045   4.601
52666W        W20895  28.144   4.455   4.582
52667W        W20896  37.766  22.699  11.661
52668W        W20897  15.838   1.279  10.892
52669W        W20898  18.698  36.755   0.355
52670W        W20899  29.102  17.070  13.330
52671W        W20900  20.401  40.349  14.338
52672W        W20901  20.757  25.199  12.641
52673W        W20902  43.173  29.673   1.970
52674W        W20903  27.577  35.946   2.505
52675W        W20904  22.523  35.362  12.497
52676W        W20905   6.720  13.662   0.269
52677W        W20906  37.779  19.763   2.610
52678W        W20907  27.173   2.936  13.814
52679W        W20908  35.413  19.073  10.659
52680W        W20909  32.152  15.744  10.684
52681W        W20910  18.167  13.803  12.911
52682W        W20911  10.898  39.742   2.355
52683W        W20912  23.171  20.150   2.326
52684W        W20913  21.537  35.970   1.858
52685W        W20914  14.779  42.389  14.305
52686W        W20915  39.102  18.981  12.047
52687W        W20916  21.496  31.593   1.933
52688W        W20917  41.465  23.590  13.535
52689W        W20918  35.536   9.407   1.550
52690W        W20919  24.998   7.120   2.796
52691W        W20920  18.527  32.998  12.062
52692W        W20921  31.599   9.720  10.169
52693W        W20922  20.224  25.764   4.109
52694W        W20923  17.313  14.335   1.891
52695W        W20924  37.186  36.857   4.841
52696W        W20925  17.168  34.630  11.173
52697W        W20926  42.046   1.257  11.458
52698W        W20927  25.512   9.231  11.570
52699W        W20928  10.337  42.547   2.216
52700W        W20929  28.573  24.723  12.748
52701W        W20930  28.992   6.636   2.214
52702W        W20931   4.558   2.256  11.122
52703W        W20932  21.178   4.317  12.902
52704W        W20933   9.901  33.902  14.725
52705W        W20934   3.872  27.874   0.423
52706W        W20935   9.185   3.239  14.429
52707W        W20936  39.115  19.294  12.514
52708W        W20937  38.897  31.736  13.027
52709W        W20938  42.395  39.572   1.160
52710W        W20939  38.101  25.683  11.196
52711W        W20940  11.872  38.561  11.248
52712W        W20941  11.790  31.152  13.632
52713W        W20942  11.652  31.436  12.657
52714W        W20943  23.736  19.848  11.630
52715W        W20944  20.522  26.841   1.474
52716W        W20945  38.992  36.053   3.656
52717W        W20946  25.649  35.497   1.194
52718W        W20947  25.687  16.202  11.508
52719W        W20948   6.748  10.680  14.485
52720W        W20949  44.461   4.898  14.099
52721W        W20950  39.284  33.060  12.939
52722W        W20951  39.397  26.291   3.151
52723W        W20952  44.624  42.024   1.724
52724W        W20953   4.960  23.598   1.350
52725W        W20954  23.496  11.935   9.918
52726W        W20955  11.333  18.176   4.406
52727W        W20956  26.306  16.405   3.907
52728W        W20957  12.198  30.483   2.282
52729W        W20958  33.814  26.976  12.386
52730W        W20959  19.766  13.880   3.716
52731W        W20960  38.112  26.456   2.753
52732W        W20961   7.362  21.510  12.030
52733W        W20962  27.382  15.673  12.075
52734W        W20963  10.532  10.809  13.783
52735W        W20964  24.592  42.791   1.940
52736W        W20965  26.780  15.181   4.615
52737W        W20966  29.960  30.224  12.360
52738W        W20967  31.534  28.242   3.139
52739W        W20968  17.861  10.225  10.757
52740W        W20969   5.471  28.556   1.369
52741W        W20970  44.468  32.145  10.695
52742W        W20971  40.495   7.882  14.712
52743W        W20972   0.227  37.298   1.861
52744W        W20973  31.921   3.899   0.463
52745W        W20974  23.778  44.825   2.793
52746W        W20975  34.297  11.587   1.441
52747W        W20976  27.886  19.148   0.112
52748W        W20977  33.637  37.528   3.116
52749W        W20978   8.905  33.424  13.765
52750W        W20979  26.710  33.012   2.826
52751W        W20980   4.489   4.141  12.700
52752W        W20981  41.058  41.842   1.656
52753W        W20982  28.486  33.408  12.079
52754W        W20983  37.305  24.721  12.856
52755W        W20984   7.932  12.840  11.563
52756W        W20985  20.492  14.807  11.738
52757W        W20986  21.238  34.602   0.962
52758W        W20987  13.572  28.535  12.655
52759W        W20988  34.404  27.962   1.737
52760W        W20989  40.600  40.982   0.347
52761W        W20990  22.278  31.457  11.256
52762W        W20991  29.550  26.232  11.412
52763W        W20992   5.055  21.867  12.583
52764W        W20993  42.207  39.069  13.618
52765W        W20994  42.445   9.906  12.910
52766W        W20995  30.101   8.397   4.865
52767W        W20996  14.894  23.706   0.869
52768W        W20997  30.243   7.341   4.947
52769W        W20998   7.346  31.125   4.255
52770W        W20999  10.865  23.555   0.011
52771W        W21000  11.297  29.900   3.688
52772W        W21001  30.450  25.676   2.730
52773W        W21002  18.530  34.461   4.966
52774W        W21003  31.054  10.765  14.228
52775W        W21004   7.881   1.393  14.400
52776W        W21005  11.803  28.994  12.918
52777W        W21006  16.667  31.011   0.430
52778W        W21007  14.949  34.644   0.800
52779W        W21008  40.441   6.092  11.125
52780W        W21009  13.672  29.789   2.177
52781W        W21010  37.374   2.919   3.240
52782W        W21011  16.235  24.740  12.467
52783W        W21012  44.434  30.749   3.138
52784W        W21013  36.033  17.554  10.981
52785W        W21014  17.444  28.851  11.152
52786W        W21015  35.127   0.640   2.204
52787W        W21016  33.335  41.601   0.207
52788W        W21017  40.085   0.700   1.747
52789W        W21018  21.161  36.950   4.078
52790W        W21019   5.760  39.406   2.879
52791W        W21020  37.292  14.371   1.816
52792W        W21021  29.404   3.491   1.777
52793W        W21022  33.904  41.972  10.673
52794W        W21023   2.424   2.243  10.705
52795W        W21024  21.508  20.209  12.905
52796W        W21025  28.138  15.718   1.841
52797W        W21026  35.070  21.715  11.147
52798W        W21027   1.193  15.385  13.468
52799W        W21028  16.621  37.356  14.881
52800W        W21029  35.026  29.674  14.733
52801W        W21030  20.729  30.444   2.299
52802W        W21031  31.295  24.450   4.807
52803W        W21032  20.050  28.069   0.715
52804W        W21033  26.017  22.685   3.104
52805W        W21034  17.112   3.355   9.891
52806W        W21035   4.006  15.768  13.413
52807W        W21036  44.219  37.920  10.706
52808W        W21037  10.293  39.380   3.457
52809W        W21038  40.967   6.659  12.057
52810W        W21039  37.093  39.398   2.750
52811W        W21040  12.961  19.674   3.259
52812W        W21041  14.872  16.646  13.630
52813W        W21042  13.740  28.909  12.935
52814W        W21043   8.288  14.113   2.140
52815W        W21044  13.956  28.316  11.514
52816W        W21045  27.550  43.791  12.994
52817W        W21046  27.631  29.902   4.409
52818W        W21047  38.580  42.065   1.300
52819W        W21048  30.874  16.341   2.208
52820W        W21049  16.671  39.327  12.083
52821W        W21050  42.320  37.829   3.813
52822W        W21051   5.672  18.032  14.382
52823W        W21052  21.245  25.666   2.589
52824W        W21053  34.036  44.136  13.373
52825W        W21054  12.830  31.117  14.846
52826W        W21055   8.990  20.261  14.010
52827W        W21056   5.728  24.661  14.802
52828W        W21057   8.707  42.377  12.338
52829W        W21058  41.913   3.452   3.546
52830W        W21059  35.974  31.352   4.330
52831W        W21060   4.451  39.580  11.107
52832W        W21061  35.840  21.878   4.040
52833W        W21062  31.844  22.921  11.254
52834W        W21063  32.099  30.656   4.099
52835W        W21064  20.288  41.834  13.984
52836W        W21065  24.546   6.913  14.658
52837W        W21066  37.456  22.994   3.747
52838W        W21067   4.488   8.056   5.231
52839W        W21068  12.175  32.550  12.774
52840W        W21069  22.519   8.400   3.859
52841W        W21070   6.663  42.461   1.850
52842W        W21071  20.673  27.045  14.496
52843W        W21072   5.204   8.673  14.300
52844W        W21073  41.603  37.556  11.438
52845W        W21074   5.254  25.536  11.093
52846W        W21075  36.470  42.965  13.532
52847W        W21076  39.948  10.632  12.003
52848W        W21077  29.518  22.605   0.481
52849W        W21078  40.949  31.644   4.075
52850W        W21079   1.538  17.826   1.298
52851W        W21080   3.246  39.754  14.341
52852W        W21081   1.069  27.104   4.204
52853W        W21082  37.909  22.687   4.364
52854W        W21083  12.201  16.179  12.019
52855W        W21084  44.260  16.776  11.976
52856W        W21085  24.143   2.176   0.869
52857W        W21086  41.290  25.756   0.889
52858W        W21087  33.910  44.505   0.054
52859W        W21088   4.048  32.445  12.136
52860W        W21089  36.367  36.076   3.766
52861W        W21090  38.069   6.273   4.489
52862W        W21091  43.903  38.481   3.724
52863W        W21092  32.539  39.060  10.267
52864W        W21093  39.994  29.335   2.792
52865W        W21094  42.720  12.741   1.368
52866W        W21095  29.091  23.219  14.297
52867W        W21096  24.561  19.325   3.050
52868W        W21097  39.870   3.136  11.092
52869W        W21098   5.002  35.449   3.658
52870W        W21099  31.081  36.188   3.797
52871W        W21100  35.661   2.038   0.377
52872W        W21101  19.268  43.028   2.756
52873W        W21102  38.516  38.529   3.971
52874W        W21103  23.037  10.696   2.369
52875W        W21104  16.055  40.634  12.785
52876W        W21105  40.998  21.032   1.787
52877W        W21106  11.486  44.959   4.295
52878W        W21107  17.282   3.255   3.041
52879W        W21108  13.192  10.869  14.487
52880W        W21109  16.044  32.097   4.122
52881W        W21110  37.217   9.741  13.532
52882W        W21111  25.153  10.911   1.884
52883W        W21112   7.168  11.900  12.027
52884W        W21113  28.055  33.689   9.706
52885W        W21114   2.210  22.678   1.883
52886W        W21115  10.624  37.328  12.136
52887W        W21116  12.533  15.483   1.412
52888W        W21117   2.181  22.997  11.657
52889W        W21118  39.294  29.052  12.936
52890W        W21119  16.804  19.381   1.785
52891W        W21120  42.487  38.081   3.270
52892W        W21121  23.057  32.872  10.577
52893W        W21122  17.073  15.988  14.500
52894W        W21123  28.506  14.385  11.626
52895W        W21124  13.376  10.519   3.423
52896W        W21125   9.361   0.726  11.982
52897W        W21126  19.721  28.582   2.671
52898W        W21127  32.922  44.244   0.238
52899W        W21128  28.201  26.852  10.899
52900W        W21129   5.157  36.046  11.267
52901W        W21130  32.934  22.737   1.918
52902W        W21131   4.960  10.920  13.805
52903W        W21132   1.199   0.879   3.042
52904W        W21133   4.959  25.508   1.915
52905W        W21134  42.816  12.345   2.440
52906W        W21135   4.309   0.024   1.752
52907W        W21136  26.737   6.545   3.652
52908W        W21137  25.459  20.241   0.899
52909W        W21138  11.967   9.105  13.544
52910W        W21139   7.217   8.205   3.842
52911W        W21140  35.504  13.390  13.987
52912W        W21141  41.505  27.863   0.046
52913W        W21142  10.515  37.327  10.412
52914W        W21143  28.593  40.267   4.295
52915W        W21144   5.351  31.268  12.930
52916W        W21145  31.589  41.597  12.025
52917W        W21146  28.638  44.881  12.804
52918W        W21147   9.381  19.419   2.754
52919W        W21148   5.075   7.517   2.319
52920W        W21149  12.816  27.198   4.212
52921W        W21150  23.476  11.730  12.500
52922W        W21151  18.217  28.626  10.764
52923W        W21152   5.176  20.727  11.121
52924W        W21153  26.957  10.304  12.935
52925W        W21154  21.613  14.619   1.971
52926W        W21155  14.905  17.783  12.524
52927W        W21156  37.998  39.767  14.893
52928W        W21157  43.939  34.782  10.765
52929W        W21158  12.537  36.352   4.117
52930W        W21159   7.633  41.511   1.802
52931W        W21160  10.369  19.291   0.718
52932W        W21161  32.086  37.825  10.494
52933W        W21162  37.717  42.901  11.653
52934W        W21163  34.916   4.240   3.245
52935W        W21164  37.426  14.176  13.911
52936W        W21165  27.932  40.065   9.972
52937W        W21166  35.449  26.332  11.841
52938W        W21167  15.534   4.837   4.479
52939W        W21168  18.773  14.243  14.567
52940W        W21169   2.495  38.719   4.129
52941W        W21170  23.574   2.871  14.336
52942W        W21171  26.985  16.953  14.938
52943W        W21172  30.948  19.554   0.947
52944W        W21173  39.812  23.508  12.787
52945W        W21174  36.614  13.767   0.369
52946W        W21175  34.101   3.779  14.897
52947W        W21176  42.853   6.237  14.905
52948W        W21177   5.152  23.560  14.583
52949W        W21178  39.187  30.420  11.649
52950W        W21179   3.436  17.126  14.732
52951W        W21180  27.026  36.289   2.704
52952W        W21181  23.233  15.543  11.130
52953W        W21182  23.486  39.505   4.931
52954W        W21183  28.099  33.468  13.491
52955W        W21184  27.781  11.026  13.055
52956W        W21185  11.354   9.880  10.200
52957W        W21186  14.380  24.027  10.138
52958W        W21187  22.976  34.486   2.342
52959W        W21188  27.750  40.423   2.818
52960W        W21189   3.954  22.053   0.681
52961W        W21190  32.874   2.217   2.172
52962W        W21191  26.590   6.281   2.750
52963W        W21192   8.353   9.820   1.734
52964W        W21193  22.137  40.600   1.767
52965W        W21194  25.733  36.270  13.341
52966W        W21195   1.267  40.854   1.400
52967W        W21196  37.594  37.954  11.547
52968W        W21197  24.629   6.420   4.553
52969W        W21198   8.599   2.653  12.750
52970W        W21199  30.931  42.457  10.660
52971W        W21200  19.930   4.861   3.721
52972W        W21201  14.316  40.327   4.690
52973W        W21202   1.799  36.308   1.201
52974W        W21203  20.988  18.963   3.777
52975W        W21204  41.885  11.385  11.167
52976W        W21205  18.155   1.335   3.936
52977W        W21206  32.500  42.736  11.117
52978W        W21207   8.415  41.252   0.961
52979W        W21208  38.576  36.599   4.231
52980W        W21209  42.392  29.970  13.277
52981W        W21210  14.693  12.843   0.370
52982W        W21211  36.417  42.949  14.104
52983W        W21212  10.401  41.859  11.693
52984W        W21213  21.296  11.715  11.925
52985W        W21214   4.000  31.692  14.583
52986W        W21215  29.790  44.910   2.254
52987W        W21216  26.428   3.440   4.084
52988W        W21217  34.497   8.597   1.488
52989W        W21218  18.662  38.422   2.083
52990W        W21219  43.443  41.018  13.920
52991W        W21220  39.784  11.687  12.893
52992W        W21221  21.019  18.823   1.386
52993W        W21222  21.006  19.529  13.313
52994W        W21223  20.595  19.148   3.040
52995W        W21224  15.092  13.365   1.098
52996W        W21225   6.217   5.306   3.270
52997W        W21226   3.607  14.919  13.085
52998W        W21227   2.048  10.167  11.573
52999W        W21228   1.790   3.062  10.810
53000W        W21229   7.933   8.258   3.249
53001W        W21230  34.369  15.873  12.568
53002W        W21231  38.893  27.386  10.774
53003W        W21232  16.532   8.842   4.102
53004W        W21233   4.853  41.222  14.926
53005W        W21234   9.253   0.586   3.770
53006W        W21235   7.628  19.227  12.487
53007W        W21236  25.435  11.198   4.948
53008W        W21237   7.141   5.185  14.394
53009W        W21238  32.478  21.769  12.198
53010W        W21239  37.431  33.090  12.948
53011W        W21240   6.132  11.706   2.764
53012W        W21241   9.785  26.524   0.724
53013W        W21242  23.241  37.927   0.868
53014W        W21243  15.313  10.631  10.755
53015W        W21244  41.271   4.089   1.436
53016W        W21245   3.418  27.116   1.175
53017W        W21246  35.785  19.607   1.115
53018W        W21247  39.144  23.082  10.726
53019W        W21248  34.711  44.575   2.688
53020W        W21249   2.696  20.092  12.612
53021W        W21250  16.776  30.074   2.480
53022W        W21251  28.996  19.019  14.576
53023W        W21252  39.423  30.872   2.251
53024W        W21253   1.066  11.762   0.283
53025W        W21254  39.487   6.996   2.107
53026W        W21255  28.927  12.725  11.073
53027W        W21256  34.040  35.283   1.780
53028W        W21257  16.269   0.978  10.788
53029W        W21258  17.333   4.199  11.104
53030W        W21259  42.229  30.687   2.808
53031W        W21260  37.984  10.690  13.507
53032W        W21261  29.628  19.576   2.255
53033W        W21262   9.749  23.283   4.697
53034W        W21263  24.092  21.708  12.132
53035W        W21264  38.028  12.359  11.469
53036W        W21265  44.224  10.204   5.058
53037W        W21266  32.579  36.177  12.959
53038W        W21267  44.192  28.998   4.933
53039W        W21268  16.810  18.629   2.313
53040W        W21269  37.405  20.529   2.683
53041W        W21270  23.542  29.996  10.590
53042W        W21271  12.406  33.468   4.622
53043W        W21272   8.822  14.328  10.373
53044W        W21273  24.146  39.883  14.895
53045W        W21274  18.510  35.963   4.073
53046W        W21275  24.028   6.586  13.345
53047W        W21276  32.914  21.594   4.221
53048W        W21277  22.994  15.886   3.730
53049W        W21278  19.542  20.192  11.082
53050W        W21279  23.691  44.853  14.308
53051W        W21280   0.812  10.948  12.107
53052W        W21281  37.422  43.473  13.360
53053W        W21282  41.789   5.954  14.812
53054W        W21283   9.919  36.603  14.400
53055W        W21284  33.857  43.998   1.952
53056W        W21285  39.290  29.430   0.158
53057W        W21286  41.877  10.815   0.798
53058W        W21287  32.391  19.412   4.197
53059W        W21288   4.829  21.645   4.273
53060W        W21289  32.227  12.916  12.518
53061W        W21290  15.205  30.067   1.326
53062W        W21291  27.480  25.429  11.990
53063W        W21292  26.045   8.402   4.816
53064W        W21293  35.882  28.840   0.440
53065W        W21294  36.699   3.477   2.974
53066W        W21295  39.962  30.117  13.528
53067W        W21296  30.688  42.314  11.093
53068W        W21297  37.377  22.562   0.495
53069W        W21298  21.730  28.033   4.652
53070W        W21299  23.163   6.862   3.388
53071W        W21300  15.371  37.558   3.293
53072W        W21301  32.217  12.551   2.293
53073W        W21302  44.764   4.792   4.267
53074W        W21303   3.853  38.300  10.715
53075W        W21304  36.997  41.816  14.509
53076W        W21305  35.141  28.396  12.020
53077W        W21306   7.343  39.132  13.636
53078W        W21307  35.453   1.449   3.678
53079W        W21308  13.538  26.545   4.017
53080W        W21309   0.246   3.284   4.134
53081W        W21310  13.183  35.995   0.916
53082W        W21311   8.922  15.311   2.410
53083W        W21312  34.029   4.814   0.992
53084W        W21313  19.951   1.918  12.240
53085W        W21314  17.872  44.040  12.941
53086W        W21315  11.623  37.995   2.632
53087W        W21316  22.222  34.896  12.781
53088W        W21317  23.644   5.774   2.753
53089W        W21318   0.738  41.025   1.418
53090W        W21319  30.440   7.166  13.949
53091W        W21320  15.201  43.477   3.694
53092W        W21321  42.456  26.011   3.110
53093W        W21322   3.816  11.498   4.925
53094W        W21323  10.739   5.713   2.168
53095W        W21324  15.926  22.729   2.568
53096W        W21325  44.440  32.782  10.020
53097W        W21326  20.509   9.259  14.679
53098W        W21327  39.891   1.887  11.615
53099W        W21328  35.052  13.592  13.917
53100W        W21329  14.630  40.283   1.934
53101W        W21330  34.628  43.245  12.082
53102W        W21331  29.458  21.716  12.491
53103W        W21332  24.652   4.447  14.271
53104W        W21333  21.713  10.920  10.802
53105W        W21334   9.023   9.989  10.911
53106W        W21335   6.211  44.862   4.499
53107W        W21336  16.024  21.070  14.024
53108W        W21337  29.607  23.199   2.369
53109W        W21338  35.870  20.366   2.270
53110W        W21339  43.354   2.172  13.673
53111W        W21340  35.501  36.949   4.491
53112W        W21341   4.174   6.832  10.584
53113W        W21342  16.975  25.180   5.524
53114W        W21343  32.840  18.765   3.567
53115W        W21344  10.534   5.103  13.654
53116W        W21345  39.316  19.836   0.810
53117W        W21346   6.739  14.995   3.120
53118W        W21347  44.087  23.870   3.622
53119W        W21348   3.723   4.697   3.549
53120W        W21349  33.224   3.919  11.675
53121W        W21350   3.154  34.573   0.759
53122W        W21351  13.653  43.521  11.540
53123W        W21352  33.575  31.418  14.775
53124W        W21353  40.307  23.592  10.198
53125W        W21354  43.957  15.144   2.126
53126W        W21355  27.211  36.795   2.811
53127W        W21356  37.301  22.512  11.745
53128W        W21357  42.508  24.536   3.679
53129W        W21358  19.491  11.793  12.074
53130W        W21359  18.331  31.444   3.200
53131W        W21360   9.391   8.021   4.165
53132W        W21361  10.295  39.842   0.220
53133W        W21362   3.804   2.783   2.730
53134W        W21363   8.314   0.560   4.873
53135W        W21364   5.965  32.597  12.041
53136W        W21365  28.087  40.869  12.982
53137W        W21366   4.020   9.064  14.015
53138W        W21367  34.013  35.765   1.908
53139W        W21368  36.490  19.939  12.761
53140W        W21369  17.233  23.669   4.189
53141W        W21370  13.302  13.685   0.337
53142W        W21371   0.270  19.120   3.198
53143W        W21372  29.991  43.019  11.218
53144W        W21373  10.868  35.395   3.846
53145W        W21374   7.266  11.145   1.206
53146W        W21375  13.030   7.897  14.967
53147W        W21376  27.032   5.526  13.901
53148W        W21377   8.365  38.785  12.959
53149W        W21378  27.682  15.809  13.519
53150W        W21379  33.470  16.347   2.166
53151W        W21380  16.800  30.057  13.735
53152W        W21381  25.566  12.244  13.116
53153W        W21382  19.778  28.954   0.760
53154W        W21383  33.878  43.217  14.292
53155W        W21384  34.216  41.843  14.200
53156W        W21385  26.541  17.730   1.724
53157W        W21386  12.291  34.080  14.165
53158W        W21387  34.897  14.689   3.710
53159W        W21388  19.170  24.546   0.467
53160W        W21389  22.616  38.892  14.237
53161W        W21390   7.290  18.166  12.557
53162W        W21391  16.581  22.476  14.436
53163W        W21392  31.006  19.088  14.778
53164W        W21393   7.650  44.750  13.582
53165W        W21394  13.272  44.497  14.344
53166W        W21395  19.716  42.006  14.864
53167W        W21396  14.670  17.634  14.774
53168W        W21397  31.190  25.860   0.682
53169W        W21398  27.401   0.991   0.327
53170W        W21399  38.946  40.805   0.535
53171W        W21400  36.745  23.551  13.148
53172W        W21401  17.837  43.405  12.225
53173W        W21402  37.964  43.853   3.578
53174W        W21403  34.703  40.061  14.601
53175W        W21404   7.657  33.267  12.576
53176W        W21405   1.280   0.510  12.802
53177W        W21406  33.553   4.715  13.991
53178W        W21407   5.357   0.590  13.844
53179W        W21408  34.582  11.189   4.202
53180W        W21409   9.436  15.424  13.057
53181W        W21410   6.611   0.660   4.105
53182W        W21411  43.751  37.514  12.102
53183W        W21412   3.441  15.334  11.628
53184W        W21413  44.360  11.629   4.537
53185W        W21414  35.656  33.197  14.800
53186W        W21415   8.755  26.108   3.360
53187W        W21416  38.023  39.946   2.855
53188W        W21417  16.110  44.315   3.336
53189W        W21418   0.854   6.289   2.127
53190W        W21419  13.333  23.189   2.875
53191W        W21420  26.148  43.894   0.431
53192W        W21421  43.469  37.328   3.115
53193W        W21422  29.920  23.147  11.255
53194W        W21423  25.499  32.831  11.892
53195W        W21424  27.771  14.122   2.851
53196W        W21425  43.773  41.836  10.949
53197W        W21426   4.935   4.469  14.781
53198W        W21427  34.039  39.409  12.613
53199W        W21428  34.732   7.068  11.718
53200W        W21429  43.165  30.724   3.260
53201W        W21430  44.328  15.020   2.450
53202W        W21431  24.148  32.692  13.621
53203W        W21432  43.306  28.094  10.606
53204W        W21433  39.131  11.695   4.270
53205W        W21434   7.999  40.736  11.042
53206W        W21435  41.358   2.772   4.668
53207W        W21436  24.470  32.540  12.151
53208W        W21437  33.837  10.672   4.275
53209W        W21438  25.492   2.353   3.699
53210W        W21439  22.982  30.142  14.292
53211W        W21440   8.039  33.802  14.821
53212W        W21441  39.534  19.231  12.236
53213W        W21442   7.825  12.889  13.505
53214W        W21443  44.767  31.050   4.225
53215W        W21444  27.416  12.675  10.972
53216W        W21445  44.745  33.099  13.026
53217W        W21446  10.512   8.637  10.451
53218W        W21447   6.793  28.161   4.694
53219W        W21448  20.120  42.457   0.039
53220W        W21449  19.268  33.865  14.396
53221W        W21450  19.343  19.059  12.642
53222W        W21451  23.750  31.950   3.836
53223W        W21452  18.918   6.571   0.765
53224W        W21453   7.195   5.251  10.709
53225W        W21454   6.057  18.659   4.086
53226W        W21455  30.929   1.716   0.342
53227W        W21456  25.061   6.316  13.744
53228W        W21457  41.051  16.039   2.813
53229W        W21458   5.676  27.113  13.597
53230W        W21459  21.478  18.254   3.176
53231W        W21460  43.034  25.938  12.003
53232W        W21461  38.551  25.499   2.796
53233W        W21462  29.598   9.265  14.933
53234W        W21463   5.696  29.479   3.214
53235W        W21464  27.141  14.880   2.319
53236W        W21465  38.702  42.463   3.837
53237W        W21466  10.028  18.686   2.948
53238W        W21467  26.985  10.626   1.405
53239W        W21468   4.104  29.372  10.528
53240W        W21469  25.195  44.298   1.871
53241W        W21470  39.582  37.915   2.419
53242W        W21471   3.378  26.718   0.815
53243W        W21472  30.119  32.920   1.980
53244W        W21473   6.228  38.497   2.193
53245W        W21474  31.940  37.516   1.192
53246W        W21475   9.396  30.507  14.373
53247W        W21476  26.550  28.329  10.768
53248W        W21477  39.754  42.251  14.467
53249W        W21478  20.160   5.884   3.132
53250W        W21479  31.444  42.740   1.840
53251W        W21480  29.540   9.144   0.907
53252W        W21481  38.816  25.186   3.612
53253W        W21482   4.929   3.803  13.002
53254W        W21483  30.808   0.135  11.725
53255W        W21484  29.415  29.520  12.324
53256W        W21485  18.842  15.150   1.940
53257W        W21486  38.440  42.078   0.274
53258W        W21487  13.586  23.735   3.610
53259W        W21488  29.642  33.009  11.154
53260W        W21489  28.647  19.614   4.324
53261W        W21490  17.242  25.437  13.042
53262W        W21491  41.908  18.630   4.577
53263W        W21492   7.802  32.064  12.018
53264W        W21493  16.577  32.433   5.287
53265W        W21494  17.333  23.075   0.073
53266W        W21495  28.161  34.326   0.762
53267W        W21496   6.940   0.524  14.500
53268W        W21497   4.010  32.879   3.785
53269W        W21498  41.780  22.960  14.921
53270W        W21499  13.144  43.052   4.367
53271W        W21500  26.053   9.289   3.559
53272W        W21501  11.392  29.158   0.130
53273W        W21502   4.974  40.497  13.217
53274W        W21503  20.329  40.183  12.943
53275W        W21504   8.574  18.135   4.584
53276W        W21505  15.505  39.433   0.839
53277W        W21506  29.461  41.765   0.782
53278W        W21507   2.838  11.757  14.953
53279W        W21508   9.950  20.249  13.583
53280W        W21509  20.008  21.212   3.593
53281W        W21510  20.588  11.703  11.318
53282W        W21511  25.250  28.909  13.422
53283W        W21512   2.846  26.702  12.440
53284W        W21513   1.753  14.996  14.449
53285W        W21514  29.402  11.211  13.819
53286W        W21515  36.529  42.265   3.105
53287W        W21516  27.704   9.807   4.642
53288W        W21517  20.614  30.173  11.636
53289W        W21518  22.258  36.202   4.149
53290W        W21519  32.910  32.980   2.839
53291W        W21520   0.449  10.218  14.493
53292W        W21521   1.754  24.293   0.321
53293W        W21522  23.905  44.541  10.376
53294W        W21523  40.397  34.415  12.016
53295W        W21524  31.987  44.838   1.708
53296W        W21525  42.339  31.231  14.029
53297W        W21526  19.637  29.550  10.577
53298W        W21527  25.352  29.369  11.493
53299W        W21528  19.773  43.251  14.434
53300W        W21529  26.219  30.642  11.938
53301W        W21530   1.005  20.930  14.526
53302W        W21531  39.355  10.198   3.731
53303W        W21532  23.761  26.837   3.404
53304W        W21533   7.115  14.492  12.340
53305W        W21534  17.655  37.421   2.127
53306W        W21535  19.112  30.344  12.060
53307W        W21536  18.574  39.798   2.333
53308W        W21537  18.676  33.255  14.461
53309W        W21538  42.733  21.657  14.799
53310W        W21539  33.631  33.103   4.321
53311W        W21540  13.975  28.864  12.452
53312W        W21541  35.337  31.193   3.242
53313W        W21542  40.575  18.911   2.215
53314W        W21543  35.783  11.737  14.241
53315W        W21544   2.711  12.252  14.051
53316W        W21545  12.215   1.726   1.937
53317W        W21546  24.704  20.892   3.173
53318W        W21547   5.001  33.157  11.126
53319W        W21548  38.281  21.004  10.530
53320W        W21549  30.578  35.956   4.658
53321W        W21550  20.816  30.197  14.038
53322W        W21551  21.857  40.909  12.101
53323W        W21552  31.597  42.976  14.789
53324W        W21553  37.028   5.841  14.008
53325W        W21554   2.500  13.114   2.700
53326W        W21555  34.604  21.057   4.279
53327W        W21556  38.471  21.555  12.368
53328W        W21557   4.212  43.539   1.090
53329W        W21558  42.000   6.302  13.360
53330W        W21559  41.554  43.527   0.853
53331W        W21560  33.721   5.243  10.432
53332W        W21561  20.691  40.600   2.367
53333W        W21562  21.532  16.717  11.365
53334W        W21563  13.651  32.171  11.987
53335W        W21564   6.370  17.612  10.657
53336W        W21565   2.677  32.553  12.385
53337W        W21566   7.188  16.160   0.292
53338W        W21567  10.526  16.364   4.083
53339W        W21568  39.590   8.861  11.142
53340W        W21569   7.164  22.992  14.415
53341W        W21570  10.697  24.458  13.082
53342W        W21571   1.528  19.204   0.424
53343W        W21572   9.753  40.331  10.670
53344W        W21573   2.828  19.443   3.357
53345W        W21574  28.023  35.328   0.985
53346W        W21575  11.754  40.202   2.810
53347W        W21576  15.539  14.105  13.131
53348W        W21577  38.461  14.642   4.608
53349W        W21578  38.846  19.622  12.960
53350W        W21579  16.692  10.359   4.948
53351W        W21580  22.484  44.047  14.970
53352W        W21581  22.136  19.989   0.779
53353W        W21582  13.146   6.325   2.283
53354W        W21583   4.326  27.511   1.260
53355W        W21584   1.115   8.542  10.413
53356W        W21585  14.786  29.930  14.456
53357W        W21586  17.249  21.229  13.189
53358W        W21587   2.011  39.558   3.775
53359W        W21588   6.436  42.158  13.992
53360W        W21589  20.043   3.077  12.712
53361W        W21590  43.187  13.025   0.222
53362W        W21591  25.978   7.342  14.841
53363W        W21592  44.852  41.061   4.561
53364W        W21593   3.735   9.842   1.992
53365W        W21594  13.051  33.026  11.645
53366W        W21595   2.484  16.545  11.464
53367W        W21596  24.085   0.581  11.146
53368W        W21597  44.333   6.652  11.538
53369W        W21598  30.037  27.006   4.041
53370W        W21599  14.347  36.346  11.475
53371W        W21600  35.537  10.811  14.947
53372W        W21601  31.125  23.041  11.965
53373W        W21602  25.395  16.343   3.195
53374W        W21603  39.543   7.992  13.092
53375W        W21604  41.968   8.779   3.282
53376W        W21605   4.332  17.714  13.002
53377W        W21606  35.108  10.912   4.663
53378W        W21607  12.285  23.894  12.814
53379W        W21608  43.469   0.122   2.726
53380W        W21609  17.592  42.375  13.419
53381W        W21610  44.492  41.249  13.966
53382W        W21611  26.477   7.926   1.719
53383W        W21612  39.293   7.060  14.209
53384W        W21613  35.466  17.528   0.707
53385W        W21614  40.315  14.727  11.605
53386W        W21615  41.150  13.396   4.233
53387W        W21616  36.628  32.846   2.999
53388W        W21617  41.739   3.331   2.674
53389W        W21618  37.652  43.369  12.924
53390W        W21619   7.080  15.961   4.080
53391W        W21620  31.780  12.161   2.311
53392W        W21621  30.056  28.791  12.005
53393W        W21622  35.087   2.642   0.845
53394W        W21623  11.913  39.882   1.284
53395W        W21624  41.049  28.650   9.797
53396W        W21625  28.104  17.572  12.976
53397W        W21626  36.172  32.700   2.746
53398W        W21627   6.706  21.025  13.552
53399W        W21628  12.808   9.689  11.200
53400W        W21629   0.567  36.869  13.484
53401W        W21630  32.133  35.020   0.334
53402W        W21631  44.673  42.107   3.775
53403W        W21632  22.166  29.204  12.134
53404W        W21633   7.229   5.863  13.927
53405W        W21634   6.246  34.251  10.794
53406W        W21635  24.540  21.244   4.098
53407W        W21636  11.238   9.817  12.898
53408W        W21637  24.062  33.897   1.866
53409W        W21638  19.949  19.942   1.974
53410W        W21639  36.581  43.117  13.023
53411W        W21640  14.611  34.508   0.290
53412W        W21641  17.751  12.680   2.698
53413W        W21642  38.429  10.978   5.507
53414W        W21643  20.882  25.658   2.237
53415W        W21644   9.763   1.610  10.927
53416W        W21645  19.561  14.358   4.488
53417W        W21646   4.751  38.090   0.176
53418W        W21647  13.720  29.796  12.794
53419W        W21648  21.076  15.361  13.931
53420W        W21649  23.514  44.227  13.040
53421W        W21650  24.699  35.770   3.318
53422W        W21651   8.693  41.282  13.071
53423W        W21652  29.206  20.089   3.263
53424W        W21653   1.024  26.266   3.622
53425W        W21654  20.614   1.977  11.377
53426W        W21655  29.614   8.891   0.286
53427W        W21656  19.731   6.697  10.741
53428W        W21657  19.982   8.751  10.568
53429W        W21658  28.573  23.035   4.721
53430W        W21659  18.858  18.713  14.016
53431W        W21660  38.346   8.658   4.117
53432W        W21661  11.704  21.808  12.721
53433W        W21662  19.356  42.983  12.645
53434W        W21663  35.908  30.192   0.485
53435W        W21664  23.593  38.269  12.994
53436W        W21665  25.975  39.861  14.489
53437W        W21666  39.595  15.777  11.152
53438W        W21667  35.593  35.117  14.904
53439W        W21668  44.794   0.385   4.081
53440W        W21669  17.334  42.011   3.747
53441W        W21670  16.205  35.675   0.799
53442W        W21671  33.120  31.514   1.249
53443W        W21672  38.295  13.485  13.491
53444W        W21673  15.685   1.223  14.423
53445W        W21674  43.793  38.600  14.243
53446W        W21675   5.234  17.661  11.129
53447W        W21676  10.552  11.575  11.630
53448W        W21677  14.796   7.967  14.563
53449W        W21678  17.314  42.792   1.370
53450W        W21679  21.280   5.283   0.794
53451W        W21680  12.101   6.072   0.689
53452W        W21681  23.673  11.835   4.153
53453W        W21682  43.068  43.119  12.872
53454W        W21683  25.019  34.403  12.997
53455W        W21684  30.911  31.860  13.062
53456W        W21685  41.479  15.209  10.522
53457W        W21686  25.688  41.760  14.837
53458W        W21687  40.875  18.007  11.264
53459W        W21688  16.759   6.301  14.537
53460W        W21689  39.509  19.710  11.016
53461W        W21690  26.108  34.626  14.000
53462W        W21691  44.401  26.771   0.728
53463W        W21692  25.517   7.467  12.996
53464W        W21693  21.643  18.112  10.716
53465W        W21694  14.353  30.606  14.898
53466W        W21695   9.104   5.630   4.556
53467W        W21696  27.930  10.099   3.538
53468W        W21697  42.426  20.513  14.852
53469W        W21698  27.487  30.703   2.240
53470W        W21699  27.550   4.916   0.424
53471W        W21700  13.116  19.599   5.213
53472W        W21701   8.388  10.582  11.432
53473W        W21702  43.130  10.026  13.403
53474W        W21703  43.891   8.265  12.307
53475W        W21704  33.717  41.779  14.312
53476W        W21705  23.693  11.108   5.021
53477W        W21706  10.326  11.103   5.405
53478W        W21707  30.590  27.716  10.625
53479W        W21708  17.311   9.458  10.794
53480W        W21709  14.622  23.460  13.565
53481W        W21710  38.869  23.648  11.918
53482W        W21711  32.479  42.814  13.914
53483W        W21712  37.510  13.782  14.563
53484W        W21713  43.710   8.275  13.935
53485W        W21714  29.498   3.741   0.977
53486W        W21715  22.212  31.111   4.081
53487W        W21716  33.804   4.814   1.455
53488W        W21717  37.744  31.022  14.823
53489W        W21718  35.096  37.605   0.261
53490W        W21719  42.580  29.523   0.617
53491W        W21720  14.053   1.765  11.431
53492W        W21721  39.404  21.677   4.195
53493W        W21722   2.394  28.409   0.381
53494W        W21723  11.460  42.063   0.751
53495W        W21724  27.767  21.175  12.147
53496W        W21725  21.198   5.613   2.318
53497W        W21726  27.465  37.135  14.351
53498W        W21727  12.334  13.209   4.219
53499W        W21728  25.333   0.375  14.850
53500W        W21729   3.428  14.224   1.365
53501W        W21730  44.008  23.008  13.872
53502W        W21731  35.574  11.305   3.284
53503W        W21732   6.209  27.849   1.227
53504W        W21733   0.806  20.270   1.232
53505W        W21734  17.235  40.445   4.102
53506W        W21735  43.514  18.653   0.240
53507W        W21736  14.097  30.560  14.420
53508W        W21737  41.346  14.801   2.809
53509W        W21738   0.706   6.414  13.490
53510W        W21739  14.345  23.950  14.046
53511W        W21740   6.298  11.393   3.152
53512W        W21741  31.455  44.269   3.642
53513W        W21742  37.273  35.421  12.606
53514W        W21743   1.972  11.811  11.716
53515W        W21744  41.425  40.054  13.299
53516W        W21745  40.456  10.388  10.392
53517W        W21746  37.377  26.496   0.905
53518W        W21747   0.317  16.340   2.710
53519W        W21748  41.557   8.783   2.247
53520W        W21749  35.641  19.333   4.610
53521W        W21750  30.323  30.675  12.985
53522W        W21751   4.131  17.292  14.050
53523W        W21752  17.467   0.068  14.981
53524W        W21753  42.849  38.094  12.781
53525W        W21754   9.054  11.104   2.283
53526W        W21755   5.101   4.393   2.721
53527W        W21756  26.063  41.497  12.146
53528W        W21757  29.104  30.458   2.345
53529W        W21758  44.709  34.953   0.171
53530W        W21759  25.184  15.031  10.988
53531W        W21760  31.957  10.483   0.062
53532W        W21761   8.890  34.332  13.314
53533W        W21762  30.145  23.362  13.403
53534W        W21763  16.168  16.375  12.485
53535W        W21764   1.823  10.689  12.527
53536W        W21765   6.830  20.143  12.975
53537W        W21766  14.239  11.920   0.797
53538W        W21767  11.819  40.367   2.311
53539W        W21768  27.919  36.128   0.419
53540W        W21769  42.290   2.527   1.379
53541W        W21770  40.910   2.235  10.756
53542W        W21771  40.349  12.769   4.187
53543W        W21772  19.893  40.187   2.599
53544W        W21773  35.112  40.046   1.227
53545W        W21774  12.815  25.554   0.399
53546W        W21775   7.814  30.044  12.676
53547W        W21776  41.346   4.497  13.289
53548W        W21777   2.078  21.268  13.377
53549W        W21778  43.570  28.424  12.547
53550W        W21779   6.771  14.015   2.348
53551W        W21780  10.534  20.157   3.396
53552W        W21781  11.274  17.849   3.446
53553W        W21782  41.135   2.668  10.913
53554W        W21783  26.139  23.748   1.854
53555W        W21784  15.821   4.257  10.337
53556W        W21785  36.786  37.373   4.203
53557W        W21786   6.804  23.096  12.433
53558W        W21787  21.147  15.781  12.569
53559W        W21788  20.749   8.339  12.651
53560W        W21789  23.018  11.657   4.923
53561W        W21790  32.961  17.047  12.389
53562W        W21791  33.402  23.470   3.776
53563W        W21792  37.739  43.756   4.582
53564W        W21793  27.093  24.293   0.871
53565W        W21794   1.965  44.416   0.860
53566W        W21795   3.292  30.599  10.765
53567W        W21796  16.730  43.090  11.707
53568W        W21797   2.788  34.779  13.401
53569W        W21798  15.665  10.836  10.422
53570W        W21799  23.239  42.425  12.577
53571W        W21800  26.014  19.267  11.404
53572W        W21801  43.512   6.385  12.906
53573W        W21802   7.888  42.999   1.640
53574W        W21803   4.237  38.174   9.842
53575W        W21804  31.568  24.596  14.967
53576W        W21805  40.071  33.524   1.917
53577W        W21806  11.256   8.601   0.256
53578W        W21807   3.384  35.414   0.945
53579W        W21808  33.110   5.735   4.054
53580W        W21809  13.183  35.739   4.157
53581W        W21810  34.017  21.311   1.653
53582W        W21811   9.521  21.065   4.150
53583W        W21812   8.908  31.535   3.312
53584W        W21813  36.962   3.770  13.854
53585W        W21814  34.268  42.283  11.995
53586W        W21815   2.581  37.881  12.791
53587W        W21816  26.963  27.707  12.467
53588W        W21817  25.986  18.375  10.999
53589W        W21818   6.925   6.254   2.839
53590W        W21819  25.141   7.611   2.785
53591W        W21820   6.745  23.615  12.443
53592W        W21821  39.368   6.732   1.688
53593W        W21822  23.453   2.754   0.959
53594W        W21823   1.451  22.210  11.999
53595W        W21824  13.438  39.485  14.714
53596W        W21825  13.395  24.767  13.095
53597W        W21826  26.536   6.961   0.432
53598W        W21827  15.729  10.300   5.001
53599W        W21828  30.204  30.215  12.822
53600W        W21829  33.963   8.988   0.783
53601W        W21830  32.407  22.048   0.048
53602W        W21831  17.538  27.499   4.860
53603W        W21832  17.812  20.319  13.014
53604W        W21833  25.439  11.943   0.406
53605W        W21834  34.557   7.538  11.556
53606W        W21835  23.219   8.315  10.575
53607W        W21836  19.273  40.523   0.977
53608W        W21837   9.659   5.380   1.841
53609W        W21838  36.651  12.317  11.095
53610W        W21839  27.552  23.734   1.550
53611W        W21840  39.289   6.357   3.311
53612W        W21841  38.514   7.121   4.132
53613W        W21842  43.323  30.429  14.267
53614W        W21843  44.295  19.213   0.710
53615W        W21844  40.611   3.240  11.511
53616W        W21845  12.238  29.904   1.166
53617W        W21846  30.406  26.498   3.246
53618W        W21847  34.582  36.607  13.445
53619W        W21848  31.630   1.573  14.113
53620W        W21849  15.090  12.662  13.817
53621W        W21850  23.540   8.697   3.212
53622W        W21851   8.390   1.339   1.870
53623W        W21852   7.923   5.777   1.960
53624W        W21853   0.820   6.188  14.464
53625W        W21854  31.226  22.528   1.131
53626W        W21855  31.893  21.525   4.217
53627W        W21856  22.302  13.434   9.867
53628W        W21857  31.093  22.955   1.387
53629W        W21858  24.966  14.152  11.143
53630W        W21859   3.286  41.290   3.303
53631W        W21860  12.731  15.230  10.698
53632W        W21861   1.959  39.251  11.179
53633W        W21862  12.609  32.643   4.886
53634W        W21863  37.028  37.605  13.860
53635W        W21864  17.537  13.063   2.370
53636W        W21865  18.597  30.744  13.926
53637W        W21866  40.897   7.665   0.463
53638W        W21867  17.249  28.599  10.665
53639W        W21868  10.318   0.844   4.988
53640W        W21869  32.436  16.414  14.625
53641W        W21870  25.938  30.983   4.681
53642W        W21871  23.574  21.238  13.914
53643W        W21872  26.847  24.041  13.728
53644W        W21873  17.040  41.845   1.011
53645W        W21874  13.763   5.871  10.598
53646W        W21875   6.193   6.706   3.355
53647W        W21876   7.397  22.806   1.811
53648W        W21877  36.213  28.426  11.627
53649W        W21878  31.708   4.726   4.177
53650W        W21879  22.686  13.641  10.146
53651W        W21880  39.228  16.344   4.138
53652W        W21881  14.634  35.844   3.457
53653W        W21882  16.053  13.704   3.844
53654W        W21883  23.731  12.253  13.055
53655W        W21884  18.744  15.609   1.713
53656W        W21885   0.711  32.582  12.529
53657W        W21886  24.482  28.669  11.411
53658W        W21887   3.161  19.077   3.170
53659W        W21888  12.213   2.489  12.076
53660W        W21889  22.230   7.653   4.744
53661W        W21890  22.207  43.759   1.816
53662W        W21891  15.785  39.244  14.378
53663W        W21892  33.648  33.678   0.017
53664W        W21893  13.140   5.434  11.137
53665W        W21894  14.623  25.511  13.468
53666W        W21895  39.413   5.472   2.387
53667W        W21896   8.897   1.253  12.429
53668W        W21897  22.190  20.990  12.966
53669W        W21898  43.283  18.722  11.410
53670W        W21899  41.899  21.313  12.552
53671W        W21900  20.884  44.876  14.100
53672W        W21901  28.881  37.949   2.792
53673W        W21902  34.542  21.856   3.636
53674W        W21903  10.732  31.937   4.166
53675W        W21904  30.909  32.394   4.452
53676W        W21905  20.043  26.188   0.481
53677W        W21906  28.151  41.984  14.782
53678W        W21907  21.088  10.788  13.807
53679W        W21908  38.611  10.845   0.473
53680W        W21909  37.062  14.534  13.934
53681W        W21910  41.259  28.543   1.912
53682W        W21911  41.951  17.792   3.064
53683W        W21912  18.814   6.017   5.109
53684W        W21913  19.984   9.231   3.689
53685W        W21914  21.257  30.902   3.542
53686W        W21915  37.239  19.755  10.420
53687W        W21916   2.725   4.984  14.415
53688W        W21917  31.864   5.906  13.137
53689W        W21918   2.963  24.570  13.017
53690W        W21919  22.763   7.803  13.568
53691W        W21920  13.926  22.709  13.856
53692W        W21921  35.333  19.156  14.783
53693W        W21922  37.562  39.037  14.386
53694W        W21923  22.818  16.363   1.344
53695W        W21924  27.449  25.036  11.642
53696W        W21925   6.940  31.588  14.374
53697W        W21926   0.041  17.673   1.362
53698W        W21927   5.295  13.843  13.189
53699W        W21928  13.354  13.277   2.909
53700W        W21929  34.630  44.456  10.572
53701W        W21930  32.455   6.717   0.838
53702W        W21931  16.586  35.388   4.147
53703W        W21932  13.520  28.665  12.182
53704W        W21933  30.009  22.726  11.531
53705W        W21934  25.624  40.273  10.667
53706W        W21935  26.601  17.135   4.585
53707W        W21936  13.656  38.064   1.782
53708W        W21937  40.388  37.937   1.090
53709W        W21938  21.360  35.408  10.577
53710W        W21939   0.089   1.268   2.273
53711W        W21940  13.629  25.665   1.759
53712W        W21941  32.435  35.855  11.584
53713W        W21942  31.674  27.740  13.878
53714W        W21943  19.630   0.930  10.661
53715W        W21944  11.607  40.199  10.534
53716W        W21945   7.639  43.457  11.052
53717W        W21946   2.198   6.775   4.631
53718W        W21947  16.031  15.369   2.237
53719W        W21948  23.479  38.448  10.917
53720W        W21949  35.698  35.998  11.405
53721W        W21950  24.104  25.166  11.988
53722W        W21951   6.273  30.025  14.118
53723W        W21952   9.846  29.205   3.212
53724W        W21953  11.901   1.810  10.803
53725W        W21954   5.300  17.662  12.922
53726W        W21955   4.340  15.385  13.384
53727W        W21956  33.542  39.368  14.931
53728W        W21957  17.706  43.800  11.454
53729W        W21958  21.893   8.314   1.812
53730W        W21959  19.293  41.957   3.311
53731W        W21960  38.751   5.346   0.306
53732W        W21961  22.297  15.826   2.186
53733W        W21962   6.131  13.667  10.628
53734W        W21963   4.723   9.106   3.341
53735W        W21964   7.304  12.722   0.260
53736W        W21965  29.132  22.964   2.280
53737W        W21966  40.186  44.557   1.130
53738W        W21967   8.790  13.284   1.029
53739W        W21968  23.003  32.925  13.728
53740W        W21969  34.641  24.214   4.069
53741W        W21970  21.201  37.440   0.755
53742W        W21971   1.413  24.800   2.124
53743W        W21972  23.210  39.479   3.196
53744W        W21973   1.536  13.803   4.128
53745W        W21974  29.542  42.688   3.702
53746W        W21975  44.758  30.129  14.491
53747W        W21976   0.014  10.341   1.964
53748W        W21977  30.438  42.294   0.424
53749W        W21978  20.989  30.408   4.247
53750W        W21979  18.128   9.938   1.739
53751W        W21980   3.228  35.374   1.441
53752W        W21981  38.331   2.007  10.625
53753W        W21982  20.809   0.360  14.419
53754W        W21983  21.278  42.422   2.096
53755W        W21984  39.079  39.140  14.367
53756W        W21985   0.396  39.090  14.408
53757W        W21986   5.439  11.589  12.543
53758W        W21987  44.338  26.523  10.597
53759W        W21988  15.736  31.646   0.929
53760W        W21989  30.325  16.359   0.738
53761W        W21990  42.766  33.683  12.654
53762W        W21991  24.311  10.081  10.351
53763W        W21992   8.120   1.258  11.574
53764W        W21993   9.663  42.927   2.228
53765W        W21994  17.120  40.489  14.356
53766W        W21995  21.608   5.624   1.990
53767W        W21996  19.211  33.542  11.143
53768W        W21997  14.522  44.914   2.336
53769W        W21998  14.118  20.764  14.798
53770W        W21999   4.437   8.893  12.349
53771W        W22000  14.173  26.183  12.134
53772W        W22001  25.858  34.316   3.561
53773W        W22002   4.826  18.594  11.621
53774W        W22003  35.780  17.351  13.413
53775W        W22004  35.765   2.176  10.873
53776W        W22005  33.917  42.995   1.916
53777W        W22006   8.666   5.925   2.418
53778W        W22007  12.038  16.872   2.332
53779W        W22008  33.256  36.190   2.156
53780W        W22009  30.989  22.535  10.614
53781W        W22010  18.507  16.566  12.369
53782W        W22011   4.943  23.157   1.101
53783W        W22012   3.835  37.485  13.029
53784W        W22013  37.425  32.446  14.376
53785W        W22014  16.095   1.924   1.360
53786W        W22015   3.431   4.792  10.430
53787W        W22016  34.469  36.890  10.737
53788W        W22017  40.609  32.463  13.337
53789W        W22018  29.146  20.892   0.693
53790W        W22019   8.251   4.131   2.300
53791W        W22020   2.550   6.168  13.483
53792W        W22021  33.485   2.118  10.251
53793W        W22022  40.363   5.433   1.394
53794W        W22023   4.379   5.661   0.034
53795W        W22024  11.963  13.931  13.026
53796W        W22025  12.646  24.321   4.598
53797W        W22026   2.849   2.448  12.828
53798W        W22027  12.561   9.650   2.723
53799W        W22028  39.361  31.865   0.305
53800W        W22029  31.392  17.546   1.913
53801W        W22030   4.206  28.186   2.762
53802W        W22031  40.865  29.856   3.679
53803W        W22032  32.564  20.170  14.870
53804W        W22033   0.400  34.565   0.328
53805W        W22034  44.454  28.803   0.882
53806W        W22035  10.265   7.983   1.418
53807W        W22036   6.000  15.126   4.144
53808W        W22037   4.757  39.531  14.688
53809W        W22038  16.759  26.206  10.339
53810W        W22039   6.762  37.480   3.773
53811W        W22040   0.824  12.781   4.546
53812W        W22041  25.213  10.602   5.464
53813W        W22042  31.710   6.573   2.595
53814W        W22043  13.232  39.653  14.263
53815W        W22044  44.651  21.473   1.279
53816W        W22045  35.924   0.966   4.709
53817W        W22046  19.811  15.354   4.600
53818W        W22047   4.054  20.700  12.543
53819W        W22048  15.726  34.587   4.352
53820W        W22049  29.468  26.682  12.384
53821W        W22050  32.368   4.216  14.795
53822W        W22051   3.611   7.753  13.995
53823W        W22052  39.511  20.641   4.246
53824W        W22053   5.724  12.608  11.084
53825W        W22054  44.472  38.926   2.320
53826W        W22055  13.202  12.273  13.033
53827W        W22056  32.333   9.859   1.747
53828W        W22057  36.418  42.074   0.798
53829W        W22058  32.404  13.304   1.822
53830W        W22059  43.123  29.201  11.168
53831W        W22060  40.287  14.174  10.144
53832W        W22061  41.623   8.892   2.781
53833W        W22062  44.867  43.721   1.899
53834W        W22063  42.528  18.835  13.557
53835W        W22064  32.883  27.154  11.389
53836W        W22065  14.285   0.391  11.384
53837W        W22066   6.718  13.915   4.022
53838W        W22067  25.157  35.176   0.523
53839W        W22068  42.282  41.481  11.866
53840W        W22069   7.202   6.754   0.032
53841W        W22070  12.622  33.934   1.945
53842W        W22071   5.813  11.277   2.809
53843W        W22072  42.739  30.346  10.283
53844W        W22073  42.943  17.144  10.934
53845W        W22074  16.016  22.310  13.513
53846W        W22075  39.109  43.483   1.210
53847W        W22076  24.001  17.533   2.725
53848W        W22077  37.349  35.983  10.603
53849W        W22078  36.503  30.122   3.914
53850W        W22079  30.586  17.272   3.147
53851W        W22080   9.508   5.099  14.218
53852W        W22081  10.169  22.129   0.835
53853W        W22082  18.255  14.098   2.205
53854W        W22083  30.541  43.536   2.956
53855W        W22084  14.083  25.447   3.252
53856W        W22085  14.191  33.086   1.141
53857W        W22086  35.354  29.084  10.647
53858W        W22087   5.828  13.002   2.687
53859W        W22088   4.813   9.578   3.641
53860W        W22089  32.133  20.459  13.960
53861W        W22090  26.186   7.216   1.792
53862W        W22091  18.607  27.966   0.078
53863W        W22092   7.696  25.440   0.894
53864W        W22093  28.868  12.099   2.683
53865W        W22094  21.667  17.170  12.599
53866W        W22095  38.417  24.399  12.970
53867W        W22096  39.413   3.195   2.716
53868W        W22097  42.298  30.914  12.390
53869W        W22098  14.353  33.816  14.161
53870W        W22099  29.155  11.237  13.364
53871W        W22100  13.084  28.452   2.384
53872W        W22101  16.519  15.129   4.095
53873W        W22102  21.703  15.855   4.258
53874W        W22103  34.300  18.598   4.641
53875W        W22104   9.603  44.550  13.257
53876W        W22105  32.935   1.755  14.991
53877W        W22106  40.603  35.246  13.012
53878W        W22107  17.885   4.526  11.465
53879W        W22108  34.903  11.966   0.723
53880W        W22109  22.770  15.690  13.388
53881W        W22110  32.203  15.747   0.857
53882W        W22111  38.058  23.472  13.256
53883W        W22112  36.390   2.275   2.423
53884W        W22113   8.943  19.138   4.769
53885W        W22114  17.492  34.207  12.028
53886W        W22115  32.411   1.865  10.456
53887W        W22116  33.652  28.838   3.995
53888W        W22117  30.715  37.803   1.644
53889W        W22118  21.082  30.130  13.149
53890W        W22119  19.876  35.629  13.077
53891W        W22120  31.501  43.797   1.920
53892W        W22121   8.941  44.793  13.430
53893W        W22122  41.282  17.100   4.284
53894W        W22123   3.161  36.625   3.129
53895W        W22124  18.724  40.887   1.789
53896W        W22125  30.678   4.330  10.139
53897W        W22126  24.880   8.266  10.699
53898W        W22127  21.419   1.420   3.661
53899W        W22128  19.807  21.437  10.737
53900W        W22129   3.263  14.319  10.736
53901W        W22130  30.028  34.826   1.941
53902W        W22131  13.163   1.276   3.937
53903W        W22132  32.556  33.544  13.861
53904W        W22133  19.219  30.008  10.109
53905W        W22134  30.677   4.945   0.164
53906W        W22135  39.351  30.419   3.130
53907W        W22136  10.853  37.897  11.423
53908W        W22137   7.334  14.529   2.925
53909W        W22138   7.387  31.003   2.654
53910W        W22139   7.841  29.960  10.566
53911W        W22140  29.902   5.719   2.755
53912W        W22141  17.126  31.813  11.152
53913W        W22142  25.895  27.030  14.796
53914W        W22143  28.113  29.717   3.592
53915W        W22144  10.318  35.859   0.458
53916W        W22145  11.993  21.320  10.119
53917W        W22146  40.910  34.348   3.880
53918W        W22147   0.725   7.653   3.421
53919W        W22148  23.288  11.111   0.458
53920W        W22149  33.470  40.876   1.295
53921W        W22150  33.795  36.914  11.855
53922W        W22151   0.741  29.795  11.174
53923W        W22152  23.014  33.711   9.809
53924W        W22153   9.062  34.965  13.911
53925W        W22154   0.421  31.591  13.380
53926W        W22155  11.843  39.053   4.126
53927W        W22156  35.095   2.706  11.970
53928W        W22157   4.446  17.525   1.896
53929W        W22158   1.246  21.224   3.599
53930W        W22159  44.566  32.381   3.798
53931W        W22160  15.085  18.548   3.502
53932W        W22161  22.396  21.146   4.808
53933W        W22162   3.370  24.860   4.519
53934W        W22163  36.117  33.465  14.762
53935W        W22164  33.845   6.991   0.855
53936W        W22165   8.124  10.483   4.290
53937W        W22166  12.442  31.643  11.141
53938W        W22167   1.840  32.586   4.100
53939W        W22168   6.959  24.952   0.656
53940W        W22169  22.045  42.771  11.159
53941W        W22170  30.510  28.481   0.338
53942W        W22171  18.160   9.642  13.838
53943W        W22172  38.405  39.554   2.324
53944W        W22173  40.190   1.866  12.947
53945W        W22174  43.435   6.472  11.606
53946W        W22175   7.657  36.782  11.883
53947W        W22176   1.407   0.167  11.396
53948W        W22177   1.318  34.513  13.950
53949W        W22178  38.595  23.345   1.846
53950W        W22179  38.376   6.743   0.968
53951W        W22180  29.381  37.232   4.049
53952W        W22181   6.546  26.937   1.369
53953W        W22182  17.777   5.866  11.186
53954W        W22183   1.037  21.970  11.814
53955W        W22184  11.315  27.352  11.426
53956W        W22185   0.321  22.613   1.964
53957W        W22186  28.216   0.338  11.096
53958W        W22187  21.142  28.192   4.419
53959W        W22188   7.543  37.851  14.799
53960W        W22189  21.310  43.427   2.582
53961W        W22190  35.887   9.499  11.206
53962W        W22191   5.624  22.584  13.476
53963W        W22192  12.222  27.762   3.011
53964W        W22193  10.087  15.318   4.078
53965W        W22194  38.358  13.416  10.593
53966W        W22195   7.864  28.842   5.123
53967W        W22196  18.615  27.042   2.125
53968W        W22197  19.710   3.551  11.141
53969W        W22198   5.257  28.455   4.894
53970W        W22199   1.345  31.684  11.067
53971W        W22200   3.684  14.696  12.614
53972W        W22201   2.405  29.769  14.149
53973W        W22202  25.121  36.058  10.624
53974W        W22203  33.490  27.734  13.846
53975W        W22204  11.112  26.937  11.656
53976W        W22205  24.636  24.308  11.948
53977W        W22206  30.960  29.622   3.833
53978W        W22207   6.214   7.924   0.843
53979W        W22208  14.345   4.703   2.373
53980W        W22209  32.001   3.972  11.172
53981W        W22210  13.333  32.745  12.067
53982W        W22211  29.669  44.089   0.450
53983W        W22212  31.673  11.844   4.486
53984W        W22213  38.642  11.847  14.980
53985W        W22214  22.831   0.342  13.064
53986W        W22215  31.153  13.770  12.635
53987W        W22216  31.232   9.643   0.905
53988W        W22217  33.822  11.524   3.951
53989W        W22218   5.871  23.760  11.395
53990W        W22219   7.323  31.163  11.001
53991W        W22220  39.120   8.751  13.334
53992W        W22221  36.656  20.740  12.442
53993W        W22222  33.913  20.654   1.023
53994W        W22223  14.051  23.552   3.741
53995W        W22224  21.980  40.005  13.985
53996W        W22225   5.445  38.104   2.710
53997W        W22226  10.303  28.725  11.444
53998W        W22227  15.701   8.200  13.489
53999W        W22228  16.848  19.627   5.076
54000W        W22229  44.800   3.351   3.326
54001W        W22230  37.551  32.159   2.352
54002W        W22231  31.593  27.651   3.209
54003W        W22232  39.079   9.583  13.427
54004W        W22233  20.058   3.748  14.787
54005W        W22234  14.056  29.619  11.429
54006W        W22235  18.287  32.113  14.955
54007W        W22236   5.118  17.179   1.559
54008W        W22237  14.056   1.368   3.823
54009W        W22238  36.260  28.098   1.721
54010W        W22239   8.006   8.140   4.088
54011W        W22240  34.301   1.996   4.513
54012W        W22241   9.326   8.869  14.516
54013W        W22242   2.968  38.524   3.976
54014W        W22243  19.019  42.767   4.856
54015W        W22244  39.057   6.953   1.336
54016W        W22245  37.875  12.624  12.463
54017W        W22246  10.351  36.424  14.614
54018W        W22247   1.716  13.723   2.869
54019W        W22248   8.583   8.169   0.324
54020W        W22249  32.218  44.340  11.991
54021W        W22250  16.339  12.114   2.316
54022W        W22251  12.892  26.729  14.861
54023W        W22252  19.747  41.438  14.557
54024W        W22253  42.878  36.021  10.765
54025W        W22254  11.513  19.152   0.366
54026W        W22255  41.314  27.679  13.782
54027W        W22256  34.597   4.037  12.012
54028W        W22257   0.576   5.398  13.399
54029W        W22258  37.716  16.062  11.178
54030W        W22259  29.840  29.317   4.172
54031W        W22260  41.971  34.803  14.010
54032W        W22261  37.980  41.312   0.326
54033W        W22262  25.695  16.230  10.463
54034W        W22263  40.336  13.219   1.553
54035W        W22264  27.398   0.440  11.993
54036W        W22265  16.195  19.368  10.312
54037W        W22266   8.823  19.196   0.763
54038W        W22267  19.346  41.771   4.260
54039W        W22268  28.353  16.328  14.008
54040W        W22269  14.769  20.829   2.402
54041W        W22270  27.420   5.091   2.759
54042W        W22271  27.456  41.875   1.342
54043W        W22272  10.409  32.981  11.970
54044W        W22273  22.506  16.278  11.934
54045W        W22274  19.592  17.166  14.894
54046W        W22275  12.282  15.717  12.299
54047W        W22276   2.865  21.289   4.129
54048W        W22277   8.182   8.877   4.176
54049W        W22278  28.209  11.157  14.986
54050W        W22279  22.123  13.105  12.884
54051W        W22280  44.528  41.765  14.094
54052W        W22281  35.628  32.661   2.731
54053W        W22282   3.399   5.187   2.130
54054W        W22283  28.920  23.912   3.881
54055W        W22284  37.052  33.801  11.724
54056W        W22285  33.082  17.072  13.725
54057W        W22286   4.498  26.661   0.351
54058W        W22287  15.661   1.831   3.088
54059W        W22288  34.587  34.340   3.089
54060W        W22289   6.252  12.662  14.457
54061W        W22290   6.206   3.834  11.092
54062W        W22291  19.561  14.191  10.626
54063W        W22292  12.033  15.756  10.765
54064W        W22293  31.164  43.309   3.815
54065W        W22294   5.243  42.093  11.377
54066W        W22295  24.716  12.044  13.559
54067W        W22296  18.905  29.640  13.213
54068W        W22297  41.977  23.726   3.131
54069W        W22298   5.170   0.498  13.360
54070W        W22299  17.263   6.603  11.175
54071W        W22300  40.025  38.468  13.855
54072W        W22301  23.865   6.913   1.258
54073W        W22302  33.630  20.204   0.763
54074W        W22303  29.097  39.557   0.934
54075W        W22304   4.043  43.323   3.714
54076W        W22305   8.629  19.719  13.043
54077W        W22306  20.789   5.671   3.749
54078W        W22307  28.389  36.446   3.707
54079W        W22308  36.341  30.605   4.111
54080W        W22309  24.007  43.477  12.984
54081W        W22310  19.785  11.902  14.351
54082W        W22311  10.145  31.346   2.138
54083W        W22312   0.429  13.850  13.146
54084W        W22313  23.186  39.406   0.677
54085W        W22314  11.789  11.130   3.387
54086W        W22315  29.212  22.786  14.564
54087W        W22316  40.329  23.148  11.427
54088W        W22317  22.434   1.987  11.599
54089W        W22318  37.352  25.549  11.677
54090W        W22319   9.143  29.519   2.090
54091W        W22320   0.400  40.344  14.902
54092W        W22321   1.158  42.352  11.569
54093W        W22322  28.701  22.862  14.345
54094W        W22323  41.224  30.358  10.248
54095W        W22324  35.017  20.223  11.931
54096W        W22325   9.954  10.144  13.018
54097W        W22326  32.586  25.524   0.485
54098W        W22327   0.803  19.265  13.388
54099W        W22328  34.953  36.609  14.314
54100W        W22329  40.018  10.658   2.643
54101W        W22330  33.316   9.806   5.125
54102W        W22331  22.343  20.247  14.783
54103W        W22332  37.973  13.086   2.850
54104W        W22333  30.193  14.148  13.355
54105W        W22334  39.340  26.501   4.172
54106W        W22335  19.825  31.550   4.328
54107W        W22336  30.599  18.189  10.308
54108W        W22337  40.300   8.600  12.815
54109W        W22338  26.431  29.930   3.133
54110W        W22339  29.129  12.377  12.314
54111W        W22340  28.692  10.297  11.541
54112W        W22341   6.378  37.430  14.830
54113W        W22342  42.825  24.247   3.143
54114W        W22343  41.242   3.119   0.618
54115W        W22344  38.952  22.776  11.626
54116W        W22345  34.943  23.100  13.296
54117W        W22346  23.737  16.505   1.337
54118W        W22347  21.242  29.076  11.617
54119W        W22348  36.354  22.543  11.159
54120W        W22349  34.571   2.247   4.135
54121W        W22350  29.551  11.823   3.106
54122W        W22351  22.235  42.228  13.440
54123W        W22352  28.487  30.080   3.393
54124W        W22353  40.443  21.787   0.462
54125W        W22354  38.519  15.660  10.453
54126W        W22355  27.582   6.371   3.180
54127W        W22356  18.394  41.277   2.154
54128W        W22357  31.585  30.719   2.307
54129W        W22358  44.723  28.728  13.958
54130W        W22359  33.347  26.734  13.994
54131W        W22360   1.224   6.796   3.147
54132W        W22361  36.873  31.931  11.334
54133W        W22362  21.987  16.802  14.876
54134W        W22363  34.379  41.277  10.504
54135W        W22364  19.513  40.492  12.820
54136W        W22365  26.385  29.924   0.305
54137W        W22366   9.161  12.609  14.940
54138W        W22367  18.358  25.987  13.066
54139W        W22368   1.949  26.699  13.393
54140W        W22369   0.430  30.634  10.679
54141W        W22370  29.595   7.547  14.756
54142W        W22371  16.242  11.156  14.409
54143W        W22372  13.488  30.150   1.216
54144W        W22373   9.443  17.236  11.534
54145W        W22374  28.239  44.525  10.942
54146W        W22375   0.890  19.602   3.794
54147W        W22376  38.324  34.579  12.782
54148W        W22377  18.265   2.507   0.789
54149W        W22378   1.426   2.357  12.837
54150W        W22379  31.006  38.088  12.111
54151W        W22380  43.488  31.777   3.284
54152W        W22381  19.121   7.473   4.759
54153W        W22382  11.113   9.578   2.767
54154W        W22383  17.367  12.566   3.665
54155W        W22384  36.455   5.952   1.021
54156W        W22385  16.629  44.234   3.404
54157W        W22386   4.484  35.500  13.529
54158W        W22387  18.784  15.573  12.445
54159W        W22388  40.875  16.802  12.457
54160W        W22389  31.982  23.276  14.283
54161W        W22390  27.135  14.720   1.346
54162W        W22391  24.548  29.024   3.249
54163W        W22392   6.367  36.093   2.444
54164W        W22393  37.142   4.827  12.948
54165W        W22394   9.102  11.656   1.445
54166W        W22395  23.128   6.452  13.855
54167W        W22396  38.378  15.114   4.897
54168W        W22397  36.718  22.183   2.705
54169W        W22398   9.710  15.372  10.688
54170W        W22399  26.178   4.727   4.700
54171W        W22400   7.124  14.636   4.962
54172W        W22401  20.159  32.034   3.377
54173W        W22402  23.947   3.257  13.047
54174W        W22403   6.025  37.758  14.552
54175W        W22404  28.945  30.550   1.666
54176W        W22405   9.411  25.411  14.933
54177W        W22406  40.957  17.817  13.981
54178W        W22407  26.229  16.777  14.402
54179W        W22408  21.725  37.131  13.461
54180W        W22409  24.474  28.240  11.127
54181W        W22410   6.770  13.639  14.052
54182W        W22411   1.486  43.615   1.072
54183W        W22412  12.895  16.548   4.148
54184W        W22413  39.343  28.566  11.176
54185W        W22414   1.706  19.749   2.644
54186W        W22415  31.673   5.594   2.844
54187W        W22416  19.150   6.391   3.295
54188W        W22417  13.300  34.645   4.111
54189W        W22418  42.241  12.258   4.244
54190W        W22419  20.059  14.156   1.151
54191W        W22420  30.622  39.040  14.520
54192W        W22421  17.246   9.334  13.038
54193W        W22422   1.251   8.201   0.837
54194W        W22423  21.503   0.815   1.261
54195W        W22424  28.770  18.175   3.186
54196W        W22425  15.665  21.545   4.816
54197W        W22426   2.441  22.600   4.539
54198W        W22427  14.271  27.446   4.560
54199W        W22428  27.805  34.296   0.382
54200W        W22429  35.481  37.946   4.160
54201W        W22430  44.404  22.613  14.299
54202W        W22431  25.204   3.786   1.872
54203W        W22432   4.154  19.620   4.042
54204W        W22433  17.563  13.787  13.817
54205W        W22434  31.153  44.006   0.780
54206W        W22435  35.526   4.028  12.013
54207W        W22436   4.180  32.651   2.546
54208W        W22437  34.988  24.561  12.919
54209W        W22438   0.837  35.935  14.425
54210W        W22439  12.782  35.111   2.907
54211W        W22440   4.422  33.475  11.479
54212W        W22441   1.007  44.231   0.040
54213W        W22442  13.171  28.000   0.151
54214W        W22443  27.504   8.938  13.407
54215W        W22444   4.755  28.700   2.620
54216W        W22445  27.757  24.617   0.439
54217W        W22446  40.773  12.199   3.840
54218W        W22447   7.879  21.527   1.843
54219W        W22448  31.555  23.790  11.144
54220W        W22449  20.722   8.697   0.412
54221W        W22450  38.656  29.029  10.234
54222W        W22451   0.647   1.474   3.553
54223W        W22452   6.313   9.340   4.776
54224W        W22453  37.554  15.713   4.608
54225W        W22454  37.596   1.918   2.804
54226W        W22455  23.957  37.480  10.842
54227W        W22456  42.350  25.454   3.983
54228W        W22457  24.966   0.778   3.226
54229W        W22458  36.459  29.649   2.639
54230W        W22459  38.137  26.588  11.418
54231W        W22460  42.768  36.110  11.794
54232W        W22461  13.357  33.554   3.350
54233W        W22462  30.267  11.306  13.543
54234W        W22463  37.746  27.730   4.738
54235W        W22464  37.523   5.165   2.765
54236W        W22465   2.206  11.697  13.416
54237W        W22466  19.745  41.552  11.471
54238W        W22467   0.029  12.890   1.713
54239W        W22468   0.233  38.268   3.727
54240W        W22469  20.956  32.608  14.879
54241W        W22470  17.765  10.118   3.360
54242W        W22471  26.490  28.624  14.159
54243W        W22472   3.822  23.533  10.870
54244W        W22473  41.711  30.784   2.746
54245W        W22474   8.632  40.840  13.960
54246W        W22475  33.422  41.252  10.858
54247W        W22476  43.070  21.734   2.677
54248W        W22477   0.318  31.154  10.745
54249W        W22478   5.456  41.341   4.574
54250W        W22479   7.423  19.387  12.021
54251W        W22480  40.539  18.364   3.430
54252W        W22481  24.319  22.267   4.097
54253W        W22482  39.435  10.693   3.318
54254W        W22483  34.060  41.082   2.757
54255W        W22484   1.227  15.347  10.450
54256W        W22485  10.066  11.563   5.337
54257W        W22486   6.450   5.721   0.257
54258W        W22487  16.883  31.718  13.147
54259W        W22488  17.768   1.931  10.678
54260W        W22489  44.414   0.611   2.757
54261W        W22490  36.422  42.440   3.749
54262W        W22491  27.488  35.438   0.931
54263W        W22492  40.253  12.705  12.463
54264W        W22493  19.696  17.594  14.624
54265W        W22494  43.486   7.623  11.839
54266W        W22495   4.762  26.081   1.190
54267W        W22496   7.347  11.226   3.620
54268W        W22497  44.712  18.343   3.444
54269W        W22498   8.882   3.801  13.991
54270W        W22499  26.685  18.663   4.284
54271W        W22500   8.168   0.721   0.386
54272W        W22501  39.292  26.014   1.449
54273W        W22502   5.288  16.685  11.166
54274W        W22503  35.747  31.502   0.878
54275W        W22504  29.360  29.393   2.421
54276W        W22505  33.738  32.603  12.670
54277W        W22506   0.725  43.813   0.801
54278W        W22507  43.802   6.447   0.959
54279W        W22508  18.248  18.223   1.206
54280W        W22509  10.965  34.957  12.492
54281W        W22510  29.057  33.378   2.111
54282W        W22511  39.433   0.956   1.275
54283W        W22512  28.100  28.635  12.149
54284W        W22513  20.123  37.633  12.597
54285W        W22514  25.409  26.915   1.891
54286W        W22515  17.437  33.487   3.935
54287W        W22516  42.357  40.056  10.701
54288W        W22517  14.425   0.385   3.227
54289W        W22518  22.695  15.301  13.033
54290W        W22519  14.130  15.366   1.807
54291W        W22520  30.916  26.953  11.689
54292W        W22521  36.012  38.911  14.951
54293W        W22522  41.538  33.115   4.612
54294W        W22523   8.849  33.135  10.776
54295W        W22524  21.125  12.924   9.917
54296W        W22525  31.891   1.414   0.325
54297W        W22526  34.833  20.490   1.372
54298W        W22527   2.397  10.307   0.207
54299W        W22528  22.655  13.668   0.537
54300W        W22529  12.931  22.179  11.409
54301W        W22530  44.014  43.761   3.431
54302W        W22531  34.705  18.799   2.185
54303W        W22532   1.095  29.596  14.835
54304W        W22533  19.194   7.366  12.399
54305W        W22534  14.190  30.538   0.890
54306W        W22535  20.526  36.029   1.650
54307W        W22536  34.073  35.169  12.223
54308W        W22537  19.710   6.028  12.131
54309W        W22538  35.658  43.546  13.051
54310W        W22539  32.144  32.319  12.124
54311W        W22540  10.709   2.087   4.555
54312W        W22541  44.094  34.016  14.061
54313W        W22542   2.936   0.441   1.233
54314W        W22543  16.738  26.103   4.696
54315W        W22544  32.615   9.718  11.108
54316W        W22545  33.843   0.029  14.953
54317W        W22546  36.936  27.746   1.177
54318W        W22547  30.517  32.043  10.629
54319W        W22548  13.222   6.697  10.646
54320W        W22549  34.495  25.924   2.836
54321W        W22550  22.639  30.550   4.155
54322W        W22551  12.399  42.537  13.149
54323W        W22552  30.887  33.948   4.394
54324W        W22553  39.556  18.074   3.335
54325W        W22554  38.570   0.953   4.034
54326W        W22555   2.198  37.355   0.110
54327W        W22556  41.036  43.754  11.074
54328W        W22557  22.748  16.180  10.449
54329W        W22558  17.749  21.735   1.861
54330W        W22559  20.366   5.658  11.213
54331W        W22560  43.785  22.688   3.420
54332W        W22561  28.403  44.657  12.211
54333W        W22562  22.133  41.318  11.901
54334W        W22563  13.132  30.226  13.843
54335W        W22564  32.316  23.292  12.586
54336W        W22565  24.029  19.723  13.452
54337W        W22566  11.133  29.283   0.987
54338W        W22567  44.001   9.074   0.032
54339W        W22568   5.702  25.062   4.609
54340W        W22569  13.884  37.615   3.452
54341W        W22570  18.140  38.467   4.251
54342W        W22571  27.241  12.533  14.965
54343W        W22572  20.278  32.170  14.401
54344W        W22573  11.319  30.040   4.216
54345W        W22574   5.477   9.709  10.553
54346W        W22575  37.891  33.851   4.388
54347W        W22576  39.820  12.413   0.292
54348W        W22577  17.455  34.613   4.107
54349W        W22578   6.540  33.410   0.447
54350W        W22579  26.126  21.240   3.004
54351W        W22580  31.600  40.080  14.411
54352W        W22581   0.280   9.376   4.621
54353W        W22582  40.066  11.240  10.755
54354W        W22583  41.039  31.944   3.687
54355W        W22584  43.856  44.180   3.695
54356W        W22585  10.313  29.617   1.796
54357W        W22586  29.472  41.043   0.262
54358W        W22587   3.072  14.061  11.598
54359W        W22588  11.785  17.661  13.917
54360W        W22589  39.818  34.922   1.948
54361W        W22590   6.236  11.118  13.029
54362W        W22591  37.981  13.907   3.547
54363W        W22592  14.164   7.015   3.404
54364W        W22593  27.669  40.007   0.399
54365W        W22594  18.277  10.701   0.706
54366W        W22595  25.023  42.943   2.739
54367W        W22596   9.080  14.833   0.746
54368W        W22597  29.123   1.845   4.886
54369W        W22598  26.191  32.155  14.492
54370W        W22599   2.831  21.648   0.909
54371W        W22600  20.187   7.419  10.714
54372W        W22601   6.858  16.302  10.628
54373W        W22602  40.107  43.051  13.838
54374W        W22603  39.367  29.706  12.137
54375W        W22604  10.412  30.179   4.194
54376W        W22605  26.744  40.070   5.091
54377W        W22606   3.358  44.312   0.169
54378W        W22607   4.779  29.239  12.545
54379W        W22608   0.182  31.385   4.140
54380W        W22609   0.360  41.897  13.857
54381W        W22610  26.456  42.253  13.923
54382W        W22611   7.659   9.198  13.964
54383W        W22612  43.847  11.508   2.648
54384W        W22613  14.536   1.580  14.812
54385W        W22614  39.953  19.397   2.728
54386W        W22615   6.393  17.563   2.769
54387W        W22616  20.499   0.845   1.298
54388W        W22617   3.079  16.294  12.015
54389W        W22618  28.163  33.548  10.465
54390W        W22619  29.730  36.885  14.575
54391W        W22620  30.083  22.583   1.410
54392W        W22621   0.217  19.733   4.758
54393W        W22622  15.579  11.936   4.128
54394W        W22623  23.150   5.679   3.255
54395W        W22624  19.793  43.258  12.419
54396W        W22625  26.270   7.412  12.544
54397W        W22626   7.459  11.901  14.428
54398W        W22627  40.998  42.321  14.399
54399W        W22628  26.502  15.191   9.614
54400W        W22629  13.731   0.519   4.391
54401W        W22630  29.718   4.325  12.555
54402W        W22631  15.103  26.527   3.973
54403W        W22632  32.506  38.340   4.594
54404W        W22633   2.455  26.622   3.283
54405W        W22634  32.003  21.655  11.960
54406W        W22635   7.661  29.620  13.428
54407W        W22636  42.286  11.099   0.681
54408W        W22637  44.492  19.285   1.912
54409W        W22638  27.180  21.703   2.223
54410W        W22639   4.748  11.279   3.671
54411W        W22640  30.930   8.181  11.711
54412W        W22641  38.048  22.962  14.335
54413W        W22642  18.067  25.527  13.972
54414W        W22643  40.894   4.873  11.240
54415W        W22644  34.571  36.629   4.104
54416W        W22645  40.299  35.374   0.739
54417W        W22646  27.394  13.065  14.364
54418W        W22647   5.711  35.009   3.005
54419W        W22648  33.708  12.606  13.960
54420W        W22649  22.748  43.468  13.546
54421W        W22650   7.647  22.746  11.707
54422W        W22651  32.979   2.780   0.219
54423W        W22652   6.271  31.421   3.193
54424W        W22653  29.849   8.176   3.906
54425W        W22654  36.001  35.059   2.251
54426W        W22655  44.856  11.152  12.360
54427W        W22656  24.073  20.125  12.438
54428W        W22657  20.988  14.655  11.656
54429W        W22658   4.314  28.437   4.937
54430W        W22659  26.444  33.296   1.286
54431W        W22660  11.211  42.342   1.671
54432W        W22661  42.410   1.334   4.918
54433W        W22662  36.754  26.510   2.169
54434W        W22663  35.581  10.717  11.337
54435W        W22664  35.854  27.617   2.599
54436W        W22665  15.316  22.188  10.679
54437W        W22666   8.501  37.640   3.766
54438W        W22667   8.767  24.959   0.432
54439W        W22668  40.358  12.150  13.728
54440W        W22669  29.704  19.764  12.201
54441W        W22670  43.007  30.155   4.880
54442W        W22671  34.636  23.225   4.410
54443W        W22672  40.605  11.393  12.005
54444W        W22673  17.134   0.841   1.443
54445W        W22674  28.046  14.614  11.575
54446W        W22675  21.208  14.695   4.451
54447W        W22676  37.609  26.655   1.981
54448W        W22677  13.261   3.845  11.862
54449W        W22678   6.675  18.537  13.199
54450W        W22679  38.656  33.498  13.593
54451W        W22680  27.862  42.304  13.896
54452W        W22681  37.037   0.960  11.883
54453W        W22682  12.752   3.019   2.360
54454W        W22683  32.679  35.348   3.165
54455W        W22684  16.226  40.125   1.889
54456W        W22685  43.433  34.032   0.707
54457W        W22686  29.046  25.597   3.354
54458W        W22687  31.133  31.177  11.929
54459W        W22688  20.319   5.516  14.963
54460W        W22689  44.946  33.908  14.473
54461W        W22690  20.671  20.249   2.422
54462W        W22691   2.351  35.863  14.243
54463W        W22692  37.746  26.197  12.928
54464W        W22693  41.185   6.932  13.385
54465W        W22694   5.157  26.496  10.750
54466W        W22695  35.420   6.951   1.775
54467W        W22696  40.652  38.017  13.503
54468W        W22697  19.661   0.092   3.142
54469W        W22698  34.132   8.869  12.668
54470W        W22699  32.000   8.871   4.570
54471W        W22700  25.586  26.780   4.402
54472W        W22701  19.267  41.286   2.552
54473W        W22702  33.573  10.376  14.944
54474W        W22703  23.495  18.675  14.398
54475W        W22704  19.303  30.864   4.049
54476W        W22705  36.525  32.106   3.647
54477W        W22706  20.718  33.892   4.619
54478W        W22707  27.041  31.036  11.878
54479W        W22708  15.241  11.742  12.623
54480W        W22709   1.329   3.061   3.200
54481W        W22710  14.780   2.561   0.057
54482W        W22711  27.333  19.594  13.912
54483W        W22712  27.975  31.975   3.365
54484W        W22713  36.352  23.826  12.840
54485W        W22714  38.885  27.730   0.831
54486W        W22715  38.920   8.961  12.490
54487W        W22716  38.047   5.482   1.260
54488W        W22717  17.789  24.666  11.201
54489W        W22718  40.718  23.140  13.504
54490W        W22719  23.733  38.961   2.230
54491W        W22720   8.590  25.676   2.663
54492W        W22721  15.421  17.423  11.643
54493W        W22722  10.787  17.824   0.175
54494W        W22723  14.798  33.556   2.796
54495W        W22724   6.179  23.109   2.332
54496W        W22725   5.653   4.335   0.748
54497W        W22726   9.894   1.423   3.099
54498W        W22727  25.977  22.659  14.761
54499W        W22728   1.041   5.774   0.855
54500W        W22729  10.773  21.477  12.940
54501W        W22730  19.824  15.745  11.587
54502W        W22731  13.362  29.878   1.688
54503W        W22732  29.732  31.642   4.615
54504W        W22733  31.198  29.353   0.337
54505W        W22734  15.780  39.697   0.477
54506W        W22735  42.287  38.352  13.070
54507W        W22736  15.803  37.945  12.009
54508W        W22737  35.073  18.694   3.006
54509W        W22738   4.976  44.007   1.199
54510W        W22739  12.828   8.362  12.464
54511W        W22740  11.579   9.215  13.911
54512W        W22741  30.010  28.494   4.542
54513W        W22742  36.787  28.900   4.221
54514W        W22743   5.947  27.521   4.484
54515W        W22744   1.794   8.057  12.519
54516W        W22745  27.997  44.431  14.753
54517W        W22746  26.116  26.073   2.783
54518W        W22747  27.503  22.240  12.907
54519W        W22748   6.442  12.559  11.519
54520W        W22749  24.434  13.417  12.432
54521W        W22750  19.786  24.976  11.417
54522W        W22751  43.479  31.692  11.641
54523W        W22752  18.761  29.393  12.197
54524W        W22753  17.569  35.845   1.331
54525W        W22754  34.575  15.897  13.815
54526W        W22755  44.372  11.163   2.321
54527W        W22756   0.570  43.218   2.239
54528W        W22757  13.688  39.994  13.748
54529W        W22758   0.435  15.202   0.754
54530W        W22759  41.901  27.399   3.366
54531W        W22760  32.439  18.417   5.000
54532W        W22761  24.116   4.962   4.254
54533W        W22762  12.426  12.341  13.282
54534W        W22763  37.857  16.118   0.835
54535W        W22764  21.241  38.686  10.402
54536W        W22765  28.646  11.168   3.722
54537W        W22766  19.740   9.112   3.201
54538W        W22767  14.617  29.781  11.205
54539W        W22768  15.179  30.078  14.799
54540W        W22769  39.167  20.306  11.565
54541W        W22770  23.251  17.697   3.875
54542W        W22771  37.063  19.298   3.582
54543W        W22772  25.822  32.991   3.188
54544W        W22773   1.229  18.574  13.133
54545W        W22774  21.600  10.720  13.950
54546W        W22775  11.841  44.544   2.685
54547W        W22776   2.321  19.581  13.876
54548W        W22777  30.876   9.718   4.797
54549W        W22778  18.862   4.791  13.497
54550W        W22779  42.458  11.401   3.420
54551W        W22780   6.449   6.788  12.995
54552W        W22781  20.078  40.933  12.534
54553W        W22782   5.704  21.304  10.728
54554W        W22783  35.020  19.773  11.272
54555W        W22784  23.263  33.864  12.746
54556W        W22785  37.832  29.451  10.866
54557W        W22786  41.874  28.828   1.238
54558W        W22787  15.671   4.425  14.889
54559W        W22788  41.591   9.215   4.153
54560W        W22789  13.011  34.663  12.167
54561W        W22790  12.915   0.200   2.779
54562W        W22791  25.466   1.036  12.993
54563W        W22792  41.241  23.098  13.562
54564W        W22793  28.074  23.666   1.675
54565W        W22794  28.598  28.619   0.712
54566W        W22795  40.428  18.826   1.185
54567W        W22796  20.445  42.955  11.708
54568W        W22797  37.857  28.621  12.002
54569W        W22798  31.612  38.171  13.567
54570W        W22799  33.941  29.572  13.275
54571W        W22800  21.782  21.720   0.491
54572W        W22801   4.833   6.385  13.643
54573W        W22802  29.649  35.129  12.736
54574W        W22803  16.470  43.783   3.226
54575W        W22804  32.693  19.699   5.024
54576W        W22805  44.925  24.195  10.600
54577W        W22806   9.783   8.755   3.192
54578W        W22807  11.578  27.632   2.268
54579W        W22808  44.412   9.685  13.882
54580W        W22809   8.427  15.633  10.705
54581W        W22810   4.415  12.494  12.613
54582W        W22811  34.915  37.612  13.565
54583W        W22812  23.501  29.473  12.364
54584W        W22813  27.638  23.609   1.017
54585W        W22814   4.265  38.593  10.850
54586W        W22815   4.179  44.341  12.864
54587W        W22816  16.092  33.884  13.930
54588W        W22817   4.748  30.794   0.028
54589W        W22818   1.968  11.943  12.200
54590W        W22819   0.742  39.613  13.140
54591W        W22820   2.512  31.023   0.459
54592W        W22821  42.385  26.693   1.818
54593W        W22822  15.634   3.161  11.217
54594W        W22823  26.142  31.128  10.385
54595W        W22824  40.521   8.190   0.966
54596W        W22825  21.048  42.475   0.795
54597W        W22826   3.990  15.064  12.130
54598W        W22827  40.588  43.289  11.470
54599W        W22828  40.928  33.891  10.652
54600W        W22829  18.774  26.247   3.212
54601W        W22830   3.894  34.509  12.502
54602W        W22831  35.251  27.029   3.248
54603W        W22832  41.054  22.553   2.456
54604W        W22833  19.135  34.791   4.130
54605W        W22834  13.071  19.319  14.577
54606W        W22835  29.038  41.289   4.805
54607W        W22836  34.080  16.085   0.755
54608W        W22837  33.255  26.117   2.693
54609W        W22838  16.781  23.960   1.750
54610W        W22839   4.283  35.638  11.531
54611W        W22840  31.856  11.220   1.297
54612W        W22841  27.205  30.229   3.841
54613W        W22842  31.134  19.468  10.309
54614W        W22843   6.635   1.895  13.429
54615W        W22844  20.094  20.411   1.802
54616W        W22845  14.321  41.786   4.453
54617W        W22846  37.361  10.261  12.452
54618W        W22847  22.573  15.526   3.079
54619W        W22848   5.826  26.191  12.504
54620W        W22849  27.102  17.726   0.253
54621W        W22850  22.646  19.398   2.668
54622W        W22851  43.015  18.475   1.912
54623W        W22852  38.607  36.498  10.731
54624W        W22853   1.566  38.115  10.305
54625W        W22854   8.001   1.038  10.258
54626W        W22855  27.047  37.372   2.226
54627W        W22856   1.873  34.161  12.895
54628W        W22857  37.512  40.351   1.892
54629W        W22858  19.749  17.296   1.579
54630W        W22859  12.418  19.323   0.342
54631W        W22860  24.754  44.250   3.355
54632W        W22861   5.462   0.807   1.482
54633W        W22862  19.094   2.732   4.467
54634W        W22863  42.858  20.835  10.187
54635W        W22864  36.456  31.838  14.402
54636W        W22865   1.206  43.744  14.913
54637W        W22866  29.004  30.134   3.297
54638W        W22867  26.484  25.973   1.253
54639W        W22868  43.259  30.456   3.704
54640W        W22869  28.525  21.429  11.527
54641W        W22870  23.093  35.650   5.022
54642W        W22871  18.860  19.110  12.432
54643W        W22872   0.805  39.474   3.673
54644W        W22873  34.102  24.702   1.333
54645W        W22874   0.805  24.016   0.348
54646W        W22875   2.804  25.472   3.180
54647W        W22876  36.873  44.514  11.721
54648W        W22877  19.708  32.932  13.216
54649W        W22878  19.264  10.170  14.754
54650W        W22879   8.680  33.783  12.631
54651W        W22880  17.686  40.994   4.701
54652W        W22881  41.023  36.452  12.647
54653W        W22882  25.434  17.865  12.016
54654W        W22883  35.911  13.813  13.424
54655W        W22884  12.589  16.555   3.687
54656W        W22885   9.517  18.080   2.230
54657W        W22886  36.067  24.932   4.622
54658W        W22887  36.198  32.871  10.552
54659W        W22888  23.567   1.009   0.403
54660W        W22889  31.976  29.604   1.796
54661W        W22890  34.092  21.474   0.727
54662W        W22891   1.374  33.187  10.387
54663W        W22892  36.137  36.337  13.372
54664W        W22893  21.034  12.754  12.357
54665W        W22894   3.674   4.123  11.174
54666W        W22895  13.653  25.443  14.401
54667W        W22896   0.369  23.937   2.749
54668W        W22897   1.167  13.124  11.274
54669W        W22898  36.704   7.703  13.749
54670W        W22899  21.267  43.251  14.393
54671W        W22900  41.760  17.639   0.236
54672W        W22901  38.082  43.321  12.060
54673W        W22902  27.192  18.164  14.999
54674W        W22903  41.532  32.057   1.692
54675W        W22904  42.847  21.616   3.562
54676W        W22905  23.342  35.978  10.167
54677W        W22906  15.297  40.873   3.522
54678W        W22907   7.867  32.915  14.851
54679W        W22908  44.799  36.376  14.157
54680W        W22909   6.048  12.754  13.512
54681W        W22910  17.009  34.450   2.322
54682W        W22911  33.203  40.058   1.733
54683W        W22912   7.593  30.859  12.560
54684W        W22913   9.234  20.606   0.386
54685W        W22914  28.956   2.869   2.135
54686W        W22915  31.196  32.632   3.229
54687W        W22916  39.110  18.736   5.164
54688W        W22917  32.328  30.961  12.084
54689W        W22918  16.070   4.973   1.786
54690W        W22919   0.887  20.508   4.451
54691W        W22920   4.384   2.487  14.474
54692W        W22921  39.930  24.277   1.448
54693W        W22922   7.534  43.518   4.955
54694W        W22923  24.214  41.941  14.688
54695W        W22924   6.855  35.122   4.815
54696W        W22925  16.623  28.835  14.882
54697W        W22926  36.838  16.474   3.572
54698W        W22927   9.113  25.611  13.625
54699W        W22928  41.825  28.287   3.947
54700W        W22929  29.004  41.155  13.455
54701W        W22930   4.855  43.044  10.786
54702W        W22931  10.211  29.429  12.851
54703W        W22932  30.135  39.725  12.599
54704W        W22933   5.841  23.488   2.293
54705W        W22934   6.237  22.546  11.595
54706W        W22935  32.138  25.068  10.256
54707W        W22936   2.650  22.880  12.514
54708W        W22937   7.821  38.838  12.900
54709W        W22938   4.315  15.563   0.192
54710W        W22939  44.873  30.542  10.737
54711W        W22940  36.961  38.256   4.641
54712W        W22941  38.011  29.671   1.821
54713W        W22942  29.009  34.488   1.256
54714W        W22943  39.029  33.465   3.771
54715W        W22944  20.323  11.651  10.776
54716W        W22945  16.835  13.655   4.646
54717W        W22946   1.913   1.161   4.803
54718W        W22947  11.178  28.500  13.875
54719W        W22948  15.948   3.911  12.509
54720W        W22949   0.871  44.053   3.197
54721W        W22950  27.742   5.836  10.691
54722W        W22951   9.720  13.411  11.699
54723W        W22952  12.883   9.692  13.860
54724W        W22953  29.907  36.412  12.895
54725W        W22954  27.525   4.437  14.504
54726W        W22955   3.541  25.538   1.871
54727W        W22956   2.290  26.173   3.110
54728W        W22957  36.274  34.264  11.090
54729W        W22958  44.697  42.723   4.068
54730W        W22959  26.380  23.127  14.848
54731W        W22960  38.968  30.713  12.030
54732W        W22961  13.714  12.892  10.659
54733W        W22962  35.977  14.644  14.810
54734W        W22963  28.500   2.458  13.747
54735W        W22964   5.230  24.442   3.014
54736W        W22965  18.859  30.519  11.175
54737W        W22966   2.362  10.272   3.717
54738W        W22967  16.796  28.604  13.533
54739W        W22968  34.098  29.587   0.816
54740W        W22969  38.478  33.883   5.490
54741W        W22970  44.730  37.462  14.423
54742W        W22971  44.523  24.218   1.787
54743W        W22972  14.286  19.240   4.593
54744W        W22973   7.339  21.055  14.340
54745W        W22974  10.598  29.620   4.210
54746W        W22975  27.041  20.311   1.369
54747W        W22976  26.701  25.631  11.139
54748W        W22977   1.714  35.167  14.855
54749W        W22978  18.710  13.806  14.298
54750W        W22979   2.573  17.645   1.460
54751W        W22980   9.312   9.423  13.190
54752W        W22981  19.807  12.455   1.178
54753W        W22982  41.985  11.170   4.740
54754W        W22983  11.689  44.716   0.912
54755W        W22984  44.115   5.382  12.591
54756W        W22985  39.016  36.726  14.896
54757W        W22986  36.264  15.343  10.942
54758W        W22987  31.789   9.180   3.229
54759W        W22988  42.475  21.050   2.025
54760W        W22989  39.228  22.191   4.201
54761W        W22990  18.424  38.419   3.122
54762W        W22991  33.655  44.468   1.878
54763W        W22992  41.351  33.894  14.361
54764W        W22993   0.308  35.524   2.343
54765W        W22994  31.081  17.933   1.820
54766W        W22995  34.385  44.891   4.793
54767W        W22996  25.766   3.963  11.076
54768W        W22997   8.629   9.091  14.972
54769W        W22998  39.443   5.077  13.902
54770W        W22999  40.447   3.806   4.916
54771W        W23000  44.016  24.068  12.124
54772W        W23001  29.027  40.578  10.766
54773W        W23002   8.448   8.446   0.736
54774W        W23003  16.538   9.324  12.500
54775W        W23004  17.222  15.994   5.010
54776W        W23005   9.701  35.253  10.665
54777W        W23006  26.698   5.134   0.790
54778W        W23007  13.706  26.537  14.302
54779W        W23008  39.620   7.784   0.858
54780W        W23009  25.852   0.767   4.662
54781W        W23010   3.193  23.572  13.023
54782W        W23011  36.544  41.362   0.273
54783W        W23012   9.770  16.203   0.986
54784W        W23013   5.579  36.253   0.488
54785W        W23014  29.148  17.098   0.762
54786W        W23015  11.366  21.651  13.855
54787W        W23016  11.552  33.931   4.113
54788W        W23017  43.035   5.554   4.134
54789W        W23018  40.313  22.734  11.127
54790W        W23019  17.138   0.343   4.056
54791W        W23020  37.122   9.112  14.033
54792W        W23021  25.490   7.439  12.117
54793W        W23022   2.983  33.266   2.351
54794W        W23023  17.223  22.676   1.265
54795W        W23024  34.916  12.163   2.812
54796W        W23025  14.676  16.606   0.948
54797W        W23026   8.579  18.671  12.498
54798W        W23027  44.536  40.128   4.617
54799W        W23028  29.167  10.342   3.558
54800W        W23029  44.902  15.627  13.061
54801W        W23030  15.566  15.595   0.918
54802W        W23031  17.863  23.145   4.182
54803W        W23032  27.712  42.070  14.479
54804W        W23033  20.619  15.071  13.399
54805W        W23034   0.023  12.844  12.190
54806W        W23035  34.329  38.276   1.836
54807W        W23036  41.356  41.090  13.320
54808W        W23037   6.868  27.443   2.210
54809W        W23038  40.206   4.635   3.640
54810W        W23039  44.390  32.650  10.627
54811W        W23040  27.291  36.006  11.612
54812W        W23041   1.419  22.807   3.765
54813W        W23042  27.670  43.454  10.993
54814W        W23043  34.493  27.889   0.769
54815W        W23044  25.033  43.241  12.312
54816W        W23045  34.568  43.458  13.818
54817W        W23046   7.209  19.801  13.520
54818W        W23047  34.384  32.403   0.395
54819W        W23048   7.220   5.655  12.556
54820W        W23049  31.588  21.973   1.773
54821W        W23050  20.743  37.545   2.128
54822W        W23051  35.102  28.700  12.465
54823W        W23052  29.983   2.516  12.907
54824W        W23053  20.604   7.699   3.599
54825W        W23054  32.743  19.532  11.027
54826W        W23055   3.423  21.615   4.857
54827W        W23056   0.284  36.405  13.507
54828W        W23057  32.902  10.721  11.628
54829W        W23058  16.365   0.191  11.078
54830W        W23059  10.543  26.637   4.563
54831W        W23060  35.594  36.407   2.319
54832W        W23061  29.763  23.271   1.334
54833W        W23062  31.385  31.373  11.554
54834W        W23063  21.131  17.817   2.253
54835W        W23064  28.881  19.577   0.663
54836W        W23065  10.764  27.001   1.444
54837W        W23066  22.888  19.491   1.785
54838W        W23067  36.479  11.892   3.863
54839W        W23068  11.859  32.998   4.201
54840W        W23069   5.766   1.623   3.300
54841W        W23070   8.401  11.902  12.521
54842W        W23071  14.068  13.830  14.970
54843W        W23072  30.866  24.072   5.028
54844W        W23073  16.818  16.423   1.858
54845W        W23074  34.834  35.394  10.702
54846W        W23075  21.635  40.551  14.789
54847W        W23076  27.240  18.459  13.185
54848W        W23077  32.878  42.461  12.025
54849W        W23078  22.204  12.645  12.635
54850W        W23079  44.434  33.916   2.799
54851W        W23080  11.205  21.496   1.711
54852W        W23081   0.868  28.165   1.457
54853W        W23082   2.349   9.826   1.225
54854W        W23083  24.279  30.580   4.507
54855W        W23084  14.769  28.111  13.932
54856W        W23085  18.246  41.848  14.672
54857W        W23086  24.230  17.934  12.054
54858W        W23087  14.567  27.394   3.749
54859W        W23088  11.378  41.872   0.274
54860W        W23089  11.598  21.672  14.740
54861W        W23090  31.462  23.932   1.834
54862W        W23091  33.846  32.450   4.072
54863W        W23092   9.249  35.487  10.719
54864W        W23093  37.493  44.952  14.892
54865W        W23094  18.702  25.591  13.033
54866W        W23095   2.712   1.024  13.578
54867W        W23096  26.659  25.662   2.177
54868W        W23097   6.281  34.011   4.775
54869W        W23098  20.232   8.209  11.817
54870W        W23099   2.858  14.880   0.849
54871W        W23100  22.656  11.828   5.257
54872W        W23101  29.674  43.322  14.959
54873W        W23102  32.383  37.404  13.561
54874W        W23103  20.095  25.457   1.725
54875W        W23104  41.011  34.360   0.063
54876W        W23105  11.711   5.965  10.583
54877W        W23106   3.626  20.095  10.614
54878W        W23107  15.072  40.765  10.984
54879W        W23108   2.388  44.502  13.360
54880W        W23109  38.565  25.174   1.384
54881W        W23110   3.463  40.058   2.902
54882W        W23111  26.602   1.119  13.966
54883W        W23112  16.217  10.210   4.207
54884W        W23113  22.753  18.233   2.752
54885W        W23114   7.874   4.952  11.072
54886W        W23115  36.791   2.274  11.631
54887W        W23116  33.712   6.156   3.625
54888W        W23117  27.463  28.174   3.096
54889W        W23118   8.257   7.292   0.248
54890W        W23119   7.826  10.172   4.567
54891W        W23120  31.458  21.253   4.228
54892W        W23121  17.043   0.533   1.842
54893W        W23122  23.094  32.082   3.333
54894W        W23123   2.139  39.966  14.983
54895W        W23124  23.945   2.998  13.949
54896W        W23125  15.634  30.649   3.602
54897W        W23126  26.748  31.907   4.159
54898W        W23127  33.343  26.042  14.477
54899W        W23128  44.375  12.307   0.413
54900W        W23129  23.117  26.922  13.503
54901W        W23130  16.376  23.297   1.249
54902W        W23131  43.480  44.039   0.890
54903W        W23132   8.226  30.028  11.360
54904W        W23133  35.565  38.114   2.281
54905W        W23134  44.533  29.091  11.763
54906W        W23135  26.602  36.560  11.920
54907W        W23136  42.660  14.691  14.549
54908W        W23137  43.026  26.864  10.365
54909W        W23138  44.891  29.984  12.539
54910W        W23139  20.280   1.657   1.766
54911W        W23140  41.581  36.392  11.678
54912W        W23141   3.483  25.363   4.502
54913W        W23142  20.108  33.196   1.203
54914W        W23143  27.903   8.219  12.000
54915W        W23144  35.622  16.268   2.574
54916W        W23145  26.875  22.051  11.081
54917W        W23146  31.548   5.363  11.209
54918W        W23147  18.481  32.848   3.324
54919W        W23148  27.440   7.819   0.226
54920W        W23149  44.832   9.397   4.880
54921W        W23150  33.612  14.107  10.636
54922W        W23151  17.175  41.766   4.740
54923W        W23152  33.105  35.007  11.505
54924W        W23153  32.390  41.998   2.686
54925W        W23154  38.991  36.190   2.297
54926W        W23155   5.180   6.865  14.891
54927W        W23156  31.372  10.663   3.136
54928W        W23157   3.601  22.125  13.003
54929W        W23158   2.659  23.110  11.474
54930W        W23159  17.282  27.187   4.498
54931W        W23160  38.401  14.088  11.485
54932W        W23161  39.173  33.973   9.900
54933W        W23162   2.237   6.714  12.248
54934W        W23163  32.496   1.245  13.944
54935W        W23164   0.835  28.461  11.596
54936W        W23165   1.761  41.125  13.836
54937W        W23166   3.333  43.781  11.646
54938W        W23167  37.336  25.555   4.473
54939W        W23168  12.206  33.342   0.897
54940W        W23169  10.210  25.236  10.677
54941W        W23170  32.197  13.948  13.907
54942W        W23171  27.575   5.358   4.043
54943W        W23172  16.407  14.530   1.126
54944W        W23173   7.358  18.992   2.336
54945W        W23174  13.225  24.518   0.935
54946W        W23175  36.910  32.875  12.996
54947W        W23176  20.206  35.172   4.720
54948W        W23177   6.637  39.259   1.009
54949W        W23178   3.904  43.726   1.883
54950W        W23179  25.033  29.601   2.677
54951W        W23180  27.790  10.555   2.993
54952W        W23181  33.656  40.194   3.712
54953W        W23182  31.695  35.307  13.258
54954W        W23183  23.717  21.304  13.014
54955W        W23184   5.294   8.781   4.312
54956W        W23185  43.687  43.410   4.176
54957W        W23186  14.664  25.163  12.525
54958W        W23187  10.855  22.281  13.579
54959W        W23188   8.414  40.783   3.272
54960W        W23189  41.887  42.805   0.506
54961W        W23190  17.197  27.103   0.661
54962W        W23191   7.602  24.975   1.263
54963W        W23192  25.981   7.210  12.938
54964W        W23193  34.492  35.535  14.350
54965W        W23194  11.612  25.165   4.609
54966W        W23195   0.742  34.799  11.685
54967W        W23196  13.479  30.798  12.063
54968W        W23197  17.072  39.554   1.667
54969W        W23198  14.444  19.537   2.868
54970W        W23199  16.595  16.977  12.087
54971W        W23200  28.497  16.739   1.589
54972W        W23201  10.932  44.832   0.333
54973W        W23202  17.383  19.593  11.581
54974W        W23203  13.893  39.404   2.225
54975W        W23204  28.696  12.613   2.652
54976W        W23205  28.610  34.802   5.377
54977W        W23206   9.468  37.524   3.426
54978W        W23207  36.543  13.284   1.841
54979W        W23208  33.155   3.851  13.547
54980W        W23209  32.890  20.626   0.989
54981W        W23210  43.757   1.963  13.354
54982W        W23211  23.074  31.401   0.898
54983W        W23212  37.708  44.737  11.614
54984W        W23213  11.608   6.768   1.307
54985W        W23214  34.636  29.617  12.194
54986W        W23215   0.772  28.255   1.937
54987W        W23216  27.606   9.448  13.431
54988W        W23217  40.058  33.439  10.944
54989W        W23218  19.521  36.853   0.433
54990W        W23219  43.517  26.255  13.757
54991W        W23220  37.215  31.708  14.749
54992W        W23221  28.625  10.678   2.924
54993W        W23222   7.265   7.026   2.691
54994W        W23223  33.315   8.159  13.557
54995W        W23224  31.933  44.756  13.056
54996W        W23225  20.737  38.195   0.677
54997W        W23226  30.646  38.976   3.622
54998W        W23227  33.961   4.940   1.940
54999W        W23228   4.249  36.624   0.321
55000W        W23229   9.234  44.448   2.371
55001W        W23230  18.737  43.966  11.501
55002W        W23231   1.248  13.794  14.984
55003W        W23232  24.789  38.786   1.275
55004W        W23233  31.622   0.792   2.367
55005W        W23234   0.931   8.372  11.144
55006W        W23235  41.623   1.476   4.084
55007W        W23236  16.982   5.821  14.432
55008W        W23237  33.392  16.728   2.782
55009W        W23238  15.150  24.306  14.453
55010W        W23239   6.334  40.624  12.415
55011W        W23240  24.017  24.778  13.265
55012W        W23241  29.448  35.076   1.773
55013W        W23242  44.416   5.921  13.913
55014W        W23243  42.456   3.481  12.511
55015W        W23244  34.176  22.540  12.577
55016W        W23245  12.258  30.066   4.120
55017W        W23246  38.271  39.043  11.457
55018W        W23247  25.521  30.861  11.578
55019W        W23248  20.732  33.105  12.936
55020W        W23249   2.133  42.832   4.523
55021W        W23250  14.264   2.924  10.655
55022W        W23251  44.500   6.884  12.010
55023W        W23252   1.403  16.677  10.915
55024W        W23253  19.709  33.089   3.635
55025W        W23254  15.219  21.851  12.304
55026W        W23255  16.014  41.808   1.146
55027W        W23256  23.249  17.402  11.559
55028W        W23257  31.441  14.152  12.078
55029W        W23258  28.086  13.364   4.579
55030W        W23259  14.845  27.624   2.214
55031W        W23260  44.444  36.561  10.996
55032W        W23261  24.460  14.986  10.648
55033W        W23262  41.879  25.531  13.992
55034W        W23263   8.169  17.028  10.582
55035W        W23264  32.200  22.466   3.055
55036W        W23265  27.431  13.741   2.686
55037W        W23266  36.477  16.041   3.581
55038W        W23267   4.305  27.427  14.682
55039W        W23268  13.845  32.068   4.169
55040W        W23269  16.317  36.003  13.388
55041W        W23270  37.867  38.980   0.878
55042W        W23271  27.630  31.647   0.559
55043W        W23272   9.735  21.940   4.051
55044W        W23273  30.050   8.641   4.061
55045W        W23274  22.603   6.928   2.042
55046W        W23275  22.870  37.061   2.606
55047W        W23276  44.249   1.910   3.198
55048W        W23277  15.980  19.196  13.064
55049W        W23278  37.470  36.022   3.150
55050W        W23279   3.884   2.855   1.686
55051W        W23280  17.257  37.633  12.771
55052W        W23281  19.205  38.635   2.713
55053W        W23282  14.895  41.784  10.823
55054W        W23283  24.367   3.459   1.788
55055W        W23284  15.984  41.357   1.451
55056W        W23285  25.701  15.800   3.365
55057W        W23286  34.134   8.373   2.685
55058W        W23287  35.691   0.194  14.816
55059W        W23288   0.887  14.021   4.093
55060W        W23289  28.815   8.745   4.876
55061W        W23290  34.122  23.370   1.194
55062W        W23291   4.948  10.081   3.641
55063W        W23292  41.904  28.593  13.464
55064W        W23293  17.560  12.380  12.922
55065W        W23294  20.099  34.545  10.714
55066W        W23295  20.249  41.560   0.942
55067W        W23296  18.315   9.438  14.434
55068W        W23297   1.956  27.617  13.443
55069W        W23298  38.605  27.021   0.757
55070W        W23299  19.769  36.887  14.930
55071W        W23300  24.328  27.997  14.847
55072W        W23301   2.278  37.861  12.345
55073W        W23302   3.736  33.535   0.802
55074W        W23303  32.116   6.418   2.855
55075W        W23304   1.414  43.494  13.980
55076W        W23305  24.859  10.721  12.522
55077W        W23306  13.117  17.678   1.297
55078W        W23307  36.648  39.544   3.037
55079W        W23308  41.253  30.442   4.225
55080W        W23309   9.382  16.066   3.659
55081W        W23310  39.620  33.384   2.147
55082W        W23311  22.502  28.449  14.504
55083W        W23312  32.115  39.415  11.180
55084W        W23313  10.765   9.104  14.499
55085W        W23314   8.212  12.752   2.881
55086W        W23315  11.846  20.605   1.883
55087W        W23316  40.297  10.522   0.752
55088W        W23317  30.199  20.639  12.647
55089W        W23318  11.809  38.411  14.303
55090W        W23319  32.640  18.667   3.096
55091W        W23320   3.843  21.666  13.140
55092W        W23321  34.325   9.107  11.545
55093W        W23322  28.461   3.381  10.786
55094W        W23323  14.308  28.638  10.713
55095W        W23324  35.199  23.111  11.087
55096W        W23325   9.003  28.950  14.463
55097W        W23326  25.540   2.705  12.159
55098W        W23327  38.358  28.766   3.153
55099W        W23328  38.550  36.343  13.112
55100W        W23329  38.131  41.430   0.826
55101W        W23330  20.428  32.066   2.428
55102W        W23331  36.725  34.129   2.616
55103W        W23332   2.240   2.834   3.247
55104W        W23333   5.210  14.680   3.257
55105W        W23334   4.263   5.139  13.503
55106W        W23335  38.873  37.309   4.203
55107W        W23336  23.794   8.125  14.044
55108W        W23337  35.463  29.970   0.276
55109W        W23338  16.752  43.674  14.004
55110W        W23339  12.865  29.449   4.776
55111W        W23340  20.140  30.166  11.355
55112W        W23341  31.880  18.343  14.900
55113W        W23342  15.624  38.510  14.843
55114W        W23343  21.056  18.350  14.485
55115W        W23344  37.771  42.416   4.156
55116W        W23345  43.202   9.138  13.915
55117W        W23346  19.149  12.278   1.026
55118W        W23347   3.944  10.862  13.912
55119W        W23348  25.543  28.188   3.225
55120W        W23349  33.606   3.867   2.727
55121W        W23350  40.418  11.119  13.979
55122W        W23351  14.259   7.048   0.810
55123W        W23352  44.901   4.734  13.826
55124W        W23353  31.653  31.780   1.387
55125W        W23354  27.838   4.297   1.471
55126W        W23355   1.738  10.798   2.212
55127W        W23356  23.039   8.078   4.896
55128W        W23357   1.868  23.586   4.329
55129W        W23358   9.995  42.787   5.205
55130W        W23359  27.904  33.293   1.516
55131W        W23360  38.019  41.757   4.742
55132W        W23361   4.290  39.721  13.500
55133W        W23362  43.799   5.096  11.876
55134W        W23363  38.629  25.800  11.266
55135W        W23364  19.504   8.166   3.267
55136W        W23365  29.949  12.137   0.992
55137W        W23366   7.717  30.887   0.287
55138W        W23367  27.428  15.543   1.096
55139W        W23368  41.937  16.158   0.541
55140W        W23369  12.991  38.080  12.414
55141W        W23370   2.466  16.251  11.023
55142W        W23371  23.105  35.996  14.131
55143W        W23372  15.177  36.039  12.430
55144W        W23373   2.824  22.447  14.809
55145W        W23374  14.249  23.453  11.666
55146W        W23375  30.003  20.523   4.070
55147W        W23376  25.207  32.160   1.896
55148W        W23377   9.773   9.917   2.849
55149W        W23378   9.677  11.833  14.913
55150W        W23379  32.175  19.127   4.621
55151W        W23380  31.535   6.103  13.482
55152W        W23381   3.210  23.104   2.944
55153W        W23382   2.272  35.040   2.619
55154W        W23383  42.855  35.118   3.438
55155W        W23384  15.211  15.485  12.426
55156W        W23385  22.016  11.319   1.718
55157W        W23386  39.642  23.541   3.290
55158W        W23387  37.628  23.457  10.637
55159W        W23388  36.899  32.379  11.558
55160W        W23389  35.905   1.697  11.518
55161W        W23390  36.023   3.211  14.280
55162W        W23391  35.121  14.424  11.564
55163W        W23392  12.609  41.852   2.845
55164W        W23393  26.453  16.114  14.002
55165W        W23394  38.537  27.918   3.710
55166W        W23395  39.929  11.116  11.251
55167W        W23396  17.789  23.987  13.869
55168W        W23397   0.417  15.059   2.383
55169W        W23398   2.682  11.058  10.782
55170W        W23399  12.782  28.124   3.425
55171W        W23400  10.369   4.854  12.036
55172W        W23401  33.654  32.315  10.115
55173W        W23402   8.335   8.274  13.472
55174W        W23403  25.437   6.644  13.546
55175W        W23404   7.637  11.698  11.213
55176W        W23405  24.862  29.491  11.342
55177W        W23406  43.759  43.231  14.739
55178W        W23407  24.617  41.231   4.582
55179W        W23408  42.484  17.768   2.263
55180W        W23409  24.031   9.469   0.778
55181W        W23410  40.451  35.134   2.688
55182W        W23411   8.322  22.222   2.814
55183W        W23412  26.232  17.345  14.453
55184W        W23413  38.695  39.635  13.305
55185W        W23414  20.266  41.412  12.366
55186W        W23415  28.945  36.348   2.212
55187W        W23416  43.711  26.159   4.757
55188W        W23417  10.432  16.686  12.888
55189W        W23418  21.267  35.283  10.020
55190W        W23419  44.129   4.227  12.339
55191W        W23420  38.200   7.154   1.960
55192W        W23421  44.970  43.818  12.144
55193W        W23422  32.128   4.310   1.424
55194W        W23423  18.808  22.563   3.726
55195W        W23424  17.010  42.307  11.115
55196W        W23425   7.371  38.987   3.542
55197W        W23426  41.488  24.971  14.988
55198W        W23427  38.541  29.762  14.467
55199W        W23428   0.996  33.387  12.981
55200W        W23429  19.964  34.033  10.567
55201W        W23430  28.186  22.119   0.422
55202W        W23431  10.041  21.110   0.333
55203W        W23432  26.587  10.428  14.174
55204W        W23433  32.597   9.215  11.180
55205W        W23434  42.080  17.121  10.929
55206W        W23435  30.222  17.321   4.591
55207W        W23436   9.379   5.846  12.947
55208W        W23437   9.539  39.019  14.625
55209W        W23438   5.833  10.727   2.627
55210W        W23439  31.850   9.452  10.785
55211W        W23440  22.936  27.111  14.554
55212W        W23441  20.613  23.101  10.603
55213W        W23442   2.798  28.437  14.312
55214W        W23443   8.601  33.830  14.174
55215W        W23444   3.669  17.162  14.242
55216W        W23445  15.538  24.464  11.571
55217W        W23446  18.125  44.440   0.838
55218W        W23447  39.457   2.105   5.117
55219W        W23448  14.869  38.572   4.128
55220W        W23449  40.398   1.377  12.348
55221W        W23450  39.324  19.713   9.975
55222W        W23451   8.360   1.895   4.039
55223W        W23452  24.169   8.259   0.097
55224W        W23453  25.043  15.829  12.529
55225W        W23454   1.785  35.991  10.539
55226W        W23455  20.378  29.872   0.551
55227W        W23456  33.075  20.726  10.390
55228W        W23457  31.514  10.831  11.884
55229W        W23458  30.659  24.585  12.440
55230W        W23459   9.174  22.135  14.998
55231W        W23460  42.816  19.342  11.930
55232W        W23461  24.603  38.525   1.698
55233W        W23462  22.244  20.658   4.659
55234W        W23463  21.473   6.124   4.126
55235W        W23464  36.460  20.604  14.442
55236W        W23465  35.888   9.412   3.670
55237W        W23466  27.139  39.540  14.388
55238W        W23467  29.677  30.644  14.020
55239W        W23468  34.614  42.831   4.088
55240W        W23469  33.066  27.387  14.977
55241W        W23470   0.614  25.036   0.740
55242W        W23471   1.386   0.423  13.305
55243W        W23472  24.423   7.733   4.788
55244W        W23473   4.224  15.611   3.222
55245W        W23474  19.771  33.015  14.003
55246W        W23475  13.920   3.192   3.113
55247W        W23476  34.617  25.017   2.863
55248W        W23477   1.242  18.054  14.897
55249W        W23478   3.542  22.458   0.379
55250W        W23479  12.625  42.542   1.702
55251W        W23480  29.508  41.369  14.811
55252W        W23481  38.121   8.061   1.355
55253W        W23482  23.000  31.874   4.513
55254W        W23483  30.346  29.005   2.828
55255W        W23484  14.790  20.770   2.979
55256W        W23485  18.180  38.648  13.864
55257W        W23486  10.377  43.903   0.054
55258W        W23487  12.634  18.593  10.711
55259W        W23488  13.278  14.693   1.925
55260W        W23489  36.762  18.628  10.716
55261W        W23490   6.426  25.736  11.580
55262W        W23491   2.586  37.160  11.180
55263W        W23492  21.689  24.700   4.492
55264W        W23493  31.150  44.743   4.615
55265W        W23494   0.756  21.036   0.351
55266W        W23495  22.660  25.006  13.310
55267W        W23496  24.620  19.197  14.759
55268W        W23497  32.647  16.179   0.023
55269W        W23498  11.579  38.338   1.881
55270W        W23499   7.856  15.798  14.392
55271W        W23500  44.322  37.164  14.324
55272W        W23501  41.023  26.622   2.819
55273W        W23502   6.447  11.352  12.073
55274W        W23503   5.398  35.462   1.611
55275W        W23504  28.610  16.672  12.719
55276W        W23505  11.140  12.795  11.698
55277W        W23506  12.906  23.676  11.109
55278W        W23507  26.590  39.480   1.424
55279W        W23508   2.461  13.684   4.208
55280W        W23509   6.401  18.779  13.593
55281W        W23510  19.403   4.897   3.825
55282W        W23511   0.851  35.485   0.782
55283W        W23512  25.996  17.530  14.893
55284W        W23513  39.564   9.696   3.224
55285W        W23514  31.549  13.716  12.318
55286W        W23515  17.204  24.824   2.539
55287W        W23516  15.685  41.042  14.093
55288W        W23517   8.782   5.876   3.152
55289W        W23518   2.788  38.576  12.067
55290W        W23519  39.648  38.918   3.677
55291W        W23520  14.202  41.260  13.930
55292W        W23521  23.707  22.696   1.403
55293W        W23522  11.781  26.213   2.198
55294W        W23523   8.933  32.053   4.547
55295W        W23524  31.891  12.434  14.489
55296W        W23525  27.734  43.802   2.412
55297W        W23526  27.226  40.291  12.476
55298W        W23527  16.613   1.474  12.009
55299W        W23528  32.511  43.961  14.442
55300W        W23529  21.544  28.071   0.834
55301W        W23530   3.169   1.421  13.971
55302W        W23531   7.425  32.406  12.136
55303W        W23532  21.179  38.947  12.872
55304W        W23533  32.081  20.918   2.181
55305W        W23534  29.666  29.374  14.528
55306W        W23535  16.108  42.466   3.827
55307W        W23536   7.141   3.726  14.396
55308W        W23537  40.391  41.797   1.415
55309W        W23538   3.862  15.835   3.533
55310W        W23539  27.513  38.903  14.741
55311W        W23540  37.434  15.513  11.994
55312W        W23541  31.551   8.602   4.451
55313W        W23542   7.301  11.097   2.115
55314W        W23543   6.333  39.941  13.025
55315W        W23544  34.607  37.750   0.327
55316W        W23545   4.822  12.144   0.894
55317W        W23546  18.191  24.572  13.876
55318W        W23547  17.236  23.084   2.845
55319W        W23548  33.481  14.652  12.870
55320W        W23549  17.303  15.622  13.343
55321W        W23550   4.951  31.485   4.416
55322W        W23551  44.213  42.001  14.438
55323W        W23552  39.500  38.521   1.680
55324W        W23553  41.558  43.655  11.631
55325W        W23554   5.099  38.553  10.274
55326W        W23555  11.728  13.850   2.384
55327W        W23556  12.252  24.425   1.826
55328W        W23557   9.215   8.803   3.215
55329W        W23558  24.040   3.192   0.870
55330W        W23559  38.935  29.860  11.236
55331W        W23560  18.209  23.548   1.590
55332W        W23561  22.721  16.174  13.851
55333W        W23562  17.478  22.920  10.674
55334W        W23563   7.331  40.544   2.402
55335W        W23564   2.974  21.012  13.415
55336W        W23565  19.600  21.622   1.404
55337W        W23566  22.148  21.464  14.434
55338W        W23567  21.785  24.177  12.484
55339W        W23568   5.775   7.483   1.354
55340W        W23569  25.952   5.754   1.173
55341W        W23570   0.738  20.633   3.274
55342W        W23571   1.350  32.280   3.262
55343W        W23572  17.218  26.978   1.776
55344W        W23573  44.396  13.209   0.966
55345W        W23574  37.107  43.393  14.112
55346W        W23575  18.846   1.657  11.508
55347W        W23576  16.561   2.557   0.448
55348W        W23577  29.853  32.424   2.459
55349W        W23578   5.938  16.172  11.701
55350W        W23579  13.546  22.470  14.426
55351W        W23580  41.368  25.279   3.542
55352W        W23581  39.896  21.786  11.881
55353W        W23582   1.891   8.986  13.463
55354W        W23583   1.673   4.434   2.874
55355W        W23584  31.338  35.527  12.937
55356W        W23585  34.734   3.333  11.137
55357W        W23586  44.975  21.821   1.451
55358W        W23587   6.919   8.330   3.441
55359W        W23588   0.613  11.221  13.447
55360W        W23589  33.385  37.862   2.141
55361W        W23590  27.119  31.892  11.257
55362W        W23591  25.225   5.704   2.613
55363W        W23592   7.171   2.850  11.141
55364W        W23593  26.629  33.396  11.971
55365W        W23594  26.481   5.474  12.820
55366W        W23595  36.780  35.889  13.826
55367W        W23596   3.766  18.138   3.144
55368W        W23597  17.727   6.428  13.081
55369W        W23598  15.824  40.599  12.339
55370W        W23599  11.156  43.110   2.125
55371W        W23600  16.355  32.466  12.635
55372W        W23601  16.840  35.418   1.500
55373W        W23602   0.854  31.134   2.323
55374W        W23603   8.202  20.560  13.667
55375W        W23604  15.702  32.684  10.614
55376W        W23605   1.853  43.305  14.796
55377W        W23606  29.525  18.300  11.561
55378W        W23607  15.777   2.248   1.081
55379W        W23608  19.200  36.440   3.902
55380W        W23609   1.235  11.232   4.726
55381W        W23610  33.595  11.914   9.946
55382W        W23611  40.559  39.694   0.097
55383W        W23612  31.196  36.917   0.769
55384W        W23613  19.305  22.672   3.741
55385W        W23614  19.298  19.073  13.171
55386W        W23615  15.768  23.652   2.290
55387W        W23616  31.231  21.817  12.643
55388W        W23617  11.683   6.365   3.024
55389W        W23618  37.097  12.196  12.515
55390W        W23619  10.618  28.562  14.920
55391W        W23620  32.477  39.733   2.436
55392W        W23621  18.657   2.919   4.219
55393W        W23622   2.295  18.275   2.219
55394W        W23623  15.657  10.824   0.233
55395W        W23624  24.254  16.245   2.194
55396W        W23625  20.645  31.580   3.303
55397W        W23626  29.771   2.713  12.472
55398W        W23627  15.392  36.944   3.781
55399W        W23628  39.312  44.677   0.702
55400W        W23629  44.769  25.289   1.757
55401W        W23630   7.898  23.999  12.077
55402W        W23631  27.244  12.374   0.894
55403W        W23632   9.276  25.674  13.107
55404W        W23633  31.494  33.841   1.405
55405W        W23634  44.779  22.276   4.226
55406W        W23635  39.606  36.532   0.752
55407W        W23636  18.509  43.519   0.311
55408W        W23637   4.059  37.477  12.536
55409W        W23638  17.828  13.082   4.112
55410W        W23639   0.179  12.357  12.259
55411W        W23640  19.127   9.589  12.842
55412W        W23641  37.352  17.560  11.210
55413W        W23642  18.287   9.451   3.760
55414W        W23643  34.987  34.080  10.437
55415W        W23644  14.230  25.450   1.811
55416W        W23645   8.861  23.850  13.531
55417W        W23646  33.090  35.601   1.257
55418W        W23647   5.206  19.355   3.174
55419W        W23648  12.189  11.446   0.820
55420W        W23649  15.308  36.954   1.047
55421W        W23650   0.670   7.947   1.383
55422W        W23651  39.984  44.307   2.741
55423W        W23652   5.401  33.897  12.582
55424W        W23653   3.137  44.914   3.155
55425W        W23654  25.668   6.097  12.568
55426W        W23655  22.029  24.619  12.637
55427W        W23656   2.815   2.611   2.777
55428W        W23657  10.153   3.851   0.981
55429W        W23658  18.738  25.426  12.228
55430W        W23659  35.596   9.646   3.301
55431W        W23660   2.206   8.222  14.804
55432W        W23661  21.987  26.909   0.255
55433W        W23662  37.024  38.363  10.689
55434W        W23663  17.818   2.284   3.142
55435W        W23664   1.902   1.215  13.402
55436W        W23665  16.906  11.992   4.965
55437W        W23666  17.652   4.171  12.349
55438W        W23667  25.260  44.013   2.372
55439W        W23668  18.212  20.933   2.128
55440W        W23669  31.091  22.793   0.286
55441W        W23670  33.531  27.320   1.905
55442W        W23671  39.013  30.042  14.510
55443W        W23672  27.577   6.964   3.863
55444W        W23673  11.199  24.405  13.806
55445W        W23674  32.426  26.608   3.033
55446W        W23675   7.252   5.802  11.131
55447W        W23676  41.046  38.357  13.598
55448W        W23677   8.256  15.714   1.354
55449W        W23678   5.430  35.791   2.010
55450W        W23679  41.517  25.526  12.150
55451W        W23680   1.243  31.841  14.536
55452W        W23681  44.265   2.950   0.047
55453W        W23682  15.651  22.046   4.611
55454W        W23683   4.299  24.051   0.411
55455W        W23684  19.022  37.098  11.962
55456W        W23685  14.506   6.777  11.161
55457W        W23686   9.128  18.151   1.865
55458W        W23687  30.127  39.529  13.095
55459W        W23688  23.061  19.094   0.474
55460W        W23689  38.300  34.725  13.802
55461W        W23690  38.898  41.779   0.234
55462W        W23691  44.889  31.546   0.449
55463W        W23692   4.457  20.612   3.356
55464W        W23693  16.698  35.714   5.415
55465W        W23694  40.594   9.187   5.115
55466W        W23695  22.633  13.656  11.972
55467W        W23696  32.027  14.137   4.029
55468W        W23697   8.230  35.575   0.337
55469W        W23698  40.792  19.643  13.920
55470W        W23699  39.797   1.194  14.626
55471W        W23700  40.317   2.674   1.662
55472W        W23701  44.753  36.955   1.864
55473W        W23702  26.574  40.874   4.533
55474W        W23703  19.268   9.907   3.336
55475W        W23704  25.384  21.155   3.681
55476W        W23705  38.617  20.517  12.537
55477W        W23706  13.031  19.967  12.562
55478W        W23707  36.962  32.275   4.549
55479W        W23708  26.281   9.550   1.151
55480W        W23709  24.047  21.281  14.555
55481W        W23710  19.569  32.109   1.320
55482W        W23711  33.676   5.892   4.052
55483W        W23712  38.093  38.294  14.363
55484W        W23713  11.278  10.796   1.320
55485W        W23714  10.300  31.093   1.711
55486W        W23715   8.387  16.054   2.390
55487W        W23716  30.825   7.678   4.295
55488W        W23717   6.997  31.423   1.856
55489W        W23718  31.436  11.739   2.255
55490W        W23719  29.936  25.568   3.460
55491W        W23720  17.792  20.645   2.012
55492W        W23721  24.142  31.116  10.678
55493W        W23722  36.960  31.013  12.968
55494W        W23723   8.256  30.859   3.791
55495W        W23724  10.324  31.467   4.644
55496W        W23725  29.088  24.619  13.894
55497W        W23726  42.548  23.745   1.365
55498W        W23727  17.513  38.490  11.132
55499W        W23728   9.947  18.623  13.064
55500W        W23729  33.519   3.831   3.245
55501W        W23730  40.653  12.157  11.108
55502W        W23731  21.190  34.927  10.953
55503W        W23732  34.976   2.447   0.043
55504W        W23733  35.173  38.605  11.513
55505W        W23734  38.591   8.933   2.339
55506W        W23735   7.751  43.345   3.897
55507W        W23736  23.294   3.929  11.223
55508W        W23737  41.799  12.148   0.465
55509W        W23738  12.145   4.733  11.584
55510W        W23739  32.033  40.887   3.595
55511W        W23740  22.575  15.130   3.872
55512W        W23741   3.540  26.129   3.716
55513W        W23742   1.853  19.222  14.998
55514W        W23743  27.643  14.585  14.277
55515W        W23744  35.165   9.909   9.748
55516W        W23745  26.644   8.582  12.609
55517W        W23746   7.909  38.699  14.365
55518W        W23747  29.639  40.969   2.213
55519W        W23748  11.606   0.560   3.731
55520W        W23749  38.356  10.596  11.028
55521W        W23750   8.300   0.658  12.683
55522W        W23751  10.434   4.321   0.570
55523W        W23752  28.576  14.245   3.874
55524W        W23753  16.942  25.284   9.991
55525W        W23754  24.046  31.425  14.973
55526W        W23755   7.800   6.264   0.739
55527W        W23756  44.337  44.665  13.990
55528W        W23757  30.611   6.186   4.127
55529W        W23758  30.968   2.827  14.436
55530W        W23759  11.292  39.934  13.588
55531W        W23760   8.222  17.445  12.101
55532W        W23761  35.325  43.920  13.854
55533W        W23762  44.176  22.678   0.757
55534W        W23763  29.766   0.837  12.559
55535W        W23764  44.212  11.838   9.921
55536W        W23765  36.926  41.959   0.872
55537W        W23766  18.632  36.722  11.530
55538W        W23767  44.456  29.690  14.540
55539W        W23768  37.548   6.941  12.534
55540W        W23769  22.613  33.687   1.247
55541W        W23770  20.001  39.415  12.904
55542W        W23771  44.526  32.470   0.877
55543W        W23772  31.577  34.172   0.475
55544W        W23773  17.140   4.073   2.624
55545W        W23774   1.208  11.738   4.170
55546W        W23775  35.643  44.040  11.433
55547W        W23776  37.842  11.797  13.050
55548W        W23777   5.910  32.488   3.232
55549W        W23778  43.774   1.227   2.705
55550W        W23779  42.756  20.261   4.579
55551W        W23780  20.127  14.702   0.770
55552W        W23781   3.544  37.506  12.566
55553W        W23782  43.046  33.425   2.714
55554W        W23783  29.479  33.883   1.298
55555W        W23784  38.284  41.818   4.290
55556W        W23785   9.955  12.386   0.815
55557W        W23786   3.211  34.377   3.341
55558W        W23787  21.486   9.379   1.320
55559W        W23788  28.074  12.325  13.582
55560W        W23789  39.894   9.595  11.853
55561W        W23790  11.545  37.894   1.596
55562W        W23791  30.600  35.386   0.513
55563W        W23792  20.675  28.661  12.052
55564W        W23793   3.851  38.994  11.968
55565W        W23794  19.108  30.705   3.260
55566W        W23795  31.069  23.652   3.646
55567W        W23796  43.346  33.304  13.296
55568W        W23797   4.975  22.033   0.493
55569W        W23798  26.745  12.606  14.950
55570W        W23799  12.663   4.281  14.648
55571W        W23800  14.873  18.351   0.471
55572W        W23801  33.614  10.624  13.250
55573W        W23802  26.214  10.334  12.432
55574W        W23803  30.785  17.694   1.317
55575W        W23804  25.164   9.203  14.783
55576W        W23805  32.489  35.094   1.504
55577W        W23806  25.188  39.289   1.921
55578W        W23807  16.342  11.624  11.093
55579W        W23808   9.817  14.648   0.386
55580W        W23809  44.712   3.019  14.739
55581W        W23810   0.275  34.417   1.963
55582W        W23811   2.517  19.738   1.953
55583W        W23812  17.524  33.029   4.379
55584W        W23813   6.181  24.093  13.875
55585W        W23814  32.357   6.856  12.953
55586W        W23815  11.283  42.454   3.127
55587W        W23816  23.263  26.050   3.639
55588W        W23817  27.120  18.112  10.668
55589W        W23818   0.890  27.921   3.741
55590W        W23819   0.035  33.657  13.859
55591W        W23820  26.133  34.420   4.080
55592W        W23821  31.002  24.753   1.800
55593W        W23822  28.363   4.928   1.965
55594W        W23823  32.168  15.828   1.780
55595W        W23824   8.229  30.313   2.350
55596W        W23825  12.062  24.698  12.964
55597W        W23826  38.845  16.745   0.860
55598W        W23827  42.898  11.428  14.239
55599W        W23828  20.097   7.805   3.721
55600W        W23829  24.611   2.046  14.978
55601W        W23830  37.952   1.062  13.493
55602W        W23831   3.050  16.348   2.310
55603W        W23832  12.644  33.339  12.820
55604W        W23833  10.432  30.695   4.199
55605W        W23834  28.699  19.673   4.842
55606W        W23835  40.075  16.737  12.083
55607W        W23836  11.512  30.926   0.061
55608W        W23837  17.771  41.751   0.369
55609W        W23838   5.499  26.227  13.898
55610W        W23839  41.301  18.508   2.926
55611W        W23840  38.586  31.155  14.428
55612W        W23841   3.682   0.228  11.992
55613W        W23842   1.437   5.643   4.049
55614W        W23843  41.504  10.098  11.470
55615W        W23844  31.613  29.094   3.350
55616W        W23845  44.316  22.193   0.254
55617W        W23846   4.279  44.116  14.036
55618W        W23847  35.000  40.182   3.019
55619W        W23848  28.488  44.397   2.714
55620W        W23849  35.409   4.888  10.893
55621W        W23850  35.498   8.149  13.665
55622W        W23851   3.164   5.420  11.817
55623W        W23852  10.366   1.913  10.323
55624W        W23853  25.105  22.201  10.557
55625W        W23854  14.721  11.871  10.299
55626W        W23855  39.789  43.528  14.553
55627W        W23856  36.846   7.197  14.400
55628W        W23857  38.361  29.763  13.095
55629W        W23858  14.253  29.642   4.569
55630W        W23859  30.016  18.514   3.743
55631W        W23860   3.548  20.025   0.508
55632W        W23861  10.669  26.411  10.770
55633W        W23862  10.195  33.308  13.481
55634W        W23863  10.494  26.092   0.977
55635W        W23864   0.265  30.506   0.326
55636W        W23865  41.921  31.950  12.565
55637W        W23866  27.534  40.876   2.735
55638W        W23867  34.248   6.578  12.473
55639W        W23868  22.559   3.987  12.904
55640W        W23869  29.851  30.359  11.856
55641W        W23870  21.510  26.092   4.390
55642W        W23871  44.205  22.924  12.398
55643W        W23872  24.179   7.901  12.364
55644W        W23873   5.850  44.075   1.070
55645W        W23874  33.380   2.279   2.260
55646W        W23875  22.025   7.656  12.965
55647W        W23876  40.435  36.318   3.210
55648W        W23877  39.422   6.059   4.658
55649W        W23878  14.095   5.647  13.498
55650W        W23879  30.229  26.550   2.379
55651W        W23880  13.387  19.046  12.211
55652W        W23881   2.260  44.833   0.901
55653W        W23882  39.592  11.808   4.461
55654W        W23883  43.426  11.405  10.340
55655W        W23884  22.937  42.266   0.945
55656W        W23885  26.084  40.735   1.028
55657W        W23886  10.692  32.524  11.930
55658W        W23887   0.429   6.205   1.764
55659W        W23888  34.003  33.005  14.418
55660W        W23889  41.041   2.911   0.211
55661W        W23890  14.451   4.553   0.327
55662W        W23891  29.484  37.745   4.142
55663W        W23892   8.191   4.704   0.671
55664W        W23893  21.528  39.035   4.698
55665W        W23894  43.476  14.219  11.470
55666W        W23895  39.635  20.460   4.721
55667W        W23896  41.654  44.545  14.503
55668W        W23897  36.796  18.160  14.879
55669W        W23898   2.265  12.813   5.195
55670W        W23899  29.982  13.391  12.845
55671W        W23900  44.718   9.235  11.957
55672W        W23901  13.642  44.200   1.380
55673W        W23902   3.339  44.186   3.624
55674W        W23903   4.833  20.300  13.842
55675W        W23904  15.216   7.148   4.931
55676W        W23905  16.277   0.681  11.201
55677W        W23906  35.340   1.883   4.548
55678W        W23907   4.946   0.751   0.308
55679W        W23908   0.415   0.074   0.862
55680W        W23909  21.282  21.519  14.483
55681W        W23910  23.791  38.936  13.484
55682W        W23911  33.093   9.400   0.746
55683W        W23912  21.514  32.652  13.992
55684W        W23913  14.261  15.538   2.286
55685W        W23914  37.007  41.570  14.995
55686W        W23915   4.665  12.780   1.301
55687W        W23916  10.087  28.887   3.871
55688W        W23917  36.776  13.264  13.166
55689W        W23918  31.464  26.740  13.931
55690W        W23919  13.554   1.336  12.193
55691W        W23920  14.864  39.762   3.749
55692W        W23921  35.000  39.440  13.591
55693W        W23922   9.942   1.300  11.305
55694W        W23923  32.089  26.198   3.194
55695W        W23924  44.430   6.905   1.445
55696W        W23925  15.023  21.604   2.746
55697W        W23926  29.496   6.705  11.479
55698W        W23927  35.422   6.037   2.337
55699W        W23928  38.557  28.304   2.529
55700W        W23929  39.511  41.509   0.478
55701W        W23930  31.502  36.179  11.157
55702W        W23931  11.257   8.513  13.368
55703W        W23932   2.297   8.925  10.366
55704W        W23933  18.209  19.804   0.862
55705W        W23934  28.114   9.887  13.772
55706W        W23935  43.214  17.122   1.235
55707W        W23936  27.731   8.669  10.700
55708W        W23937  19.169  35.405   2.713
55709W        W23938  33.370  43.498   3.069
55710W        W23939   9.156  12.082  13.771
55711W        W23940  28.726  30.106   0.669
55712W        W23941   7.314  36.947   0.307
55713W        W23942  18.075  20.054   3.716
55714W        W23943  16.125   4.853   0.852
55715W        W23944  30.878  20.571   1.391
55716W        W23945   8.462  23.240   1.295
55717W        W23946  34.944  31.166  10.682
55718W        W23947  10.382  12.256  12.102
55719W        W23948  22.251  41.799  14.980
55720W        W23949  21.338  22.439  14.868
55721W        W23950  14.448   8.282   3.796
55722W        W23951   3.447  32.453  10.945
55723W        W23952  42.561  17.221   4.135
55724W        W23953  28.528  10.130  13.953
55725W        W23954  17.486  11.704  10.334
55726W        W23955  22.276   1.827   1.909
55727W        W23956  25.734  26.581  14.008
55728W        W23957   7.171  16.243   4.509
55729W        W23958  15.081  38.006   4.128
55730W        W23959  23.888  42.393   0.006
55731W        W23960  26.750  30.651   1.182
55732W        W23961  22.229  38.028  13.633
55733W        W23962  14.574   8.628   4.184
55734W        W23963  23.963  16.308   2.614
55735W        W23964  30.997  15.956  11.440
55736W        W23965   5.378  33.424  13.346
55737W        W23966  11.048  31.253  11.121
55738W        W23967  14.736  13.007  11.156
55739W        W23968  43.300  23.486   1.794
55740W        W23969  19.376  30.049  10.670
55741W        W23970   0.793   7.300   2.037
55742W        W23971  43.827  36.139   4.566
55743W        W23972  38.357   1.507  14.074
55744W        W23973   4.544  28.648   1.418
55745W        W23974  29.467   6.113  11.007
55746W        W23975  42.092  29.160  10.938
55747W        W23976   7.368  32.014  11.350
55748W        W23977  20.802  39.322  12.841
55749W        W23978   0.821  23.924   5.017
55750W        W23979   0.211   9.759  14.421
55751W        W23980  36.317  29.602  12.944
55752W        W23981  17.726  30.582  10.318
55753W        W23982  35.801  14.089   1.769
55754W        W23983  29.012  35.797  11.614
55755W        W23984  17.577  32.982   3.858
55756W        W23985  32.295   7.769  13.369
55757W        W23986  34.043  17.265   3.680
55758W        W23987  18.048  25.173  14.946
55759W        W23988   9.231  41.918  13.785
55760W        W23989  30.659  29.396   2.188
55761W        W23990  26.121  18.256  11.486
55762W        W23991  44.575   6.725  10.613
55763W        W23992  25.153  36.381   4.498
55764W        W23993  27.030  38.382   4.671
55765W        W23994  43.808   7.611   0.374
55766W        W23995   9.464  32.920   2.319
55767W        W23996  44.172  42.789   4.215
55768W        W23997  12.292   8.592   4.180
55769W        W23998  24.923  14.328   1.933
55770W        W23999  18.636   7.371   5.349
55771W        W24000  18.844  26.178   2.250
55772W        W24001  11.747  28.344   2.857
55773W        W24002  12.683  19.192  12.911
55774W        W24003  16.005  39.312  13.868
55775W        W24004  21.218  30.131   0.529
55776W        W24005  29.127   8.828  10.408
55777W        W24006   1.492  43.314   4.764
55778W        W24007  41.298  10.329   3.738
55779W        W24008  41.318  20.316  10.964
55780W        W24009  13.606   8.652   0.414
55781W        W24010  40.066   9.636   3.399
55782W        W24011  15.793   9.671  11.605
55783W        W24012  40.428  16.742   4.835
55784W        W24013  19.130  22.174   3.827
55785W        W24014  16.092   2.754   3.018
55786W        W24015   9.841  38.886  11.997
55787W        W24016  18.498  16.702  10.647
55788W        W24017  27.257  17.184  13.977
55789W        W24018   6.932  32.377   1.465
55790W        W24019  28.891  22.065  14.976
55791W        W24020  33.372  25.715  10.718
55792W        W24021   1.226   8.390  11.669
55793W        W24022  22.097   6.198   3.221
55794W        W24023  17.164   8.460   2.789
55795W        W24024  42.843  26.505   1.963
55796W        W24025  20.541   9.856   4.081
55797W        W24026  21.675   5.843   1.505
55798W        W24027  33.372   7.310   3.553
55799W        W24028  34.121   5.007  11.631
55800W        W24029  34.833  42.974  13.884
55801W        W24030  18.049  30.434   0.380
55802W        W24031   8.119  15.410  13.950
55803W        W24032   9.851  22.168   1.774
55804W        W24033  41.955  24.261  12.925
55805W        W24034  23.152  23.809  14.356
55806W        W24035  14.395  28.130  12.966
55807W        W24036  17.089  24.131   0.794
55808W        W24037  25.043   0.657  14.435
55809W        W24038   1.495  35.420  13.030
55810W        W24039   6.350  36.893  12.857
55811W        W24040   6.806  38.623  14.409
55812W        W24041   8.803   3.451   1.716
55813W        W24042  15.081  28.076   4.750
55814W        W24043  32.099   7.358  11.222
55815W        W24044  30.514  27.688   0.747
55816W        W24045  31.333  20.787   2.875
55817W        W24046  36.092  15.615  12.972
55818W        W24047  44.982  11.103   4.094
55819W        W24048  10.374  10.419  12.443
55820W        W24049  29.441  15.114  10.756
55821W        W24050  44.983  13.220   3.679
55822W        W24051  42.791  19.495   1.861
55823W        W24052  28.454  23.503   2.865
55824W        W24053  44.420  22.666   1.674
55825W        W24054   7.298  37.058  14.176
55826W        W24055   4.013  20.854  13.453
55827W        W24056  20.580  20.554  13.608
55828W        W24057  44.930   1.022  14.946
55829W        W24058  12.385  24.531   0.497
55830W        W24059   0.851  32.537   0.947
55831W        W24060  12.822  41.256   0.715
55832W        W24061  39.416   8.941  11.600
55833W        W24062  28.121  12.678   1.448
55834W        W24063  33.694  20.641  14.563
55835W        W24064  19.327  43.903   0.523
55836W        W24065   1.747  20.244  12.528
55837W        W24066  13.371   3.485   2.174
55838W        W24067   3.107  39.322  12.523
55839W        W24068  32.771   3.293   4.176
55840W        W24069  23.315  43.451   0.016
55841W        W24070   4.590   1.807  10.500
55842W        W24071   3.314   0.860   4.188
55843W        W24072  24.966   6.935  14.966
55844W        W24073  42.746  36.355   5.179
55845W        W24074   9.988  26.042   0.864
55846W        W24075  37.044  37.463   0.224
55847W        W24076  13.986  13.853  10.482
55848W        W24077  34.635   6.853  11.194
55849W        W24078  37.581  11.254  14.553
55850W        W24079  19.545   4.435   1.226
55851W        W24080  35.506  18.443   4.647
55852W        W24081   4.931   4.980  14.711
55853W        W24082  44.365  44.462   5.192
55854W        W24083  24.436   7.355   1.746
55855W        W24084  43.385  36.934   3.940
55856W        W24085  40.430  23.592   1.934
55857W        W24086  25.532   2.223   0.796
55858W        W24087  12.315  24.647   1.359
55859W        W24088  39.913  14.626  10.780
55860W        W24089  38.946  38.125  14.364
55861W        W24090  31.572   3.957  10.887
55862W        W24091   9.458  12.659   3.424
55863W        W24092  34.888  12.059   1.241
55864W        W24093  29.011  34.043   1.543
55865W        W24094  28.486   2.800  11.133
55866W        W24095  37.515  34.118  11.125
55867W        W24096  34.787  11.490  14.780
55868W        W24097  17.740  27.680  10.774
55869W        W24098  39.630  26.118   4.000
55870W        W24099  43.922  25.547  11.796
55871W        W24100   8.930  12.040   4.526
55872W        W24101  25.330   8.295   4.204
55873W        W24102   5.186  33.350   9.733
55874W        W24103  43.832  38.125   0.665
55875W        W24104  15.778  30.483  14.959
55876W        W24105   5.332  40.464   4.949
55877W        W24106  41.007  24.313  10.543
55878W        W24107  22.390  17.458  11.776
55879W        W24108  42.552  18.692   2.111
55880W        W24109  16.989  26.004  11.210
55881W        W24110  11.886  40.351   4.481
55882W        W24111  17.591  41.905   1.813
55883W        W24112  39.300   4.424  12.000
55884W        W24113  13.122   5.426  14.767
55885W        W24114  38.626  31.925   1.862
55886W        W24115  12.178  15.783  13.899
55887W        W24116   9.353  24.081   0.502
55888W        W24117  20.981   2.309  13.468
55889W        W24118   0.102  34.153  14.060
55890W        W24119  26.476  27.880  11.025
55891W        W24120  22.299  43.310  14.863
55892W        W24121   6.035  34.845  12.607
55893W        W24122   1.716  39.397  10.719
55894W        W24123   5.414   5.743  14.366
55895W        W24124  17.338  20.233  14.823
55896W        W24125   2.677   9.473  11.642
55897W        W24126   5.506  28.116   4.527
55898W        W24127  14.212  10.571  14.330
55899W        W24128  21.942  43.974   2.257
55900W        W24129  31.187   9.385  12.018
55901W        W24130   2.034  20.013  13.878
55902W        W24131  13.604  21.972   1.491
55903W        W24132  30.033  43.306  12.572
55904W        W24133  19.252  26.140  13.618
55905W        W24134  14.143  25.138  12.408
55906W        W24135   1.847  44.532   3.173
55907W        W24136   0.560  18.765   2.270
55908W        W24137   5.599  18.815   0.421
55909W        W24138  40.583  14.183   2.297
55910W        W24139  26.429  27.548   2.857
55911W        W24140  36.402  41.082  10.946
55912W        W24141  34.520  35.146   4.094
55913W        W24142   5.821  18.701   1.426
55914W        W24143   3.746  39.863  10.703
55915W        W24144  21.952  40.605   3.068
55916W        W24145  31.946  30.550   4.572
55917W        W24146  22.529  31.166  11.948
55918W        W24147   8.834  10.557   1.844
55919W        W24148  23.818  19.255  13.541
55920W        W24149  27.529  38.495   3.877
55921W        W24150  27.940  12.396  14.102
55922W        W24151  22.609   6.716   0.998
55923W        W24152  41.026   5.682   0.372
55924W        W24153  18.516  10.395   1.412
55925W        W24154   2.008   5.172  12.071
55926W        W24155  32.992  22.220   0.355
55927W        W24156  15.812  27.709  10.169
55928W        W24157  11.228  22.015   2.883
55929W        W24158  10.242   0.384   4.698
55930W        W24159   0.757  36.855   4.738
55931W        W24160   7.103  40.766   1.130
55932W        W24161  14.239  19.111   3.106
55933W        W24162  15.130   4.191  10.601
55934W        W24163   9.261  35.598  12.464
55935W        W24164  28.499   2.433  11.508
55936W        W24165  34.509  30.190   1.812
55937W        W24166  21.210  37.490   4.566
55938W        W24167  27.921  18.639  11.601
55939W        W24168  41.789  19.378   4.087
55940W        W24169  25.990  33.671   2.618
55941W        W24170  41.558  20.666   2.312
55942W        W24171  40.525  20.939   4.532
55943W        W24172  10.253  13.667   4.822
55944W        W24173  43.957  12.897  14.918
55945W        W24174  38.408  27.958   0.743
55946W        W24175  16.386   7.301   3.114
55947W        W24176  29.555  35.623   0.357
55948W        W24177  44.499  36.098   3.294
55949W        W24178  19.549  34.959  12.391
55950W        W24179  22.950  28.536  13.530
55951W        W24180  33.232  30.972  11.117
55952W        W24181  22.065  24.201  14.936
55953W        W24182   9.220  37.662  13.567
55954W        W24183  35.614  14.690   1.291
55955W        W24184  42.985   8.177   3.276
55956W        W24185  35.889  14.579  12.922
55957W        W24186  26.795  34.500  13.433
55958W        W24187  43.882   0.225   1.156
55959W        W24188  16.211  33.997   2.364
55960W        W24189  17.610  37.616   4.352
55961W        W24190   2.444  44.055  12.574
55962W        W24191  39.776   4.171   1.996
55963W        W24192  41.244  10.632   1.388
55964W        W24193  21.504  25.442   0.843
55965W        W24194  22.321  33.334  14.924
55966W        W24195  18.240  38.506  11.669
55967W        W24196  13.752  36.109   3.765
55968W        W24197   1.141  10.460   0.901
55969W        W24198  40.470  18.815   3.184
55970W        W24199  14.664  27.497  13.524
55971W        W24200  14.579  24.218   1.768
55972W        W24201  21.537  43.183  13.962
55973W        W24202  44.947   3.390  12.026
55974W        W24203  39.270   9.451   3.679
55975W        W24204  13.732  25.697   3.539
55976W        W24205  19.155  39.321   0.870
55977W        W24206   3.343  10.291  14.797
55978W        W24207   9.825   9.247  12.913
55979W        W24208  30.583  18.233   3.214
55980W        W24209   0.405  28.208  14.099
55981W        W24210  44.964  13.275  13.596
55982W        W24211   2.728  10.940  14.374
55983W        W24212   6.053  43.245   0.880
55984W        W24213  26.397  32.846   2.444
55985W        W24214  26.392  24.768  11.189
55986W        W24215  40.890  14.141  14.493
55987W        W24216  22.866  15.891   2.869
55988W        W24217  21.700   3.639  11.516
55989W        W24218  15.769  40.708   0.755
55990W        W24219  19.152  33.725  13.910
55991W        W24220  19.885  38.058   2.371
55992W        W24221  34.585  16.177  10.246
55993W        W24222  26.689   9.673  10.216
55994W        W24223  15.821  37.909  11.152
55995W        W24224  33.088  24.874  10.507
55996W        W24225  39.550  42.731  14.445
55997W        W24226   3.723  23.980  11.115
55998W        W24227  20.840  32.996   4.785
55999W        W24228  21.714  30.107   1.802
56000W        W24229  30.114  31.026  13.334
56001W        W24230  37.150  25.604  11.222
56002W        W24231  44.670  44.954  10.977
56003W        W24232  10.644  11.334   2.686
56004W        W24233  36.529  43.459  10.617
56005W        W24234  40.778  25.102   3.823
56006W        W24235  26.384  29.886   4.045
56007W        W24236  19.482  27.449   0.936
56008W        W24237   7.560  27.688   2.693
56009W        W24238   0.531  42.121   2.240
56010W        W24239   8.998  19.635   5.050
56011W        W24240  10.763  20.310  14.475
56012W        W24241  13.784  39.503   2.868
56013W        W24242  40.478  31.596  12.334
56014W        W24243  20.436  35.721  10.230
56015W        W24244  38.309  21.595  14.506
56016W        W24245   4.432  44.671   2.924
56017W        W24246  44.759  34.385   1.895
56018W        W24247  14.261  13.403  14.761
56019W        W24248  22.760  42.954  11.926
56020W        W24249  23.197  11.264   4.588
56021W        W24250  38.555  22.242   2.308
56022W        W24251   0.229   3.708   0.351
56023W        W24252   0.903  30.928   4.214
56024W        W24253  32.930   7.497   0.889
56025W        W24254  42.972  25.754   5.003
56026W        W24255  36.658  24.965  12.171
56027W        W24256  31.947  12.193  12.012
56028W        W24257  28.002   0.747  11.297
56029W        W24258  13.088   1.225   3.418
56030W        W24259  42.488  10.153  11.091
56031W        W24260  27.229  16.019   1.265
56032W        W24261  37.351  31.471  12.006
56033W        W24262  43.786  16.262   1.276
56034W        W24263   2.781  29.588   0.363
56035W        W24264   0.110  44.763  10.748
56036W        W24265  43.418  36.889   2.838
56037W        W24266  21.064  10.348   1.170
56038W        W24267  30.540   8.943  11.599
56039W        W24268  15.325  39.779  10.972
56040W        W24269  37.757   5.505   0.405
56041W        W24270  41.392  16.820  12.490
56042W        W24271  35.963  43.968   2.273
56043W        W24272  44.066  15.048  12.861
56044W        W24273  27.446  33.514   4.135
56045W        W24274  32.710  40.938  12.399
56046W        W24275  38.090  29.332  13.320
56047W        W24276  14.107  35.716  13.904
56048W        W24277   2.146  28.599  12.402
56049W        W24278   0.188  26.511  11.458
56050W        W24279  38.995   2.250  11.805
56051W        W24280  26.069   3.840  11.946
56052W        W24281  16.652  31.471   2.347
56053W        W24282  15.075  22.177  14.382
56054W        W24283   5.366  43.594   2.289
56055W        W24284   6.662   2.894  11.070
56056W        W24285  16.241   0.034  11.983
56057W        W24286  23.640  35.644  10.408
56058W        W24287  15.202  25.200  12.519
56059W        W24288  14.531  27.665   2.790
56060W        W24289  26.711  29.491  12.495
56061W        W24290  39.950  35.664  11.555
56062W        W24291  40.410  35.633   2.649
56063W        W24292  15.771  20.459  13.396
56064W        W24293   3.459  15.243  14.251
56065W        W24294  24.247  24.102   2.133
56066W        W24295  32.364   9.446  10.761
56067W        W24296   7.857  41.650   3.210
56068W        W24297  42.314  32.884  14.725
56069W        W24298  44.543   5.913   4.126
56070W        W24299  33.802  11.931   2.304
56071W        W24300  36.801  31.417   1.003
56072W        W24301  28.677  29.029  11.431
56073W        W24302   9.404   2.423   2.354
56074W        W24303  11.659   0.861   0.295
56075W        W24304  16.645  17.943  12.109
56076W        W24305  38.098  26.065  10.648
56077W        W24306  18.046   1.464  13.654
56078W        W24307   3.924  21.057   3.854
56079W        W24308  12.287  19.258  10.669
56080W        W24309  38.960  22.067   2.035
56081W        W24310   4.310  37.930  11.216
56082W        W24311  34.956   7.206   5.228
56083W        W24312   4.819  22.700   2.627
56084W        W24313  12.152  27.599  13.503
56085W        W24314  32.219   5.521  12.009
56086W        W24315  20.750   0.430   0.359
56087W        W24316  43.001  11.131   0.160
56088W        W24317  39.278  24.683   3.211
56089W        W24318  34.259  31.402   0.641
56090W        W24319  24.572  29.716   0.196
56091W        W24320   1.214  14.204  12.095
56092W        W24321  22.965  44.821   0.725
56093W        W24322  26.764   6.366   0.413
56094W        W24323  26.429  40.458  13.177
56095W        W24324  25.786  43.198  14.878
56096W        W24325  43.821  42.478  11.690
56097W        W24326  34.064   3.162   3.199
56098W        W24327  41.192  25.439  11.770
56099W        W24328   2.014  19.602   0.853
56100W        W24329  32.302  23.698  12.909
56101W        W24330  17.315  24.706  13.447
56102W        W24331  40.771  33.945  13.607
56103W        W24332   1.127  32.144  11.169
56104W        W24333  31.821   1.770  12.248
56105W        W24334  13.798   6.956   3.830
56106W        W24335  13.320  13.550   1.595
56107W        W24336  12.182   5.374   0.052
56108W        W24337  14.391  34.198  12.086
56109W        W24338  42.112   5.654   3.267
56110W        W24339   9.373  12.939   3.842
56111W        W24340  33.858  43.449   2.845
56112W        W24341   0.984   8.011   3.687
56113W        W24342  26.369  14.026  10.288
56114W        W24343   9.325  33.580   0.285
56115W        W24344  16.557  39.758  14.354
56116W        W24345   5.247  19.258   0.054
56117W        W24346   1.264   1.385  10.467
56118W        W24347  25.213  12.943  12.037
56119W        W24348  26.653  42.446  11.248
56120W        W24349   6.343  41.628   4.916
56121W        W24350  23.299  30.893  10.728
56122W        W24351  26.545  39.962  13.059
56123W        W24352  12.306  29.119  12.878
56124W        W24353  32.652  10.669  14.347
56125W        W24354  23.963   4.896  14.271
56126W        W24355  28.436  27.737  10.775
56127W        W24356  14.720   4.138   1.230
56128W        W24357  17.050   6.262  10.485
56129W        W24358   4.918  33.103   4.011
56130W        W24359  13.106  30.623   0.979
56131W        W24360  17.325  42.261  13.864
56132W        W24361  38.264  23.097   4.144
56133W        W24362  23.051  27.943   3.304
56134W        W24363   6.186  32.492   2.403
56135W        W24364  14.963  20.186   0.355
56136W        W24365   7.060  27.854   2.548
56137W        W24366  11.797  23.496   9.794
56138W        W24367  34.438  37.551  13.327
56139W        W24368  43.883  19.841   1.106
56140W        W24369   1.863   0.636  14.805
56141W        W24370  36.297  11.237  14.927
56142W        W24371  32.599  19.490  12.484
56143W        W24372  25.652   4.294   2.246
56144W        W24373   2.426  21.600   2.121
56145W        W24374  25.374  14.617   0.790
56146W        W24375   5.481   0.402  14.510
56147W        W24376  33.014  43.350  14.817
56148W        W24377  21.738  38.814  11.699
56149W        W24378  20.473   3.726   1.189
56150W        W24379  42.123   1.489   4.083
56151W        W24380  42.464   4.715   0.017
56152W        W24381   3.678  43.802   2.784
56153W        W24382  25.743  16.262   0.796
56154W        W24383  35.904  20.281  13.407
56155W        W24384  44.885   7.962  13.547
56156W        W24385  34.190  10.872  11.357
56157W        W24386  30.600  18.843  10.661
56158W        W24387  16.777   6.841   4.757
56159W        W24388  26.513   2.739   1.931
56160W        W24389   7.668  31.856  13.357
56161W        W24390  32.475  28.239   1.851
56162W        W24391   5.276  14.034  12.175
56163W        W24392  32.076  24.471  14.962
56164W        W24393   0.293  13.723   4.581
56165W        W24394  28.017  19.076   4.606
56166W        W24395   7.343   0.524  12.006
56167W        W24396  32.876  30.141  13.921
56168W        W24397  19.816  11.653  13.522
56169W        W24398  28.096  12.988   1.020
56170W        W24399  28.206  34.175   4.945
56171W        W24400  16.837  18.761  11.068
56172W        W24401  17.085  26.496  11.951
56173W        W24402  17.126  15.168   0.017
56174W        W24403  15.913  21.819  10.051
56175W        W24404  14.803  10.679  14.008
56176W        W24405  35.979   0.730   3.826
56177W        W24406  12.219   4.419   2.741
56178W        W24407  43.335  27.891  13.207
56179W        W24408  14.576   4.926  13.589
56180W        W24409  34.023   6.194  13.368
56181W        W24410  43.964  10.569  11.841
56182W        W24411  10.930  10.880   3.620
56183W        W24412  41.465   8.955  12.891
56184W        W24413  20.352  37.945  10.881
56185W        W24414   8.862   8.859  13.745
56186W        W24415  23.061  33.160   1.182
56187W        W24416  10.763  16.299  12.521
56188W        W24417   7.071  43.849   2.730
56189W        W24418  44.390  17.064  12.846
56190W        W24419  38.139   6.333  12.846
56191W        W24420   0.218  37.148  10.221
56192W        W24421  14.602   0.871   1.437
56193W        W24422  32.147  12.660  12.093
56194W        W24423  14.046   7.250  10.627
56195W        W24424   1.885  23.488   2.046
56196W        W24425   4.665  21.490   3.802
56197W        W24426   8.700  35.607  11.889
56198W        W24427  14.456  10.703   4.958
56199W        W24428  28.031   3.725  14.506
56200W        W24429  12.987   6.725  11.110
56201W        W24430  35.614  19.195  13.467
56202W        W24431   3.870  13.474  11.377
56203W        W24432  30.398  16.184   4.227
56204W        W24433  24.963  11.473  11.786
56205W        W24434  35.574   4.736   0.503
56206W        W24435  14.583   2.186   0.394
56207W        W24436   6.543  25.721  11.048
56208W        W24437   9.790  10.100   0.195
56209W        W24438  39.990  36.425   2.927
56210W        W24439   8.846   6.952  13.406
56211W        W24440   5.239  25.929   4.782
56212W        W24441  24.912  29.540   2.143
56213W        W24442  31.623  38.883   0.440
56214W        W24443  37.047  31.855   0.211
56215W        W24444   2.032  13.979   4.107
56216W        W24445  31.808   6.325  13.864
56217W        W24446  22.543   2.396  11.895
56218W        W24447   1.106  33.073   5.689
56219W        W24448   9.429  10.661   2.380
56220W        W24449  42.201  36.068   3.767
56221W        W24450  30.108  17.773  11.911
56222W        W24451  32.855  15.293   1.454
56223W        W24452  15.615  29.128  14.843
56224W        W24453  28.577  16.322  10.979
56225W        W24454  44.493  13.245  13.843
56226W        W24455   7.320  37.622   2.958
56227W        W24456  21.741  31.934  12.055
56228W        W24457   8.428  22.881  12.928
56229W        W24458  31.152  23.962   2.359
56230W        W24459  44.060   2.536  14.740
56231W        W24460  32.606   0.188  12.056
56232W        W24461  36.553  30.464  11.571
56233W        W24462  37.281   9.283  10.817
56234W        W24463  31.088   8.858   0.308
56235W        W24464  19.857   8.627  12.593
56236W        W24465   5.449  16.082  11.876
56237W        W24466  43.358  33.218  14.904
56238W        W24467  17.261  41.483   1.863
56239W        W24468  14.109  40.835   0.490
56240W        W24469  38.097   2.845  12.436
56241W        W24470  22.685  25.195  13.827
56242W        W24471  18.721   7.100  12.530
56243W        W24472  25.270   1.639   3.067
56244W        W24473  16.076  33.369  13.751
56245W        W24474  16.960  21.337   0.929
56246W        W24475  10.799  39.957  11.124
56247W        W24476  44.396   2.711  11.204
56248W        W24477  21.118   6.447   1.899
56249W        W24478  18.435  24.609   2.444
56250W        W24479   0.472   9.698   0.759
56251W        W24480  12.767   0.453   3.191
56252W        W24481  22.463   3.360  14.007
56253W        W24482   3.869  35.019   4.266
56254W        W24483  40.431  27.759  10.764
56255W        W24484  31.167   6.832  13.516
56256W        W24485   6.828  17.860  10.635
56257W        W24486  28.790  21.265   5.083
56258W        W24487   7.531   9.073   2.406
56259W        W24488   8.519  35.030  10.591
56260W        W24489  19.804  37.016   2.305
56261W        W24490  27.712  16.253   1.430
56262W        W24491   2.384  23.475   1.231
56263W        W24492  17.352   5.698   3.631
56264W        W24493  21.177  12.268  14.586
56265W        W24494  24.702  19.795   2.188
56266W        W24495  27.026  22.469  14.775
56267W        W24496  27.480  16.079  10.871
56268W        W24497   5.023  42.096   2.397
56269W        W24498  19.349  39.784   3.750
56270W        W24499  30.014  43.515  11.171
56271W        W24500  21.089  39.443  11.971
56272W        W24501  28.561  35.552   0.965
56273W        W24502  19.685   3.793  13.494
56274W        W24503  27.690  20.401   4.270
56275W        W24504   9.737  16.358   1.468
56276W        W24505   0.878  35.094   9.842
56277W        W24506  20.310  20.276  13.263
56278W        W24507  30.645  29.672   4.642
56279W        W24508  32.382  13.219   0.394
56280W        W24509   7.401   6.732  11.009
56281W        W24510  24.064  43.866  13.453
56282W        W24511  25.716  14.408  11.324
56283W        W24512  29.094   0.453   4.575
56284W        W24513  29.863  20.076   2.174
56285W        W24514  28.092  21.186   4.558
56286W        W24515  21.091  44.665  10.418
56287W        W24516  36.219  12.144  11.355
56288W        W24517  24.991  16.191   2.708
56289W        W24518  34.669   4.943  10.378
56290W        W24519  36.631   6.714  14.422
56291W        W24520  18.359   6.812  14.847
56292W        W24521  40.349  26.475   2.179
56293W        W24522   6.178   7.137   1.375
56294W        W24523  12.504   5.727   0.629
56295W        W24524   3.385  10.295  12.346
56296W        W24525  10.810  12.515   1.251
56297W        W24526   6.944  37.466  14.711
56298W        W24527  39.862  14.140  11.009
56299W        W24528  13.122  12.751  12.791
56300W        W24529  30.898   7.969  11.186
56301W        W24530  15.758  20.618  13.958
56302W        W24531  30.290   8.675  14.723
56303W        W24532  31.915   2.789  10.426
56304W        W24533  39.807  32.546  10.516
56305W        W24534  44.805  35.354  10.486
56306W        W24535  26.270  41.940   4.088
56307W        W24536   2.388  27.597  14.333
56308W        W24537  21.591  21.714   1.415
56309W        W24538  22.402   7.659  14.514
56310W        W24539  32.111   8.816   0.224
56311W        W24540  29.051  28.327   4.646
56312W        W24541  20.085  29.453   0.739
56313W        W24542  35.609  29.008  13.005
56314W        W24543   9.403  41.807   3.498
56315W        W24544  31.404  20.554  12.976
56316W        W24545  23.629  17.577   2.204
56317W        W24546  14.666  11.487   2.743
56318W        W24547   0.838  44.783   0.923
56319W        W24548  12.249  34.995  14.161
56320W        W24549  15.980  23.281   4.555
56321W        W24550  27.585  11.934   4.505
56322W        W24551  41.270   3.179   2.810
56323W        W24552  19.309  30.475  11.549
56324W        W24553  32.475   3.155   3.737
56325W        W24554  42.603  16.039   1.759
56326W        W24555  13.670  36.505   3.426
56327W        W24556  43.053  24.553   2.317
56328W        W24557  29.447  39.051   3.737
56329W        W24558  29.928  12.732  11.104
56330W        W24559   6.895  13.940  11.157
56331W        W24560  26.642  13.807   3.331
56332W        W24561  24.191  12.776   4.059
56333W        W24562  33.846  39.875   4.103
56334W        W24563  29.446  27.676  11.662
56335W        W24564  22.201   9.723   3.734
56336W        W24565   0.455  28.924   2.702
56337W        W24566  10.428  23.041   4.012
56338W        W24567  26.938  40.024   2.735
56339W        W24568  27.111  31.562   4.370
56340W        W24569  15.770  43.418  14.385
56341W        W24570  33.044  34.113  13.317
56342W        W24571   1.352  22.016  13.352
56343W        W24572   2.788  25.175  11.255
56344W        W24573  42.393  40.449   0.668
56345W        W24574   0.339  22.275   0.287
56346W        W24575  24.087   5.917  14.424
56347W        W24576  24.748  15.560   3.743
56348W        W24577  17.789  44.181   3.684
56349W        W24578  15.655  26.179   4.781
56350W        W24579  24.931  41.471  13.556
56351W        W24580  35.886  44.756  11.648
56352W        W24581  14.500  17.899  10.004
56353W        W24582  26.414  12.800  13.368
56354W        W24583  18.838  39.920   3.612
56355W        W24584  23.485  44.006   2.234
56356W        W24585   0.998  14.727  11.984
56357W        W24586  15.862   9.913  10.753
56358W        W24587  23.494   4.925   2.909
56359W        W24588  22.787  43.393   4.183
56360W        W24589  43.888  31.738   4.669
56361W        W24590  44.025  13.736  12.009
56362W        W24591  17.008   6.889   2.273
56363W        W24592  34.875  39.913   4.261
56364W        W24593  12.807   0.254   1.332
56365W        W24594  24.513  29.766  11.590
56366W        W24595  16.648   2.936   4.789
56367W        W24596   1.600  27.842  11.142
56368W        W24597   0.227   9.337   2.781
56369W        W24598  14.302   6.519   3.422
56370W        W24599  39.456  11.916   3.869
56371W        W24600  20.158  11.393   0.777
56372W        W24601  23.631  43.606   4.370
56373W        W24602   5.153  27.402  11.233
56374W        W24603  25.993  11.097   4.965
56375W        W24604   9.726  12.557   1.903
56376W        W24605  10.616  21.074  12.111
56377W        W24606  37.645  18.861   0.292
56378W        W24607  26.215  14.547   1.280
56379W        W24608   1.975  14.269  12.480
56380W        W24609  10.137   9.196  13.349
56381W        W24610  38.196  27.789  14.399
56382W        W24611   2.946  23.406   2.634
56383W        W24612  40.857  16.216   0.812
56384W        W24613  17.239   8.272  10.250
56385W        W24614  16.544  24.214  14.992
56386W        W24615  28.894   0.211   2.198
56387W        W24616  13.182  38.513  11.593
56388W        W24617  32.881   7.596  12.529
56389W        W24618  44.658   3.908   2.138
56390W        W24619   1.947  21.240   0.715
56391W        W24620  17.585  23.521  13.908
56392W        W24621  12.090  14.840  14.476
56393W        W24622   5.478   0.300   0.457
56394W        W24623  38.061  40.583  13.977
56395W        W24624  35.337  29.671   1.432
56396W        W24625  24.651  31.385   4.505
56397W        W24626  29.080  13.355   2.281
56398W        W24627  30.126  44.082  13.225
56399W        W24628  43.385  20.797   2.918
56400W        W24629  15.227   7.277   1.006
56401W        W24630  35.379  31.474   1.240
56402W        W24631  25.215  21.261   1.191
56403W        W24632  40.539  30.053   4.667
56404W        W24633  44.491   6.362  11.997
56405W        W24634  26.185   9.290  13.432
56406W        W24635  36.088  15.522   0.802
56407W        W24636   1.285  25.107   1.285
56408W        W24637   4.611  39.564  12.466
56409W        W24638  10.948  17.228  11.343
56410W        W24639  10.635   6.364   4.449
56411W        W24640  15.074  27.771  13.359
56412W        W24641   8.289   8.849   1.005
56413W        W24642  17.071  44.239  12.441
56414W        W24643  22.723  37.117   3.087
56415W        W24644  27.573   0.141  11.603
56416W        W24645  29.150  22.431   2.321
56417W        W24646  30.924  35.324  11.673
56418W        W24647  12.064  30.859  13.989
56419W        W24648  16.204  28.306  12.160
56420W        W24649   7.208  30.469   0.010
56421W        W24650  33.377   6.709   0.844
56422W        W24651  21.505  25.013   3.824
56423W        W24652   7.961  31.082   0.970
56424W        W24653  29.160  25.224  12.047
56425W        W24654   4.905   2.953   1.368
56426W        W24655  11.983  33.653   2.892
56427W        W24656  16.636  21.265  14.916
56428W        W24657   8.370  39.983  11.099
56429W        W24658   6.962  24.207   2.363
56430W        W24659  31.153  36.643   2.957
56431W        W24660   3.134   7.491   4.938
56432W        W24661   8.628  44.202   5.023
56433W        W24662   9.457  41.765  14.233
56434W        W24663   5.741  11.269  12.894
56435W        W24664  35.789   6.497  12.938
56436W        W24665  27.896  22.181   0.840
56437W        W24666  13.281  42.365   3.749
56438W        W24667   9.784   0.017  10.606
56439W        W24668   8.873  29.829  10.506
56440W        W24669   9.313  40.909   3.254
56441W        W24670  26.999   4.058  10.794
56442W        W24671  30.176  35.394   0.812
56443W        W24672   1.956  31.944   2.713
56444W        W24673  19.325  11.693  10.700
56445W        W24674  36.857  29.412   3.307
56446W        W24675   0.502  44.749   1.294
56447W        W24676  23.528   4.124  11.629
56448W        W24677  16.062  26.636  12.839
56449W        W24678  42.323   0.392  11.508
56450W        W24679  12.149  26.536  10.607
56451W        W24680  29.021  35.024  11.497
56452W        W24681  40.032  18.128   0.899
56453W        W24682  42.611  27.498  10.580
56454W        W24683  15.885  34.691  10.013
56455W        W24684  42.877  26.141  10.740
56456W        W24685  36.039  27.157  13.141
56457W        W24686  20.958   4.919   5.261
56458W        W24687  31.127  11.240   1.901
56459W        W24688  36.029   0.888  10.816
56460W        W24689   0.386   4.451   2.674
56461W        W24690  28.095  22.480  11.423
56462W        W24691  37.826  24.219  14.789
56463W        W24692  44.995  35.882  14.841
56464W        W24693  42.351  20.642   4.390
56465W        W24694  10.616  11.241   4.481
56466W        W24695  38.831  42.085  11.199
56467W        W24696  29.858  10.290   4.078
56468W        W24697  34.250   6.643   0.827
56469W        W24698   8.853  41.538  12.142
56470W        W24699  36.393  35.551  13.791
56471W        W24700  10.265  24.390   0.822
56472W        W24701  18.061  21.759   0.360
56473W        W24702  22.463  38.543  12.429
56474W        W24703  40.828   0.697  12.421
56475W        W24704  13.710   2.387   3.690
56476W        W24705  32.797  36.248   0.657
56477W        W24706   8.090  36.475   2.061
56478W        W24707   2.157  17.278   0.494
56479W        W24708   8.764   9.391   1.098
56480W        W24709  14.137  18.282  14.727
56481W        W24710  37.443  13.573   3.731
56482W        W24711  18.773  33.757   4.517
56483W        W24712  19.276   4.896   1.293
56484W        W24713  30.488  39.493  11.547
56485W        W24714  26.648  35.577  11.856
56486W        W24715  40.709  42.390   0.232
56487W        W24716  44.008   5.303  13.475
56488W        W24717  36.609  41.000   3.461
56489W        W24718  21.092  27.989  10.742
56490W        W24719   9.772  26.986  14.886
56491W        W24720  23.072   6.885   1.808
56492W        W24721   9.779  36.030  12.897
56493W        W24722  33.633  27.580   2.361
56494W        W24723  10.826  13.275  14.925
56495W        W24724  27.838  29.594   1.202
56496W        W24725   7.961  18.184   2.510
56497W        W24726   4.459   0.317   4.845
56498W        W24727  28.684  40.768  12.056
56499W        W24728  34.098  31.307   4.734
56500W        W24729  29.501  11.981   1.441
56501W        W24730   7.910   1.013   2.791
56502W        W24731  34.112   5.443   1.707
56503W        W24732  13.045   6.030  14.324
56504W        W24733  29.025  24.071  13.910
56505W        W24734  44.907  28.911   1.143
56506W        W24735   7.694  41.262  14.042
56507W        W24736  34.785   0.895  14.366
56508W        W24737  33.827  44.804   4.589
56509W        W24738  43.402  41.447  10.302
56510W        W24739  31.455   5.498   3.344
56511W        W24740  44.652  21.248   4.294
56512W        W24741   1.443  29.372   3.413
56513W        W24742   4.601   7.956   0.804
56514W        W24743  11.883  32.325   0.937
56515W        W24744  43.828  15.303   1.241
56516W        W24745  27.477  14.088  13.423
56517W        W24746   2.742  14.580   1.284
56518W        W24747  13.911   3.010   2.188
56519W        W24748  34.111   3.712   4.064
56520W        W24749  15.777  12.124   2.333
56521W        W24750  42.872  32.670   1.173
56522W        W24751  22.923  34.989  10.433
56523W        W24752  21.276   4.640  12.368
56524W        W24753  13.369  25.228  10.620
56525W        W24754  11.950   4.483   0.524
56526W        W24755  18.874  32.511  11.522
56527W        W24756   3.403  14.648   3.758
56528W        W24757  12.542   1.252  11.973
56529W        W24758  38.776  17.032  10.747
56530W        W24759  34.932  28.665  13.466
56531W        W24760  35.890  30.056   0.984
56532W        W24761  23.106  13.771   3.386
56533W        W24762  29.471  18.527  13.797
56534W        W24763  11.159   0.767   4.524
56535W        W24764   8.332  36.951   3.383
56536W        W24765   2.556   2.421   4.179
56537W        W24766  14.006  16.337   5.067
56538W        W24767  32.410   4.398  13.459
56539W        W24768  20.653   2.463  11.198
56540W        W24769  25.646   0.734   2.961
56541W        W24770  31.947  15.781  13.906
56542W        W24771   0.814   1.881  13.851
56543W        W24772   1.410   7.696   0.917
56544W        W24773   3.985   0.089   4.072
56545W        W24774  22.272  44.538  14.533
56546W        W24775   5.220   9.698  14.434
56547W        W24776   3.445   6.066   0.058
56548W        W24777  19.616   1.638   3.961
56549W        W24778  33.418  40.405  12.355
56550W        W24779  39.182  26.526  11.564
56551W        W24780  14.381  38.564   4.329
56552W        W24781  10.452  23.201  14.307
56553W        W24782  23.241  22.531  13.755
56554W        W24783  11.949  32.056   5.063
56555W        W24784  19.237   3.762   3.590
56556W        W24785   1.243  37.129  10.127
56557W        W24786  38.508  10.348  10.216
56558W        W24787  32.874  23.721   0.405
56559W        W24788  21.578   6.796  14.454
56560W        W24789  27.068  38.480   3.186
56561W        W24790   8.268  29.171   1.342
56562W        W24791  36.216  14.617   2.578
56563W        W24792  19.011  44.213  14.897
56564W        W24793  36.589  37.069  12.763
56565W        W24794  28.410   6.160   3.351
56566W        W24795  29.657  35.490   4.069
56567W        W24796  10.900  43.863   0.056
56568W        W24797   4.372  18.312  12.343
56569W        W24798  18.552   0.831  12.494
56570W        W24799   2.710  24.588  14.846
56571W        W24800  39.296   7.827   3.143
56572W        W24801  41.028  37.390   2.538
56573W        W24802  44.979  14.981   0.834
56574W        W24803  40.325  25.410  10.701
56575W        W24804  36.422  25.039  10.873
56576W        W24805   7.936  35.540  12.156
56577W        W24806  31.882  39.774   3.720
56578W        W24807  41.197  14.115  10.656
56579W        W24808  19.890   5.700   0.239
56580W        W24809  37.495  26.625  14.479
56581W        W24810  43.391  28.969  12.013
56582W        W24811  33.588  40.066  14.281
56583W        W24812  15.377   2.025  14.467
56584W        W24813  26.163  40.274  11.200
56585W        W24814  12.154   2.870   4.792
56586W        W24815   3.489   8.300   4.293
56587W        W24816   4.204   5.762   4.240
56588W        W24817  42.686  11.034   1.796
56589W        W24818  27.429  15.095   3.357
56590W        W24819  38.446  32.436   2.080
56591W        W24820   7.376  34.349   1.859
56592W        W24821  29.628  39.486  11.474
56593W        W24822  25.102  23.106  13.459
56594W        W24823  32.537  37.046  11.973
56595W        W24824  32.682  23.763   4.242
56596W        W24825   6.262  13.101   1.883
56597W        W24826  39.641  26.453   2.714
56598W        W24827  12.372  35.979  13.859
56599W        W24828  44.766  38.377   3.358
56600W        W24829  29.551  40.486  11.590
56601W        W24830   3.670  38.906   3.165
56602W        W24831  23.777  25.640   2.992
56603W        W24832  28.405  18.033  14.017
56604W        W24833  15.812  28.550  10.425
56605W        W24834  40.240  26.436  12.509
56606W        W24835  36.529  35.082  10.664
56607W        W24836  12.267  39.074   1.247
56608W        W24837  22.158  29.862   1.688
56609W        W24838  12.076  25.692  10.909
56610W        W24839   6.750  26.961  14.419
56611W        W24840  26.249  21.786  13.797
56612W        W24841  25.173   3.185  11.913
56613W        W24842  33.932   1.918  11.772
56614W        W24843  23.173   7.495   4.544
56615W        W24844  31.606  19.727  10.291
56616W        W24845   2.899  20.023   3.253
56617W        W24846  33.301  29.179   0.926
56618W        W24847  42.418  16.417   4.758
56619W        W24848  37.574  31.221   3.608
56620W        W24849  18.493  35.459  14.762
56621W        W24850  14.595  29.459   1.683
56622W        W24851  28.095   0.754   1.783
56623W        W24852  29.584  17.822  12.066
56624W        W24853  13.320  36.755  13.076
56625W        W24854  31.625   5.296   4.901
56626W        W24855  26.996  38.292   0.169
56627W        W24856   5.961  20.166   0.745
56628W        W24857   8.646  10.265   1.436
56629W        W24858  30.448  24.682   0.292
56630W        W24859  35.118   5.632   2.299
56631W        W24860  10.626  19.084  11.473
56632W        W24861  29.160  44.494   1.364
56633W        W24862  26.132   2.285   1.226
56634W        W24863   4.977  11.416  13.446
56635W        W24864   8.769   3.937  11.106
56636W        W24865  28.240  12.677   3.582
56637W        W24866  40.823  17.686  10.850
56638W        W24867  23.472  31.939   4.312
56639W        W24868  37.808   7.647   1.376
56640W        W24869   0.250  29.950  14.531
56641W        W24870  12.673  36.006  10.445
56642W        W24871  37.838  24.530  11.547
56643W        W24872  25.667   7.272  14.348
56644W        W24873  26.588  39.436  14.516
56645W        W24874  30.324  29.444   1.243
56646W        W24875  12.696  20.976   4.754
56647W        W24876  37.942  21.311   2.935
56648W        W24877  30.642  41.276  11.185
56649W        W24878   1.055  24.056  12.243
56650W        W24879  30.338  13.740  11.509
56651W        W24880   3.964   5.399  14.852
56652W        W24881  32.469   5.225  14.787
56653W        W24882   6.636  37.753  12.900
56654W        W24883  41.222  31.175   0.645
56655W        W24884  37.786  12.625  14.458
56656W        W24885   4.488  24.092  13.765
56657W        W24886  14.084  39.274  13.200
56658W        W24887  20.153  43.811  10.979
56659W        W24888  16.191  40.891  11.568
56660W        W24889  42.833   9.064  14.256
56661W        W24890  35.215  35.918  11.303
56662W        W24891  32.152  29.689  13.071
56663W        W24892   4.623  14.565  10.957
56664W        W24893   9.356  20.006  14.287
56665W        W24894   7.052  32.456  11.770
56666W        W24895   7.710  36.443  12.690
56667W        W24896   7.044  34.363  13.029
56668W        W24897  25.040  28.138  11.442
56669W        W24898  12.822  24.866  11.995
56670W        W24899  21.076  13.818   4.430
56671W        W24900  42.490  33.363  14.808
56672W        W24901   0.197  27.090  10.374
56673W        W24902  41.958  11.834  11.915
56674W        W24903  39.373  15.100   4.647
56675W        W24904  30.890  31.141  11.471
56676W        W24905  18.235  19.813   1.797
56677W        W24906   6.309   4.231   2.329
56678W        W24907  28.530  34.174   3.170
56679W        W24908  29.526  20.025   4.605
56680W        W24909  32.929  25.928  10.856
56681W        W24910  36.836  35.420   2.024
56682W        W24911  32.174  36.574   2.622
56683W        W24912  23.601   4.625  11.551
56684W        W24913  28.501   6.796  13.930
56685W        W24914  20.273  24.232  14.872
56686W        W24915  13.318  41.274   0.829
56687W        W24916  20.839   3.450   4.088
56688W        W24917  33.106  23.659  13.464
56689W        W24918  26.686  25.725   3.159
56690W        W24919  21.031  20.317  13.686
56691W        W24920  32.427  40.000   1.160
56692W        W24921  34.356  16.511  11.984
56693W        W24922   4.439  28.488  11.649
56694W        W24923  41.752   3.891   3.352
56695W        W24924   2.837  12.372   3.131
56696W        W24925  30.079  24.046   4.359
56697W        W24926   5.105  22.477  13.467
56698W        W24927  43.285   4.816   4.082
56699W        W24928  35.570  12.611   0.289
56700W        W24929  16.116  22.269  10.190
56701W        W24930  22.557  21.323   1.645
56702W        W24931  43.488   5.779  14.300
56703W        W24932  11.514  36.407   3.868
56704W        W24933  10.402  26.958  11.184
56705W        W24934   4.761  15.029  10.824
56706W        W24935  13.591  15.172  14.899
56707W        W24936   7.290  38.786  12.169
56708W        W24937  10.684  23.780  13.503
56709W        W24938  42.038  25.903   3.905
56710W        W24939  14.078  36.212   1.937
56711W        W24940  29.721  17.338   4.718
56712W        W24941  42.859   9.399  11.410
56713W        W24942  17.879   5.219  13.796
56714W        W24943  36.671  25.000   1.288
56715W        W24944  42.983  37.072  13.515
56716W        W24945  38.828  10.096  11.085
56717W        W24946  27.284  41.116  14.025
56718W        W24947  33.768  41.480  10.542
56719W        W24948  26.917   2.212  11.943
56720W        W24949  15.206  29.624  14.508
56721W        W24950   9.931  40.755   0.389
56722W        W24951  30.089  18.713  10.762
56723W        W24952  24.199  21.988  14.933
56724W        W24953  16.684  12.825  12.116
56725W        W24954  16.198  17.738  13.306
56726W        W24955   8.388  32.968   3.710
56727W        W24956  23.180  23.265  11.517
56728W        W24957  36.814  20.903  13.656
56729W        W24958  40.258   1.433  14.516
56730W        W24959  29.976  44.554   4.066
56731W        W24960   3.246  14.694   1.149
56732W        W24961  26.065  29.192   1.881
56733W        W24962  29.933  13.670  13.313
56734W        W24963  12.913  41.685  13.971
56735W        W24964   5.922  13.647  14.708
56736W        W24965  35.828  22.372   1.615
56737W        W24966  17.643  36.918  13.998
56738W        W24967  14.160  24.766   0.281
56739W        W24968  35.444  10.046  12.075
56740W        W24969   6.677  39.477   3.703
56741W        W24970  20.230  23.576  14.923
56742W        W24971   6.380  41.397   3.122
56743W        W24972  21.527  40.469  12.078
56744W        W24973  36.778  22.139   0.814
56745W        W24974  35.863  43.284   4.484
56746W        W24975  15.568  31.415   1.364
56747W        W24976  13.264  43.744   3.122
56748W        W24977  43.796  36.588  14.953
56749W        W24978   1.912  14.757   0.600
56750W        W24979  31.048  35.067  13.022
56751W        W24980  21.347  18.191  11.688
56752W        W24981  34.524  14.887  14.030
56753W        W24982  30.592   4.385   1.807
56754W        W24983  11.696  10.251  10.335
56755W        W24984   5.382   2.908  13.937
56756W        W24985  33.611  16.775  11.383
56757W        W24986  15.030  39.027   3.177
56758W        W24987   1.606  29.572  13.501
56759W        W24988   7.154   0.397  14.958
56760W        W24989  24.668  43.495  12.584
56761W        W24990  37.813   6.865  12.045
56762W        W24991  28.764  21.640  11.101
56763W        W24992   2.045  17.543  14.998
56764W        W24993   9.156  26.788   3.782
56765W        W24994  17.759   8.708  10.871
56766W        W24995  31.037  42.871   3.601
56767W        W24996  41.996  27.352   4.151
56768W        W24997  24.790  31.881   2.741
56769W        W24998  36.262   6.636  10.334
56770W        W24999   7.072   4.192  12.529
56771W        W25000   0.125  39.030   1.768
56772W        W25001  29.145  17.953  13.243
56773W        W25002  36.718  16.615   0.707
56774W        W25003  19.708  38.356   2.787
56775W        W25004  33.303  22.018  14.090
56776W        W25005  36.958  40.565   0.030
56777W        W25006   8.125  24.412  12.769
56778W        W25007   4.755   5.939   0.783
56779W        W25008  24.587  25.699  11.270
56780W        W25009  12.726   1.080  14.972
56781W        W25010  24.453  43.161   0.409
56782W        W25011  32.678  22.561  14.377
56783W        W25012  10.421  14.171  12.555
56784W        W25013  28.473   8.971  11.002
56785W        W25014   4.727  36.837   0.220
56786W        W25015  18.745  21.186   4.188
56787W        W25016  23.707  32.015  11.936
56788W        W25017  11.186  43.794   0.476
56789W        W25018  19.105  15.742   3.780
56790W        W25019  16.228  12.118   3.267
56791W        W25020   9.093  39.594  13.448
56792W        W25021   6.785   6.529  10.428
56793W        W25022  38.509  38.507   0.035
56794W        W25023   1.542  16.273  13.858
56795W        W25024   2.860   6.952   2.244
56796W        W25025  28.460  18.093   2.318
56797W        W25026   5.208  34.895   2.353
56798W        W25027  29.043  27.048  14.892
56799W        W25028  15.245  19.986  12.427
56800W        W25029  25.974  39.030   1.033
56801W        W25030   4.052  30.385  10.191
56802W        W25031  40.548  23.587  10.659
56803W        W25032  25.713  35.999  13.998
56804W        W25033  33.948  27.173   2.216
56805W        W25034  38.906  22.313  12.475
56806W        W25035  16.919  22.272   2.653
56807W        W25036  32.836  28.024  10.457
56808W        W25037  25.745  21.699  12.657
56809W        W25038  14.671  21.227   2.722
56810W        W25039  40.532   2.492  11.647
56811W        W25040  38.349  20.196  11.079
56812W        W25041  16.958  31.872  12.541
56813W        W25042  20.873  17.071   2.473
56814W        W25043  25.947   6.088  14.087
56815W        W25044  34.771  38.349   4.151
56816W        W25045  23.263  25.131   4.096
56817W        W25046  21.922  10.854   4.607
56818W        W25047  25.480  32.309  11.881
56819W        W25048  19.713  26.032   0.933
56820W        W25049  18.262  12.482  10.974
56821W        W25050  34.325   4.789  11.164
56822W        W25051  37.493  37.046  11.813
56823W        W25052  16.390   0.837   4.057
56824W        W25053  39.054  28.399  13.488
56825W        W25054  30.092   9.820   4.981
56826W        W25055   9.564  18.783   4.092
56827W        W25056  44.826  27.997   0.679
56828W        W25057   3.258  37.044  11.841
56829W        W25058  20.820  36.069  14.636
56830W        W25059  13.056  27.721  12.477
56831W        W25060   1.419   5.836  14.979
56832W        W25061  26.131   3.372  12.141
56833W        W25062   6.373  34.996  12.991
56834W        W25063  29.440  43.784  12.045
56835W        W25064  27.120  21.535  12.152
56836W        W25065  26.854  42.594  13.981
56837W        W25066  18.615  28.464  14.826
56838W        W25067  32.927   6.393   3.315
56839W        W25068   7.825  22.064  10.612
56840W        W25069  38.431   3.800  13.361
56841W        W25070  25.588  26.970  14.340
56842W        W25071  22.531  33.014   0.439
56843W        W25072  16.485  32.012  12.412
56844W        W25073  18.966   3.255   4.479
56845W        W25074   8.755  43.345  11.269
56846W        W25075   5.327  41.325   0.856
56847W        W25076  44.832  19.732  12.627
56848W        W25077  20.991  30.459   1.126
56849W        W25078  42.612   9.640  11.010
56850W        W25079  10.297  20.611  13.710
56851W        W25080   5.810  18.318  11.474
56852W        W25081  15.719  42.759  13.376
56853W        W25082  30.048   9.682   0.407
56854W        W25083  11.848   1.415   0.232
56855W        W25084  33.793   1.665   1.297
56856W        W25085  33.554  18.414   4.955
56857W        W25086  38.295  25.324   0.975
56858W        W25087  41.719  13.117  12.672
56859W        W25088  11.618  15.904   0.858
56860W        W25089  34.443  15.569  13.441
56861W        W25090  31.855  40.837  13.078
56862W        W25091  37.561  11.548  11.538
56863W        W25092  19.958  38.029  14.230
56864W        W25093  16.826   5.379  10.578
56865W        W25094   7.362  30.251   3.144
56866W        W25095   2.133  14.151  13.384
56867W        W25096   4.703  29.150   1.465
56868W        W25097  38.952  11.132   2.729
56869W        W25098  28.483  43.133   2.304
56870W        W25099  15.882  13.227   4.012
56871W        W25100  29.391   7.967   4.065
56872W        W25101  14.852   7.809  11.982
56873W        W25102  36.061  12.537   2.722
56874W        W25103  19.536  16.640  14.787
56875W        W25104  34.860  30.907  14.951
56876W        W25105   3.501  39.898  13.899
56877W        W25106  15.860   6.893  12.391
56878W        W25107  25.937  38.167  14.380
56879W        W25108  19.356  16.348   3.652
56880W        W25109  32.066  35.490  13.563
56881W        W25110  16.073  11.170  11.199
56882W        W25111  34.943  25.258   1.217
56883W        W25112  33.065  40.803   2.799
56884W        W25113   5.916  10.305  12.631
56885W        W25114  17.261  13.843   0.992
56886W        W25115   3.804  33.596   4.542
56887W        W25116  13.644   2.298  14.543
56888W        W25117  23.055  34.543   1.421
56889W        W25118  18.535  44.618  10.826
56890W        W25119  28.180   7.824   0.921
56891W        W25120   7.468   5.061   3.132
56892W        W25121  15.759  36.344  14.471
56893W        W25122  31.949  20.333  11.838
56894W        W25123  23.244  44.261   1.856
56895W        W25124  34.948  16.346   4.854
56896W        W25125  34.627  13.805  11.727
56897W        W25126  41.538   4.656   4.235
56898W        W25127  16.242  20.534   3.543
56899W        W25128  33.259  26.444   9.949
56900W        W25129  40.907  12.882  12.074
56901W        W25130   4.261  13.503   3.861
56902W        W25131  43.068  18.164   4.072
56903W        W25132  17.036  10.443   1.634
56904W        W25133  18.596   5.884  10.642
56905W        W25134  31.668  32.665  14.443
56906W        W25135  26.267  13.027  12.082
56907W        W25136  27.140  23.800   3.170
56908W        W25137   0.516  36.722  10.309
56909W        W25138   6.886  27.499  10.441
56910W        W25139   2.123  12.296   2.657
56911W        W25140  21.595  28.430  14.354
56912W        W25141  38.590  19.137  13.566
56913W        W25142   1.011  31.841   2.833
56914W        W25143   5.643  16.810  12.543
56915W        W25144  36.452  29.188   1.208
56916W        W25145  36.510  23.166   0.777
56917W        W25146  24.890  38.884   0.781
56918W        W25147  17.410  34.044   0.837
56919W        W25148  21.815  33.399  14.946
56920W        W25149  32.065  17.565  11.605
56921W        W25150  33.185  29.626  10.635
56922W        W25151  11.279  16.601  13.780
56923W        W25152  32.588  11.355   0.517
56924W        W25153  18.358  30.040   3.192
56925W        W25154  40.063  14.204  12.556
56926W        W25155   9.747  34.521   1.457
56927W        W25156  31.388  14.871  11.165
56928W        W25157  41.344   5.994   0.835
56929W        W25158  26.599   1.362  14.411
56930W        W25159   2.403   4.230   4.597
56931W        W25160   5.782   9.793  13.377
56932W        W25161   6.016  37.836  10.660
56933W        W25162  31.867  21.571  14.292
56934W        W25163  22.461  28.228  10.775
56935W        W25164  18.713   8.334  12.977
56936W        W25165  23.261   3.774   3.208
56937W        W25166  30.421  11.448  11.198
56938W        W25167  27.732  35.616  14.299
56939W        W25168  16.770  35.366  13.828
56940W        W25169  32.026  26.256  11.201
56941W        W25170  35.835  27.535   4.714
56942W        W25171   7.465  19.295   3.247
56943W        W25172  20.768  25.017   0.074
56944W        W25173  10.098   1.432  14.919
56945W        W25174  30.040   5.677   1.792
56946W        W25175  25.475  29.450  11.991
56947W        W25176   0.393   1.739   0.508
56948W        W25177   2.807  40.065  14.409
56949W        W25178  12.076  33.142  13.490
56950W        W25179   2.486   3.711   4.546
56951W        W25180  44.899  24.598   1.371
56952W        W25181  25.490  43.858  10.549
56953W        W25182   4.895  26.252  12.372
56954W        W25183  12.609  33.064   1.395
56955W        W25184  40.457  38.475   5.032
56956W        W25185  23.633  16.131  10.731
56957W        W25186  32.546  15.121   5.641
56958W        W25187  15.586   2.251   4.156
56959W        W25188  39.617  19.676   1.767
56960W        W25189  29.444  39.002   2.286
56961W        W25190  37.946  35.294  12.589
56962W        W25191  33.420  42.308   2.569
56963W        W25192  15.812  10.622   4.051
56964W        W25193  30.086  34.991   3.663
56965W        W25194   8.355  41.522  13.393
56966W        W25195   4.741  24.925  10.629
56967W        W25196  41.321  17.690   3.542
56968W        W25197   7.141  19.262  14.868
56969W        W25198  40.001  12.987  12.018
56970W        W25199  30.141  11.158   4.829
56971W        W25200  29.454   0.308  10.756
56972W        W25201   3.704   5.917   4.151
56973W        W25202   8.864  19.854   3.403
56974W        W25203  37.735   9.434   5.074
56975W        W25204  43.519  37.008  13.532
56976W        W25205  21.762   1.262   1.453
56977W        W25206   4.787  19.057   4.912
56978W        W25207  27.642  20.516  11.649
56979W        W25208  10.948  36.321   3.305
56980W        W25209  43.304  21.490  12.825
56981W        W25210   0.867  39.825   0.468
56982W        W25211  30.419  32.527  12.751
56983W        W25212  24.769   1.274   1.066
56984W        W25213   6.747  25.665   0.881
56985W        W25214  10.349  20.145  13.923
56986W        W25215  23.958  31.939  14.987
56987W        W25216  42.898   3.287  14.454
56988W        W25217  18.394  28.763  11.256
56989W        W25218   6.282  15.613   1.592
56990W        W25219  31.518  22.213   3.258
56991W        W25220  23.061  44.504   9.769
56992W        W25221  36.437  31.197   1.374
56993W        W25222  32.997  32.054  12.639
56994W        W25223  31.167  16.634   2.813
56995W        W25224  29.872  41.614   4.950
56996W        W25225  19.500  39.827   2.541
56997W        W25226   0.365  22.952  11.657
56998W        W25227  36.480  40.818   2.228
56999W        W25228  38.274  37.563   0.806
57000W        W25229  17.566  38.984  10.202
57001W        W25230  12.730  43.295  11.519
57002W        W25231  35.132  22.090   0.471
57003W        W25232   5.209  26.131   2.716
57004W        W25233  18.185  16.494  10.280
57005W        W25234  21.737  44.961   1.743
57006W        W25235   9.435  15.211  11.242
57007W        W25236  18.082  20.797   1.614
57008W        W25237  43.910  21.127   4.556
57009W        W25238  35.295  37.311  11.617
57010W        W25239  16.068  29.353  10.219
57011W        W25240  12.379   1.766   3.880
57012W        W25241   7.373  24.721   1.672
57013W        W25242  17.309  44.224  11.127
57014W        W25243  19.170  29.169   4.692
57015W        W25244  25.887   4.310  12.677
57016W        W25245  21.805  43.189   2.505
57017W        W25246  32.933  16.061  12.335
57018W        W25247  14.517  19.532   4.240
57019W        W25248  39.357  42.842   3.169
57020W        W25249  25.108  42.717  12.133
57021W        W25250  31.530  29.464   4.536
57022W        W25251  17.815  13.154   0.013
57023W        W25252  21.248  30.006   3.465
57024W        W25253   7.465  24.537  14.529
57025W        W25254   3.664  24.679   2.345
57026W        W25255  31.699  28.521  12.534
57027W        W25256   8.406   0.988   2.656
57028W        W25257  37.022   1.998  12.017
57029W        W25258   0.972  41.214   3.363
57030W        W25259   9.379   6.379   1.742
57031W        W25260  36.587  15.059   2.750
57032W        W25261   9.999  19.956   4.731
57033W        W25262  24.097   5.637  11.084
57034W        W25263  12.260  14.570   2.447
57035W        W25264  22.107   1.510   0.577
57036W        W25265  14.770  25.681   4.087
57037W        W25266  38.732  29.266  11.911
57038W        W25267  11.033  15.502  11.870
57039W        W25268  20.733  26.088  12.317
57040W        W25269   8.234  33.826   4.713
57041W        W25270  40.281  28.379  14.805
57042W        W25271  43.079   1.413   1.208
57043W        W25272   3.264  26.506   0.354
57044W        W25273  18.462  17.532  12.137
57045W        W25274  42.003  19.506   3.641
57046W        W25275  36.454  19.885  11.087
57047W        W25276  30.118   9.895   1.415
57048W        W25277  28.433   4.546  14.448
57049W        W25278  27.978  33.404  11.470
57050W        W25279   1.222  27.735  13.909
57051W        W25280   0.853  34.365  11.408
57052W        W25281  30.450  34.317  14.030
57053W        W25282  25.225   4.018   4.270
57054W        W25283   4.165  18.557   1.867
57055W        W25284  31.055  15.860   2.244
57056W        W25285   0.493  41.135  11.120
57057W        W25286  34.140   2.251   3.299
57058W        W25287  34.335  23.826   0.721
57059W        W25288  17.836  10.736   0.415
57060W        W25289  24.145   5.962  12.488
57061W        W25290  18.777  28.575  14.356
57062W        W25291  36.909  31.976  11.864
57063W        W25292  26.976  22.182  12.902
57064W        W25293  27.267  17.157  10.755
57065W        W25294  12.664  37.076   4.857
57066W        W25295  10.394  40.055  12.502
57067W        W25296   7.877  44.766  14.075
57068W        W25297  22.461  32.948  11.678
57069W        W25298  21.767  14.391   2.474
57070W        W25299  13.968  30.023   2.541
57071W        W25300  26.842  16.786   1.241
57072W        W25301  21.697   5.279  13.506
57073W        W25302   3.991  36.514  13.978
57074W        W25303   8.275  32.061  14.580
57075W        W25304  16.139  19.081  14.499
57076W        W25305  15.185  36.328  10.465
57077W        W25306  40.258  42.520   0.467
57078W        W25307  32.407  14.763  10.236
57079W        W25308   6.773  21.306   4.673
57080W        W25309  14.126  30.660   4.329
57081W        W25310  39.614  40.029  13.485
57082W        W25311  33.165  35.908   4.068
57083W        W25312   0.153  44.370   1.206
57084W        W25313  25.465   8.874  10.234
57085W        W25314   3.251  40.666   0.455
57086W        W25315  18.280   3.459  11.213
57087W        W25316  10.223  44.827   4.794
57088W        W25317  14.071   4.808  12.637
57089W        W25318  41.512  44.552   0.413
57090W        W25319  44.952  40.813  11.696
57091W        W25320  22.955  25.305  14.405
57092W        W25321  41.333  18.818   1.483
57093W        W25322  37.793  17.783  14.519
57094W        W25323  13.752  17.698  10.371
57095W        W25324  28.273  20.053  14.775
57096W        W25325  17.407  23.715   0.741
57097W        W25326  34.848  30.118  13.007
57098W        W25327  33.078  32.060  14.506
57099W        W25328  13.763   0.682  11.603
57100W        W25329  29.772  28.009   2.891
57101W        W25330  39.514  23.962   1.318
57102W        W25331  25.721   0.173   1.673
57103W        W25332  41.021  17.282   4.717
57104W        W25333  26.461  33.488   2.782
57105W        W25334  37.242  36.904   0.568
57106W        W25335  24.057  23.748  14.335
57107W        W25336   2.744   3.908   2.338
57108W        W25337  21.857  40.683  10.111
57109W        W25338  17.750   1.423  10.858
57110W        W25339  35.467  39.301   0.348
57111W        W25340  37.515   8.312   2.767
57112W        W25341  14.648  28.010  12.076
57113W        W25342   4.436  40.694  12.450
57114W        W25343  12.983  21.210   2.326
57115W        W25344  24.400  28.476   3.292
57116W        W25345  34.874  35.049   2.808
57117W        W25346  36.440  26.008  13.497
57118W        W25347   0.863   3.261  11.995
57119W        W25348  10.091  27.162  12.485
57120W        W25349   0.754  33.648   4.559
57121W        W25350  29.964   3.546  12.955
57122W        W25351  11.227  36.404  14.442
57123W        W25352   2.237  14.132  12.034
57124W        W25353  42.518  13.744   1.829
57125W        W25354  12.928  31.476  11.168
57126W        W25355  34.427  22.913  10.672
57127W        W25356  42.394  24.940  13.948
57128W        W25357  21.629  33.306   1.368
57129W        W25358   3.740  14.665   1.408
57130W        W25359  30.296  14.865   4.173
57131W        W25360  10.383  19.288  14.029
57132W        W25361  13.762  13.914  12.554
57133W        W25362  34.668  17.716  10.624
57134W        W25363  25.310  15.691  13.039
57135W        W25364   6.678  15.760  11.514
57136W        W25365  12.544   6.297   3.629
57137W        W25366  21.483   4.406  11.105
57138W        W25367  39.690  35.949  12.621
57139W        W25368  22.186  37.333   4.830
57140W        W25369  22.823   8.703   1.319
57141W        W25370  34.572  29.641   3.603
57142W        W25371  19.171  16.349  13.688
57143W        W25372  18.152  17.298  13.783
57144W        W25373  41.157  24.212   4.956
57145W        W25374  17.488  17.763  13.429
57146W        W25375  32.536   1.349  14.533
57147W        W25376  16.326  44.998  10.589
57148W        W25377  15.842  23.400  14.932
57149W        W25378  44.591   9.798   3.310
57150W        W25379  43.697  44.771   0.449
57151W        W25380  10.173  36.880  10.895
57152W        W25381   4.266   2.034   1.745
57153W        W25382  19.770  14.711  14.865
57154W        W25383  18.170  40.005   3.749
57155W        W25384   8.816  34.266  13.979
57156W        W25385  17.553   2.474  12.966
57157W        W25386  43.297  42.246   3.675
57158W        W25387  41.940  24.517  11.187
57159W        W25388  18.975  43.731   2.319
57160W        W25389   7.016  29.088   4.668
57161W        W25390   8.146   2.033  12.537
57162W        W25391   6.569  23.476   1.406
57163W        W25392  42.572  36.004   2.296
57164W        W25393  33.091  17.114   0.989
57165W        W25394  40.350   6.604   0.801
57166W        W25395   6.773   8.297   1.906
57167W        W25396   7.301  25.746  11.197
57168W        W25397  18.764  40.934   0.886
57169W        W25398  41.899  26.400   3.999
57170W        W25399  31.661   5.311  14.430
57171W        W25400  41.846  18.846  13.810
57172W        W25401  32.228   7.446  14.135
57173W        W25402  26.362  30.531   1.910
57174W        W25403  15.278  23.512   5.555
57175W        W25404  34.281  16.651   2.447
57176W        W25405  29.980  44.536  11.170
57177W        W25406  31.607  17.717   2.384
57178W        W25407  16.256   3.716   3.113
57179W        W25408  19.311  12.687  13.552
57180W        W25409   1.713  15.293  13.533
57181W        W25410   4.350   4.838   4.631
57182W        W25411  44.954   3.783   2.644
57183W        W25412  34.630  44.246  11.057
57184W        W25413   5.322  27.893  11.129
57185W        W25414  20.523  13.168   2.434
57186W        W25415  14.282   9.836  11.285
57187W        W25416  40.725  14.405   4.029
57188W        W25417  42.042   6.280  11.566
57189W        W25418  21.349  13.662  14.307
57190W        W25419  19.513  10.068  12.529
57191W        W25420  11.749  13.181   1.089
57192W        W25421  34.243  44.841   4.280
57193W        W25422  28.555   4.775   1.311
57194W        W25423   2.916   2.437  14.316
57195W        W25424  42.604  24.925  11.762
57196W        W25425  37.407   7.828  14.342
57197W        W25426  36.874  14.618  13.012
57198W        W25427  11.259  24.778  12.346
57199W        W25428  38.145  38.919  12.407
57200W        W25429  30.585  15.235  14.873
57201W        W25430  43.947  19.309   4.330
57202W        W25431  26.913  42.914  12.464
57203W        W25432  43.707  42.483   3.191
57204W        W25433  35.710  20.893   3.226
57205W        W25434  25.677  31.168  10.600
57206W        W25435   7.180  39.462   3.707
57207W        W25436  28.220  18.344  13.451
57208W        W25437  24.578   9.209  14.666
57209W        W25438  38.355   0.418  13.070
57210W        W25439  12.660  36.891  11.367
57211W        W25440  28.906  42.947  14.579
57212W        W25441   5.224  28.000  10.622
57213W        W25442  20.812  31.845   2.773
57214W        W25443  37.413   2.205  13.357
57215W        W25444   3.832   4.336   0.297
57216W        W25445  11.379  41.204   1.198
57217W        W25446  18.241  22.979   4.513
57218W        W25447  22.678   5.944  11.098
57219W        W25448  42.079  34.082   2.156
57220W        W25449  13.455   5.183  11.540
57221W        W25450   2.781  43.825   4.003
57222W        W25451   5.175  20.925  12.318
57223W        W25452  41.323  33.678  11.358
57224W        W25453  18.488  32.978   4.066
57225W        W25454  36.373   1.275  10.571
57226W        W25455  37.907  11.198   2.396
57227W        W25456  31.437  24.452   1.784
57228W        W25457  38.347  24.613   2.305
57229W        W25458  34.453  24.072   3.041
57230W        W25459  16.274  10.141   4.751
57231W        W25460  23.034  23.543   2.698
57232W        W25461   7.133  28.554   4.723
57233W        W25462  42.260  10.685   3.776
57234W        W25463  24.920  24.408   4.608
57235W        W25464  18.298  28.003   1.414
57236W        W25465  29.655  32.741  14.013
57237W        W25466  16.740  41.592  12.615
57238W        W25467  20.318  17.634   3.410
57239W        W25468  15.060   4.376  11.649
57240W        W25469  16.040  26.955  14.431
57241W        W25470  20.803   0.381  10.335
57242W        W25471  34.017  21.654   1.230
57243W        W25472   7.072  10.212   3.902
57244W        W25473   7.364  22.723  12.143
57245W        W25474  23.449  14.400  11.220
57246W        W25475  16.702   2.371   0.914
57247W        W25476  20.820  44.545   2.106
57248W        W25477  35.412   5.916   4.355
57249W        W25478  32.507  25.197  10.621
57250W        W25479  42.076   0.287  14.984
57251W        W25480  38.096  24.489   1.063
57252W        W25481  20.599  24.752   0.469
57253W        W25482  16.663  40.647   4.745
57254W        W25483  36.926  14.104  12.986
57255W        W25484  21.449  27.884   2.632
57256W        W25485  23.220  42.410  13.522
57257W        W25486  30.419   1.935   3.426
57258W        W25487  25.539   6.187   0.042
57259W        W25488   4.834  24.148   4.215
57260W        W25489  42.261  38.989   4.252
57261W        W25490  43.200   4.152  12.072
57262W        W25491  44.252   9.914   0.329
57263W        W25492  10.043  23.426   4.077
57264W        W25493   6.749  25.258   4.709
57265W        W25494   6.267  16.149  13.940
57266W        W25495  17.411  35.069  11.978
57267W        W25496  41.529  16.189   2.884
57268W        W25497   7.877   2.680   2.373
57269W        W25498  36.818  29.455  12.214
57270W        W25499  31.216  25.954   0.193
57271W        W25500  31.280  11.142  11.084
57272W        W25501  39.517  37.001   2.296
57273W        W25502   4.387  36.858  10.167
57274W        W25503   7.203  20.825   3.333
57275W        W25504  42.292  12.654  10.675
57276W        W25505  12.928  18.740  12.043
57277W        W25506   3.908  17.082   3.705
57278W        W25507   9.927   7.422  12.362
57279W        W25508  17.743  12.883   1.915
57280W        W25509  40.216  10.009   0.871
57281W        W25510  24.140  24.262  14.391
57282W        W25511  42.160   6.255   0.626
57283W        W25512   7.205  15.638   2.557
57284W        W25513  28.676  41.566  13.792
57285W        W25514  21.129  39.418   1.949
57286W        W25515  43.423  43.718  12.071
57287W        W25516  10.153  23.075   4.449
57288W        W25517  34.466   9.044   5.113
57289W        W25518  15.359  38.784  11.003
57290W        W25519  36.069  14.053  11.674
57291W        W25520  28.413  31.031  14.544
57292W        W25521  14.264  34.832   2.698
57293W        W25522  18.835  12.843   3.604
57294W        W25523  35.919  38.358  14.503
57295W        W25524  24.012  13.790  14.765
57296W        W25525  18.833  29.611   2.815
57297W        W25526  36.985  32.364  13.979
57298W        W25527  37.115   9.689  11.147
57299W        W25528  29.649  24.808  11.239
57300W        W25529  17.616  32.539   3.116
57301W        W25530   4.522  20.344   1.185
57302W        W25531  26.710  23.031  14.412
57303W        W25532  10.364  16.612  14.553
57304W        W25533   8.793  25.409   2.261
57305W        W25534  26.102  15.547  14.996
57306W        W25535  39.100  13.853  13.486
57307W        W25536  26.830  18.617   2.227
57308W        W25537   9.466  13.141  10.916
57309W        W25538  13.182  28.458  14.340
57310W        W25539   1.245  40.924   0.900
57311W        W25540  21.282  17.982   3.611
57312W        W25541  13.213   7.014  12.871
57313W        W25542  22.631  13.007   9.866
57314W        W25543  28.632  31.662   2.237
57315W        W25544  11.409  28.152   4.544
57316W        W25545  17.479  13.443   4.088
57317W        W25546  14.507  39.540  14.873
57318W        W25547  43.828  36.128   2.554
57319W        W25548   2.734  41.795   2.808
57320W        W25549  37.943   0.713  14.792
57321W        W25550  22.606  40.011   2.111
57322W        W25551   6.586  18.036   2.835
57323W        W25552  33.547  36.747  11.141
57324W        W25553  25.949  33.418   1.255
57325W        W25554   7.369   0.731   1.435
57326W        W25555   6.149   7.239   4.547
57327W        W25556  22.453  20.403  12.522
57328W        W25557  12.092  13.710   5.417
57329W        W25558  20.726   6.848  13.891
57330W        W25559  14.638   6.216   0.610
57331W        W25560  28.894  27.933   3.595
57332W        W25561  17.822  34.386   0.807
57333W        W25562   2.774  40.598   4.066
57334W        W25563  35.403  41.055   1.736
57335W        W25564  31.442   6.523  12.585
57336W        W25565   3.687  12.318  14.030
57337W        W25566   8.909  44.078  10.579
57338W        W25567  28.011  38.739  11.081
57339W        W25568  18.151   7.627  12.914
57340W        W25569  38.487  25.588   4.607
57341W        W25570  23.491  11.229  14.012
57342W        W25571  10.468   8.686  11.610
57343W        W25572  44.078  15.597  11.390
57344W        W25573  10.658  14.636   0.988
57345W        W25574  20.612  13.234  14.459
57346W        W25575  28.074  44.053  10.267
57347W        W25576  15.606  20.578  10.656
57348W        W25577  18.198  38.543   1.194
57349W        W25578  42.095   6.955   3.246
57350W        W25579  36.988  37.346   0.721
57351W        W25580  39.427  18.063   0.391
57352W        W25581  35.009  24.648   0.542
57353W        W25582   2.685  28.037  11.094
57354W        W25583  12.587  33.672  14.736
57355W        W25584   4.076  36.164   4.236
57356W        W25585  33.038  39.310   0.070
57357W        W25586   9.132  16.727   2.351
57358W        W25587  25.198  31.907  13.184
57359W        W25588  34.626   9.385  12.881
57360W        W25589  28.133  15.057   0.202
57361W        W25590  27.625  38.851  10.640
57362W        W25591  22.436  44.009   2.243
57363W        W25592  10.983  14.359   4.496
57364W        W25593  10.060   2.409   1.906
57365W        W25594  22.264  13.571   4.574
57366W        W25595  30.160   5.784   0.290
57367W        W25596  38.547  24.097   2.393
57368W        W25597   1.288  10.046   0.623
57369W        W25598  28.033  34.886  11.601
57370W        W25599  18.722  19.578   4.179
57371W        W25600   1.230  21.695   2.281
57372W        W25601   5.186  26.912   4.722
57373W        W25602  37.445  33.934  10.663
57374W        W25603  27.999  43.017   2.515
57375W        W25604  34.770  12.433   1.562
57376W        W25605   3.928   8.795   0.941
57377W        W25606   5.394  42.497  14.835
57378W        W25607  34.094  16.358   4.910
57379W        W25608  41.746   2.305   2.831
57380W        W25609  14.071   2.449  10.546
57381W        W25610  33.683   2.118   4.914
57382W        W25611  33.058   9.227   4.586
57383W        W25612  30.709   0.702   4.213
57384W        W25613   8.111   7.896  11.172
57385W        W25614  34.377  42.686   3.222
57386W        W25615  34.528  16.998   0.877
57387W        W25616   7.650   6.371  11.676
57388W        W25617  43.842   3.807  11.565
57389W        W25618  41.282  40.226   1.735
57390W        W25619   9.401  15.180   4.731
57391W        W25620  10.238  26.913   1.429
57392W        W25621   8.704  32.423   0.075
57393W        W25622  26.985  28.187   0.741
57394W        W25623  30.683  21.952   0.211
57395W        W25624   2.281   8.791  10.850
57396W        W25625  26.466  24.197   0.388
57397W        W25626  15.990  34.793  14.183
57398W        W25627  44.939  38.415  10.454
57399W        W25628  14.268  38.856  12.917
57400W        W25629  36.687  10.846   3.655
57401W        W25630  32.298  44.432  12.860
57402W        W25631  10.235  11.206  11.912
57403W        W25632  43.050  21.311   1.313
57404W        W25633   8.732  38.570   2.201
57405W        W25634  38.320  11.638  11.811
57406W        W25635  27.918  37.625  13.477
57407W        W25636   8.686  33.615  11.170
57408W        W25637  12.419  10.650  14.976
57409W        W25638  11.232  41.271  12.156
57410W        W25639   6.352  16.485   0.456
57411W        W25640  16.212   4.991  11.194
57412W        W25641   7.854  24.014   3.783
57413W        W25642   2.194  36.953   4.140
57414W        W25643  12.324  29.742  12.057
57415W        W25644  39.991  35.073  14.997
57416W        W25645  17.250   9.157  11.210
57417W        W25646   7.415  17.838   0.879
57418W        W25647  26.287  31.491  11.436
57419W        W25648  18.246  16.161   2.636
57420W        W25649  10.416  35.848   4.669
57421W        W25650  19.106  11.210   0.213
57422W        W25651  41.887  34.563   2.236
57423W        W25652  25.679  34.831   2.293
57424W        W25653  11.675  29.338  14.726
57425W        W25654  36.020   7.765   0.816
57426W        W25655   0.852  24.656   0.426
57427W        W25656  27.997  32.085   2.846
57428W        W25657   1.734  39.464   2.846
57429W        W25658  30.203  35.559  13.739
57430W        W25659   2.682  24.766   1.333
57431W        W25660  32.720  35.791  14.306
57432W        W25661  20.834   6.786  12.892
57433W        W25662  35.394  18.612  14.700
57434W        W25663   8.413  12.160  12.010
57435W        W25664  32.321  13.257   2.329
57436W        W25665  29.651  41.749   3.616
57437W        W25666  28.040  16.763   2.377
57438W        W25667  10.429  40.610   4.520
57439W        W25668  24.139  22.683  10.730
57440W        W25669  21.542   9.759   2.857
57441W        W25670  12.147  13.879   9.690
57442W        W25671  16.183   7.651  14.533
57443W        W25672  42.494  39.375   2.773
57444W        W25673  41.068  29.657   3.174
57445W        W25674  43.862  25.731  10.791
57446W        W25675  43.485  17.294   0.831
57447W        W25676  34.760   1.668   2.979
57448W        W25677  23.036  20.287   3.227
57449W        W25678  17.769  24.509   3.765
57450W        W25679  24.095  12.174   0.373
57451W        W25680  21.805  12.151   1.800
57452W        W25681  26.677  13.663   4.534
57453W        W25682   8.930   1.764   4.082
57454W        W25683  27.012  26.999   1.802
57455W        W25684  28.205  40.937   4.498
57456W        W25685  37.035  38.146   3.199
57457W        W25686  22.676  38.078  10.832
57458W        W25687  16.501  19.226   3.365
57459W        W25688   4.388  43.112   4.078
57460W        W25689   7.196  41.854  10.641
57461W        W25690  26.194  41.287   1.283
57462W        W25691  10.988  35.954  13.972
57463W        W25692  10.701  12.765   4.232
57464W        W25693  16.061  13.710  14.850
57465W        W25694  21.789   3.253  14.350
57466W        W25695  37.536  16.612   2.406
57467W        W25696  26.801   5.951   4.240
57468W        W25697   3.761  43.849  12.088
57469W        W25698  34.345  34.436   4.775
57470W        W25699  23.730  16.280  12.597
57471W        W25700  36.994   8.985   4.092
57472W        W25701   6.173  28.121  12.518
57473W        W25702   0.413  37.546   3.263
57474W        W25703  36.728  26.295  14.809
57475W        W25704   9.709  11.130   1.708
57476W        W25705  14.368  41.434   2.253
57477W        W25706  22.514  17.735  12.207
57478W        W25707  19.682  22.930   0.489
57479W        W25708  10.286  16.050   2.641
57480W        W25709  33.931  24.129  12.438
57481W        W25710  10.116  29.877  12.588
57482W        W25711  17.737  18.112   1.919
57483W        W25712  24.554  33.085  11.456
57484W        W25713   4.270  43.499   0.048
57485W        W25714  23.433  19.470   0.318
57486W        W25715  35.958  37.132   3.304
57487W        W25716   2.660  43.533  11.092
57488W        W25717  39.329   7.028   4.642
57489W        W25718  38.262  35.038   4.914
57490W        W25719  16.485  40.231  10.983
57491W        W25720  20.185   5.988  12.951
57492W        W25721  26.552   0.466  12.152
57493W        W25722  32.669   3.779  14.718
57494W        W25723  31.072  19.176   4.594
57495W        W25724  43.805   4.717   1.435
57496W        W25725  20.776  28.423  13.988
57497W        W25726  35.397  43.382   4.256
57498W        W25727  35.836   2.879   4.622
57499W        W25728  32.309  44.762  10.292
57500W        W25729  34.467  33.678  13.526
57501W        W25730  22.481   5.399  13.994
57502W        W25731  26.172  33.449   4.619
57503W        W25732  19.592  44.969  14.859
57504W        W25733  18.804  22.023   1.276
57505W        W25734  31.308   6.408   0.219
57506W        W25735   0.868  16.914   2.057
57507W        W25736   2.653  13.611   2.698
57508W        W25737  16.142  41.992   4.019
57509W        W25738  38.013   1.984  12.036
57510W        W25739   7.199  44.270   4.802
57511W        W25740   9.737  26.132   4.622
57512W        W25741  32.889  38.674   2.003
57513W        W25742   2.248  19.830  13.430
57514W        W25743  12.680   0.696  14.625
57515W        W25744  32.987  29.188  10.445
57516W        W25745  10.910  35.154   2.273
57517W        W25746  43.303  36.688  14.858
57518W        W25747  18.756  37.492   2.807
57519W        W25748   5.172  25.124   1.357
57520W        W25749   7.606   9.861  10.722
57521W        W25750  19.610  39.366  12.016
57522W        W25751  29.205   9.179   3.451
57523W        W25752  16.306  36.159  12.723
57524W        W25753  16.264  42.420   1.787
57525W        W25754  44.470  41.557   1.902
57526W        W25755  30.133  20.709  13.884
57527W        W25756  18.312  39.226   2.583
57528W        W25757  23.881  22.704   1.884
57529W        W25758   5.803  32.611   2.726
57530W        W25759  20.258  16.791   4.610
57531W        W25760  32.618   4.705   2.626
57532W        W25761  37.154  29.253  10.253
57533W        W25762  39.553  31.938   3.164
57534W        W25763  27.128  15.314   4.152
57535W        W25764   8.695  28.174   0.725
57536W        W25765   0.718  44.486  14.599
57537W        W25766  21.963  24.682  11.421
57538W        W25767  17.552  22.441   4.141
57539W        W25768   0.746   8.578  11.588
57540W        W25769   9.857  38.204   4.206
57541W        W25770  18.090   3.835   2.341
57542W        W25771  18.162   3.361  11.974
57543W        W25772   5.906  43.129   4.728
57544W        W25773  36.442  22.696   4.250
57545W        W25774  26.219   0.965  10.515
57546W        W25775  25.025   2.840   4.259
57547W        W25776  10.217  37.522  14.363
57548W        W25777   3.343  16.327   3.322
57549W        W25778  44.826  32.164  14.926
57550W        W25779  28.123  36.396  13.463
57551W        W25780   6.424  35.365   5.032
57552W        W25781  12.804  34.557   0.213
57553W        W25782  11.066  20.753   2.786
57554W        W25783  44.889   4.769  13.300
57555W        W25784  39.407  17.663   0.070
57556W        W25785  28.075  41.476   3.108
57557W        W25786  40.484  16.802   4.325
57558W        W25787  19.706   3.270  10.676
57559W        W25788   5.200  20.032  14.079
57560W        W25789  16.080  14.545   2.373
57561W        W25790  18.555  34.397  11.105
57562W        W25791   0.847   4.244  10.766
57563W        W25792  41.517  19.158   3.712
57564W        W25793   9.690   9.881   3.380
57565W        W25794  42.344   6.125   3.989
57566W        W25795  28.048  20.566  14.569
57567W        W25796  28.353  34.128   9.676
57568W        W25797  12.140   9.656   4.913
57569W        W25798  44.331  13.825   2.920
57570W        W25799   3.319  41.715  12.521
57571W        W25800  21.254   5.905   2.791
57572W        W25801  11.390  14.582  14.917
57573W        W25802   5.117  20.415   0.759
57574W        W25803  32.920  23.082   2.581
57575W        W25804  34.599  38.151  14.303
57576W        W25805   9.831  25.687   0.046
57577W        W25806  21.598  27.169   4.913
57578W        W25807  35.413   4.610   1.884
57579W        W25808  42.400  36.022  10.964
57580W        W25809  36.082  44.768   4.157
57581W        W25810  19.505  37.026   1.881
57582W        W25811  11.133  38.378  11.426
57583W        W25812   6.310  25.634   3.571
57584W        W25813  23.198  40.870   4.869
57585W        W25814  11.292  40.307   3.499
57586W        W25815   3.154  33.995  12.501
57587W        W25816  12.791  31.365   2.882
57588W        W25817   9.253  20.583  13.053
57589W        W25818   4.801  44.857  14.491
57590W        W25819  38.471  10.193   1.176
57591W        W25820  28.111  40.535  13.402
57592W        W25821  14.233   2.679   2.367
57593W        W25822  12.292   3.261   2.844
57594W        W25823   9.399  25.507  12.437
57595W        W25824  32.123  32.672  12.533
57596W        W25825  33.783  37.941   4.723
57597W        W25826  44.540   3.260   4.775
57598W        W25827  34.668   1.388  14.147
57599W        W25828  19.720  35.356   4.639
57600W        W25829  39.095  37.983   2.266
57601W        W25830  11.589   7.167   1.729
57602W        W25831  37.370  37.186   3.383
57603W        W25832  22.618  16.886   2.867
57604W        W25833  13.557  26.747   2.253
57605W        W25834  20.178  24.997  12.017
57606W        W25835  38.272   0.400   2.409
57607W        W25836  36.550   4.733   0.281
57608W        W25837  34.921  17.024   1.235
57609W        W25838  34.667  40.826  11.433
57610W        W25839  35.122  31.643   2.899
57611W        W25840  38.760  32.906  11.230
57612W        W25841  13.937  40.832   3.356
57613W        W25842   9.086  42.981   1.455
57614W        W25843  32.361  34.993   0.833
57615W        W25844  25.551  10.699   5.090
57616W        W25845   6.632  40.543   2.952
57617W        W25846   5.204  30.103  12.056
57618W        W25847  12.325  43.225   2.148
57619W        W25848  38.370   1.171  11.089
57620W        W25849  44.779  10.858  13.343
57621W        W25850  31.361  11.266   1.431
57622W        W25851  17.745  22.994   0.405
57623W        W25852  13.840  15.625  12.340
57624W        W25853  14.418  27.215  12.040
57625W        W25854  43.444   9.065   0.791
57626W        W25855  22.743  39.319  13.957
57627W        W25856  22.041  12.239  11.957
57628W        W25857   2.498  36.589   0.416
57629W        W25858  14.802   3.224  14.304
57630W        W25859  18.498  41.358   4.620
57631W        W25860  12.308  37.505   0.264
57632W        W25861  11.213  26.523  12.862
57633W        W25862  18.303  21.495   0.771
57634W        W25863   5.732   6.576   4.267
57635W        W25864  15.877   5.525  11.497
57636W        W25865  29.462   2.147   0.666
57637W        W25866   3.220  17.634   0.829
57638W        W25867  23.977  29.947   0.569
57639W        W25868  40.906  30.107  14.541
57640W        W25869  10.585  13.578  13.934
57641W        W25870   3.169   4.423   1.686
57642W        W25871   4.500  14.225   4.236
57643W        W25872  10.473   2.963  10.815
57644W        W25873  10.797   7.411  13.468
57645W        W25874  38.076  28.085  11.007
57646W        W25875   4.931  33.885  14.516
57647W        W25876  33.494  31.586   4.592
57648W        W25877   7.615  24.032   0.862
57649W        W25878  16.567  38.336   1.808
57650W        W25879  24.475  19.978  13.678
57651W        W25880  30.630  35.514   1.036
57652W        W25881  40.882  22.033  12.025
57653W        W25882  32.687  31.143   1.160
57654W        W25883  33.675  18.496   3.263
57655W        W25884  13.537   1.412   1.800
57656W        W25885   7.794  37.121   0.394
57657W        W25886  21.510  18.295   4.065
57658W        W25887   8.680   2.495  14.023
57659W        W25888  31.319  34.500   2.386
57660W        W25889  34.149  39.605  13.615
57661W        W25890  42.864  14.145   1.851
57662W        W25891  11.841  20.303   2.328
57663W        W25892   3.174   0.854   3.338
57664W        W25893  11.916   1.430   2.468
57665W        W25894  43.244  32.169  12.349
57666W        W25895  26.381   4.500  12.612
57667W        W25896  29.868   3.682   1.907
57668W        W25897  26.489   6.372   3.241
57669W        W25898  44.546  21.146  10.880
57670W        W25899  21.938   7.816   1.989
57671W        W25900  15.715  31.054   2.706
57672W        W25901  37.049  19.895   4.569
57673W        W25902  10.202  15.354  12.074
57674W        W25903  19.917  39.653   3.722
57675W        W25904  43.549  41.417   2.307
57676W        W25905   5.331  10.086   0.760
57677W        W25906  12.815  28.147   1.302
57678W        W25907   3.832  32.058  13.370
57679W        W25908  21.925  28.365  10.820
57680W        W25909  15.045   3.759   4.501
57681W        W25910   6.540   8.631   1.244
57682W        W25911  26.308  43.432   4.840
57683W        W25912  29.635  35.020  13.255
57684W        W25913   4.971   1.556  12.832
57685W        W25914  43.462   4.425  11.720
57686W        W25915   9.954  22.042  12.452
57687W        W25916  21.190  36.805   2.420
57688W        W25917  27.517  43.717   4.166
57689W        W25918  12.821   1.329  11.158
57690W        W25919  16.604   5.458   1.336
57691W        W25920  14.926  29.043   2.392
57692W        W25921  10.197  26.148  12.972
57693W        W25922  19.599  29.108   0.289
57694W        W25923  27.461  40.798  11.836
57695W        W25924   7.788  30.666   3.401
57696W        W25925  30.045  12.144  10.666
57697W        W25926  34.566  15.091  13.549
57698W        W25927  24.607  32.885   0.318
57699W        W25928  23.725  40.920   3.131
57700W        W25929  41.407  29.632  14.893
57701W        W25930  24.090   9.271   4.320
57702W        W25931   5.242   8.945  14.979
57703W        W25932   9.171  17.132   1.585
57704W        W25933   2.361  38.866  10.461
57705W        W25934  38.969  27.527   5.331
57706W        W25935  26.259  33.455   0.823
57707W        W25936  11.992  20.834   0.508
57708W        W25937   3.662  18.021  12.004
57709W        W25938  39.338  27.158  13.042
57710W        W25939  36.023  28.426  12.458
57711W        W25940  35.771   0.700  11.231
57712W        W25941  12.494  14.625   1.288
57713W        W25942  31.189  19.395  11.334
57714W        W25943  28.573  21.841   2.722
57715W        W25944  11.634  40.942  12.543
57716W        W25945  10.596  28.612   1.056
57717W        W25946  20.656  19.377   4.685
57718W        W25947  31.477  19.527   0.408
57719W        W25948  27.359  36.628  13.061
57720W        W25949  36.374  24.592   1.880
57721W        W25950  32.521   5.114   3.455
57722W        W25951  33.928  21.820  11.974
57723W        W25952  38.959   6.308  10.475
57724W        W25953  28.590  23.845  12.483
57725W        W25954   1.530  43.897   3.598
57726W        W25955  33.154   8.768  12.438
57727W        W25956  26.063   2.968  12.951
57728W        W25957  20.666  13.588  12.589
57729W        W25958   1.779   5.245   3.404
57730W        W25959  27.926  36.508  13.915
57731W        W25960  18.325  11.159   2.130
57732W        W25961  33.569  29.606   1.878
57733W        W25962  29.403  42.535   4.960
57734W        W25963  38.792  34.488  13.913
57735W        W25964  27.179   9.863   4.437
57736W        W25965  14.604  26.070  12.403
57737W        W25966  21.915  41.639   1.740
57738W        W25967  40.994  31.221   2.284
57739W        W25968  28.558   6.247  13.772
57740W        W25969   1.150  32.580   1.761
57741W        W25970  33.036  28.200  14.457
57742W        W25971  33.579   6.776  11.098
57743W        W25972  32.596  32.360   1.957
57744W        W25973   8.353  44.920  11.459
57745W        W25974  26.050  17.288  11.901
57746W        W25975   6.600  30.956  13.401
57747W        W25976   1.923  22.787   3.663
57748W        W25977   8.857  26.361   1.316
57749W        W25978  36.642   0.782   0.825
57750W        W25979  23.540  34.435   3.201
57751W        W25980  13.675   2.743   1.263
57752W        W25981  35.300  19.199  13.036
57753W        W25982  38.801   5.817  10.627
57754W        W25983  18.548  35.907   0.037
57755W        W25984  35.903  17.123   3.294
57756W        W25985  23.006  16.700  13.919
57757W        W25986   0.935  17.048   3.628
57758W        W25987   4.439  19.518  13.399
57759W        W25988  23.044  12.192   9.834
57760W        W25989   4.805  39.780   1.400
57761W        W25990  34.870  12.555   2.044
57762W        W25991  29.589  34.865   2.725
57763W        W25992  23.742  31.076  11.477
57764W        W25993  36.918  28.193  10.427
57765W        W25994  29.504  27.704  12.490
57766W        W25995  26.711  40.350  12.372
57767W        W25996  29.322  24.222  14.295
57768W        W25997  39.046  29.371   3.623
57769W        W25998  40.984  27.780  10.764
57770W        W25999  32.582  20.248   0.815
57771W        W26000   3.222   1.864   0.254
57772W        W26001   4.804  27.623   4.628
57773W        W26002  10.259  31.694   4.152
57774W        W26003   0.410  21.886  14.329
57775W        W26004  18.885   0.982  12.858
57776W        W26005  21.719  38.078   2.550
57777W        W26006   3.915  12.449  11.368
57778W        W26007  39.375  15.101   3.753
57779W        W26008  42.738  27.491   3.752
57780W        W26009  25.542  27.258   0.367
57781W        W26010   9.135  27.458   4.646
57782W        W26011  31.793  17.555   0.078
57783W        W26012  29.489  41.524   4.587
57784W        W26013  15.340   7.743  13.338
57785W        W26014  15.715  18.247   1.935
57786W        W26015  25.584  12.408   1.280
57787W        W26016  37.790  28.907  13.379
57788W        W26017   5.344  41.242  11.950
57789W        W26018  30.278  10.388   2.495
57790W        W26019   3.942  12.994   9.992
57791W        W26020   1.550  21.299   0.060
57792W        W26021  25.148  17.683   2.289
57793W        W26022  28.064  31.286   0.433
57794W        W26023  25.097   0.280  12.514
57795W        W26024   2.129  28.549  13.340
57796W        W26025  19.745  34.622   2.675
57797W        W26026  22.103  29.575  12.609
57798W        W26027  40.125  20.974  14.082
57799W        W26028  38.542  27.329   5.645
57800W        W26029  14.355  38.260   3.420
57801W        W26030  35.220   7.223  11.712
57802W        W26031  30.125  34.375   1.720
57803W        W26032  16.615  40.264  14.355
57804W        W26033  19.187  31.609  14.849
57805W        W26034  27.528  32.387   2.780
57806W        W26035   8.353   6.370  11.044
57807W        W26036  21.517   4.695   3.064
57808W        W26037  44.345  43.156   4.985
57809W        W26038  36.364  29.069   1.718
57810W        W26039   5.800  18.142   4.784
57811W        W26040  10.751   5.638  13.464
57812W        W26041  32.732  12.680   0.041
57813W        W26042  23.909  14.312   0.933
57814W        W26043  36.886  11.258   1.372
57815W        W26044  30.836  40.265  11.218
57816W        W26045   5.888  23.937  13.083
57817W        W26046  15.469  41.054  10.844
57818W        W26047  28.107  30.238  12.464
57819W        W26048  26.039  20.622  14.818
57820W        W26049  28.553   6.972  11.093
57821W        W26050  10.746  38.888   0.274
57822W        W26051   6.643  43.487  10.673
57823W        W26052  10.687  21.981   3.193
57824W        W26053  13.079  19.828  14.448
57825W        W26054  10.316  14.590   1.408
57826W        W26055  33.862  38.551   2.311
57827W        W26056  43.221   5.858   1.928
57828W        W26057  21.594   5.598   3.258
57829W        W26058  19.249   1.491  14.393
57830W        W26059  24.737  38.558  11.887
57831W        W26060  14.625  12.871   2.242
57832W        W26061  31.331  33.625  14.550
57833W        W26062  41.284  22.130  12.937
57834W        W26063   5.042  43.546  12.186
57835W        W26064  13.885  12.307   1.296
57836W        W26065  40.039  24.795   2.791
57837W        W26066  28.354  28.131   0.292
57838W        W26067  17.756  10.201  12.435
57839W        W26068   8.438  13.607  14.817
57840W        W26069   1.360  42.194   0.961
57841W        W26070  25.174  42.793  13.158
57842W        W26071  41.021  26.728  12.520
57843W        W26072   1.791   5.286  10.626
57844W        W26073  27.475  24.737  13.342
57845W        W26074  26.601  34.666   4.028
57846W        W26075  37.836  30.979  13.401
57847W        W26076  27.690  42.480  12.390
57848W        W26077  22.584  43.211   4.611
57849W        W26078  16.118  13.867   2.875
57850W        W26079  20.767  34.215   0.177
57851W        W26080  17.125  38.151   1.263
57852W        W26081   7.152  38.088   2.853
57853W        W26082  40.972  14.312  12.550
57854W        W26083  16.770  11.945  14.324
57855W        W26084  42.088  10.311   4.208
57856W        W26085  11.268  13.169   4.980
57857W        W26086  29.431  18.642   0.223
57858W        W26087  18.058  29.554   4.078
57859W        W26088  35.925  37.550   4.530
57860W        W26089  28.735  26.024  10.789
57861W        W26090  21.941  31.333   1.942
57862W        W26091  19.270   7.946  13.651
57863W        W26092  38.477  40.877   1.649
57864W        W26093  41.128  16.630  12.047
57865W        W26094  26.671  40.858  11.893
57866W        W26095  29.447   6.548  14.726
57867W        W26096  28.668   5.697   1.469
57868W        W26097   5.801  28.424   4.790
57869W        W26098  17.069  39.859   2.384
57870W        W26099  26.634  14.690   3.148
57871W        W26100   2.381  23.333  10.780
57872W        W26101  15.528  17.091   0.748
57873W        W26102  17.862  10.711   2.756
57874W        W26103   4.892  10.168   1.917
57875W        W26104   4.205  44.564  11.577
57876W        W26105   9.938  12.700  10.582
57877W        W26106  14.129  24.541  11.973
57878W        W26107  29.523  20.361   0.411
57879W        W26108  34.404  29.549   4.613
57880W        W26109   4.840  41.712  13.911
57881W        W26110  15.625  34.074  10.660
57882W        W26111  37.133   0.644   0.893
57883W        W26112   1.260   8.782   2.671
57884W        W26113  37.463  13.356   5.032
57885W        W26114  33.305   2.480  13.540
57886W        W26115  32.872  13.237   4.737
57887W        W26116   7.632  12.635  10.221
57888W        W26117  10.008  14.020  14.417
57889W        W26118   5.678  32.516   2.245
57890W        W26119   4.206  10.418  13.843
57891W        W26120  42.316   7.877  14.334
57892W        W26121  21.307  41.393  10.588
57893W        W26122   1.984  21.191  11.393
57894W        W26123  26.457  16.210  14.513
57895W        W26124  27.661  15.231  11.991
57896W        W26125  10.838  15.273  13.916
57897W        W26126   1.870  19.125   2.373
57898W        W26127  18.091   5.066  12.733
57899W        W26128  40.939  38.081  10.707
57900W        W26129  42.082   0.916  12.201
57901W        W26130  14.265   5.935  10.691
57902W        W26131  40.256  15.068  12.515
57903W        W26132  33.164  32.963  14.026
57904W        W26133  22.501  36.322   2.960
57905W        W26134  36.340   6.606   1.514
57906W        W26135   9.782   3.227   2.871
57907W        W26136  40.422  26.125   4.406
57908W        W26137   4.686  31.395   1.389
57909W        W26138  21.433  15.829   0.968
57910W        W26139  15.609  16.140   0.856
57911W        W26140  32.655  27.446  14.067
57912W        W26141  24.483  26.610  13.437
57913W        W26142  35.993   7.155  14.162
57914W        W26143   6.311  22.674   3.081
57915W        W26144  44.778  37.234   2.822
57916W        W26145   9.600  10.796   3.394
57917W        W26146  35.446  22.751  13.826
57918W        W26147  19.989  29.050  13.812
57919W        W26148  31.951   5.881   4.753
57920W        W26149  11.648   2.263   0.312
57921W        W26150  42.019  16.833   3.164
57922W        W26151  42.398  21.459   0.800
57923W        W26152  30.951  26.718  13.390
57924W        W26153  34.035   7.341   1.803
57925W        W26154  44.902  15.517   4.680
57926W        W26155  28.041   9.658   1.213
57927W        W26156   2.765  41.339   3.062
57928W        W26157  43.752  38.961   1.539
57929W        W26158   4.313  26.494  13.943
57930W        W26159  40.863   2.324   2.348
57931W        W26160  15.763  31.427  13.406
57932W        W26161  30.229  23.055   4.612
57933W        W26162  38.729  26.480  13.025
57934W        W26163  31.612  16.762   2.387
57935W        W26164  31.517  41.496   4.247
57936W        W26165   7.565   7.487   1.318
57937W        W26166  38.940  33.962   4.277
57938W        W26167   4.290   3.006   2.687
57939W        W26168  12.506  42.937  12.479
57940W        W26169   4.256   4.295   4.860
57941W        W26170  20.232  17.726   4.392
57942W        W26171  22.674  16.783   0.479
57943W        W26172   3.909  11.572  11.193
57944W        W26173  19.952  37.259   3.323
57945W        W26174   2.898  22.085   1.667
57946W        W26175  44.486  14.862   1.310
57947W        W26176  12.441  16.134   0.764
57948W        W26177   8.873  38.561  14.681
57949W        W26178  16.168  33.859  12.443
57950W        W26179  38.910  11.144  13.814
57951W        W26180  21.329   2.095  10.743
57952W        W26181  44.885  36.221   2.553
57953W        W26182  38.811  38.683  10.088
57954W        W26183  39.028  43.479  12.327
57955W        W26184  18.048  12.360  13.199
57956W        W26185  19.638   9.464   2.212
57957W        W26186  28.589  20.957   3.745
57958W        W26187  35.641  32.848  11.147
57959W        W26188  35.832  16.795   2.025
57960W        W26189  42.302   5.194  13.145
57961W        W26190  13.211  34.971  14.147
57962W        W26191  44.272  17.852  10.641
57963W        W26192  40.218  41.205   5.134
57964W        W26193  44.410  27.230  14.412
57965W        W26194  27.980  10.077   3.017
57966W        W26195   8.751   0.372  10.623
57967W        W26196  27.542  36.949   3.711
57968W        W26197  10.187  20.947   2.716
57969W        W26198  27.937  32.896  13.949
57970W        W26199  11.831  37.786  11.669
57971W        W26200   8.065  28.139   4.684
57972W        W26201  34.482  14.681  13.078
57973W        W26202  11.829  12.366   0.445
57974W        W26203  29.450  24.615   3.633
57975W        W26204  28.698   5.946  14.348
57976W        W26205  38.477   1.719  13.385
57977W        W26206  19.019   4.869   0.799
57978W        W26207   9.410  34.167   4.486
57979W        W26208   7.873  31.972   4.582
57980W        W26209  39.053   0.822   4.108
57981W        W26210  34.436   1.235   2.355
57982W        W26211  40.481  35.886   2.201
57983W        W26212  20.537   7.144  13.474
57984W        W26213  15.915  27.451  11.926
57985W        W26214  43.184  16.034  12.900
57986W        W26215  31.044  33.999   1.641
57987W        W26216   2.911  18.440   3.674
57988W        W26217  37.817   8.537   4.079
57989W        W26218  31.623  32.299   1.436
57990W        W26219   6.189  33.057   3.759
57991W        W26220  21.127  27.708  11.648
57992W        W26221  12.085   9.270  14.034
57993W        W26222   5.445   0.220  11.629
57994W        W26223  44.525  12.283   1.820
57995W        W26224  38.995  24.592  12.282
57996W        W26225   3.880  40.246   2.014
57997W        W26226  37.734   5.868  14.358
57998W        W26227  22.056   0.886  11.053
57999W        W26228  44.862   8.789  11.044
58000W        W26229  38.726  21.035   5.075
58001W        W26230  38.811  32.694  14.348
58002W        W26231   4.742  19.751  11.164
58003W        W26232  30.305  42.274  13.890
58004W        W26233  44.920   9.613   2.463
58005W        W26234  18.132   3.332   1.212
58006W        W26235  39.006  32.603   4.475
58007W        W26236   6.856   1.486   2.371
58008W        W26237  26.585  19.591  11.912
58009W        W26238  19.781  26.098  12.336
58010W        W26239  15.251  32.022   1.478
58011W        W26240   6.659   5.833   1.468
58012W        W26241  12.704  44.847  13.835
58013W        W26242   2.150  25.433  12.859
58014W        W26243   3.034  39.373  10.518
58015W        W26244  37.952  20.937  12.176
58016W        W26245  29.114  12.117   0.384
58017W        W26246  32.805  44.957  10.506
58018W        W26247  17.066  42.716  13.846
58019W        W26248   3.812  23.445   4.388
58020W        W26249   9.198   0.961   1.295
58021W        W26250  23.825   1.677   1.911
58022W        W26251  20.565  26.510  12.583
58023W        W26252  25.470   4.458  11.222
58024W        W26253  35.111  26.300   1.266
58025W        W26254  32.371  31.881   1.827
58026W        W26255  38.258  16.203  13.461
58027W        W26256  36.902  35.459   0.668
58028W        W26257  19.347  13.157  10.977
58029W        W26258  26.194  38.548  10.562
58030W        W26259  28.231   3.258  11.230
58031W        W26260  26.917  33.618  13.561
58032W        W26261  16.109  19.492  11.196
58033W        W26262  39.905  11.124   1.332
58034W        W26263   3.682  34.474  10.273
58035W        W26264  18.108  31.058   1.569
58036W        W26265  28.454  33.361   4.238
58037W        W26266  29.455  17.136  11.488
58038W        W26267  24.153  29.766   2.215
58039W        W26268  21.261  24.426  14.087
58040W        W26269   1.158  35.039   0.806
58041W        W26270  21.285  25.146  14.319
58042W        W26271  21.574  24.854  11.139
58043W        W26272   0.207   8.252  10.453
58044W        W26273  22.073   4.207  13.048
58045W        W26274  10.333  34.347  13.499
58046W        W26275  11.693  14.554  10.312
58047W        W26276  35.441   8.825   2.418
58048W        W26277  14.728   7.381  12.611
58049W        W26278  18.381  31.261   5.471
58050W        W26279  11.278  23.596  12.945
58051W        W26280  37.185  43.679   1.811
58052W        W26281  42.566  44.250  12.067
58053W        W26282  11.765  29.054   2.082
58054W        W26283  31.018  29.637   1.847
58055W        W26284  32.149  42.295   4.386
58056W        W26285  28.839  29.693  13.084
58057W        W26286  32.127  43.416   1.828
58058W        W26287  33.878  13.812   3.316
58059W        W26288  26.118  16.778  12.428
58060W        W26289  10.728  36.522  10.282
58061W        W26290  39.753  43.960  12.444
58062W        W26291  43.028  31.666   1.962
58063W        W26292  25.949   3.413  12.641
58064W        W26293  40.434  19.933   5.076
58065W        W26294  34.986  28.317  11.192
58066W        W26295  36.541   2.637  11.238
58067W        W26296   5.317   9.052  12.105
58068W        W26297  33.840  44.331   1.412
58069W        W26298  37.826  41.511  11.674
58070W        W26299   1.433  43.204   0.685
58071W        W26300  44.860   3.818  10.685
58072W        W26301  24.853  29.513   5.036
58073W        W26302  23.712  15.519  12.028
58074W        W26303  39.349  35.697   0.634
58075W        W26304  37.330  17.565   3.304
58076W        W26305  39.990  37.400   3.766
58077W        W26306   8.445   9.017  13.018
58078W        W26307  44.922  20.753  12.230
58079W        W26308  15.576  33.354   4.157
58080W        W26309  41.602  14.303   2.171
58081W        W26310   6.780  24.098  11.570
58082W        W26311  10.771  36.265  13.114
58083W        W26312  11.912  16.543   4.150
58084W        W26313  18.821  17.458  10.820
58085W        W26314  19.638  23.932   0.748
58086W        W26315  22.338  25.113  11.529
58087W        W26316  21.823  44.503  12.739
58088W        W26317  31.834  20.254  13.094
58089W        W26318  12.304  20.803   4.334
58090W        W26319  22.205  38.451  12.865
58091W        W26320  26.481  23.615   4.364
58092W        W26321   2.162  44.488  13.828
58093W        W26322  34.514  40.520   1.764
58094W        W26323  22.705  44.966   3.753
58095W        W26324  31.167  26.048   1.441
58096W        W26325  32.507  25.402  14.574
58097W        W26326  28.827  15.413  11.897
58098W        W26327  12.048  34.572  12.010
58099W        W26328  31.931  16.305  13.931
58100W        W26329  29.173  25.511  12.769
58101W        W26330  14.254  30.418  13.763
58102W        W26331  43.049  16.404  14.213
58103W        W26332  28.009  10.268  12.040
58104W        W26333  44.176   2.384   4.474
58105W        W26334  34.551  38.966   3.237
58106W        W26335  35.039   5.420  12.555
58107W        W26336  21.143  18.264  10.741
58108W        W26337   8.250   4.430   4.841
58109W        W26338  16.094  28.906   2.611
58110W        W26339  11.736  22.779  13.380
58111W        W26340  31.424  37.398   3.134
58112W        W26341  35.800   2.351   3.663
58113W        W26342  40.780   2.642  13.406
58114W        W26343  17.974  28.133  10.702
58115W        W26344  21.049  17.457   4.907
58116W        W26345  16.572  33.598  13.228
58117W        W26346  20.486  29.839  14.315
58118W        W26347  38.498  40.495   2.858
58119W        W26348  29.999  43.646  12.979
58120W        W26349  39.226  41.369   4.596
58121W        W26350  44.857  36.793   0.419
58122W        W26351  25.105   9.953  13.875
58123W        W26352  17.117  34.578  14.973
58124W        W26353  25.495   8.736   1.266
58125W        W26354   2.955  22.641   3.694
58126W        W26355  26.947  20.199   2.839
58127W        W26356  36.119  29.135  14.711
58128W        W26357   7.243  30.996  10.525
58129W        W26358  12.219   8.090  10.844
58130W        W26359  18.124  32.365   4.165
58131W        W26360  30.414  25.173   2.423
58132W        W26361  32.113   4.775  13.957
58133W        W26362  38.691   5.861   3.841
58134W        W26363  30.952  22.742   4.326
58135W        W26364  19.867   0.799   5.188
58136W        W26365   7.495  16.207  11.381
58137W        W26366  24.103  31.697   4.902
58138W        W26367  38.492  35.949  13.535
58139W        W26368  30.617  22.673   4.823
58140W        W26369  13.792  12.683  12.027
58141W        W26370   0.889  15.637  10.716
58142W        W26371  10.878  23.971  10.577
58143W        W26372  22.065  20.981   0.331
58144W        W26373  34.349   7.857  11.218
58145W        W26374   3.449  29.044  12.524
58146W        W26375  18.735  19.563   3.180
58147W        W26376   9.224   9.163  10.716
58148W        W26377  19.189   6.948  12.682
58149W        W26378  41.922  36.103   5.158
58150W        W26379  28.657  25.156  14.425
58151W        W26380  34.046   9.760   4.735
58152W        W26381  17.537  25.214   4.334
58153W        W26382  36.787  10.776   1.249
58154W        W26383   6.919  32.161  12.183
58155W        W26384  40.374   0.561  11.970
58156W        W26385  13.958  10.775   5.058
58157W        W26386  44.500   8.175  12.977
58158W        W26387  45.000  10.162   3.229
58159W        W26388  14.117  36.228  13.880
58160W        W26389  39.284  11.349  14.613
58161W        W26390   2.970   7.209   1.051
58162W        W26391  31.694   5.189   2.491
58163W        W26392  27.999  17.884  13.581
58164W        W26393  43.853   4.525  14.827
58165W        W26394  44.926  32.406  10.495
58166W        W26395   4.938   0.234   4.646
58167W        W26396  12.234   9.913   2.359
58168W        W26397  10.103  14.835  13.396
58169W        W26398   0.994  41.012  10.431
58170W        W26399  44.251   3.740   0.314
58171W        W26400   5.566  30.991   0.703
58172W        W26401   6.425  18.795  14.397
58173W        W26402   3.114  28.541  13.450
58174W        W26403  37.544  20.563   3.663
58175W        W26404   5.733  25.207   3.697
58176W        W26405  20.244   8.311   1.067
58177W        W26406  43.385  29.894   0.069
58178W        W26407  35.656   9.320   2.348
58179W        W26408  21.760  43.998   0.747
58180W        W26409  13.173  28.742  11.050
58181W        W26410  24.647  10.626  14.354
58182W        W26411  34.287  25.819  11.619
58183W        W26412  35.208  20.800   1.548
58184W        W26413   3.200   0.186  12.498
58185W        W26414  26.148   1.795  11.496
58186W        W26415  37.864  36.574  11.132
58187W        W26416  16.264  23.737   4.291
58188W        W26417  21.095  38.874   3.241
58189W        W26418   3.707  36.170  14.232
58190W        W26419  39.910  25.314   1.228
58191W        W26420   0.036  15.537   0.832
58192W        W26421  14.881  17.507  11.641
58193W        W26422  39.930  29.644   1.750
58194W        W26423  37.299  44.523   4.521
58195W        W26424  18.542  19.148  13.867
58196W        W26425  16.559  38.824  12.065
58197W        W26426  26.190   3.864   0.878
58198W        W26427   6.354  12.832   2.827
58199W        W26428   2.445  26.952   0.473
58200W        W26429  32.133  20.269   3.863
58201W        W26430   5.002   8.768   0.734
58202W        W26431   0.090   7.218  14.264
58203W        W26432  44.136  38.909   1.923
58204W        W26433  42.419  38.659  13.912
58205W        W26434  11.600  37.169  13.794
58206W        W26435   0.015  15.063   1.750
58207W        W26436  20.246   0.837   3.243
58208W        W26437  32.392  29.308  11.651
58209W        W26438  26.956  23.226   1.401
58210W        W26439  44.533  43.486  11.289
58211W        W26440  17.082  32.352   0.803
58212W        W26441  20.585   0.807  13.131
58213W        W26442  33.952   3.307   0.954
58214W        W26443  29.480  25.373   9.976
58215W        W26444  27.914  44.918  11.287
58216W        W26445  12.945  15.316   4.546
58217W        W26446   6.767  30.724  12.134
58218W        W26447  15.526  33.085  11.575
58219W        W26448  23.276   9.169  13.834
58220W        W26449  42.993   3.811  13.278
58221W        W26450  26.646  34.443   3.165
58222W        W26451   1.759  18.830  11.516
58223W        W26452   3.985   0.244  12.773
58224W        W26453  18.236  14.354  13.294
58225W        W26454   8.259   0.059  12.444
58226W        W26455  23.128  39.381  12.486
58227W        W26456  19.564  32.345   2.830
58228W        W26457  21.507   8.405  11.278
58229W        W26458  22.951  25.765  14.690
58230W        W26459  31.864  12.714   4.267
58231W        W26460  35.874  22.305   0.964
58232W        W26461   0.154   9.136  12.917
58233W        W26462   8.164  14.363  11.666
58234W        W26463  22.807  22.488  11.012
58235W        W26464  25.537  16.751   0.946
58236W        W26465  26.162  23.958   4.614
58237W        W26466  19.088  42.856   4.340
58238W        W26467  13.076  39.799   3.233
58239W        W26468  10.664   9.343  14.045
58240W        W26469  24.586  30.949   4.240
58241W        W26470  25.929  20.262   2.013
58242W        W26471   9.088   3.883   2.643
58243W        W26472   2.339   3.464   1.013
58244W        W26473  23.656   0.375  14.522
58245W        W26474  42.881  39.541   0.924
58246W        W26475  21.105  27.719  14.566
58247W        W26476  19.772  14.103   0.094
58248W        W26477  21.074  41.390  14.862
58249W        W26478  22.451  13.155   3.236
58250W        W26479  37.981   5.116   5.167
58251W        W26480  33.115  15.967  10.599
58252W        W26481  40.405  41.536   2.323
58253W        W26482   3.708  41.109   2.359
58254W        W26483  14.930  33.893  12.873
58255W        W26484  30.071  14.351  11.524
58256W        W26485   0.267  42.292   0.424
58257W        W26486  22.175  37.863   1.729
58258W        W26487  35.634  13.113  12.124
58259W        W26488  32.969  42.275  14.895
58260W        W26489  28.943   1.606   2.464
58261W        W26490  25.124  25.288  13.116
58262W        W26491  12.694  18.757   3.834
58263W        W26492  29.146  33.492   0.920
58264W        W26493   8.599  18.521  11.662
58265W        W26494   3.625  39.463   4.191
58266W        W26495  31.402  21.520  14.482
58267W        W26496  44.813  33.875  12.463
58268W        W26497  25.582  21.956   3.723
58269W        W26498  20.558  21.301  12.035
58270W        W26499  44.307  32.840  12.986
58271W        W26500  21.213  41.935   2.320
58272W        W26501  37.792  34.017   2.316
58273W        W26502  17.659  35.355  13.847
58274W        W26503  19.176  35.119  12.054
58275W        W26504  40.390  13.169   3.865
58276W        W26505  35.998  39.325   0.869
58277W        W26506  44.838  25.914   4.098
58278W        W26507  41.302   5.836   2.168
58279W        W26508   9.499  12.825  13.310
58280W        W26509   5.721  11.992   1.247
58281W        W26510   4.215   6.623  14.720
58282W        W26511  12.197  12.615   3.182
58283W        W26512  10.381   7.753  10.666
58284W        W26513  33.901  27.155  11.010
58285W        W26514   9.425  29.696   4.475
58286W        W26515  40.832  19.744   4.075
58287W        W26516  16.807  18.244   5.014
58288W        W26517  34.037  15.103   0.308
58289W        W26518  14.745  41.352   0.892
58290W        W26519  25.433  25.953  12.136
58291W        W26520  28.603  10.887  14.794
58292W        W26521   9.213  18.664   1.681
58293W        W26522  35.389  19.762   4.804
58294W        W26523  32.633  15.048   3.640
58295W        W26524  39.009  29.471  12.867
58296W        W26525  43.895   1.456   0.920
58297W        W26526  40.384   6.146  14.047
58298W        W26527  10.243  34.436   4.542
58299W        W26528  38.479  41.511   3.924
58300W        W26529  35.342  41.624   2.612
58301W        W26530  38.937  39.276   4.080
58302W        W26531  24.551  35.167  14.874
58303W        W26532   7.857  38.995   0.788
58304W        W26533  22.494   8.212  13.392
58305W        W26534   9.034  37.830  14.035
58306W        W26535  12.580  15.269   0.148
58307W        W26536  25.022  27.277   4.054
58308W        W26537   8.848  37.325  13.721
58309W        W26538  23.660  10.044   0.734
58310W        W26539  44.454  35.208  11.689
58311W        W26540  24.673   4.135  13.332
58312W        W26541  43.245  20.744  13.871
58313W        W26542  26.125  18.841  14.332
58314W        W26543  34.483   3.490   3.796
58315W        W26544  10.156  18.472  12.111
58316W        W26545  10.143   6.154  11.182
58317W        W26546  10.425  28.711  10.632
58318W        W26547  42.440  44.460  14.051
58319W        W26548  35.615  19.550   3.364
58320W        W26549   2.019  26.479  12.170
58321W        W26550  29.652   9.136   4.671
58322W        W26551  42.770   5.055   1.217
58323W        W26552  27.440  43.225   0.729
58324W        W26553  33.542   6.795   4.835
58325W        W26554  35.768  16.978  10.134
58326W        W26555  34.004   5.760   2.394
58327W        W26556  18.759  10.151  10.697
58328W        W26557  26.603  44.525   3.269
58329W        W26558  24.130   0.271   2.835
58330W        W26559  28.625  23.310   4.285
58331W        W26560  17.116   5.243   3.776
58332W        W26561  33.820  19.743   0.999
58333W        W26562   3.224  25.575   1.364
58334W        W26563  36.984   2.799  13.911
58335W        W26564  30.003   2.763   2.755
58336W        W26565  29.412   2.031   0.175
58337W        W26566   8.906   5.332   1.384
58338W        W26567   8.748   1.721   1.229
58339W        W26568  31.656  25.081   3.802
58340W        W26569   3.947   7.443  13.209
58341W        W26570  14.987  11.776   1.922
58342W        W26571  18.533  40.623   4.971
58343W        W26572  24.413  12.647  11.999
58344W        W26573   3.537  32.973   1.175
58345W        W26574  33.321  16.805  14.529
58346W        W26575  11.111  27.526   1.364
58347W        W26576   4.306  12.322   4.571
58348W        W26577  15.340  11.678   2.355
58349W        W26578  28.681  10.354  13.405
58350W        W26579   7.675  19.746   2.473
58351W        W26580  21.746  21.212   3.295
58352W        W26581  36.503   3.400   4.027
58353W        W26582  19.604  18.285   1.482
58354W        W26583  10.330  10.464   2.190
58355W        W26584   6.486   5.239  11.175
58356W        W26585   2.819  20.014  14.910
58357W        W26586  20.556   4.249  11.420
58358W        W26587  31.878  34.579   4.533
58359W        W26588   1.868  32.875  12.562
58360W        W26589  26.439  11.816  13.824
58361W        W26590  31.109   7.214  13.204
58362W        W26591  40.519  33.480  13.529
58363W        W26592  35.063  44.562   3.858
58364W        W26593  27.982  31.657  14.604
58365W        W26594  15.135  14.151  10.108
58366W        W26595  11.583  22.441   4.945
58367W        W26596  29.761   8.844  12.021
58368W        W26597  36.462  26.078   2.193
58369W        W26598  37.123  15.071   2.281
58370W        W26599  32.928  19.169  11.568
58371W        W26600  16.361  31.032  12.941
58372W        W26601  25.125   8.398  14.037
58373W        W26602  28.707   1.613  14.867
58374W        W26603   1.867  25.712  12.503
58375W        W26604   4.668  28.431   3.601
58376W        W26605  44.035  33.278   0.392
58377W        W26606  11.908  33.151  14.442
58378W        W26607  14.133  33.152  13.491
58379W        W26608  38.827  28.195   0.559
58380W        W26609   7.234  21.976  11.845
58381W        W26610  43.361   5.150  11.175
58382W        W26611  25.578  33.805  11.162
58383W        W26612  27.895  35.539   2.503
58384W        W26613   2.036   4.385  12.125
58385W        W26614  39.476  13.106  13.992
58386W        W26615   1.618  10.908  13.566
58387W        W26616  29.742  23.020  13.093
58388W        W26617   8.772  40.328  13.928
58389W        W26618  30.540  26.138   3.599
58390W        W26619  43.245  36.909  13.065
58391W        W26620  15.171  20.590   4.085
58392W        W26621  37.584  25.077   1.223
58393W        W26622  43.538  21.216   3.144
58394W        W26623  24.953  36.833   0.356
58395W        W26624  21.752  39.249   1.596
58396W        W26625  13.779  16.255  14.174
58397W        W26626  44.135  39.805   4.650
58398W        W26627  13.279   7.077  11.391
58399W        W26628  34.952  42.944   0.761
58400W        W26629   3.152  28.702  13.952
58401W        W26630   9.214  42.226  11.597
58402W        W26631  27.704  22.903   4.898
58403W        W26632  32.436  10.817  11.895
58404W        W26633   8.271   2.552   4.600
58405W        W26634  41.625  40.060   1.366
58406W        W26635  31.376  31.951  11.901
58407W        W26636  14.197   0.764  14.723
58408W        W26637  19.526  25.748   3.367
58409W        W26638  43.821   2.193   3.207
58410W        W26639  18.970  12.803   1.282
58411W        W26640  38.571   3.891   0.155
58412W        W26641  10.413  42.995  14.783
58413W        W26642  31.268   2.659   2.494
58414W        W26643  30.832   6.602   0.351
58415W        W26644  10.372   7.381  14.315
58416W        W26645  35.870   1.237  10.453
58417W        W26646  43.389  16.083  13.496
58418W        W26647  37.762  17.111  12.002
58419W        W26648  26.969  43.985  14.874
58420W        W26649   2.177  44.066  14.926
58421W        W26650   4.638  10.585  14.138
58422W        W26651  36.895   4.232  11.351
58423W        W26652  40.978  28.405  14.518
58424W        W26653  28.237  14.072   1.503
58425W        W26654  34.527   5.945  10.715
58426W        W26655  18.705  36.381   0.929
58427W        W26656  17.168  19.668   2.945
58428W        W26657  23.492  16.055   2.882
58429W        W26658   2.846  33.458  11.868
58430W        W26659  37.005  34.775   4.191
58431W        W26660  34.087  38.394  12.448
58432W        W26661  28.901  25.638  14.425
58433W        W26662  36.560  14.299  13.523
58434W        W26663  14.643   5.251  14.425
58435W        W26664  12.057  38.948   2.189
58436W        W26665   5.216  14.342   0.957
58437W        W26666  31.019  20.072  14.045
58438W        W26667   0.467  39.479   1.790
58439W        W26668  42.889  23.668   0.804
58440W        W26669  18.595  37.577   1.443
58441W        W26670  27.533  20.225   2.162
58442W        W26671   8.567  21.204  13.888
58443W        W26672  27.721  35.727  11.473
58444W        W26673   7.208  20.563  12.989
58445W        W26674   1.230   2.130  11.526
58446W        W26675  19.169  34.491  11.976
58447W        W26676   8.636   3.884  13.531
58448W        W26677  12.177  18.603   1.408
58449W        W26678  11.097  13.758   4.119
58450W        W26679  37.343  12.710   2.289
58451W        W26680  39.897  18.871   2.841
58452W        W26681   0.219  10.747  11.557
58453W        W26682  25.175   4.466  13.984
58454W        W26683  14.783  24.973   4.668
58455W        W26684  27.916  17.072  13.048
58456W        W26685  29.564   3.905  11.776
58457W        W26686  16.138   2.413   0.197
58458W        W26687  31.445  26.528   2.593
58459W        W26688  11.231   0.702  11.046
58460W        W26689  29.634  30.915  13.574
58461W        W26690  30.028  29.604  12.307
58462W        W26691  16.811   7.713   1.699
58463W        W26692  33.558  18.192  13.415
58464W        W26693  13.276  38.585   4.145
58465W        W26694  42.997  36.005   3.118
58466W        W26695  37.310  24.519  11.528
58467W        W26696  15.331  15.932   2.356
58468W        W26697   5.701  21.478   0.363
58469W        W26698  15.309  14.487  10.582
58470W        W26699  31.965  38.446  13.858
58471W        W26700  21.258  40.502  13.361
58472W        W26701  21.004  27.016  13.035
58473W        W26702   6.859  11.795   3.818
58474W        W26703  33.294  25.044  13.601
58475W        W26704   7.638  12.253   4.072
58476W        W26705  42.334  40.450   1.795
58477W        W26706  30.519  36.341   1.173
58478W        W26707   6.698  40.336   3.799
58479W        W26708  24.123  14.205   2.248
58480W        W26709  41.410  17.585   4.118
58481W        W26710   2.275  36.382   2.664
58482W        W26711   6.240  17.427  14.308
58483W        W26712  37.134  34.919   3.734
58484W        W26713   5.827   9.824  14.357
58485W        W26714   8.770  18.233  12.045
58486W        W26715  10.677  39.808   4.626
58487W        W26716   3.345  16.125  11.206
58488W        W26717  16.795   9.899   1.636
58489W        W26718   0.737   5.225  12.873
58490W        W26719   6.242   6.417  14.773
58491W        W26720  38.607   9.276   0.510
58492W        W26721  16.297  14.436   0.035
58493W        W26722  44.483  34.551  14.859
58494W        W26723  38.410  30.521   3.885
58495W        W26724  41.764  32.516  10.107
58496W        W26725   4.675   5.003   4.214
58497W        W26726   6.159  32.642   1.451
58498W        W26727  18.073   5.760  10.527
58499W        W26728  38.977   3.502   5.006
58500W        W26729   1.665   5.777  10.632
58501W        W26730  19.476  37.857   0.046
58502W        W26731  13.420   8.246  13.799
58503W        W26732  30.109  19.304  12.648
58504W        W26733  40.540  34.382  13.427
58505W        W26734  41.496  12.573   2.830
58506W        W26735  24.237  19.066  11.107
58507W        W26736  12.940  33.035  13.953
58508W        W26737  39.037  42.475  12.477
58509W        W26738  35.120  16.769  10.645
58510W        W26739  17.105  10.889   2.187
58511W        W26740   0.080  18.011  10.939
58512W        W26741  14.088  36.577  11.894
58513W        W26742   9.173  13.275   1.388
58514W        W26743  42.571  18.446   1.667
58515W        W26744   8.237   0.880  14.905
58516W        W26745   4.734  35.020   4.656
58517W        W26746  17.472  39.895   1.453
58518W        W26747   4.308   4.847  12.943
58519W        W26748  41.458  41.476   1.690
58520W        W26749  26.672   5.818  14.320
58521W        W26750  27.847  36.393  13.041
58522W        W26751  16.617  32.388   3.393
58523W        W26752  35.965  20.425  14.860
58524W        W26753  22.167  18.116  12.072
58525W        W26754  43.603  36.204  14.579
58526W        W26755  17.002   3.004   1.007
58527W        W26756  25.447  25.019  12.800
58528W        W26757  13.879  26.441  11.189
58529W        W26758  13.167   0.224  13.256
58530W        W26759   7.698  33.406  14.853
58531W        W26760  32.709  15.339  12.128
58532W        W26761   3.166   1.744   4.315
58533W        W26762  14.073  22.294   3.608
58534W        W26763  27.978  32.453   4.123
58535W        W26764   7.066  32.054  10.943
58536W        W26765  37.581  23.210   2.625
58537W        W26766  18.761  13.272   0.519
58538W        W26767   1.251  16.309   0.818
58539W        W26768  29.124   5.202   0.865
58540W        W26769  23.537  31.366   1.277
58541W        W26770  37.991  18.141   3.618
58542W        W26771  23.532  13.828   4.390
58543W        W26772  40.858   6.916  11.130
58544W        W26773  38.341  43.131   2.759
58545W        W26774  44.423   4.809  13.599
58546W        W26775   7.646  13.651  12.157
58547W        W26776  15.191  26.159   0.485
58548W        W26777  36.044  27.557   0.826
58549W        W26778   0.418  23.736   3.655
58550W        W26779  21.763  20.435   2.609
58551W        W26780  29.405   1.252   2.441
58552W        W26781  29.140  31.144   1.851
58553W        W26782  43.484  13.522   2.953
58554W        W26783  43.775  16.727  13.057
58555W        W26784  34.610  30.546   3.601
58556W        W26785  20.624  29.555  12.293
58557W        W26786  19.159  26.856   1.018
58558W        W26787   2.492  26.039   2.313
58559W        W26788  34.414  32.806   1.236
58560W        W26789  26.975  32.897  14.161
58561W        W26790  39.964  44.416  12.618
58562W        W26791  19.248  43.834  13.484
58563W        W26792  43.388  35.602   1.394
58564W        W26793  16.132  10.641  14.437
58565W        W26794   2.413  43.279   2.528
58566W        W26795  34.712   2.275  11.658
58567W        W26796  15.781  16.306  11.930
58568W        W26797  22.215   9.145   2.545
58569W        W26798  40.333  21.063  14.919
58570W        W26799  26.502  11.108   4.076
58571W        W26800   6.877  37.022   4.073
58572W        W26801  24.157  15.153   1.210
58573W        W26802  27.974  42.826   0.470
58574W        W26803   0.641  27.461  11.117
58575W        W26804   6.737  31.592   2.266
58576W        W26805  38.583   6.557   2.717
58577W        W26806  36.534  39.706   2.164
58578W        W26807  21.549  11.612  12.907
58579W        W26808  21.028  35.034   3.281
58580W        W26809   7.782   6.004  14.385
58581W        W26810  11.929  31.763   2.827
58582W        W26811  19.511  27.942   0.756
58583W        W26812  35.108  32.582   3.618
58584W        W26813  25.313   4.216   2.634
58585W        W26814  30.249  25.091   3.777
58586W        W26815  42.052  40.006   2.391
58587W        W26816  13.054  10.083  13.552
58588W        W26817  10.703  10.317  13.900
58589W        W26818   3.677   9.384   0.786
58590W        W26819   3.387   3.309   4.573
58591W        W26820   8.398  38.422  11.241
58592W        W26821  16.965  26.742   0.958
58593W        W26822  40.687  17.785  12.609
58594W        W26823  42.442  13.221   4.775
58595W        W26824  25.498  38.793  10.573
58596W        W26825  37.269  26.247   3.712
58597W        W26826  36.895   3.066  10.584
58598W        W26827  20.206  23.704  12.351
58599W        W26828  33.497  36.727   0.138
58600W        W26829  10.128  40.252  11.911
58601W        W26830  44.432  26.942   2.808
58602W        W26831  19.841  43.949  10.579
58603W        W26832  14.526  42.006  12.025
58604W        W26833   0.395  21.691  12.807
58605W        W26834  39.682  29.009   2.235
58606W        W26835  33.508  31.347  14.257
58607W        W26836  23.759  28.240   0.243
58608W        W26837  42.952  36.519  12.101
58609W        W26838  28.973  39.538  14.272
58610W        W26839  25.021  19.150  13.809
58611W        W26840  31.379  12.306   4.628
58612W        W26841  28.999  44.601  13.572
58613W        W26842   9.217  28.157  11.882
58614W        W26843  43.306  31.624  14.290
58615W        W26844  31.022   0.463  14.747
58616W        W26845  10.704  36.022  12.675
58617W        W26846  14.226   6.012  12.031
58618W        W26847   2.392  17.122   2.438
58619W        W26848   1.378  23.584   0.270
58620W        W26849  17.903  33.908   0.983
58621W        W26850  22.102   0.016  14.474
58622W        W26851  19.011  16.696   0.790
58623W        W26852   6.236  43.968   1.858
58624W        W26853  27.447   2.876   2.074
58625W        W26854  20.577  22.750   2.234
58626W        W26855  36.145  24.218  12.578
58627W        W26856  18.801  38.866   4.703
58628W        W26857  23.562  30.621  12.370
58629W        W26858  31.116  21.670   4.853
58630W        W26859  20.785  34.639  14.841
58631W        W26860  26.530  25.700   3.684
58632W        W26861  12.648  41.030  12.556
58633W        W26862  37.252   4.865  11.033
58634W        W26863  27.483  34.098   2.287
58635W        W26864  30.570   4.245   2.342
58636W        W26865  18.124  14.231   2.701
58637W        W26866  38.097  18.187  14.419
58638W        W26867  28.067  27.279  10.614
58639W        W26868  23.601   3.735  12.425
58640W        W26869  11.452  17.697  10.577
58641W        W26870  26.046   2.492  11.083
58642W        W26871  11.622  23.652  10.628
58643W        W26872  34.520  37.106  13.650
58644W        W26873  29.656  35.472   0.861
58645W        W26874  24.711  15.276   4.856
58646W        W26875  38.617  28.385  14.731
58647W        W26876   0.647  14.257  14.291
58648W        W26877  31.048  33.978   3.101
58649W        W26878  34.331  27.232   1.447
58650W        W26879  23.530  12.111  11.588
58651W        W26880   0.311  20.798   2.534
58652W        W26881  24.988  32.137   3.163
58653W        W26882  10.649  43.076  13.550
58654W        W26883  33.841   9.296  13.375
58655W        W26884  32.653   6.601  12.622
58656W        W26885  23.500  36.826  14.460
58657W        W26886   2.938   8.948   4.695
58658W        W26887  39.883  40.095   3.470
58659W        W26888  14.366  10.121   2.648
58660W        W26889  37.503   6.717  10.772
58661W        W26890  24.076  23.516  13.865
58662W        W26891  22.225  41.517   2.846
58663W        W26892  37.916   0.828  10.687
58664W        W26893  35.684  17.207   2.833
58665W        W26894  44.445  14.091   0.728
58666W        W26895  26.917   3.070  14.489
58667W        W26896  44.676  31.071  12.341
58668W        W26897   1.773  10.283   4.764
58669W        W26898  22.022  11.631   2.861
58670W        W26899  41.716  24.914   3.640
58671W        W26900  25.415   7.185  13.420
58672W        W26901   9.775  21.630  11.863
58673W        W26902   6.780  15.349  13.376
58674W        W26903  27.717  21.489  12.955
58675W        W26904  36.189  36.769  12.509
58676W        W26905  22.047   2.310  11.833
58677W        W26906   8.975  36.508   0.973
58678W        W26907   3.726  17.460  13.767
58679W        W26908   5.685   7.112   3.621
58680W        W26909  20.578  14.155  14.491
58681W        W26910  32.083  19.391  11.649
58682W        W26911  30.425  34.652  12.700
58683W        W26912  41.483  11.961  11.021
58684W        W26913  41.197   0.742  12.068
58685W        W26914  39.967  22.493   1.873
58686W        W26915   3.121  40.786   4.692
58687W        W26916   0.772   9.385  12.112
58688W        W26917  23.206  35.161  12.957
58689W        W26918   5.653  31.422  10.753
58690W        W26919  43.890  29.659   0.204
58691W        W26920  18.644  24.100  11.546
58692W        W26921   0.407   7.291  10.528
58693W        W26922  19.760  40.993  12.950
58694W        W26923  33.957  12.267   2.704
58695W        W26924  24.057  35.835  13.716
58696W        W26925  20.711   1.204   0.924
58697W        W26926  33.926  25.248   3.636
58698W        W26927  35.402   4.888  14.852
58699W        W26928   9.103   1.185  12.962
58700W        W26929  38.435  25.605   3.697
58701W        W26930  27.974  25.089  10.810
58702W        W26931  26.187   8.906  10.674
58703W        W26932  36.423  31.095  12.925
58704W        W26933  19.510  36.580  11.198
58705W        W26934  13.482  14.153  11.208
58706W        W26935  40.854  10.864  13.024
58707W        W26936  24.950  23.116  11.116
58708W        W26937  19.890  24.788   3.354
58709W        W26938   4.816  22.749   4.026
58710W        W26939  34.323   8.299   3.156
58711W        W26940  42.968  28.116  13.492
58712W        W26941  43.272  22.020  12.834
58713W        W26942   5.125  38.440   0.236
58714W        W26943   0.954  39.806   2.031
58715W        W26944  10.635  26.037  11.119
58716W        W26945  24.126  27.913  11.542
58717W        W26946  20.311  44.789  14.076
58718W        W26947  29.145  42.488  14.574
58719W        W26948  32.991   8.455  13.288
58720W        W26949  37.159  29.540   0.668
58721W        W26950  18.625  17.189  13.969
58722W        W26951   3.688  11.311  13.969
58723W        W26952  30.743  40.281  12.020
58724W        W26953  29.569  14.292  12.041
58725W        W26954  28.664  44.295  11.085
58726W        W26955  20.980  18.775   3.268
58727W        W26956  17.138   2.189   2.680
58728W        W26957   1.780  33.874   2.233
58729W        W26958  20.905  14.309   4.552
58730W        W26959  32.908  32.921  14.469
58731W        W26960  12.560  20.902  11.117
58732W        W26961   8.576  26.154   4.885
58733W        W26962  37.519   3.400   3.353
58734W        W26963  36.228  44.980  11.939
58735W        W26964  26.601  24.446   0.827
58736W        W26965  24.123  41.832   2.406
58737W        W26966  27.953   3.837   1.710
58738W        W26967  28.146  36.057  12.013
58739W        W26968  33.459  18.822   0.114
58740W        W26969   7.353   3.767   1.711
58741W        W26970  38.756   1.979   0.653
58742W        W26971   7.222  35.860   1.821
58743W        W26972  29.580  37.633   1.188
58744W        W26973  19.731  40.231   0.831
58745W        W26974  34.461  27.241   2.362
58746W        W26975  42.831  26.447   2.467
58747W        W26976  41.513  25.983   4.644
58748W        W26977  18.858  28.103  11.924
58749W        W26978  32.356  16.023   5.211
58750W        W26979  20.545  19.514   2.072
58751W        W26980   1.197  21.357  10.307
58752W        W26981  44.566  40.180  14.358
58753W        W26982  44.898   7.809  12.090
58754W        W26983   9.619   3.938   0.225
58755W        W26984   8.389  38.948   0.857
58756W        W26985  40.865  38.671   4.200
58757W        W26986  41.648  40.187   3.175
58758W        W26987   3.672  18.826  14.718
58759W        W26988  13.284  38.383  13.588
58760W        W26989  13.937  32.286  11.570
58761W        W26990  40.319  11.497   0.940
58762W        W26991   3.282  42.180   4.185
58763W        W26992  41.072   0.987   1.839
58764W        W26993  16.319  30.468   3.748
58765W        W26994  26.101   1.254  13.577
58766W        W26995  24.178  26.777   4.102
58767W        W26996   9.127   0.234  10.294
58768W        W26997  41.779   0.853  11.301
58769W        W26998  22.709  16.690   1.936
58770W        W26999  17.766  23.338   0.804
58771W        W27000  10.623   3.755   2.767
58772W        W27001  31.699   9.292   1.736
58773W        W27002  12.917  27.526  12.954
58774W        W27003  28.987  40.326   3.405
58775W        W27004  29.549  12.353   0.208
58776W        W27005  39.391  41.027   0.685
58777W        W27006  43.468  28.480   4.816
58778W        W27007  25.646  21.904   2.376
58779W        W27008  15.921  41.906  14.991
58780W        W27009  18.697  38.470   2.602
58781W        W27010  33.411  31.855  11.023
58782W        W27011  19.715   7.660   1.496
58783W        W27012  15.691  17.866  11.740
58784W        W27013  37.020  22.621   3.853
58785W        W27014  42.997   4.605  14.217
58786W        W27015   5.184  15.735  12.444
58787W        W27016  40.006  26.809   2.813
58788W        W27017  28.077  16.709  14.687
58789W        W27018  37.899  39.990   1.740
58790W        W27019  17.307  42.265   4.633
58791W        W27020  40.447   8.014  11.994
58792W        W27021   3.697  38.031   3.238
58793W        W27022   5.234   1.981   4.133
58794W        W27023  15.365  41.469  14.236
58795W        W27024   6.806  35.103   0.917
58796W        W27025  39.340  37.796  14.286
58797W        W27026  33.834  24.711  12.079
58798W        W27027  26.560   5.374   2.654
58799W        W27028   2.878  36.405  13.476
58800W        W27029   6.039  38.344  12.905
58801W        W27030   3.251   6.833  13.982
58802W        W27031  11.307  41.818  12.958
58803W        W27032   2.241  33.446  14.424
58804W        W27033  19.069  13.825   2.430
58805W        W27034   6.137  31.880  14.988
58806W        W27035  24.327  28.561   2.366
58807W        W27036  31.698  10.798  13.615
58808W        W27037  21.629  18.470  12.983
58809W        W27038   0.336  34.963  10.581
58810W        W27039   8.655  10.235  11.167
58811W        W27040  38.913  10.064   4.964
58812W        W27041  17.318   9.165   2.104
58813W        W27042  40.385  19.657  11.186
58814W        W27043  11.034   2.166   3.293
58815W        W27044  22.091  14.687   1.669
58816W        W27045  24.585   6.539  11.946
58817W        W27046  35.605  23.443  14.663
58818W        W27047  17.376  44.848   4.138
58819W        W27048  21.934  14.214   1.880
58820W        W27049  20.070  40.556  12.163
58821W        W27050   8.940  30.565  12.914
58822W        W27051  32.718  38.917   2.824
58823W        W27052  26.004  19.442  12.697
58824W        W27053   0.925   5.855  14.855
58825W        W27054  25.551   5.765   0.341
58826W        W27055  28.589  20.573   2.212
58827W        W27056  23.989  28.181   2.284
58828W        W27057   8.701  23.074  13.347
58829W        W27058  33.923  10.282   0.387
58830W        W27059  16.187  19.832   2.804
58831W        W27060  25.051  37.583  11.938
58832W        W27061  25.264  16.341  10.742
58833W        W27062   9.537  31.146  12.538
58834W        W27063  18.156  30.898   5.006
58835W        W27064  32.061  42.584  12.529
58836W        W27065  24.652  16.659  12.442
58837W        W27066  18.349  31.229   0.170
58838W        W27067   7.069  32.512   4.576
58839W        W27068  11.364  40.866  13.002
58840W        W27069   9.497   2.150  12.305
58841W        W27070  40.045  13.245   0.724
58842W        W27071   9.719   5.408   4.864
58843W        W27072   9.187  14.590  13.521
58844W        W27073  33.658  19.303  14.336
58845W        W27074   5.193  32.345   4.126
58846W        W27075  22.777  44.296  11.053
58847W        W27076   6.693   1.994  11.084
58848W        W27077  41.483  15.041   2.335
58849W        W27078  24.676  39.902  14.964
58850W        W27079   2.402   3.174   1.791
58851W        W27080  25.212  26.176  10.733
58852W        W27081   4.274  30.742  14.496
58853W        W27082  12.568  33.213  11.553
58854W        W27083  31.227   4.296  13.881
58855W        W27084  20.535   8.201   2.029
58856W        W27085  36.898  18.962  12.996
58857W        W27086   5.274  26.947   3.114
58858W        W27087   1.254  32.638  11.106
58859W        W27088  26.095  42.052  13.569
58860W        W27089  28.379  10.420  11.147
58861W        W27090  44.419  11.439  12.430
58862W        W27091  17.031  34.859  11.627
58863W        W27092  32.793  36.102   5.066
58864W        W27093  29.003   8.653  11.417
58865W        W27094  24.345   0.886  11.469
58866W        W27095  40.866  19.955  12.143
58867W        W27096  38.891   8.319   2.416
58868W        W27097  25.141   8.171  12.046
58869W        W27098  32.382  12.207   3.152
58870W        W27099   3.721  29.571  12.218
58871W        W27100  25.409  32.596   3.246
58872W        W27101  20.678  19.952  10.466
58873W        W27102  25.577  15.107  12.876
58874W        W27103  37.458  38.990  14.896
58875W        W27104  35.212  28.060  14.496
58876W        W27105   9.719  18.090  13.948
58877W        W27106  31.954  23.685   0.398
58878W        W27107  17.591   8.757   2.292
58879W        W27108  32.803  29.462   3.714
58880W        W27109  41.143  19.603   1.875
58881W        W27110  14.841   4.876   2.428
58882W        W27111  43.331   3.491   3.304
58883W        W27112  17.814  11.869  14.483
58884W        W27113  21.696   1.704   4.077
58885W        W27114  36.385  27.674   3.323
58886W        W27115  19.231   9.331  12.392
58887W        W27116  36.298  33.854  13.388
58888W        W27117  16.569   9.698   2.574
58889W        W27118   9.311  22.599   3.645
58890W        W27119   0.339  12.656  10.916
58891W        W27120   1.012  30.775   3.333
58892W        W27121  20.184  42.736   3.599
58893W        W27122  36.455  16.519   2.709
58894W        W27123   4.823  31.407  12.211
58895W        W27124  36.255   6.099   1.464
58896W        W27125  17.912  26.564  14.909
58897W        W27126  28.012  31.082   5.033
58898W        W27127  26.930  22.498   2.565
58899W        W27128  43.914  15.015  13.885
58900W        W27129  41.953   1.757   3.147
58901W        W27130  32.956  20.390  10.002
58902W        W27131  14.616  17.454   1.385
58903W        W27132  40.639   1.580  11.407
58904W        W27133  34.558  36.117   3.186
58905W        W27134   1.855  34.479   0.534
58906W        W27135  16.234  19.944   1.574
58907W        W27136  40.120  10.572   4.015
58908W        W27137  37.984   3.283  14.594
58909W        W27138  27.557   1.238   2.858
58910W        W27139  14.387   3.757  13.345
58911W        W27140  16.717  25.004   1.143
58912W        W27141  16.718   0.224  12.049
58913W        W27142   8.635  23.718   1.282
58914W        W27143   7.890  41.951   0.022
58915W        W27144  12.389  25.456  14.276
58916W        W27145   1.736  33.015  10.699
58917W        W27146  27.093  39.319   3.397
58918W        W27147   6.998  29.828   3.126
58919W        W27148   5.241  13.089   0.946
58920W        W27149  16.876  19.283   2.798
58921W        W27150  19.544  42.698   4.070
58922W        W27151  44.246  19.656  11.093
58923W        W27152  30.589  30.185  13.186
58924W        W27153  22.313   6.176  14.355
58925W        W27154  34.643  23.586  14.862
58926W        W27155  40.926  42.849  12.559
58927W        W27156   9.274  39.781  13.004
58928W        W27157  27.589  20.584   3.353
58929W        W27158  41.228  22.121  14.860
58930W        W27159  25.245  18.228  13.435
58931W        W27160  12.782  14.828   4.511
58932W        W27161  21.550  42.286   2.836
58933W        W27162   8.543  14.515   4.412
58934W        W27163  38.153  24.105  11.541
58935W        W27164  20.115  37.545   5.060
58936W        W27165   2.039  14.797  11.230
58937W        W27166  11.792  20.574  11.475
58938W        W27167  26.594  23.779   2.079
58939W        W27168  36.810  34.655   2.760
58940W        W27169   2.602   7.216  11.280
58941W        W27170  23.531  19.939  13.394
58942W        W27171  13.642   7.868   1.306
58943W        W27172  10.736  15.529  12.546
58944W        W27173  23.729   3.010   4.803
58945W        W27174  34.983  32.031  12.512
58946W        W27175  21.648   2.982  13.931
58947W        W27176  27.678  43.529  14.257
58948W        W27177  37.870  21.585  13.027
58949W        W27178  38.925  32.036  11.623
58950W        W27179   8.831  31.066   2.201
58951W        W27180  44.927   6.640   1.190
58952W        W27181  11.733   4.521  10.752
58953W        W27182   0.608   4.852   4.106
58954W        W27183   6.183  26.241  14.393
58955W        W27184  33.682  15.760   1.865
58956W        W27185  27.609  41.883  12.910
58957W        W27186  26.018  30.505  11.044
58958W        W27187   5.196  27.105  12.135
58959W        W27188  40.438   4.466  10.159
58960W        W27189  40.809   8.289   1.914
58961W        W27190  14.196  35.848  10.930
58962W        W27191   1.424  26.684   2.189
58963W        W27192  36.821  30.892   2.297
58964W        W27193  18.752  42.947  11.213
58965W        W27194   7.820  20.802  12.344
58966W        W27195  26.774  35.991  14.818
58967W        W27196  36.071  32.125  12.924
58968W        W27197  11.230  16.882   3.714
58969W        W27198  20.971  21.129   4.300
58970W        W27199   6.257  15.289  13.389
58971W        W27200  24.698   8.430   3.663
58972W        W27201   8.943  16.773   4.082
58973W        W27202  44.299  37.112  11.590
58974W        W27203  36.997  12.711   2.712
58975W        W27204  11.662  18.001   3.116
58976W        W27205  33.270   0.697   4.253
58977W        W27206  41.364  42.635  11.523
58978W        W27207  13.239   8.928  14.741
58979W        W27208  41.002   2.896  13.027
58980W        W27209  27.584   4.319  13.469
58981W        W27210   9.091  36.122   4.774
58982W        W27211  16.711  27.776  11.127
58983W        W27212   2.737  35.461  12.641
58984W        W27213  38.815  19.169  14.343
58985W        W27214  36.318  26.463  12.119
58986W        W27215  37.248  20.792   0.002
58987W        W27216   8.146  32.077   3.200
58988W        W27217  34.662  32.105   1.875
58989W        W27218  24.593  24.085   0.313
58990W        W27219  39.468  20.051  13.501
58991W        W27220  21.401  18.791   4.055
58992W        W27221  40.990  22.269  11.582
58993W        W27222  14.367  27.692   4.123
58994W        W27223  13.330   8.517  12.373
58995W        W27224  15.593  25.921   1.445
58996W        W27225   5.382   6.232   4.120
58997W        W27226  26.668   3.639   0.169
58998W        W27227  22.120  43.932   4.921
58999W        W27228  40.381  37.155   2.033
59000W        W27229  40.267  14.944  11.104
59001W        W27230   6.359  35.795   3.407
59002W        W27231  11.303  26.529  11.391
59003W        W27232  21.667  36.894   3.914
59004W        W27233  14.101  34.559  12.396
59005W        W27234  33.192  35.390  12.939
59006W        W27235  27.072   8.750   4.492
59007W        W27236  14.099   2.972   1.442
59008W        W27237  26.486  20.123   0.316
59009W        W27238  39.868  38.263  14.966
59010W        W27239  13.562  43.763  13.081
59011W        W27240  29.976   9.864  14.300
59012W        W27241  30.982  23.818  12.399
59013W        W27242  41.763  13.750   1.520
59014W        W27243  10.237   1.039  12.842
59015W        W27244  18.831  41.763  11.190
59016W        W27245  27.255   0.346  13.919
59017W        W27246  44.460  40.536   3.288
59018W        W27247  14.811  23.747   3.472
59019W        W27248  33.580  11.018   1.383
59020W        W27249  25.517  32.389  13.251
59021W        W27250  16.990  26.142  13.396
59022W        W27251  17.772   5.364  13.041
59023W        W27252  16.288   9.736  13.321
59024W        W27253  21.999   2.970   3.815
59025W        W27254   8.581  18.696   4.229
59026W        W27255   5.258  13.592   0.870
59027W        W27256  13.554  33.454   4.555
59028W        W27257   0.955  30.507   4.735
59029W        W27258  22.545  24.647  12.567
59030W        W27259  25.942  44.825  13.916
59031W        W27260  11.141   9.910   3.699
59032W        W27261  31.046   8.908   2.794
59033W        W27262  18.278  15.492   3.331
59034W        W27263  19.156   3.184   4.950
59035W        W27264  35.121  39.467  10.579
59036W        W27265  36.551  44.862   1.839
59037W        W27266  40.010   5.647  14.529
59038W        W27267   9.741  10.753   4.375
59039W        W27268  41.671   6.417   2.703
59040W        W27269  43.461   8.375   3.337
59041W        W27270  39.496  34.066  14.324
59042W        W27271  25.712   5.921   2.591
59043W        W27272   9.693  31.442   4.799
59044W        W27273  35.458  27.659  14.839
59045W        W27274  25.237  25.627  10.715
59046W        W27275  28.654  24.369   2.247
59047W        W27276  28.407  40.870  10.429
59048W        W27277   4.330  28.828   3.743
59049W        W27278  37.805  25.450  13.423
59050W        W27279  23.991  15.331  10.629
59051W        W27280  24.721   1.432  13.224
59052W        W27281  14.706  30.000   0.004
59053W        W27282  21.562  35.966   5.026
59054W        W27283  14.844   7.190  11.269
59055W        W27284  32.358   8.887  14.764
59056W        W27285   7.898  16.029   3.132
59057W        W27286  19.821  34.496  14.037
59058W        W27287   3.471  25.772  10.793
59059W        W27288  22.470  17.198  13.017
59060W        W27289  16.822  37.858   3.213
59061W        W27290  32.841  22.225   2.683
59062W        W27291   9.855   4.797  10.672
59063W        W27292  31.643  32.373   3.266
59064W        W27293  10.146   6.951  12.160
59065W        W27294   3.422  42.403   0.756
59066W        W27295  34.270   6.390   4.548
59067W        W27296   7.343  14.722  12.943
59068W        W27297   5.446   9.343  13.051
59069W        W27298  20.171   0.137  13.628
59070W        W27299  39.778  44.480  10.733
59071W        W27300  11.905  23.638  14.570
59072W        W27301  13.898  25.261   3.764
59073W        W27302  24.748   7.446  11.670
59074W        W27303  25.585  25.232   2.432
59075W        W27304  21.264  11.109  12.514
59076W        W27305  28.826   2.227  14.066
59077W        W27306  11.254  18.815   3.242
59078W        W27307  12.324   5.326   4.057
59079W        W27308  18.703  39.262   3.226
59080W        W27309  33.972  20.580   3.786
59081W        W27310   1.488   3.943   2.080
59082W        W27311  23.017  32.951  14.231
59083W        W27312  17.677  14.964   2.795
59084W        W27313  31.118  20.186   1.105
59085W        W27314  21.390  14.635  10.739
59086W        W27315  25.501  30.501  14.901
59087W        W27316  24.693  34.492  14.596
59088W        W27317  19.408  40.325   2.741
59089W        W27318  13.262   4.595  10.747
59090W        W27319  42.883  43.806   4.491
59091W        W27320  22.516   7.768  12.965
59092W        W27321   1.242  16.628   3.823
59093W        W27322  15.510  27.658  13.782
59094W        W27323  15.110  35.590   2.225
59095W        W27324   1.294  16.109  14.817
59096W        W27325   4.449  13.680  14.182
59097W        W27326  28.186  44.780   4.417
59098W        W27327  42.110  40.509   4.105
59099W        W27328  28.713  33.784   2.904
59100W        W27329  35.937   7.564   2.917
59101W        W27330  35.646  13.696   2.066
59102W        W27331  24.372  32.269   0.106
59103W        W27332  33.024   0.878   1.456
59104W        W27333  14.069  17.183   3.055
59105W        W27334  20.039  34.361   4.097
59106W        W27335   0.431  44.645   2.924
59107W        W27336  41.875  31.501  10.065
59108W        W27337  23.169  36.839  10.430
59109W        W27338   3.800  11.806   3.222
59110W        W27339  27.412  41.434  13.490
59111W        W27340  26.172  13.674   4.609
59112W        W27341   2.811  36.597   1.953
59113W        W27342  29.232  10.352  13.352
59114W        W27343  36.879  41.041   2.451
59115W        W27344  34.877  11.970  14.671
59116W        W27345  11.826  17.833   2.632
59117W        W27346  19.666  24.766   0.359
59118W        W27347   8.986  41.569   2.140
59119W        W27348  44.378  27.992   1.334
59120W        W27349  31.955  37.758  14.935
59121W        W27350  30.877  11.565   0.777
59122W        W27351  44.570  31.624  13.414
59123W        W27352   1.252  24.757  11.900
59124W        W27353  21.397   5.563  13.818
59125W        W27354  14.545  21.794   1.905
59126W        W27355   0.503   6.318   4.849
59127W        W27356  43.202   3.770  14.527
59128W        W27357  17.711  11.248   0.407
59129W        W27358  31.448  40.784   5.012
59130W        W27359   3.208  29.928  12.949
59131W        W27360  16.296  30.070  12.938
59132W        W27361  14.639  28.941  10.978
59133W        W27362  11.322   4.143  12.565
59134W        W27363   9.189  24.393   4.096
59135W        W27364   0.970  13.275   2.793
59136W        W27365  41.602  23.357   2.994
59137W        W27366  26.220  25.742  14.850
59138W        W27367   8.013  30.056   0.016
59139W        W27368   5.204  12.867   0.475
59140W        W27369   8.298  39.086  11.520
59141W        W27370   8.752  24.660   3.549
59142W        W27371  38.238   5.237   0.776
59143W        W27372   1.878   7.112  10.768
59144W        W27373  21.890  20.482  14.615
59145W        W27374  34.374  16.378   4.183
59146W        W27375   4.815  12.640  14.381
59147W        W27376   8.369  36.138   2.338
59148W        W27377  10.252  14.265  10.609
59149W        W27378  29.180  21.468   2.188
59150W        W27379  18.102  24.109   3.293
59151W        W27380  33.631  30.514  10.382
59152W        W27381  26.753   3.183  11.057
59153W        W27382  35.738  37.461  13.860
59154W        W27383  25.324  23.102   1.878
59155W        W27384   2.235  18.077   0.865
59156W        W27385  39.533  20.046  12.349
59157W        W27386  43.299  12.304  12.404
59158W        W27387  13.125   9.668   1.698
59159W        W27388  32.970  27.241  13.396
59160W        W27389   8.598  43.507   2.202
59161W        W27390  34.716   4.221  11.507
59162W        W27391   8.639  25.229  11.798
59163W        W27392  11.287  11.899  12.640
59164W        W27393  32.705  27.602   0.400
59165W        W27394   2.243  31.534  11.703
59166W        W27395  22.494  23.113  14.756
59167W        W27396  37.505  37.491  13.640
59168W        W27397  24.595  39.040   1.686
59169W        W27398   0.730   9.764  14.415
59170W        W27399  11.356  14.728   4.591
59171W        W27400  25.071  17.325   1.195
59172W        W27401  32.640  11.803   4.713
59173W        W27402   2.787  22.083  10.722
59174W        W27403  40.446  30.139   3.758
59175W        W27404  15.163  35.115  14.134
59176W        W27405  24.233   3.672  11.855
59177W        W27406  40.979  15.136  13.082
59178W        W27407  32.849  21.737   3.302
59179W        W27408   2.013  12.850   0.387
59180W        W27409   5.190  15.827   1.218
59181W        W27410  10.606  11.706  13.358
59182W        W27411  44.090   7.304   4.624
59183W        W27412   7.786  20.143   9.994
59184W        W27413  13.938  24.167  13.792
59185W        W27414  31.585   3.698  13.379
59186W        W27415  17.045   5.760  11.649
59187W        W27416  40.396  11.664   4.629
59188W        W27417  27.173  18.157   2.926
59189W        W27418  33.391  33.794   3.791
59190W        W27419   7.929  39.735  11.031
59191W        W27420  10.096  35.617  11.524
59192W        W27421  41.226   3.852   3.363
59193W        W27422  43.889  41.018   2.349
59194W        W27423  14.703  37.164  10.386
59195W        W27424  24.522  16.110  11.223
59196W        W27425  22.091  15.052  13.315
59197W        W27426   0.873   5.827   4.629
59198W        W27427   1.336  16.720   1.895
59199W        W27428  39.086  31.614   5.347
59200W        W27429   1.912  37.362   3.265
59201W        W27430  14.244  41.507  12.687
59202W        W27431   1.253  27.720  12.564
59203W        W27432  32.132  20.660  12.924
59204W        W27433  14.655  35.170   3.922
59205W        W27434  23.262  21.442   1.867
59206W        W27435  29.262  33.127   4.474
59207W        W27436  13.160   2.931  13.038
59208W        W27437   0.382  10.407   2.341
59209W        W27438  33.939  12.310  14.341
59210W        W27439  19.183  44.919   3.288
59211W        W27440  44.264  29.899  12.028
59212W        W27441  18.743  10.476  10.264
59213W        W27442  38.073  16.124  13.960
59214W        W27443   2.088  37.847   0.213
59215W        W27444   2.582   4.016  10.439
59216W        W27445  11.627   9.723   4.908
59217W        W27446   7.236  37.123  12.881
59218W        W27447  16.607   7.932  14.355
59219W        W27448  21.622  18.641  12.468
59220W        W27449  30.008  16.425  14.442
59221W        W27450  35.958  31.478   3.338
59222W        W27451  12.361  20.657   1.027
59223W        W27452  30.394  35.787  11.633
59224W        W27453   3.013  32.059   0.906
59225W        W27454  32.392  24.397  13.283
59226W        W27455  20.868  40.988  14.509
59227W        W27456   0.986  26.074  12.839
59228W        W27457   9.700  15.195  13.450
59229W        W27458  25.279   0.304   2.344
59230W        W27459  23.512  41.889   4.156
59231W        W27460  12.590   1.315   3.613
59232W        W27461  40.323  22.713  12.124
59233W        W27462   3.846  43.567  14.329
59234W        W27463  12.315  37.649  14.760
59235W        W27464  42.061   9.311  11.499
59236W        W27465   4.664  40.515  12.016
59237W        W27466  33.182   0.129  13.395
59238W        W27467  27.186   6.272  11.875
59239W        W27468  43.225  16.271   1.220
59240W        W27469  12.240  10.864  11.632
59241W        W27470  17.967   1.079   0.839
59242W        W27471  23.805  26.604   1.379
59243W        W27472  22.563  40.998  13.900
59244W        W27473  19.965   5.733   2.086
59245W        W27474  19.599  40.556   3.608
59246W        W27475   7.241  25.308   3.857
59247W        W27476  41.510  36.943   4.874
59248W        W27477  27.573  10.657  11.217
59249W        W27478  34.119  26.313  11.666
59250W        W27479   2.830  26.731   0.799
59251W        W27480  23.119  31.956   0.006
59252W        W27481  14.097   6.920   4.236
59253W        W27482  12.297   4.788   3.274
59254W        W27483  21.757   1.447  12.993
59255W        W27484  30.079  20.664  14.807
59256W        W27485  17.285  44.868  14.540
59257W        W27486  41.888  23.603   4.091
59258W        W27487  25.955   4.333   0.934
59259W        W27488  34.616  41.864  11.596
59260W        W27489  29.189   7.385   0.020
59261W        W27490   3.435  11.327   0.264
59262W        W27491  30.985  30.672  11.283
59263W        W27492  39.742  13.690   3.706
59264W        W27493  22.682   8.693  11.516
59265W        W27494   3.828   4.089   4.600
59266W        W27495  20.710  28.465  13.041
59267W        W27496  37.769   5.346   9.822
59268W        W27497  12.743   8.618   0.379
59269W        W27498  44.335  34.639   1.724
59270W        W27499  41.450  37.565   4.079
59271W        W27500  25.496  24.629   3.198
59272W        W27501   8.219   0.933   4.523
59273W        W27502  14.634  36.028  11.165
59274W        W27503  37.627  20.476  12.399
59275W        W27504   1.987  32.409   2.504
59276W        W27505   7.587   4.859   2.076
59277W        W27506  14.718  15.420  12.499
59278W        W27507   6.603  25.028  12.597
59279W        W27508  31.460  21.978   3.716
59280W        W27509  32.664   4.345   1.334
59281W        W27510  13.638   7.775  13.903
59282W        W27511  34.268  21.068  10.605
59283W        W27512   1.492  32.539   4.982
59284W        W27513  42.277  29.120  11.424
59285W        W27514  13.341   4.215   4.930
59286W        W27515  33.963  42.777  12.065
59287W        W27516  18.780  34.753   5.342
59288W        W27517   7.817  44.013   0.987
59289W        W27518  39.028  41.057   4.221
59290W        W27519   3.235   5.817   4.877
59291W        W27520  35.985   4.094  12.969
59292W        W27521  22.986  15.721  13.863
59293W        W27522  29.023  20.614   1.902
59294W        W27523   7.458   5.279   0.875
59295W        W27524   5.604   3.032  12.078
59296W        W27525   2.355  39.760   5.160
59297W        W27526  22.591  28.586  11.861
59298W        W27527  38.664  20.204  11.667
59299W        W27528   0.039  28.090  13.287
59300W        W27529  31.974  26.967  11.931
59301W        W27530   4.613  36.400   2.168
59302W        W27531  28.132   8.215   4.262
59303W        W27532   0.987  14.222   2.771
59304W        W27533   3.319  18.183   2.898
59305W        W27534  10.946   9.766   1.911
59306W        W27535  24.706   0.496  11.526
59307W        W27536   6.883  28.435   4.272
59308W        W27537  18.586  26.108   4.148
59309W        W27538  38.102  41.621   3.577
59310W        W27539   1.345   9.146  11.226
59311W        W27540  42.355  42.311  12.171
59312W        W27541  16.152  25.571   1.251
59313W        W27542  32.384  30.005  10.567
59314W        W27543  35.498   3.837   0.271
59315W        W27544  31.877  31.488  11.545
59316W        W27545  13.152  27.426   3.825
59317W        W27546  28.675  10.158   1.253
59318W        W27547  25.008  24.531   1.853
59319W        W27548  27.431   8.317   0.945
59320W        W27549  39.927   8.510   4.918
59321W        W27550  31.124   1.510  13.901
59322W        W27551  40.016  39.159   0.463
59323W        W27552  41.331  31.962   3.287
59324W        W27553  32.932  10.755   3.331
59325W        W27554  34.739   6.398  12.397
59326W        W27555  24.241  18.297   0.866
59327W        W27556  18.373  44.403   9.807
59328W        W27557  43.331  21.180   3.653
59329W        W27558  27.786  10.239   0.476
59330W        W27559   3.749  33.807   1.293
59331W        W27560  13.209  18.247  12.928
59332W        W27561   3.293  20.064   4.817
59333W        W27562   7.102  10.164   1.423
59334W        W27563  14.200   0.378  13.846
59335W        W27564  39.977  34.966   4.559
59336W        W27565  32.636  39.437  12.529
59337W        W27566   4.423  35.784   4.166
59338W        W27567  19.385  16.775   9.791
59339W        W27568   6.353   4.646   4.965
59340W        W27569   8.171  29.637  13.348
59341W        W27570  15.532  22.297  11.151
59342W        W27571  28.968   4.793  11.499
59343W        W27572  41.017  19.003   3.659
59344W        W27573  28.144  15.848   3.247
59345W        W27574  34.634   0.821  11.888
59346W        W27575  36.643  13.687  12.890
59347W        W27576  34.952   8.860   2.263
59348W        W27577  21.624  22.635  13.390
59349W        W27578  34.517   5.313   0.717
59350W        W27579  33.865  24.620  12.590
59351W        W27580  25.627   9.270  10.549
59352W        W27581  13.212  44.029  11.011
59353W        W27582  14.210  12.286   2.426
59354W        W27583  22.663   1.205   4.193
59355W        W27584  14.710   8.507  10.384
59356W        W27585  10.805   7.267   0.368
59357W        W27586   8.491   7.957   3.943
59358W        W27587  23.676  26.208  11.036
59359W        W27588  14.120   2.486  12.860
59360W        W27589  10.400  17.285  12.490
59361W        W27590   7.405  29.778   0.837
59362W        W27591  38.811  14.713   1.295
59363W        W27592  44.361  28.257   3.145
59364W        W27593  25.598  20.421  11.587
59365W        W27594  35.110  21.105   1.125
59366W        W27595  29.689   4.549   0.444
59367W        W27596  20.181   4.693  13.458
59368W        W27597  42.004   1.547  13.490
59369W        W27598  38.996   5.359   3.305
59370W        W27599  26.966  25.707  14.461
59371W        W27600  41.079  41.402  11.266
59372W        W27601  13.643  11.561   1.799
59373W        W27602   0.873  19.057  13.874
59374W        W27603  11.655  31.029   2.397
59375W        W27604  17.992  24.978   3.704
59376W        W27605  12.623  35.865   4.274
59377W        W27606  20.138  29.525  10.455
59378W        W27607  26.124  14.091   3.743
59379W        W27608  25.567  21.550   4.531
59380W        W27609  17.163  13.366   3.231
59381W        W27610  43.990  12.944  11.192
59382W        W27611  22.032  14.768  11.518
59383W        W27612  32.208  44.077   0.263
59384W        W27613  43.915  26.659   4.784
59385W        W27614  29.954   0.402  12.021
59386W        W27615  40.822   0.802   2.260
59387W        W27616  44.899  42.031  11.458
59388W        W27617  35.408  24.109  11.449
59389W        W27618   8.867  12.350   1.415
59390W        W27619   8.158  31.632  13.070
59391W        W27620  20.520  23.685  13.057
59392W        W27621  25.484   8.506   0.780
59393W        W27622  22.101  14.498  14.632
59394W        W27623  18.170  21.346  13.063
59395W        W27624  32.259  40.854   1.513
59396W        W27625  34.638  22.283   2.850
59397W        W27626  29.209   1.725  14.780
59398W        W27627  18.703  20.034   0.874
59399W        W27628   1.279  21.560  14.545
59400W        W27629   1.234  41.887  14.945
59401W        W27630  17.864  26.424   0.831
59402W        W27631  43.860  14.552   0.763
59403W        W27632  17.221  27.393   2.695
59404W        W27633  36.009  17.579  13.853
59405W        W27634  10.957  28.507   1.440
59406W        W27635   3.464  13.265   1.929
59407W        W27636  35.054  38.082  10.509
59408W        W27637  19.151   5.497  13.909
59409W        W27638   3.923   6.910  11.023
59410W        W27639  10.541   0.005   2.986
59411W        W27640   6.034  31.927   5.038
59412W        W27641  38.332  36.802  14.255
59413W        W27642  14.010  44.976   4.857
59414W        W27643  19.199  19.538  12.450
59415W        W27644  31.475  31.622  12.533
59416W        W27645  28.553   8.644  12.471
59417W        W27646  19.077   8.942   0.709
59418W        W27647  20.468  34.582   4.257
59419W        W27648  38.572  37.631  11.649
59420W        W27649  12.338  15.587  10.155
59421W        W27650  43.793  39.380   3.243
59422W        W27651  23.697  19.068  12.608
59423W        W27652   6.072  42.337  11.940
59424W        W27653  42.019  10.592   2.418
59425W        W27654   8.036  37.568   5.062
59426W        W27655   1.987  10.622   1.750
59427W        W27656   0.032  33.145  13.967
59428W        W27657  30.034  18.296  14.838
59429W        W27658   7.255   2.404   0.588
59430W        W27659  26.967  43.654   1.761
59431W        W27660  22.564  30.454  12.710
59432W        W27661  22.971  26.636  11.540
59433W        W27662  32.443  39.266   0.841
59434W        W27663  36.306  41.990   1.693
59435W        W27664  18.624  11.452   0.244
59436W        W27665  24.353   3.821  14.054
59437W        W27666  37.847  28.623  14.652
59438W        W27667  35.027  26.418   3.551
59439W        W27668  19.026   9.570  11.915
59440W        W27669  29.088  15.580  10.937
59441W        W27670   9.402  17.625  12.067
59442W        W27671  41.363  14.438  13.398
59443W        W27672  39.816  37.312  11.205
59444W        W27673  15.632  23.169   2.665
59445W        W27674   8.447   3.852  12.489
59446W        W27675  38.950  39.253  12.545
59447W        W27676  11.450  28.526   1.365
59448W        W27677  10.341  38.627  14.411
59449W        W27678  35.472  32.363  14.467
59450W        W27679  11.357  12.227  11.774
59451W        W27680  38.494  28.503  10.172
59452W        W27681  28.539  14.815   0.851
59453W        W27682  33.034  11.826   4.362
59454W        W27683  30.761  30.632  10.541
59455W        W27684  33.369  19.238  14.790
59456W        W27685  18.277   9.408   0.328
59457W        W27686  19.240  11.864   0.740
59458W        W27687  38.362  31.009  13.489
59459W        W27688  17.529  16.610   0.800
59460W        W27689  33.152  40.201  13.008
59461W        W27690  11.375  14.321  13.755
59462W        W27691  36.501  17.195  10.644
59463W        W27692  11.190  27.591  13.832
59464W        W27693   6.298  34.909   0.316
59465W        W27694   7.936  41.741  12.620
59466W        W27695   8.123  15.802   2.747
59467W        W27696  21.484  42.792   3.754
59468W        W27697  29.359   7.751   4.560
59469W        W27698   3.323  42.886  14.874
59470W        W27699  23.099  32.361   2.868
59471W        W27700  34.393  44.477  12.432
59472W        W27701   4.847  42.941   2.877
59473W        W27702  25.029  15.319   4.127
59474W        W27703  10.102  36.900   1.405
59475W        W27704   9.602  12.884   4.647
59476W        W27705   0.348  43.041   1.407
59477W        W27706  20.787  10.885  11.831
59478W        W27707  34.903  30.878   3.319
59479W        W27708  38.940  32.138   4.677
59480W        W27709   6.968  26.026   4.088
59481W        W27710  20.806  40.098  14.851
59482W        W27711  20.706  18.117   4.471
59483W        W27712   5.668  39.531  14.499
59484W        W27713  19.047  37.287   4.218
59485W        W27714  25.232  37.541   2.410
59486W        W27715  44.256  12.684   0.864
59487W        W27716   7.285  29.163   2.119
59488W        W27717  19.854  44.292  12.830
59489W        W27718  28.109   7.154  10.864
59490W        W27719  15.222  14.889   1.441
59491W        W27720  39.955  12.899  12.949
59492W        W27721   6.989   7.860  14.903
59493W        W27722  16.114  28.504  11.235
59494W        W27723   7.282   6.135  14.386
59495W        W27724   4.276  33.904   0.354
59496W        W27725  26.218  25.071  12.230
59497W        W27726   0.441  27.510  10.605
59498W        W27727  15.881  24.561   2.237
59499W        W27728   0.259  24.630   0.974
59500W        W27729  11.432   5.757   1.383
59501W        W27730  29.154  29.855  11.390
59502W        W27731   4.589   7.409   4.402
59503W        W27732  27.365  17.668   4.603
59504W        W27733  33.513  25.485  12.660
59505W        W27734  26.091  15.953  11.721
59506W        W27735  15.259  33.124  12.866
59507W        W27736  26.527  15.729   0.297
59508W        W27737  27.995  14.858  14.549
59509W        W27738  30.041   7.658  11.619
59510W        W27739   6.247  42.803  10.673
59511W        W27740  11.705  33.905  11.352
59512W        W27741  11.776  16.831   1.864
59513W        W27742  32.061  40.104  12.490
59514W        W27743  32.415  33.301  13.398
59515W        W27744   7.113  11.124  10.809
59516W        W27745  23.032   1.285   1.746
59517W        W27746  44.467  27.659  11.639
59518W        W27747   3.730  29.527   2.389
59519W        W27748  16.669  20.769  14.802
59520W        W27749  39.603  17.354  13.813
59521W        W27750  24.485   9.620   1.110
59522W        W27751   4.063   4.527  12.010
59523W        W27752  23.506  37.305  14.717
59524W        W27753  33.341  38.422   1.007
59525W        W27754  27.123   3.465  14.982
59526W        W27755  26.084  34.101  13.960
59527W        W27756   2.769  39.289   1.448
59528W        W27757  20.300  11.196  14.390
59529W        W27758  39.699   3.057   1.039
59530W        W27759   2.760   7.353   1.921
59531W        W27760  37.453  40.288  12.511
59532W        W27761  40.400  17.005  13.352
59533W        W27762  19.288   8.825   3.241
59534W        W27763  31.554   5.240   0.317
59535W        W27764  11.850  44.278   3.130
59536W        W27765  10.632  37.540   4.458
59537W        W27766  25.085   2.610   3.325
59538W        W27767  29.508  13.877   1.146
59539W        W27768   9.436  31.844   3.662
59540W        W27769  10.866  34.280  12.846
59541W        W27770  11.851  28.620   0.449
59542W        W27771  24.327  43.298  14.897
59543W        W27772   3.817  21.906  14.429
59544W        W27773  12.772   5.586  14.409
59545W        W27774   4.827   1.671   4.152
59546W        W27775  39.648  27.884   1.182
59547W        W27776  28.586  20.846   1.771
59548W        W27777  22.658  31.972  14.723
59549W        W27778  11.720   3.809  12.876
59550W        W27779  34.068  22.578  14.775
59551W        W27780  26.168  18.678  13.313
59552W        W27781  18.722   4.258   1.932
59553W        W27782  27.588  18.867  12.513
59554W        W27783   7.474   3.914  12.677
59555W        W27784  22.513  25.442  14.635
59556W        W27785  35.906  22.740   1.245
59557W        W27786   4.735   7.688   2.682
59558W        W27787  29.013  37.793   0.352
59559W        W27788  17.337  33.513  12.580
59560W        W27789  42.991  44.769  11.502
59561W        W27790   6.908  35.031   3.359
59562W        W27791  16.395  33.682   4.580
59563W        W27792  30.125  22.135   1.643
59564W        W27793  41.289  30.616  11.418
59565W        W27794  15.570   6.223   3.778
59566W        W27795  25.527  21.112   2.835
59567W        W27796  41.370   0.554  14.409
59568W        W27797   4.130   4.456   0.732
59569W        W27798  13.868  30.760   2.673
59570W        W27799  38.668  35.879  12.912
59571W        W27800  28.896  39.345   2.889
59572W        W27801  20.857  13.821  12.159
59573W        W27802  26.883  22.151  14.351
59574W        W27803  35.039  23.735  13.887
59575W        W27804   3.346   0.584   3.753
59576W        W27805  39.687   4.028   0.220
59577W        W27806  41.887  10.821   1.969
59578W        W27807   9.799  26.133   0.363
59579W        W27808  38.036   4.977   4.274
59580W        W27809  30.411  33.046   3.313
59581W        W27810  17.221  34.642  10.665
59582W        W27811  28.257  16.641  13.101
59583W        W27812  11.046  32.859  13.304
59584W        W27813  29.626  15.631   3.329
59585W        W27814  28.007  43.139  14.327
59586W        W27815  27.905  31.018  14.442
59587W        W27816  12.300  22.650  10.941
59588W        W27817  23.090  15.369  10.597
59589W        W27818  25.934   7.817   4.693
59590W        W27819  23.673   4.769   1.439
59591W        W27820  26.741  17.939   4.248
59592W        W27821  21.676  35.047   4.091
59593W        W27822  12.566  25.709   1.726
59594W        W27823   0.479  28.410   4.956
59595W        W27824   9.344  21.417   4.621
59596W        W27825  37.046   0.284  10.739
59597W        W27826   7.998  19.600   0.672
59598W        W27827  42.936  13.570   0.971
59599W        W27828   4.780  18.731  10.765
59600W        W27829  29.930  19.941  12.674
59601W        W27830  13.874  27.513   4.191
59602W        W27831   4.996  16.129   0.519
59603W        W27832  20.237   0.959   0.862
59604W        W27833  26.125   0.983  11.422
59605W        W27834   2.724   4.199  13.431
59606W        W27835  25.528  35.078  12.089
59607W        W27836  29.821  16.682   5.079
59608W        W27837  35.813  30.133  12.889
59609W        W27838  41.729  21.590   1.001
59610W        W27839   0.157  29.981  13.006
59611W        W27840  16.434  18.571   4.102
59612W        W27841   4.394  37.083  12.563
59613W        W27842  13.093  18.032  12.481
59614W        W27843  41.131  12.839   4.523
59615W        W27844  28.984  39.175  13.863
59616W        W27845  43.069  16.014  12.054
59617W        W27846  20.183  44.943   3.274
59618W        W27847  27.258  11.125  11.088
59619W        W27848  35.358   4.028  12.949
59620W        W27849   0.958  36.025  12.530
59621W        W27850  15.842  16.168   5.141
59622W        W27851  30.496   4.381  10.698
59623W        W27852  30.568  42.380  11.916
59624W        W27853   4.888   7.347  13.622
59625W        W27854   9.421  17.146  13.421
59626W        W27855   6.349   6.294  11.995
59627W        W27856  32.842  31.484   2.126
59628W        W27857  15.348  37.357  13.588
59629W        W27858  37.949  22.200  14.893
59630W        W27859   2.978   8.765   3.798
59631W        W27860   7.613  33.048   3.270
59632W        W27861   9.096   6.169  14.277
59633W        W27862  25.806  28.267  14.812
59634W        W27863  26.371  34.448   3.606
59635W        W27864  42.498  11.258   4.650
59636W        W27865  37.905   7.216  14.381
59637W        W27866  33.446  14.276  11.111
59638W        W27867  20.725  21.504  13.240
59639W        W27868   9.065  21.060   4.397
59640W        W27869   3.396   0.658  11.229
59641W        W27870  36.407  11.734  14.098
59642W        W27871  39.971   4.472  10.944
59643W        W27872   9.290  27.843  12.872
59644W        W27873  38.836  33.898  10.277
59645W        W27874  43.929  27.023  14.588
59646W        W27875  22.977  36.712   2.239
59647W        W27876  23.032  39.507   4.667
59648W        W27877   4.963  43.387   2.637
59649W        W27878  41.841   3.291   1.659
59650W        W27879  21.278   6.863  14.866
59651W        W27880  38.346  25.122  14.978
59652W        W27881   4.705   7.335   3.548
59653W        W27882  34.055  33.000   2.370
59654W        W27883  33.708  43.085   3.190
59655W        W27884  20.278  42.221  11.211
59656W        W27885  40.034  24.994  14.993
59657W        W27886  10.440  24.267   0.331
59658W        W27887  24.145  41.969   0.196
59659W        W27888  32.216  27.838   1.627
59660W        W27889  18.659  33.853   2.217
59661W        W27890  23.827  19.334  12.145
59662W        W27891  19.482  41.961  12.502
59663W        W27892  39.260  32.609  14.117
59664W        W27893  27.616  44.710   3.463
59665W        W27894  10.720  41.824   2.280
59666W        W27895  14.738  39.080  13.049
59667W        W27896   1.899  21.968  12.093
59668W        W27897   5.157  41.813  10.586
59669W        W27898  40.515  12.163  14.722
59670W        W27899   0.927  44.502  13.305
59671W        W27900  34.834  11.833   5.035
59672W        W27901  20.022   0.820  14.453
59673W        W27902  37.065  10.775  14.890
59674W        W27903   7.816   6.816   3.421
59675W        W27904  41.841   4.690   1.660
59676W        W27905  34.383   0.426  12.535
59677W        W27906  34.612  23.300   1.382
59678W        W27907  10.770  39.907   0.006
59679W        W27908  22.685  20.661   4.284
59680W        W27909  16.313  12.227  12.645
59681W        W27910  16.181   5.456   1.032
59682W        W27911  42.972  30.691  12.049
59683W        W27912  10.419  40.769  11.111
59684W        W27913  14.804  43.237  13.409
59685W        W27914   8.553   3.879  11.581
59686W        W27915  25.539  11.176   0.836
59687W        W27916   0.818  36.028  13.069
59688W        W27917   1.745  17.625  12.873
59689W        W27918   2.664   6.255   4.296
59690W        W27919  12.972  26.308   0.939
59691W        W27920  26.122  41.565  10.614
59692W        W27921  44.447   7.899   2.639
59693W        W27922  30.647  10.845  12.353
59694W        W27923  18.624  38.830  10.174
59695W        W27924  11.293  22.510  13.416
59696W        W27925  30.577  11.130   0.850
59697W        W27926  29.032  31.196   4.150
59698W        W27927  25.085  23.626  11.245
59699W        W27928   0.896   0.346   1.738
59700W        W27929   6.818  36.880   0.392
59701W        W27930   3.113  10.873   2.606
59702W        W27931  22.774  13.340   4.068
59703W        W27932  13.141  17.984  13.845
59704W        W27933  20.800  18.284  12.545
59705W        W27934  44.939  20.252  12.314
59706W        W27935   2.322  43.200  13.406
59707W        W27936  14.844  17.558   3.745
59708W        W27937  37.298  36.288   0.675
59709W        W27938  29.909  30.317   3.427
59710W        W27939  25.822   8.897   2.329
59711W        W27940   4.906  23.986  14.015
59712W        W27941  15.132  27.411  11.564
59713W        W27942  11.790  29.452   2.777
59714W        W27943  44.715   5.572  11.878
59715W        W27944  28.375  23.408  13.860
59716W        W27945  16.945   7.592   2.755
59717W        W27946   8.747  29.153   4.101
59718W        W27947  33.937  33.472   1.620
59719W        W27948  40.883  11.831  12.019
59720W        W27949  30.923  42.986   1.006
59721W        W27950  28.637  14.052   0.260
59722W        W27951  37.123  19.033  13.485
59723W        W27952  22.923   0.934  10.493
59724W        W27953  24.357  10.171   9.825
59725W        W27954   7.934  15.424  14.806
59726W        W27955  29.868  40.268   0.362
59727W        W27956   7.771   9.202   4.202
59728W        W27957  37.173  44.063  12.500
59729W        W27958  41.063  12.726  14.308
59730W        W27959  16.411  10.151  13.592
59731W        W27960   4.107  10.563  14.320
59732W        W27961  11.103  15.673  10.996
59733W        W27962  21.099  33.369   2.944
59734W        W27963  29.840  11.754  10.380
59735W        W27964   4.763  42.514   0.238
59736W        W27965  29.972  25.546  13.426
59737W        W27966  35.714  23.801  13.325
59738W        W27967  30.676  33.175   0.481
59739W        W27968  27.980  21.965  14.949
59740W        W27969  40.361  16.710  12.947
59741W        W27970  44.798  40.040   3.684
59742W        W27971  19.102  13.714   3.340
59743W        W27972  38.280  22.488   1.332
59744W        W27973  14.728  42.197  11.158
59745W        W27974  16.772   5.389   3.245
59746W        W27975  34.918  12.712  12.012
59747W        W27976  15.252  18.762  13.438
59748W        W27977   2.368  14.594   3.980
59749W        W27978   9.125  28.091   0.459
59750W        W27979   2.522   5.363   0.974
59751W        W27980  40.352  39.981  12.458
59752W        W27981  36.534  31.003  14.276
59753W        W27982  39.353  11.382   2.472
59754W        W27983   7.462   8.114  14.919
59755W        W27984  23.482  27.045  12.323
59756W        W27985  18.516  29.192  14.067
59757W        W27986  31.160   5.431   1.718
59758W        W27987  27.566  31.449  12.500
59759W        W27988  18.098  21.773   4.361
59760W        W27989  25.484  38.973   4.142
59761W        W27990  41.691  41.817   0.971
59762W        W27991  28.752  40.415   3.848
59763W        W27992  10.588  17.340   3.373
59764W        W27993  20.291  32.420  11.998
59765W        W27994   9.083  11.120  14.966
59766W        W27995  28.940   0.249   3.607
59767W        W27996  13.129  44.038  10.481
59768W        W27997  36.091  20.639   1.473
59769W        W27998  30.036  19.248  14.979
59770W        W27999  21.070  13.827   1.606
59771W        W28000  35.632  44.943   4.321
59772W        W28001  13.596   3.338   3.518
59773W        W28002  34.057   6.130  10.629
59774W        W28003  11.342   8.768  12.924
59775W        W28004   7.334  30.045  10.405
59776W        W28005   3.401   5.800  13.086
59777W        W28006  19.608  29.012  10.303
59778W        W28007  22.431  30.401   5.178
59779W        W28008  13.029  25.686  10.497
59780W        W28009   4.711  39.491   4.180
59781W        W28010  40.782  10.299   0.267
59782W        W28011  16.007  42.257   1.379
59783W        W28012  35.965  44.259  11.798
59784W        W28013  29.373   8.709   1.147
59785W        W28014   8.850  23.083   0.428
59786W        W28015  13.627  28.698  14.532
59787W        W28016  37.495  14.605  14.255
59788W        W28017  15.788   9.183  11.295
59789W        W28018  15.841  36.093   4.698
59790W        W28019  38.097  38.581   0.324
59791W        W28020   5.938  41.997   1.919
59792W        W28021  37.595  24.153  13.428
59793W        W28022   8.181  21.110   4.148
59794W        W28023  36.384  34.454   4.047
59795W        W28024  27.936  29.904  11.538
59796W        W28025  25.266  16.968  12.258
59797W        W28026  25.435  41.496   1.415
59798W        W28027  14.263   0.967   2.133
59799W        W28028  31.529   7.832   2.427
59800W        W28029   1.351  19.799   3.906
59801W        W28030  27.942  13.934   1.902
59802W        W28031   4.563  16.031   0.203
59803W        W28032  43.892  27.463   3.112
59804W        W28033  22.829  22.026   2.429
59805W        W28034  30.441  12.757  14.328
59806W        W28035   3.406  31.142  11.085
59807W        W28036  20.271  10.416   9.851
59808W        W28037  36.013  19.982   0.802
59809W        W28038  13.635  17.733  13.753
59810W        W28039  37.337  26.123  14.489
59811W        W28040  38.139   4.280   3.753
59812W        W28041  26.609  32.937  10.620
59813W        W28042  13.832  26.956  11.184
59814W        W28043  28.913  20.990  11.697
59815W        W28044  34.535  44.752  12.003
59816W        W28045  29.434  11.644  13.495
59817W        W28046  43.166  21.550   3.154
59818W        W28047  43.092  28.634  14.291
59819W        W28048  25.274   2.426  14.002
59820W        W28049  43.596   1.710  13.798
59821W        W28050  42.745  37.606   4.053
59822W        W28051  15.407   7.133  11.225
59823W        W28052   7.882  17.953   1.228
59824W        W28053  44.758  11.418   3.735
59825W        W28054  17.580  31.812   2.020
59826W        W28055  29.108  20.938   4.872
59827W        W28056  29.745   3.693   2.405
59828W        W28057  26.216  35.874  11.234
59829W        W28058   9.347  34.431  14.662
59830W        W28059   9.271   1.795   0.524
59831W        W28060  22.493  21.526  10.832
59832W        W28061  15.429  40.328   0.935
59833W        W28062   0.304   0.486   4.151
59834W        W28063  22.056   8.350   0.183
59835W        W28064  28.891  20.935   3.141
59836W        W28065  11.222  24.242  11.984
59837W        W28066  14.459  34.365  13.768
59838W        W28067  15.606   3.686  11.180
59839W        W28068   6.721  36.120   0.868
59840W        W28069   0.811  24.325  13.506
59841W        W28070  12.086  43.339  14.513
59842W        W28071   2.032  42.437   3.634
59843W        W28072  20.103   5.841  11.672
59844W        W28073  15.401  35.512   3.675
59845W        W28074  41.830  17.525   3.832
59846W        W28075   3.641  42.396   2.916
59847W        W28076  24.023  39.423   2.185
59848W        W28077  12.104  38.272  10.405
59849W        W28078  33.601   1.228   3.667
59850W        W28079   1.683  15.137   3.064
59851W        W28080  38.114  30.588  13.635
59852W        W28081  34.833  20.080   1.691
59853W        W28082  30.046  38.221   4.559
59854W        W28083   1.460  39.294  11.149
59855W        W28084  16.722  14.126   3.385
59856W        W28085   5.966  23.909  11.865
59857W        W28086   8.193  17.007   0.055
59858W        W28087  32.634   1.345   1.724
59859W        W28088  37.864  35.962  14.321
59860W        W28089  17.473  25.002  12.884
59861W        W28090   0.584   8.783  12.681
59862W        W28091  23.794  34.036   1.452
59863W        W28092  23.569  16.072   3.920
59864W        W28093  33.936   2.241   2.816
59865W        W28094  33.959   2.793   3.543
59866W        W28095  42.379   5.450  11.151
59867W        W28096  10.313  13.131  13.914
59868W        W28097  26.489   7.182   2.235
59869W        W28098   1.429  25.754  13.564
59870W        W28099  34.334  33.597   3.603
59871W        W28100  35.967  16.646  13.018
59872W        W28101   7.143  35.609   2.669
59873W        W28102  29.305  44.457  12.718
59874W        W28103  13.704   9.181   3.175
59875W        W28104  43.384  22.161   2.211
59876W        W28105  24.525  32.426  12.961
59877W        W28106  21.294  37.723   5.063
59878W        W28107  22.462   0.852   2.194
59879W        W28108  15.317   7.700  12.797
59880W        W28109  41.413  29.751   5.428
59881W        W28110  21.979  32.571   0.982
59882W        W28111  37.154  17.654  11.680
59883W        W28112  13.205  29.059   2.647
59884W        W28113   5.820  41.186   2.914
59885W        W28114  30.351  37.277   3.811
59886W        W28115  20.457  24.756   4.137
59887W        W28116  38.882  11.012  11.474
59888W        W28117  26.299  15.262   0.385
59889W        W28118  16.007   2.833  13.214
59890W        W28119  29.065  35.817   0.465
59891W        W28120  36.490   8.566  11.502
59892W        W28121  26.559   4.280  13.453
59893W        W28122  15.660  10.004  11.967
59894W        W28123  26.855  28.633  11.051
59895W        W28124  17.181  30.135   1.243
59896W        W28125  30.340   9.937  14.685
59897W        W28126  26.653  34.128   4.044
59898W        W28127  16.843   3.874  13.000
59899W        W28128   1.071  32.561  11.984
59900W        W28129  18.682  39.837   1.438
59901W        W28130  25.464  29.214   0.171
59902W        W28131   1.196   1.851  14.906
59903W        W28132   3.937  33.789   5.026
59904W        W28133  38.669  38.852   1.297
59905W        W28134  27.179  32.018   2.923
59906W        W28135   0.783  22.619   3.201
59907W        W28136  28.937  42.496   2.691
59908W        W28137  35.082   8.643   2.779
59909W        W28138  25.967   5.644   4.501
59910W        W28139  34.878   5.502   3.190
59911W        W28140  44.154   2.685   2.717
59912W        W28141  12.660  18.502   4.793
59913W        W28142  21.957  36.872   4.741
59914W        W28143  35.346  22.536   1.693
59915W        W28144  15.083  44.969   1.139
59916W        W28145  33.438   5.920   4.487
59917W        W28146  44.899   2.685   0.672
59918W        W28147  36.244  26.843   3.397
59919W        W28148  25.683  34.097  13.210
59920W        W28149  25.450  20.028   3.659
59921W        W28150  11.749  27.653  13.098
59922W        W28151  42.276  29.629   2.627
59923W        W28152  16.010  39.886   1.426
59924W        W28153   7.685   3.402   0.736
59925W        W28154   1.087   6.996   2.344
59926W        W28155  19.136  32.602   4.103
59927W        W28156  19.670  28.110   4.894
59928W        W28157  22.608  21.145   3.016
59929W        W28158   4.023   6.224   1.239
59930W        W28159  42.827   3.878   1.268
59931W        W28160   5.697  33.956   4.067
59932W        W28161  18.121  15.225  10.477
59933W        W28162  23.739  11.348  13.067
59934W        W28163  41.926   1.557   4.950
59935W        W28164  20.231  26.180   3.128
59936W        W28165   5.457  33.958  11.124
59937W        W28166  16.661  14.616   3.203
59938W        W28167  22.977  37.114  14.881
59939W        W28168  41.017  32.165   4.146
59940W        W28169  39.912  38.135   3.380
59941W        W28170  16.235   8.889  11.617
59942W        W28171  35.174   5.326   1.883
59943W        W28172  21.239  13.824   1.122
59944W        W28173  24.874   4.003   1.045
59945W        W28174   0.493  16.443   1.329
59946W        W28175  37.914  13.051   4.302
59947W        W28176  31.206  16.027   9.910
59948W        W28177   7.353  17.781  13.889
59949W        W28178  30.448  16.332  13.423
59950W        W28179  27.274   3.761  12.740
59951W        W28180   1.420  40.856  13.556
59952W        W28181  33.400  38.006   3.373
59953W        W28182  31.412  40.413   1.693
59954W        W28183  11.557  42.165  14.419
59955W        W28184  42.268  32.897   0.579
59956W        W28185  37.630   5.339  10.318
59957W        W28186   0.256  36.017  13.032
59958W        W28187  34.129  23.515  13.927
59959W        W28188  37.948  40.939   4.325
59960W        W28189  20.059  41.421   3.344
59961W        W28190  41.085  24.912   3.203
59962W        W28191  12.148  11.136   1.701
59963W        W28192  18.309  30.936   2.245
59964W        W28193  32.318  42.538  14.322
59965W        W28194  14.337   7.423  12.972
59966W        W28195  32.769  30.377  12.621
59967W        W28196  28.187  34.651  12.935
59968W        W28197   3.302   3.523  12.117
59969W        W28198   2.490  24.346  10.711
59970W        W28199   5.173  44.681   2.359
59971W        W28200   4.193  29.118   1.494
59972W        W28201  21.252  14.026   0.656
59973W        W28202  10.699  15.898  14.965
59974W        W28203  43.346  19.082   2.150
59975W        W28204  38.949   4.703  14.502
59976W        W28205  20.381  34.188   3.760
59977W        W28206   8.913  17.611  14.784
59978W        W28207  26.209  35.873   0.723
59979W        W28208  13.589  25.676   3.061
59980W        W28209  22.722  31.567  11.032
59981W        W28210   1.073  25.103  14.582
59982W        W28211  25.890  22.157   0.929
59983W        W28212  29.695  38.454  13.785
59984W        W28213  13.352  20.085   2.546
59985W        W28214   1.257  40.745   3.353
59986W        W28215  32.375  22.264  10.829
59987W        W28216  12.651  29.619  14.986
59988W        W28217   6.485  31.117   2.816
59989W        W28218   1.930  37.910   9.831
59990W        W28219  30.429  17.818   0.006
59991W        W28220  19.955  27.619   2.830
59992W        W28221  22.638  26.164  12.099
59993W        W28222  37.646  18.986  13.415
59994W        W28223  25.421  17.836   3.246
59995W        W28224  17.690  30.493  13.756
59996W        W28225   3.351  26.594  14.442
59997W        W28226  12.309   1.382   4.927
59998W        W28227  13.286  25.764   0.349
59999W        W28228   6.501  39.533   2.701
60000W        W28229  36.854  27.386  14.793
60001W        W28230  37.276  21.110  10.712
60002W        W28231  41.776   7.296   0.676
60003W        W28232   8.948  10.134  14.476
60004W        W28233   9.851  37.116  13.624
60005W        W28234  36.974   0.310   4.748
60006W        W28235   6.953  27.648  15.000
60007W        W28236   9.440  33.551   0.823
60008W        W28237  31.806  39.018  13.933
60009W        W28238   5.169  32.334  13.934
60010W        W28239  25.171   2.756  14.850
60011W        W28240  15.174  36.198  14.905
60012W        W28241  25.763   9.441  13.115
60013W        W28242  32.366   5.339  10.630
60014W        W28243  32.607  16.633  12.869
60015W        W28244  27.071   2.997   0.846
60016W        W28245  31.047  20.014   4.080
60017W        W28246  30.495   3.013  12.674
60018W        W28247  32.365   3.685  13.893
60019W        W28248  42.517  19.816  12.932
60020W        W28249  39.956   0.378   0.767
60021W        W28250   6.846   6.192  11.940
60022W        W28251   5.286  44.081   2.416
60023W        W28252  23.689  38.986  12.511
60024W        W28253  23.734   6.326   5.019
60025W        W28254  26.387   8.216   0.885
60026W        W28255  38.963  15.672   2.339
60027W        W28256  19.707  14.843   4.653
60028W        W28257   0.922  43.991  14.536
60029W        W28258   7.863   6.355   4.553
60030W        W28259   9.570  31.199  13.761
60031W        W28260   5.489  18.742  13.386
60032W        W28261   5.022  38.083   1.955
60033W        W28262  39.034   5.306   4.198
60034W        W28263   2.037  14.218   4.576
60035W        W28264   4.317   9.330   4.063
60036W        W28265  15.869  39.994   3.575
60037W        W28266  23.678  22.721  13.977
60038W        W28267  19.259  13.835   1.429
60039W        W28268  32.366  20.672   4.083
60040W        W28269  30.278  32.551  12.267
60041W        W28270  16.782  24.958  12.011
60042W        W28271  18.744  21.058   1.979
60043W        W28272  10.714  43.545   2.893
60044W        W28273  25.417  44.705   3.999
60045W        W28274  23.903  23.920  13.100
60046W        W28275  44.179  13.212  13.021
60047W        W28276  22.254  39.871  12.611
60048W        W28277  31.041  20.452  10.630
60049W        W28278  24.706  24.802   1.538
60050W        W28279  30.089  16.859   2.121
60051W        W28280  35.974   2.174  14.058
60052W        W28281  16.807  23.529   5.044
60053W        W28282  18.050   4.165   4.155
60054W        W28283   2.392  42.640  12.173
60055W        W28284  27.637  11.316   3.648
60056W        W28285   3.697   9.333  14.963
60057W        W28286  23.817  30.178   4.551
60058W        W28287  25.732   1.883   3.655
60059W        W28288  33.951  32.128  14.246
60060W        W28289  28.186  40.795  11.272
60061W        W28290  21.539  32.968  10.649
60062W        W28291  28.353  44.371   1.627
60063W        W28292  22.267   2.945  11.197
60064W        W28293  30.974   2.976  12.483
60065W        W28294   3.976  12.183  12.489
60066W        W28295  27.692  25.522  12.986
60067W        W28296  11.507   9.019   9.819
60068W        W28297  14.336  23.303   2.714
60069W        W28298  32.010  21.489   3.050
60070W        W28299   8.294  11.908   0.275
60071W        W28300  44.765  30.412   2.317
60072W        W28301  11.473  29.580   5.010
60073W        W28302   5.527  14.198   4.004
60074W        W28303   5.303   1.361   0.634
60075W        W28304  23.532  10.161  14.838
60076W        W28305  30.622  32.087   2.390
60077W        W28306  18.033  38.376  14.289
60078W        W28307  17.846  39.424   0.280
60079W        W28308  21.221  35.748  14.517
60080W        W28309   0.128  42.494  10.729
60081W        W28310   4.863   3.030   3.703
60082W        W28311  33.641  13.211  11.233
60083W        W28312  35.898  29.174  10.726
60084W        W28313  17.919  12.292  10.625
60085W        W28314   8.929  14.441  11.233
60086W        W28315   8.948  30.476  14.739
60087W        W28316  43.318  44.663   4.469
60088W        W28317   0.650  44.185  14.095
60089W        W28318  21.762  27.111  11.632
60090W        W28319  28.775  27.494   4.589
60091W        W28320   5.796  30.056  12.849
60092W        W28321  29.078  29.372   0.153
60093W        W28322  24.713  30.214  14.429
60094W        W28323   2.935  17.602  12.974
60095W        W28324   8.443  32.126   0.585
60096W        W28325  41.171  11.996   4.144
60097W        W28326  38.988  43.860   4.023
60098W        W28327  27.239  27.131  14.449
60099W        W28328  28.520  44.658   3.174
60100W        W28329   7.912   2.992   2.788
60101W        W28330  17.327  20.995  13.656
60102W        W28331  20.217  41.458  10.514
60103W        W28332  16.882  19.599  14.460
60104W        W28333   7.841  32.904   2.837
60105W        W28334  16.093  32.363   3.520
60106W        W28335  23.941   4.557   5.193
60107W        W28336  16.891  23.717  10.707
60108W        W28337  28.076  34.572   4.612
60109W        W28338  22.181  27.948  13.559
60110W        W28339  18.866  17.051  10.520
60111W        W28340  33.819  44.368  11.169
60112W        W28341  24.534  17.351   1.749
60113W        W28342  40.003  27.603   4.289
60114W        W28343  43.452  34.282  13.706
60115W        W28344  41.943  42.714   1.004
60116W        W28345  26.087  30.192  10.388
60117W        W28346  15.189  24.973  12.985
60118W        W28347  36.378   1.423   2.326
60119W        W28348  35.220  31.413  11.904
60120W        W28349  29.010  21.330   4.564
60121W        W28350  17.782  42.386   1.983
60122W        W28351  37.904   3.072  13.357
60123W        W28352  12.331  13.800   4.968
60124W        W28353  28.251  11.348  11.095
60125W        W28354  30.611  33.052   2.817
60126W        W28355   0.288  28.522  14.515
60127W        W28356   4.473   5.184  12.517
60128W        W28357   5.360  38.607   1.331
60129W        W28358  12.739  13.870  11.169
60130W        W28359  20.510  10.047  12.392
60131W        W28360  35.969  34.266  10.678
60132W        W28361   4.760  36.456   4.726
60133W        W28362  16.093  38.548  12.023
60134W        W28363  25.616  14.816  14.846
60135W        W28364  16.796  33.079   1.841
60136W        W28365   5.130  16.672   4.894
60137W        W28366  12.244  21.208  12.722
60138W        W28367  17.779  35.129  13.332
60139W        W28368  39.056  17.007   0.430
60140W        W28369  35.942  30.569   4.444
60141W        W28370  16.035   1.412   2.227
60142W        W28371  42.422  34.221   3.714
60143W        W28372  25.391  29.450   2.338
60144W        W28373   3.560  33.913   2.275
60145W        W28374  15.383  10.895   0.874
60146W        W28375  10.894   6.362  10.834
60147W        W28376  16.250  38.738  10.987
60148W        W28377  25.534  41.506   2.296
60149W        W28378  13.596  26.769   5.009
60150W        W28379  32.431  22.993   0.258
60151W        W28380   8.138  15.330   4.503
60152W        W28381  26.974  29.559  11.330
60153W        W28382  29.479   3.526   2.810
60154W        W28383  20.237  37.317  11.576
60155W        W28384   4.758  37.148   0.641
60156W        W28385  13.218  31.972   2.978
60157W        W28386   4.194  43.465   4.963
60158W        W28387  43.241  40.371   4.205
60159W        W28388   1.489  25.233   2.405
60160W        W28389  10.585  26.678   0.243
60161W        W28390   8.711  31.643   1.368
60162W        W28391   7.701  15.309  13.301
60163W        W28392  11.337  16.079  13.011
60164W        W28393  28.739  27.228  12.062
60165W        W28394   9.101  16.497   3.670
60166W        W28395   6.292  39.230   4.616
60167W        W28396  28.422  41.481   3.514
60168W        W28397  31.054  42.408  12.072
60169W        W28398  40.330   1.344  13.961
60170W        W28399  33.672  41.791   1.385
60171W        W28400  26.484  13.777   2.327
60172W        W28401   3.313  44.514  10.531
60173W        W28402  29.679  14.091   3.300
60174W        W28403   5.260  30.218  12.950
60175W        W28404   4.733  33.089  14.961
60176W        W28405  44.289  40.263   1.875
60177W        W28406  13.815  28.465   0.735
60178W        W28407  25.634  25.763  13.873
60179W        W28408  36.292  22.228   0.673
60180W        W28409  18.731  14.145   0.067
60181W        W28410   4.503   4.024  14.014
60182W        W28411  33.272   2.713   0.672
60183W        W28412  32.789  29.699  11.543
60184W        W28413  31.534   2.817   3.105
60185W        W28414   7.244  13.704   0.410
60186W        W28415  18.911   7.383   2.103
60187W        W28416  43.954  26.558   3.621
60188W        W28417  42.728   4.232   0.870
60189W        W28418  13.680  39.886   4.654
60190W        W28419  25.396   9.756   1.411
60191W        W28420   2.256  36.582   1.244
60192W        W28421  16.754  42.936   0.440
60193W        W28422  41.556  38.459  14.877
60194W        W28423   5.696   7.556  12.137
60195W        W28424  33.416  38.542   0.498
60196W        W28425  23.544  42.070   2.737
60197W        W28426  19.871  29.846   2.400
60198W        W28427  11.331  20.263   4.774
60199W        W28428  30.885  10.799  10.323
60200W        W28429  41.068  26.533   3.714
60201W        W28430  19.383  21.150  10.627
60202W        W28431  17.177  20.655   3.749
60203W        W28432  10.926  39.074  12.063
60204W        W28433   5.505   6.341  13.036
60205W        W28434  43.866  39.406   1.256
60206W        W28435  16.618  29.344  14.764
60207W        W28436  20.581  27.504  13.765
60208W        W28437   3.316  39.789  10.418
60209W        W28438  10.651   4.473   4.736
60210W        W28439  34.789  20.623  11.733
60211W        W28440  34.363  27.706   4.830
60212W        W28441  39.408  15.223   0.931
60213W        W28442  41.050  23.309  13.105
60214W        W28443   2.828  18.306   2.807
60215W        W28444  39.523   1.015   0.424
60216W        W28445  27.643  16.018  14.249
60217W        W28446  26.158  24.630  13.904
60218W        W28447  26.958  16.271   1.639
60219W        W28448  37.473  19.776   4.279
60220W        W28449   3.428   9.695   4.834
60221W        W28450  39.311  29.054   0.985
60222W        W28451  30.404  39.321  12.051
60223W        W28452  25.795  38.690  13.387
60224W        W28453   8.300  43.427  14.302
60225W        W28454  29.172   7.321   4.979
60226W        W28455   9.214  25.001  12.389
60227W        W28456  30.600  23.861  14.288
60228W        W28457  32.582  19.305  13.565
60229W        W28458   4.663  10.375   1.469
60230W        W28459  23.666  14.901  13.997
60231W        W28460   8.361  43.792   1.221
60232W        W28461  12.088  36.986  12.985
60233W        W28462  38.266  33.857   3.629
60234W        W28463  30.318  16.805  10.631
60235W        W28464  34.021  24.962   4.074
60236W        W28465  11.732  23.887   3.194
60237W        W28466  19.541   4.936   0.816
60238W        W28467  23.585   5.394   0.221
60239W        W28468  18.217  40.094  14.162
60240W        W28469  42.336  44.043   0.464
60241W        W28470  18.483  14.645  14.366
60242W        W28471  38.075  10.064   0.155
60243W        W28472  24.206  14.833  12.360
60244W        W28473  17.574  43.272   4.562
60245W        W28474  13.709  44.530   3.151
60246W        W28475  24.069   3.128  11.214
60247W        W28476  30.229  11.634   1.758
60248W        W28477  35.460  20.176  10.630
60249W        W28478   3.354   4.380   3.733
60250W        W28479  42.715  23.189   1.572
60251W        W28480  26.915   2.933  13.366
60252W        W28481  16.691  13.309  11.885
60253W        W28482  25.851   4.897  14.316
60254W        W28483  31.722   0.222  14.156
60255W        W28484  42.955   6.578   3.327
60256W        W28485  36.672  21.319   4.088
60257W        W28486   3.756  44.552  14.399
60258W        W28487  40.024  31.592  11.417
60259W        W28488  35.417  19.480  12.618
60260W        W28489  14.523   6.318   4.818
60261W        W28490  17.026  24.657   4.177
60262W        W28491  17.790  38.393  10.708
60263W        W28492  15.174  10.663  13.042
60264W        W28493   3.276  15.135   3.888
60265W        W28494  41.597  24.146  11.132
60266W        W28495  29.896  25.688  11.390
60267W        W28496  40.067   8.352  11.912
60268W        W28497  13.637   5.669  12.472
60269W        W28498   9.303   6.705  13.439
60270W        W28499  18.201  30.582   0.847
60271W        W28500  15.648  14.072  10.655
60272W        W28501  30.917   5.810  14.644
60273W        W28502   1.861  13.311   1.137
60274W        W28503  23.181  34.418   4.496
60275W        W28504  38.493  22.634   4.070
60276W        W28505   7.137  25.122  12.617
60277W        W28506  33.461  15.114  11.536
60278W        W28507  13.432   7.470  11.690
60279W        W28508   8.103  27.109  11.424
60280W        W28509   4.004  18.572   0.388
60281W        W28510   7.394  15.776  10.745
60282W        W28511  10.257   6.433  12.136
60283W        W28512  27.934  13.353  10.648
60284W        W28513  20.072   5.492  13.066
60285W        W28514  18.172   0.724  11.150
60286W        W28515  16.174   1.824   2.984
60287W        W28516   4.747  11.206   0.856
60288W        W28517  23.524  15.600   3.155
60289W        W28518   0.526  16.771  13.435
60290W        W28519   9.525  42.149  12.915
60291W        W28520  30.040   8.265  13.394
60292W        W28521  37.351   3.736  14.619
60293W        W28522  41.785  26.943  12.862
60294W        W28523  31.850  20.709   1.719
60295W        W28524  17.316  30.027   3.246
60296W        W28525  39.020  33.041   4.742
60297W        W28526   1.197  29.126   4.640
60298W        W28527   4.196   7.787   3.213
60299W        W28528  22.073  33.321  11.644
60300W        W28529  18.928  26.366  11.887
60301W        W28530   1.875  23.571   0.988
60302W        W28531  32.357   1.713  11.470
60303W        W28532  12.307  24.690   4.429
60304W        W28533  36.510   0.085   4.841
60305W        W28534  17.856  35.385   1.285
60306W        W28535  28.637  36.790   2.377
60307W        W28536   2.295  31.647  11.180
60308W        W28537  34.582  35.155  12.970
60309W        W28538   7.128  36.937  13.351
60310W        W28539  25.095  27.739   1.930
60311W        W28540  21.590  13.202  11.670
60312W        W28541   4.784   7.178   2.599
60313W        W28542  10.424  27.935   4.992
60314W        W28543  14.456  20.088   0.411
60315W        W28544  34.480  27.688   3.341
60316W        W28545  20.043   0.712   2.219
60317W        W28546  41.965  23.834   1.603
60318W        W28547  33.478   9.242   0.067
60319W        W28548  22.707  25.662  14.112
60320W        W28549  30.887   0.336   0.241
60321W        W28550  17.512  39.066   2.281
60322W        W28551   1.841  17.012  11.155
60323W        W28552   5.265  24.485   3.524
60324W        W28553  25.526  10.076   4.238
60325W        W28554  37.395  19.256  10.483
60326W        W28555  40.852  42.487   3.768
60327W        W28556  13.387  34.440  10.575
60328W        W28557  24.891  16.223   3.213
60329W        W28558  13.831   7.503  14.913
60330W        W28559  17.635  36.656  13.449
60331W        W28560   4.259  13.706   4.312
60332W        W28561   3.051  29.402  12.846
60333W        W28562   5.468   4.327   1.232
60334W        W28563  22.675  15.267   2.209
60335W        W28564  12.204  12.621   0.106
60336W        W28565  43.316  37.049   1.755
60337W        W28566  29.229  36.455   0.874
60338W        W28567  38.752  12.589   3.864
60339W        W28568  13.860  24.683  14.837
60340W        W28569  20.633  37.856   4.130
60341W        W28570  40.622  41.004  14.515
60342W        W28571  30.082   7.706  13.877
60343W        W28572  41.446  40.572  13.293
60344W        W28573  21.222  17.194  14.295
60345W        W28574  33.487  22.506  14.049
60346W        W28575  37.226   5.043  12.479
60347W        W28576  44.040  20.721  14.279
60348W        W28577  12.654  30.363  14.475
60349W        W28578  24.712  12.428   3.250
60350W        W28579  28.964  10.404  12.906
60351W        W28580  33.296  41.814   2.754
60352W        W28581  20.579  27.684  14.663
60353W        W28582   6.727   2.673   4.655
60354W        W28583   5.352   8.539  11.937
60355W        W28584  11.131  19.689   1.280
60356W        W28585  13.016  17.377   2.428
60357W        W28586  33.531  38.352  11.578
60358W        W28587  30.267   3.685  13.361
60359W        W28588   4.910   3.616  11.001
60360W        W28589  42.338  40.997  11.727
60361W        W28590   2.931  29.596  14.256
60362W        W28591  34.845  27.218  13.811
60363W        W28592   3.892  14.438   3.755
60364W        W28593  39.993  17.642  10.841
60365W        W28594  39.572  43.837  11.176
60366W        W28595  26.560   3.222   0.960
60367W        W28596   2.438  18.584   3.632
60368W        W28597   3.432  17.432  11.604
60369W        W28598  22.759  40.400  12.054
60370W        W28599  44.515   6.363  12.990
60371W        W28600  28.866  25.100  13.946
60372W        W28601  33.165  35.671   2.131
60373W        W28602  10.235  40.253  11.033
60374W        W28603   2.670   2.970  12.014
60375W        W28604  28.609   7.586   3.609
60376W        W28605  43.932  32.113  13.938
60377W        W28606  37.626   0.622   4.153
60378W        W28607  11.632  30.036   2.901
60379W        W28608  22.707  40.088  10.881
60380W        W28609  18.145  32.157  13.093
60381W        W28610  22.901  18.381  11.590
60382W        W28611  40.249  19.795   2.865
60383W        W28612  23.501   7.108   1.959
60384W        W28613  32.807  24.226   4.462
60385W        W28614  22.200  38.628  11.991
60386W        W28615  30.987  23.044  12.866
60387W        W28616  39.119   8.325   1.415
60388W        W28617  18.692  17.107   4.514
60389W        W28618  31.145   7.195   4.532
60390W        W28619   9.385   2.320  12.787
60391W        W28620   4.024  24.467   0.267
60392W        W28621   2.338  42.844  14.317
60393W        W28622  22.899  42.467   3.260
60394W        W28623   8.226  41.041   2.859
60395W        W28624  41.446  14.649  13.876
60396W        W28625  34.829  34.443   4.476
60397W        W28626   4.153  43.064   2.397
60398W        W28627  21.560  42.910   0.871
60399W        W28628  14.755  22.930   2.922
60400W        W28629  28.676   4.260   2.699
60401W        W28630  28.989   4.973   0.390
60402W        W28631  41.210  20.263  13.461
60403W        W28632  32.176   1.423  10.569
60404W        W28633  21.054  17.267  12.826
60405W        W28634  22.950  39.334   2.774
60406W        W28635  38.435   3.880   4.626
60407W        W28636   6.446  35.736   0.408
60408W        W28637   5.329   2.369  14.990
60409W        W28638   3.873  34.934   3.755
60410W        W28639   1.249  26.257   4.096
60411W        W28640   0.300  22.997   1.394
60412W        W28641  43.341   3.505  12.516
60413W        W28642  35.397  22.005   0.942
60414W        W28643   5.461   0.267  12.439
60415W        W28644  20.200  43.492  14.631
60416W        W28645   6.361  42.879   4.598
60417W        W28646  18.235  21.686  11.375
60418W        W28647  10.274   4.732   4.473
60419W        W28648   9.625  23.965  14.599
60420W        W28649   9.338  40.245  12.316
60421W        W28650  36.603  15.681  13.975
60422W        W28651  11.838  43.433   0.732
60423W        W28652   8.366   9.505  12.899
60424W        W28653  20.668  33.381   3.243
60425W        W28654  37.592  22.127   3.919
60426W        W28655  28.114  24.695  10.492
60427W        W28656  42.401  36.895   0.423
60428W        W28657  43.406  41.965  12.044
60429W        W28658   7.828   6.822  10.734
60430W        W28659  25.491   9.565   4.108
60431W        W28660  29.338   9.729  14.863
60432W        W28661  22.226  12.200  12.885
60433W        W28662  26.659  14.710   3.777
60434W        W28663  37.835  20.328  11.107
60435W        W28664  12.108  17.484  11.087
60436W        W28665  33.286  33.656  13.395
60437W        W28666  29.651  30.898  11.606
60438W        W28667  21.907  10.187  11.646
60439W        W28668  21.654   5.821  13.444
60440W        W28669   7.642  30.033   1.249
60441W        W28670   9.707   2.825  11.987
60442W        W28671  24.294  39.754   0.872
60443W        W28672  25.939  33.017   0.884
60444W        W28673  17.861   9.538   2.488
60445W        W28674  22.130  18.487  12.517
60446W        W28675  18.285  33.497  13.680
60447W        W28676  22.011  15.625  14.573
60448W        W28677  22.637  31.098  14.559
60449W        W28678  42.490   8.455   3.303
60450W        W28679  31.826   7.032   3.913
60451W        W28680  12.135  44.417   3.844
60452W        W28681  44.022   4.677  13.923
60453W        W28682  16.029  25.234  14.327
60454W        W28683  36.234   0.903   2.466
60455W        W28684  27.977  43.781   0.900
60456W        W28685  29.992  19.535   3.103
60457W        W28686  41.788   1.757   0.933
60458W        W28687   2.474  39.369  13.253
60459W        W28688  13.036  36.323   2.844
60460W        W28689  13.826  33.857   4.754
60461W        W28690  14.621  22.072  13.584
60462W        W28691   3.858   0.787   2.144
60463W        W28692  37.389  25.894   2.246
60464W        W28693  38.383   5.732  12.306
60465W        W28694  16.292   9.885   0.907
60466W        W28695  23.802  12.441  14.359
60467W        W28696   0.749   6.407   0.795
60468W        W28697  33.789  32.397   2.389
60469W        W28698  21.339  21.314  11.920
60470W        W28699  40.270   9.211   3.659
60471W        W28700  42.723  35.582   3.248
60472W        W28701  38.389  14.386   4.156
60473W        W28702   4.485   5.805   2.717
60474W        W28703  35.443   5.569  13.767
60475W        W28704  17.186  17.093  14.983
60476W        W28705  30.460  22.122   4.315
60477W        W28706   1.725   6.946   4.714
60478W        W28707  43.824  34.276  10.648
60479W        W28708  30.888  38.382  12.947
60480W        W28709  36.358  29.389  10.800
60481W        W28710  28.048  18.538   1.410
60482W        W28711   8.771  40.028   0.462
60483W        W28712  34.940  35.709   1.486
60484W        W28713  14.095  15.681  10.673
60485W        W28714  10.250  25.910  12.066
60486W        W28715   6.818  33.618  12.425
60487W        W28716  44.246   6.362  14.845
60488W        W28717  12.339  38.882  12.833
60489W        W28718  27.088  33.080   3.218
60490W        W28719   5.760  35.901   3.822
60491W        W28720  36.674  28.701  10.389
60492W        W28721  13.605  37.505  12.014
60493W        W28722  10.701  20.764   0.465
60494W        W28723  27.915  23.566   2.153
60495W        W28724  12.251   4.767   4.606
60496W        W28725  35.399  20.608  12.639
60497W        W28726  15.742  39.240   1.971
60498W        W28727  19.743  13.730   1.264
60499W        W28728   3.861   4.858   0.458
60500W        W28729   5.663  29.349  13.458
60501W        W28730  22.234  23.475   4.135
60502W        W28731  40.614  23.640  12.985
60503W        W28732   9.301  16.288   2.742
60504W        W28733  20.744  40.426   2.851
60505W        W28734  20.006  14.159   5.266
60506W        W28735   9.413  33.468   2.286
60507W        W28736  26.495  44.333   4.273
60508W        W28737   4.655  41.185  13.830
60509W        W28738  20.930  37.836   0.309
60510W        W28739  32.648   4.878  10.636
60511W        W28740  22.679  40.026  11.399
60512W        W28741  26.181   6.582  12.017
60513W        W28742  11.411   9.261   0.743
60514W        W28743   1.732  11.393  10.983
60515W        W28744  37.977   5.374  11.120
60516W        W28745   9.894  14.909   2.227
60517W        W28746   2.883  13.410   3.968
60518W        W28747   9.657  40.326  11.174
60519W        W28748  25.957  17.766  12.081
60520W        W28749  21.429   2.386   2.394
60521W        W28750  16.393  18.613   0.227
60522W        W28751  13.677   1.857  13.655
60523W        W28752  44.286  30.933   2.695
60524W        W28753   2.679  15.362   0.790
60525W        W28754  28.014  28.523  12.641
60526W        W28755  37.107  32.586   0.687
60527W        W28756  10.087  30.451   0.100
60528W        W28757  22.786  18.978   1.830
60529W        W28758  12.337   6.741   4.623
60530W        W28759  36.949   7.310   3.293
60531W        W28760  10.858  10.211  13.082
60532W        W28761  25.119  25.753   4.982
60533W        W28762   3.041  12.030  11.665
60534W        W28763  22.721  27.045   3.245
60535W        W28764   7.846   1.732   0.237
60536W        W28765   9.919  40.924  12.860
60537W        W28766   8.871  29.913   4.484
60538W        W28767  28.291  32.000   5.135
60539W        W28768  35.330   7.741  11.084
60540W        W28769  43.543   5.967  11.511
60541W        W28770  41.071   2.958   4.220
60542W        W28771  23.465  26.701   2.442
60543W        W28772   8.145  35.611  13.891
60544W        W28773  11.166   2.774   0.696
60545W        W28774  24.566  38.109   0.727
60546W        W28775  30.662  22.604  14.820
60547W        W28776  18.786  42.827   2.992
60548W        W28777  39.607   7.335  13.918
60549W        W28778  42.237  38.579   3.306
60550W        W28779   9.386   9.733  13.805
60551W        W28780   0.323  17.077   1.953
60552W        W28781   3.660  43.382   4.043
60553W        W28782  11.750  13.116  13.838
60554W        W28783  36.473  11.322   4.520
60555W        W28784  10.850  43.066   2.755
60556W        W28785   5.294  10.657  14.348
60557W        W28786   4.332   1.685   4.789
60558W        W28787  16.647  25.454   1.386
60559W        W28788  16.328  36.895  13.467
60560W        W28789  21.264  35.315  12.015
60561W        W28790  28.019   1.294  13.511
60562W        W28791  31.433   1.653  12.581
60563W        W28792  38.262  13.822  13.908
60564W        W28793  19.257  26.512   3.181
60565W        W28794  35.932  40.073   0.173
60566W        W28795  22.046  33.131  14.220
60567W        W28796  19.363  30.992   1.348
60568W        W28797  12.162  42.428  11.687
60569W        W28798  22.777  10.430   1.734
60570W        W28799   9.912  32.950  14.305
60571W        W28800  16.686  39.590  11.616
60572W        W28801   2.914  17.131  14.915
60573W        W28802  41.943  35.875  13.956
60574W        W28803  21.771  29.825   2.928
60575W        W28804  14.767  44.228   4.007
60576W        W28805  26.257  14.618  11.220
60577W        W28806  13.827  11.745   4.325
60578W        W28807  21.695  21.581  13.308
60579W        W28808   4.786  23.124   4.735
60580W        W28809  24.986   7.689  12.068
60581W        W28810  24.480  35.473   1.636
60582W        W28811  17.222  25.098   1.263
60583W        W28812   6.154  24.872  11.543
60584W        W28813  17.170  22.271   4.650
60585W        W28814  33.645  22.627   5.127
60586W        W28815  16.097  33.962   0.952
60587W        W28816  32.319  39.291   2.730
60588W        W28817  42.271  19.165   1.388
60589W        W28818   2.356   2.014   1.342
60590W        W28819  29.688  21.980  13.451
60591W        W28820  15.237  44.868   4.043
60592W        W28821  16.819   0.525   2.327
60593W        W28822  44.993  11.515   2.692
60594W        W28823  28.152   1.486   2.336
60595W        W28824   7.284  30.573  11.653
60596W        W28825  37.143   5.400   1.890
60597W        W28826   6.125  19.008  14.005
60598W        W28827  18.643  10.972   0.057
60599W        W28828  31.978   0.146   4.139
60600W        W28829  24.785  32.410   1.246
60601W        W28830   8.682   5.140  10.635
60602W        W28831  40.757   3.994  11.108
60603W        W28832   8.608  17.078   4.868
60604W        W28833  25.937  44.494  13.079
60605W        W28834  39.342  33.185  10.286
60606W        W28835   9.252   3.347  11.250
60607W        W28836  21.669  33.573  12.548
60608W        W28837   7.941  39.871  14.346
60609W        W28838  43.609  26.626   3.988
60610W        W28839   5.642   1.768   1.719
60611W        W28840  34.318  41.784   0.537
60612W        W28841  24.885  33.083   4.037
60613W        W28842  31.612   3.815   0.041
60614W        W28843  34.745   6.823   0.734
60615W        W28844   1.832  20.477  10.777
60616W        W28845  24.644   8.282   0.343
60617W        W28846   5.980  40.026  13.990
60618W        W28847  38.943  26.984   2.098
60619W        W28848  10.304  30.877   2.304
60620W        W28849  12.573  17.145  14.454
60621W        W28850  36.771  39.933   3.374
60622W        W28851   6.978  19.195  11.117
60623W        W28852  13.301  20.498  13.455
60624W        W28853  24.283   9.680   2.806
60625W        W28854  29.413  35.988   1.922
60626W        W28855   0.353   0.027  13.899
60627W        W28856  36.902   6.441  13.053
60628W        W28857  44.623   3.941  14.301
60629W        W28858  16.071   7.902   4.313
60630W        W28859  18.220  41.030   4.944
60631W        W28860  15.198  18.662  11.918
60632W        W28861  28.593  12.079   0.288
60633W        W28862  11.625  26.670   0.386
60634W        W28863  37.900  19.507   0.820
60635W        W28864  22.524   3.198   4.679
60636W        W28865  22.594  37.534  14.846
60637W        W28866  41.335  32.103   0.711
60638W        W28867  13.176  19.179  10.736
60639W        W28868  40.518  24.076  11.941
60640W        W28869  41.370  22.568   1.711
60641W        W28870  29.143  40.802   1.470
60642W        W28871   0.809   6.286  12.533
60643W        W28872  19.149  26.222   1.818
60644W        W28873  17.345   2.509  14.463
60645W        W28874  29.040  12.811   2.309
60646W        W28875  42.068  11.166  14.819
60647W        W28876  30.573  14.677   3.743
60648W        W28877  32.921  11.725  13.849
60649W        W28878   7.363  24.526  11.185
60650W        W28879  20.865  43.968   3.702
60651W        W28880  14.998  42.848   0.777
60652W        W28881  37.946   9.394   2.706
60653W        W28882  34.377  12.105   1.416
60654W        W28883  23.115  15.413  12.469
60655W        W28884   3.305  41.230  12.393
60656W        W28885  33.376  24.497   3.656
60657W        W28886  31.147  34.883  11.536
60658W        W28887  19.202   9.300  10.726
60659W        W28888  32.099  24.776   4.458
60660W        W28889  22.050  41.526   4.277
60661W        W28890   6.145  11.607  14.944
60662W        W28891   2.365   3.361   2.856
60663W        W28892  37.419  39.614  13.353
60664W        W28893  34.421  14.112   4.803
60665W        W28894  22.080  33.003  13.725
60666W        W28895   1.401  15.598  13.918
60667W        W28896  11.916  41.935  11.608
60668W        W28897  17.054  27.403   3.565
60669W        W28898  14.131  14.228  13.430
60670W        W28899  44.499  21.718  13.082
60671W        W28900   1.087  24.550   2.500
60672W        W28901  33.048   5.170   4.103
60673W        W28902  25.077  10.722   3.254
60674W        W28903   1.812  39.560  12.466
60675W        W28904  30.635  30.948   1.968
60676W        W28905  43.555  33.099   0.369
60677W        W28906  17.744  20.944   0.302
60678W        W28907  38.695   4.954  12.666
60679W        W28908   2.534  20.775   2.845
60680W        W28909  37.945  15.551  13.131
60681W        W28910  19.669  26.175   1.849
60682W        W28911  35.904   1.497   2.975
60683W        W28912   9.842  38.989  13.892
60684W        W28913  19.489  16.342  11.965
60685W        W28914   4.270  42.116  11.040
60686W        W28915  15.065  21.974  12.808
60687W        W28916   0.396  43.232  13.041
60688W        W28917  26.079   0.002  11.680
60689W        W28918  44.599  29.652   4.107
60690W        W28919  13.137  30.024   3.606
60691W        W28920  34.473  25.095   1.677
60692W        W28921  42.330  41.386   4.580
60693W        W28922  19.948  13.766  14.720
60694W        W28923  39.616  32.153   1.827
60695W        W28924  19.361  26.288  14.563
60696W        W28925  41.343  21.275   3.569
60697W        W28926  21.647  29.477  11.573
60698W        W28927  43.923  24.029  11.620
60699W        W28928   7.005  39.310  11.614
60700W        W28929  33.517   5.410   4.110
60701W        W28930  16.140  29.046   0.216
60702W        W28931  13.857  17.645   1.839
60703W        W28932   4.137  44.139  13.520
60704W        W28933  12.945  39.401  12.057
60705W        W28934  13.391   2.801   0.307
60706W        W28935  23.988  19.398   4.341
60707W        W28936  34.395  10.136   4.894
60708W        W28937   0.373  22.767   0.435
60709W        W28938  17.872  29.521  12.419
60710W        W28939  27.904  34.628  13.958
60711W        W28940  41.290  29.272   4.150
60712W        W28941  18.008  30.829   0.020
60713W        W28942  18.798  15.113   2.838
60714W        W28943  15.277  38.582   2.926
60715W        W28944  15.321  25.327   2.204
60716W        W28945   4.039  44.468   0.936
60717W        W28946  10.911   3.336   2.658
60718W        W28947  22.256  29.371  10.745
60719W        W28948  19.226   6.299   4.905
60720W        W28949  29.130   1.354   2.874
60721W        W28950  22.478  37.601  12.373
60722W        W28951  21.270  29.170   2.641
60723W        W28952  15.123  31.675  11.183
60724W        W28953   6.177   4.035  11.560
60725W        W28954  29.872  34.547  13.322
60726W        W28955  39.422  16.143  12.585
60727W        W28956  24.790  16.812  14.540
60728W        W28957   7.411  41.239  11.138
60729W        W28958   4.797  11.052   4.599
60730W        W28959  43.312  25.183   4.263
60731W        W28960  16.484  12.297   2.829
60732W        W28961  18.634  36.378   3.199
60733W        W28962   4.425   8.966  10.577
60734W        W28963  21.747  30.961   1.269
60735W        W28964  27.669  32.917  14.951
60736W        W28965  36.425   7.215  12.469
60737W        W28966  21.022  37.976  14.411
60738W        W28967  25.001  33.611   4.023
60739W        W28968  34.537  13.339   3.195
60740W        W28969  27.479  29.752  12.848
60741W        W28970   2.784  34.939   1.595
60742W        W28971   8.265  39.268  13.630
60743W        W28972  38.513  27.405  14.958
60744W        W28973  43.367  22.447   3.178
60745W        W28974  14.806  35.856   4.602
60746W        W28975   2.731  22.151   3.131
60747W        W28976   6.155  43.767   1.399
60748W        W28977   2.842  14.411   1.829
60749W        W28978  39.276  43.254   1.668
60750W        W28979  21.964   7.357   4.406
60751W        W28980  29.345  26.183  12.369
60752W        W28981  43.308   5.250   1.784
60753W        W28982  23.423   6.359  11.208
60754W        W28983  26.976  39.052  14.364
60755W        W28984  36.020  21.925  12.982
60756W        W28985  21.319  10.248   2.827
60757W        W28986  37.068  43.447  14.628
60758W        W28987  42.912  31.072   0.898
60759W        W28988  36.714  44.880   2.748
60760W        W28989  30.676  12.689   0.520
60761W        W28990  28.186  36.051  12.849
60762W        W28991  23.508  16.852  10.947
60763W        W28992  25.592   2.915   2.356
60764W        W28993  20.432  33.418  11.209
60765W        W28994  43.688  44.302   4.610
60766W        W28995  38.916  17.883   1.255
60767W        W28996   0.264  32.151  11.718
60768W        W28997  10.355   8.526   3.242
60769W        W28998  40.388  17.904  10.601
60770W        W28999   8.901  19.471   2.959
60771W        W29000  21.961  35.962   0.918
60772W        W29001  44.802  23.737   3.081
60773W        W29002  14.291  21.693   1.345
60774W        W29003   3.349  39.924   4.147
60775W        W29004  37.020  25.239  14.402
60776W        W29005  23.590   9.424   3.654
60777W        W29006  12.321  43.299   0.815
60778W        W29007  25.389  10.640  13.414
60779W        W29008  17.484  19.404  14.726
60780W        W29009  16.722  44.767   0.236
60781W        W29010  31.545  29.609  13.508
60782W        W29011  22.214  32.621   2.383
60783W        W29012  40.164  43.493  11.659
60784W        W29013   9.935  42.340   4.214
60785W        W29014   9.405  31.517   3.177
60786W        W29015  26.303   9.043   2.283
60787W        W29016  37.890  23.661  14.009
60788W        W29017   9.875  29.371   0.959
60789W        W29018  12.149   9.167   4.176
60790W        W29019  27.575  26.560   3.170
60791W        W29020   1.669  23.882   3.343
60792W        W29021  20.114  19.323   4.263
60793W        W29022  27.596  28.757   3.688
60794W        W29023  28.892  42.515  13.390
60795W        W29024  38.875   1.441  12.475
60796W        W29025  11.107  29.694  14.458
60797W        W29026   5.341  20.615  14.373
60798W        W29027  42.885   6.332   1.781
60799W        W29028  39.788  28.473  10.727
60800W        W29029  25.738  33.031  13.866
60801W        W29030  30.121  10.044  12.560
60802W        W29031  15.655   4.935  14.949
60803W        W29032  28.429  12.673  12.230
60804W        W29033  39.440  24.261   4.131
60805W        W29034   9.248  34.415  12.353
60806W        W29035  21.757  14.231  10.731
60807W        W29036  44.325  35.802   0.758
60808W        W29037  29.435   0.206  13.078
60809W        W29038  38.106   7.727   0.946
60810W        W29039  13.710  15.051   3.580
60811W        W29040  43.350  21.982   0.745
60812W        W29041  39.153  43.328  12.804
60813W        W29042  10.349  25.657   0.754
60814W        W29043   6.685  32.832   1.499
60815W        W29044  32.947   6.342  14.321
60816W        W29045   9.186  16.893   0.810
60817W        W29046  18.623  28.067  12.384
60818W        W29047  30.014  20.667   3.550
60819W        W29048  42.663   5.800  11.883
60820W        W29049  28.972   1.331   4.885
60821W        W29050  25.054  24.957  11.389
60822W        W29051  27.588  19.330   4.771
60823W        W29052  11.549   3.700  14.409
60824W        W29053  10.238   0.218   3.787
60825W        W29054   8.640  36.894  14.991
60826W        W29055  25.712  23.589   2.656
60827W        W29056  35.786   6.341   1.469
60828W        W29057  38.850  29.437  10.967
60829W        W29058  40.214   8.538   3.189
60830W        W29059  30.234  27.440  13.588
60831W        W29060  42.944  41.875   0.725
60832W        W29061  38.959  21.559  12.920
60833W        W29062  33.170  16.641   3.256
60834W        W29063  33.389  41.365   1.494
60835W        W29064  33.444   0.463  14.466
60836W        W29065  13.691   4.071  12.042
60837W        W29066  35.351  16.716  11.934
60838W        W29067  11.859  25.449  11.305
60839W        W29068  40.040   0.424   3.017
60840W        W29069  11.641  31.532   3.233
60841W        W29070  22.145  25.134  13.978
60842W        W29071  16.859  31.202   2.771
60843W        W29072  34.722  42.898  14.819
60844W        W29073   6.903  22.572   1.840
60845W        W29074  37.073   5.924   0.777
60846W        W29075  40.705  29.691  10.635
60847W        W29076   5.649  17.714  13.587
60848W        W29077  15.884   7.384  14.165
60849W        W29078  12.862   0.307  10.544
60850W        W29079   2.862  44.487   2.277
60851W        W29080  39.263  41.038  13.399
60852W        W29081  39.529  11.129   0.555
60853W        W29082  39.067   6.757  11.096
60854W        W29083  22.805  24.827  11.574
60855W        W29084  15.736   9.218  13.942
60856W        W29085  15.566   6.796  12.809
60857W        W29086  23.258  15.658   4.137
60858W        W29087  11.821  36.943  13.407
60859W        W29088  37.184   6.639   4.501
60860W        W29089  28.648  32.391  14.452
60861W        W29090   9.304  39.849  14.395
60862W        W29091   5.617  31.648  11.212
60863W        W29092  39.110  34.157   0.835
60864W        W29093  21.976  25.118  12.432
60865W        W29094  39.209  14.107  11.599
60866W        W29095  40.793  10.654   0.716
60867W        W29096  16.154   8.881  12.514
60868W        W29097  21.484  19.263  13.279
60869W        W29098  17.219   0.023  10.688
60870W        W29099  25.928  32.447   5.030
60871W        W29100   1.349  42.260  13.426
60872W        W29101  41.426  44.288  10.738
60873W        W29102  25.417   2.663  13.556
60874W        W29103  23.149  38.201   2.254
60875W        W29104  27.428  22.197  13.839
60876W        W29105  12.735   1.355   4.590
60877W        W29106   8.348  34.161  13.823
60878W        W29107  11.829  35.389   2.063
60879W        W29108  25.060   1.011   4.269
60880W        W29109   0.542  28.988  11.713
60881W        W29110  11.814  29.978  14.511
60882W        W29111  37.973  15.531  12.077
60883W        W29112   0.292  12.584  10.416
60884W        W29113  23.308   0.484  13.283
60885W        W29114  33.275   7.894   2.838
60886W        W29115  32.386  24.085  13.949
60887W        W29116   0.953  20.852   5.147
60888W        W29117  20.583  31.677  12.441
60889W        W29118  23.558  39.971  11.549
60890W        W29119   5.415   1.106  13.875
60891W        W29120  34.349  44.949  11.568
60892W        W29121  41.103  13.704  13.155
60893W        W29122  25.521  14.154   3.991
60894W        W29123   4.179  29.192   2.908
60895W        W29124  37.085  27.561   3.503
60896W        W29125  14.239  30.149   1.944
60897W        W29126  24.202  28.207   4.718
60898W        W29127  37.979   9.371   0.931
60899W        W29128  29.352  29.529   1.014
60900W        W29129  19.983   9.360  11.201
60901W        W29130  14.539  33.121  11.587
60902W        W29131  17.320   5.824   2.730
60903W        W29132   2.840   9.202  14.481
60904W        W29133   0.782   1.196   4.601
60905W        W29134  38.298  42.670  10.770
60906W        W29135  20.261  25.172  11.527
60907W        W29136  15.590  31.967  11.957
60908W        W29137  44.554  37.069   2.341
60909W        W29138  37.004   8.964  14.877
60910W        W29139   2.400  25.807  10.725
60911W        W29140  33.560  17.353   0.839
60912W        W29141   1.368  26.252   2.680
60913W        W29142  39.550  36.786   4.215
60914W        W29143  17.194  34.205   0.342
60915W        W29144  12.677   5.726   3.480
60916W        W29145  40.723  39.427   0.910
60917W        W29146  31.571   1.444   2.685
60918W        W29147  42.144  39.691   0.685
60919W        W29148   7.755  36.391   2.837
60920W        W29149  38.280  20.785  14.455
60921W        W29150  39.376  22.481   2.186
60922W        W29151  41.756  44.449  12.277
60923W        W29152   7.784   8.726   1.721
60924W        W29153  36.177   8.558   5.432
60925W        W29154   7.778  40.972  11.903
60926W        W29155  12.778  33.235   3.233
60927W        W29156  39.617  20.740   0.295
60928W        W29157  23.826  32.978  13.362
60929W        W29158  24.465  35.583  10.708
60930W        W29159   7.633  19.005   1.269
60931W        W29160  14.110  29.130  10.730
60932W        W29161  33.191  20.595  14.657
60933W        W29162  43.472  32.512  11.160
60934W        W29163   0.028   8.390   1.887
60935W        W29164  42.007  31.392  10.567
60936W        W29165  38.716  27.188  14.069
60937W        W29166  14.706  23.188   4.450
60938W        W29167  27.932  31.801  12.659
60939W        W29168  15.727  30.150  14.017
60940W        W29169  19.230  22.761   4.660
60941W        W29170  26.213  31.600  12.926
60942W        W29171  32.307  43.720  13.966
60943W        W29172  40.838  29.139   5.221
60944W        W29173  21.606   2.987  13.049
60945W        W29174   1.810  15.050  10.827
60946W        W29175   2.270  36.830   2.147
60947W        W29176  44.098  30.450   4.301
60948W        W29177   6.653  15.725   0.722
60949W        W29178   0.104  43.943  11.648
60950W        W29179  15.289  42.738  14.360
60951W        W29180   1.017  10.764   4.766
60952W        W29181  36.257  13.580   2.647
60953W        W29182  39.285  11.616  13.270
60954W        W29183  35.363  31.296  12.856
60955W        W29184  30.039  15.128  14.126
60956W        W29185  17.483  42.012   1.298
60957W        W29186  39.988  42.990  12.954
60958W        W29187   9.569  18.534  12.401
60959W        W29188   7.751   4.472   0.822
60960W        W29189  33.068  35.323   0.812
60961W        W29190  13.673  14.282  13.941
60962W        W29191  22.703  10.391   2.684
60963W        W29192   1.922   1.270   1.504
60964W        W29193   4.933  40.398  14.224
60965W        W29194   8.669  19.543  11.579
60966W        W29195  30.616   7.953   0.415
60967W        W29196   2.802  33.150   3.233
60968W        W29197  23.252  13.925   2.441
60969W        W29198  19.426  17.094  11.357
60970W        W29199  12.851  24.981  13.374
60971W        W29200  22.901   0.792   3.144
60972W        W29201   7.356   7.017   1.305
60973W        W29202   2.129   4.253   3.237
60974W        W29203  39.909  33.071  10.584
60975W        W29204  20.992  30.168  14.540
60976W        W29205  32.889  29.597  13.924
60977W        W29206  42.386  12.498   1.056
60978W        W29207  14.142  31.094  14.453
60979W        W29208  38.439   4.407   3.340
60980W        W29209  35.953  35.392  13.499
60981W        W29210  21.482  37.215   2.700
60982W        W29211  16.774   4.013  12.507
60983W        W29212  28.406  27.979  12.504
60984W        W29213   9.219   0.643   3.085
60985W        W29214   2.843  13.602   1.361
60986W        W29215   6.911  11.586  13.304
60987W        W29216  35.106  28.231   5.324
60988W        W29217   3.405  19.527  12.545
60989W        W29218  28.278  32.030   4.343
60990W        W29219  36.926  33.546  14.610
60991W        W29220  37.442   4.866   1.827
60992W        W29221  16.714  32.530  11.690
60993W        W29222   1.488   1.822  10.708
60994W        W29223  41.546  26.799   3.694
60995W        W29224  17.551  28.138  12.390
60996W        W29225  31.151  36.589  11.623
60997W        W29226  35.591  42.918   2.422
60998W        W29227  23.939  42.239   4.085
60999W        W29228  19.210  15.718  10.689
61000W        W29229  34.066  36.447  14.189
61001W        W29230  11.601   2.733  12.978
61002W        W29231   1.003   3.961  11.519
61003W        W29232  27.865  14.088   4.920
61004W        W29233   2.801   3.475   0.783
61005W        W29234  28.213   8.721   4.086
61006W        W29235  21.781  31.440  12.151
61007W        W29236  38.606   3.396  14.960
61008W        W29237   8.320   0.008  14.281
61009W        W29238  33.374  22.682   1.652
61010W        W29239  38.385   8.825  14.605
61011W        W29240  10.132  32.410  12.641
61012W        W29241  39.533  20.579  12.441
61013W        W29242   8.296  40.873  11.589
61014W        W29243  12.764  26.102  14.144
61015W        W29244  33.284  27.152  14.321
61016W        W29245   3.260  43.685  12.187
61017W        W29246  12.786   8.154   3.653
61018W        W29247  38.303  12.933   1.392
61019W        W29248   8.251  26.621   2.431
61020W        W29249  10.674  31.164   0.348
61021W        W29250   1.943  32.847   2.770
61022W        W29251  25.526  11.703  13.832
61023W        W29252   1.977  13.039   2.777
61024W        W29253   9.994  22.663   5.045
61025W        W29254  10.832  31.034  12.855
61026W        W29255   6.129  29.501  14.924
61027W        W29256  43.408  35.830  14.861
61028W        W29257   1.307  35.856   2.260
61029W        W29258  30.787  25.996   2.417
61030W        W29259  30.946  32.966  11.404
61031W        W29260  25.011  10.154   0.736
61032W        W29261  36.617  39.708  14.893
61033W        W29262  26.992  30.529   0.702
61034W        W29263  19.371  37.039  14.658
61035W        W29264  32.888  39.536  14.558
61036W        W29265  20.174  14.453  11.222
61037W        W29266  30.991  12.210   2.902
61038W        W29267  34.483  41.226   3.172
61039W        W29268  16.085  33.535  14.779
61040W        W29269  15.333  42.426   0.785
61041W        W29270   2.289  22.336  14.275
61042W        W29271  43.064   0.768   1.767
61043W        W29272  41.067  22.180   0.376
61044W        W29273  18.660  29.909   0.852
61045W        W29274   1.898  31.172  10.675
61046W        W29275  20.756  42.058  12.062
61047W        W29276   0.866  36.548  13.196
61048W        W29277  16.922  14.733  11.996
61049W        W29278  17.261  15.630  12.825
61050W        W29279  34.899  18.619  12.360
61051W        W29280  39.542   3.749   1.789
61052W        W29281  14.795  30.594  11.572
61053W        W29282  24.939   4.879  14.381
61054W        W29283  22.055   2.974   0.927
61055W        W29284   5.664  24.910   2.134
61056W        W29285   4.817  41.882   1.969
61057W        W29286  26.911  33.691   2.621
61058W        W29287  41.393  11.821   2.008
61059W        W29288  29.088  33.835  14.410
61060W        W29289   0.404  38.286  10.693
61061W        W29290  26.414   8.639   1.255
61062W        W29291   9.342  16.320  10.514
61063W        W29292   0.544  34.067   2.745
61064W        W29293   8.244  26.445  13.876
61065W        W29294  11.710  16.960   0.057
61066W        W29295  11.399  26.575  11.888
61067W        W29296  27.427  23.650  11.586
61068W        W29297   1.869  25.958   2.024
61069W        W29298  17.341  19.840  14.490
61070W        W29299  37.199  10.320   5.045
61071W        W29300  13.333  27.866  11.990
61072W        W29301   8.660   3.161   3.725
61073W        W29302  19.782  42.558  13.507
61074W        W29303  14.004   6.853  11.127
61075W        W29304  25.213  20.112   1.416
61076W        W29305  22.897  13.815   3.845
61077W        W29306  33.051  32.911  12.894
61078W        W29307  19.415  44.394   3.581
61079W        W29308  11.224   5.786  13.830
61080W        W29309  15.721  44.245   3.685
61081W        W29310  30.190  34.992   2.401
61082W        W29311  27.188  16.907   3.368
61083W        W29312  23.649  13.688  11.719
61084W        W29313  44.920  29.502  12.432
61085W        W29314  32.310  31.772   0.467
61086W        W29315   7.844  31.290  11.673
61087W        W29316  38.092   6.403  11.925
61088W        W29317  43.828  44.518   4.129
61089W        W29318  30.995  31.181  13.862
61090W        W29319   0.009   3.979   1.754
61091W        W29320  25.496  11.438   0.396
61092W        W29321  24.613  18.740   3.646
61093W        W29322  10.800  10.670  12.796
61094W        W29323  14.577  19.487  12.916
61095W        W29324  43.224  28.492   1.424
61096W        W29325  23.139   0.158   0.349
61097W        W29326   7.874  14.202  12.681
61098W        W29327  17.228  14.721   2.849
61099W        W29328   8.519  19.608   0.851
61100W        W29329  12.631   9.186  10.446
61101W        W29330  15.281  35.595   4.518
61102W        W29331   4.835  12.595  10.355
61103W        W29332  13.565  17.998   1.248
61104W        W29333  39.035  38.715   2.838
61105W        W29334  23.221   8.248  14.457
61106W        W29335  34.929  35.044  11.473
61107W        W29336  33.928  16.543   2.066
61108W        W29337   0.955   0.253  11.017
61109W        W29338  44.403  43.484   3.712
61110W        W29339  24.054  28.447   2.868
61111W        W29340  27.143  36.141   0.812
61112W        W29341   1.910  44.189   1.407
61113W        W29342  34.620  36.138   4.142
61114W        W29343   2.007  34.483  11.090
61115W        W29344  43.479  11.573   4.305
61116W        W29345  43.820  33.724   4.656
61117W        W29346  14.155  32.475  14.181
61118W        W29347  34.054  15.611   4.390
61119W        W29348  41.840   7.640  12.997
61120W        W29349  44.726  34.826   1.452
61121W        W29350  11.822  29.657   0.695
61122W        W29351  11.091   4.504   2.227
61123W        W29352  42.237  23.415  14.787
61124W        W29353   2.337  21.278   4.193
61125W        W29354   6.778  17.079  11.240
61126W        W29355  27.193  18.554   1.851
61127W        W29356   7.338  25.946  14.050
61128W        W29357   1.024   7.365  13.846
61129W        W29358  19.030   0.200  10.615
61130W        W29359  37.906  33.946   3.269
61131W        W29360  16.263  26.706   1.887
61132W        W29361  13.704  32.472  13.866
61133W        W29362  26.690  21.708  12.429
61134W        W29363   7.615  41.467  12.126
61135W        W29364  19.476  15.870  10.261
61136W        W29365  31.970  33.427   1.590
61137W        W29366  19.294  19.740   2.911
61138W        W29367  12.788   3.828  14.887
61139W        W29368  23.157  32.819  11.776
61140W        W29369  37.574   0.461  11.132
61141W        W29370  37.978   0.335  10.497
61142W        W29371  10.601  13.598   2.424
61143W        W29372   3.168  13.079  12.734
61144W        W29373   3.697  30.142  12.921
61145W        W29374  43.418  41.503   0.809
61146W        W29375   6.478  19.735  12.042
61147W        W29376  27.043   2.769  11.115
61148W        W29377  17.003   3.325  13.783
61149W        W29378  25.430  16.762  14.040
61150W        W29379  16.656   5.163   4.960
61151W        W29380  41.819  14.179  12.998
61152W        W29381  44.279  13.546   2.482
61153W        W29382  24.252  12.296  13.958
61154W        W29383  39.240  12.475   3.746
61155W        W29384   8.489  30.275  14.943
61156W        W29385   9.473  35.853  11.039
61157W        W29386  31.767  44.528  11.082
61158W        W29387   1.869  32.233   1.290
61159W        W29388  38.184  25.997   4.747
61160W        W29389  22.170  41.781   3.296
61161W        W29390  34.663  30.552   2.570
61162W        W29391  31.161  37.579  11.967
61163W        W29392  29.516  28.384   0.486
61164W        W29393  19.447   3.803  13.029
61165W        W29394  13.184  19.722   4.669
61166W        W29395  13.656  39.067  10.642
61167W        W29396  26.199  22.949  14.398
61168W        W29397  19.961   1.752   1.329
61169W        W29398  27.659  11.933  11.526
61170W        W29399  10.690  39.570  14.011
61171W        W29400   4.392  12.983  14.422
61172W        W29401  21.300  25.220   1.818
61173W        W29402   7.946  22.766  11.297
61174W        W29403  18.108   5.171  14.584
61175W        W29404  18.144  26.565  14.026
61176W        W29405  28.943   8.960   0.924
61177W        W29406  41.922  33.306  12.510
61178W        W29407  12.252  43.482   2.800
61179W        W29408  42.983  10.861  14.420
61180W        W29409  12.111  37.980   3.353
61181W        W29410  15.476  22.699  12.731
61182W        W29411  27.563  34.665   1.410
61183W        W29412  32.481  10.872   0.663
61184W        W29413  14.184  16.721  11.559
61185W        W29414   0.469   2.007  12.010
61186W        W29415  29.511  23.566  12.206
61187W        W29416  25.966  12.774  12.599
61188W        W29417  14.833   6.830   4.150
61189W        W29418  13.140  16.723  10.656
61190W        W29419  36.369   1.688   3.132
61191W        W29420  26.032   5.238  12.572
61192W        W29421   4.514   9.509   2.578
61193W        W29422  30.066  43.583   2.681
61194W        W29423   5.033  44.461  12.050
61195W        W29424  14.254  33.966   0.495
61196W        W29425  15.138  25.072  13.918
61197W        W29426  29.138   5.929   0.221
61198W        W29427   1.462  40.369   1.508
61199W        W29428  17.620  27.699   0.414
61200W        W29429  17.809  19.779  11.371
61201W        W29430  43.729  31.116   1.824
61202W        W29431  30.678  25.133  12.599
61203W        W29432   0.806   1.432  11.588
61204W        W29433  17.462   2.846  11.205
61205W        W29434  29.490  41.972   3.178
61206W        W29435   6.629   6.888   0.745
61207W        W29436   7.252  38.095   1.187
61208W        W29437   8.731  10.121  13.559
61209W        W29438  33.339  25.483   1.855
61210W        W29439  38.465  25.827  12.057
61211W        W29440  27.268  42.264  13.036
61212W        W29441  23.593  38.459   2.306
61213W        W29442  44.022  42.919  10.030
61214W        W29443  18.010  34.531   0.319
61215W        W29444  21.261  30.072   2.954
61216W        W29445  23.759  29.894   1.121
61217W        W29446  36.634  12.460  13.071
61218W        W29447  10.661  29.205  10.349
61219W        W29448   7.712  16.643   2.380
61220W        W29449  14.808  39.176  12.157
61221W        W29450   6.171  19.727  12.515
61222W        W29451  30.371  12.554  13.848
61223W        W29452  38.336  32.956   0.770
61224W        W29453  18.227  33.430  12.137
61225W        W29454  40.110  39.974   1.430
61226W        W29455  35.388  30.932   1.934
61227W        W29456  36.036  38.914  14.429
61228W        W29457  14.792  12.073  12.030
61229W        W29458   0.369  18.344   4.983
61230W        W29459   4.958   8.279   4.417
61231W        W29460  25.750  42.282   2.764
61232W        W29461  17.721  16.696   3.301
61233W        W29462  33.897   6.727  13.911
61234W        W29463  39.398  13.261  14.485
61235W        W29464  34.302   4.415   4.618
61236W        W29465   4.344  41.052  11.130
61237W        W29466   7.411  22.014  12.853
61238W        W29467   9.485  26.564  12.295
61239W        W29468  42.489  21.012  11.431
61240W        W29469  29.973  27.683   1.992
61241W        W29470  32.232  42.710  10.672
61242W        W29471  30.706  42.913  11.521
61243W        W29472  27.049   1.437   2.991
61244W        W29473  41.847  40.985  12.610
61245W        W29474  44.908  15.573   2.728
61246W        W29475  21.576  23.565   3.820
61247W        W29476  43.479  15.359   2.324
61248W        W29477   4.732  38.947   4.699
61249W        W29478  35.438   2.947  10.651
61250W        W29479  34.981   7.890   5.135
61251W        W29480   1.725   1.869  12.378
61252W        W29481  16.197  43.437  12.044
61253W        W29482  21.812  14.102   5.015
61254W        W29483   2.073  11.044   2.660
61255W        W29484   1.790  24.542  14.878
61256W        W29485  16.784  14.543  14.851
61257W        W29486  40.554  21.271   2.664
61258W        W29487  36.685   9.275  12.811
61259W        W29488  43.452  12.535  11.606
61260W        W29489  32.154   7.918   3.695
61261W        W29490   6.512  32.031   4.927
61262W        W29491  34.923  32.993   3.859
61263W        W29492  30.538  42.099   2.559
61264W        W29493  18.651  31.058  11.913
61265W        W29494  19.780  10.565   0.332
61266W        W29495   4.364   3.493  14.205
61267W        W29496  16.746  14.805  13.451
61268W        W29497  27.178  44.910  10.596
61269W        W29498  38.511  28.686   2.196
61270W        W29499  44.351  37.454   3.628
61271W        W29500  40.544  23.614  13.487
61272W        W29501  27.764  28.985  11.977
61273W        W29502  44.803  43.052  14.884
61274W        W29503   1.948  17.076   2.164
61275W        W29504  20.119  15.866   0.942
61276W        W29505  10.159   8.849  14.633
61277W        W29506  21.148   2.111   5.121
61278W        W29507   0.143  38.092  14.502
61279W        W29508  28.028  28.471   1.728
61280W        W29509  14.083   4.691  13.605
61281W        W29510  34.315  20.472  13.924
61282W        W29511  29.417  34.890  12.375
61283W        W29512  28.581  28.501   4.805
61284W        W29513  44.004  12.798  14.384
61285W        W29514  16.202  28.000  11.125
61286W        W29515  44.901  35.523   1.860
61287W        W29516  39.679   2.557   1.273
61288W        W29517  35.215  22.498   0.757
61289W        W29518  28.589  18.595   2.186
61290W        W29519   1.138  10.738   1.345
61291W        W29520  43.851  21.212   0.217
61292W        W29521  43.051  39.339   1.924
61293W        W29522  18.229   0.255  12.870
61294W        W29523  41.980  43.268  11.280
61295W        W29524  21.540   9.923   2.340
61296W        W29525   5.766  14.003  12.453
61297W        W29526   7.681  35.417  13.968
61298W        W29527  11.373  14.268  11.510
61299W        W29528  28.177  43.907   3.824
61300W        W29529  43.976  35.090  11.598
61301W        W29530  20.107  35.016   3.414
61302W        W29531   4.651  28.676   4.110
61303W        W29532  38.491  44.944  12.921
61304W        W29533  17.271  32.111   2.285
61305W        W29534  11.152  25.595   3.556
61306W        W29535  29.118  36.548   1.766
61307W        W29536  36.112   3.963  12.483
61308W        W29537  14.612  27.390  11.577
61309W        W29538  29.989  35.559  14.215
61310W        W29539  39.228  29.059  10.241
61311W        W29540   2.742  20.565   4.654
61312W        W29541  11.920  19.784   3.601
61313W        W29542  31.031  43.655   1.752
61314W        W29543  10.901   1.929   4.093
61315W        W29544  38.060  37.747  14.935
61316W        W29545  43.395  31.096   2.666
61317W        W29546  23.043  32.131  14.426
61318W        W29547  39.801  10.319   2.335
61319W        W29548   5.796  18.332   3.749
61320W        W29549   0.419  39.829   0.796
61321W        W29550   9.714  11.034  11.817
61322W        W29551   3.318  10.767  14.059
61323W        W29552  17.731  14.618   1.542
61324W        W29553  27.594  28.775   1.745
61325W        W29554   6.446  33.166  11.459
61326W        W29555  15.479   0.457   4.178
61327W        W29556  18.719  16.429  13.390
61328W        W29557   6.918  15.333   1.077
61329W        W29558  21.318  13.242   0.248
61330W        W29559   4.020  37.555  14.479
61331W        W29560  38.264  32.211   1.550
61332W        W29561  22.766  25.584  10.779
61333W        W29562  38.006  26.236  13.884
61334W        W29563  21.771  27.641  14.890
61335W        W29564  29.508  28.507   1.860
61336W        W29565  37.528  42.314   2.878
61337W        W29566  25.152  35.961   2.029
61338W        W29567  18.229  25.494   1.237
61339W        W29568  40.507  24.041  10.912
61340W        W29569  18.681   0.979  11.144
61341W        W29570  32.950  41.050  11.078
61342W        W29571  31.892  13.248   3.656
61343W        W29572   9.985  44.186  13.142
61344W        W29573   9.609  40.987  11.903
61345W        W29574  16.208   1.501  13.307
61346W        W29575  28.572  35.451  10.282
61347W        W29576  41.447  33.121  11.914
61348W        W29577  20.088  35.311  11.453
61349W        W29578  34.412   3.731  11.134
61350W        W29579  40.242   8.667   4.018
61351W        W29580  27.557  32.890   2.678
61352W        W29581  41.587  36.459   0.502
61353W        W29582  22.715  29.429  13.839
61354W        W29583  41.336   6.867   2.118
61355W        W29584   1.306  24.509   0.660
61356W        W29585  19.030   8.777  10.647
61357W        W29586  43.423  27.084  14.782
61358W        W29587  25.042   0.865  13.913
61359W        W29588  12.658  21.454  14.310
61360W        W29589  40.235  41.902  11.193
61361W        W29590  27.214  44.899   3.764
61362W        W29591   2.737  38.930   2.756
61363W        W29592  44.302  36.725   1.728
61364W        W29593  30.842  42.785   2.654
61365W        W29594   8.896  12.682   3.437
61366W        W29595  20.668  17.292   0.549
61367W        W29596  40.041  19.196   0.259
61368W        W29597  33.480  33.040  12.636
61369W        W29598  44.237  17.294  14.388
61370W        W29599  32.804  19.617   9.808
61371W        W29600  36.203  17.619  11.547
61372W        W29601  13.708  32.012   3.193
61373W        W29602  24.187   9.351  14.319
61374W        W29603  12.018   6.386  13.559
61375W        W29604  33.614  13.779   2.210
61376W        W29605   1.921  28.134   1.929
61377W        W29606  39.957   6.426  13.923
61378W        W29607  38.512  23.345  12.113
61379W        W29608  29.854  34.405  11.485
61380W        W29609  18.961  40.609   0.525
61381W        W29610  14.203  43.545   2.250
61382W        W29611  33.813  20.047   2.833
61383W        W29612  39.088  38.691  13.472
61384W        W29613  10.193  25.012  13.949
61385W        W29614  22.598   3.831  10.578
61386W        W29615  13.343  31.759  11.882
61387W        W29616  37.174  35.976  12.997
61388W        W29617   8.720   2.860   0.182
61389W        W29618  35.681   7.961   2.680
61390W        W29619  14.727  17.221  12.040
61391W        W29620  33.397  24.662   9.853
61392W        W29621  22.158   7.251   1.150
61393W        W29622  15.538  12.485  14.516
61394W        W29623  19.120  20.310  13.821
61395W        W29624  10.512  33.393  10.770
61396W        W29625  25.064  43.554   3.746
61397W        W29626   0.574  26.685  10.141
61398W        W29627  20.649  15.901  11.033
61399W        W29628  13.238  33.870  11.163
61400W        W29629  31.450  25.739  12.479
61401W        W29630   4.540  28.531  13.628
61402W        W29631  24.014  41.952   1.185
61403W        W29632  12.905  38.976   4.950
61404W        W29633  15.162  18.907   2.597
61405W        W29634  16.592  20.921   3.212
61406W        W29635   1.202  12.617  11.030
61407W        W29636  44.305  43.978  11.149
61408W        W29637  36.913  17.481   4.075
61409W        W29638  21.798  44.897  12.426
61410W        W29639   3.343  31.052  11.586
61411W        W29640  38.937   8.690   0.371
61412W        W29641  42.000  15.405  14.152
61413W        W29642  42.415   1.615   2.292
61414W        W29643  40.501  40.287   1.294
61415W        W29644  33.998   1.035  12.348
61416W        W29645  13.034  22.995  12.123
61417W        W29646  27.131   8.826  12.020
61418W        W29647  39.975  42.795   3.768
61419W        W29648  40.019  37.026   4.158
61420W        W29649   3.611   5.260  10.628
61421W        W29650  42.267  13.663   0.356
61422W        W29651  20.031  21.021   2.677
61423W        W29652  19.650   8.148   4.166
61424W        W29653  16.313  24.498   0.916
61425W        W29654  35.124  18.277   9.694
61426W        W29655  44.133  39.780   0.998
61427W        W29656  40.525   0.452   3.266
61428W        W29657  34.368   4.208   3.261
61429W        W29658   3.537   1.976   1.401
61430W        W29659   3.463  34.815   4.973
61431W        W29660  37.994  16.050  13.043
61432W        W29661  27.603   6.991  14.467
61433W        W29662  37.639  42.345  12.955
61434W        W29663   1.181   7.805   3.244
61435W        W29664  17.761   9.012  11.680
61436W        W29665   1.484   0.473   2.849
61437W        W29666   5.193   8.852   2.332
61438W        W29667  18.132  14.729   2.783
61439W        W29668  33.656  14.637   3.535
61440W        W29669  25.688  24.830  10.591
61441W        W29670  10.225   8.766   4.536
61442W        W29671  18.322  12.856   3.556
61443W        W29672  20.665  39.093   0.921
61444W        W29673  35.039  42.959  12.968
61445W        W29674  18.477  10.329   2.239
61446W        W29675  24.705  26.173  12.809
61447W        W29676  22.900  12.643   5.140
61448W        W29677  28.206  36.960  12.156
61449W        W29678  37.733  14.248   3.175
61450W        W29679  35.770  39.948  12.483
61451W        W29680   8.649  23.600   2.402
61452W        W29681  19.463  20.003  14.368
61453W        W29682  21.531  41.190   5.047
61454W        W29683   5.413  30.909  11.578
61455W        W29684  24.995  25.929   3.240
61456W        W29685   2.708  32.678  13.888
61457W        W29686  10.139  25.721  14.344
61458W        W29687   0.310  21.187  12.898
61459W        W29688  44.703  27.634   4.127
61460W        W29689  42.838  31.574  14.036
61461W        W29690  31.253  31.567  14.057
61462W        W29691  35.008  20.333   4.815
61463W        W29692   3.616  32.130   1.725
61464W        W29693  40.621  39.368  11.159
61465W        W29694  31.735  35.956  14.448
61466W        W29695  30.129  39.439   0.766
61467W        W29696  30.918  28.194   4.235
61468W        W29697   7.309  11.550  12.930
61469W        W29698  43.482  17.619   2.162
61470W        W29699  11.792  42.219   0.400
61471W        W29700  32.976  37.607   2.298
61472W        W29701   4.165  41.890   2.178
61473W        W29702  38.508  34.725   1.374
61474W        W29703  32.024  15.545   2.180
61475W        W29704  35.551  37.118  11.205
61476W        W29705  44.348  33.896  12.880
61477W        W29706  23.903  17.014  10.222
61478W        W29707  20.596  32.455   2.728
61479W        W29708  21.115  36.623  12.377
61480W        W29709  36.202  37.047   0.431
61481W        W29710  26.125  18.025  10.663
61482W        W29711  37.475  34.177  13.758
61483W        W29712  32.778   0.588   4.065
61484W        W29713  37.444  24.615  14.878
61485W        W29714  12.868  39.048   4.036
61486W        W29715  34.163  39.870  14.500
61487W        W29716  32.391  43.824   2.029
61488W        W29717  22.021   4.328  11.051
61489W        W29718  34.470  38.762   3.704
61490W        W29719  37.118  37.889  14.905
61491W        W29720  24.951  11.159   3.002
61492W        W29721  29.053  31.555  14.839
61493W        W29722  12.312  24.941  14.317
61494W        W29723  32.033  16.611  14.331
61495W        W29724  15.882  25.872   1.862
61496W        W29725  36.881  38.375   2.735
61497W        W29726  38.816   4.022  13.658
61498W        W29727  29.114  18.299   4.732
61499W        W29728  31.184  10.877  13.754
61500W        W29729   3.497  12.760  11.433
61501W        W29730  16.899  30.158  11.061
61502W        W29731  31.997  21.581   3.702
61503W        W29732  26.214  14.599  14.040
61504W        W29733  38.573  35.503  11.871
61505W        W29734  24.018  20.498  11.728
61506W        W29735  34.095  41.913  11.673
61507W        W29736  17.316  11.244   1.304
61508W        W29737  20.856  36.884  12.020
61509W        W29738  20.856  32.156   4.988
61510W        W29739   9.196  24.700  14.100
61511W        W29740   6.257  41.079   4.866
61512W        W29741  16.022   5.914  14.103
61513W        W29742  27.971   2.960  13.030
61514W        W29743   6.365  41.210   0.002
61515W        W29744   3.321  19.934   0.983
61516W        W29745   8.785  12.285  14.874
61517W        W29746   8.891  36.692   3.664
61518W        W29747  10.818   0.375   1.843
61519W        W29748   7.879  42.930   2.640
61520W        W29749  39.118   1.131  11.630
61521W        W29750  34.070  40.877   4.065
61522W        W29751  14.212  18.775  14.844
61523W        W29752  31.231  14.912   2.391
61524W        W29753  44.948  29.430   1.150
61525W        W29754  27.026   9.304  11.817
61526W        W29755  18.726  29.405   0.809
61527W        W29756  19.743  25.191  12.298
61528W        W29757  33.402   2.483  11.450
61529W        W29758   5.848  27.712  12.563
61530W        W29759  10.751   6.340   3.957
61531W        W29760  11.760  20.003   2.768
61532W        W29761  36.167   9.308  12.871
61533W        W29762  24.743   3.366   2.685
61534W        W29763  38.878  39.900   0.778
61535W        W29764  16.173   6.880   4.191
61536W        W29765  41.863   0.747   2.274
61537W        W29766  24.618  21.668  11.711
61538W        W29767  26.030  13.114  13.950
61539W        W29768  37.498  32.608  10.834
61540W        W29769  14.616  40.508  14.845
61541W        W29770  17.089   1.704  10.080
61542W        W29771  15.087  29.162   0.303
61543W        W29772  27.212  14.139   3.821
61544W        W29773   3.236  42.698  13.469
61545W        W29774  37.224  14.240   3.264
61546W        W29775  31.463  29.213   0.799
61547W        W29776  12.139   0.794  10.605
61548W        W29777  39.904  36.844   1.495
61549W        W29778  28.922  15.988  11.172
61550W        W29779   4.813  40.050   0.961
61551W        W29780  27.423  10.952   1.380
61552W        W29781  44.805  39.012   3.646
61553W        W29782  17.506  26.540   1.848
61554W        W29783   6.837  41.847  14.073
61555W        W29784  31.433  40.441  12.447
61556W        W29785  28.646  31.115  11.581
61557W        W29786  39.359  13.540   4.737
61558W        W29787  32.643  11.778   1.326
61559W        W29788  38.679   3.644  11.962
61560W        W29789  22.261  30.111  11.530
61561W        W29790  35.639  13.585  13.041
61562W        W29791  16.241  22.925  10.763
61563W        W29792  26.522   8.199   2.184
61564W        W29793  18.582  39.974  13.107
61565W        W29794  28.219   8.261  13.337
61566W        W29795  22.739   4.861  13.538
61567W        W29796  30.213  10.674  13.897
61568W        W29797  23.539  29.451  11.468
61569W        W29798  28.125   2.655   0.191
61570W        W29799   9.469  32.160   2.804
61571W        W29800  17.278  36.653  14.898
61572W        W29801  18.598   8.272  14.983
61573W        W29802  31.547  39.521  13.255
61574W        W29803  27.118  40.076   1.164
61575W        W29804  22.996  25.689   3.387
61576W        W29805  14.611  17.335  12.534
61577W        W29806  30.994  30.398  12.161
61578W        W29807  22.526   4.413  13.264
61579W        W29808  35.777  28.884   2.592
61580W        W29809  36.097  12.238   2.283
61581W        W29810   0.677  34.513   3.576
61582W        W29811  19.155  36.222  10.271
61583W        W29812  12.266  19.406   0.840
61584W        W29813  23.224  38.008  13.287
61585W        W29814   0.048  27.319   1.290
61586W        W29815  22.613  19.478  14.431
61587W        W29816  32.290  43.535   0.326
61588W        W29817  29.205  26.418   3.981
61589W        W29818  37.880  44.192  14.996
61590W        W29819  38.391  29.323   5.328
61591W        W29820  21.081  22.584  12.716
61592W        W29821  25.671  23.159   0.477
61593W        W29822  27.861  19.803  12.167
61594W        W29823  14.829  28.725  12.471
61595W        W29824  25.173  23.099   0.533
61596W        W29825  26.947  25.619   0.365
61597W        W29826  37.916  44.640  14.716
61598W        W29827  40.562  17.759   4.699
61599W        W29828  44.361  11.092  10.661
61600W        W29829  26.902  39.378  10.974
61601W        W29830  30.237   5.822   4.106
61602W        W29831  38.947  19.226   2.159
61603W        W29832  25.803   1.829   0.950
61604W        W29833  24.822  37.504   1.507
61605W        W29834  19.702  22.640   4.809
61606W        W29835   2.180  18.133  14.565
61607W        W29836  19.741  44.504  11.534
61608W        W29837  35.604   5.420   1.608
61609W        W29838  31.660  23.045   4.525
61610W        W29839  24.704   2.964  11.937
61611W        W29840  40.301  15.950   2.037
61612W        W29841  30.901  26.708  14.791
61613W        W29842   9.905   3.809  11.880
61614W        W29843  13.916  29.501   4.200
61615W        W29844  44.413  35.026   2.287
61616W        W29845  34.321  32.213  10.051
61617W        W29846   1.961  23.982  10.751
61618W        W29847  33.878   7.260  14.122
61619W        W29848   3.997  37.600   3.314
61620W        W29849  35.562  16.148   0.487
61621W        W29850  25.992  27.967  12.475
61622W        W29851  10.677  40.307  10.762
61623W        W29852  32.802  36.027  14.786
61624W        W29853  22.010   5.976  11.564
61625W        W29854  32.545  32.756   0.552
61626W        W29855  29.633  20.782   1.911
61627W        W29856   3.145  44.750   4.075
61628W        W29857  36.284   6.788   3.720
61629W        W29858  29.143  43.622  12.435
61630W        W29859  28.896  14.293   2.120
61631W        W29860  23.099  27.684  12.880
61632W        W29861  13.715  40.617  14.822
61633W        W29862   4.023  20.441   0.368
61634W        W29863   4.285  11.051  13.067
61635W        W29864  38.140  29.954  12.481
61636W        W29865  22.320  44.481   0.234
61637W        W29866  36.149  12.199   4.634
61638W        W29867   0.268  40.881   4.834
61639W        W29868  11.784  21.710   2.267
61640W        W29869  32.081  35.551  14.499
61641W        W29870  15.827   9.644   0.722
61642W        W29871  26.449  30.094   1.634
61643W        W29872  23.683  15.213  14.434
61644W        W29873  36.854  23.894  14.014
61645W        W29874  38.005  23.135   4.608
61646W        W29875   6.822  20.078   1.713
61647W        W29876  41.076  12.669   1.029
61648W        W29877  10.593  13.561   3.223
61649W        W29878  34.100  34.024  14.480
61650W        W29879   2.531  24.162  12.047
61651W        W29880  37.994  37.446   0.364
61652W        W29881  26.198  16.824   0.221
61653W        W29882  36.518  41.597  13.772
61654W        W29883  12.407   9.740  12.979
61655W        W29884  39.816  39.983   0.502
61656W        W29885   4.499   3.643   5.010
61657W        W29886  34.364  26.058   3.796
61658W        W29887  44.076  42.328   0.877
61659W        W29888  29.951  26.492  12.396
61660W        W29889  15.516  10.373   3.681
61661W        W29890  19.970  21.912  11.968
61662W        W29891  42.915  28.197  11.043
61663W        W29892  16.084  44.764   3.077
61664W        W29893  27.198   1.956   3.027
61665W        W29894  19.321  35.126  13.614
61666W        W29895  12.883  20.169  14.799
61667W        W29896   7.316  10.348  11.519
61668W        W29897   9.278  19.539  10.749
61669W        W29898  25.563  32.407   2.332
61670W        W29899  35.969  33.183   4.035
61671W        W29900  35.055  29.626  11.527
61672W        W29901   9.205  11.701  10.368
61673W        W29902   7.834   6.211   1.718
61674W        W29903   3.337  31.885  12.567
61675W        W29904  43.357  16.044  11.263
61676W        W29905  33.341  44.984   0.795
61677W        W29906  39.838   7.584  11.491
61678W        W29907   7.178  25.774  12.060
61679W        W29908  38.890  18.863  11.269
61680W        W29909  33.113  33.440   0.771
61681W        W29910  13.542  27.212   3.528
61682W        W29911  22.719  12.075  11.146
61683W        W29912  15.901  38.101  14.919
61684W        W29913  27.041  15.226  10.908
61685W        W29914  28.672   1.451  11.509
61686W        W29915  14.744  33.402  14.842
61687W        W29916  17.650   4.342  13.330
61688W        W29917   4.970  11.415  10.462
61689W        W29918   7.991  36.938  11.111
61690W        W29919  18.319  26.654  14.581
61691W        W29920   4.650  33.514  11.002
61692W        W29921   0.491  42.566   0.842
61693W        W29922  34.013   1.776   2.572
61694W        W29923  36.065  12.130   3.680
61695W        W29924   1.882   2.494   1.909
61696W        W29925  39.333  37.407  11.347
61697W        W29926   0.942  37.344   4.607
61698W        W29927  43.101  32.552  13.519
61699W        W29928  41.975  30.533  12.549
61700W        W29929   4.818   5.425   3.898
61701W        W29930  31.974  29.990   1.321
61702W        W29931  30.921  29.372  13.539
61703W        W29932  20.989   2.830   1.166
61704W        W29933  34.406  10.677   1.043
61705W        W29934  12.114  26.176  11.147
61706W        W29935  31.710  20.789  14.883
61707W        W29936  40.123  44.758   1.600
61708W        W29937  26.858  15.542  12.154
61709W        W29938  37.866  17.020  13.356
61710W        W29939  24.849  27.038  13.982
61711W        W29940  41.398   3.396  10.537
61712W        W29941  40.906   4.997   3.208
61713W        W29942  43.240  38.384  13.064
61714W        W29943  32.018   2.115  12.562
61715W        W29944  19.775  39.360  13.875
61716W        W29945  40.437  10.564   3.590
61717W        W29946  26.154  43.347   1.709
61718W        W29947  28.496  39.795   2.769
61719W        W29948   7.818  35.609   0.004
61720W        W29949  44.680   6.165   3.604
61721W        W29950  29.052  12.062  11.907
61722W        W29951  38.494  33.212  13.983
61723W        W29952  19.892  11.442   2.525
61724W        W29953  34.621  26.946   0.608
61725W        W29954   1.070   4.808   3.875
61726W        W29955   3.335  37.266   1.423
61727W        W29956  24.487  33.647   5.360
61728W        W29957  10.174  14.284  12.091
61729W        W29958  37.060  39.673   2.290
61730W        W29959  41.200   5.962   4.731
61731W        W29960  28.428  18.557   3.258
61732W        W29961   6.881  39.961  10.999
61733W        W29962  41.338  33.435  13.100
61734W        W29963  36.386  37.176  13.303
61735W        W29964  10.141  24.803  12.960
61736W        W29965  30.608   1.258  13.623
61737W        W29966  11.886  40.662  12.159
61738W        W29967   6.386  21.331   1.653
61739W        W29968  18.886  12.390  11.544
61740W        W29969  40.517  33.345   0.830
61741W        W29970  42.945  35.189   2.947
61742W        W29971  14.637  20.737   0.954
61743W        W29972  22.790  29.049  12.648
61744W        W29973  23.153   6.214   3.265
61745W        W29974  41.873  23.300   0.738
61746W        W29975   9.297  39.458  14.734
61747W        W29976   4.894  19.699   1.897
61748W        W29977  22.193  26.461   2.128
61749W        W29978  14.060  29.967   3.279
61750W        W29979  42.150   8.733  13.614
61751W        W29980   0.705  24.227   1.255
61752W        W29981  34.993  30.168   2.676
61753W        W29982  27.731  21.791   4.032
61754W        W29983  34.550  30.559   3.079
61755W        W29984  44.962  21.165   0.793
61756W        W29985   5.470  11.755   4.042
61757W        W29986  37.339  33.080  12.040
61758W        W29987  21.241  14.259   4.150
61759W        W29988  27.961   6.144   4.958
61760W        W29989  22.688  34.893  11.656
61761W        W29990  38.248  31.703   1.422
61762W        W29991  27.903  10.948   3.369
61763W        W29992  18.274  15.913  13.973
61764W        W29993  34.620  30.517  13.462
61765W        W29994  19.610  18.133  12.932
61766W        W29995   2.972  39.927  13.937
61767W        W29996  28.155  31.077  10.696
61768W        W29997  18.593   9.720   3.446
61769W        W29998   7.204  10.354  14.042
61770W        W29999  20.443  38.554  12.010
61771W        W30000  11.841   4.487  14.175
61772W        W30001  44.746  14.026   5.022
61773W        W30002  44.259  25.201  12.506
61774W        W30003  23.548   9.874  14.413
61775W        W30004  20.820  13.867  13.013
61776W        W30005  18.006  19.547  13.211
61777W        W30006  40.085   7.410  14.083
61778W        W30007  13.268  31.502  12.603
61779W        W30008  16.173   7.479   0.637
61780W        W30009  10.559  14.578   4.739
61781W        W30010  41.239  31.044  12.582
61782W        W30011  16.126  18.721  12.309
61783W        W30012  31.911  10.476   0.982
61784W        W30013  25.125  38.048   4.249
61785W        W30014  35.026  10.413   3.331
61786W        W30015  12.299   5.347   1.442
61787W        W30016  11.789  27.154  12.375
61788W        W30017   3.407   8.334   1.525
61789W        W30018   6.380  40.284   3.321
61790W        W30019  37.379  15.163   4.663
61791W        W30020  44.898  35.907   9.595
61792W        W30021   2.552  33.226  10.093
61793W        W30022  41.053  38.548  14.986
61794W        W30023  39.694  26.609  11.609
61795W        W30024   7.956   2.656  12.195
61796W        W30025  23.736  27.576   1.309
61797W        W30026  36.954  18.610  13.728
61798W        W30027   3.184  12.847  13.497
61799W        W30028   2.403  34.156   1.672
61800W        W30029  16.209   2.212   2.223
61801W        W30030  35.486   5.033  13.878
61802W        W30031   8.310  28.926   2.318
61803W        W30032  15.668  35.337   1.439
61804W        W30033  14.121  27.732   3.675
61805W        W30034  44.917  26.170  13.489
61806W        W30035  20.308  39.505   4.068
61807W        W30036  20.051  25.505  10.594
61808W        W30037   9.997   1.210   2.450
61809W        W30038  41.489  35.583  13.912
61810W        W30039  20.683  19.661   2.940
61811W        W30040  20.052  23.597   3.761
61812W        W30041   5.917  35.989  13.887
61813W        W30042  16.266   2.427   1.216
61814W        W30043   0.796   1.744  12.922
61815W        W30044  39.774  16.290  12.002
61816W        W30045  19.532  39.858  13.831
61817W        W30046  33.589   7.504   2.676
61818W        W30047   9.305  44.945   2.935
61819W        W30048  26.212   3.791  14.367
61820W        W30049  38.955  39.407   3.578
61821W        W30050  14.117  35.922   2.751
61822W        W30051  26.686  11.665   0.804
61823W        W30052  41.720  16.363  12.504
61824W        W30053   5.342   1.514   2.079
61825W        W30054  10.615  33.546   2.956
61826W        W30055  31.926  21.495  10.463
61827W        W30056  24.181  34.817  13.929
61828W        W30057   6.913   0.966   3.194
61829W        W30058   9.315  43.777  10.744
61830W        W30059   7.459   7.968  13.098
61831W        W30060  13.876   2.413   4.692
61832W        W30061   8.858  44.796   2.686
61833W        W30062  15.322  29.644  11.520
61834W        W30063  17.678   9.699  13.592
61835W        W30064  43.832   2.007  11.331
61836W        W30065  36.362  28.371   0.951
61837W        W30066  10.238  16.475   1.325
61838W        W30067  16.748  29.503  14.275
61839W        W30068  20.301  13.330  12.997
61840W        W30069  29.723  20.520  11.025
61841W        W30070   1.909  35.857  11.563
61842W        W30071  14.319  35.692  12.112
61843W        W30072  42.301  16.808   2.190
61844W        W30073   4.705  18.162   0.957
61845W        W30074  34.567   2.754  12.552
61846W        W30075  38.813  32.108   0.812
61847W        W30076  22.611  37.602  13.760
61848W        W30077  16.384  14.219  11.505
61849W        W30078  21.685  16.132  12.893
61850W        W30079   8.359  14.115  14.852
61851W        W30080  36.543  26.496  11.650
61852W        W30081  20.289  27.663  14.155
61853W        W30082  42.799  10.685  14.868
61854W        W30083  14.718  34.617  11.539
61855W        W30084  43.933  23.928   2.811
61856W        W30085  35.028  31.209   0.978
61857W        W30086  10.173  43.196  13.334
61858W        W30087  10.758  42.085   1.839
61859W        W30088  14.148  36.702   3.264
61860W        W30089  30.505  32.956   2.327
61861W        W30090  27.169  43.935   2.445
61862W        W30091  22.537  14.842   1.441
61863W        W30092  33.327  12.782  11.218
61864W        W30093   3.443   6.716  13.412
61865W        W30094  19.027  43.033  14.018
61866W        W30095  22.976   6.877  11.535
61867W        W30096   2.534  17.130   3.616
61868W        W30097  26.201  32.371  12.602
61869W        W30098  37.360  21.452   1.785
61870W        W30099  22.168  41.626   0.948
61871W        W30100   7.410  14.731  13.898
61872W        W30101  26.948  16.049   2.632
61873W        W30102   0.385  24.552  12.525
61874W        W30103  21.438  13.844  14.784
61875W        W30104  27.564  15.838  14.986
61876W        W30105  20.784  34.552  12.390
61877W        W30106  28.441  26.438  10.715
61878W        W30107   1.208  28.639  11.020
61879W        W30108  24.603  22.471   1.409
61880W        W30109  43.991  34.938   4.145
61881W        W30110  27.619  31.182  10.707
61882W        W30111  27.449  29.631  11.533
61883W        W30112  36.070  36.432  13.886
61884W        W30113  44.662  29.920   4.963
61885W        W30114  30.842   6.823   4.290
61886W        W30115  22.986  19.768  13.355
61887W        W30116  18.460  13.854   2.751
61888W        W30117  44.684  14.050  13.374
61889W        W30118  19.332  26.714   4.209
61890W        W30119   3.471  31.599  13.832
61891W        W30120  27.702   7.459   3.913
61892W        W30121  23.516  43.352   0.493
61893W        W30122  10.317   3.800   2.368
61894W        W30123  17.274  34.962  12.471
61895W        W30124  27.232  23.752  13.409
61896W        W30125  37.753  28.215   2.717
61897W        W30126  19.514  30.924  11.699
61898W        W30127   5.891   7.075   4.111
61899W        W30128  12.026   9.500   2.770
61900W        W30129   3.907  26.459  13.573
61901W        W30130  40.471   5.561  11.143
61902W        W30131  13.958  42.213   2.880
61903W        W30132  31.232   6.315   2.661
61904W        W30133  25.533  39.906  12.859
61905W        W30134  27.847  36.502   3.684
61906W        W30135  21.613   0.631   2.797
61907W        W30136   0.659  36.353   4.896
61908W        W30137  23.599   5.171   3.592
61909W        W30138  29.673  20.147  14.947
61910W        W30139  30.190  10.346  14.361
61911W        W30140  15.561  13.745  14.784
61912W        W30141  21.653   3.902   4.231
61913W        W30142  18.343   3.293   4.551
61914W        W30143  40.299  18.328  10.895
61915W        W30144  36.038  11.479  11.910
61916W        W30145  26.414  10.223  13.752
61917W        W30146   8.920  19.740  13.985
61918W        W30147  14.156  32.444  12.829
61919W        W30148  27.530  29.260  12.801
61920W        W30149  37.556  27.663   3.816
61921W        W30150   8.787  23.454  10.713
61922W        W30151   4.394  17.677  13.535
61923W        W30152   8.703  23.748   3.387
61924W        W30153  43.244  39.555   2.367
61925W        W30154  25.569  34.958   2.808
61926W        W30155  32.403  19.641  13.942
61927W        W30156   2.213  34.074   0.377
61928W        W30157   9.680  32.057   1.410
61929W        W30158   1.886   0.495  14.285
61930W        W30159  41.969   2.083   1.329
61931W        W30160  19.146   2.622  13.281
61932W        W30161  29.603  30.320   0.915
61933W        W30162  16.282  27.114  14.867
61934W        W30163   7.675  37.025  10.686
61935W        W30164  27.686  11.087   1.907
61936W        W30165   7.690  15.142  13.792
61937W        W30166  21.141  28.023   5.394
61938W        W30167  10.986  39.231   2.393
61939W        W30168  39.443   4.195   2.829
61940W        W30169  30.504  35.789   4.189
61941W        W30170  20.354  22.285  14.493
61942W        W30171  24.151  17.329   1.397
61943W        W30172  33.330   5.068  12.576
61944W        W30173  25.910  23.543  12.033
61945W        W30174  39.307  12.339   2.751
61946W        W30175   8.295  35.068   4.618
61947W        W30176  39.409  13.705   1.624
61948W        W30177  36.540  29.855  10.771
61949W        W30178   3.851  18.084   2.652
61950W        W30179  30.879   8.922   1.353
61951W        W30180   2.164  29.553   2.464
61952W        W30181  37.738  11.201  12.354
61953W        W30182   0.196  14.505   0.558
61954W        W30183  10.827  17.109   1.503
61955W        W30184  20.306  32.148   4.997
61956W        W30185  29.599  38.579   3.561
61957W        W30186   0.391   1.690   2.363
61958W        W30187  14.907  18.359  14.286
61959W        W30188  21.556   3.515   4.558
61960W        W30189  41.484  36.617  13.858
61961W        W30190  19.640  29.198   1.854
61962W        W30191  27.424   4.539   3.702
61963W        W30192  41.007   7.649   2.275
61964W        W30193  11.374  37.903   0.084
61965W        W30194  17.722  35.571  14.329
61966W        W30195   0.759  35.357  14.859
61967W        W30196  42.958  20.795   5.052
61968W        W30197  12.690  10.735  14.104
61969W        W30198   6.964  17.826  14.736
61970W        W30199  14.851  11.087   5.503
61971W        W30200  30.084  40.977   4.982
61972W        W30201  26.103  14.986  14.965
61973W        W30202  40.704  12.684  11.212
61974W        W30203   5.032  44.029   5.092
61975W        W30204  18.293  27.293  11.136
61976W        W30205   4.348   5.699   0.540
61977W        W30206  42.786   1.714   0.881
61978W        W30207  22.580  19.128  10.547
61979W        W30208   4.650  14.310   9.908
61980W        W30209   1.943  35.012   3.603
61981W        W30210  12.662   6.328   1.315
61982W        W30211  21.687  40.792   0.854
61983W        W30212  26.518  26.215  14.917
61984W        W30213  34.354  39.371  10.833
61985W        W30214  28.451  13.131   1.730
61986W        W30215  37.379  36.646  14.729
61987W        W30216   6.094  39.074   4.106
61988W        W30217  42.802   7.462   0.445
61989W        W30218  37.930   9.738   0.536
61990W        W30219  33.134   7.109   3.987
61991W        W30220   4.990  29.550   1.238
61992W        W30221  12.315  15.088   2.360
61993W        W30222  26.433  11.696   1.806
61994W        W30223  19.578  40.426  12.281
61995W        W30224  35.911  18.733   4.772
61996W        W30225  12.025  24.888   1.695
61997W        W30226  20.991  32.982  11.941
61998W        W30227  40.612  31.025   1.979
61999W        W30228  11.745   7.421  10.463
62000W        W30229  11.236  26.390   4.145
62001W        W30230   7.150   4.265  13.531
62002W        W30231  37.899  35.027  12.185
62003W        W30232   9.498  38.397   3.395
62004W        W30233  38.001   6.782   1.308
62005W        W30234  16.741  32.101  11.974
62006W        W30235  38.719  36.330   0.059
62007W        W30236  20.567  30.846   2.615
62008W        W30237  13.757  16.738   0.527
62009W        W30238   3.513  42.390  11.033
62010W        W30239  17.796  14.333  11.499
62011W        W30240  22.545  29.881   3.599
62012W        W30241  11.271  36.053  10.943
62013W        W30242  40.433  41.807   3.648
62014W        W30243  43.237  20.121   3.282
62015W        W30244  42.245  11.548   0.966
62016W        W30245  38.013  38.879  10.630
62017W        W30246  33.214   9.121  13.719
62018W        W30247  12.824  26.190   4.625
62019W        W30248  26.963  29.835   3.222
62020W        W30249  10.998  12.597   1.742
62021W        W30250  23.205  36.052  11.122
62022W        W30251  30.215  20.508  11.228
62023W        W30252  16.196   4.459   4.629
62024W        W30253   3.261  12.161  12.157
62025W        W30254  39.743  34.105   3.719
62026W        W30255  16.649  19.662   3.119
62027W        W30256  28.382  11.639  14.211
62028W        W30257   1.956   4.409  13.923
62029W        W30258  42.463  42.783   0.995
62030W        W30259  42.958  36.807   0.265
62031W        W30260  15.127  17.955  13.753
62032W        W30261  32.584  36.843   0.281
62033W        W30262  11.323  37.063  13.320
62034W        W30263   9.097   9.430   4.140
62035W        W30264   1.524  29.447   0.084
62036W        W30265  32.459  40.393  12.049
62037W        W30266   6.485  16.337   3.005
62038W        W30267  18.635  20.486   4.912
62039W        W30268  31.419   4.650  14.324
62040W        W30269  43.762   9.632   1.397
62041W        W30270   7.356  30.459   1.379
62042W        W30271  21.565   8.330   2.702
62043W        W30272  17.576  36.578  12.432
62044W        W30273  20.684  17.891  13.349
62045W        W30274  36.264  16.137  12.057
62046W        W30275  42.889  33.877  11.238
62047W        W30276  38.369   2.420  12.450
62048W        W30277  17.082   1.340  10.464
62049W        W30278  12.115  13.211  14.245
62050W        W30279  15.069  14.686  11.422
62051W        W30280  36.484  16.333   4.017
62052W        W30281  18.816   2.735   1.811
62053W        W30282  10.314  39.784   2.846
62054W        W30283  23.193   0.604  14.399
62055W        W30284  22.857   5.773  13.788
62056W        W30285  25.586  17.645  12.449
62057W        W30286  15.204  17.888  11.543
62058W        W30287  30.124   4.275   2.635
62059W        W30288  12.920  31.162  13.866
62060W        W30289  37.978  17.172  12.480
62061W        W30290  34.163  43.827   0.580
62062W        W30291   1.299  29.647   1.959
62063W        W30292  25.285   9.353   1.094
62064W        W30293   0.365  11.789  10.355
62065W        W30294   8.680  31.749  10.617
62066W        W30295  22.071  38.526  13.734
62067W        W30296  15.620  21.632  12.945
62068W        W30297  40.040   4.693  12.084
62069W        W30298  34.079  25.230   1.349
62070W        W30299  29.155  13.690  12.586
62071W        W30300  11.618  36.958  10.533
62072W        W30301  25.685  18.406  14.935
62073W        W30302   5.842   9.361   3.290
62074W        W30303  44.857  19.610   0.116
62075W        W30304  20.361  42.867   0.255
62076W        W30305  22.065   7.042   2.913
62077W        W30306  14.250  15.147   2.650
62078W        W30307  15.233  33.396  10.420
62079W        W30308   2.313  41.585  12.449
62080W        W30309  24.488  27.158  12.154
62081W        W30310  26.723  37.988   4.860
62082W        W30311   6.419  15.747   0.024
62083W        W30312  15.350  27.529   3.365
62084W        W30313  10.374  22.271   1.798
62085W        W30314  28.019  27.769   3.298
62086W        W30315  13.753  26.528  12.634
62087W        W30316   4.450  14.375   2.806
62088W        W30317  39.706  13.960   2.983
62089W        W30318  11.081  13.771  10.751
62090W        W30319   4.390   1.104   0.207
62091W        W30320  40.318  11.794  13.355
62092W        W30321  42.629  14.615   1.818
62093W        W30322  42.401  19.384   2.860
62094W        W30323  25.093  44.415  11.069
62095W        W30324  37.360  13.624   4.576
62096W        W30325  33.099  28.697  13.854
62097W        W30326  30.123   0.989  12.955
62098W        W30327  39.058   8.173  10.404
62099W        W30328  40.927  13.408  12.069
62100W        W30329  43.312   4.838   0.536
62101W        W30330  14.263  27.173  13.246
62102W        W30331  41.119   5.662   3.748
62103W        W30332   5.654  29.762  12.062
62104W        W30333  16.661  26.242  13.990
62105W        W30334  31.921   5.935  14.532
62106W        W30335  34.465  42.234  14.434
62107W        W30336  13.540  44.913  11.096
62108W        W30337  36.992   9.882  13.072
62109W        W30338  21.223   7.290  11.619
62110W        W30339   5.639  32.409  12.419
62111W        W30340  16.690  39.855  13.391
62112W        W30341  21.854  28.964   0.870
62113W        W30342  13.896  33.945  14.496
62114W        W30343  18.089  30.890  13.587
62115W        W30344  15.108  43.815   2.243
62116W        W30345  35.675   8.772   1.971
62117W        W30346   7.467  44.989   2.224
62118W        W30347  18.107  37.564   0.691
62119W        W30348  32.488  13.766   0.351
62120W        W30349  44.417  13.572  14.304
62121W        W30350  24.889  37.816   2.166
62122W        W30351  18.676  35.580  10.612
62123W        W30352  36.659  16.965  13.861
62124W        W30353   0.338   0.255   2.353
62125W        W30354   1.216   6.795  13.910
62126W        W30355   8.213  38.377  12.657
62127W        W30356  26.178  10.154  13.312
62128W        W30357  26.548  17.331  12.053
62129W        W30358  13.904  35.467  14.803
62130W        W30359   5.832  23.790  12.560
62131W        W30360  28.983   1.502   3.361
62132W        W30361   9.210  32.517  11.008
62133W        W30362   7.857   6.295   2.720
62134W        W30363  21.785  26.181  12.168
62135W        W30364  39.569  15.244   1.764
62136W        W30365  21.073  30.673  14.604
62137W        W30366  22.238  35.133  11.794
62138W        W30367  36.760  28.642   0.175
62139W        W30368  35.365   9.319  12.445
62140W        W30369  43.443  10.333  11.385
62141W        W30370  34.087  28.189  13.146
62142W        W30371  31.982  22.731   1.505
62143W        W30372  39.867  17.604   0.345
62144W        W30373  40.542   8.554  11.899
62145W        W30374  12.610   0.461   0.290
62146W        W30375  37.506   4.793  13.428
62147W        W30376  30.531  18.353  14.825
62148W        W30377  37.988  39.033   2.918
62149W        W30378  11.820  34.404  11.591
62150W        W30379  42.512  17.150  10.673
62151W        W30380  42.550  27.670   1.303
62152W        W30381  16.591  39.432  13.889
62153W        W30382  32.381  13.949  11.945
62154W        W30383  31.979  43.916   1.704
62155W        W30384  30.899  29.989  10.458
62156W        W30385  44.325  41.478   2.879
62157W        W30386   5.937  15.956   3.735
62158W        W30387  13.181  20.916   4.145
62159W        W30388  35.383   4.987   3.771
62160W        W30389   3.787  32.538  12.572
62161W        W30390  29.699  43.332   4.177
62162W        W30391  11.724  43.747  12.076
62163W        W30392   6.623  44.280   2.298
62164W        W30393  22.727  10.690   4.117
62165W        W30394  28.191  34.824  10.253
62166W        W30395   5.821  33.312  14.760
62167W        W30396  22.057  15.228  10.653
62168W        W30397  21.290  39.767  12.296
62169W        W30398  12.636  12.867   0.371
62170W        W30399  13.029  36.656  11.103
62171W        W30400  24.263   3.213  12.113
62172W        W30401  18.751  44.438  11.249
62173W        W30402   2.958  18.206   4.226
62174W        W30403  33.913  44.872   2.930
62175W        W30404  37.455  43.869  13.852
62176W        W30405  15.847  16.979   4.093
62177W        W30406  42.702  24.486  11.488
62178W        W30407  38.459  44.131   0.801
62179W        W30408  25.567  21.751   0.910
62180W        W30409  42.066  29.590  10.490
62181W        W30410  23.523  38.954  10.626
62182W        W30411  20.310  21.696  14.399
62183W        W30412  21.167  35.850   2.284
62184W        W30413  38.661   1.029   1.863
62185W        W30414   2.772  32.621   3.640
62186W        W30415  34.914  40.350   0.794
62187W        W30416  30.829  38.911   4.124
62188W        W30417  27.436   5.027   1.715
62189W        W30418   0.425  26.028   0.922
62190W        W30419   2.862  33.985  14.356
62191W        W30420  13.434  16.345   3.726
62192W        W30421  25.648   2.927   2.865
62193W        W30422  14.214  26.268  10.768
62194W        W30423  39.670  41.570  12.134
62195W        W30424  18.756   6.340  13.209
62196W        W30425  42.470   3.770   0.840
62197W        W30426  27.797   8.997  13.842
62198W        W30427   3.325  13.361   0.174
62199W        W30428  22.441  20.348  11.663
62200W        W30429  30.584  21.650   3.544
62201W        W30430  37.508  26.023   3.296
62202W        W30431  12.306  15.254   0.593
62203W        W30432  16.233  23.149  10.306
62204W        W30433  24.370  18.816   3.190
62205W        W30434  44.301  16.266  13.290
62206W        W30435  34.127  35.458   3.229
62207W        W30436  43.119   1.687   0.493
62208W        W30437   9.238  41.296   3.834
62209W        W30438   9.985  18.209   1.344
62210W        W30439  43.601  37.674   1.207
62211W        W30440  16.586  29.765   1.735
62212W        W30441  18.760  41.430  10.609
62213W        W30442  40.332   4.405  13.356
62214W        W30443   1.758   9.093   0.855
62215W        W30444  24.051  17.541   1.843
62216W        W30445   2.225  26.826  11.851
62217W        W30446   6.371  13.529   0.995
62218W        W30447  37.534   6.398  12.529
62219W        W30448  36.080  15.076   2.826
62220W        W30449  36.518   6.828   1.050
62221W        W30450  11.874  31.813   3.604
62222W        W30451  42.587  12.457   1.996
62223W        W30452  19.538  25.147   1.292
62224W        W30453  29.221  38.251  10.612
62225W        W30454   4.339  39.490   2.187
62226W        W30455  16.258   6.868   4.704
62227W        W30456  23.270   6.053   1.359
62228W        W30457  32.692  17.700   4.159
62229W        W30458  15.433  16.097  11.602
62230W        W30459   0.402  34.563  14.427
62231W        W30460  25.472  16.491  12.050
62232W        W30461  25.068   6.805   4.287
62233W        W30462   1.847   8.175   3.664
62234W        W30463  21.556  10.832   0.411
62235W        W30464  25.098  20.578   3.324
62236W        W30465  35.836  20.258   4.091
62237W        W30466   7.484  16.631  14.352
62238W        W30467  29.066  43.045   3.681
62239W        W30468  15.632  12.618  11.688
62240W        W30469  31.375  43.334  11.605
62241W        W30470  21.162  41.472  12.059
62242W        W30471  13.613  29.879   3.517
62243W        W30472  26.163   1.722  11.989
62244W        W30473  41.685   5.774  13.000
62245W        W30474  32.876   8.691  11.559
62246W        W30475   3.132  44.996  13.410
62247W        W30476  37.091  30.976   1.781
62248W        W30477   3.805  14.079   3.316
62249W        W30478  16.559  16.007  10.981
62250W        W30479  26.616  26.794  14.999
62251W        W30480   4.369  38.861  12.731
62252W        W30481  33.640  13.673  14.767
62253W        W30482  27.306  21.963   3.755
62254W        W30483  43.714   8.198  14.827
62255W        W30484   6.380  43.370   2.249
62256W        W30485  29.845  29.527   1.131
62257W        W30486  38.830   2.379  14.307
62258W        W30487  31.468  13.412   0.709
62259W        W30488  42.210  12.262   3.300
62260W        W30489  20.578   9.899  10.451
62261W        W30490  18.070  28.698   3.192
62262W        W30491   8.774   7.995  13.515
62263W        W30492  12.821  43.029   2.352
62264W        W30493  29.152  19.760  13.501
62265W        W30494  43.459  40.039   3.241
62266W        W30495   2.135  42.511  13.983
62267W        W30496  26.603  28.808  11.491
62268W        W30497  28.972  36.724  13.861
62269W        W30498  18.063  34.670  11.037
62270W        W30499  15.254   2.136  12.579
62271W        W30500  16.817  19.212   4.309
62272W        W30501  22.488  34.410  10.281
62273W        W30502  41.262   5.177  12.074
62274W        W30503  35.042  27.500  10.595
62275W        W30504  36.140  33.877   0.092
62276W        W30505  33.214   2.902  13.233
62277W        W30506  28.952  34.691  11.871
62278W        W30507  17.825  39.238  14.412
62279W        W30508  11.176  15.920   2.740
62280W        W30509  40.501  26.700  10.262
62281W        W30510  28.916  23.463  11.661
62282W        W30511  17.148  13.392  12.106
62283W        W30512  27.059  24.912  11.969
62284W        W30513  44.957  19.033  14.375
62285W        W30514  18.683   8.374  12.060
62286W        W30515  17.475   8.116  13.575
62287W        W30516  31.998   3.865   4.123
62288W        W30517   4.216  35.595   0.442
62289W        W30518  16.654  44.606  14.121
62290W        W30519  22.897  35.511   2.854
62291W        W30520  14.263   4.894  10.686
62292W        W30521  43.964  17.207  13.086
62293W        W30522  20.843  31.875   0.994
62294W        W30523  25.886  30.606  13.370
62295W        W30524  19.668   6.189   4.601
62296W        W30525  11.381  32.588  11.112
62297W        W30526  32.453   2.215   0.641
62298W        W30527  42.302  30.946  10.644
62299W        W30528  34.624  12.681  13.565
62300W        W30529  32.528  13.362   1.308
62301W        W30530   8.672  33.973   3.241
62302W        W30531  32.088   2.220  11.117
62303W        W30532  10.266  10.127   2.610
62304W        W30533  30.113  40.451  13.819
62305W        W30534   0.735  42.712   4.388
62306W        W30535  27.562  26.806   3.602
62307W        W30536  15.395  43.342  13.915
62308W        W30537   5.940  26.376   1.409
62309W        W30538  42.878  18.006  13.514
62310W        W30539  12.811  24.114  11.527
62311W        W30540  19.111   0.786  13.285
62312W        W30541   3.954  38.520   4.022
62313W        W30542  39.885  15.635   4.924
62314W        W30543  14.880  33.123   2.381
62315W        W30544   6.245   8.345   3.729
62316W        W30545  43.062  37.580  13.476
62317W        W30546  43.523   6.267  14.134
62318W        W30547  42.458  31.398  12.572
62319W        W30548  12.264  34.082   3.757
62320W        W30549   4.587  20.043   1.604
62321W        W30550   3.655  12.647  13.383
62322W        W30551   6.481  44.847  11.208
62323W        W30552  23.290  32.887  13.294
62324W        W30553  39.318   6.869  11.531
62325W        W30554   6.850  10.298   1.885
62326W        W30555  40.986  27.474   0.765
62327W        W30556  37.478   0.923  10.937
62328W        W30557  36.244  16.312  14.706
62329W        W30558  44.058  23.475   1.340
62330W        W30559   1.534  28.480  13.505
62331W        W30560  31.444   4.116  14.316
62332W        W30561  23.063  11.705   0.787
62333W        W30562  27.562  39.514   4.776
62334W        W30563   5.103  31.840   4.069
62335W        W30564  32.357  41.945  14.093
62336W        W30565  37.525  34.328  11.598
62337W        W30566  12.330   6.672  14.816
62338W        W30567  44.851  41.251   1.194
62339W        W30568  39.106  39.431  13.014
62340W        W30569  35.028   4.672   3.596
62341W        W30570  18.332  41.037  14.957
62342W        W30571  30.929  30.729  11.792
62343W        W30572  42.740  26.997   1.112
62344W        W30573  18.481  44.898  11.289
62345W        W30574  42.839  34.369  12.007
62346W        W30575  21.068  26.819  14.761
62347W        W30576  22.044  31.012  12.065
62348W        W30577  37.004  44.302  13.661
62349W        W30578  13.738  19.381  11.943
62350W        W30579  11.939  10.817  14.939
62351W        W30580  24.580  31.451   0.482
62352W        W30581  31.931  24.984  13.029
62353W        W30582  43.322   9.945  11.708
62354W        W30583  22.190  42.520   5.016
62355W        W30584  43.664   6.888   1.784
62356W        W30585   0.827  27.410  14.028
62357W        W30586  23.073   8.980  11.702
62358W        W30587   6.067  30.912   2.617
62359W        W30588  38.959  44.868  11.151
62360W        W30589  40.396  22.219  12.044
62361W        W30590  13.636   8.911   1.288
62362W        W30591  11.224  19.039   4.181
62363W        W30592  34.992  42.468   4.079
62364W        W30593  42.324  18.227   2.094
62365W        W30594  28.566  19.061   4.093
62366W        W30595  40.031  10.307  10.694
62367W        W30596  12.375   7.858   3.689
62368W        W30597   8.721  29.246   2.825
62369W        W30598  13.706  29.387  14.967
62370W        W30599   3.270  29.655   4.166
62371W        W30600  17.606  20.478  14.419
62372W        W30601   6.454  18.320   4.113
62373W        W30602  15.296   5.755   3.361
62374W        W30603   8.702  35.566   4.023
62375W        W30604  33.845  21.148  13.916
62376W        W30605   9.787  31.980  13.521
62377W        W30606  30.699   3.276   3.157
62378W        W30607  10.851  15.289  13.016
62379W        W30608  27.136  31.753   2.444
62380W        W30609  18.685   2.728   0.075
62381W        W30610   9.721   2.950   0.849
62382W        W30611  44.496   0.341  10.158
62383W        W30612  39.971   6.945  10.129
62384W        W30613  33.757   6.432   4.506
62385W        W30614  27.926  13.276  11.467
62386W        W30615  14.144  38.431   3.883
62387W        W30616   1.088   5.181   0.601
62388W        W30617  44.259  18.813  11.650
62389W        W30618   1.480  12.906  13.512
62390W        W30619  26.528  12.180  14.207
62391W        W30620  12.266   8.844  12.330
62392W        W30621  26.600  26.960  10.981
62393W        W30622   2.588  15.427  13.507
62394W        W30623   0.501  40.579   1.303
62395W        W30624   7.152  10.837  12.395
62396W        W30625  43.496   6.115   0.653
62397W        W30626  15.247  37.994  13.342
62398W        W30627  16.008   2.936  11.538
62399W        W30628  32.130  19.261  12.669
62400W        W30629  12.338  31.137   0.826
62401W        W30630  31.669  44.955   1.267
62402W        W30631  41.602  25.187  11.622
62403W        W30632  33.244  27.731   1.766
62404W        W30633  41.607   3.471  12.561
62405W        W30634  38.931  19.728  14.365
62406W        W30635  36.161   8.167  11.581
62407W        W30636   4.981  25.687   2.877
62408W        W30637  15.475   6.520  14.473
62409W        W30638  43.310  11.215  11.219
62410W        W30639  33.317  26.494   3.274
62411W        W30640  30.093  34.938  10.697
62412W        W30641  41.569  12.096   2.657
62413W        W30642  30.687   9.867  13.683
62414W        W30643  26.664  14.252  11.220
62415W        W30644  11.578  16.483   2.374
62416W        W30645  44.004  15.789   1.242
62417W        W30646  17.588  27.032   4.086
62418W        W30647  38.835  36.549  11.714
62419W        W30648  22.080  35.503   0.115
62420W        W30649  43.011   2.959   0.545
62421W        W30650  24.016  17.411   3.576
62422W        W30651   1.475  14.420  12.477
62423W        W30652  36.174  37.844  12.882
62424W        W30653  12.012  31.115   0.414
62425W        W30654  10.290  31.505   3.151
62426W        W30655  17.801  32.047  11.554
62427W        W30656  28.144  14.160   0.291
62428W        W30657  13.606  31.231  14.375
62429W        W30658  16.236   4.659   2.181
62430W        W30659  24.614  36.458  12.080
62431W        W30660   3.555   2.294  12.132
62432W        W30661   6.238  33.554   1.515
62433W        W30662   8.906  34.128  14.986
62434W        W30663  39.240  34.226   5.164
62435W        W30664  16.815   9.642   3.719
62436W        W30665  41.523  15.361  12.378
62437W        W30666  44.039  33.487   4.265
62438W        W30667  16.667   1.589  12.597
62439W        W30668  43.910   0.755   2.891
62440W        W30669  28.201  18.155   2.790
62441W        W30670   3.205  26.720  11.499
62442W        W30671   7.018  40.132   4.179
62443W        W30672  14.448  14.230  10.217
62444W        W30673   7.610  22.291  11.985
62445W        W30674   2.144  22.591   1.352
62446W        W30675  38.314  18.642  12.382
62447W        W30676  33.928   1.149   1.221
62448W        W30677  14.141  44.067   2.320
62449W        W30678  37.167  33.951  12.483
62450W        W30679  13.414  10.573  14.837
62451W        W30680  37.570  18.535   3.113
62452W        W30681   8.791  12.407   0.885
62453W        W30682  21.221  11.660  14.178
62454W        W30683   4.745  28.680  14.066
62455W        W30684  15.067  16.995  14.280
62456W        W30685  43.714  19.813  14.092
62457W        W30686   6.668  25.288  13.520
62458W        W30687  36.898   9.790  10.682
62459W        W30688  44.505   2.236  14.440
62460W        W30689  44.953  30.922  13.818
62461W        W30690  20.723  25.190  13.145
62462W        W30691  25.461  23.576  14.107
62463W        W30692  24.448  41.631   1.173
62464W        W30693  19.648  34.493  11.647
62465W        W30694  12.256  18.482  12.198
62466W        W30695  30.681  23.338  14.098
62467W        W30696  13.832   5.511  14.759
62468W        W30697  16.659  35.921  13.010
62469W        W30698  26.088  42.783  13.084
62470W        W30699  12.652  17.064   3.717
62471W        W30700  40.020   9.406  14.742
62472W        W30701  22.281  37.550   0.687
62473W        W30702  32.797   0.722   2.791
62474W        W30703  41.292  18.289   3.437
62475W        W30704   4.235  23.580   0.607
62476W        W30705  27.253  31.519  11.625
62477W        W30706  12.081  44.907   3.663
62478W        W30707   0.758  29.033  12.609
62479W        W30708  42.506   9.085  11.649
62480W        W30709  21.529  20.503  12.047
62481W        W30710  38.984  29.017   0.355
62482W        W30711  30.370  33.564  11.452
62483W        W30712  21.307  22.044  14.518
62484W        W30713  25.349  36.344   3.151
62485W        W30714  13.163  39.305   3.625
62486W        W30715  20.362  43.062   2.272
62487W        W30716  28.695  14.760  11.312
62488W        W30717  29.697   8.085   4.767
62489W        W30718  35.714  41.890   3.242
62490W        W30719  38.250  19.742   2.392
62491W        W30720  32.881  40.564   0.930
62492W        W30721   5.510  36.708  12.713
62493W        W30722  14.718  31.927   0.235
62494W        W30723  35.196   4.174   3.656
62495W        W30724  37.526  18.694  11.856
62496W        W30725   8.635  33.019   4.165
62497W        W30726  34.036  35.979  10.733
62498W        W30727  19.895  28.089   2.603
62499W        W30728  43.860   9.279   1.015
62500W        W30729  27.458  31.302  12.034
62501W        W30730  22.904  40.416   4.925
62502W        W30731  33.643  30.056  10.042
62503W        W30732   1.443  27.496   1.709
62504W        W30733  19.089  21.555   0.171
62505W        W30734  11.742  42.424   3.359
62506W        W30735  24.700  17.072   0.385
62507W        W30736  30.846  35.701  14.730
62508W        W30737  16.125  19.614   3.280
62509W        W30738   5.346   9.931  14.866
62510W        W30739  19.763  32.680   2.477
62511W        W30740  15.567  17.647   1.358
62512W        W30741  20.178   9.629  12.429
62513W        W30742  41.104   1.829  14.002
62514W        W30743  16.597  38.062   1.363
62515W        W30744   0.807  13.384  11.619
62516W        W30745  42.060  12.448   1.940
62517W        W30746  40.473  32.016  11.973
62518W        W30747  31.636  34.870  11.681
62519W        W30748  28.495   4.493   2.262
62520W        W30749  32.427  39.407   4.681
62521W        W30750  39.518  44.011  10.691
62522W        W30751  25.772   4.335   0.463
62523W        W30752  13.071   5.384   2.616
62524W        W30753  10.485  17.618  14.720
62525W        W30754   6.718   4.538   1.998
62526W        W30755   7.822   7.369  11.624
62527W        W30756  24.542  29.150   3.781
62528W        W30757   7.378  13.680   1.247
62529W        W30758  19.788  17.772   2.283
62530W        W30759   5.052  26.138   3.639
62531W        W30760  43.937  36.247   4.079
62532W        W30761  24.469   6.409  11.127
62533W        W30762  13.141   1.020   0.301
62534W        W30763   9.761   7.737   3.240
62535W        W30764  38.656  44.205  14.383
62536W        W30765  41.943   0.575   3.610
62537W        W30766  12.029   3.599   1.645
62538W        W30767  33.003  40.351  13.526
62539W        W30768  42.612  28.397  12.355
62540W        W30769  28.898  34.946   0.885
62541W        W30770   5.545  17.585   0.784
62542W        W30771  27.340   5.375  11.726
62543W        W30772  41.960  22.872   3.604
62544W        W30773  26.105  41.877  11.464
62545W        W30774  20.494   4.608   4.603
62546W        W30775  16.561  23.019  11.171
62547W        W30776  27.138   2.821   3.200
62548W        W30777  13.361  36.085   3.165
62549W        W30778  16.537  13.917   1.894
62550W        W30779  31.475   1.626  14.596
62551W        W30780   5.530  24.161  14.783
62552W        W30781  25.962  10.314   4.005
62553W        W30782  36.582  23.586  13.639
62554W        W30783  44.859  27.801  14.336
62555W        W30784  14.293  38.450   0.510
62556W        W30785  25.093  41.346   4.024
62557W        W30786  26.049   3.702   3.327
62558W        W30787  30.469  23.372   2.899
62559W        W30788  11.010  24.530  10.692
62560W        W30789  42.306  37.859   0.778
62561W        W30790  25.355  17.281  13.999
62562W        W30791  34.312   0.732   4.517
62563W        W30792  40.113   9.815  11.450
62564W        W30793   5.702  29.192  14.907
62565W        W30794  36.380  20.321   4.100
62566W        W30795   8.495  34.115  13.015
62567W        W30796  30.884  41.988  11.827
62568W        W30797   3.910  43.022  10.598
62569W        W30798   9.773  28.621  14.338
62570W        W30799  32.046  28.671   2.695
62571W        W30800  12.150  13.611   0.467
62572W        W30801  25.047  30.649  11.431
62573W        W30802  19.068   5.335   4.672
62574W        W30803   8.921  36.792  11.082
62575W        W30804   8.991  37.312  10.635
62576W        W30805   0.479  26.065  12.861
62577W        W30806  43.636   9.420  10.984
62578W        W30807  30.350  44.284   3.595
62579W        W30808  32.167  34.001   3.273
62580W        W30809  10.352  39.903   1.810
62581W        W30810  26.872  36.438  14.122
62582W        W30811  25.533  30.415   3.153
62583W        W30812  35.076   5.343   2.737
62584W        W30813  18.518   6.502  13.656
62585W        W30814   5.214  37.488  11.148
62586W        W30815   5.450   6.833   1.802
62587W        W30816  24.683  24.981   0.265
62588W        W30817   3.051  44.951   1.340
62589W        W30818  18.799  18.346  10.472
62590W        W30819  31.604  18.750  10.685
62591W        W30820   6.988  41.201   3.636
62592W        W30821  23.500  29.083  13.971
62593W        W30822   8.632  40.520  14.398
62594W        W30823  23.762  21.713  14.826
62595W        W30824  39.112  36.149  11.532
62596W        W30825  14.546   8.543   5.095
62597W        W30826   8.173   1.344   2.353
62598W        W30827  24.787   2.353  14.101
62599W        W30828  40.476   4.659  12.904
62600W        W30829   6.311  21.690  14.364
62601W        W30830  16.331   7.127  12.342
62602W        W30831  41.085   9.070  12.082
62603W        W30832  15.231   5.811  12.180
62604W        W30833   4.673  14.629   1.424
62605W        W30834  35.449  40.054   2.789
62606W        W30835  41.838  37.607   0.680
62607W        W30836   8.907  43.390   2.592
62608W        W30837  22.384  37.145   4.035
62609W        W30838   9.569  35.044   1.812
62610W        W30839   7.892  26.319   3.267
62611W        W30840  12.320  16.971  14.937
62612W        W30841  13.669  31.067   1.417
62613W        W30842  41.280  36.423  11.222
62614W        W30843  25.611  35.468  13.909
62615W        W30844   9.936  25.295  10.232
62616W        W30845  28.536  18.290  14.476
62617W        W30846  31.535  23.050   0.401
62618W        W30847  42.257  35.064  11.661
62619W        W30848  34.000   3.237   2.290
62620W        W30849  21.476  22.202   1.876
62621W        W30850  42.740  13.054   1.784
62622W        W30851   9.250  24.689   3.696
62623W        W30852  26.461   5.807   1.245
62624W        W30853   9.641  42.070   1.724
62625W        W30854  40.385  43.058   0.466
62626W        W30855  40.268   4.144   1.773
62627W        W30856  29.936  30.318   2.913
62628W        W30857  43.454  22.173   2.718
62629W        W30858  41.392  20.100   4.770
62630W        W30859   5.995  38.816  10.715
62631W        W30860   2.748  14.723  12.959
62632W        W30861   1.415  16.228   4.144
62633W        W30862  39.753   5.732  11.540
62634W        W30863  19.201  10.421   3.252
62635W        W30864  19.010   6.691  11.682
62636W        W30865   2.990  39.474  13.117
62637W        W30866  17.123  19.189   3.326
62638W        W30867  43.527  35.151  14.459
62639W        W30868  31.623   7.117   1.290
62640W        W30869  43.980  39.832   2.022
62641W        W30870  13.324  24.581   4.897
62642W        W30871  28.994  13.534   2.761
62643W        W30872  20.265  11.732  14.481
62644W        W30873  27.619  41.832  10.502
62645W        W30874   3.681  22.579  11.688
62646W        W30875  19.507   0.953   2.839
62647W        W30876  39.437  17.228   3.753
62648W        W30877  33.953  39.414   1.319
62649W        W30878  44.810  29.709  11.071
62650W        W30879  13.822  11.912   3.825
62651W        W30880  14.636   9.137   4.221
62652W        W30881  11.807  19.106  10.422
62653W        W30882   6.866  20.500  11.667
62654W        W30883  21.051  12.744  12.943
62655W        W30884   7.378  43.604   1.380
62656W        W30885  30.576   5.220  12.885
62657W        W30886  37.172  11.171   4.877
62658W        W30887  40.282  29.367   3.277
62659W        W30888  22.321  26.493   1.170
62660W        W30889  23.030  18.013  13.316
62661W        W30890  42.462  13.949  11.027
62662W        W30891  44.319  41.867  14.946
62663W        W30892   1.208  30.269   0.463
62664W        W30893  34.907  37.935  14.903
62665W        W30894  43.983  12.176  11.594
62666W        W30895  22.758  16.867   1.436
62667W        W30896  15.045  43.317   4.814
62668W        W30897  30.026  18.675  11.624
62669W        W30898   1.801  20.261   3.796
62670W        W30899  44.287  34.249   3.261
62671W        W30900  12.653  12.414  13.987
62672W        W30901  28.660  18.387   2.737
62673W        W30902  23.579  17.629  12.499
62674W        W30903  24.755  30.907   2.793
62675W        W30904  32.406  26.914  12.533
62676W        W30905  22.438  16.302  12.888
62677W        W30906  37.328  36.940   1.442
62678W        W30907  24.612  37.067   4.683
62679W        W30908  35.440   6.323  11.337
62680W        W30909   5.639  23.500   3.363
62681W        W30910  24.653   9.758   5.575
62682W        W30911  33.984   8.840   4.222
62683W        W30912  42.338   3.684  13.464
62684W        W30913  37.635  15.040   3.374
62685W        W30914  31.875   6.264  10.959
62686W        W30915  26.111  29.600  11.598
62687W        W30916  29.705   2.443  11.539
62688W        W30917  34.878  19.132   1.815
62689W        W30918  31.104  33.448   4.348
62690W        W30919  28.689  31.603  12.917
62691W        W30920  11.890   3.603   2.895
62692W        W30921  32.352  11.346   1.382
62693W        W30922  18.288  38.963   0.891
62694W        W30923  22.200  31.979  14.987
62695W        W30924  20.565  25.549  10.627
62696W        W30925  16.218   6.410  13.734
62697W        W30926  11.376  43.052  14.068
62698W        W30927  32.005  38.140   4.566
62699W        W30928  44.004  36.621   0.912
62700W        W30929  24.467  35.847   3.764
62701W        W30930  30.817  23.153  11.566
62702W        W30931  23.238  33.531   1.636
62703W        W30932  32.856  19.115  14.706
62704W        W30933  30.534  27.861   4.125
62705W        W30934  29.857  21.564  14.267
62706W        W30935  27.248  33.158  10.977
62707W        W30936   8.754   8.229   3.571
62708W        W30937  23.593  42.182   4.581
62709W        W30938   6.042  13.204   0.418
62710W        W30939  31.694  16.217   9.937
62711W        W30940   6.161  30.519   3.675
62712W        W30941  14.348  23.527   4.608
62713W        W30942  29.103  38.587  13.589
62714W        W30943   2.197  13.129  11.588
62715W        W30944  24.869  12.578  11.147
62716W        W30945  24.067  12.676   1.387
62717W        W30946  33.630   6.950  11.737
62718W        W30947  11.399  19.216   4.786
62719W        W30948  17.702  11.724  12.568
62720W        W30949   7.830  13.485   4.609
62721W        W30950  44.011  17.640  13.425
62722W        W30951  17.321  11.525  11.016
62723W        W30952  23.625   2.474   4.679
62724W        W30953  18.601  31.933  12.913
62725W        W30954  22.904  29.535   0.278
62726W        W30955  27.047   2.956   2.705
62727W        W30956  17.221  28.938   1.853
62728W        W30957  39.857   9.891  12.497
62729W        W30958  16.556   0.399   2.770
62730W        W30959  32.608  37.259  12.721
62731W        W30960  44.506  40.326  14.873
62732W        W30961  14.265  19.008  13.829
62733W        W30962  41.860  14.033  12.517
62734W        W30963   8.211  22.402  12.952
62735W        W30964  41.888  13.821  13.653
62736W        W30965   8.608  12.283  11.526
62737W        W30966  31.200  24.229   0.042
62738W        W30967  30.665   9.196   1.763
62739W        W30968   3.764  17.228  12.479
62740W        W30969  37.164  24.261   4.737
62741W        W30970  10.186  29.049  13.642
62742W        W30971  24.711   7.270  14.314
62743W        W30972  30.637   0.884  10.852
62744W        W30973  22.703  34.405   1.909
62745W        W30974   6.800  26.586   4.621
62746W        W30975  38.879   1.229  11.170
62747W        W30976  16.795  27.961   2.309
62748W        W30977  24.822  36.145  14.822
62749W        W30978  23.448  10.778   1.298
62750W        W30979  20.210  38.164   1.475
62751W        W30980  10.597  39.475  12.054
62752W        W30981  23.193  34.734  13.810
62753W        W30982  30.366  39.107  14.039
62754W        W30983   3.707  24.185   1.725
62755W        W30984   6.835  23.644   0.224
62756W        W30985  23.535  25.620   1.651
62757W        W30986   3.855  10.795   3.012
62758W        W30987   8.139  24.222  14.804
62759W        W30988  42.995   7.734  11.982
62760W        W30989   8.227  38.138   2.797
62761W        W30990  14.168  26.767   1.308
62762W        W30991  32.663  10.107   1.344
62763W        W30992  17.807  42.929   0.401
62764W        W30993   4.903  16.688   1.343
62765W        W30994  17.965  26.701  11.671
62766W        W30995   0.948  17.860   0.302
62767W        W30996  44.869   6.983   0.192
62768W        W30997  43.205   2.911   2.705
62769W        W30998  34.308  35.035  14.425
62770W        W30999   1.393  29.057   2.713
62771W        W31000   5.198   3.628  13.410
62772W        W31001   2.377  24.625  12.916
62773W        W31002  41.062   9.856  11.322
62774W        W31003  22.577  20.825   1.483
62775W        W31004   0.228  28.209  11.117
62776W        W31005  39.076  29.886   2.735
62777W        W31006  38.504   5.447  10.354
62778W        W31007  43.798  39.924  14.962
62779W        W31008  39.826   0.613  14.008
62780W        W31009   2.454   0.462   1.423
62781W        W31010  16.237  30.978   1.200
62782W        W31011  30.077  34.326  12.336
62783W        W31012   6.783   8.749   2.131
62784W        W31013  43.776  43.242  10.757
62785W        W31014   8.080   1.468   3.279
62786W        W31015  28.890  43.834   0.707
62787W        W31016  30.347   3.502  12.618
62788W        W31017  21.732  36.667  11.094
62789W        W31018  37.305   9.516   2.013
62790W        W31019  29.996  42.138   3.827
62791W        W31020   7.275  28.513   3.400
62792W        W31021   3.643   8.612  14.477
62793W        W31022  38.518  21.018  12.384
62794W        W31023  21.668  44.250   2.604
62795W        W31024  14.230  13.624  12.502
62796W        W31025   7.835   8.703   5.046
62797W        W31026  37.522  14.829   5.026
62798W        W31027  30.848  27.896  12.074
62799W        W31028   8.537  28.123   2.716
62800W        W31029  39.828   2.193  12.033
62801W        W31030  33.907  34.133  14.974
62802W        W31031   7.039   9.147   2.313
62803W        W31032  16.120  17.564  11.114
62804W        W31033  31.862  15.988   2.957
62805W        W31034  16.754   3.768   1.126
62806W        W31035  19.291  11.591  11.657
62807W        W31036  39.330  43.724   3.330
62808W        W31037   9.302  18.800   1.180
62809W        W31038  19.758  12.377  11.118
62810W        W31039  33.525  31.857  13.332
62811W        W31040  19.152  14.220  12.050
62812W        W31041  25.124   5.961  12.475
62813W        W31042  34.345   8.502  12.019
62814W        W31043  28.460  41.263   0.254
62815W        W31044  12.194  24.192  13.244
62816W        W31045   3.785  30.111   4.772
62817W        W31046  34.099  34.103   2.431
62818W        W31047  36.247  22.736  13.529
62819W        W31048  16.060   6.944   2.263
62820W        W31049  17.119  26.877   3.555
62821W        W31050  42.380  31.210  11.966
62822W        W31051   8.954  27.084  11.054
62823W        W31052  29.924  24.305  14.137
62824W        W31053   0.389  37.799  14.854
62825W        W31054  15.596  42.913   2.265
62826W        W31055  30.133  32.966  12.641
62827W        W31056  13.278  27.941   2.333
62828W        W31057   6.238  44.307  10.290
62829W        W31058   8.613  32.267  10.672
62830W        W31059   3.669  17.190   2.115
62831W        W31060  15.450  29.818   0.951
62832W        W31061   7.956   4.941   1.518
62833W        W31062  24.209  33.409  14.991
62834W        W31063  20.561  12.580  11.542
62835W        W31064  29.221  44.949  12.102
62836W        W31065  35.867  38.372   2.680
62837W        W31066  25.262  20.656   1.841
62838W        W31067  31.410  14.722   5.009
62839W        W31068  37.928  27.454  10.738
62840W        W31069  24.143  18.950  14.775
62841W        W31070  38.828  23.997  11.033
62842W        W31071   5.752  20.075   3.380
62843W        W31072   3.904  28.219   3.640
62844W        W31073   2.984   1.296   4.112
62845W        W31074  39.283  13.557  13.850
62846W        W31075  35.446  10.669   0.800
62847W        W31076  15.297   5.529   1.374
62848W        W31077   6.000  31.652  13.882
62849W        W31078  33.954  44.822   3.856
62850W        W31079  29.546  12.596   2.301
62851W        W31080  24.658  39.393  12.065
62852W        W31081  20.290  38.709  10.293
62853W        W31082   8.779  29.494   0.022
62854W        W31083  44.851   4.765  12.282
62855W        W31084  19.607  32.903  14.887
62856W        W31085  36.562   0.086   3.595
62857W        W31086   8.291   6.080   0.820
62858W        W31087  17.024  32.737   3.277
62859W        W31088   2.793  20.171   1.839
62860W        W31089  38.077   8.816   3.710
62861W        W31090   4.765   6.707   2.271
62862W        W31091  32.923  30.961  10.713
62863W        W31092  37.496   0.350   1.783
62864W        W31093  19.864  42.925   2.251
62865W        W31094  11.690  16.464  13.483
62866W        W31095  29.215  10.709   2.479
62867W        W31096  10.247  17.993  11.255
62868W        W31097  35.823  42.379  12.619
62869W        W31098  22.401  37.515   2.895
62870W        W31099  39.978  22.692  13.873
62871W        W31100   9.600  13.527  12.933
62872W        W31101   6.945   0.503   0.801
62873W        W31102  21.246  21.329   3.423
62874W        W31103   4.442  38.497   4.198
62875W        W31104  40.220   6.784  10.554
62876W        W31105  42.211  25.519   3.033
62877W        W31106  28.315  43.434   4.611
62878W        W31107   4.579  20.513   5.160
62879W        W31108   7.874  24.856   4.235
62880W        W31109   7.911   8.846   3.718
62881W        W31110  36.536  32.602  13.829
62882W        W31111  41.394   3.788  14.436
62883W        W31112  14.622  30.296  11.179
62884W        W31113  15.815  30.989  11.166
62885W        W31114   2.315  16.007  12.305
62886W        W31115  17.847  33.776   2.748
62887W        W31116  44.972   2.893   1.689
62888W        W31117  11.494  39.670   1.513
62889W        W31118  35.680  10.881  13.399
62890W        W31119   0.710  42.744  12.913
62891W        W31120  19.729  26.552   0.890
62892W        W31121  42.339  19.353  12.097
62893W        W31122   9.964  16.663  13.113
62894W        W31123  40.507   0.306   1.024
62895W        W31124  15.062   2.395  14.268
62896W        W31125  33.476  16.631  11.841
62897W        W31126  40.635  36.853  14.991
62898W        W31127  19.869  31.069  12.235
62899W        W31128   2.463   5.361  13.757
62900W        W31129  22.508  44.996  13.300
62901W        W31130  39.774   6.912  12.746
62902W        W31131   7.171  31.825  13.501
62903W        W31132  43.017  37.312   3.742
62904W        W31133  20.978  37.122   2.759
62905W        W31134  26.716  10.867   3.646
62906W        W31135  29.303  10.777   0.183
62907W        W31136  20.265  13.577   2.731
62908W        W31137  15.807   0.796  11.050
62909W        W31138  43.449  33.499   3.194
62910W        W31139   9.565  10.390  13.301
62911W        W31140  11.098  27.733   4.589
62912W        W31141   1.383  34.124  10.692
62913W        W31142  14.188   1.881  13.550
62914W        W31143  15.176   8.497   0.379
62915W        W31144  20.972  41.829   2.797
62916W        W31145  31.107  39.551  13.642
62917W        W31146  31.461  19.074   3.162
62918W        W31147  31.900  14.154   1.605
62919W        W31148  37.032  36.350  10.749
62920W        W31149  14.884   9.290   1.435
62921W        W31150  42.930  24.630  13.891
62922W        W31151  41.622  23.715   2.592
62923W        W31152  39.450  28.886   4.167
62924W        W31153  25.162  12.728  11.556
62925W        W31154  19.626  15.181   4.139
62926W        W31155  12.258  13.109  12.969
62927W        W31156  37.297   4.057  11.647
62928W        W31157  26.645  21.393  13.797
62929W        W31158  36.960  11.453  12.978
62930W        W31159   6.840  30.521   1.283
62931W        W31160  24.625  37.902   4.073
62932W        W31161  14.781   2.183  12.775
62933W        W31162   6.423   3.928  14.954
62934W        W31163  21.293   8.390   0.963
62935W        W31164  36.980   0.545  13.180
62936W        W31165  42.604  22.168  14.382
62937W        W31166  14.327  29.931   1.477
62938W        W31167  43.688  33.949   3.239
62939W        W31168   1.176  28.983   3.678
62940W        W31169  34.554  26.936  13.046
62941W        W31170  34.588  10.298   3.825
62942W        W31171  35.620  28.605   1.585
62943W        W31172  27.389  26.918   2.247
62944W        W31173  40.329  44.395  12.114
62945W        W31174  21.264   4.898  11.084
62946W        W31175  44.297   7.795   4.545
62947W        W31176   5.696   3.881   2.862
62948W        W31177  36.457  25.868   4.689
62949W        W31178   8.901  13.566   2.360
62950W        W31179   5.405  21.173   1.427
62951W        W31180  13.221  44.302   3.204
62952W        W31181  21.730  11.822  13.396
62953W        W31182  22.511   2.526  14.340
62954W        W31183  17.486  10.878  10.714
62955W        W31184   5.285  17.684  12.407
62956W        W31185  29.285  23.064   0.682
62957W        W31186  21.611  12.356   2.257
62958W        W31187  31.184  21.611  13.991
62959W        W31188  15.706  29.285   3.635
62960W        W31189  12.575  13.590   9.792
62961W        W31190  34.634  31.849   2.337
62962W        W31191  36.443  15.520  12.612
62963W        W31192  21.579  34.054   4.932
62964W        W31193  25.819  29.212  14.728
62965W        W31194  41.316  12.109  12.048
62966W        W31195   1.767  29.069  14.877
62967W        W31196  23.147  36.625  13.601
62968W        W31197  27.256  20.590   2.724
62969W        W31198  21.486  39.876   0.823
62970W        W31199  36.451  13.029   1.387
62971W        W31200  41.831  37.749   2.576
62972W        W31201   0.761  10.956  13.898
62973W        W31202  19.612  23.481   5.761
62974W        W31203  31.969  11.792  13.125
62975W        W31204  18.142  40.720  11.569
62976W        W31205   9.802  22.990   2.155
62977W        W31206  32.025  33.536   4.494
62978W        W31207  29.590  43.702   2.884
62979W        W31208   5.746  10.734  14.800
62980W        W31209  21.660  21.330  12.430
62981W        W31210  29.642  44.414   2.300
62982W        W31211  21.985  18.646  11.104
62983W        W31212  12.073  12.595   3.685
62984W        W31213  34.898  21.130  12.142
62985W        W31214  11.082   7.683   1.276
62986W        W31215   4.332  42.656  14.178
62987W        W31216  18.248  36.436  12.846
62988W        W31217  25.389   5.172  14.360
62989W        W31218  35.418  22.071  11.192
62990W        W31219  44.751   3.525  14.564
62991W        W31220   8.560  37.558   1.713
62992W        W31221  39.745   9.769   1.544
62993W        W31222   1.808  16.673  13.075
62994W        W31223  24.381  39.422   2.582
62995W        W31224  41.964  11.208   3.319
62996W        W31225  20.081   2.151   1.779
62997W        W31226   2.280  23.288   3.170
62998W        W31227  13.777   0.543  14.924
62999W        W31228  27.087  20.801   3.208
63000W        W31229   8.373   9.196   2.591
63001W        W31230   7.218  35.935   0.955
63002W        W31231  14.718   7.200   3.722
63003W        W31232  10.098   2.961  13.049
63004W        W31233  31.434  24.665  10.606
63005W        W31234  37.599   6.852  13.394
63006W        W31235  43.532  15.695   1.900
63007W        W31236  22.543  44.747   4.245
63008W        W31237  16.510  15.188  12.593
63009W        W31238  19.124   7.382   3.359
63010W        W31239  35.061  19.193  14.347
63011W        W31240   4.917  44.397   3.600
63012W        W31241  30.148  36.974   4.177
63013W        W31242  27.184  36.254   4.551
63014W        W31243  40.100  15.622   2.397
63015W        W31244   8.846  21.205  12.555
63016W        W31245  27.628  11.645   4.942
63017W        W31246  36.486  42.250  14.803
63018W        W31247  35.686   6.120   2.812
63019W        W31248  26.654  23.928   3.441
63020W        W31249  40.583  31.145   3.689
63021W        W31250  42.059  11.681   0.492
63022W        W31251  23.681  44.901   1.230
63023W        W31252  20.528  20.930   4.731
63024W        W31253  22.862  12.851   3.372
63025W        W31254  21.476  11.081   0.884
63026W        W31255   3.976  25.633  13.126
63027W        W31256  16.307  36.216   0.741
63028W        W31257  23.037  29.929  13.479
63029W        W31258   0.414  28.010  12.091
63030W        W31259  32.936  34.899   2.786
63031W        W31260  14.251  31.674   0.967
63032W        W31261  30.009  42.083   0.777
63033W        W31262  32.593  41.890  12.610
63034W        W31263  28.571  37.025   1.909
63035W        W31264  42.306  31.137  14.768
63036W        W31265  26.013  36.845  12.509
63037W        W31266  28.656  34.861   2.164
63038W        W31267  12.846  11.509  11.526
63039W        W31268  31.928  24.749   1.808
63040W        W31269  12.072  44.950   1.871
63041W        W31270   3.302  19.148  11.303
63042W        W31271  17.738  12.594   4.077
63043W        W31272  12.205  21.695  14.333
63044W        W31273  34.371  34.612   0.834
63045W        W31274   3.894   9.804  14.864
63046W        W31275  41.837   2.992   4.825
63047W        W31276   1.099  28.167   2.355
63048W        W31277   5.338   9.222   3.329
63049W        W31278   5.534  43.829   0.389
63050W        W31279  33.956  34.781  11.193
63051W        W31280  41.312  15.595  14.890
63052W        W31281   6.704  25.791  13.631
63053W        W31282  41.384  38.535   2.200
63054W        W31283  33.507  39.871   0.864
63055W        W31284  20.241   4.206   1.032
63056W        W31285  25.947  26.757   4.017
63057W        W31286  23.190  43.180  11.665
63058W        W31287  15.189  17.742   2.290
63059W        W31288  41.776  37.354  12.236
63060W        W31289   1.630  41.243   1.243
63061W        W31290  26.846  16.603  11.010
63062W        W31291  33.484  14.745   1.099
63063W        W31292  23.478  30.347  11.575
63064W        W31293  13.291   7.764  14.498
63065W        W31294   8.187  33.037   0.705
63066W        W31295  22.191  13.712   3.303
63067W        W31296   4.685   7.046   1.253
63068W        W31297  36.071  21.697  14.277
63069W        W31298  43.859  14.127   3.563
63070W        W31299  43.388   9.915   4.107
63071W        W31300  17.733   7.636   1.362
63072W        W31301  37.358  33.411  14.366
63073W        W31302  16.557  17.846  14.629
63074W        W31303  44.582  28.526   2.763
63075W        W31304  40.989  39.349   2.438
63076W        W31305  28.213  42.381   3.354
63077W        W31306  20.999  38.489  13.765
63078W        W31307   4.428  20.803  11.596
63079W        W31308  23.808  29.112   0.846
63080W        W31309  39.083  11.831   2.264
63081W        W31310   8.045  13.772  13.450
63082W        W31311  20.035  11.608  14.006
63083W        W31312  43.325   9.728   2.729
63084W        W31313  22.786  32.818  12.444
63085W        W31314   4.745  17.262   4.738
63086W        W31315  32.522  27.175   1.879
63087W        W31316  25.385  14.308   3.246
63088W        W31317  30.454  36.109   1.790
63089W        W31318  36.420  29.704  12.027
63090W        W31319   4.266   7.139  14.877
63091W        W31320   4.324   5.373  11.110
63092W        W31321  34.524  24.262  14.217
63093W        W31322   3.269  21.753  12.828
63094W        W31323  43.508   8.733  13.810
63095W        W31324  11.774   4.346  13.679
63096W        W31325  35.799  24.563   4.325
63097W        W31326  10.739  38.041   4.592
63098W        W31327  14.956  25.232   3.833
63099W        W31328  23.648   3.483   2.759
63100W        W31329  39.120  12.251  14.333
63101W        W31330  15.517  16.239  10.290
63102W        W31331  32.384   7.352  13.075
63103W        W31332  17.052  31.453  11.529
63104W        W31333  24.950   2.130   3.251
63105W        W31334  25.391  13.039   4.486
63106W        W31335  18.520  38.357  14.131
63107W        W31336  11.092  25.016   0.352
63108W        W31337   7.850  29.083   0.990
63109W        W31338  15.771   4.274   4.356
63110W        W31339  26.396  26.934  11.999
63111W        W31340  18.273  22.736   2.800
63112W        W31341  11.237  43.200  14.547
63113W        W31342   8.984  33.151   2.309
63114W        W31343  36.884  43.910  14.778
63115W        W31344   8.473  25.608   0.394
63116W        W31345  25.145  26.577   0.037
63117W        W31346  22.005  15.726  14.057
63118W        W31347  35.884  33.370  12.131
63119W        W31348  26.028  41.926   4.534
63120W        W31349  32.789  42.242   3.852
63121W        W31350  35.111  40.765   4.309
63122W        W31351  31.385   8.818  12.559
63123W        W31352  21.866   9.129   4.838
63124W        W31353  31.804  39.809  11.133
63125W        W31354   5.408   9.252  14.591
63126W        W31355  32.003  33.822   1.222
63127W        W31356  26.119   1.406   2.903
63128W        W31357   4.993  34.656   0.073
63129W        W31358  34.402  24.679   0.768
63130W        W31359  44.188  29.632   1.306
63131W        W31360  41.893   2.385   4.340
63132W        W31361   3.897   5.925   0.370
63133W        W31362  28.591  35.091  14.554
63134W        W31363  42.485  19.743  14.343
63135W        W31364  41.238  36.954   1.135
63136W        W31365  37.927  12.881  12.923
63137W        W31366  43.850  17.251   0.326
63138W        W31367  25.768   5.394   3.686
63139W        W31368  29.636  11.090   3.701
63140W        W31369   4.352  28.481   2.374
63141W        W31370   5.948  37.029  13.982
63142W        W31371  32.339  29.531   2.246
63143W        W31372   8.160   2.379  11.839
63144W        W31373  43.952   0.697  11.255
63145W        W31374  35.308  17.311  10.600
63146W        W31375   8.702   8.852   4.718
63147W        W31376   3.405  44.191  12.269
63148W        W31377   2.328  12.965  11.126
63149W        W31378   3.898  36.768  12.920
63150W        W31379   5.603  31.117  11.162
63151W        W31380  25.688  25.205   0.548
63152W        W31381  34.126  32.156  11.389
63153W        W31382  39.924  28.532   2.202
63154W        W31383  30.668  35.931  10.754
63155W        W31384  18.284  29.097   4.112
63156W        W31385  13.701  14.184   1.086
63157W        W31386   2.170  24.092   4.712
63158W        W31387  39.378  38.144   1.358
63159W        W31388  18.965   7.842  12.321
63160W        W31389  32.154  21.444   2.179
63161W        W31390  34.345  42.124   0.949
63162W        W31391   3.497  43.988   1.266
63163W        W31392  38.277  43.718   1.066
63164W        W31393  33.344  20.707   2.887
63165W        W31394  11.589   2.185  11.589
63166W        W31395   9.797  16.124  10.910
63167W        W31396  34.299  10.740   4.478
63168W        W31397  44.684  19.015  11.932
63169W        W31398  24.190  42.197  12.439
63170W        W31399  18.301  37.933  13.381
63171W        W31400   8.652  21.348   4.201
63172W        W31401  20.572  27.243  10.364
63173W        W31402  32.955   6.475  11.941
63174W        W31403  32.193  17.810   0.277
63175W        W31404   8.318  12.247  14.263
63176W        W31405  11.554  12.294   0.906
63177W        W31406  28.483  23.637  12.938
63178W        W31407  21.503  26.846   3.687
63179W        W31408  17.043   7.251   4.528
63180W        W31409  42.751   7.952  11.556
63181W        W31410  12.710  20.644  14.805
63182W        W31411  14.087  29.444  13.861
63183W        W31412  20.600   7.620   1.932
63184W        W31413   9.250  43.439  12.469
63185W        W31414  25.629   0.399  12.361
63186W        W31415  16.078  40.310  14.942
63187W        W31416  13.057  43.798   2.662
63188W        W31417  42.810   6.771  13.187
63189W        W31418  42.096  20.723   0.493
63190W        W31419   3.862  33.774  10.682
63191W        W31420  19.137   3.128  13.267
63192W        W31421  34.091  10.336  12.019
63193W        W31422  17.759  32.523   3.709
63194W        W31423  32.490  41.861   3.739
63195W        W31424  21.583  22.501   3.628
63196W        W31425  25.707   6.739   1.271
63197W        W31426  16.815  38.942  14.628
63198W        W31427  35.896  25.486  12.849
63199W        W31428  29.612  21.610  14.712
63200W        W31429  18.278  38.085   2.742
63201W        W31430  21.819  31.708  11.201
63202W        W31431  35.035   1.010  13.931
63203W        W31432  28.442  30.307  13.519
63204W        W31433  30.338   7.391  13.477
63205W        W31434  18.223  15.690  13.454
63206W        W31435  20.968   9.386  12.814
63207W        W31436  11.806  17.852   0.242
63208W        W31437  16.039  44.889  12.459
63209W        W31438  23.214  11.677   1.643
63210W        W31439  38.796  34.230   4.724
63211W        W31440   3.873  38.101   0.716
63212W        W31441  25.352  29.402   1.404
63213W        W31442  14.729  10.582  13.492
63214W        W31443   4.832  25.248  11.018
63215W        W31444  11.620  35.352   0.326
63216W        W31445  11.468  25.207  14.001
63217W        W31446  35.886   9.268  12.446
63218W        W31447   4.956   5.385  12.511
63219W        W31448  20.067  20.016  14.017
63220W        W31449  44.385  26.776  13.552
63221W        W31450   1.417  17.673  11.628
63222W        W31451  38.028  38.512  12.687
63223W        W31452  17.586  24.222   0.740
63224W        W31453  16.360   8.030  14.858
63225W        W31454  24.610  22.499  10.560
63226W        W31455   7.048   1.043  11.222
63227W        W31456  40.024  42.429   4.158
63228W        W31457  31.441   3.627  14.557
63229W        W31458  21.593  29.801   0.778
63230W        W31459  18.749   0.292   2.734
63231W        W31460  10.633   8.321   2.838
63232W        W31461  36.577  20.279   2.660
63233W        W31462  34.253  27.735  14.468
63234W        W31463  35.588  22.512  14.754
63235W        W31464  42.256   4.376  13.056
63236W        W31465   0.181  36.820  11.538
63237W        W31466  13.604  43.898  10.710
63238W        W31467  41.728   8.864   3.716
63239W        W31468  20.079  18.077  13.942
63240W        W31469  31.026   9.661  12.419
63241W        W31470  35.245   6.919  10.544
63242W        W31471  12.669  23.016  13.040
63243W        W31472   4.941   0.950  11.180
63244W        W31473  13.339  27.173  13.510
63245W        W31474   7.658  27.397   4.120
63246W        W31475   2.754  11.420   3.312
63247W        W31476   0.391   7.948  12.140
63248W        W31477  11.934  18.310   2.822
63249W        W31478   8.991  41.281   1.702
63250W        W31479  43.876  30.593   3.848
63251W        W31480  36.322  40.649  13.935
63252W        W31481  24.082  38.067  13.013
63253W        W31482   0.232  10.387   2.829
63254W        W31483  21.385  24.826   3.208
63255W        W31484  17.565  25.028  11.965
63256W        W31485  34.393  29.420  12.589
63257W        W31486   8.707  42.591   4.207
63258W        W31487  11.365  18.837   1.536
63259W        W31488  38.029   9.719   3.854
63260W        W31489  25.207  23.443   3.225
63261W        W31490   4.393  22.833   3.252
63262W        W31491  13.763  29.706   1.316
63263W        W31492  14.016  20.143  12.595
63264W        W31493  22.229   3.030   2.059
63265W        W31494  17.605  28.454  14.922
63266W        W31495  25.548  41.453  12.123
63267W        W31496  34.478  36.748  14.502
63268W        W31497  39.644  24.735   1.806
63269W        W31498   0.680   5.455  12.434
63270W        W31499  10.976  24.655   1.543
63271W        W31500  28.671  42.070   4.889
63272W        W31501  27.493  27.183   1.789
63273W        W31502   9.106  31.412  12.518
63274W        W31503  16.064  13.111   1.391
63275W        W31504  11.614  27.621   4.612
63276W        W31505  20.674  36.369  12.207
63277W        W31506  28.789  36.224   3.135
63278W        W31507  33.625   1.455  13.596
63279W        W31508  27.544   1.497   4.178
63280W        W31509   5.800  12.925  14.529
63281W        W31510  17.840  40.543   0.915
63282W        W31511  31.143  13.286  12.052
63283W        W31512  36.819  42.088   2.673
63284W        W31513  38.903  43.237  11.896
63285W        W31514  42.893  23.566   4.275
63286W        W31515   4.848   6.654  12.455
63287W        W31516  26.080  42.162   1.498
63288W        W31517  15.672  10.349  11.008
63289W        W31518  16.999  32.410   1.951
63290W        W31519  35.080  44.285   3.416
63291W        W31520   7.408  24.767   2.672
63292W        W31521  20.295  18.505  10.680
63293W        W31522   7.753  31.351  10.744
63294W        W31523  38.469   3.737   1.673
63295W        W31524  42.339  31.614   2.663
63296W        W31525   4.966  15.154   3.175
63297W        W31526  32.638  20.815  12.034
63298W        W31527  39.297  27.247   5.052
63299W        W31528  40.299   1.856  11.167
63300W        W31529  11.438  23.958   4.217
63301W        W31530   3.220  17.190  12.028
63302W        W31531   2.661  15.458   4.220
63303W        W31532  38.540  20.671   3.103
63304W        W31533  42.940  27.967   1.476
63305W        W31534  19.538  15.820  12.027
63306W        W31535   5.430  34.864  11.517
63307W        W31536  17.688  35.956   0.818
63308W        W31537   9.718  38.992  12.499
63309W        W31538   8.130  36.373  12.421
63310W        W31539  27.489  27.740   3.407
63311W        W31540  36.690  13.302   0.718
63312W        W31541   2.764  11.809   2.959
63313W        W31542  29.717  26.213   0.366
63314W        W31543  18.302  17.657   1.956
63315W        W31544  21.694  44.799  11.930
63316W        W31545  22.152  22.916   4.309
63317W        W31546  32.403  18.215   0.014
63318W        W31547  44.569  41.630  14.585
63319W        W31548  22.058   3.875  14.875
63320W        W31549   0.184  23.467  11.620
63321W        W31550   0.681  42.984  11.086
63322W        W31551  22.724   5.129   3.586
63323W        W31552  39.187  11.808   2.782
63324W        W31553  29.453  43.048  14.555
63325W        W31554  29.446  38.786   4.530
63326W        W31555  41.784  43.195   3.157
63327W        W31556  29.223  31.168   0.877
63328W        W31557  33.849  24.545   2.870
63329W        W31558  28.623  43.236  14.940
63330W        W31559  22.525  30.381   3.689
63331W        W31560  26.146  28.683   1.899
63332W        W31561  17.779   4.423   4.517
63333W        W31562  13.323  39.835   1.886
63334W        W31563  12.890  19.741   1.931
63335W        W31564  36.022  32.000   4.935
63336W        W31565  17.091  29.365   0.913
63337W        W31566  39.831  21.689  12.370
63338W        W31567  26.496  27.523   3.357
63339W        W31568   5.363  27.645   4.648
63340W        W31569  36.795  31.510   4.019
63341W        W31570  32.974   2.313  11.145
63342W        W31571  18.991  16.621  10.770
63343W        W31572   0.888  38.581  14.860
63344W        W31573  31.615  43.923   0.493
63345W        W31574  13.248  38.954   1.714
63346W        W31575  44.252  39.153  11.999
63347W        W31576  16.140   4.793  12.591
63348W        W31577  38.703  37.869   0.819
63349W        W31578  40.877  16.615  12.932
63350W        W31579  29.248   3.411   3.258
63351W        W31580  14.394  19.241  14.768
63352W        W31581   9.852  20.121  11.541
63353W        W31582   4.633  38.658  14.135
63354W        W31583  25.142  29.851  11.584
63355W        W31584  26.434  28.803  12.113
63356W        W31585  12.238  32.205  14.398
63357W        W31586  41.341  26.547  14.374
63358W        W31587  14.950   9.720   3.195
63359W        W31588  10.142  17.130  12.058
63360W        W31589  18.682  13.985  10.753
63361W        W31590  42.308  10.936  12.960
63362W        W31591   1.217  38.890   1.818
63363W        W31592  22.160  37.655  14.017
63364W        W31593   3.919  10.650   2.521
63365W        W31594  32.626   9.532  14.160
63366W        W31595   9.409  19.104  14.363
63367W        W31596   1.943  12.427   4.129
63368W        W31597  34.496  29.449  10.715
63369W        W31598  35.534  22.271   4.840
63370W        W31599  17.989  31.387  13.779
63371W        W31600  39.263  21.096  13.776
63372W        W31601  42.373  43.820   4.026
63373W        W31602  23.743  33.968  10.548
63374W        W31603  44.933  34.864  11.323
63375W        W31604  39.932  27.173  13.418
63376W        W31605  34.429  17.385  14.526
63377W        W31606   7.265   4.497   4.526
63378W        W31607  17.243  37.596  10.269
63379W        W31608  16.044  13.609   1.179
63380W        W31609  32.255   0.329   0.814
63381W        W31610   8.255  42.819   0.802
63382W        W31611  32.073   6.906   1.827
63383W        W31612  16.312  21.612   9.757
63384W        W31613   6.192   8.823   4.567
63385W        W31614   2.833  17.034  13.844
63386W        W31615  37.127  40.385  13.159
63387W        W31616  39.751  37.054  13.997
63388W        W31617  33.526  22.541   2.633
63389W        W31618  34.589   8.277   0.739
63390W        W31619   7.295  21.590  13.925
63391W        W31620  24.639  34.455  12.663
63392W        W31621  15.312  29.633  12.426
63393W        W31622   8.196  16.376   3.367
63394W        W31623  36.533   2.884   0.506
63395W        W31624  39.094  10.108   2.810
63396W        W31625  30.059  28.157   1.339
63397W        W31626  15.458  13.446  11.255
63398W        W31627  15.793  27.343   4.109
63399W        W31628  34.384  25.980   1.107
63400W        W31629  31.110  23.309   0.286
63401W        W31630   9.639  41.381  11.556
63402W        W31631  37.100  23.652   4.299
63403W        W31632  13.779   1.038  12.567
63404W        W31633  27.284  43.465  13.301
63405W        W31634  14.746  32.035   9.885
63406W        W31635   7.560  28.956  11.233
63407W        W31636  27.786  43.622   3.054
63408W        W31637  42.591   7.843  14.763
63409W        W31638  43.379  21.703   3.607
63410W        W31639  29.612  32.716  11.925
63411W        W31640  42.054  35.054  12.116
63412W        W31641  26.910  17.293  12.550
63413W        W31642  42.412  23.029  11.225
63414W        W31643  20.112  23.993  12.985
63415W        W31644  43.045  19.671   0.338
63416W        W31645   9.806  25.401   2.011
63417W        W31646  38.429  32.645   3.111
63418W        W31647  21.253  28.966   2.147
63419W        W31648  11.129  29.056  11.627
63420W        W31649  11.074  39.321  14.327
63421W        W31650  19.269  32.077  13.972
63422W        W31651  40.097  26.637  13.560
63423W        W31652  39.669   2.894  11.591
63424W        W31653   5.410  33.029  12.061
63425W        W31654  25.938  16.641  14.006
63426W        W31655  25.865   9.912   1.216
63427W        W31656   1.365  17.686   3.478
63428W        W31657  34.548  15.782  11.547
63429W        W31658  25.774  43.256  13.115
63430W        W31659  35.216  18.303   3.736
63431W        W31660  23.145  20.811  10.483
63432W        W31661  43.071  36.338   0.479
63433W        W31662  37.906  42.947   3.432
63434W        W31663   6.025  31.310   4.397
63435W        W31664  31.702  11.634  12.699
63436W        W31665  34.415  14.146   1.578
63437W        W31666  19.187   6.106   2.833
63438W        W31667  33.410  18.001  11.986
63439W        W31668  13.264  39.518  11.238
63440W        W31669  27.111  14.806  10.587
63441W        W31670   2.965   7.600   4.047
63442W        W31671  19.062   9.089   1.197
63443W        W31672  40.356  34.544   1.283
63444W        W31673  19.211  14.555  10.837
63445W        W31674  20.813  19.198  11.034
63446W        W31675  11.083  23.509  10.763
63447W        W31676  16.435  41.625   3.714
63448W        W31677   5.161  16.739  14.991
63449W        W31678  44.320  38.674  14.286
63450W        W31679   3.767  22.235  12.516
63451W        W31680   7.634  15.324  10.626
63452W        W31681  22.997   4.358   0.897
63453W        W31682  28.180  20.741   0.823
63454W        W31683  13.384  32.880  10.695
63455W        W31684  19.350  13.604  13.471
63456W        W31685  15.315   1.194   3.364
63457W        W31686  21.598  23.996  11.494
63458W        W31687  42.301  19.143  10.624
63459W        W31688   7.702   8.360   3.700
63460W        W31689  17.490  25.925   1.123
63461W        W31690  13.364  22.158  10.447
63462W        W31691  11.225   5.262   3.295
63463W        W31692   5.250  27.943  14.773
63464W        W31693  37.643  16.291   0.416
63465W        W31694  37.316  10.740   0.367
63466W        W31695  16.037  34.036   1.473
63467W        W31696  22.703  12.309  13.558
63468W        W31697  13.160   9.395  12.920
63469W        W31698  16.808  28.052   1.446
63470W        W31699  33.624  33.456  10.479
63471W        W31700  17.061   3.943   0.741
63472W        W31701  24.845  12.322   1.728
63473W        W31702  19.832  36.487   0.237
63474W        W31703  23.315  10.549   0.125
63475W        W31704  32.301  15.758  11.652
63476W        W31705  41.239  32.530  10.113
63477W        W31706  11.799  23.290  14.202
63478W        W31707  25.726   2.342  13.799
63479W        W31708  16.702  12.870   1.978
63480W        W31709   3.698   6.362  12.926
63481W        W31710  29.808   7.774   4.311
63482W        W31711  24.119   9.727  10.711
63483W        W31712  29.250   9.099  11.173
63484W        W31713  38.490  28.474   5.353
63485W        W31714   0.722  35.384  13.928
63486W        W31715  38.934  26.003  13.960
63487W        W31716   6.284  40.370  14.323
63488W        W31717  15.055  35.119  11.481
63489W        W31718  30.188  44.957   3.023
63490W        W31719  39.992  34.513   4.313
63491W        W31720  39.831  13.243  10.474
63492W        W31721  22.559  13.844  12.445
63493W        W31722   6.925  41.018   2.207
63494W        W31723  23.038  44.698   2.022
63495W        W31724  33.113  40.933  14.425
63496W        W31725   3.166  25.021   1.377
63497W        W31726   1.221  19.796   0.401
63498W        W31727  36.515  43.664   4.594
63499W        W31728  21.497  23.625   0.495
63500W        W31729  15.519  28.020  10.512
63501W        W31730  43.473  43.218   0.367
63502W        W31731  35.529  21.395  11.107
63503W        W31732  38.311  13.330   0.250
63504W        W31733  15.592  35.538  13.666
63505W        W31734  35.599  32.466   3.621
63506W        W31735  29.177  26.119   3.247
63507W        W31736   4.632   5.283  11.516
63508W        W31737  32.677  13.716   1.704
63509W        W31738  17.753  28.519  10.954
63510W        W31739  32.886  16.902   2.907
63511W        W31740  37.713  43.596   1.766
63512W        W31741  31.216  28.705   2.435
63513W        W31742  23.529  18.071   3.166
63514W        W31743  38.970  12.377   0.776
63515W        W31744  39.578  10.449   2.815
63516W        W31745  10.439  10.238  13.418
63517W        W31746   6.652  12.886   0.176
63518W        W31747  18.726   1.775   1.922
63519W        W31748  11.101  44.425  10.678
63520W        W31749  22.552  44.344   1.267
63521W        W31750   2.941  36.803  11.397
63522W        W31751  24.596  27.192   0.252
63523W        W31752  42.915  33.935  10.733
63524W        W31753  36.078   8.881   1.674
63525W        W31754  36.168  39.839   3.880
63526W        W31755  16.721  27.597   4.192
63527W        W31756  36.898  21.986   1.304
63528W        W31757   0.032  34.059   1.163
63529W        W31758  24.055  12.426   0.819
63530W        W31759   0.914  31.797  13.367
63531W        W31760  26.620  37.844  10.689
63532W        W31761  40.242  28.602   0.256
63533W        W31762  29.929   3.273   2.662
63534W        W31763  24.119  32.924  12.236
63535W        W31764  15.760  28.156  11.395
63536W        W31765   1.495   3.706   4.556
63537W        W31766  32.660  11.221  10.557
63538W        W31767  43.479   0.844  11.164
63539W        W31768  19.352  44.983   0.488
63540W        W31769  29.428  11.085  11.528
63541W        W31770  27.576  18.784  11.174
63542W        W31771  21.919  15.571   1.723
63543W        W31772  10.780  21.499   0.917
63544W        W31773  33.999  17.041   2.207
63545W        W31774  31.234  33.554   0.930
63546W        W31775  30.097   2.735   4.682
63547W        W31776  26.213  18.139   3.177
63548W        W31777  40.257   1.975   3.828
63549W        W31778  37.460  27.195   3.539
63550W        W31779  12.142  16.322   3.741
63551W        W31780  43.763   6.367  11.198
63552W        W31781   0.872  25.296  10.487
63553W        W31782  44.192  17.730  14.628
63554W        W31783   2.104   1.726   1.685
63555W        W31784  22.009  20.972   2.359
63556W        W31785   5.941   4.924   3.062
63557W        W31786  42.922  26.378  13.965
63558W        W31787  42.877  43.191  12.393
63559W        W31788  13.693   8.273  10.694
63560W        W31789  35.415  17.341   3.289
63561W        W31790   6.287   4.326  11.988
63562W        W31791  35.937  29.369   3.308
63563W        W31792  11.614  11.132   0.228
63564W        W31793   9.846  31.086   2.481
63565W        W31794  12.863  29.324   4.256
63566W        W31795  19.676   9.552  11.612
63567W        W31796  24.697  10.409   1.756
63568W        W31797  34.086   0.812  11.409
63569W        W31798  25.150   2.293  14.495
63570W        W31799  44.710  24.568   4.977
63571W        W31800  28.926  29.754   4.227
63572W        W31801   5.703   9.729  11.469
63573W        W31802  40.845  44.476   3.775
63574W        W31803  15.107   0.333  14.952
63575W        W31804   9.166   1.417   2.422
63576W        W31805  25.996  17.865   1.555
63577W        W31806   0.177  24.403  14.356
63578W        W31807  27.623  23.913   2.882
63579W        W31808  16.357  14.070   2.450
63580W        W31809  35.029  10.174  10.712
63581W        W31810  43.909  32.849   1.815
63582W        W31811  29.849  38.253  12.439
63583W        W31812  36.188  40.970   0.153
63584W        W31813  18.781  33.399  13.810
63585W        W31814   0.503  11.625  11.376
63586W        W31815  15.111  35.926   4.157
63587W        W31816   9.431  24.091  13.473
63588W        W31817  17.264  25.499   3.353
63589W        W31818  19.807  40.107  14.741
63590W        W31819  20.147   3.919   3.398
63591W        W31820  29.893  37.501   0.763
63592W        W31821  37.066   0.464  11.735
63593W        W31822  29.718  27.484  12.051
63594W        W31823   3.203   2.551  13.739
63595W        W31824  14.799   1.247   4.166
63596W        W31825   8.732  22.747  12.492
63597W        W31826  43.033  19.591  10.740
63598W        W31827   2.167  28.858  12.866
63599W        W31828   5.162  41.821   1.055
63600W        W31829  32.581   9.485   2.533
63601W        W31830  43.853  25.487   1.865
63602W        W31831  25.086  28.986   3.247
63603W        W31832  25.952   7.686  14.451
63604W        W31833   5.377  14.193  14.624
63605W        W31834  10.175  25.700   1.236
63606W        W31835  36.719  32.522   9.717
63607W        W31836  26.060  31.588   9.760
63608W        W31837  26.370  28.980   4.222
63609W        W31838  38.969  15.349   3.570
63610W        W31839  35.834  28.487  11.959
63611W        W31840  26.959  24.245  10.890
63612W        W31841  26.605  29.759  14.302
63613W        W31842  44.947  15.306  11.870
63614W        W31843  44.962  29.701   0.686
63615W        W31844  40.549  14.264  11.618
63616W        W31845  24.652  42.224   2.811
63617W        W31846  15.291  28.070  12.110
63618W        W31847  16.911  42.985   3.582
63619W        W31848  26.732  10.364  12.482
63620W        W31849  19.999  41.846  12.349
63621W        W31850   8.386  20.481   2.387
63622W        W31851   4.065  11.860  12.012
63623W        W31852   2.129  12.172  14.788
63624W        W31853  34.937  13.679   3.233
63625W        W31854   7.925  10.639   3.585
63626W        W31855  12.105  42.034   2.674
63627W        W31856  39.908  17.072   1.534
63628W        W31857  33.585  19.105  13.436
63629W        W31858  42.397  28.269  11.169
63630W        W31859  17.207  32.076  14.829
63631W        W31860  29.178  30.690   4.136
63632W        W31861  12.726  15.183  14.133
63633W        W31862  34.154   0.848   1.554
63634W        W31863  26.029  28.745  13.855
63635W        W31864  23.423  31.160  13.888
63636W        W31865  26.473  18.260  11.107
63637W        W31866  12.611   6.662  13.187
63638W        W31867   3.759  43.842   4.859
63639W        W31868   5.438  44.180   1.369
63640W        W31869   7.905  26.174  10.978
63641W        W31870   1.115  27.482   2.108
63642W        W31871   4.821  35.426   2.761
63643W        W31872  20.989  10.897  14.306
63644W        W31873   8.265  24.226   1.628
63645W        W31874   1.810   3.556  10.681
63646W        W31875  26.937  25.245  13.413
63647W        W31876  25.199  34.664   0.542
63648W        W31877   9.709   7.329   0.395
63649W        W31878   9.197  34.012   0.915
63650W        W31879  33.481  16.223   4.445
63651W        W31880  18.003   0.462  11.563
63652W        W31881   8.660  27.238   2.648
63653W        W31882  28.397  29.588  12.847
63654W        W31883  13.167  37.093  14.064
63655W        W31884  11.377  20.898  11.500
63656W        W31885  40.375  14.138  14.392
63657W        W31886  24.141   4.522   1.462
63658W        W31887  40.969   1.875  12.843
63659W        W31888  35.987  26.209  11.746
63660W        W31889  16.227  16.676  11.194
63661W        W31890  42.388  16.992  14.718
63662W        W31891   4.911   1.417  10.649
63663W        W31892  12.180  37.296   4.784
63664W        W31893  12.889  21.459  11.910
63665W        W31894  28.112  34.791   4.137
63666W        W31895  22.747  14.798  13.187
63667W        W31896  30.752  18.606  11.115
63668W        W31897   8.861  34.717   1.075
63669W        W31898  27.104  30.165   1.047
63670W        W31899  27.117  44.626   0.258
63671W        W31900   2.736   4.893   4.222
63672W        W31901  22.310  38.865  14.683
63673W        W31902   1.770  43.785   3.153
63674W        W31903  44.734  26.984  14.047
63675W        W31904  35.315  31.947  10.835
63676W        W31905   7.411  26.786   2.663
63677W        W31906  28.027  14.391  12.048
63678W        W31907  38.420  33.629   1.302
63679W        W31908  21.983  40.416   2.588
63680W        W31909   5.399  15.119   3.505
63681W        W31910  26.510   9.917  11.512
63682W        W31911   8.816   3.449  10.968
63683W        W31912   9.465  34.899  13.585
63684W        W31913  21.891  21.102   4.584
63685W        W31914  28.615  22.475  11.479
63686W        W31915  24.763   7.336  12.586
63687W        W31916  41.430  12.658   1.914
63688W        W31917  31.891  27.115   1.204
63689W        W31918  40.839  13.824  11.742
63690W        W31919  16.209  34.934   4.833
63691W        W31920  37.620  15.729  12.419
63692W        W31921  27.707  13.259   3.802
63693W        W31922  42.574   6.450  14.469
63694W        W31923  44.575  38.847   3.207
63695W        W31924  29.399  30.428  13.165
63696W        W31925   7.196  30.442   2.694
63697W        W31926  10.521  24.579   3.448
63698W        W31927  30.062   0.953  10.842
63699W        W31928   5.815   2.290  14.494
63700W        W31929  35.579  10.710  10.832
63701W        W31930   7.816  10.464  11.445
63702W        W31931   6.534  22.769   2.141
63703W        W31932  27.471   9.119  14.773
63704W        W31933  29.436  14.122  12.505
63705W        W31934  42.804  13.878   1.405
63706W        W31935  41.497  43.957  11.196
63707W        W31936  20.638  17.819  10.763
63708W        W31937   5.127   8.912  11.664
63709W        W31938   9.232  17.172  13.908
63710W        W31939   7.847   1.441   1.230
63711W        W31940   4.629  24.206  12.359
63712W        W31941   1.938  44.264  13.438
63713W        W31942  32.904   6.967   0.818
63714W        W31943   4.204  21.570   0.742
63715W        W31944  19.711  44.091   3.196
63716W        W31945  35.001  42.840  12.064
63717W        W31946  20.698  16.912  11.141
63718W        W31947   6.720  26.880  10.206
63719W        W31948  14.516  23.969  10.664
63720W        W31949  33.016  34.724  11.089
63721W        W31950   2.410   6.135  10.825
63722W        W31951  20.542  18.001   1.148
63723W        W31952  24.976  26.352  11.548
63724W        W31953  37.908  35.168   0.724
63725W        W31954  31.596  14.117  11.568
63726W        W31955  34.389  11.613   3.101
63727W        W31956  13.364   8.765   3.125
63728W        W31957  39.419  19.545   2.905
63729W        W31958  30.010  29.007   0.003
63730W        W31959   2.499  22.035   2.491
63731W        W31960  42.821  21.636  10.642
63732W        W31961  36.107  43.474   3.084
63733W        W31962  40.025  43.976   0.330
63734W        W31963  19.575  38.127  12.737
63735W        W31964  18.148   7.877  14.308
63736W        W31965   2.682  15.768   0.476
63737W        W31966  27.733  34.098   9.766
63738W        W31967  13.856  20.149   3.882
63739W        W31968   9.339  31.731   0.876
63740W        W31969  15.116  38.942  14.315
63741W        W31970  37.399  27.823  13.817
63742W        W31971   3.718   8.423  12.596
63743W        W31972  21.200   2.996  11.087
63744W        W31973  12.685   1.637   2.373
63745W        W31974  12.302  26.860   0.902
63746W        W31975   8.292  16.590  11.608
63747W        W31976  36.636  17.354   1.208
63748W        W31977   1.216   5.682  12.039
63749W        W31978  13.329  42.316  13.525
63750W        W31979  38.080  14.505   2.338
63751W        W31980  33.129  40.442   1.395
63752W        W31981  26.270  11.198   4.531
63753W        W31982  34.495  44.978  14.504
63754W        W31983  27.559  11.847  10.743
63755W        W31984  36.516  36.431  14.239
63756W        W31985  42.345   0.022   3.318
63757W        W31986   0.009  32.722   2.895
63758W        W31987  41.303  23.614  11.985
63759W        W31988   2.752   9.031  12.911
63760W        W31989  34.221  22.206  11.833
63761W        W31990   6.100   1.545   1.762
63762W        W31991  14.037  14.341  12.055
63763W        W31992  28.245  33.314  10.011
63764W        W31993  39.991   1.305  10.697
63765W        W31994   8.213  30.253   0.479
63766W        W31995  35.887  15.129  14.637
63767W        W31996   0.663  40.741  12.468
63768W        W31997  10.767   4.874   4.363
63769W        W31998  32.853  27.165   4.141
63770W        W31999  42.330  23.896  14.956
63771W        W32000  28.508   2.091  14.896
63772W        W32001  23.033  34.822  14.581
63773W        W32002  21.254  29.156   1.289
63774W        W32003  20.694  38.415  13.362
63775W        W32004  30.618  34.978   1.312
63776W        W32005   5.820  10.528   1.605
63777W        W32006  26.452   3.400  10.715
63778W        W32007  34.494  21.502  10.720
63779W        W32008   1.989  30.673   2.608
63780W        W32009  29.497  37.343  12.508
63781W        W32010  13.712  11.635   2.677
63782W        W32011  12.209   1.720  11.560
63783W        W32012  31.831  43.053  13.365
63784W        W32013  44.395  25.182  13.496
63785W        W32014  32.936  27.778  10.891
63786W        W32015   7.620  19.223  13.883
63787W        W32016   8.265  30.468   4.713
63788W        W32017   7.351  36.532  14.972
63789W        W32018  24.660  33.164  14.841
63790W        W32019  11.343  43.884  10.701
63791W        W32020  32.977  14.220   2.460
63792W        W32021  43.249   9.677   1.391
63793W        W32022  40.304  10.753  11.561
63794W        W32023  11.252  10.370  12.701
63795W        W32024  18.163  26.970   1.294
63796W        W32025  21.734  34.885  12.595
63797W        W32026  37.018   6.897   1.266
63798W        W32027  31.678  10.298  13.444
63799W        W32028  33.422   7.803   3.752
63800W        W32029  37.474  43.258   2.545
63801W        W32030  17.658   9.810  12.091
63802W        W32031   6.329  20.627  10.510
63803W        W32032  13.521  34.166  12.209
63804W        W32033  42.889  11.612  13.731
63805W        W32034  20.239  39.734  11.520
63806W        W32035  29.521  24.931   2.658
63807W        W32036  20.249  15.330  11.679
63808W        W32037   3.043  37.275  14.566
63809W        W32038  22.190  29.220   4.275
63810W        W32039  18.700   1.952  13.125
63811W        W32040  36.938  26.126   1.414
63812W        W32041  27.612  10.836   3.793
63813W        W32042   0.085  28.405   3.234
63814W        W32043  27.196  39.278  13.929
63815W        W32044  31.951  20.318   4.949
63816W        W32045  29.377  16.031  13.572
63817W        W32046  30.066   0.720  13.813
63818W        W32047  23.999   0.536  14.055
63819W        W32048  16.817  18.253  11.241
63820W        W32049  42.990   8.922  11.581
63821W        W32050  12.141  41.895   1.861
63822W        W32051  28.040  12.920   1.948
63823W        W32052  18.104  17.247   2.242
63824W        W32053   9.369  44.923   0.264
63825W        W32054  33.853  32.031  13.734
63826W        W32055  18.646  25.413   0.662
63827W        W32056  32.636  40.242   4.618
63828W        W32057   1.501  21.089  14.600
63829W        W32058  22.629  38.431   3.862
63830W        W32059  20.784  22.946   2.678
63831W        W32060   3.745  26.685   2.176
63832W        W32061  42.401   0.244  13.122
63833W        W32062  34.367  11.312  10.965
63834W        W32063  37.531  30.727   3.451
63835W        W32064  28.575  34.565   0.471
63836W        W32065  11.562  31.173  11.201
63837W        W32066  35.067  22.757   3.679
63838W        W32067  35.919  27.904  13.318
63839W        W32068  16.054  43.316   4.753
63840W        W32069   9.968  12.941  13.508
63841W        W32070   7.551   0.015   3.451
63842W        W32071  27.602  11.101   0.835
63843W        W32072  21.315  30.198   1.465
63844W        W32073   3.115  22.634  13.430
63845W        W32074  11.242  41.527  10.601
63846W        W32075  24.572  36.290  12.896
63847W        W32076  40.120  17.918  12.184
63848W        W32077  11.698  29.983   1.546
63849W        W32078   5.771  30.253   2.753
63850W        W32079   0.971  27.248   1.660
63851W        W32080  16.799   1.411   4.916
63852W        W32081  31.512  37.924   4.394
63853W        W32082   8.808  39.277  13.765
63854W        W32083  40.462  36.263  10.890
63855W        W32084  23.073   6.610   2.907
63856W        W32085  16.370  11.769   0.741
63857W        W32086   8.785  39.876  12.988
63858W        W32087  28.505  27.460  14.301
63859W        W32088  33.398  39.167   0.441
63860W        W32089  24.474  30.008   3.261
63861W        W32090  18.275  22.581   3.691
63862W        W32091  34.943  32.070   2.684
63863W        W32092   0.440  21.613   1.583
63864W        W32093  17.169  11.612  12.457
63865W        W32094   8.332  30.508  11.078
63866W        W32095   0.272  21.550  10.378
63867W        W32096   1.646  31.548   2.891
63868W        W32097  37.092  13.570   2.189
63869W        W32098   7.764  19.819   3.014
63870W        W32099   0.034  23.530   2.681
63871W        W32100  30.884  22.692   1.816
63872W        W32101   4.611  11.770  11.263
63873W        W32102  39.078  38.236  12.420
63874W        W32103  11.532  29.307  11.400
63875W        W32104  41.368  38.320   0.357
63876W        W32105  10.703   0.820  11.131
63877W        W32106  13.344   4.445  12.015
63878W        W32107  34.981   2.585   4.058
63879W        W32108  38.425  44.177  11.187
63880W        W32109  11.281   6.230   1.142
63881W        W32110  39.019  19.794  12.469
63882W        W32111  28.723  20.662   0.893
63883W        W32112  34.909   2.301  14.347
63884W        W32113  42.167  37.964   2.894
63885W        W32114  37.167   0.350   1.391
63886W        W32115  13.689   5.133   1.555
63887W        W32116  25.745  30.540  13.912
63888W        W32117  23.803   4.148  12.148
63889W        W32118  30.643  11.311  14.449
63890W        W32119  10.705  13.837   1.662
63891W        W32120  43.930  18.085   3.783
63892W        W32121  39.758  29.352  12.128
63893W        W32122   1.511  28.635  14.844
63894W        W32123  42.496  12.322  12.796
63895W        W32124  26.269  25.412   3.336
63896W        W32125  34.463  36.008   1.919
63897W        W32126  29.078  21.684  10.674
63898W        W32127  43.185  27.737   1.910
63899W        W32128  33.847   7.544   3.636
63900W        W32129  37.474   6.348  13.510
63901W        W32130  23.162  15.060  10.996
63902W        W32131  25.011  31.138  13.585
63903W        W32132  31.208   0.049  13.808
63904W        W32133  26.243   3.917   1.904
63905W        W32134  42.701  17.518   3.650
63906W        W32135   3.739  43.050  14.320
63907W        W32136  33.076  22.712  11.605
63908W        W32137  11.849  24.162   2.763
63909W        W32138  33.899  10.738   3.773
63910W        W32139  18.549  12.222  14.015
63911W        W32140  44.974  10.151  12.214
63912W        W32141  42.362  33.472   1.314
63913W        W32142   6.225  40.847  14.588
63914W        W32143   2.438  28.606   2.302
63915W        W32144   4.487  22.502   3.691
63916W        W32145  21.275  10.899   3.204
63917W        W32146   8.197  26.568  11.969
63918W        W32147  37.306  35.166  14.068
63919W        W32148  30.530  43.776  11.158
63920W        W32149   0.961  31.252  11.567
63921W        W32150   4.451   8.778   0.738
63922W        W32151  34.085   3.880   2.919
63923W        W32152  36.955  22.507   2.307
63924W        W32153   3.767  22.753   3.253
63925W        W32154  25.740  44.913   4.349
63926W        W32155   1.340  35.883  14.372
63927W        W32156  13.088  41.320  13.481
63928W        W32157  14.570  35.093  11.625
63929W        W32158   1.478  24.107  14.904
63930W        W32159  14.542  34.962   4.696
63931W        W32160  42.133   1.181   2.258
63932W        W32161   3.279  16.537   0.571
63933W        W32162   1.686   6.192  13.885
63934W        W32163  39.503  41.322   4.152
63935W        W32164   9.865  39.595   2.689
63936W        W32165  39.139   8.226   0.456
63937W        W32166  23.731   2.111  14.922
63938W        W32167  12.636   0.798  11.684
63939W        W32168  21.090  22.497  11.150
63940W        W32169  17.833  17.680   2.211
63941W        W32170  40.141  29.510  13.028
63942W        W32171  21.076  25.957  13.910
63943W        W32172  39.367  21.568  12.563
63944W        W32173  43.805  32.160  12.978
63945W        W32174  13.402  17.151   4.842
63946W        W32175  31.404  22.598  12.321
63947W        W32176   0.333  37.089   1.246
63948W        W32177   7.250  12.084   2.207
63949W        W32178  10.113  30.463   3.851
63950W        W32179  12.118  14.425  12.980
63951W        W32180   6.187  26.714   1.738
63952W        W32181   8.583  24.139  13.883
63953W        W32182  33.073   4.995   3.225
63954W        W32183  22.348  41.143  10.459
63955W        W32184  15.600  33.315   2.186
63956W        W32185  39.117  42.831   4.200
63957W        W32186  19.881   2.857  11.975
63958W        W32187  12.932  40.470  13.672
63959W        W32188  24.020   3.455   4.804
63960W        W32189  30.455  27.624  12.575
63961W        W32190  21.598  27.894  10.633
63962W        W32191  21.757   9.261   1.756
63963W        W32192  19.713   4.449   3.919
63964W        W32193  38.827   1.051   2.750
63965W        W32194  15.095  35.069   2.138
63966W        W32195  26.812   9.920  13.901
63967W        W32196  44.885   2.817  12.796
63968W        W32197  14.128  41.777   0.917
63969W        W32198  20.453  37.765  11.748
63970W        W32199   7.774  26.926  13.418
63971W        W32200  32.943  32.492  14.736
63972W        W32201  29.516  21.735   1.125
63973W        W32202  18.594  34.294   1.929
63974W        W32203  36.444   1.254   0.781
63975W        W32204  26.456  14.239  12.569
63976W        W32205  19.200  20.972   4.094
63977W        W32206  23.078  31.386  10.678
63978W        W32207  40.078   4.213  14.521
63979W        W32208   3.377  33.694   0.035
63980W        W32209  18.625   2.854  14.540
63981W        W32210   4.693  14.701   4.192
63982W        W32211   1.808  40.079  12.578
63983W        W32212   4.408  17.081  14.420
63984W        W32213  38.063  27.699  14.931
63985W        W32214  42.290  20.053   0.814
63986W        W32215   7.847  34.758   4.651
63987W        W32216   6.306  17.374  11.107
63988W        W32217  18.962  23.273   1.498
63989W        W32218  17.818  21.643   4.772
63990W        W32219  24.960  44.369  12.063
63991W        W32220   7.156  13.301   1.710
63992W        W32221  29.978   7.426  11.169
63993W        W32222  13.743   2.524  14.989
63994W        W32223   2.819  31.079  14.837
63995W        W32224   0.594  11.153  11.501
63996W        W32225  24.534  38.572   5.039
63997W        W32226  24.750   9.838  10.742
63998W        W32227  25.589  40.112   0.950
63999W        W32228  42.775   3.759  13.724
64000W        W32229  30.036  44.343   0.722
64001W        W32230  16.786  30.177   0.073
64002W        W32231  34.654  15.748   3.122
64003W        W32232  32.682  18.581  11.539
64004W        W32233  26.484  21.030   0.289
64005W        W32234  23.744  33.504  14.298
64006W        W32235   2.918  14.106   1.423
64007W        W32236   3.326  28.247   2.723
64008W        W32237   9.329  13.745   1.513
64009W        W32238   8.378   1.635  14.524
64010W        W32239  44.999   1.262  13.997
64011W        W32240  41.084  27.633   4.123
64012W        W32241  19.602   8.239  12.389
64013W        W32242  10.827   5.956  11.136
64014W        W32243   9.614  16.362  12.621
64015W        W32244  42.925  43.025  14.839
64016W        W32245  19.439  41.826  14.370
64017W        W32246   9.738  40.618  14.870
64018W        W32247  20.050  19.543  12.093
64019W        W32248  35.273   6.412   2.767
64020W        W32249  43.802  26.233  14.178
64021W        W32250  24.445  23.223  13.599
64022W        W32251   9.682  40.052  12.909
64023W        W32252  16.756  36.885   4.603
64024W        W32253   0.496  33.557   1.862
64025W        W32254  14.645   0.020   4.703
64026W        W32255  27.936   1.795   0.522
64027W        W32256  21.042  42.427  14.011
64028W        W32257   5.955  38.603   0.063
64029W        W32258  30.663  19.065   3.558
64030W        W32259  35.455  40.605   0.825
64031W        W32260  43.407  32.569   2.919
64032W        W32261  43.730  23.740   3.261
64033W        W32262  15.040  43.819  14.009
64034W        W32263  29.690   6.357   2.830
64035W        W32264  23.472   4.118  12.973
64036W        W32265  36.733   2.063  12.935
64037W        W32266   7.423  39.101   2.789
64038W        W32267  24.682  42.907   4.167
64039W        W32268   2.910   1.425   1.189
64040W        W32269  29.963   6.023  13.102
64041W        W32270  21.217   0.980   4.189
64042W        W32271  31.888  19.828   0.476
64043W        W32272  10.851  19.505  13.990
64044W        W32273  40.489  26.706   2.651
64045W        W32274  39.974  19.884  12.032
64046W        W32275   2.475   9.891   1.723
64047W        W32276  20.117  44.942   4.343
64048W        W32277  13.705  25.579  11.246
64049W        W32278   4.891  18.145   4.782
64050W        W32279  27.560  16.086  10.343
64051W        W32280   4.967  30.020  13.427
64052W        W32281   3.349  34.198   2.660
64053W        W32282  33.067  19.102  13.534
64054W        W32283  37.260  16.021  14.499
64055W        W32284  39.014  44.031  10.608
64056W        W32285  23.169  33.424   4.715
64057W        W32286   2.123  37.720  10.261
64058W        W32287  16.533  37.561   1.235
64059W        W32288  17.313  39.500   0.251
64060W        W32289  15.043  13.199   2.217
64061W        W32290  30.596   3.613  11.467
64062W        W32291   6.138  43.153  14.837
64063W        W32292   9.352  37.152  13.454
64064W        W32293  10.947  25.374  13.801
64065W        W32294  40.173   8.444  11.010
64066W        W32295  33.779   8.185  13.816
64067W        W32296  30.156  21.648  13.860
64068W        W32297  29.461   2.009   2.797
64069W        W32298   7.323  36.446   0.481
64070W        W32299  31.386  15.182  10.733
64071W        W32300  27.461  19.563   3.942
64072W        W32301  16.179  37.396   0.375
64073W        W32302  30.630   8.940  14.994
64074W        W32303  29.697  34.373   2.928
64075W        W32304  16.323  13.561   2.219
64076W        W32305  42.994   6.877   3.744
64077W        W32306  21.191   8.006  14.023
64078W        W32307  31.116  22.717  13.951
64079W        W32308  14.156  31.942   1.420
64080W        W32309  20.301  25.734  11.031
64081W        W32310  19.785  30.710   3.919
64082W        W32311   0.254   1.018   2.723
64083W        W32312  43.045  22.008   3.910
64084W        W32313  26.472   8.625  13.763
64085W        W32314   8.495  15.728   4.775
64086W        W32315  41.966   7.960  11.237
64087W        W32316  32.592   5.466   3.821
64088W        W32317  41.781  42.349  12.187
64089W        W32318   7.926  11.064   4.342
64090W        W32319   8.172  37.165   2.952
64091W        W32320  42.379  28.132   2.316
64092W        W32321  32.869  32.949   0.948
64093W        W32322  29.205  11.681  12.563
64094W        W32323  15.669  38.857  13.051
64095W        W32324  23.188   5.039   2.391
64096W        W32325  31.232   4.649  13.114
64097W        W32326  40.337  11.260   3.760
64098W        W32327  34.343   3.966   3.704
64099W        W32328  32.338  25.867   1.571
64100W        W32329  27.389  15.134  11.290
64101W        W32330  42.743  32.022   0.084
64102W        W32331  23.282  23.220   2.352
64103W        W32332  35.021  44.281  11.812
64104W        W32333  10.131  44.778  12.356
64105W        W32334   5.630  24.710   3.843
64106W        W32335  22.302  21.967   2.394
64107W        W32336  13.010  30.246   1.344
64108W        W32337   4.454  30.506  12.473
64109W        W32338  31.061  28.003   2.696
64110W        W32339  37.282  40.849  12.992
64111W        W32340  10.341  24.938  14.842
64112W        W32341  35.980  23.011  14.021
64113W        W32342   3.128   9.294  13.507
64114W        W32343   7.652   2.981  14.429
64115W        W32344   8.473  20.264  14.051
64116W        W32345   7.243   2.528   3.188
64117W        W32346  23.626   7.260   3.678
64118W        W32347  29.469  23.715   1.932
64119W        W32348  38.429   5.983  11.854
64120W        W32349  24.013   3.997  11.514
64121W        W32350  29.398  42.401   1.409
64122W        W32351  39.236  18.656   4.662
64123W        W32352   1.533  24.999  14.902
64124W        W32353  17.550  27.750  10.300
64125W        W32354  39.422   8.789  14.680
64126W        W32355  10.688  33.500   0.295
64127W        W32356  44.963  18.181   0.385
64128W        W32357  22.908   4.762  10.355
64129W        W32358  15.686  10.642  14.744
64130W        W32359  38.954  15.584  14.399
64131W        W32360   6.695  13.258   4.071
64132W        W32361   1.254   3.473   1.320
64133W        W32362   1.796  23.256  14.422
64134W        W32363  19.999   1.686   0.282
64135W        W32364   7.686  18.326  11.601
64136W        W32365  17.194  39.933  13.525
64137W        W32366   3.863  11.139   2.616
64138W        W32367  34.451  29.986   0.865
64139W        W32368  24.126  32.127  10.204
64140W        W32369  28.451   7.591  11.697
64141W        W32370  17.544   6.520   1.774
64142W        W32371  19.199  30.403   0.075
64143W        W32372  40.452  14.674  10.687
64144W        W32373  41.581   3.327  11.416
64145W        W32374  14.690  33.370  11.139
64146W        W32375   0.908  32.325  13.452
64147W        W32376  44.086   5.890   2.735
64148W        W32377   2.550  17.783   4.950
64149W        W32378  14.384  31.362  13.221
64150W        W32379  36.043   7.361   3.377
64151W        W32380  23.343  18.216  14.237
64152W        W32381  33.731  20.024  13.318
64153W        W32382  42.747  38.228  14.012
64154W        W32383  13.164  30.429  12.214
64155W        W32384   8.739  31.972  14.257
64156W        W32385  39.553  41.763   3.868
64157W        W32386  32.540  24.481  11.980
64158W        W32387  41.356  37.397   3.579
64159W        W32388  22.019  18.724  14.277
64160W        W32389   5.449  42.981   4.556
64161W        W32390  24.512  28.968  14.842
64162W        W32391  39.813   1.279   4.477
64163W        W32392  13.329  25.000  12.026
64164W        W32393  44.286  34.922  13.932
64165W        W32394  23.579   5.480  11.981
64166W        W32395  23.308   7.108  10.671
64167W        W32396  42.209   8.484  10.518
64168W        W32397  31.942   8.946   3.667
64169W        W32398   8.216   8.115  10.713
64170W        W32399  30.152   6.393  12.127
64171W        W32400  40.300  39.111   0.888
64172W        W32401  36.384  34.007  12.920
64173W        W32402  31.976  33.139  14.408
64174W        W32403  10.607  35.502  11.460
64175W        W32404  41.091  22.620  12.906
64176W        W32405   5.285   3.356   3.678
64177W        W32406  17.557  31.511   0.464
64178W        W32407  43.327   1.249  13.485
64179W        W32408  38.620   6.284  11.449
64180W        W32409  17.307  11.998  14.563
64181W        W32410  34.001   9.191  13.877
64182W        W32411   7.848   8.451  11.570
64183W        W32412  36.792   0.022  11.552
64184W        W32413  12.775   4.973   3.186
64185W        W32414  14.352  43.482  13.398
64186W        W32415  24.255  18.006   2.694
64187W        W32416  39.977  28.213  13.418
64188W        W32417   0.489  31.630   3.201
64189W        W32418  38.518  13.061  14.362
64190W        W32419  39.109  12.697   1.184
64191W        W32420  42.855  41.975   4.007
64192W        W32421   7.524  13.701   5.085
64193W        W32422   9.398  35.914  12.037
64194W        W32423   3.903  32.514   0.882
64195W        W32424   5.361  27.500  10.774
64196W        W32425  35.968  32.631  13.029
64197W        W32426  12.156  32.642   1.934
64198W        W32427  24.075  35.296  13.751
64199W        W32428  27.583  16.572   3.183
64200W        W32429   4.198  13.710  10.623
64201W        W32430  11.970  28.035  14.864
64202W        W32431  25.545  18.283  13.882
64203W        W32432  30.917  41.380   0.185
64204W        W32433  19.704  30.176  13.336
64205W        W32434  36.420  16.288   1.012
64206W        W32435  42.740  16.331   2.169
64207W        W32436   3.659  14.053  13.786
64208W        W32437  22.997  22.979  11.097
64209W        W32438  33.995  22.941   0.907
64210W        W32439  12.248  40.917  10.931
64211W        W32440  11.890  37.949   1.014
64212W        W32441  29.908  28.081   0.263
64213W        W32442  20.779  20.653   0.965
64214W        W32443  32.581   6.109  12.757
64215W        W32444  17.949  15.637   0.977
64216W        W32445  35.414  28.621   3.282
64217W        W32446   6.953  25.016   4.266
64218W        W32447   3.916  19.677  10.673
64219W        W32448  16.335  27.117   1.245
64220W        W32449  11.205  20.975  13.326
64221W        W32450  42.972  43.767   3.167
64222W        W32451   7.825  13.809   1.463
64223W        W32452  27.066  34.886   4.148
64224W        W32453  37.338   7.288  13.513
64225W        W32454   0.541  18.850  14.849
64226W        W32455  12.633   9.186   4.329
64227W        W32456   4.349   0.481  10.825
64228W        W32457  18.083   6.673  11.540
64229W        W32458  11.299  42.016  13.977
64230W        W32459  40.143  21.285   4.541
64231W        W32460  22.150  31.552   0.887
64232W        W32461  28.253  29.248   3.376
64233W        W32462  37.480  12.439  13.774
64234W        W32463   4.936   9.171  14.396
64235W        W32464  15.758  43.081   0.274
64236W        W32465  24.121   8.335   1.537
64237W        W32466  25.661  44.738  13.464
64238W        W32467   5.925  37.386   2.913
64239W        W32468  16.002   5.943  13.081
64240W        W32469  29.070  15.695  13.894
64241W        W32470  44.702  31.725  12.180
64242W        W32471  44.465  38.778  14.895
64243W        W32472  13.732  15.606   4.742
64244W        W32473  27.994  41.123   1.797
64245W        W32474  14.797  39.539  14.438
64246W        W32475  27.975  10.876  14.035
64247W        W32476   3.794  16.536   0.336
64248W        W32477   8.626  11.891   1.349
64249W        W32478  24.969   3.192  12.377
64250W        W32479   7.799  35.043  11.638
64251W        W32480  14.731  17.113  14.814
64252W        W32481  11.950  39.082  11.242
64253W        W32482  26.585  40.786   3.698
64254W        W32483  41.376  44.047   0.909
64255W        W32484  16.066  22.439  14.471
64256W        W32485   4.371  11.312  11.180
64257W        W32486  24.110   1.315   0.345
64258W        W32487  38.429  42.525  12.067
64259W        W32488  25.268   8.221   3.271
64260W        W32489  30.389  44.519   9.916
64261W        W32490   7.843  24.506   2.845
64262W        W32491  38.309  10.651   3.170
64263W        W32492  30.112   5.688  13.945
64264W        W32493  35.096   4.624   4.563
64265W        W32494  18.683   9.617  12.603
64266W        W32495  10.438  29.027  14.086
64267W        W32496  41.527  43.184   2.708
64268W        W32497  28.167   8.435  11.620
64269W        W32498  30.653  22.184   1.651
64270W        W32499   7.900   9.285   4.776
64271W        W32500  39.136  14.834   0.425
64272W        W32501  22.874  24.290  11.570
64273W        W32502  25.427  31.034  12.654
64274W        W32503  27.110  39.189   1.872
64275W        W32504  31.065  33.098  13.727
64276W        W32505  15.753  37.330  14.280
64277W        W32506   7.202  26.679  12.568
64278W        W32507  29.333  35.455   4.528
64279W        W32508  33.147  32.005   1.415
64280W        W32509  27.180  17.154   4.574
64281W        W32510  41.166  23.503   3.415
64282W        W32511   3.426  34.637  11.905
64283W        W32512  13.673   0.771   2.799
64284W        W32513  36.573  12.180   2.117
64285W        W32514  36.481   6.367   0.223
64286W        W32515  32.549  44.430   1.190
64287W        W32516  29.498  34.548   4.907
64288W        W32517  11.620  32.512  13.819
64289W        W32518  39.011  28.513   5.409
64290W        W32519   1.055  13.650   1.331
64291W        W32520  30.913  42.441  11.551
64292W        W32521  11.273  41.082  11.636
64293W        W32522   6.629   7.887  11.740
64294W        W32523  23.702  38.982   3.007
64295W        W32524  19.599  18.100  10.577
64296W        W32525  20.932   1.599  11.527
64297W        W32526  41.467  34.427   0.746
64298W        W32527   1.709  34.908   4.586
64299W        W32528  23.976  29.947  13.800
64300W        W32529  12.505  13.616   0.062
64301W        W32530  28.546  27.464  13.797
64302W        W32531  17.521  32.055   0.240
64303W        W32532   8.192  19.967  12.133
64304W        W32533  20.270  18.863  14.654
64305W        W32534  36.561  25.249  14.772
64306W        W32535   4.479  24.294   1.410
64307W        W32536  18.021  28.600   4.037
64308W        W32537   4.174   4.718  10.021
64309W        W32538  23.955   3.262  11.699
64310W        W32539  24.620   1.924  13.500
64311W        W32540  28.520  34.974  11.487
64312W        W32541  14.787   3.744  14.354
64313W        W32542   8.247  31.487  10.662
64314W        W32543  23.636  22.696   4.119
64315W        W32544  15.146  16.335   1.017
64316W        W32545  44.410  23.604   9.603
64317W        W32546   8.325  42.830  10.620
64318W        W32547  33.730  27.631  11.090
64319W        W32548  21.207  43.981   3.309
64320W        W32549   8.398   8.857   0.407
64321W        W32550   5.866  19.252  11.855
64322W        W32551   8.812   8.877   2.806
64323W        W32552  24.155  20.449  14.994
64324W        W32553  31.023   8.686  11.632
64325W        W32554  27.198   1.913  11.583
64326W        W32555   9.408  42.269   2.748
64327W        W32556   0.071  15.053  10.590
64328W        W32557   1.315  34.996  11.049
64329W        W32558  19.649   4.318   2.722
64330W        W32559   2.710  23.700  12.267
64331W        W32560  17.580   9.871   1.475
64332W        W32561  29.535  43.253  11.239
64333W        W32562  20.454   7.915  12.563
64334W        W32563  42.779  39.982  14.986
64335W        W32564  42.350  35.129   3.577
64336W        W32565  10.721  38.506   4.365
64337W        W32566  12.813  29.151  12.838
64338W        W32567  42.935  39.375  11.960
64339W        W32568  25.018  41.022  11.504
64340W        W32569  20.063  35.894   0.854
64341W        W32570  20.516  32.878  14.928
64342W        W32571  35.130  29.857  11.072
64343W        W32572  20.949  43.735   2.256
64344W        W32573  34.250  26.562   4.042
64345W        W32574  23.611  36.746  10.670
64346W        W32575   9.501   8.678   3.633
64347W        W32576   2.940  30.649  12.526
64348W        W32577   1.502  38.369   1.212
64349W        W32578  19.681  29.331   4.603
64350W        W32579  25.425  36.795  11.714
64351W        W32580   5.793  38.787  12.158
64352W        W32581  26.765  19.162  14.385
64353W        W32582  34.093  17.875  12.915
64354W        W32583  20.497   8.747   1.815
64355W        W32584  38.445  37.428   3.561
64356W        W32585   4.252  37.397  10.304
64357W        W32586  19.617  13.820   3.211
64358W        W32587  15.523  13.585  10.769
64359W        W32588  26.431  15.581  11.275
64360W        W32589   0.695  27.327   2.344
64361W        W32590  25.655  20.723  14.362
64362W        W32591  36.154  23.408   2.744
64363W        W32592  10.223  40.255   4.150
64364W        W32593  43.532  44.434   1.265
64365W        W32594  31.496  44.210   2.375
64366W        W32595  41.988  38.005   0.371
64367W        W32596  34.055  40.911   0.374
64368W        W32597  38.976  13.205  14.093
64369W        W32598   2.898   7.345  14.562
64370W        W32599   1.885  28.267  14.828
64371W        W32600  38.760  40.525   1.890
64372W        W32601   5.742  12.974  11.660
64373W        W32602  35.990  22.068   4.683
64374W        W32603   5.861  24.465   2.346
64375W        W32604  36.959  20.575   0.856
64376W        W32605  19.275   7.437  13.891
64377W        W32606   5.293   3.484  10.619
64378W        W32607  10.549   3.336  14.444
64379W        W32608  27.389  38.410  11.538
64380W        W32609  44.920  42.623   2.696
64381W        W32610  41.324  36.239   1.883
64382W        W32611  39.921  10.765   4.459
64383W        W32612  24.265  20.522   2.777
64384W        W32613  12.162  21.716  11.508
64385W        W32614   1.488  15.713   3.677
64386W        W32615   1.668  34.002  11.960
64387W        W32616  14.779  30.009  12.029
64388W        W32617  40.456   2.831  12.043
64389W        W32618  37.616  44.932   4.400
64390W        W32619   9.817  24.037   4.211
64391W        W32620   1.950   4.799   0.195
64392W        W32621  24.919  24.646  12.703
64393W        W32622   2.348   0.275   1.895
64394W        W32623  16.441  41.301   2.418
64395W        W32624  31.008   9.797   4.277
64396W        W32625  15.503  32.526   4.666
64397W        W32626  40.046  40.298  13.329
64398W        W32627  19.217  28.633  12.982
64399W        W32628  11.775  13.800  14.769
64400W        W32629   4.964   0.176   3.157
64401W        W32630   4.774  38.560   0.598
64402W        W32631  25.234  31.136  14.470
64403W        W32632   5.489  39.757  14.950
64404W        W32633   4.827  30.546  11.269
64405W        W32634  42.830  26.576  13.470
64406W        W32635  42.360  16.738  10.383
64407W        W32636  22.283   3.433   0.927
64408W        W32637  20.009  21.410  11.895
64409W        W32638   1.393   7.710   1.827
64410W        W32639  23.202  19.671   2.148
64411W        W32640  20.145  20.282  14.977
64412W        W32641  11.604  33.106   1.621
64413W        W32642  37.620  27.034  10.935
64414W        W32643  19.923  33.784  12.935
64415W        W32644  25.087  21.887   0.702
64416W        W32645  20.371  44.099   3.850
64417W        W32646  37.409   8.016  14.897
64418W        W32647  44.917  44.296  10.363
64419W        W32648   3.606   9.678   0.354
64420W        W32649  26.411  35.626  12.836
64421W        W32650  15.282  34.363   2.607
64422W        W32651  19.928   3.914  10.851
64423W        W32652  35.529  29.021  11.119
64424W        W32653  40.478  31.862   0.881
64425W        W32654  14.499  27.966   1.854
64426W        W32655   1.745  22.719  11.636
64427W        W32656  29.401  20.907  11.173
64428W        W32657  23.618  31.967  13.495
64429W        W32658   2.871  44.555  13.455
64430W        W32659  10.123  30.939  13.577
64431W        W32660  22.425   2.721   0.643
64432W        W32661  38.862  28.858   9.805
64433W        W32662  36.965  24.709   4.970
64434W        W32663  40.767  44.418  13.420
64435W        W32664  19.099   2.777  14.734
64436W        W32665   8.572  14.157   1.228
64437W        W32666  10.155   3.719  13.555
64438W        W32667   5.654   5.008   1.627
64439W        W32668  33.993   8.132  12.029
64440W        W32669  11.699  34.186   2.396
64441W        W32670  26.779  20.210  12.118
64442W        W32671   6.891  32.977  10.704
64443W        W32672  27.781  18.087   4.154
64444W        W32673  25.910  42.306   4.102
64445W        W32674  20.590  26.923  10.750
64446W        W32675  28.895  19.037   1.370
64447W        W32676  23.514  18.620  12.447
64448W        W32677   2.218  16.050  14.944
64449W        W32678  37.324   9.665  10.390
64450W        W32679  31.009   8.092  14.991
64451W        W32680  31.659  14.612   1.380
64452W        W32681  17.500  23.212   4.582
64453W        W32682  19.741  15.702  14.378
64454W        W32683  12.842  29.463  10.734
64455W        W32684   9.592  37.990  12.517
64456W        W32685   9.592  34.651  12.656
64457W        W32686  44.539  42.497   4.801
64458W        W32687   7.353  35.833  10.482
64459W        W32688  34.832  28.568   1.158
64460W        W32689  31.456  34.197   2.801
64461W        W32690  34.084  39.414   2.463
64462W        W32691  26.188  17.318   0.334
64463W        W32692  12.097   5.402   0.563
64464W        W32693   3.856  12.194   3.622
64465W        W32694  21.056   6.893  12.429
64466W        W32695   9.420  44.984  13.482
64467W        W32696   2.024  44.120   3.446
64468W        W32697  44.235  21.217  14.255
64469W        W32698  37.988  13.758   3.050
64470W        W32699  42.503  44.951   1.973
64471W        W32700  17.225   6.174   0.398
64472W        W32701   7.757  36.923  13.963
64473W        W32702  18.353  38.063  11.954
64474W        W32703  28.361   7.920  12.950
64475W        W32704  14.326  25.800   5.137
64476W        W32705   0.360  13.391  13.941
64477W        W32706  32.380  16.758   1.624
64478W        W32707  38.597   6.456  11.942
64479W        W32708  30.039  28.308  12.157
64480W        W32709  33.954  22.157   3.726
64481W        W32710   0.778  12.618  10.653
64482W        W32711   0.860  24.679  13.890
64483W        W32712  25.585  14.796   3.233
64484W        W32713  10.770   9.710   9.687
64485W        W32714   4.912   9.646  14.859
64486W        W32715  25.035   5.756   0.413
64487W        W32716  17.132  40.002   0.412
64488W        W32717  14.609  18.457   2.108
64489W        W32718   2.006  26.691  14.280
64490W        W32719   0.276  21.322   2.438
64491W        W32720  36.169   6.844   4.528
64492W        W32721  18.575   1.516  11.954
64493W        W32722  42.403  21.193   2.521
64494W        W32723  16.002  21.357   5.223
64495W        W32724   1.474  42.449  12.102
64496W        W32725  18.715   7.864   2.850
64497W        W32726  13.518   4.341  13.945
64498W        W32727  38.237  20.276  14.119
64499W        W32728  12.800  41.974  14.823
64500W        W32729   5.234   2.755   0.804
64501W        W32730  22.017  27.176  14.127
64502W        W32731   5.279   2.496   1.828
64503W        W32732  15.026   4.554  13.019
64504W        W32733  36.279  30.033  14.188
64505W        W32734  23.205  41.810   4.603
64506W        W32735   2.165  31.932   2.206
64507W        W32736  10.123   3.882   0.318
64508W        W32737  38.261  25.107   4.680
64509W        W32738   2.031  43.210   4.196
64510W        W32739  26.077  34.472   1.815
64511W        W32740  22.254   0.071   1.720
64512W        W32741  24.032  18.146   3.142
64513W        W32742   6.045  41.766   3.243
64514W        W32743  22.577  20.019  14.372
64515W        W32744  32.498  12.576  12.808
64516W        W32745   4.663  32.839   2.545
64517W        W32746  33.704  30.725  12.337
64518W        W32747  32.484   2.533  11.034
64519W        W32748   2.937  14.880  11.983
64520W        W32749   8.852  14.943  14.871
64521W        W32750  35.065  17.707  12.054
64522W        W32751   5.165  40.382   1.260
64523W        W32752  21.225  39.167  10.200
64524W        W32753  29.113  24.696   1.798
64525W        W32754  10.451  14.364   3.720
64526W        W32755  11.377  20.839  14.888
64527W        W32756  41.401  14.175  14.353
64528W        W32757   7.167  39.999  10.566
64529W        W32758  20.324  35.908  14.438
64530W        W32759  14.371  22.931  14.081
64531W        W32760   6.105  10.066   1.486
64532W        W32761  41.415  40.858  12.846
64533W        W32762  33.578   5.702   0.720
64534W        W32763   8.237  34.846   0.824
64535W        W32764  30.480  14.327  14.478
64536W        W32765  38.657   5.613   1.875
64537W        W32766  38.905   8.816   1.807
64538W        W32767  37.338  34.727   2.924
64539W        W32768  19.593  28.785   3.633
64540W        W32769   4.311   5.779   4.754
64541W        W32770   7.128  38.818  14.813
64542W        W32771  19.461   9.670   2.922
64543W        W32772  29.989  15.124   1.743
64544W        W32773  19.514   8.949   3.691
64545W        W32774  21.778   3.213   0.259
64546W        W32775  17.606  10.295   4.391
64547W        W32776  29.069  15.595   3.669
64548W        W32777  14.210  20.110   4.824
64549W        W32778   1.060   3.219  12.859
64550W        W32779  20.529  42.043   0.378
64551W        W32780  28.236  43.030  13.895
64552W        W32781  40.001   2.154   3.407
64553W        W32782  33.050  33.389  13.795
64554W        W32783  35.986   5.833   2.233
64555W        W32784  14.242  10.587  10.321
64556W        W32785  30.318  25.624  11.646
64557W        W32786  36.668  43.257   0.405
64558W        W32787  22.204  44.992   0.332
64559W        W32788  22.934  19.730  12.011
64560W        W32789  30.570   5.050   1.444
64561W        W32790  15.981  22.092   2.701
64562W        W32791  14.010  28.364  14.717
64563W        W32792  24.517  13.888   0.344
64564W        W32793  24.170   6.007  11.479
64565W        W32794  14.675   0.169   0.883
64566W        W32795   1.058   3.757   2.793
64567W        W32796  13.471  10.807  13.918
64568W        W32797   1.696  18.266   3.607
64569W        W32798   4.508  13.548   0.820
64570W        W32799  29.362  35.433   2.295
64571W        W32800  13.511  12.735   3.515
64572W        W32801   2.202  42.657   0.278
64573W        W32802  26.797   4.146   1.522
64574W        W32803   2.517  34.646   2.808
64575W        W32804  28.069  44.950   0.859
64576W        W32805  30.618  33.052  13.476
64577W        W32806  44.960  13.229   0.097
64578W        W32807   3.648   0.898  10.737
64579W        W32808   0.321   9.877   2.242
64580W        W32809  31.191  25.526  14.050
64581W        W32810  15.853  19.561  10.700
64582W        W32811  24.744  34.153   2.127
64583W        W32812  43.575  17.737  11.177
64584W        W32813  39.363  27.296   0.362
64585W        W32814  16.301  13.893  13.611
64586W        W32815   1.724  44.978   3.521
64587W        W32816   5.383  28.137   4.039
64588W        W32817  38.940  17.523   2.205
64589W        W32818  41.577  16.653  13.482
64590W        W32819  27.125  10.157  10.716
64591W        W32820   6.500  37.430   3.305
64592W        W32821  31.348   2.811  13.028
64593W        W32822  26.200  32.551   0.963
64594W        W32823  11.125   1.537  14.805
64595W        W32824  19.286  42.806   3.237
64596W        W32825  30.127   2.288  11.879
64597W        W32826  42.960  32.576   2.627
64598W        W32827  16.516  38.438   0.398
64599W        W32828  40.476  32.531  11.231
64600W        W32829  36.470  11.317   3.681
64601W        W32830   8.611  20.040   1.159
64602W        W32831  35.007  37.062  10.659
64603W        W32832  42.689  24.039   3.690
64604W        W32833  25.649  31.024   0.774
64605W        W32834  38.065  23.949  13.593
64606W        W32835   5.453  19.600   2.292
64607W        W32836   2.818  30.119   2.929
64608W        W32837   3.816  35.858   0.210
64609W        W32838  15.762  24.272  13.842
64610W        W32839  37.730   3.295  12.911
64611W        W32840   0.814  40.051  13.678
64612W        W32841  30.864  15.569  13.131
64613W        W32842  23.003  27.713   4.138
64614W        W32843  43.932  25.093   3.640
64615W        W32844  17.307  40.977  13.528
64616W        W32845  44.848  26.758   4.598
64617W        W32846  11.232  34.638  14.893
64618W        W32847  16.814  39.836  11.010
64619W        W32848  31.744   7.817   4.218
64620W        W32849  27.933  38.206  11.083
64621W        W32850  17.722  13.182  10.463
64622W        W32851   7.068  44.994   3.636
64623W        W32852  34.610  44.051   2.700
64624W        W32853   1.042  10.946   1.821
64625W        W32854  39.046   9.274  11.737
64626W        W32855   2.168  13.393  12.939
64627W        W32856   7.772  22.549   4.157
64628W        W32857  13.576   7.627   4.447
64629W        W32858  19.618  36.541   1.711
64630W        W32859   2.835  13.315  14.724
64631W        W32860  14.953  43.558  14.850
64632W        W32861  16.516   1.816  13.036
64633W        W32862  38.997  32.551   4.983
64634W        W32863  22.112   9.866   0.457
64635W        W32864  37.419  35.755   4.126
64636W        W32865  18.971  30.432   2.867
64637W        W32866  32.499  18.827  10.593
64638W        W32867  14.623  19.001   3.659
64639W        W32868  41.523   7.713   4.183
64640W        W32869   6.267   5.888  14.777
64641W        W32870   7.711  35.439  12.616
64642W        W32871  26.274   6.288   2.316
64643W        W32872  38.483  13.636  12.223
64644W        W32873   8.199  30.949   4.527
64645W        W32874  10.624  36.770  13.091
64646W        W32875  10.348  30.868  12.609
64647W        W32876  36.414  35.091   3.396
64648W        W32877   4.404  33.810  13.999
64649W        W32878  18.562  20.469  12.040
64650W        W32879  36.375   6.813   2.733
64651W        W32880  20.838  20.203   0.600
64652W        W32881  24.654   4.093  12.470
64653W        W32882   5.241  41.815   2.831
64654W        W32883  40.332  30.635   0.344
64655W        W32884  12.375  12.118  11.986
64656W        W32885  39.407  10.072  12.197
64657W        W32886  38.861  41.516  11.180
64658W        W32887   0.024  36.292  12.236
64659W        W32888   6.004  43.443  13.809
64660W        W32889  21.940  14.570   0.711
64661W        W32890  28.192  38.796   2.609
64662W        W32891  24.627  39.361   0.717
64663W        W32892   6.932  29.111   2.887
64664W        W32893  24.080  41.050   1.708
64665W        W32894  35.436  39.538   3.553
64666W        W32895   1.540  23.966  12.131
64667W        W32896   9.025   7.925   0.353
64668W        W32897  10.374  38.046   0.821
64669W        W32898  40.052  35.447   4.726
64670W        W32899  32.674  40.892   1.796
64671W        W32900   9.257  16.990   3.665
64672W        W32901   8.911  17.584   2.510
64673W        W32902  17.322   9.894   4.608
64674W        W32903  34.588  39.438  13.919
64675W        W32904  39.660  36.489  14.835
64676W        W32905  38.123  44.201  14.517
64677W        W32906  34.390  27.097  11.166
64678W        W32907   4.175  35.010  13.992
64679W        W32908  18.666  41.381  13.276
64680W        W32909  30.507  13.373  12.921
64681W        W32910  12.789  18.743   3.327
64682W        W32911  11.289  22.050  14.470
64683W        W32912  24.479  27.742   4.803
64684W        W32913  16.153  23.325  12.035
64685W        W32914  21.765  13.684  11.470
64686W        W32915  29.313   8.783   3.118
64687W        W32916   7.822  40.605  13.630
64688W        W32917   4.317  19.853  13.010
64689W        W32918  23.177  31.113   0.400
64690W        W32919  44.644  16.919   3.270
64691W        W32920   0.322  22.685  12.930
64692W        W32921   0.425  39.559   1.255
64693W        W32922  24.711  41.899   3.223
64694W        W32923  29.520  12.113  10.620
64695W        W32924  29.896   9.273  10.704
64696W        W32925  15.601  23.533  13.548
64697W        W32926   7.959  25.030  12.923
64698W        W32927  13.214  21.641   2.169
64699W        W32928  36.900  28.897   3.335
64700W        W32929  11.082  28.045   3.553
64701W        W32930   6.521  24.523  11.590
64702W        W32931  12.637  17.369  12.386
64703W        W32932  22.705  21.630   3.210
64704W        W32933  18.957   5.270   1.106
64705W        W32934  16.044  21.645   3.954
64706W        W32935  21.785   4.334   3.658
64707W        W32936  27.992  33.433   3.274
64708W        W32937  32.860  22.653  12.573
64709W        W32938  11.269  12.698  13.009
64710W        W32939  25.041   3.169  11.008
64711W        W32940   0.953   1.082   3.442
64712W        W32941  40.349  40.291  11.077
64713W        W32942   7.804  42.915   2.133
64714W        W32943  14.670  13.078   3.558
64715W        W32944  42.055  15.246  11.573
64716W        W32945  41.049   0.878  13.893
64717W        W32946   6.829  35.865   4.254
64718W        W32947  42.811  30.552  11.576
64719W        W32948  15.216   4.499  11.112
64720W        W32949   0.477  29.939  14.057
64721W        W32950  17.414  16.777  14.272
64722W        W32951  31.947  11.082   2.269
64723W        W32952  39.304  26.533   1.319
64724W        W32953   5.682   1.995   0.790
64725W        W32954  27.194  24.605  13.868
64726W        W32955   5.766  36.400   3.714
64727W        W32956  21.730  30.199  10.910
64728W        W32957  16.739  43.750   0.021
64729W        W32958   5.348   7.261  14.503
64730W        W32959  13.819  34.939   2.439
64731W        W32960  33.532  43.982  12.323
64732W        W32961  29.643  18.261  13.387
64733W        W32962  35.354  11.975  14.452
64734W        W32963  13.921  22.253  11.149
64735W        W32964  17.753   0.033  12.883
64736W        W32965  34.035  17.496  11.127
64737W        W32966  22.031  44.304  14.118
64738W        W32967  27.532  37.465   3.862
64739W        W32968  14.509  16.685   1.757
64740W        W32969  40.373  15.440  11.027
64741W        W32970  44.368  25.432   4.512
64742W        W32971   5.408   8.911  13.877
64743W        W32972  11.699  25.081  14.469
64744W        W32973  31.596  12.811   3.616
64745W        W32974   4.608  39.781   3.315
64746W        W32975   6.736  14.104   1.220
64747W        W32976   6.617  18.526  12.664
64748W        W32977  26.177  21.572  12.360
64749W        W32978   5.669   5.167   4.942
64750W        W32979   4.254   3.007   2.149
64751W        W32980  34.428  17.735  13.973
64752W        W32981  27.190  12.034  11.080
64753W        W32982   1.947  30.349   1.725
64754W        W32983  26.371  21.989  12.067
64755W        W32984   5.665  32.912  12.498
64756W        W32985  32.964   9.766  10.562
64757W        W32986  43.946  32.580  10.380
64758W        W32987  43.376  16.630   4.193
64759W        W32988  38.354  11.747  13.306
64760W        W32989  10.927  27.492  14.715
64761W        W32990   4.433  16.991   0.439
64762W        W32991  41.859  31.497   2.397
64763W        W32992  37.386  42.971  13.074
64764W        W32993   0.133  24.408   2.799
64765W        W32994  42.336  36.589   2.959
64766W        W32995  41.990  41.976   4.486
64767W        W32996   9.143  39.444   4.884
64768W        W32997  12.182  27.223   0.414
64769W        W32998  15.960  34.492   2.385
64770W        W32999  20.090  42.026   1.817
64771W        W33000  14.307  33.468  13.132
64772W        W33001  35.180   6.994   3.334
64773W        W33002  40.398  32.272  12.912
64774W        W33003  23.969   5.224  12.922
64775W        W33004  43.042  39.371  13.489
64776W        W33005  44.491  21.100   0.977
64777W        W33006  26.630  31.794  13.722
64778W        W33007  35.332  37.569   2.431
64779W        W33008   6.570  20.872  14.055
64780W        W33009  21.998  34.900  13.714
64781W        W33010  40.030  20.714  12.614
64782W        W33011  15.779  24.146   4.041
64783W        W33012  16.383  20.704  12.553
64784W        W33013   4.694  37.194  14.836
64785W        W33014  19.125  29.910  14.328
64786W        W33015  37.846  14.213  11.214
64787W        W33016  37.115  18.197   3.650
64788W        W33017  19.970  21.119  12.313
64789W        W33018  30.921  41.783   1.957
64790W        W33019  32.541  17.809   1.362
64791W        W33020   4.164  21.517   3.785
64792W        W33021  19.602  22.108   0.189
64793W        W33022   1.496  33.438   4.167
64794W        W33023  38.634   7.600   0.802
64795W        W33024  14.146  12.332  14.848
64796W        W33025  41.264  44.411  11.210
64797W        W33026   1.746  30.886   4.653
64798W        W33027  36.343  32.018   0.467
64799W        W33028  15.138  43.238  11.644
64800W        W33029  10.188  32.020   3.284
64801W        W33030  38.981   0.446  14.842
64802W        W33031  35.289   9.749  10.635
64803W        W33032  20.509  20.591   2.035
64804W        W33033  32.125  15.790   5.610
64805W        W33034  30.988  18.061   3.646
64806W        W33035   2.966  20.065  13.046
64807W        W33036   7.619  13.594   2.826
64808W        W33037  14.951  16.017  11.734
64809W        W33038  20.339  19.653  14.276
64810W        W33039  40.920  42.070  13.066
64811W        W33040   8.271   3.547  14.554
64812W        W33041  23.669  11.422   4.607
64813W        W33042  35.329   9.300  11.525
64814W        W33043   5.076  28.506   3.893
64815W        W33044   4.046  10.429  11.410
64816W        W33045  13.174  44.376  10.049
64817W        W33046   9.991   8.727   2.297
64818W        W33047  28.706  36.591   0.902
64819W        W33048   6.288  18.086   0.314
64820W        W33049  20.250   5.700   3.646
64821W        W33050  32.489  36.878  13.557
64822W        W33051  13.786   2.014   2.429
64823W        W33052  28.291  23.121  12.082
64824W        W33053  16.598  43.769   1.905
64825W        W33054  42.128  34.527  12.817
64826W        W33055  28.600  23.274   1.280
64827W        W33056  32.509  38.998   0.291
64828W        W33057  12.805  18.130  11.026
64829W        W33058   9.395  29.368   1.150
64830W        W33059  32.320   4.340   2.339
64831W        W33060  29.291  24.158  12.979
64832W        W33061  21.201  10.182   9.633
64833W        W33062  39.986  38.230   2.467
64834W        W33063  33.026  19.755  12.293
64835W        W33064  37.052  23.933  10.749
64836W        W33065  32.591  27.160   2.998
64837W        W33066  35.611  40.745   4.137
64838W        W33067   4.817  43.452   4.089
64839W        W33068  37.991  33.400  13.946
64840W        W33069   7.307  15.063  14.386
64841W        W33070  22.200  34.471   3.738
64842W        W33071  24.058  17.600  14.007
64843W        W33072   2.843  31.978   0.366
64844W        W33073  43.944  20.590   3.260
64845W        W33074  16.424  20.199  11.295
64846W        W33075  43.620  12.762   2.558
64847W        W33076   1.317  19.854   2.212
64848W        W33077  38.950  34.440  11.092
64849W        W33078  15.795  38.429   4.659
64850W        W33079   5.111  24.745  11.600
64851W        W33080  10.361   8.846   1.185
64852W        W33081  20.991  10.294   3.697
64853W        W33082  16.658   2.257  13.798
64854W        W33083  14.591  14.316  14.328
64855W        W33084  10.377  26.417  11.984
64856W        W33085   5.445   0.849  11.135
64857W        W33086  25.029  35.022   1.850
64858W        W33087  17.400  43.978   3.340
64859W        W33088   9.934   2.595  14.417
64860W        W33089   0.753  42.032   3.740
64861W        W33090  21.202  14.275   1.367
64862W        W33091  15.046  13.689   2.432
64863W        W33092  39.915  35.127   1.023
64864W        W33093  42.456  10.441  12.904
64865W        W33094  40.271  40.829  14.185
64866W        W33095  11.147   2.962  14.816
64867W        W33096   2.197   0.962   4.206
64868W        W33097  39.378  36.181   0.457
64869W        W33098   6.728  38.507   4.426
64870W        W33099  17.177   4.002  12.093
64871W        W33100  15.966  37.405  11.108
64872W        W33101  35.966  23.610  11.953
64873W        W33102  31.080  25.734  14.525
64874W        W33103   9.673  18.545  10.756
64875W        W33104  38.046  22.745   1.723
64876W        W33105  43.010  10.314  14.459
64877W        W33106   7.118  39.974   1.257
64878W        W33107   1.888  41.267  11.960
64879W        W33108  43.499   1.060   1.718
64880W        W33109  19.222   0.764  11.888
64881W        W33110  41.880  15.218   4.079
64882W        W33111  32.146   0.855   4.636
64883W        W33112  40.400  12.270   3.474
64884W        W33113  38.986  10.817  11.948
64885W        W33114  13.817  44.273   4.087
64886W        W33115   6.289  18.544   1.201
64887W        W33116   9.224  10.545  10.980
64888W        W33117  40.756  32.575  14.311
64889W        W33118  36.986  36.465  14.457
64890W        W33119  44.939  12.173  14.779
64891W        W33120  23.249   3.964  10.715
64892W        W33121  20.967  13.582  13.436
64893W        W33122   2.151  15.232  11.661
64894W        W33123  29.957  37.827  11.386
64895W        W33124  35.417  37.130   2.125
64896W        W33125  25.431  15.582   0.924
64897W        W33126  37.603  15.367  13.888
64898W        W33127  16.219   0.544   3.632
64899W        W33128  32.866  18.786   0.548
64900W        W33129   2.056   2.249  12.449
64901W        W33130  22.602  32.897  14.954
64902W        W33131   8.035  20.090   2.533
64903W        W33132  32.035  18.296   0.404
64904W        W33133  43.749   8.677   2.602
64905W        W33134  17.955  29.007  11.085
64906W        W33135  34.463   9.328   2.853
64907W        W33136  31.119   2.880   4.878
64908W        W33137   1.247  44.663  11.503
64909W        W33138   3.003  42.336  11.522
64910W        W33139  14.264  18.010  11.162
64911W        W33140  18.906  28.739  11.193
64912W        W33141  31.414  41.240   2.924
64913W        W33142  23.266  28.154   1.216
64914W        W33143   4.652  43.196   4.986
64915W        W33144   5.063  15.395  13.143
64916W        W33145  43.766   3.871   0.434
64917W        W33146  37.751  39.579  12.938
64918W        W33147   1.751  26.866  14.681
64919W        W33148  37.880  37.519  11.739
64920W        W33149  15.665  25.285  11.403
64921W        W33150  37.644   9.351  11.833
64922W        W33151  15.533  39.050  10.554
64923W        W33152  39.365   9.353   1.470
64924W        W33153  23.825   0.796  11.513
64925W        W33154  25.209   8.333   2.310
64926W        W33155  25.749  42.836   3.360
64927W        W33156   6.464  21.586  11.922
64928W        W33157  38.576  44.353   3.320
64929W        W33158  39.456   6.451   2.123
64930W        W33159  44.049   2.393  14.233
64931W        W33160   2.777  12.960   3.181
64932W        W33161  35.181  40.798   3.819
64933W        W33162  23.216   5.387   2.788
64934W        W33163   9.685  12.443  13.597
64935W        W33164  42.380  29.602   1.100
64936W        W33165  43.027  13.817   3.065
64937W        W33166  42.392  12.299   0.389
64938W        W33167  24.535  33.151   0.801
64939W        W33168  21.048  30.315   1.895
64940W        W33169  37.073  34.401  10.691
64941W        W33170  35.174  43.282   3.425
64942W        W33171  18.009  24.729   2.196
64943W        W33172  43.740  14.181   9.737
64944W        W33173  40.900   8.894   1.141
64945W        W33174  44.544   7.218   0.707
64946W        W33175   8.864  43.658   0.403
64947W        W33176  11.899  32.863  11.613
64948W        W33177   2.492  10.437  10.125
64949W        W33178  40.252  42.372   4.975
64950W        W33179  37.093  23.405   2.664
64951W        W33180   5.521   5.737  11.630
64952W        W33181  16.293  38.553  10.500
64953W        W33182  22.238  11.098  14.529
64954W        W33183  21.511   5.076  14.725
64955W        W33184  11.312  17.920  13.970
64956W        W33185  33.391  31.098   3.682
64957W        W33186  37.202  16.239  11.173
64958W        W33187  27.188   0.021  12.642
64959W        W33188  28.431  21.239   4.169
64960W        W33189  17.039  44.023   3.727
64961W        W33190  14.767  39.286   1.908
64962W        W33191  34.941  14.154  11.950
64963W        W33192  12.169  40.517   2.878
64964W        W33193  23.034  24.666   0.977
64965W        W33194  21.632  28.608   3.208
64966W        W33195  26.675  17.055  14.352
64967W        W33196   4.770  32.892  10.747
64968W        W33197  33.347  27.319   4.098
64969W        W33198  17.374  37.883   2.064
64970W        W33199  26.837   5.167   4.638
64971W        W33200  11.834  35.438   4.849
64972W        W33201  27.158  23.925   2.655
64973W        W33202  17.504  14.808   2.029
64974W        W33203  35.640  28.454   2.851
64975W        W33204   7.843  10.865  13.013
64976W        W33205   0.923   8.135  10.681
64977W        W33206  13.432  28.223   2.742
64978W        W33207   1.727  25.104  12.012
64979W        W33208  19.164  35.626  12.008
64980W        W33209  24.823  14.442  11.569
64981W        W33210  23.774  32.325  13.879
64982W        W33211  34.715  36.329   2.246
64983W        W33212  12.816  13.119   0.929
64984W        W33213  28.316  35.926   2.704
64985W        W33214   0.587  32.097   2.999
64986W        W33215   9.298   8.717  13.466
64987W        W33216  32.857  37.539  13.316
64988W        W33217  17.551  39.283  13.967
64989W        W33218  35.620  44.243  14.819
64990W        W33219  34.966  33.249   4.691
64991W        W33220  39.885  20.952  11.092
64992W        W33221  12.563  22.623  11.411
64993W        W33222  44.051   2.484   0.849
64994W        W33223  15.175  14.263  13.461
64995W        W33224   5.724  26.451  14.305
64996W        W33225  32.953   0.942   0.890
64997W        W33226  32.197  27.175  14.930
64998W        W33227   4.368  41.462  14.968
64999W        W33228  44.245  40.410   1.346
65000W        W33229   2.679  29.489  12.451
65001W        W33230  22.009   1.889   0.187
65002W        W33231  19.077  18.056   3.723
65003W        W33232  43.236  25.598   3.299
65004W        W33233  30.229  15.691   4.163
65005W        W33234  36.840   3.725  14.764
65006W        W33235  11.293  11.743  11.539
65007W        W33236  13.795  37.640  10.625
65008W        W33237  38.790  14.379  11.740
65009W        W33238   4.358  10.384   0.464
65010W        W33239  12.313  26.327  12.020
65011W        W33240  32.150  26.460   2.290
65012W        W33241  31.202  38.925   2.649
65013W        W33242  16.493  18.026   3.150
65014W        W33243  34.488  32.033  12.048
65015W        W33244  21.624  21.541   4.656
65016W        W33245  20.643  13.535  13.872
65017W        W33246   8.817  26.103   3.870
65018W        W33247  39.588  11.851   2.424
65019W        W33248   8.268  27.077   4.889
65020W        W33249   0.400  32.373  12.932
65021W        W33250  28.428  39.275   2.685
65022W        W33251  18.163  21.242  10.493
65023W        W33252  27.432  27.034   1.284
65024W        W33253  28.049  36.173   4.597
65025W        W33254  28.153  40.103  11.548
65026W        W33255  36.933   7.803   3.095
65027W        W33256  39.958   2.269  14.682
65028W        W33257  31.556  17.758   3.768
65029W        W33258  14.049   3.992   2.919
65030W        W33259  25.509  42.369  12.078
65031W        W33260  23.916   6.221   2.876
65032W        W33261  32.499  10.931   1.674
65033W        W33262   7.780  12.721   0.534
65034W        W33263  35.257  24.891   0.986
65035W        W33264   3.352  25.060  13.512
65036W        W33265  11.054  22.073  14.011
65037W        W33266   3.815   2.314   1.697
65038W        W33267  42.428  26.229   4.149
65039W        W33268   1.813  37.624  12.060
65040W        W33269  41.556  34.393  12.477
65041W        W33270  16.779   6.762  12.935
65042W        W33271  12.574   2.970  14.917
65043W        W33272  10.845  17.019   0.559
65044W        W33273  38.865  30.977  13.333
65045W        W33274  44.476  18.692   4.806
65046W        W33275   1.011  28.460   3.704
65047W        W33276  40.513  20.547   4.190
65048W        W33277  18.121   5.612   4.081
65049W        W33278  21.562  32.948   2.289
65050W        W33279  35.981  36.819  13.429
65051W        W33280  18.688  38.606  11.896
65052W        W33281  24.203  30.204   3.669
65053W        W33282  41.837  20.732  13.984
65054W        W33283  10.269   7.923  13.081
65055W        W33284  40.866  15.840  14.930
65056W        W33285  21.141   0.451   4.168
65057W        W33286  23.596   9.676  12.490
65058W        W33287  40.970  44.522  10.822
65059W        W33288  37.638  19.511   0.111
65060W        W33289   0.187  33.552  14.786
65061W        W33290  10.378  40.613   3.378
65062W        W33291   3.489  32.223   0.855
65063W        W33292  29.083  32.049   4.483
65064W        W33293  12.625  19.462   2.926
65065W        W33294   5.061  43.496   0.754
65066W        W33295  28.980  18.794  12.494
65067W        W33296  23.283  35.687  12.933
65068W        W33297  42.307  14.108  13.750
65069W        W33298  26.234   2.049   0.782
65070W        W33299   8.564  20.753  11.919
65071W        W33300  35.001  24.569  11.898
65072W        W33301  33.391  38.630  14.023
65073W        W33302   7.365  28.194   0.771
65074W        W33303  23.938  25.206   0.995
65075W        W33304  44.428  41.430   4.277
65076W        W33305   6.750  16.488   4.710
65077W        W33306   7.869  13.781   3.318
65078W        W33307  30.671  44.803   2.275
65079W        W33308  19.302  15.644  14.836
65080W        W33309  16.694   3.388  14.210
65081W        W33310  16.756  21.499   2.576
65082W        W33311  39.427  43.668   4.252
65083W        W33312   5.745  16.347   1.361
65084W        W33313  39.881  38.470   3.763
65085W        W33314  26.988  44.077  11.090
65086W        W33315  14.470  23.269   1.951
65087W        W33316   7.652   1.239   3.772
65088W        W33317  41.545   9.992   0.932
65089W        W33318   7.703  32.929   0.901
65090W        W33319  22.023   4.717   2.931
65091W        W33320  20.498  21.957   1.772
65092W        W33321  34.885   7.127   2.462
65093W        W33322  20.039  40.998  10.625
65094W        W33323  15.498   5.893   0.835
65095W        W33324  32.553  28.450  13.131
65096W        W33325  33.861  17.033   0.362
65097W        W33326  16.650  11.250   4.423
65098W        W33327  43.810  44.988  10.691
65099W        W33328  39.056  28.493  14.445
65100W        W33329  29.514  44.403  14.810
65101W        W33330  29.426  13.668  13.310
65102W        W33331  13.386  18.791  14.727
65103W        W33332  20.557   9.621   4.838
65104W        W33333   4.273   5.232   1.285
65105W        W33334  29.538   6.236  13.445
65106W        W33335   3.724   3.897   1.401
65107W        W33336  44.772  30.099   1.493
65108W        W33337  18.257   7.735   4.097
65109W        W33338  40.077   5.309  10.916
65110W        W33339  43.926   9.678   2.384
65111W        W33340  20.060  26.917  14.866
65112W        W33341  24.976  20.011  13.824
65113W        W33342  37.629   5.428   4.176
65114W        W33343  13.616  32.453   4.936
65115W        W33344  35.506  27.947   4.574
65116W        W33345  26.461  42.689  12.288
65117W        W33346  23.493   7.724   3.492
65118W        W33347  37.095  10.808   4.111
65119W        W33348  19.191  34.393  12.488
65120W        W33349   4.501  11.939  14.400
65121W        W33350  14.179   2.435  11.947
65122W        W33351   0.006  41.051   0.319
65123W        W33352  29.520  30.655  10.350
65124W        W33353  43.762   3.760   2.185
65125W        W33354  32.604  39.954  12.344
65126W        W33355  11.631  36.238  11.268
65127W        W33356   3.962  35.580  13.420
65128W        W33357  24.364  14.550   0.988
65129W        W33358  31.096  34.367   4.178
65130W        W33359  21.545   9.769  10.464
65131W        W33360  36.228  26.277  13.136
65132W        W33361   0.503  26.587  14.936
65133W        W33362  43.924   0.771  12.069
65134W        W33363   2.836   5.170   2.791
65135W        W33364  37.430  28.265  11.149
65136W        W33365  29.080  16.520   1.325
65137W        W33366  22.220  10.478   4.836
65138W        W33367   4.989  39.923  14.983
65139W        W33368  24.355  38.367   4.567
65140W        W33369  26.983  35.246   4.664
65141W        W33370  35.194  26.801   1.397
65142W        W33371   2.972  18.940   3.814
65143W        W33372   7.432  30.435  13.605
65144W        W33373  23.130   5.765  10.687
65145W        W33374  24.710   4.386  13.770
65146W        W33375  41.359   0.474   4.333
65147W        W33376  15.734  16.642  12.569
65148W        W33377  33.730  10.621  11.105
65149W        W33378  33.586  43.508  13.093
65150W        W33379  13.384  33.080  12.984
65151W        W33380  19.054  40.121   0.389
65152W        W33381  40.986  28.765  12.437
65153W        W33382  19.477  44.919  11.663
65154W        W33383   9.139  19.549  14.411
65155W        W33384  11.237   2.986  11.343
65156W        W33385  16.550  20.838  12.070
65157W        W33386  29.154  43.300   2.968
65158W        W33387  23.954  20.034  11.211
65159W        W33388  38.941  41.387  11.671
65160W        W33389  36.665  37.401   1.959
65161W        W33390   9.280  16.036   0.412
65162W        W33391   3.998  11.417   1.354
65163W        W33392  11.297  17.515  11.027
65164W        W33393   4.404  36.124   3.125
65165W        W33394  44.323  12.034   4.950
65166W        W33395  31.529  37.090  13.156
65167W        W33396  30.413   5.793   2.190
65168W        W33397  24.119  36.592   1.317
65169W        W33398   2.369   0.851   5.282
65170W        W33399  23.233  16.249  13.917
65171W        W33400   0.889  25.877   3.922
65172W        W33401  18.548  13.204  11.699
65173W        W33402  16.692  27.185   3.866
65174W        W33403  33.953  13.877   3.851
65175W        W33404  31.874  19.214   4.216
65176W        W33405  12.093  28.957  11.576
65177W        W33406  19.193   5.292   2.153
65178W        W33407  11.707  28.566  10.675
65179W        W33408  26.515  24.945   0.969
65180W        W33409  30.464   2.513  14.943
65181W        W33410  19.340  18.772  12.045
65182W        W33411  21.544  38.360   1.781
65183W        W33412  22.709  28.897   2.728
65184W        W33413  12.620  23.753   4.091
65185W        W33414  32.323  21.162  10.675
65186W        W33415  20.415  36.075  14.942
65187W        W33416   5.621   7.143  14.971
65188W        W33417  28.101  35.997  14.769
65189W        W33418  31.896   4.333   3.894
65190W        W33419  33.165  41.306   2.773
65191W        W33420  20.254   6.469  11.128
65192W        W33421  20.002  36.577  11.046
65193W        W33422  31.621  38.368  10.702
65194W        W33423  19.816  31.020  12.880
65195W        W33424  44.687  31.213   2.833
65196W        W33425  31.499  15.029   4.119
65197W        W33426   0.387  28.357   1.479
65198W        W33427  40.097  23.752  14.203
65199W        W33428  12.217  16.914   2.804
65200W        W33429  42.280  13.130  13.851
65201W        W33430  41.401  24.546  11.872
65202W        W33431  31.520  28.058  13.454
65203W        W33432   7.991   7.278   4.165
65204W        W33433   7.903  25.404  10.982
65205W        W33434  37.612  40.055   3.621
65206W        W33435  20.533   5.797  11.999
65207W        W33436  29.017  16.926  14.575
65208W        W33437   7.051  39.371  12.543
65209W        W33438  40.455   9.970  10.689
65210W        W33439  11.623  39.779  12.125
65211W        W33440  44.570   5.229  11.426
65212W        W33441  21.322  30.721   1.407
65213W        W33442  40.413  15.709  14.390
65214W        W33443  21.415  29.461  13.497
65215W        W33444  29.003  29.872   4.735
65216W        W33445  33.507  10.393   1.692
65217W        W33446  11.150   4.109   0.856
65218W        W33447  12.681  31.687   4.702
65219W        W33448  36.047  11.024   4.604
65220W        W33449  36.497  29.967   9.920
65221W        W33450  15.368  14.273  13.951
65222W        W33451  43.967   7.164   3.069
65223W        W33452   9.383  19.137  13.004
65224W        W33453   6.223  12.881   2.332
65225W        W33454   3.201  43.125  12.201
65226W        W33455  30.995  25.212  12.198
65227W        W33456  11.148  21.274   2.740
65228W        W33457  31.145  30.616  12.595
65229W        W33458  30.040  35.358  12.405
65230W        W33459  13.272   1.162  14.309
65231W        W33460  42.732   6.197  11.119
65232W        W33461   6.289  26.450  14.939
65233W        W33462  30.858   5.638  12.959
65234W        W33463   4.889  12.621  10.869
65235W        W33464  19.917  16.695   3.228
65236W        W33465  14.817  24.255  14.011
65237W        W33466  26.517  10.633   2.019
65238W        W33467   3.228  17.991  14.508
65239W        W33468  24.223  40.355  13.429
65240W        W33469  36.027  20.477   0.954
65241W        W33470  36.608   3.862   3.305
65242W        W33471  19.544   3.443   3.826
65243W        W33472  44.903  28.736   4.593
65244W        W33473  16.074  17.715   1.274
65245W        W33474  41.269   0.476   1.728
65246W        W33475  42.171  11.525   1.481
65247W        W33476   8.624  23.634  14.539
65248W        W33477  10.773  40.751   0.016
65249W        W33478  33.479  32.760   1.329
65250W        W33479  22.756  23.187   0.364
65251W        W33480  41.217  39.074  11.086
65252W        W33481   6.243  33.158   4.282
65253W        W33482  38.695  10.200   0.395
65254W        W33483  36.885   9.946   3.674
65255W        W33484  26.895   6.443  13.976
65256W        W33485  17.770  16.401   2.643
65257W        W33486   8.648   4.887  11.422
65258W        W33487  40.981  23.246   1.573
65259W        W33488  14.610  25.037   0.255
65260W        W33489  15.607  33.243   4.661
65261W        W33490  42.904  44.452  14.788
65262W        W33491  34.817  37.542   2.349
65263W        W33492  17.022  29.544   0.430
65264W        W33493  38.347  36.251   3.642
65265W        W33494  22.966  26.691  14.863
65266W        W33495   5.186  17.543   2.339
65267W        W33496   9.319  11.182   2.714
65268W        W33497   6.447  20.227   0.949
65269W        W33498  21.388  10.814   4.534
65270W        W33499  27.559  13.786   2.201
65271W        W33500  44.403  15.767  13.223
65272W        W33501  40.612  22.403   4.047
65273W        W33502  44.741  37.456   1.947
65274W        W33503  15.112  17.937  14.737
65275W        W33504  11.742  10.606  11.709
65276W        W33505   6.888  15.753  10.895
65277W        W33506  16.863  41.997  12.292
65278W        W33507  43.437   9.660  12.707
65279W        W33508  22.330  19.153  11.412
65280W        W33509  26.258  28.061   2.743
65281W        W33510  13.621  18.832   5.094
65282W        W33511   7.783  35.972  13.964
65283W        W33512  20.161   7.385   1.660
65284W        W33513   8.223  19.906  14.378
65285W        W33514  39.954  37.843   0.728
65286W        W33515  32.445  30.570  12.991
65287W        W33516  23.775   3.704   3.253
65288W        W33517  19.204  31.333   4.279
65289W        W33518  11.461  32.935   0.381
65290W        W33519  27.806   7.238   5.019
65291W        W33520  12.679  13.538   4.041
65292W        W33521  13.914  38.703   2.232
65293W        W33522   0.433  12.352  14.846
65294W        W33523  38.593  29.642  11.538
65295W        W33524   6.474  10.196   2.782
65296W        W33525   6.415  21.845  10.592
65297W        W33526  30.210  41.955  14.857
65298W        W33527  30.025   1.392  14.398
65299W        W33528  33.071  13.778   2.766
65300W        W33529  16.030  42.352  13.426
65301W        W33530  20.734  35.563  14.438
65302W        W33531  44.297   8.833   4.579
65303W        W33532   3.265  10.267  13.805
65304W        W33533  27.548  11.536   2.772
65305W        W33534   8.118  18.192   1.637
65306W        W33535  22.624  30.095  10.087
65307W        W33536  26.458  21.559   1.485
65308W        W33537  38.352  28.524  12.175
65309W        W33538  27.635  33.414  13.803
65310W        W33539   8.092   1.181   0.811
65311W        W33540  39.064  21.144   1.228
65312W        W33541   9.643  19.083  11.593
65313W        W33542  23.168   1.933  13.174
65314W        W33543  14.296  37.391   2.389
65315W        W33544  14.708  24.126  11.677
65316W        W33545  43.430  10.748  10.994
65317W        W33546  20.703  10.321  10.143
65318W        W33547   4.367  19.011  10.645
65319W        W33548  24.135  24.712   4.171
65320W        W33549  32.750   2.676   0.751
65321W        W33550  42.434  42.406  14.564
65322W        W33551  14.169  16.568  10.204
65323W        W33552   3.175  39.034   1.773
65324W        W33553  32.888  26.020  12.968
65325W        W33554  35.446   8.399  12.592
65326W        W33555  20.507  44.345   0.785
65327W        W33556  11.856  36.543   1.628
65328W        W33557  12.722   1.612  11.645
65329W        W33558  33.478  12.001  12.519
65330W        W33559  20.151  18.940  10.465
65331W        W33560  43.704  25.588   3.547
65332W        W33561  33.338  38.086  14.744
65333W        W33562  24.336  43.358  10.795
65334W        W33563  38.059  27.725   3.692
65335W        W33564  12.701   0.399  13.390
65336W        W33565   7.396  23.075   2.838
65337W        W33566   2.440   5.477  12.903
65338W        W33567  19.677  31.030   4.358
65339W        W33568  38.334  41.343   3.223
65340W        W33569  18.453   8.288   1.225
65341W        W33570  19.705  37.803  12.343
65342W        W33571  38.126  28.192  14.755
65343W        W33572  20.808  24.260  14.353
65344W        W33573  41.724  11.363  14.408
65345W        W33574  36.136   5.425   4.180
65346W        W33575   6.874  10.754   0.994
65347W        W33576   6.481  44.334   3.133
65348W        W33577  14.618  44.868   1.345
65349W        W33578  27.499  33.537  12.896
65350W        W33579  24.222  17.303   5.003
65351W        W33580  35.599   8.905  13.340
65352W        W33581  33.723   1.627  10.297
65353W        W33582   7.784  15.624   2.394
65354W        W33583  28.734   3.459  12.026
65355W        W33584   3.740  11.855  14.766
65356W        W33585  37.860  44.542   1.439
65357W        W33586  35.642  33.077   3.255
65358W        W33587  41.983  36.726   2.418
65359W        W33588  39.294   7.948  14.084
65360W        W33589  42.419   1.215  13.486
65361W        W33590  32.531  23.510  14.213
65362W        W33591  40.751  15.266  14.443
65363W        W33592  36.594  34.445   1.331
65364W        W33593  11.337   0.295   1.753
65365W        W33594  21.937  17.705   0.732
65366W        W33595   2.000  14.318   3.695
65367W        W33596  32.845  21.063   0.074
65368W        W33597  23.271  40.533   0.513
65369W        W33598  37.412  30.977  13.840
65370W        W33599  35.560  26.583  11.414
65371W        W33600   9.237   9.683   1.179
65372W        W33601   8.836   5.799   0.020
65373W        W33602  11.379  30.276   1.847
65374W        W33603  19.241  19.510  11.555
65375W        W33604  40.422  17.396  10.717
65376W        W33605   2.234  34.824  12.377
65377W        W33606  15.533  15.444   4.125
65378W        W33607   1.862  41.404   4.169
65379W        W33608  16.519  37.029  14.502
65380W        W33609  40.932  21.743  13.962
65381W        W33610  33.806  38.841   0.377
65382W        W33611  38.808  20.010   0.731
65383W        W33612   7.969  18.112   3.148
65384W        W33613   5.500   3.260   3.206
65385W        W33614  32.131  13.716  10.688
65386W        W33615  22.518   3.828   1.145
65387W        W33616   4.673  13.529   3.583
65388W        W33617  33.468  29.463  14.031
65389W        W33618  40.327  37.097  13.998
65390W        W33619  21.606   4.784  10.139
65391W        W33620  17.133   4.284   4.215
65392W        W33621   0.019   2.032   2.785
65393W        W33622  37.618  34.607   4.781
65394W        W33623  11.201  14.609   0.818
65395W        W33624  24.211   5.888   1.781
65396W        W33625  11.211  34.045   1.221
65397W        W33626  21.659  34.578   1.809
65398W        W33627   0.555   8.248  12.850
65399W        W33628   6.341   7.634   2.197
65400W        W33629  13.054  36.706  12.608
65401W        W33630  27.592  28.595   0.272
65402W        W33631  12.245  44.246  11.447
65403W        W33632  21.977  19.808   1.998
65404W        W33633  39.426  30.019  11.379
65405W        W33634  20.096  13.146  14.366
65406W        W33635  10.403   3.901   4.131
65407W        W33636  18.547   5.168   1.480
65408W        W33637  17.305  39.067  14.401
65409W        W33638  25.646  24.014  12.018
65410W        W33639   3.643  18.497  13.797
65411W        W33640  21.029  24.503   0.370
65412W        W33641  29.606  38.535   2.081
65413W        W33642  25.701  43.408  10.737
65414W        W33643  36.902  34.319   3.155
65415W        W33644  14.965  36.096   0.358
65416W        W33645  26.281  14.675  11.740
65417W        W33646  22.675  27.216   2.235
65418W        W33647  20.272  17.092  10.774
65419W        W33648   5.485  30.813   2.380
65420W        W33649   0.487  42.962  11.923
65421W        W33650  13.186  29.637  13.363
65422W        W33651   5.114  31.008  14.755
65423W        W33652  14.822  10.721  10.647
65424W        W33653   4.246  38.940   3.894
65425W        W33654  13.739  34.151   0.396
65426W        W33655   8.156  32.985  14.392
65427W        W33656   0.261  32.185   4.578
65428W        W33657  15.792   2.332   4.710
65429W        W33658  42.336  18.239  10.658
65430W        W33659  44.525  12.797   0.330
65431W        W33660  12.967   9.313   5.177
65432W        W33661   0.999  27.685  13.071
65433W        W33662  10.083  38.350  14.008
65434W        W33663  34.055  38.896   3.352
65435W        W33664  11.402  13.385   3.198
65436W        W33665   5.684  39.005   0.708
65437W        W33666  29.906  21.406   4.718
65438W        W33667  18.273  43.838  12.655
65439W        W33668  26.128  28.213  13.831
65440W        W33669  17.003  40.862  10.624
65441W        W33670  38.093  33.565   4.762
65442W        W33671  43.865   1.948   0.055
65443W        W33672   7.834  27.973  10.254
65444W        W33673  26.461   7.233   1.354
65445W        W33674  26.141  11.632   0.099
65446W        W33675  15.780  37.489  10.364
65447W        W33676  44.785  28.347   1.434
65448W        W33677  23.748  30.347  10.231
65449W        W33678  39.614   0.217   1.230
65450W        W33679   8.754  31.154  11.593
65451W        W33680  30.167  42.813   2.330
65452W        W33681  39.920  39.693  11.609
65453W        W33682  34.077   1.950   4.049
65454W        W33683  21.192  25.256  11.137
65455W        W33684   6.425  14.694  13.895
65456W        W33685  35.113  25.713  12.567
65457W        W33686  32.343   3.238  13.591
65458W        W33687  35.139   1.289  14.363
65459W        W33688  11.708  25.813   3.930
65460W        W33689  38.061  40.032   4.375
65461W        W33690  20.615  35.665   2.954
65462W        W33691  26.209  20.116  14.861
65463W        W33692  37.336   1.945  13.825
65464W        W33693  32.805  32.459  12.937
65465W        W33694  25.246  15.854   3.041
65466W        W33695  28.065   5.770  14.730
65467W        W33696  26.460   3.305  12.775
65468W        W33697  24.206  43.538   3.681
65469W        W33698   4.773   5.607   4.962
65470W        W33699  23.886   4.122  12.663
65471W        W33700  44.200  23.447  14.038
65472W        W33701   4.980  38.326   1.057
65473W        W33702   2.233  34.029   2.435
65474W        W33703  17.992  36.909   1.973
65475W        W33704  16.134  36.537   4.720
65476W        W33705  44.360  10.282  14.780
65477W        W33706  36.825  16.139   3.179
65478W        W33707  40.286  25.413  14.805
65479W        W33708  37.504  15.233   1.923
65480W        W33709  35.535  37.901  10.685
65481W        W33710  32.036  40.321  10.746
65482W        W33711  21.025  19.711  10.165
65483W        W33712  12.573  36.338  11.100
65484W        W33713  16.742   8.449  14.373
65485W        W33714  39.498  32.912   0.107
65486W        W33715   3.251  26.169   4.135
65487W        W33716  15.670  41.137  14.589
65488W        W33717   2.423  41.954  12.823
65489W        W33718   5.378  41.324  14.916
65490W        W33719  24.206  26.894   0.393
65491W        W33720  25.426  32.575   4.968
65492W        W33721   7.006  42.862   4.111
65493W        W33722  35.913  34.955   3.267
65494W        W33723   2.930   7.608   1.485
65495W        W33724  11.318   2.304  12.796
65496W        W33725  39.868  21.453   1.974
65497W        W33726  23.149  19.264  11.922
65498W        W33727  25.460  33.949   0.834
65499W        W33728  11.311  35.169  11.125
65500W        W33729   1.355  39.119  14.292
65501W        W33730  35.323  10.411   0.215
65502W        W33731  35.807  34.308   3.653
65503W        W33732  22.697  31.326   4.065
65504W        W33733  37.076   5.878   9.889
65505W        W33734  39.976   5.640   1.726
65506W        W33735  18.290  15.254   3.808
65507W        W33736  19.735   0.803  14.943
65508W        W33737  39.854  12.511  11.127
65509W        W33738  12.890  35.141  12.024
65510W        W33739   5.271  43.405   0.288
65511W        W33740  14.635  41.426   0.367
65512W        W33741  20.450  38.655   0.722
65513W        W33742  22.173  44.291   1.890
65514W        W33743   3.917   0.735  11.149
65515W        W33744  42.834  31.440   2.420
65516W        W33745   6.442   8.607  10.570
65517W        W33746  30.915  17.291   4.058
65518W        W33747  23.103   5.972  14.560
65519W        W33748  28.067   3.289   0.953
65520W        W33749  16.996  10.745  10.572
65521W        W33750  36.595  26.088   0.789
65522W        W33751   9.400   0.763  13.032
65523W        W33752  36.090  29.978  11.065
65524W        W33753  31.012  30.911   0.301
65525W        W33754  37.117  41.243   3.682
65526W        W33755   1.451  39.517  13.378
65527W        W33756   2.832  21.651  12.000
65528W        W33757  30.661  14.061   2.912
65529W        W33758  20.242  41.722  11.351
65530W        W33759  43.314  41.469  13.032
65531W        W33760  35.867  21.088  10.832
65532W        W33761   9.531   7.764   3.713
65533W        W33762   8.886  31.441   0.910
65534W        W33763  12.107  23.029   1.014
65535W        W33764  19.342   8.457  11.298
65536W        W33765  23.673  41.887  13.046
65537W        W33766  15.998   3.039   0.777
65538W        W33767  19.184  43.974  12.627
65539W        W33768  19.716  27.960  13.360
65540W        W33769  11.342  11.678  13.867
65541W        W33770   5.203  42.607  11.924
65542W        W33771  26.914  15.666   1.006
65543W        W33772   3.366  40.254  10.650
65544W        W33773  35.433  25.902   0.365
65545W        W33774  32.526  42.853  12.103
65546W        W33775  13.731  34.854   1.923
65547W        W33776  34.923  27.051  14.317
65548W        W33777   8.851  29.939   2.047
65549W        W33778  43.831  16.191  12.498
65550W        W33779   4.827   8.615   2.017
65551W        W33780  12.889  40.295  11.866
65552W        W33781  39.111  25.169  11.512
65553W        W33782  13.743  14.596  10.909
65554W        W33783  34.606  40.492  14.914
65555W        W33784   3.725  38.318  13.291
65556W        W33785  34.995   3.265   2.571
65557W        W33786  29.157  27.440   4.948
65558W        W33787  24.418  15.858  12.452
65559W        W33788  27.386  17.865   0.897
65560W        W33789  18.854   2.872  11.997
65561W        W33790  40.516  17.230  12.900
65562W        W33791  11.824  20.728  13.483
65563W        W33792   8.035  18.563   2.861
65564W        W33793  16.703  32.614   1.580
65565W        W33794  33.599  34.856  11.580
65566W        W33795  28.011   3.332  13.924
65567W        W33796   9.595  22.716   2.666
65568W        W33797  21.728  25.146   2.214
65569W        W33798   9.955  10.875  10.694
65570W        W33799  29.637  18.206   3.561
65571W        W33800  32.128  22.970   3.247
65572W        W33801  17.630  22.157   2.290
65573W        W33802  26.213  31.148   4.280
65574W        W33803  20.086  33.975   2.211
65575W        W33804   6.748   6.440  14.996
65576W        W33805   2.265  42.913  14.830
65577W        W33806  29.900  39.309   3.742
65578W        W33807  24.581   6.914   4.421
65579W        W33808  40.148  33.048   1.066
65580W        W33809   0.908  20.733  12.422
65581W        W33810   7.886  36.477   3.773
65582W        W33811  29.165  25.538  13.808
65583W        W33812   0.486  32.627   0.134
65584W        W33813  35.467   1.531  12.079
65585W        W33814  20.780   6.927  11.115
65586W        W33815  42.731  32.087  14.066
65587W        W33816   9.086  34.478   0.681
65588W        W33817  38.659  31.193  11.975
65589W        W33818  41.351  24.521  10.905
65590W        W33819  35.070  44.036   3.891
65591W        W33820  18.401  15.337  14.136
65592W        W33821  22.650  13.845  13.445
65593W        W33822  10.062   1.269   1.103
65594W        W33823  36.104   0.764   1.601
65595W        W33824  24.067   8.875   3.219
65596W        W33825  10.356  32.720   4.029
65597W        W33826  28.017  16.782   4.796
65598W        W33827  39.065  36.667   2.495
65599W        W33828  16.931  21.105  14.496
65600W        W33829  27.204  17.191   0.574
65601W        W33830  44.501   6.654   3.794
65602W        W33831  20.099  25.627  12.862
65603W        W33832  29.007  20.650   3.928
65604W        W33833  26.806  20.738   4.619
65605W        W33834   0.381  12.307   1.223
65606W        W33835  42.910   6.627  10.920
65607W        W33836  36.871  39.583  11.237
65608W        W33837  32.707  44.266  13.200
65609W        W33838  36.098  29.129  13.084
65610W        W33839  21.663   2.456   3.615
65611W        W33840   0.208  19.288  14.776
65612W        W33841  31.092  24.685  14.278
65613W        W33842  16.995  20.905   4.582
65614W        W33843  17.310  41.262  13.034
65615W        W33844  15.107  40.003  11.395
65616W        W33845  25.091   4.380  12.446
65617W        W33846  29.358  37.513  10.626
65618W        W33847  13.132  25.042   3.590
65619W        W33848  27.145  27.088   2.722
65620W        W33849  32.183  41.962  11.698
65621W        W33850  20.053   1.176  13.567
65622W        W33851  19.403  31.258  12.115
65623W        W33852  16.606  37.471  11.888
65624W        W33853  11.593  37.452   3.335
65625W        W33854   8.814  13.366   3.254
65626W        W33855  18.214  38.802   3.493
65627W        W33856  30.192  35.732  11.153
65628W        W33857  29.171  40.487  14.505
65629W        W33858  21.751  33.598   2.357
65630W        W33859  37.639  38.900  11.983
65631W        W33860   4.949  31.920  14.320
65632W        W33861  43.235  14.178   5.030
65633W        W33862  28.474  30.834   4.973
65634W        W33863  16.322   8.407   0.255
65635W        W33864  23.367  28.373   3.690
65636W        W33865  31.511  31.067   1.875
65637W        W33866   8.566  35.118  12.564
65638W        W33867  34.670   3.899   2.081
65639W        W33868  40.106  20.325  12.950
65640W        W33869  35.928  41.079   1.527
65641W        W33870  42.849  42.261  14.291
65642W        W33871  44.790  17.116   1.964
65643W        W33872  42.320  27.492  12.364
65644W        W33873  38.558  12.329   3.419
65645W        W33874  36.461  31.435   1.824
65646W        W33875  26.404  31.631  11.931
65647W        W33876  36.591  26.729   1.715
65648W        W33877  14.871   4.875   3.723
65649W        W33878  11.585   7.905   2.916
65650W        W33879  44.984  15.099  12.340
65651W        W33880  11.276  42.929  13.142
65652W        W33881  23.866  39.379   2.662
65653W        W33882  14.727  43.718   4.850
65654W        W33883  27.905  41.453   3.587
65655W        W33884  14.281   5.368   4.214
65656W        W33885  21.579  14.662   2.884
65657W        W33886  11.703  10.054   9.853
65658W        W33887  35.187  29.454   2.405
65659W        W33888  16.753  30.680   2.804
65660W        W33889  33.879   7.263  11.057
65661W        W33890  39.157  33.617   2.085
65662W        W33891  32.145  18.603   1.730
65663W        W33892  32.477  10.296   2.714
65664W        W33893  12.323  13.114   3.704
65665W        W33894   6.167   9.696  12.657
65666W        W33895  22.539  25.927   2.646
65667W        W33896  38.909  26.558   3.286
65668W        W33897  40.971   5.407   0.828
65669W        W33898   8.765   3.415  11.479
65670W        W33899  34.817  28.950  14.445
65671W        W33900  22.157  38.487   3.082
65672W        W33901  25.181  18.735  11.261
65673W        W33902   8.193  20.492   0.564
65674W        W33903   5.569  35.968   1.258
65675W        W33904  32.866  36.452   4.700
65676W        W33905   1.217   6.801  14.974
65677W        W33906  10.654   6.234   2.285
65678W        W33907  29.066  21.171   1.729
65679W        W33908  11.283  10.786  10.512
65680W        W33909   8.451   2.127  11.533
65681W        W33910  14.417  31.656   2.753
65682W        W33911  25.517  28.992   4.141
65683W        W33912  17.224  40.911   4.456
65684W        W33913  30.533   1.895  14.093
65685W        W33914  25.528   3.687  10.716
65686W        W33915   0.613   1.382   2.752
65687W        W33916  32.139  22.013  11.187
65688W        W33917  31.478   3.681   3.695
65689W        W33918  20.937   2.981  14.484
65690W        W33919   9.639  16.375   0.232
65691W        W33920  22.715  35.586   3.365
65692W        W33921   7.519   8.481  13.009
65693W        W33922  21.440   8.766  12.998
65694W        W33923   9.432   2.666  12.401
65695W        W33924  18.618  39.294  13.833
65696W        W33925   1.415  28.345   1.966
65697W        W33926  18.784  37.898  12.858
65698W        W33927   6.771  35.595   1.804
65699W        W33928   8.853  22.651  14.479
65700W        W33929  34.578   9.003  11.967
65701W        W33930   8.863  27.699   4.295
65702W        W33931  33.903   2.893  13.977
65703W        W33932   3.795  35.071  13.490
65704W        W33933  18.715  18.170   1.414
65705W        W33934  12.914  25.939  10.978
65706W        W33935   8.395  11.892   3.876
65707W        W33936  22.234  15.173   1.755
65708W        W33937   2.797  32.502   0.312
65709W        W33938  44.837  20.288  10.595
65710W        W33939  19.569  36.757   2.690
65711W        W33940  11.560   7.368   0.861
65712W        W33941  33.727   3.853  11.588
65713W        W33942  28.411   5.898  12.976
65714W        W33943  21.149  31.155  14.440
65715W        W33944  37.798  38.816  11.500
65716W        W33945  36.265  36.654  11.068
65717W        W33946  11.070   6.740  11.191
65718W        W33947  29.382   1.478  11.994
65719W        W33948  41.468   0.038  11.432
65720W        W33949  36.030  39.072  10.781
65721W        W33950  21.114  43.839   1.384
65722W        W33951   7.347   0.944   3.468
65723W        W33952  44.363  18.363   1.726
65724W        W33953  30.540  19.532  11.945
65725W        W33954  31.483  12.125   0.278
65726W        W33955  33.105  29.776   0.359
65727W        W33956   4.208  33.597   2.847
65728W        W33957  36.337  12.754   5.240
65729W        W33958  23.821   7.779  13.618
65730W        W33959   4.402  19.726  13.943
65731W        W33960  38.968  31.155   1.365
65732W        W33961   3.655   4.890   4.151
65733W        W33962  35.573  40.938  10.639
65734W        W33963  18.146  11.044   4.800
65735W        W33964   2.772   4.188  12.551
65736W        W33965  39.554  20.538  10.648
65737W        W33966  23.126  23.685  10.762
65738W        W33967  29.607  37.053   0.219
65739W        W33968   5.931  19.633   2.448
65740W        W33969  34.293  25.918   1.941
65741W        W33970  27.539  33.010   4.005
65742W        W33971  23.724  39.850   2.372
65743W        W33972  39.850   5.338   1.288
65744W        W33973  24.312   4.326   2.822
65745W        W33974  15.082  22.687  13.563
65746W        W33975   6.323   6.315   4.129
65747W        W33976  21.219  21.131  11.445
65748W        W33977  26.054   9.777  11.174
65749W        W33978  26.681  13.603   0.753
65750W        W33979  19.801  15.629   0.021
65751W        W33980  32.044  22.178  13.049
65752W        W33981  43.521  16.226   0.812
65753W        W33982  19.503  20.046   4.200
65754W        W33983  29.226  23.239   2.729
65755W        W33984   8.815   1.782  14.246
65756W        W33985  44.846  12.746  10.687
65757W        W33986   5.922  20.575   1.773
65758W        W33987  37.413   3.869   1.757
65759W        W33988  20.597  10.695  13.997
65760W        W33989  13.630  31.136   1.937
65761W        W33990  29.871  28.076  12.581
65762W        W33991  18.569  25.769   3.164
65763W        W33992  18.997  43.331  11.467
65764W        W33993  44.942  17.060  14.273
65765W        W33994  43.642  10.105  10.414
65766W        W33995  17.912  35.510  12.918
65767W        W33996  38.536  29.475   3.747
65768W        W33997  18.865  27.692   4.233
65769W        W33998  22.346  35.940   3.310
65770W        W33999  14.776   5.863  10.743
65771W        W34000  23.248   4.360   4.620
65772W        W34001  15.159   3.173   2.290
65773W        W34002  19.561   3.642  13.978
65774W        W34003  27.616   2.125  14.828
65775W        W34004  30.928  25.475   3.295
65776W        W34005   3.560  34.481  14.276
65777W        W34006  26.506  42.798   1.470
65778W        W34007   3.170  35.076  11.444
65779W        W34008  30.588  33.214  12.033
65780W        W34009   4.168  10.452   1.311
65781W        W34010   6.897  13.185   2.624
65782W        W34011  43.286  41.985  14.334
65783W        W34012  17.772  38.859   3.197
65784W        W34013  22.567   9.933   0.830
65785W        W34014   7.296  11.132  13.302
65786W        W34015   1.128  23.255   3.708
65787W        W34016  36.442  18.184  13.144
65788W        W34017   4.662  16.585  12.564
65789W        W34018  38.583  15.043  12.973
65790W        W34019  34.093  12.595  10.964
65791W        W34020  31.351  22.486   2.835
65792W        W34021  34.237  39.870   2.263
65793W        W34022  42.326  24.793  11.358
65794W        W34023  13.168  20.062   1.022
65795W        W34024  43.913   7.813  12.019
65796W        W34025  31.679   1.145  14.479
65797W        W34026   3.871  13.816  11.007
65798W        W34027  41.924  25.334  10.855
65799W        W34028  20.511  19.099  13.539
65800W        W34029   0.361  43.055  14.867
65801W        W34030   4.334  38.436   2.278
65802W        W34031  21.610  28.600  11.575
65803W        W34032  27.221  23.773   0.726
65804W        W34033   2.632   9.828   0.298
65805W        W34034   4.657  44.836   3.404
65806W        W34035  13.531  28.300  14.903
65807W        W34036  39.877  38.957  13.830
65808W        W34037  19.237  24.511  14.957
65809W        W34038   0.854  44.566   3.209
65810W        W34039  31.435  11.817  11.786
65811W        W34040  26.567  39.952  13.974
65812W        W34041  38.886  36.124   4.945
65813W        W34042  28.418   5.526  14.427
65814W        W34043  31.882  40.376   1.920
65815W        W34044   1.682  21.798   3.809
65816W        W34045  12.901  16.034  14.271
65817W        W34046  42.668  44.349  11.565
65818W        W34047  31.704  31.691  10.670
65819W        W34048  15.011   3.998   2.614
65820W        W34049  16.248  17.253  14.994
65821W        W34050  26.385   1.273   0.397
65822W        W34051  44.496   6.767   2.753
65823W        W34052  28.239  27.596  11.221
65824W        W34053  36.038  18.027   0.830
65825W        W34054   4.678   2.351   5.095
65826W        W34055  10.624  13.557  11.661
65827W        W34056   2.402  15.733  11.007
65828W        W34057   9.797  35.767   3.138
65829W        W34058  21.295  34.536  10.618
65830W        W34059  43.332  33.281   3.693
65831W        W34060  27.567  34.712  11.653
65832W        W34061  10.108  18.727  11.660
65833W        W34062  12.413  17.709  10.733
65834W        W34063   8.284  24.983   3.138
65835W        W34064  14.411  10.168   4.247
65836W        W34065  30.032  22.580   0.462
65837W        W34066   9.546   7.422   2.908
65838W        W34067  29.894  10.873   3.299
65839W        W34068  36.716  17.155  12.133
65840W        W34069   1.052  40.450   0.700
65841W        W34070  21.356  11.162  14.033
65842W        W34071  23.231  39.956   4.827
65843W        W34072   5.913  39.381   1.019
65844W        W34073  21.992  13.847   5.424
65845W        W34074  35.429  20.012   3.510
65846W        W34075  33.855  21.021  13.409
65847W        W34076  31.621  31.903  13.929
65848W        W34077  17.545   7.412   3.746
65849W        W34078  13.667  20.087  13.149
65850W        W34079   9.165  39.806  10.609
65851W        W34080  38.321  14.862  12.518
65852W        W34081   2.976   1.005  13.120
65853W        W34082   7.408  43.469  14.497
65854W        W34083  15.525  41.934  12.122
65855W        W34084  30.021  10.202  11.529
65856W        W34085   1.505  42.196   1.449
65857W        W34086  44.410  35.549   3.961
65858W        W34087  20.357  20.535   3.846
65859W        W34088   3.951  21.299   3.359
65860W        W34089  19.040   2.240   1.709
65861W        W34090  10.204  20.574   3.444
65862W        W34091  36.435  15.908   1.452
65863W        W34092  24.529  33.313   1.349
65864W        W34093  15.634   7.299  13.552
65865W        W34094  29.035  12.624  14.045
65866W        W34095  15.334  22.019  14.800
65867W        W34096  10.060  33.159  11.063
65868W        W34097   8.773  26.722   4.105
65869W        W34098  41.440  17.065   4.906
65870W        W34099  18.716  35.392  11.989
65871W        W34100  36.038  39.157   4.223
65872W        W34101  27.529   8.457  14.296
65873W        W34102  19.211  37.761  12.587
65874W        W34103   6.788   8.376  11.587
65875W        W34104  10.976  38.304  12.431
65876W        W34105   1.433  37.084   2.600
65877W        W34106   1.045   5.707   3.708
65878W        W34107   3.929  22.792   0.497
65879W        W34108  36.149   6.840  13.113
65880W        W34109  14.368  40.922   4.254
65881W        W34110  44.023   4.715   2.219
65882W        W34111  38.942  16.736   4.289
65883W        W34112  21.079  27.416  10.245
65884W        W34113   7.702  13.698  14.418
65885W        W34114  13.296   3.726   0.388
65886W        W34115  23.174  44.414   4.338
65887W        W34116   6.469  22.224   0.290
65888W        W34117  24.789  29.065   1.884
65889W        W34118   1.328  23.505  13.376
65890W        W34119   7.298  19.656   2.791
65891W        W34120  20.071  20.691   3.453
65892W        W34121  16.019  32.040  14.066
65893W        W34122  26.474  27.663   1.868
65894W        W34123  41.629  15.705   4.047
65895W        W34124  13.882  33.630   3.218
65896W        W34125  22.157  20.508   4.182
65897W        W34126  34.607  41.756  14.529
65898W        W34127  25.774  39.790  11.579
65899W        W34128   8.634  28.883   4.533
65900W        W34129  36.804   2.982   0.927
65901W        W34130   9.686  32.041   4.116
65902W        W34131   3.806  20.354   1.829
65903W        W34132  41.921  29.944   3.340
65904W        W34133  39.352  10.708  12.778
65905W        W34134  23.017  43.880  14.984
65906W        W34135  24.078  10.647   2.815
65907W        W34136  24.262  32.635  14.502
65908W        W34137  27.016   8.579   0.366
65909W        W34138  36.918  12.804  12.830
65910W        W34139  22.713  14.635  11.660
65911W        W34140  24.262  28.093  12.079
65912W        W34141   6.472  33.917   0.324
65913W        W34142  16.318  11.382  11.606
65914W        W34143  29.141  11.298   0.934
65915W        W34144  10.918   0.892   2.833
65916W        W34145  36.466  40.452   4.562
65917W        W34146   0.359  26.636   3.842
65918W        W34147   3.396  26.958  10.680
65919W        W34148  10.928  19.508  12.603
65920W        W34149  38.080   3.031   1.277
65921W        W34150   9.250   5.341  12.914
65922W        W34151  25.574  24.093  12.808
65923W        W34152  21.781  15.409   0.847
65924W        W34153  15.271   2.841   4.621
65925W        W34154  29.118  31.653   3.140
65926W        W34155  18.711  13.293  14.470
65927W        W34156  36.044  25.714  14.982
65928W        W34157   6.870  22.391  12.976
65929W        W34158  27.050  41.264   3.212
65930W        W34159  19.085   7.597  13.330
65931W        W34160   0.885  42.854  13.603
65932W        W34161  31.271   8.885  11.235
65933W        W34162   1.017  38.401  11.826
65934W        W34163  36.782  35.206   5.060
65935W        W34164  42.021  31.570   0.941
65936W        W34165  38.952  22.114  14.959
65937W        W34166  15.870  22.933  12.505
65938W        W34167  15.383   4.913  13.969
65939W        W34168  25.491  38.648  12.498
65940W        W34169   3.405  23.325   2.248
65941W        W34170  40.506   8.620  10.157
65942W        W34171  36.842  34.352   0.885
65943W        W34172  32.155  13.539  11.228
65944W        W34173  18.214  37.550   2.811
65945W        W34174  37.082  18.211   2.256
65946W        W34175  15.337  24.639   0.787
65947W        W34176   0.957  27.435   3.558
65948W        W34177  19.537  40.969  10.647
65949W        W34178  35.945   5.852   3.148
65950W        W34179  17.199  38.969   3.870
65951W        W34180   2.416  32.442  10.852
65952W        W34181  14.057   0.732   3.146
65953W        W34182   1.417  39.605   5.024
65954W        W34183  12.573  34.231  14.914
65955W        W34184  40.274  30.750  14.380
65956W        W34185  11.758  37.549   4.616
65957W        W34186  26.170  31.316   3.815
65958W        W34187  24.611  27.728  14.425
65959W        W34188  25.180  11.311  14.415
65960W        W34189  41.938  23.532  12.328
65961W        W34190  14.167  34.995  10.770
65962W        W34191   1.239  29.442   0.832
65963W        W34192  17.209  41.233   2.363
65964W        W34193  26.081  20.209  12.969
65965W        W34194   6.439   8.414   2.778
65966W        W34195  36.810  41.547  11.247
65967W        W34196  42.478  16.543   1.764
65968W        W34197  13.875  25.466   2.172
65969W        W34198  17.009  22.605   5.041
65970W        W34199  33.536  36.885  10.645
65971W        W34200  42.370  41.833  13.084
65972W        W34201  14.424  40.772   3.446
65973W        W34202  43.519  32.026   0.213
65974W        W34203   5.344  23.134  11.866
65975W        W34204  35.909   5.822   4.518
65976W        W34205  29.968   7.612  12.545
65977W        W34206  42.456   0.028  12.374
65978W        W34207  29.287   0.565   0.327
65979W        W34208  29.550  33.996  14.197
65980W        W34209  30.532  31.961   3.753
65981W        W34210  29.818  16.181  10.978
65982W        W34211  18.077  28.546  13.017
65983W        W34212  17.049  13.835   1.873
65984W        W34213  29.385  31.902   4.967
65985W        W34214  34.886  26.531  12.858
65986W        W34215   7.149  41.533  12.311
65987W        W34216  12.719  33.146   0.875
65988W        W34217   5.421  17.573   3.640
65989W        W34218  25.969  28.445  11.118
65990W        W34219   7.402  16.660  11.202
65991W        W34220  27.923   6.714  13.102
65992W        W34221  34.994  23.272   3.558
65993W        W34222  24.720  20.671   1.858
65994W        W34223  26.594  21.252   2.774
65995W        W34224  17.798  42.280  12.068
65996W        W34225  18.552  13.629   0.825
65997W        W34226  32.853  44.359  13.758
65998W        W34227  16.304  10.352  14.049
65999W        W34228  42.561  35.568   0.563
66000W        W34229  20.260  31.911  12.019
66001W        W34230  37.983  16.656   3.652
66002W        W34231   6.290  33.761  10.933
66003W        W34232   5.012  37.130   3.668
66004W        W34233  42.082   9.614  13.190
66005W        W34234  43.530  23.521   2.275
66006W        W34235   6.373  28.089   1.699
66007W        W34236  35.334  26.691   4.241
66008W        W34237  28.560  37.183   3.322
66009W        W34238  35.798  30.685   0.538
66010W        W34239  21.322   8.047   4.112
66011W        W34240  17.074  30.508   0.371
66012W        W34241  32.030  24.716  13.523
66013W        W34242   6.245   6.806  13.943
66014W        W34243  33.305  29.578   1.431
66015W        W34244   2.594  40.863  11.796
66016W        W34245   1.297  32.629  13.323
66017W        W34246  12.737   3.719  13.016
66018W        W34247   2.301   4.301  10.776
66019W        W34248  28.559  17.877  10.708
66020W        W34249   1.876   6.378  11.997
66021W        W34250  20.920  29.847  11.014
66022W        W34251  44.918   2.849   4.085
66023W        W34252   2.338  38.053   0.922
66024W        W34253  34.911   9.957  12.090
66025W        W34254  23.503  14.549  10.710
66026W        W34255  17.737  14.592   2.454
66027W        W34256  38.897  40.751   3.803
66028W        W34257  43.305  39.044  11.423
66029W        W34258  32.026  32.099   3.064
66030W        W34259  13.043  25.164   5.089
66031W        W34260  20.612  21.258   5.194
66032W        W34261  33.947  41.795   0.916
66033W        W34262  30.696  42.021  14.685
66034W        W34263  25.747  29.036   1.121
66035W        W34264   7.282  13.151   1.224
66036W        W34265  39.981  34.057  12.990
66037W        W34266  33.579  37.092  12.659
66038W        W34267   7.792   4.982   4.615
66039W        W34268   7.847  32.002   2.768
66040W        W34269   4.712   3.044   4.598
66041W        W34270   1.278  33.566   5.176
66042W        W34271   2.461  26.810   4.152
66043W        W34272   5.750   1.815  11.092
66044W        W34273   5.744  12.520  14.226
66045W        W34274  35.631  41.765  13.847
66046W        W34275  36.627  25.290   2.597
66047W        W34276  20.329  31.643  13.379
66048W        W34277  28.278   4.965   4.704
66049W        W34278  30.651  38.729   0.515
66050W        W34279  29.438  13.342  12.894
66051W        W34280   3.332  21.606   0.203
66052W        W34281   4.071  31.521   1.582
66053W        W34282  14.175  31.981  11.987
66054W        W34283  33.387  33.390   1.755
66055W        W34284  31.543   2.373   2.813
66056W        W34285  39.031  37.776   1.233
66057W        W34286  27.528  22.981   2.737
66058W        W34287  22.467  26.199   4.027
66059W        W34288  37.699  37.602  11.193
66060W        W34289  26.552  35.904   2.527
66061W        W34290  34.352  22.107  12.320
66062W        W34291  21.126  19.122  10.614
66063W        W34292  36.929  42.829  13.321
66064W        W34293  21.337  40.980  14.720
66065W        W34294   5.319  33.487  11.837
66066W        W34295  25.673  22.528   4.449
66067W        W34296   2.940  19.049  13.075
66068W        W34297  39.900  13.222  10.980
66069W        W34298  29.162  29.539  10.988
66070W        W34299  34.808  18.196   5.106
66071W        W34300  11.164  29.988  13.049
66072W        W34301  41.492   9.209  14.801
66073W        W34302   7.371  42.004   0.404
66074W        W34303  22.219  13.111   0.526
66075W        W34304   7.140  24.261  13.661
66076W        W34305  32.788  40.952   0.074
66077W        W34306  23.537  16.059   3.398
66078W        W34307  11.829  34.345   1.065
66079W        W34308  15.534  29.024   1.885
66080W        W34309  33.836  18.124  11.719
66081W        W34310  28.987   6.221  12.498
66082W        W34311  36.069  41.897   2.197
66083W        W34312  36.193  29.558   1.827
66084W        W34313   8.256   8.647  10.771
66085W        W34314   3.352   5.401  14.065
66086W        W34315  10.319  21.724  14.987
66087W        W34316  15.789  41.398   2.422
66088W        W34317   4.567   4.355  13.170
66089W        W34318  19.067  15.112   3.283
66090W        W34319  18.754  26.743  10.655
66091W        W34320  38.420  35.974   3.082
66092W        W34321   3.887  11.807  13.918
66093W        W34322  30.645  27.126   0.775
66094W        W34323  43.652  30.463   3.385
66095W        W34324  19.293  26.458   2.297
66096W        W34325   0.228   4.988   2.813
66097W        W34326  25.967  31.198   0.325
66098W        W34327  35.364  28.481  14.241
66099W        W34328   9.646  36.705   3.174
66100W        W34329  41.825  24.107   4.730
66101W        W34330  38.118  28.489   4.897
66102W        W34331  10.191  28.105  12.810
66103W        W34332  18.812  41.283  12.809
66104W        W34333  29.620  28.731  11.733
66105W        W34334  40.895  16.066   1.305
66106W        W34335  13.196  36.976   3.200
66107W        W34336  23.857  24.664   4.651
66108W        W34337  42.722   0.509   4.052
66109W        W34338  19.857   8.741   4.050
66110W        W34339  27.381  32.988   0.923
66111W        W34340  33.859  18.646  12.435
66112W        W34341  38.874  44.955  14.488
66113W        W34342   8.547   6.335   3.208
66114W        W34343  27.462   1.848  12.487
66115W        W34344  25.572  26.187  12.609
66116W        W34345  42.463   4.256   2.093
66117W        W34346  36.489  38.696   1.252
66118W        W34347  20.388  26.469  10.598
66119W        W34348  43.241  44.162   4.354
66120W        W34349  42.595  25.691   0.369
66121W        W34350  37.743  32.452   0.380
66122W        W34351  35.110  15.605  12.056
66123W        W34352  13.641  38.669   0.058
66124W        W34353   8.165  31.896   5.024
66125W        W34354  16.565   6.436   0.976
66126W        W34355  17.624  12.400  13.884
66127W        W34356  44.389   0.915  11.387
66128W        W34357  21.477   0.088   0.748
66129W        W34358  26.688  30.552  13.993
66130W        W34359  34.067  22.658   3.448
66131W        W34360  33.497  16.588   3.742
66132W        W34361   7.220   3.173   0.865
66133W        W34362  32.865  26.579   4.803
66134W        W34363   9.226  19.690   3.729
66135W        W34364  18.061  32.612   2.727
66136W        W34365   8.680  17.769   4.208
66137W        W34366  15.125   0.810  11.565
66138W        W34367  31.004   8.920   3.677
66139W        W34368  26.180  29.382  12.534
66140W        W34369  15.287   3.902  14.306
66141W        W34370  40.564   4.947  13.348
66142W        W34371  24.089  38.113  14.492
66143W        W34372  38.825   9.939   0.847
66144W        W34373  34.987  36.355   0.276
66145W        W34374  39.295  36.349   1.420
66146W        W34375   7.085   9.460  10.609
66147W        W34376  33.881  40.315  14.606
66148W        W34377   1.961  25.997  13.940
66149W        W34378  26.557  40.517  11.398
66150W        W34379  28.621   7.620  14.427
66151W        W34380  34.925   1.708  12.040
66152W        W34381  37.369  32.553   4.786
66153W        W34382  43.181  42.036  14.929
66154W        W34383   2.283  12.285  11.949
66155W        W34384   6.934   5.404  13.961
66156W        W34385   5.871  27.168   1.643
66157W        W34386  28.971  18.620   1.032
66158W        W34387  14.351   9.720   0.130
66159W        W34388  22.688  36.947  11.532
66160W        W34389  12.081  22.492   4.021
66161W        W34390  16.846  32.370  12.591
66162W        W34391  43.392  30.656  12.910
66163W        W34392  42.804  22.933  10.922
66164W        W34393  14.397  23.090  10.638
66165W        W34394   1.300  43.238  14.854
66166W        W34395  13.971  18.220  13.415
66167W        W34396  14.079   2.848   0.931
66168W        W34397   0.797  23.803  13.463
66169W        W34398  27.142  38.465  12.958
66170W        W34399  33.744  26.551   4.215
66171W        W34400  20.040  13.662  10.767
66172W        W34401   3.967  33.123   2.230
66173W        W34402  37.628   9.674  12.595
66174W        W34403  28.688   6.922   0.774
66175W        W34404  26.568   5.478   0.301
66176W        W34405  38.814  37.333  12.209
66177W        W34406  13.800  39.859   1.671
66178W        W34407  36.352  26.472   2.838
66179W        W34408   8.767   8.891   0.790
66180W        W34409  41.805  41.363   3.712
66181W        W34410   0.390  28.510   2.240
66182W        W34411  32.108  26.991   3.162
66183W        W34412  42.861   2.405   2.232
66184W        W34413  15.082   6.268  10.630
66185W        W34414   4.388  32.547  10.971
66186W        W34415  33.937   4.788  12.092
66187W        W34416   9.789   2.046   2.249
66188W        W34417  24.194  28.515  14.897
66189W        W34418  42.511   8.747  10.863
66190W        W34419  14.067   0.376   3.580
66191W        W34420  29.328  18.167   4.282
66192W        W34421   2.878   0.447   4.637
66193W        W34422   3.483  16.036   1.581
66194W        W34423  25.111  22.761   2.266
66195W        W34424  16.158  35.692   3.110
66196W        W34425  40.667  14.683   3.578
66197W        W34426  26.514   9.422  14.490
66198W        W34427  26.009  21.631  11.360
66199W        W34428  22.278  23.624   1.727
66200W        W34429  33.007  38.278   4.581
66201W        W34430  38.399  17.222  13.411
66202W        W34431  36.650  40.307   2.187
66203W        W34432  14.587  43.164  14.785
66204W        W34433  25.108   8.665   1.883
66205W        W34434  28.030  44.848  13.946
66206W        W34435  14.598  43.900   2.179
66207W        W34436  25.680  18.105   0.371
66208W        W34437   3.742  41.885   4.209
66209W        W34438  11.094   7.754  11.503
66210W        W34439  18.301  33.037   2.882
66211W        W34440  22.933  40.571  11.522
66212W        W34441  33.621   1.106  10.275
66213W        W34442  21.126   2.473  11.033
66214W        W34443   9.148  43.927  11.216
66215W        W34444  40.396  11.249  12.456
66216W        W34445  12.868  43.889  13.477
66217W        W34446  24.631  14.098   0.806
66218W        W34447  12.812  26.443  12.238
66219W        W34448  14.609  28.022  13.440
66220W        W34449  13.101  20.406   4.205
66221W        W34450  44.547  12.799   1.880
66222W        W34451  10.153   6.671  11.171
66223W        W34452  33.304  25.096   2.254
66224W        W34453  19.375  15.121  13.094
66225W        W34454  26.009  10.654   0.225
66226W        W34455  33.553  24.136  13.176
66227W        W34456  38.059  21.986  12.059
66228W        W34457  43.552   1.585   4.698
66229W        W34458  11.324  20.064  10.476
66230W        W34459   9.768  16.267  14.747
66231W        W34460  41.314  44.728  10.466
66232W        W34461  36.948   0.980  12.892
66233W        W34462  27.198  33.836   1.333
66234W        W34463  27.142  17.931  13.243
66235W        W34464  13.675  21.193  12.103
66236W        W34465   2.676  28.688   1.776
66237W        W34466  40.343   6.094  13.083
66238W        W34467  32.143  13.500   3.225
66239W        W34468  40.806  32.498   2.840
66240W        W34469  37.582   5.284  12.753
66241W        W34470  29.707   6.328   3.753
66242W        W34471  21.304  20.754   4.135
66243W        W34472  41.554  31.633  10.461
66244W        W34473  40.819   4.596   2.885
66245W        W34474  33.030  32.511   0.713
66246W        W34475  20.663  20.756  12.111
66247W        W34476  22.067   9.552  13.511
66248W        W34477  30.537  34.047  11.532
66249W        W34478  24.169  19.796   5.092
66250W        W34479  33.638  35.387   4.531
66251W        W34480  15.872  43.762  14.931
66252W        W34481  16.114  35.509  10.968
66253W        W34482  15.081  13.953   1.270
66254W        W34483  37.507  33.630  13.044
66255W        W34484   5.661  25.966   0.226
66256W        W34485  36.282  25.507   4.315
66257W        W34486  10.226  34.651   1.311
66258W        W34487   4.755  16.056   1.433
66259W        W34488  15.059   1.948   2.819
66260W        W34489  44.727   8.789  14.536
66261W        W34490  15.991   4.739   4.233
66262W        W34491  24.530  27.576   1.872
66263W        W34492   1.237  30.664   3.781
66264W        W34493  12.306  11.177   4.118
66265W        W34494  43.485  27.992  10.061
66266W        W34495  23.266  14.389   4.067
66267W        W34496  24.910  38.909  13.044
66268W        W34497   4.305   9.924  14.341
66269W        W34498   9.723  18.087   3.546
66270W        W34499   3.476   9.877   3.890
66271W        W34500   2.298  18.227   4.869
66272W        W34501  37.407   1.305  13.072
66273W        W34502  33.599  11.246  13.946
66274W        W34503   9.132  35.618  12.966
66275W        W34504   1.567  35.725   4.044
66276W        W34505  12.634  11.980  11.545
66277W        W34506  15.806  18.641   2.261
66278W        W34507  36.563   3.840  13.378
66279W        W34508  31.866   4.768   2.177
66280W        W34509  35.180  33.906   0.185
66281W        W34510  40.458  36.653   4.203
66282W        W34511  43.261  20.204  13.285
66283W        W34512  14.678  17.474   4.578
66284W        W34513  39.689  21.619   2.872
66285W        W34514   8.169   4.168   1.371
66286W        W34515  14.603  40.937   0.616
66287W        W34516  36.604   2.536  13.092
66288W        W34517   7.207   0.896  13.768
66289W        W34518  14.250  21.151   1.347
66290W        W34519   3.947  31.968   0.815
66291W        W34520  36.925  10.189  10.991
66292W        W34521  18.117  18.043  10.987
66293W        W34522  41.839  31.454   4.301
66294W        W34523  33.567  39.803  10.119
66295W        W34524  28.075  36.741   4.483
66296W        W34525  44.912  12.319   2.172
66297W        W34526  19.116  40.815  11.567
66298W        W34527  39.377   1.919  11.761
66299W        W34528  33.015  16.401   3.677
66300W        W34529  19.986  12.284  10.678
66301W        W34530  20.958  12.331   4.012
66302W        W34531  33.241  23.122   4.291
66303W        W34532  40.848  29.088   0.683
66304W        W34533  33.078  26.233  13.403
66305W        W34534   6.976  24.986  13.914
66306W        W34535  12.115  41.063   2.411
66307W        W34536  39.066  43.962  14.147
66308W        W34537  41.002   4.366   4.343
66309W        W34538  38.380  18.106  12.957
66310W        W34539  23.638  27.536  12.052
66311W        W34540   6.718  23.770   0.996
66312W        W34541  10.719  33.639  13.456
66313W        W34542  41.907  16.682   1.277
66314W        W34543  38.526  13.867  10.742
66315W        W34544  43.645  20.661  12.431
66316W        W34545   5.478  33.622   4.568
66317W        W34546  33.935  30.961  14.969
66318W        W34547  12.773  32.193   3.140
66319W        W34548  41.377  13.607  10.646
66320W        W34549  34.651   1.454  13.620
66321W        W34550  32.311  35.457   0.098
66322W        W34551  36.403   4.185  11.161
66323W        W34552   8.176  21.162   1.357
66324W        W34553  34.560  13.210  12.504
66325W        W34554  34.310  11.459  12.564
66326W        W34555  39.814  24.567  14.791
66327W        W34556  32.430  23.985  11.879
66328W        W34557  16.077  34.976   3.539
66329W        W34558  10.587  15.217   4.058
66330W        W34559  43.767   5.941   3.641
66331W        W34560  10.431  18.322  11.654
66332W        W34561  14.383  41.160  14.722
66333W        W34562   7.502  33.534  10.931
66334W        W34563   7.536   8.928  10.579
66335W        W34564   8.848   9.370   2.668
66336W        W34565  39.717  43.525  10.750
66337W        W34566   4.620  25.071   2.429
66338W        W34567  11.668  24.731  11.331
66339W        W34568  32.259  28.889   4.145
66340W        W34569  34.842  26.711   3.178
66341W        W34570  19.042   6.617  13.567
66342W        W34571  12.038  37.928   1.780
66343W        W34572  40.827  21.167  14.831
66344W        W34573  38.118  34.636  14.324
66345W        W34574   2.538   8.213   4.505
66346W        W34575  32.992  43.895  13.532
66347W        W34576  12.590  31.033   1.306
66348W        W34577  34.899   6.990   4.201
66349W        W34578  12.573  10.696   2.567
66350W        W34579  29.499  24.698  14.244
66351W        W34580   1.891  17.270   2.703
66352W        W34581  35.176  30.965   1.408
66353W        W34582  38.396  36.574  12.632
66354W        W34583  16.313  14.608  11.159
66355W        W34584  25.686  33.910   0.355
66356W        W34585   4.993  36.817  12.652
66357W        W34586  21.293  13.608   3.535
66358W        W34587   1.646   1.129  11.821
66359W        W34588  34.063  15.810  14.588
66360W        W34589  21.757  29.089  13.604
66361W        W34590  25.952  28.130   1.290
66362W        W34591  24.608   0.458  12.391
66363W        W34592  21.389  10.011  11.462
66364W        W34593  25.549  42.396   0.708
66365W        W34594  37.133  15.547   3.810
66366W        W34595  42.234  34.517   1.358
66367W        W34596  25.426  17.530   4.991
66368W        W34597  27.646  21.237   1.903
66369W        W34598  44.364  31.633   4.454
66370W        W34599  28.486  31.481   0.869
66371W        W34600   0.373   0.883   4.612
66372W        W34601  20.742  41.612  12.310
66373W        W34602  12.802  30.718   2.858
66374W        W34603  19.005  13.565  11.648
66375W        W34604  19.725  39.068   3.274
66376W        W34605  23.047  23.010   4.583
66377W        W34606  16.382  17.014  13.015
66378W        W34607   7.124  27.802  10.848
66379W        W34608   4.756  18.308   2.228
66380W        W34609  28.003  39.595   1.810
66381W        W34610  14.818  23.691  11.000
66382W        W34611   7.459  18.026   3.287
66383W        W34612  24.695  31.924  10.858
66384W        W34613  33.990  36.922  10.926
66385W        W34614  43.790  36.858  13.985
66386W        W34615   4.070  37.631   0.404
66387W        W34616  27.682  12.152   2.007
66388W        W34617  35.512  35.367   4.416
66389W        W34618  28.539  14.017   3.384
66390W        W34619  38.530   7.798  11.633
66391W        W34620  25.465  40.120  12.398
66392W        W34621   6.173  28.431  14.841
66393W        W34622  10.166  37.607  11.341
66394W        W34623  12.846  38.386  14.482
66395W        W34624  14.839  41.017   3.250
66396W        W34625  18.196  10.287   2.707
66397W        W34626  25.685  42.084  11.126
66398W        W34627  19.124  26.950  13.913
66399W        W34628  24.105   5.715   0.732
66400W        W34629  40.965  13.890   3.191
66401W        W34630   1.418  15.873  14.366
66402W        W34631  29.389  37.376  11.997
66403W        W34632   1.145  13.896  13.623
66404W        W34633   5.452  24.479  14.382
66405W        W34634  37.402  22.494   3.543
66406W        W34635  13.534  27.261   2.378
66407W        W34636   2.298  32.893  12.281
66408W        W34637  30.671  36.429   3.077
66409W        W34638  38.919  32.252  13.124
66410W        W34639   5.167  28.967   2.821
66411W        W34640  26.888   5.881  11.993
66412W        W34641  29.222   2.847   3.129
66413W        W34642  44.417  37.685  12.971
66414W        W34643  37.936  26.479   0.300
66415W        W34644  40.933  21.247  11.681
66416W        W34645  24.485   6.829   1.728
66417W        W34646  26.176   1.189  14.937
66418W        W34647  15.155  16.512  11.752
66419W        W34648  14.678  22.741   1.348
66420W        W34649  23.218   2.453   0.533
66421W        W34650  41.264  18.821  13.486
66422W        W34651  36.376   3.490  14.867
66423W        W34652  17.249  43.652  13.844
66424W        W34653  30.682  27.640   2.674
66425W        W34654   6.462  18.280  14.397
66426W        W34655  31.919  36.794   2.221
66427W        W34656  31.650  25.362  14.218
66428W        W34657  36.080   2.378  11.267
66429W        W34658  38.286  14.085  14.512
66430W        W34659  15.879  10.447   4.534
66431W        W34660  22.010  17.648   2.851
66432W        W34661  41.655   3.784   3.853
66433W        W34662   2.342   8.307  11.018
66434W        W34663  22.579   9.043  11.914
66435W        W34664  28.616   8.131  12.536
66436W        W34665  37.052   1.292   4.150
66437W        W34666  19.283  20.569  12.896
66438W        W34667  43.981  41.072   2.850
66439W        W34668  32.016  30.110   2.848
66440W        W34669  22.662  24.093  13.797
66441W        W34670   9.296  44.975   2.391
66442W        W34671  40.311   9.810  12.066
66443W        W34672  23.469  43.507   1.416
66444W        W34673   1.347  12.802   4.653
66445W        W34674  28.348   5.865   3.764
66446W        W34675  24.569   9.392   3.608
66447W        W34676  15.812   9.413   4.539
66448W        W34677  30.928  39.494   3.657
66449W        W34678  41.246   4.253  12.867
66450W        W34679  12.094  27.873   0.863
66451W        W34680   2.983  38.848  11.679
66452W        W34681  11.143  32.517   0.364
66453W        W34682  44.242  12.877   1.380
66454W        W34683  22.804  19.075  12.721
66455W        W34684   7.380   6.517   4.679
66456W        W34685  38.825  15.884  11.876
66457W        W34686  17.699  28.153   2.774
66458W        W34687  21.278  19.369  14.487
66459W        W34688   0.420  32.058  14.273
66460W        W34689   2.519  10.273   3.218
66461W        W34690  42.515  21.574  11.068
66462W        W34691   4.889  31.054  13.029
66463W        W34692  37.321  42.091  13.305
66464W        W34693  14.707  23.492  14.459
66465W        W34694   3.565  34.178   0.037
66466W        W34695  33.147  25.504  11.173
66467W        W34696  24.000  43.308   4.134
66468W        W34697  23.240  38.120  14.693
66469W        W34698  25.282  19.187   1.948
66470W        W34699   7.095  26.315   4.968
66471W        W34700   7.097  25.095   1.462
66472W        W34701   1.891  22.079  14.498
66473W        W34702  32.091  32.157   4.179
66474W        W34703   6.129  24.155   2.864
66475W        W34704   7.336   0.364  13.761
66476W        W34705   0.006  35.404   2.816
66477W        W34706  43.822  27.672  11.103
66478W        W34707  20.166  12.833  10.730
66479W        W34708  25.044  31.096  11.690
66480W        W34709  23.800   5.225  14.768
66481W        W34710  18.290   6.895  14.097
66482W        W34711  40.896  28.369   1.288
66483W        W34712  29.007  41.966  14.190
66484W        W34713  44.062   3.551   0.836
66485W        W34714  18.390   1.412   3.471
66486W        W34715  33.034  10.806  10.517
66487W        W34716  33.439  36.194   2.650
66488W        W34717  14.083  43.228  14.761
66489W        W34718  21.256  32.665  12.232
66490W        W34719   1.720   9.220  13.907
66491W        W34720  21.995   1.390   1.915
66492W        W34721  17.666  34.161   1.786
66493W        W34722  18.176  37.095  14.008
66494W        W34723  21.228  39.086  14.543
66495W        W34724  40.718   6.223  14.490
66496W        W34725  26.927  11.679   0.350
66497W        W34726  26.740  38.967  12.464
66498W        W34727  17.306  17.810   3.592
66499W        W34728   8.521  23.392  11.660
66500W        W34729   4.763  30.284   3.648
66501W        W34730  34.589  39.871   4.701
66502W        W34731  28.667  22.141  13.346
66503W        W34732  38.505  37.262  14.499
66504W        W34733  43.223  40.361  12.084
66505W        W34734   2.901  34.128  13.834
66506W        W34735  13.749  33.649  11.143
66507W        W34736  34.937  23.142  10.643
66508W        W34737  20.207  35.685   1.836
66509W        W34738  12.050  22.696  10.488
66510W        W34739  44.377   0.277   0.977
66511W        W34740   0.291  21.022  11.976
66512W        W34741   2.505   5.796   3.306
66513W        W34742  30.015  14.475   3.298
66514W        W34743  14.583  25.625  14.347
66515W        W34744  11.148  10.116   2.816
66516W        W34745  18.634  16.069   4.052
66517W        W34746  40.161  31.492  14.419
66518W        W34747  20.245  16.417  14.164
66519W        W34748  28.578  33.897  10.593
66520W        W34749  24.684  44.321   1.779
66521W        W34750   2.735   6.879  14.011
66522W        W34751   9.109   0.443  12.333
66523W        W34752  15.902   8.277  13.965
66524W        W34753  31.455  23.553   0.582
66525W        W34754  40.468  34.862  10.341
66526W        W34755  39.039  19.661  13.845
66527W        W34756   9.128  41.088  13.448
66528W        W34757  41.410  30.106   1.410
66529W        W34758  13.681  29.425  13.526
66530W        W34759  24.754  17.686   0.333
66531W        W34760  30.435   2.775   2.411
66532W        W34761  15.204  12.319   1.186
66533W        W34762  10.179  42.582  12.490
66534W        W34763  19.705  10.142   3.138
66535W        W34764  26.627  26.454   2.749
66536W        W34765  42.112  18.658   1.816
66537W        W34766  13.103  31.070  12.872
66538W        W34767   4.258   0.404   2.843
66539W        W34768  43.275  40.473   1.728
66540W        W34769   1.353  28.225  13.977
66541W        W34770   8.297   6.291  12.883
66542W        W34771   7.867  23.187   3.108
66543W        W34772  18.321  34.873  10.630
66544W        W34773  36.346   9.050  11.505
66545W        W34774  35.607  41.573   0.816
66546W        W34775   4.645  20.776   2.888
66547W        W34776  11.246  10.455   3.716
66548W        W34777  21.514  23.425  14.987
66549W        W34778  34.147  20.429  14.437
66550W        W34779  37.899   8.606  11.635
66551W        W34780  23.498  41.116   2.305
66552W        W34781   4.149  18.750  12.438
66553W        W34782   2.852  15.230  14.321
66554W        W34783  37.720   5.285   0.895
66555W        W34784  12.322  25.461   0.231
66556W        W34785  22.806  28.138   1.444
66557W        W34786   4.255  20.819   4.898
66558W        W34787   8.828  38.985   1.832
66559W        W34788  36.384  42.090  13.800
66560W        W34789  20.042  42.930  10.715
66561W        W34790  39.071  22.753   0.962
66562W        W34791  34.381   2.799   1.524
66563W        W34792   2.029   1.718  13.562
66564W        W34793  43.371  20.147   2.275
66565W        W34794  42.543  10.392   0.241
66566W        W34795  11.055  10.352   1.548
66567W        W34796  31.977  36.028  13.551
66568W        W34797  28.912   9.881   3.542
66569W        W34798  36.117   3.192  11.947
66570W        W34799  35.337  40.782   0.173
66571W        W34800  34.301  32.439  14.015
66572W        W34801  44.768  26.450   4.151
66573W        W34802  29.594  19.569   1.345
66574W        W34803  13.620  17.620   4.693
66575W        W34804  16.261  28.072   1.559
66576W        W34805  35.458  42.292   1.022
66577W        W34806  33.483  34.028   2.682
66578W        W34807   6.268  44.855  12.613
66579W        W34808  13.710  25.023   0.252
66580W        W34809  20.726   1.950  11.886
66581W        W34810  34.813  37.951   4.527
66582W        W34811  26.575  26.936  10.467
66583W        W34812  42.398  14.151   2.760
66584W        W34813   9.711  32.296  11.057
66585W        W34814  11.849  31.886  14.341
66586W        W34815  11.826   2.759   0.533
66587W        W34816  43.537  43.093  11.180
66588W        W34817  12.083  20.339  13.718
66589W        W34818  38.099   9.153  14.300
66590W        W34819  44.865  14.297   3.181
66591W        W34820  41.819  22.027  13.097
66592W        W34821   8.373  34.396  11.573
66593W        W34822   5.153  37.869  11.920
66594W        W34823   7.962   8.962  11.648
66595W        W34824  40.405  37.858  13.080
66596W        W34825   9.895  34.019   2.741
66597W        W34826  35.874  43.978  12.830
66598W        W34827  38.013  32.544  10.648
66599W        W34828   4.682  16.188  10.755
66600W        W34829  38.009  19.037   4.275
66601W        W34830  17.776   9.316   2.974
66602W        W34831   2.758  43.496  13.426
66603W        W34832  39.297   2.010  13.035
66604W        W34833  29.983  37.514  12.591
66605W        W34834  26.577  21.594   0.484
66606W        W34835  18.162   4.659  14.582
66607W        W34836  41.967  26.596   2.089
66608W        W34837  37.853  29.004   3.274
66609W        W34838  20.248   3.407  13.033
66610W        W34839  25.516  31.463   0.414
66611W        W34840  14.005   9.465   0.442
66612W        W34841  38.066  27.166  14.900
66613W        W34842   9.284  37.102   4.527
66614W        W34843  31.428  27.678   0.329
66615W        W34844  24.755  30.458  12.077
66616W        W34845   9.563  35.777   3.596
66617W        W34846  33.561  11.358  13.066
66618W        W34847  22.003  13.987   3.714
66619W        W34848  29.357  40.874  13.770
66620W        W34849  21.613  18.161   0.825
66621W        W34850  14.659  43.047  12.190
66622W        W34851  43.990  18.934  11.115
66623W        W34852   8.711  15.146   0.514
66624W        W34853  35.167  17.731  11.426
66625W        W34854  41.731  37.985  14.877
66626W        W34855  24.463  23.135  14.883
66627W        W34856  13.048  24.034   0.906
66628W        W34857   6.307  19.767  13.439
66629W        W34858  44.271   2.470   3.255
66630W        W34859  14.643  44.861   0.454
66631W        W34860  42.531  43.134  11.156
66632W        W34861  44.439  17.199   0.245
66633W        W34862  42.408  40.416   4.512
66634W        W34863   7.303  43.972  11.120
66635W        W34864  23.452   3.268  11.677
66636W        W34865  31.687  24.889   0.797
66637W        W34866  42.312  22.065  11.029
66638W        W34867  22.425  14.889   2.469
66639W        W34868  37.183  37.555  11.069
66640W        W34869  24.851  20.347  11.126
66641W        W34870  10.802   2.276   2.816
66642W        W34871  17.936  43.944   0.876
66643W        W34872  13.239   1.918   0.447
66644W        W34873  41.280  41.337   2.146
66645W        W34874  27.462   0.458   0.393
66646W        W34875  36.738  19.002  11.953
66647W        W34876  35.156   0.833   4.152
66648W        W34877  28.639   1.283   3.043
66649W        W34878   5.807  21.400   4.811
66650W        W34879  33.491  33.354   9.845
66651W        W34880  20.623  18.035  14.458
66652W        W34881   1.793   1.995   2.033
66653W        W34882  28.463  31.048   1.310
66654W        W34883  42.523   1.096  13.979
66655W        W34884  19.558   7.142   3.203
66656W        W34885  21.184  38.551   2.851
66657W        W34886  24.296  29.114   2.777
66658W        W34887  40.010  21.572  14.782
66659W        W34888  35.938  26.649  14.482
66660W        W34889  20.793   0.353  10.852
66661W        W34890  44.043   1.935   1.826
66662W        W34891  42.497  32.035   3.972
66663W        W34892  17.357   7.268   2.897
66664W        W34893   0.800  29.332  11.405
66665W        W34894  17.261  35.330  14.430
66666W        W34895  41.976  31.710   1.787
66667W        W34896  30.597  41.504  14.783
66668W        W34897  25.618  33.485  14.447
66669W        W34898  10.087  42.808   1.356
66670W        W34899  16.294   2.303   3.807
66671W        W34900  41.759  17.196   2.877
66672W        W34901   9.796   5.649  12.034
66673W        W34902  28.186  43.346   0.278
66674W        W34903  39.041  35.459  14.342
66675W        W34904  44.314  37.049   4.979
66676W        W34905  40.133  31.624  13.524
66677W        W34906  27.539  19.481   2.910
66678W        W34907  27.109   9.957  14.996
66679W        W34908  24.483  41.423   3.248
66680W        W34909  34.470   2.464  10.747
66681W        W34910   3.265  26.018   2.267
66682W        W34911  10.292   8.949  12.840
66683W        W34912  30.518  43.479  14.861
66684W        W34913   8.782   5.909   0.928
66685W        W34914  10.178   7.374  11.874
66686W        W34915  39.032  31.671   4.851
66687W        W34916  11.685  13.143  10.479
66688W        W34917  17.512  12.631   1.145
66689W        W34918  13.986  29.017  13.374
66690W        W34919  13.192  27.389  10.679
66691W        W34920  23.493   3.489   4.835
66692W        W34921  16.767  14.079   0.771
66693W        W34922  37.728  40.484   0.477
66694W        W34923  44.957  11.042   1.306
66695W        W34924   6.858  44.494  12.053
66696W        W34925  27.510  39.454   1.673
66697W        W34926  22.051   2.705  12.639
66698W        W34927  15.045  22.381   1.441
66699W        W34928   9.897  41.031   0.833
66700W        W34929  33.570  30.997   2.356
66701W        W34930   6.585  38.088   1.732
66702W        W34931   8.052  35.083   0.367
66703W        W34932  20.570  42.734   0.795
66704W        W34933  31.461  13.459  14.258
66705W        W34934  35.573  20.686  10.651
66706W        W34935  13.529  35.160  14.941
66707W        W34936   0.613  19.410   9.895
66708W        W34937  19.641  35.425   0.339
66709W        W34938   6.831   6.262   4.217
66710W        W34939   6.254  14.034   0.909
66711W        W34940   1.762   1.648   0.239
66712W        W34941  40.454  43.074  12.624
66713W        W34942  42.054   9.687   3.715
66714W        W34943  27.121   8.184   4.515
66715W        W34944   2.696   5.938   2.327
66716W        W34945  15.844  40.581   2.140
66717W        W34946   5.273  36.020  14.701
66718W        W34947  28.134  43.300  12.469
66719W        W34948   8.936  12.133  11.987
66720W        W34949  40.579   8.841  11.047
66721W        W34950  18.518   3.294   3.668
66722W        W34951  13.368  27.950  12.864
66723W        W34952  15.380   1.429   1.747
66724W        W34953  20.769   0.365  12.928
66725W        W34954  20.554  33.382  14.440
66726W        W34955  31.853   0.481   3.690
66727W        W34956  10.006  41.549   4.216
66728W        W34957  33.065   1.339  12.952
66729W        W34958  36.411  41.930   3.924
66730W        W34959  32.639  24.522  14.693
66731W        W34960  10.385  22.698  14.594
66732W        W34961   1.085  16.027   4.523
66733W        W34962  16.656  15.267  14.362
66734W        W34963  13.651  37.788  11.536
66735W        W34964  15.908   7.328  11.158
66736W        W34965  22.208   7.853   4.248
66737W        W34966  32.332  28.512   1.324
66738W        W34967  41.969  15.864   2.326
66739W        W34968   7.286  10.292  10.740
66740W        W34969  39.307   5.572   4.570
66741W        W34970  38.073   0.464  10.994
66742W        W34971  20.977  17.059   3.988
66743W        W34972  33.970   3.760   1.485
66744W        W34973  25.177  24.618   2.739
66745W        W34974   1.215  12.032  13.595
66746W        W34975   8.178   7.170   3.657
66747W        W34976  21.703  41.510   0.710
66748W        W34977  39.840  31.155  13.659
66749W        W34978   5.429  23.783   1.423
66750W        W34979   3.784  28.569  14.749
66751W        W34980  24.616   2.418   0.796
66752W        W34981  43.843  27.058  12.918
66753W        W34982  19.815  37.954   1.014
66754W        W34983  27.031  32.022  14.868
66755W        W34984  25.520   3.496   1.206
66756W        W34985  25.005  17.233  13.579
66757W        W34986  19.788  37.247  12.425
66758W        W34987   0.021  29.222  14.518
66759W        W34988   5.387  13.674  13.857
66760W        W34989   6.705   4.318  10.697
66761W        W34990  12.390  13.201  11.267
66762W        W34991  40.442  35.819   3.115
66763W        W34992  27.423  42.037  12.428
66764W        W34993  28.204  36.599  11.322
66765W        W34994  43.531   5.803   4.104
66766W        W34995  15.879  16.705   1.445
66767W        W34996  22.791  38.423  14.362
66768W        W34997   0.528  29.933  11.663
66769W        W34998  22.192  25.441   1.347
66770W        W34999   2.298   8.858  14.459
66771W        W35000  36.300   7.919   0.374
66772W        W35001   3.792  25.229   0.684
66773W        W35002  34.499  15.591   4.653
66774W        W35003  37.711   1.087  11.723
66775W        W35004  40.943  44.300   4.667
66776W        W35005  16.685  16.645  11.640
66777W        W35006  44.080   4.293  13.585
66778W        W35007  13.220  21.735  10.705
66779W        W35008  13.841  35.731  10.513
66780W        W35009  20.821  25.059  14.108
66781W        W35010  12.118   2.699  13.006
66782W        W35011  36.350  24.070   4.484
66783W        W35012  19.035   0.529   0.273
66784W        W35013  11.598  34.452   0.185
66785W        W35014  41.198   9.577  13.641
66786W        W35015  17.800  11.725   3.654
66787W        W35016  36.256  40.838   1.219
66788W        W35017  31.968   2.179   0.858
66789W        W35018  39.445  12.588  14.012
66790W        W35019  17.645  10.867   1.382
66791W        W35020  38.130  19.326  13.713
66792W        W35021   8.307   2.301   3.716
66793W        W35022  31.873  41.236  12.241
66794W        W35023  16.731  19.850   1.598
66795W        W35024   2.348  27.153   4.547
66796W        W35025  24.960  14.697   2.352
66797W        W35026  10.187   2.229   3.667
66798W        W35027  40.734  38.310  12.028
66799W        W35028  24.022  24.157  10.772
66800W        W35029  12.624  10.618   0.844
66801W        W35030  42.777   6.852   1.063
66802W        W35031  39.462  37.356  12.068
66803W        W35032   4.281  31.646   3.196
66804W        W35033  35.321  31.048  13.912
66805W        W35034   6.314  36.939  10.437
66806W        W35035   8.895  21.183  13.475
66807W        W35036  26.224   6.838  11.132
66808W        W35037  23.154  17.276  12.467
66809W        W35038  26.866  17.704   2.771
66810W        W35039  33.111  17.112   1.518
66811W        W35040  17.812  29.528   1.283
66812W        W35041  18.217  19.535  11.567
66813W        W35042  44.840  12.121   0.320
66814W        W35043   9.795   2.363  13.094
66815W        W35044   5.349  30.480  12.498
66816W        W35045  43.296  43.111   1.869
66817W        W35046  31.998  15.531  14.926
66818W        W35047  28.092  29.432   0.264
66819W        W35048   1.195   7.359   3.859
66820W        W35049  13.136  40.807  11.926
66821W        W35050  42.460  42.655  13.507
66822W        W35051  42.923  40.752  14.370
66823W        W35052  43.750  12.812  12.506
66824W        W35053  40.960  44.866  12.999
66825W        W35054  42.478   2.988  12.339
66826W        W35055  21.294  33.811   2.187
66827W        W35056   2.049  31.423  13.018
66828W        W35057  10.602  26.833   3.644
66829W        W35058  11.776  26.316   2.706
66830W        W35059  24.091  33.525   4.074
66831W        W35060  42.060  38.852  10.636
66832W        W35061   0.049   8.794  14.998
66833W        W35062  27.933  16.073   4.952
66834W        W35063  18.120  27.955   0.315
66835W        W35064  23.820  29.399   1.295
66836W        W35065  34.483  12.046   4.189
66837W        W35066  43.412  34.379   2.620
66838W        W35067  40.313   8.052  10.200
66839W        W35068  29.691  12.501  11.510
66840W        W35069  37.883  38.530   2.157
66841W        W35070  22.816  43.363   2.890
66842W        W35071   0.499   4.286  11.164
66843W        W35072   5.998   2.869  10.508
66844W        W35073  13.670  18.637  13.357
66845W        W35074   7.222  41.925   4.633
66846W        W35075  16.962  33.265   3.156
66847W        W35076  16.790   1.807   0.051
66848W        W35077   2.308  43.843  14.475
66849W        W35078  15.932  40.334   1.128
66850W        W35079  25.475  38.004  12.902
66851W        W35080  32.019  33.073   4.707
66852W        W35081  21.833   4.745   0.281
66853W        W35082  15.868  16.244   1.846
66854W        W35083  18.875  23.066   4.022
66855W        W35084   1.535   6.816   2.698
66856W        W35085  31.561  27.697   0.847
66857W        W35086  34.425  23.992  12.449
66858W        W35087  16.782  32.472  14.490
66859W        W35088  22.942   0.223  13.562
66860W        W35089  28.448  30.310  10.722
66861W        W35090  23.046  13.254   3.118
66862W        W35091  29.867  27.476   2.818
66863W        W35092   2.765  32.095   1.458
66864W        W35093  13.895  17.329  10.052
66865W        W35094   8.365  26.836  11.002
66866W        W35095  12.781  40.342  14.694
66867W        W35096  41.007   9.318  14.965
66868W        W35097   5.934  32.069   1.322
66869W        W35098  38.205  18.687   4.640
66870W        W35099  29.948  14.106   1.679
66871W        W35100  19.301  13.619  11.223
66872W        W35101  18.049  38.954  10.425
66873W        W35102   8.258  23.916   3.155
66874W        W35103  14.894   5.720   1.951
66875W        W35104  39.819   1.452   0.464
66876W        W35105  19.124   5.863   3.288
66877W        W35106  32.353   5.741   2.310
66878W        W35107  40.979   1.400  13.082
66879W        W35108  27.075  19.680   3.574
66880W        W35109  37.758  15.321   1.135
66881W        W35110   0.295  10.592  12.066
66882W        W35111  12.673   0.775  10.695
66883W        W35112   1.748  42.199   2.702
66884W        W35113  16.111   8.878   0.719
66885W        W35114  24.978  41.835   4.141
66886W        W35115   0.436  29.362   0.372
66887W        W35116  25.510  39.890  13.741
66888W        W35117   2.042  10.772   4.642
66889W        W35118  12.888   8.346  11.666
66890W        W35119  39.771   5.326  11.858
66891W        W35120   6.583  30.986  12.527
66892W        W35121  32.856  42.100  11.641
66893W        W35122  43.893  10.927  14.314
66894W        W35123  32.456  37.734   1.270
66895W        W35124   9.256  28.512   3.293
66896W        W35125  22.537  27.996  10.294
66897W        W35126   4.963  17.579   1.870
66898W        W35127  13.282  11.945  14.508
66899W        W35128  11.863  11.230  11.026
66900W        W35129  30.830  40.944  13.075
66901W        W35130  39.546  42.174   1.210
66902W        W35131  28.431   9.390   4.147
66903W        W35132  24.442  43.776  13.820
66904W        W35133  22.671   1.916  12.094
66905W        W35134  29.352   3.996   1.951
66906W        W35135  29.667  32.276  14.922
66907W        W35136   9.258  14.952   1.242
66908W        W35137  34.290  43.808   2.374
66909W        W35138  36.520  37.123   0.837
66910W        W35139  24.937   3.290   4.035
66911W        W35140  12.226   9.193   3.295
66912W        W35141  17.523  22.990  11.911
66913W        W35142  12.270   9.417   0.529
66914W        W35143  39.200  16.318  13.446
66915W        W35144   7.486  24.963  13.820
66916W        W35145   6.382  22.113   4.814
66917W        W35146   1.438  17.526  12.409
66918W        W35147  22.565  20.850   0.740
66919W        W35148   2.428  33.741  11.993
66920W        W35149   0.383  30.948   2.152
66921W        W35150  28.933   9.955  13.156
66922W        W35151  33.568   2.982   2.832
66923W        W35152  30.598  44.702   3.804
66924W        W35153  44.484  12.993  12.451
66925W        W35154  31.002  14.195   1.812
66926W        W35155  17.794  44.748  12.457
66927W        W35156  16.064  24.963  13.551
66928W        W35157   5.300  33.998   1.310
66929W        W35158  13.351   0.922   0.828
66930W        W35159  36.951  20.340   0.087
66931W        W35160  43.479  12.072  12.973
66932W        W35161  32.572  43.650   4.128
66933W        W35162  17.251   0.853   2.365
66934W        W35163  34.494  27.975  12.417
66935W        W35164  35.473  36.667   1.871
66936W        W35165   3.910   1.937   4.622
66937W        W35166  14.119  41.757   0.381
66938W        W35167  25.878  26.092   0.040
66939W        W35168  27.965  11.078  11.828
66940W        W35169   7.193  23.538  11.798
66941W        W35170  23.550  39.596  12.270
66942W        W35171  14.115  33.210  11.263
66943W        W35172  25.958   4.687   4.226
66944W        W35173  37.548  35.453   4.548
66945W        W35174  44.395  15.404  14.976
66946W        W35175   5.990  29.414   4.645
66947W        W35176  42.800  22.644   1.746
66948W        W35177  37.525  34.108  12.862
66949W        W35178  19.135  19.310   1.581
66950W        W35179   2.209  19.065  13.880
66951W        W35180  36.953  40.255  11.950
66952W        W35181  12.085  32.376  10.467
66953W        W35182   0.685  28.886   0.450
66954W        W35183   9.103  13.611  13.502
66955W        W35184  30.687  43.940   0.469
66956W        W35185  35.547   5.699   0.812
66957W        W35186  34.170  38.104   2.342
66958W        W35187  32.447  22.914   1.696
66959W        W35188  18.880  36.033   1.665
66960W        W35189   1.963  35.155  12.947
66961W        W35190  33.897   5.740  13.117
66962W        W35191  23.274  40.543  11.939
66963W        W35192  39.973  23.208   3.705
66964W        W35193  38.053  18.831  13.115
66965W        W35194   3.309  41.701   3.623
66966W        W35195   2.154  19.848   2.900
66967W        W35196  24.115  21.939   1.900
66968W        W35197   4.018  18.108   3.619
66969W        W35198   7.250  23.219  12.188
66970W        W35199  25.515   8.603   4.622
66971W        W35200  15.486  18.211   3.489
66972W        W35201  12.686  13.679   2.186
66973W        W35202  21.018   7.886  12.620
66974W        W35203  38.524   0.069  12.061
66975W        W35204  43.244  17.686  14.950
66976W        W35205   9.367  25.597  14.125
66977W        W35206  35.884  21.623   0.198
66978W        W35207  30.243  26.757   0.828
66979W        W35208  16.750  31.987   3.687
66980W        W35209  16.338  44.026   0.816
66981W        W35210   6.270  10.356  10.454
66982W        W35211   5.172   0.745  12.491
66983W        W35212  29.014  12.130  10.559
66984W        W35213  12.657   4.668   2.784
66985W        W35214  20.305  35.834  11.180
66986W        W35215  21.212  33.348  13.152
66987W        W35216  41.733  42.810  13.083
66988W        W35217   5.956  23.100   3.225
66989W        W35218   0.736   3.833  11.117
66990W        W35219  32.348  21.222  11.257
66991W        W35220  18.176   0.605   0.790
66992W        W35221  16.187  40.528   0.407
66993W        W35222  23.759  17.252   0.792
66994W        W35223  23.902  34.557   0.112
66995W        W35224  28.699   7.782   1.765
66996W        W35225  18.762  32.197   0.218
66997W        W35226  22.133  27.982   0.013
66998W        W35227   7.936  37.519  10.705
66999W        W35228  32.604   3.092   0.408
67000W        W35229  37.219  38.824  11.675
67001W        W35230  33.767  12.920  13.546
67002W        W35231  10.822  34.532  13.304
67003W        W35232  22.234   2.854   4.953
67004W        W35233  16.517  26.052  14.477
67005W        W35234  37.497  20.031   2.957
67006W        W35235  14.928   5.261  11.549
67007W        W35236  19.750  28.107   1.165
67008W        W35237  38.991   3.665   1.029
67009W        W35238  44.298  20.116  14.910
67010W        W35239  12.237  15.436  13.034
67011W        W35240  38.576  32.130  12.004
67012W        W35241  19.093  25.671  13.804
67013W        W35242  11.209   8.863   2.344
67014W        W35243  29.934  43.590  12.102
67015W        W35244  28.874  40.117  11.062
67016W        W35245   4.109   2.124  10.963
67017W        W35246  24.541  21.018  10.568
67018W        W35247  29.680  19.797  13.559
67019W        W35248  10.970  44.448   3.291
67020W        W35249  14.053   8.924   0.326
67021W        W35250  26.046  11.903   3.167
67022W        W35251   8.226  33.299  14.858
67023W        W35252   4.856  44.726   4.490
67024W        W35253  15.525   8.003  12.415
67025W        W35254  17.397   5.118   0.042
67026W        W35255   4.510  19.132  12.406
67027W        W35256  18.032  21.051  10.004
67028W        W35257   7.903  41.477  13.628
67029W        W35258  11.832  29.607   1.236
67030W        W35259  34.220  15.924   4.035
67031W        W35260   4.085  15.104  12.977
67032W        W35261  38.860  14.655   2.199
67033W        W35262  41.502  40.994  14.250
67034W        W35263  33.050   2.945  13.728
67035W        W35264  22.643  17.183  12.127
67036W        W35265  38.027  37.659   3.803
67037W        W35266  26.333  20.916   4.524
67038W        W35267   7.643  23.814  12.568
67039W        W35268  30.382   4.652   0.478
67040W        W35269  15.269  35.774  11.087
67041W        W35270  34.379  15.245   1.303
67042W        W35271  39.907  10.887   0.808
67043W        W35272  42.237  26.048  12.569
67044W        W35273   3.999  16.262   2.805
67045W        W35274   8.699   4.638   4.970
67046W        W35275  10.340   0.690  14.622
67047W        W35276  32.411  11.094   0.076
67048W        W35277  42.370  32.411   1.352
67049W        W35278  39.558  13.284   2.375
67050W        W35279  42.116  39.999  14.405
67051W        W35280  18.154   6.774   2.313
67052W        W35281  37.562   9.710  10.880
67053W        W35282  37.482  13.378   1.874
67054W        W35283  14.504  17.247  13.424
67055W        W35284  24.553  20.190  14.732
67056W        W35285  24.652   4.640  12.586
67057W        W35286  26.526  44.872  13.034
67058W        W35287  34.411  29.967  12.775
67059W        W35288  37.627  40.159   1.333
67060W        W35289  15.787  35.637   0.285
67061W        W35290  36.597   4.671  11.124
67062W        W35291  32.651   0.913   2.335
67063W        W35292  27.649   8.291  12.433
67064W        W35293  38.502   3.785   1.158
67065W        W35294  38.631  14.721   0.333
67066W        W35295   1.889  43.455  11.596
67067W        W35296  27.717  39.148  11.046
67068W        W35297  40.257   0.509  14.345
67069W        W35298  29.670  16.073  11.934
67070W        W35299  12.302  15.165   9.802
67071W        W35300  31.836  40.769  10.912
67072W        W35301  40.942  41.934   3.742
67073W        W35302  37.632   0.391   4.637
67074W        W35303  33.009  12.691  10.834
67075W        W35304  11.718  23.051   0.653
67076W        W35305  21.564  15.650   3.820
67077W        W35306  38.518  42.284   2.830
67078W        W35307   0.702  30.789  13.470
67079W        W35308   0.050  41.954  12.870
67080W        W35309  12.085  42.586   2.638
67081W        W35310  41.519  33.005   1.278
67082W        W35311  26.711  31.934   2.726
67083W        W35312  20.500  12.195  10.692
67084W        W35313  18.786  44.797  13.599
67085W        W35314   1.721  22.754  12.512
67086W        W35315   9.422  43.716  13.834
67087W        W35316  14.575  20.988  14.957
67088W        W35317  35.354  10.868   3.493
67089W        W35318  38.470  22.476  11.560
67090W        W35319  38.268  20.741  11.190
67091W        W35320  42.344  28.824  12.322
67092W        W35321  15.339   6.878  10.763
67093W        W35322  39.900  23.684  11.390
67094W        W35323  19.220  33.612   3.268
67095W        W35324   4.400  20.557  13.694
67096W        W35325  19.149  14.662  13.006
67097W        W35326   9.083  20.455  13.530
67098W        W35327   2.352  39.017   1.298
67099W        W35328  41.993  32.927   2.357
67100W        W35329  18.123  37.270   2.350
67101W        W35330  14.243  44.258  12.519
67102W        W35331  44.404  37.505   2.595
67103W        W35332  16.547   8.599   3.644
67104W        W35333  42.754  28.514   2.395
67105W        W35334  31.146  22.735   3.722
67106W        W35335   1.272  29.393  11.620
67107W        W35336  18.710   3.487   4.876
67108W        W35337   3.216  29.724  13.816
67109W        W35338  44.337  44.101  12.959
67110W        W35339  34.343  15.018  11.005
67111W        W35340  19.037  33.345   0.198
67112W        W35341  26.239  11.206  13.908
67113W        W35342  40.913  41.908   0.331
67114W        W35343   7.801  12.863  14.514
67115W        W35344  36.475  33.400   0.420
67116W        W35345   9.459  10.758   4.819
67117W        W35346  34.158  10.367   3.493
67118W        W35347  41.876   3.266  10.675
67119W        W35348  30.041  41.807   0.317
67120W        W35349   8.164  15.235  11.949
67121W        W35350  24.786  13.185  11.155
67122W        W35351   6.393  43.532   3.956
67123W        W35352   6.164  25.682  14.419
67124W        W35353   0.455  34.093  10.736
67125W        W35354  19.378  35.548   4.982
67126W        W35355  26.136  39.451  14.762
67127W        W35356  31.657   2.418  12.792
67128W        W35357  27.116   4.912   0.150
67129W        W35358   3.863  40.770  11.967
67130W        W35359  27.735   4.776  13.295
67131W        W35360  26.255  17.096  13.992
67132W        W35361  33.093  16.356  14.782
67133W        W35362   3.707  14.589  10.704
67134W        W35363  42.811  39.610  13.891
67135W        W35364  14.105   3.807   4.677
67136W        W35365  32.805  36.385   0.155
67137W        W35366  42.863  18.688  13.976
67138W        W35367  21.044   7.943   2.705
67139W        W35368  33.859  27.878   4.733
67140W        W35369  27.177  12.444   4.186
67141W        W35370  16.112   5.821  12.591
67142W        W35371   6.984  25.638  10.824
67143W        W35372  35.443   1.440  10.651
67144W        W35373  13.694  19.472   0.259
67145W        W35374  20.435  44.974   2.785
67146W        W35375  22.732  16.944  12.572
67147W        W35376   9.738  15.848   0.039
67148W        W35377   2.212   6.515  13.197
67149W        W35378  41.101  12.786   3.808
67150W        W35379   7.617  39.458   0.919
67151W        W35380  28.944   2.558   3.449
67152W        W35381  32.335  11.691   2.483
67153W        W35382  30.484  10.840  13.409
67154W        W35383  44.423  43.783  12.098
67155W        W35384  43.268  35.325  14.881
67156W        W35385   3.720  36.671   2.326
67157W        W35386   6.649  12.117   1.265
67158W        W35387  43.867  32.641  12.836
67159W        W35388  31.462   6.019   3.477
67160W        W35389  13.930  31.483   2.201
67161W        W35390  41.356  20.919   2.715
67162W        W35391  40.317   6.283  10.634
67163W        W35392  35.661   2.368  13.052
67164W        W35393  19.279  38.408   1.249
67165W        W35394  17.388  24.536   3.356
67166W        W35395  17.381   4.309  13.996
67167W        W35396  29.649   3.246   2.185
67168W        W35397  20.752  28.342   1.296
67169W        W35398   8.721  15.121  11.970
67170W        W35399   2.993  19.330   4.885
67171W        W35400  29.920  16.951   3.276
67172W        W35401  43.158  19.363   3.652
67173W        W35402  10.240  25.569   2.260
67174W        W35403  29.693  17.749   3.339
67175W        W35404   6.791  41.813  12.023
67176W        W35405  20.061   6.471   1.491
67177W        W35406  37.974  38.559  13.940
67178W        W35407   8.874  20.500   2.876
67179W        W35408   7.102   5.800  10.637
67180W        W35409   9.788  22.825  13.426
67181W        W35410   7.025   3.571   3.025
67182W        W35411   9.268   1.493   1.388
67183W        W35412  44.955  35.548  10.998
67184W        W35413  39.514  36.462   4.663
67185W        W35414  41.615  25.965   2.989
67186W        W35415  28.188  41.025   3.648
67187W        W35416  37.798  10.164  10.910
67188W        W35417  39.450  40.266  11.984
67189W        W35418   3.917  24.618  13.466
67190W        W35419  28.685  31.128   2.350
67191W        W35420   4.904  39.978   2.847
67192W        W35421  13.853  25.041  10.558
67193W        W35422  26.934  40.546   1.385
67194W        W35423  14.078  25.742  14.366
67195W        W35424   4.941  39.570   0.827
67196W        W35425  35.074   4.715  11.739
67197W        W35426   8.043  10.849   2.737
67198W        W35427  39.619  27.704   0.536
67199W        W35428   5.270  40.853   0.610
67200W        W35429  21.505  23.152   4.576
67201W        W35430  18.009  14.672   0.413
67202W        W35431   5.212   5.862   4.878
67203W        W35432  33.382  24.657   3.129
67204W        W35433  42.674  11.138  12.068
67205W        W35434  15.795  14.876  12.536
67206W        W35435   6.775  16.212  13.906
67207W        W35436   9.338   5.398  12.022
67208W        W35437  23.944  11.379  11.791
67209W        W35438  10.635  24.468   4.306
67210W        W35439   4.374   0.434  13.038
67211W        W35440  42.839   7.218  12.924
67212W        W35441  32.959  24.760   0.407
67213W        W35442  14.160  25.306   0.209
67214W        W35443  35.789  12.214  10.552
67215W        W35444  26.549   8.632   2.786
67216W        W35445  12.105  10.640   0.416
67217W        W35446  38.643  36.815   0.242
67218W        W35447   4.419  25.451   3.202
67219W        W35448  31.922  11.166  11.878
67220W        W35449  20.551  38.196   1.853
67221W        W35450  26.468  22.512   3.402
67222W        W35451  35.702   5.033   1.941
67223W        W35452  28.068  33.436  14.096
67224W        W35453  38.078  44.316   3.383
67225W        W35454  11.821  30.611   2.649
67226W        W35455  31.001  23.197   1.920
67227W        W35456   3.816   7.266  10.666
67228W        W35457  23.517  16.615   4.056
67229W        W35458   1.320  10.674  11.420
67230W        W35459  39.119  25.738  14.372
67231W        W35460  23.908  29.921   4.014
67232W        W35461  10.462  27.784  11.603
67233W        W35462   0.344  19.288   4.104
67234W        W35463  41.437  39.150   3.751
67235W        W35464  32.886   8.185   3.104
67236W        W35465  43.133  33.909  13.862
67237W        W35466  29.331  15.573  14.414
67238W        W35467   4.828  13.388   2.689
67239W        W35468  11.320  13.143   0.230
67240W        W35469   3.162   0.962  10.894
67241W        W35470  19.618   2.798   3.247
67242W        W35471  11.778  22.450  11.999
67243W        W35472  37.515  37.320  14.166
67244W        W35473  35.035  19.143   0.217
67245W        W35474  41.518  19.636  13.004
67246W        W35475  34.370   4.777  14.807
67247W        W35476  24.518   6.484  13.160
67248W        W35477   9.449  32.117   0.537
67249W        W35478   5.005  36.908   2.782
67250W        W35479   8.980  11.419  11.413
67251W        W35480  26.321  40.455  12.677
67252W        W35481  33.005   0.507  11.926
67253W        W35482  18.148  42.941  12.211
67254W        W35483  24.266  40.880  11.212
67255W        W35484  27.073  12.620  12.654
67256W        W35485  23.114  10.665  10.745
67257W        W35486   6.534  22.476   0.738
67258W        W35487  36.627   1.657  11.141
67259W        W35488  22.539  14.334  13.342
67260W        W35489  40.557   9.789  11.179
67261W        W35490   6.589  43.425  14.726
67262W        W35491  18.694  12.641  12.391
67263W        W35492   7.574  13.170   0.315
67264W        W35493   6.402  21.069  12.108
67265W        W35494  31.783  33.895   4.221
67266W        W35495  11.534  35.689  12.771
67267W        W35496  24.621  27.982   0.690
67268W        W35497  23.825  22.597   0.477
67269W        W35498  29.480   1.941   1.873
67270W        W35499  26.517  26.388   0.891
67271W        W35500  25.232   6.279   3.753
67272W        W35501  38.117  31.627   2.620
67273W        W35502  34.545  26.668  11.426
67274W        W35503  18.230  20.706  13.379
67275W        W35504  32.410  35.867  13.340
67276W        W35505  37.851   2.021   2.378
67277W        W35506  43.310   9.063   2.120
67278W        W35507  39.534  20.622   1.731
67279W        W35508  28.908  32.661   1.496
67280W        W35509  21.928  19.146   3.853
67281W        W35510  12.219  36.499  13.006
67282W        W35511   0.449  22.191  12.917
67283W        W35512  10.842   7.235  11.194
67284W        W35513  34.489  40.811   0.650
67285W        W35514  43.144   1.220   2.069
67286W        W35515   2.455  15.629   2.399
67287W        W35516  27.478  38.732   0.953
67288W        W35517  38.540  21.188  14.269
67289W        W35518  44.474  33.778   3.367
67290W        W35519  10.162  13.260   1.789
67291W        W35520  32.182   7.921   4.492
67292W        W35521  22.443  25.778   4.342
67293W        W35522  14.184  18.753  13.357
67294W        W35523  23.832   1.420   1.311
67295W        W35524  41.088  21.447  11.209
67296W        W35525   7.248  31.142   0.249
67297W        W35526   7.551  15.705   3.382
67298W        W35527  13.845  22.496  14.860
67299W        W35528  34.014  21.274  11.020
67300W        W35529   4.652  30.793   3.674
67301W        W35530   5.007  29.640  13.806
67302W        W35531  12.810  13.230  14.993
67303W        W35532  11.253  23.890  13.777
67304W        W35533  32.606   5.616   2.745
67305W        W35534   0.739  39.962   3.895
67306W        W35535  14.764  16.885   0.475
67307W        W35536   5.786  30.405   0.350
67308W        W35537   0.480  10.322   4.120
67309W        W35538  44.667  23.072  14.401
67310W        W35539  27.537  29.957  13.844
67311W        W35540  43.959   6.175   0.346
67312W        W35541   9.173  24.740  13.577
67313W        W35542  40.602  42.391   3.322
67314W        W35543  29.912  42.758   2.803
67315W        W35544  34.112  32.458   2.783
67316W        W35545  37.241  13.721  14.105
67317W        W35546  12.669  14.724   3.679
67318W        W35547   2.334  33.237  11.883
67319W        W35548  26.128   7.642   1.492
67320W        W35549  31.535  42.549  14.425
67321W        W35550  37.620   2.933   3.697
67322W        W35551  26.607  39.997  11.091
67323W        W35552  29.197  32.101  14.788
67324W        W35553   1.734  16.288   0.015
67325W        W35554  28.202  39.288  11.118
67326W        W35555   9.420   4.858  12.958
67327W        W35556  39.306  15.229  10.446
67328W        W35557  27.625  18.323  12.475
67329W        W35558  39.484   6.823  13.797
67330W        W35559   8.883   4.902   0.724
67331W        W35560  22.024  18.526   0.487
67332W        W35561  15.268  15.330  11.921
67333W        W35562  32.347   6.834   1.373
67334W        W35563  40.365  39.405   4.903
67335W        W35564  20.808  22.617  14.072
67336W        W35565   0.464  26.944   0.747
67337W        W35566  40.342  26.988  13.905
67338W        W35567  24.777  22.170   4.825
67339W        W35568  19.601   4.944  14.364
67340W        W35569  29.876  14.650   0.792
67341W        W35570   4.827  19.744  13.108
67342W        W35571   4.054  26.164   3.647
67343W        W35572   0.930  25.597  12.061
67344W        W35573  14.696  28.941   1.663
67345W        W35574   4.961  22.001   4.653
67346W        W35575   8.912  18.178   0.315
67347W        W35576  27.388  31.641  10.778
67348W        W35577   2.879  32.110   3.640
67349W        W35578  14.243  27.924   3.151
67350W        W35579  39.818   7.695   4.194
67351W        W35580   8.672  30.393   0.826
67352W        W35581  34.548   9.398  11.137
67353W        W35582  36.943  32.632  14.443
67354W        W35583  43.422   1.107  11.696
67355W        W35584   5.891  15.907  11.115
67356W        W35585  21.215   2.127   0.766
67357W        W35586  39.130  24.802  13.649
67358W        W35587  34.678  18.428   9.899
67359W        W35588   5.749  42.586  14.455
67360W        W35589   3.176  31.437   1.213
67361W        W35590  23.006   1.528  13.444
67362W        W35591   9.890  16.640   1.874
67363W        W35592  43.839  41.548   2.711
67364W        W35593  40.858   9.318   1.428
67365W        W35594   7.013   0.708   2.639
67366W        W35595  17.506   7.669   0.458
67367W        W35596   5.181  21.575   3.842
67368W        W35597  24.457  16.212  13.117
67369W        W35598  40.449  18.202   4.418
67370W        W35599  38.097  40.879   3.280
67371W        W35600   2.029  22.067  14.995
67372W        W35601  33.939  27.506  10.624
67373W        W35602  11.578  23.513  11.460
67374W        W35603   5.461  44.906  12.048
67375W        W35604  30.407  23.664  13.807
67376W        W35605  29.681  25.175  14.345
67377W        W35606   9.208   3.813   4.758
67378W        W35607  18.274  42.488   0.379
67379W        W35608  20.864  22.288  14.478
67380W        W35609  26.614   7.677   4.841
67381W        W35610  14.764  34.789   1.381
67382W        W35611  11.670  22.939   4.680
67383W        W35612  13.344  18.159  11.088
67384W        W35613  41.592  30.898   1.717
67385W        W35614   7.614  26.052   2.820
67386W        W35615  33.404  35.411  10.897
67387W        W35616  36.834  31.471  14.504
67388W        W35617  30.075  40.285   2.309
67389W        W35618   9.555  20.667   2.071
67390W        W35619  27.533  14.272  12.162
67391W        W35620  28.641   8.175   1.418
67392W        W35621  40.334  25.854   2.883
67393W        W35622  29.893  10.495  12.637
67394W        W35623  18.062  42.777  14.977
67395W        W35624  36.554  42.940  10.650
67396W        W35625  38.319  27.947  11.473
67397W        W35626  22.697   3.184   0.731
67398W        W35627  15.687  34.280   1.170
67399W        W35628  18.706   9.800  11.586
67400W        W35629   9.208  24.219   2.370
67401W        W35630  36.159  41.923  12.691
67402W        W35631  18.244  41.940  13.811
67403W        W35632  18.215  12.530  13.772
67404W        W35633   1.540  29.848  11.659
67405W        W35634  13.829  40.286  11.564
67406W        W35635  11.466   1.196   3.250
67407W        W35636   4.872   8.945  12.758
67408W        W35637  37.589  11.350  12.884
67409W        W35638   5.678  14.939  14.344
67410W        W35639  44.902   7.924  10.726
67411W        W35640  39.589  42.852   1.663
67412W        W35641  26.298  41.948  14.520
67413W        W35642  20.899  36.253   1.361
67414W        W35643   4.368  29.013   2.429
67415W        W35644  37.982  24.715  14.049
67416W        W35645  16.553  16.782  14.426
67417W        W35646  20.942  15.767   3.074
67418W        W35647  19.152  30.173   5.517
67419W        W35648  28.506   2.900   0.450
67420W        W35649  10.919  21.195   2.280
67421W        W35650   7.677  18.512   3.253
67422W        W35651  12.860  21.437   3.773
67423W        W35652  19.259  43.828   3.174
67424W        W35653  42.801   6.365   3.769
67425W        W35654  33.181  26.682  11.541
67426W        W35655  44.390  32.904   4.651
67427W        W35656  22.925  36.487  11.398
67428W        W35657  25.921  10.341  12.895
67429W        W35658  22.581  18.758   4.618
67430W        W35659   9.375  34.905  14.896
67431W        W35660  28.241  25.997  10.991
67432W        W35661  30.181  13.983   3.184
67433W        W35662  12.563  28.117   0.813
67434W        W35663  27.714  31.567   1.372
67435W        W35664  35.140   3.806  13.984
67436W        W35665   6.812  29.098   0.724
67437W        W35666  38.807  27.244  12.037
67438W        W35667   8.301  39.409  10.846
67439W        W35668   1.268  16.745   2.410
67440W        W35669   1.977   1.428   0.643
67441W        W35670  31.808  28.890  11.127
67442W        W35671  42.703  29.761   1.474
67443W        W35672   2.291   3.273  13.562
67444W        W35673   4.010   8.462  13.025
67445W        W35674  43.266  18.560  12.997
67446W        W35675  26.300  39.507  13.785
67447W        W35676   0.692  38.401  11.431
67448W        W35677  12.351   1.807  14.969
67449W        W35678  36.419   6.368  11.605
67450W        W35679  35.479   7.288   1.322
67451W        W35680  18.700  17.011   2.853
67452W        W35681  42.292  25.969   1.710
67453W        W35682  11.086  29.980  11.833
67454W        W35683   2.237  41.950  14.900
67455W        W35684  29.950   3.421  10.982
67456W        W35685  36.920   7.005   0.753
67457W        W35686  25.690  31.316  14.277
67458W        W35687   4.674  39.521   2.762
67459W        W35688  11.891   1.251  14.358
67460W        W35689  22.453  32.493  13.773
67461W        W35690  36.856  15.998  11.475
67462W        W35691  21.344  20.466   3.703
67463W        W35692   4.456  24.726   0.227
67464W        W35693  37.822  23.500  14.520
67465W        W35694  13.745  24.959  13.456
67466W        W35695  33.616  12.869   4.526
67467W        W35696  21.091  41.101  12.533
67468W        W35697  13.265  31.465   3.078
67469W        W35698  44.453  34.673  10.737
67470W        W35699  37.034  39.431   0.788
67471W        W35700  27.906  20.072   0.271
67472W        W35701   4.580  11.295   3.173
67473W        W35702  36.107  24.222   1.215
67474W        W35703  13.776  43.293   4.157
67475W        W35704  23.672  17.683  11.659
67476W        W35705   0.532   7.416  11.033
67477W        W35706  32.726   1.467  10.643
67478W        W35707  11.668  42.180   1.906
67479W        W35708  40.326  35.401  14.756
67480W        W35709  30.015  38.336   1.256
67481W        W35710  11.876   4.804   2.195
67482W        W35711  23.170  38.765  11.801
67483W        W35712  34.333   9.166  14.943
67484W        W35713  37.156  23.295   0.325
67485W        W35714  32.488  23.087  11.927
67486W        W35715  43.813  37.959   4.670
67487W        W35716  27.261   2.261  12.898
67488W        W35717  15.758  31.635   3.662
67489W        W35718  30.167  28.134   3.852
67490W        W35719  14.732  43.477   3.008
67491W        W35720  43.274   7.812  13.358
67492W        W35721   9.598  27.398  14.037
67493W        W35722  22.027   1.044   2.846
67494W        W35723  42.138   3.536  11.060
67495W        W35724   7.387   7.791  14.111
67496W        W35725  23.976   6.926   0.374
67497W        W35726   7.268  26.657  11.863
67498W        W35727  19.655  17.657   0.730
67499W        W35728  17.958  19.581  14.893
67500W        W35729   5.447  31.662  14.540
67501W        W35730  40.720   6.830   4.478
67502W        W35731   0.471   8.285  10.883
67503W        W35732  41.371  29.987   3.576
67504W        W35733  19.714   8.761  13.605
67505W        W35734  11.805  18.139   4.662
67506W        W35735  17.576  24.582  11.666
67507W        W35736   3.235  32.126  14.057
67508W        W35737  42.773  19.358  12.942
67509W        W35738  14.498  30.131   1.007
67510W        W35739  11.924  15.447   3.629
67511W        W35740   5.662  16.350   3.597
67512W        W35741   4.165  34.123  11.624
67513W        W35742  10.232   0.051  11.515
67514W        W35743   9.312   7.974  12.058
67515W        W35744   4.366   0.757   2.438
67516W        W35745  13.740  28.166   1.442
67517W        W35746  20.739  34.515   0.812
67518W        W35747  18.072   1.920   2.378
67519W        W35748  22.679   6.037  10.573
67520W        W35749   8.776   7.232   1.868
67521W        W35750   4.116   9.142  10.964
67522W        W35751  12.732   8.224   4.706
67523W        W35752  25.595  16.735  10.692
67524W        W35753   4.193   9.924   1.309
67525W        W35754   1.203   7.265   3.355
67526W        W35755  14.383  15.319   4.935
67527W        W35756  13.240   6.922   4.072
67528W        W35757  18.745  30.228  10.005
67529W        W35758   0.415  23.722  11.212
67530W        W35759  43.980  39.839   3.305
67531W        W35760  36.001  15.306  12.444
67532W        W35761  10.317  15.931   0.317
67533W        W35762   0.351  14.475   3.302
67534W        W35763  23.769  44.405  14.924
67535W        W35764   6.214  42.953   0.420
67536W        W35765  17.009  37.849  10.679
67537W        W35766  43.524  29.348  10.658
67538W        W35767  11.820   5.851   2.855
67539W        W35768   9.358  36.968  12.369
67540W        W35769  12.149  12.762  13.368
67541W        W35770  22.637  29.904   1.454
67542W        W35771   2.248   5.098   2.596
67543W        W35772  34.157  17.857   1.191
67544W        W35773  40.400   7.786   5.174
67545W        W35774  15.112  34.414   0.367
67546W        W35775  10.193   0.044   2.069
67547W        W35776   9.341  29.891  13.957
67548W        W35777  15.284  12.172  12.883
67549W        W35778  14.176  20.988   0.823
67550W        W35779  26.089  27.611  10.385
67551W        W35780  18.221  12.152   2.132
67552W        W35781  30.560  10.329  11.974
67553W        W35782   9.814   0.330  13.052
67554W        W35783  40.544  24.680   1.023
67555W        W35784  12.052  13.603   3.623
67556W        W35785   2.053   0.227   1.211
67557W        W35786  11.384  23.495  14.928
67558W        W35787  37.754   6.744  10.308
67559W        W35788  13.246  14.681  10.089
67560W        W35789   5.099  36.526   2.327
67561W        W35790  44.912  21.023  13.973
67562W        W35791   8.613  22.261  11.961
67563W        W35792  30.587   2.699  13.571
67564W        W35793  41.823  33.189  13.046
67565W        W35794  27.648  11.659   4.080
67566W        W35795  29.860  25.993   2.706
67567W        W35796  39.287  35.075  12.079
67568W        W35797  44.444  27.182  11.477
67569W        W35798  11.754  44.304   1.212
67570W        W35799  26.466  23.532  11.953
67571W        W35800  14.135  37.932  11.626
67572W        W35801   8.917  22.993   1.164
67573W        W35802  29.221   6.817  14.334
67574W        W35803  22.730   3.961  13.502
67575W        W35804   9.236  40.474   2.188
67576W        W35805   8.329  20.128   4.652
67577W        W35806  31.625  29.946  13.034
67578W        W35807  35.149   8.637   4.582
67579W        W35808  20.117   7.818   1.223
67580W        W35809  26.424  12.767  12.851
67581W        W35810  16.139  31.583  11.897
67582W        W35811  21.343  23.733   2.542
67583W        W35812   1.316  29.656   3.827
67584W        W35813  34.482  39.934  13.128
67585W        W35814   2.039  19.657   1.744
67586W        W35815  32.653   8.489   2.233
67587W        W35816  16.343   2.806  14.804
67588W        W35817  15.300  44.339  14.518
67589W        W35818   9.411  30.942  11.337
67590W        W35819   5.070   6.205   0.362
67591W        W35820   5.257   4.423   3.804
67592W        W35821  41.834  29.677   4.614
67593W        W35822  22.633   5.557  10.728
67594W        W35823  41.014  13.023   0.427
67595W        W35824   6.146  24.902   2.341
67596W        W35825   7.346   4.297  14.893
67597W        W35826  10.216  34.203   5.010
67598W        W35827  20.635  42.601  11.368
67599W        W35828  21.668  29.648  13.065
67600W        W35829   0.685   7.456   3.996
67601W        W35830  38.670  11.233  11.930
67602W        W35831  44.396  33.867  11.136
67603W        W35832  27.984   9.161   4.313
67604W        W35833  15.570  35.038   3.686
67605W        W35834  25.760   2.949  11.224
67606W        W35835  42.529  26.740  14.337
67607W        W35836   0.615  41.922   2.822
67608W        W35837  32.553  34.439   1.821
67609W        W35838   3.657  10.651  13.541
67610W        W35839   9.100  37.711   4.940
67611W        W35840   4.868   0.679   3.212
67612W        W35841  41.590  33.382   3.161
67613W        W35842  10.860   9.689   1.385
67614W        W35843  22.974  24.235  14.753
67615W        W35844  21.555  31.852   4.571
67616W        W35845   0.200  38.468   2.469
67617W        W35846  29.298  11.645  12.060
67618W        W35847  44.804  33.431   2.399
67619W        W35848  28.705  43.354  12.577
67620W        W35849  26.552  26.191   3.861
67621W        W35850  40.375  25.150   1.390
67622W        W35851  18.556  12.870   4.463
67623W        W35852  25.980  44.306   4.398
67624W        W35853  12.217  34.812   1.681
67625W        W35854  36.615  20.447  13.564
67626W        W35855  21.588  34.957  10.624
67627W        W35856  38.999  24.962  14.837
67628W        W35857  16.178  37.269  10.657
67629W        W35858  43.005  33.768  11.736
67630W        W35859  10.259  11.442  11.130
67631W        W35860  38.166  35.990  12.965
67632W        W35861  43.516  21.953   3.177
67633W        W35862  31.825  35.962   0.803
67634W        W35863  44.880  27.185   2.814
67635W        W35864  13.089  36.460  11.960
67636W        W35865  16.584  29.023  14.348
67637W        W35866  10.800  20.369  12.296
67638W        W35867  42.319   1.420  14.374
67639W        W35868   7.707  44.026  10.246
67640W        W35869  25.607   4.194  14.512
67641W        W35870  34.744   1.408  14.667
67642W        W35871  13.700  16.228  13.644
67643W        W35872  14.769  33.816   1.079
67644W        W35873  22.952   7.087   2.718
67645W        W35874  23.248  10.836  14.384
67646W        W35875  34.081  26.262   2.798
67647W        W35876   7.901   9.673   1.962
67648W        W35877  39.042  12.078  13.389
67649W        W35878  10.078   8.787  10.709
67650W        W35879  19.904  26.574   3.353
67651W        W35880  21.011  18.102   1.825
67652W        W35881   3.751  32.318   3.835
67653W        W35882   6.315  17.960  13.973
67654W        W35883  32.394  21.128   0.474
67655W        W35884  21.632   8.416   1.369
67656W        W35885  30.570  30.899   1.422
67657W        W35886  15.300  24.525  14.964
67658W        W35887  37.346  26.084  13.271
67659W        W35888  25.413   3.419  12.537
67660W        W35889  18.177  35.065   4.508
67661W        W35890  14.661  42.006  13.802
67662W        W35891  19.984  19.502  13.894
67663W        W35892  38.563  20.111   3.661
67664W        W35893  42.878  15.292   2.719
67665W        W35894  14.912  26.994   4.658
67666W        W35895  16.109  14.726   4.852
67667W        W35896  32.885  21.937   0.776
67668W        W35897  10.779  34.569  11.549
67669W        W35898  29.933  18.504  12.447
67670W        W35899   2.274  39.381  13.743
67671W        W35900  42.735  20.723  13.942
67672W        W35901  40.492  20.879   1.368
67673W        W35902  32.088  27.768  10.002
67674W        W35903   9.975  22.663  14.961
67675W        W35904  39.636  36.328  12.089
67676W        W35905  42.979  21.137  11.444
67677W        W35906   4.403   4.401   2.118
67678W        W35907   7.786   3.522   1.897
67679W        W35908  12.064   9.747   0.199
67680W        W35909  13.231  22.122  14.065
67681W        W35910  37.726  35.363   2.343
67682W        W35911   5.739  29.874   0.294
67683W        W35912  27.232  32.840  11.863
67684W        W35913  35.651  36.347  13.585
67685W        W35914  32.599  27.749  12.309
67686W        W35915   3.010  17.149   0.727
67687W        W35916  29.473   7.103  10.114
67688W        W35917  21.064  33.857  13.316
67689W        W35918  25.576  18.630   0.399
67690W        W35919  24.331  34.409  14.221
67691W        W35920   3.773  27.589  14.037
67692W        W35921   1.750  32.676   1.057
67693W        W35922  44.586  40.420   0.953
67694W        W35923  13.290  34.364   4.564
67695W        W35924  44.215   6.650  11.000
67696W        W35925  19.758  38.063  13.215
67697W        W35926   5.929  41.003  13.941
67698W        W35927  25.112   2.140  11.077
67699W        W35928  20.908  26.488  10.611
67700W        W35929  41.852  19.650  13.415
67701W        W35930  34.619  30.690  12.389
67702W        W35931  35.126  32.350   4.468
67703W        W35932   4.058  44.878   1.304
67704W        W35933   4.744  26.973   2.253
67705W        W35934  24.611  44.718   4.537
67706W        W35935   4.242  28.760  14.963
67707W        W35936  36.407  23.230   3.735
67708W        W35937  21.338  13.482  13.048
67709W        W35938  19.126  13.273   3.689
67710W        W35939  15.151  15.275  13.486
67711W        W35940  12.710  42.754   4.231
67712W        W35941   8.199   2.734   1.882
67713W        W35942  30.991   4.187   4.247
67714W        W35943  26.181   0.935   3.169
67715W        W35944  16.331   6.417   1.445
67716W        W35945  36.901  42.285   4.491
67717W        W35946  28.894  37.824   3.623
67718W        W35947  42.623  16.223  10.587
67719W        W35948  27.391  14.231   2.456
67720W        W35949  22.097   6.713  14.361
67721W        W35950   1.959  38.021  10.640
67722W        W35951  33.948  27.041   1.142
67723W        W35952  22.262  36.356   0.260
67724W        W35953  12.601  33.965  12.638
67725W        W35954   5.874  39.537   0.492
67726W        W35955  35.844   5.005  11.096
67727W        W35956  26.059  20.674  10.899
67728W        W35957  17.746  33.599  14.410
67729W        W35958  28.902  36.309   0.487
67730W        W35959  12.202  14.732   1.929
67731W        W35960  41.411  23.551  12.483
67732W        W35961  25.187  41.879  14.757
67733W        W35962  18.773  28.944  10.130
67734W        W35963  13.271  23.617   3.204
67735W        W35964  23.761   2.166   2.702
67736W        W35965  28.504  22.223   2.340
67737W        W35966  24.403  29.105  10.705
67738W        W35967  41.823  16.790  12.782
67739W        W35968   4.615  21.067  13.768
67740W        W35969  41.502  24.207   2.737
67741W        W35970   1.527   4.788   3.631
67742W        W35971  30.758  14.687  13.911
67743W        W35972  35.364   8.139   4.565
67744W        W35973  34.020   0.447  13.250
67745W        W35974  22.825   7.847  12.545
67746W        W35975  28.007  31.956   2.344
67747W        W35976   4.249  12.734   3.128
67748W        W35977  22.102  15.564  13.464
67749W        W35978  43.457   0.625   2.660
67750W        W35979   2.226  14.695   4.453
67751W        W35980  41.528  39.276  12.890
67752W        W35981  44.878  14.646  14.593
67753W        W35982  38.909  24.702  11.352
67754W        W35983  21.895  39.452  11.595
67755W        W35984   9.740  23.337  13.360
67756W        W35985   5.750  31.182   3.182
67757W        W35986  20.819  43.957  12.514
67758W        W35987  24.716  34.858   0.419
67759W        W35988   7.891  39.896   0.743
67760W        W35989  10.838  37.400   1.298
67761W        W35990  41.947   4.764  10.224
67762W        W35991  30.873   7.454   3.586
67763W        W35992  17.617  25.681   5.114
67764W        W35993  39.437   3.123   0.602
67765W        W35994  34.488  23.160  12.053
67766W        W35995  17.992  11.607   2.827
67767W        W35996  13.777   6.175  11.214
67768W        W35997  29.232   3.995  11.068
67769W        W35998  34.619  16.113   0.695
67770W        W35999  13.368  33.482  10.818
67771W        W36000  36.975  36.079   0.289
67772W        W36001  10.711  40.722  10.441
67773W        W36002  31.333   6.849   3.989
67774W        W36003  13.960  30.130  11.659
67775W        W36004  21.242  33.540  10.639
67776W        W36005  24.142  23.558   2.368
67777W        W36006  21.420   9.730  12.879
67778W        W36007  43.893  16.222  14.472
67779W        W36008  38.845  31.679   0.396
67780W        W36009  27.545  37.546  12.098
67781W        W36010   3.930  31.942   3.534
67782W        W36011   7.006  33.251   0.269
67783W        W36012  15.208  36.873  10.480
67784W        W36013   4.733   4.345   1.734
67785W        W36014  16.093  23.898  14.313
67786W        W36015  29.260  18.758  12.053
67787W        W36016  33.641  35.333  14.853
67788W        W36017  19.465  16.392   5.590
67789W        W36018  28.010  31.490  13.696
67790W        W36019  34.883   4.958   1.272
67791W        W36020  21.488  30.749   2.659
67792W        W36021  43.344   9.244  11.362
67793W        W36022  12.029  31.167   4.335
67794W        W36023  21.625   2.978  10.428
67795W        W36024  27.394  27.695   1.782
67796W        W36025  38.545  20.611  10.776
67797W        W36026  41.658  10.609  11.433
67798W        W36027  33.298  31.551   0.319
67799W        W36028  18.673  36.885   0.910
67800W        W36029   4.366  12.750  11.086
67801W        W36030  22.323  20.765   3.775
67802W        W36031  34.470   8.635   2.399
67803W        W36032  31.916   4.224   0.044
67804W        W36033  16.628  34.459  14.758
67805W        W36034  44.286  35.628   3.445
67806W        W36035   2.805  32.367  14.278
67807W        W36036  41.501  22.564  12.551
67808W        W36037  21.756  34.426   3.354
67809W        W36038  34.018  35.932  11.910
67810W        W36039  26.061   2.011  13.991
67811W        W36040  27.537   2.758   2.594
67812W        W36041  27.931  22.945  14.821
67813W        W36042  44.274  41.307   0.850
67814W        W36043   5.971  43.816  11.467
67815W        W36044  24.787   8.905  12.354
67816W        W36045  23.002  23.787   1.657
67817W        W36046   4.865  38.800   1.235
67818W        W36047  36.394  34.818   2.469
67819W        W36048  17.635  44.306   0.662
67820W        W36049  12.608   1.352   4.108
67821W        W36050  35.029   4.698  13.896
67822W        W36051  27.675  10.133  12.474
67823W        W36052  30.270   6.964  13.048
67824W        W36053  32.954  34.458  10.656
67825W        W36054  19.468  41.684   2.885
67826W        W36055  18.063  29.662  11.653
67827W        W36056  18.373  40.022  12.156
67828W        W36057  27.300  42.095  14.807
67829W        W36058   1.206   4.443   3.120
67830W        W36059  41.774  14.230   1.701
67831W        W36060  29.972  10.800  13.456
67832W        W36061  44.500  36.496  11.950
67833W        W36062  17.157  30.965   0.618
67834W        W36063  19.556  41.265   4.253
67835W        W36064  37.460  19.133   4.820
67836W        W36065   0.733   7.852   4.319
67837W        W36066  27.174  25.211   3.014
67838W        W36067  30.522  31.237   2.434
67839W        W36068  31.592  25.552  14.688
67840W        W36069  34.547   9.151   2.386
67841W        W36070  40.998  31.080  13.571
67842W        W36071  15.336  10.610   4.881
67843W        W36072  16.246  39.921   4.542
67844W        W36073  17.927  13.586   1.484
67845W        W36074  39.728   9.808  14.963
67846W        W36075  38.435  10.104   3.224
67847W        W36076  41.123  17.056  11.554
67848W        W36077   8.349  31.083   0.214
67849W        W36078  12.934  31.465   2.388
67850W        W36079  43.777  26.737  14.981
67851W        W36080  41.810  25.519   2.190
67852W        W36081   4.947  10.666   0.144
67853W        W36082  21.739   9.305  13.953
67854W        W36083  16.352  39.758  11.224
67855W        W36084  23.158  33.955  13.239
67856W        W36085  21.244  34.390  14.903
67857W        W36086  30.381   7.413  12.063
67858W        W36087  17.303  15.370  10.096
67859W        W36088  28.816  29.479   1.706
67860W        W36089   3.061  37.780  13.476
67861W        W36090  26.634  28.533   2.258
67862W        W36091  23.134  32.166   1.931
67863W        W36092   2.700   0.015  12.605
67864W        W36093  41.876   0.262   3.210
67865W        W36094  17.207   7.646   1.358
67866W        W36095  31.664  40.395   2.848
67867W        W36096  34.440  17.452   5.519
67868W        W36097  21.788   4.812  11.159
67869W        W36098   2.219  40.322   2.769
67870W        W36099  32.645  19.743   2.197
67871W        W36100  16.690  41.580   4.662
67872W        W36101   5.244   5.338   3.611
67873W        W36102  38.538  15.057  11.594
67874W        W36103  17.668  30.688   4.164
67875W        W36104  33.636  34.955  12.079
67876W        W36105   0.497  17.330   3.742
67877W        W36106  22.142  13.713  12.748
67878W        W36107  37.500  10.500   3.428
67879W        W36108  38.856  23.010  11.159
67880W        W36109  27.477   6.346  12.334
67881W        W36110  36.651  33.980  12.493
67882W        W36111  14.151   3.490   1.435
67883W        W36112  10.645   8.831   2.890
67884W        W36113  44.558  12.783  11.961
67885W        W36114  41.249   2.534  13.561
67886W        W36115  38.959   5.370  11.727
67887W        W36116  17.549  17.368  11.967
67888W        W36117  28.078   6.608   0.775
67889W        W36118   5.308  29.732  14.379
67890W        W36119  20.936  10.853   4.811
67891W        W36120  34.461  40.535   3.743
67892W        W36121  24.255  37.087   4.278
67893W        W36122  21.512  42.945  11.260
67894W        W36123  20.097  32.162   1.369
67895W        W36124  43.023   3.004  11.138
67896W        W36125  26.928  25.198   2.227
67897W        W36126  36.165  23.004   0.394
67898W        W36127  18.667  15.061  12.422
67899W        W36128  32.519   8.560  13.475
67900W        W36129  43.271  19.192  11.635
67901W        W36130  24.142  15.985   0.829
67902W        W36131  26.061   1.850   4.227
67903W        W36132  25.172  40.511  10.645
67904W        W36133   6.287  41.854  10.678
67905W        W36134  27.003   8.674  13.474
67906W        W36135  16.118   1.464  11.832
67907W        W36136  18.528  42.893   1.655
67908W        W36137  33.980  30.094   3.430
67909W        W36138  26.105  24.749   0.684
67910W        W36139  43.232  24.450   1.819
67911W        W36140   6.627  19.085  13.955
67912W        W36141  41.767   2.439  11.960
67913W        W36142   8.829  30.808   1.743
67914W        W36143  17.398   8.669   3.296
67915W        W36144  41.836  22.743  14.435
67916W        W36145   9.708  11.255   3.185
67917W        W36146  23.108   3.724  12.981
67918W        W36147  22.767  36.363   0.436
67919W        W36148  25.490  11.129   4.080
67920W        W36149  24.674  39.778  12.904
67921W        W36150  19.902  21.688  12.944
67922W        W36151  24.859  20.963   0.646
67923W        W36152   1.622  11.676   1.390
67924W        W36153  24.346  12.589  11.184
67925W        W36154  13.580   8.134   4.562
67926W        W36155  24.781  28.187  12.102
67927W        W36156  35.585   8.476   2.779
67928W        W36157   9.807  31.717   0.461
67929W        W36158  10.566  44.062  11.105
67930W        W36159  11.219  43.297   4.516
67931W        W36160  21.714   8.838  11.106
67932W        W36161  19.153   4.218  14.259
67933W        W36162   8.469  15.596   3.570
67934W        W36163  29.828  32.407  10.476
67935W        W36164  37.781  37.006  13.009
67936W        W36165   2.314  33.647   4.484
67937W        W36166  22.298  34.848  13.307
67938W        W36167   1.012  14.699   3.920
67939W        W36168  16.819  44.410   5.094
67940W        W36169  33.928  30.709  13.062
67941W        W36170  39.552  23.959  14.293
67942W        W36171  38.942  20.567   3.419
67943W        W36172  16.706  35.377  11.189
67944W        W36173  18.558   8.401   2.944
67945W        W36174  17.525   3.261   0.414
67946W        W36175  32.433  27.823   3.453
67947W        W36176  32.824  24.646  11.199
67948W        W36177  33.676  26.939   0.677
67949W        W36178  32.503   0.356   2.282
67950W        W36179  33.046  35.054   4.683
67951W        W36180  12.270  29.498  11.599
67952W        W36181  39.365  39.440   0.122
67953W        W36182  14.579  17.968   1.312
67954W        W36183  28.980  22.708   4.682
67955W        W36184  18.829  43.510   3.267
67956W        W36185  21.027  19.879  12.024
67957W        W36186  10.755  25.309   4.677
67958W        W36187  12.078   3.731   4.607
67959W        W36188   5.265  43.924  12.499
67960W        W36189  14.591  23.155  12.059
67961W        W36190  10.334   8.337   2.384
67962W        W36191   4.758  41.635   3.200
67963W        W36192   8.649  27.244  13.730
67964W        W36193  36.510  18.702   3.261
67965W        W36194  31.574  30.995  13.071
67966W        W36195  34.836   5.187   2.261
67967W        W36196  30.472  41.951  12.191
67968W        W36197   1.032   1.838   9.920
67969W        W36198  10.815  19.050  12.852
67970W        W36199  34.415  29.542  13.078
67971W        W36200  37.377   2.576  12.545
67972W        W36201  20.174  10.427  14.778
67973W        W36202  26.111  41.242  11.236
67974W        W36203  24.205  12.771  13.327
67975W        W36204   5.878  36.016   3.321
67976W        W36205   8.327  38.195  13.645
67977W        W36206  10.790  12.476  13.125
67978W        W36207  27.021  29.977  11.634
67979W        W36208  39.406   8.646  12.445
67980W        W36209  26.113  43.496  12.006
67981W        W36210  43.168   9.242  10.467
67982W        W36211   6.797  17.358  10.808
67983W        W36212  21.873  36.466   0.946
67984W        W36213  16.852  33.554   2.708
67985W        W36214  31.606  11.422   1.853
67986W        W36215  15.791   1.985  14.796
67987W        W36216  15.846  19.544  14.429
67988W        W36217  16.314  19.563   0.304
67989W        W36218  38.015  13.071   3.807
67990W        W36219  22.349  33.017  12.614
67991W        W36220  17.577  12.133   3.365
67992W        W36221  42.026  31.191   2.815
67993W        W36222  18.686   0.057   3.181
67994W        W36223   9.834  30.065   4.580
67995W        W36224   3.207   4.647   4.238
67996W        W36225  23.170  25.900  14.218
67997W        W36226  20.781   0.379   1.232
67998W        W36227  16.035   0.521  14.746
67999W        W36228  36.955  10.637  11.714
68000W        W36229   7.770   2.037  10.441
68001W        W36230  17.205  35.066  13.875
68002W        W36231   3.294   6.781   4.206
68003W        W36232  44.994  12.294  10.908
68004W        W36233  29.573  15.843  14.018
68005W        W36234  26.432  22.512  13.569
68006W        W36235  23.701   7.408   2.306
68007W        W36236  32.839  22.706  11.127
68008W        W36237  25.608  25.661  11.103
68009W        W36238   0.435   8.348   4.563
68010W        W36239  36.075  21.340  14.787
68011W        W36240   8.011  15.299   2.736
68012W        W36241  20.761  10.866   4.211
68013W        W36242  21.781  43.232  14.757
68014W        W36243   9.690  18.621   3.473
68015W        W36244  37.673  17.075   3.847
68016W        W36245  29.996  40.781  11.663
68017W        W36246  22.721  42.059  13.650
68018W        W36247  13.037   5.960  10.227
68019W        W36248  26.100  44.526  10.860
68020W        W36249  21.211  28.755   3.462
68021W        W36250  33.627  29.574   1.022
68022W        W36251  25.711  25.190   4.450
68023W        W36252  40.986   8.203   3.234
68024W        W36253  22.977  19.269  14.026
68025W        W36254   7.267  14.911  10.659
68026W        W36255  29.958  40.696  12.482
68027W        W36256  10.824  31.468   4.856
68028W        W36257  39.406  21.447   2.171
68029W        W36258  19.221  27.593   2.253
68030W        W36259  24.383  30.548   0.805
68031W        W36260  37.951  39.657  11.241
68032W        W36261  21.014  44.519  13.414
68033W        W36262  17.338  30.581   4.550
68034W        W36263  18.776   4.649  14.852
68035W        W36264  29.581   0.304   1.409
68036W        W36265  27.299  40.008  13.488
68037W        W36266  31.046  11.032   0.622
68038W        W36267  38.590  27.037   4.091
68039W        W36268  14.374  18.981   0.716
68040W        W36269  34.519  30.519  11.148
68041W        W36270   6.670  30.179   3.737
68042W        W36271   7.672  13.198  12.396
68043W        W36272  17.133  23.290   3.871
68044W        W36273  31.570  38.750   0.977
68045W        W36274  17.576  42.958   0.881
68046W        W36275  32.656  13.617   5.098
68047W        W36276  31.950  24.654  12.399
68048W        W36277  11.773  42.073  13.382
68049W        W36278  42.447  40.915   4.187
68050W        W36279   2.986  23.057  11.873
68051W        W36280  40.003   6.886  11.018
68052W        W36281   7.802  33.540   3.285
68053W        W36282  22.606   6.735   0.473
68054W        W36283  39.336   1.576   1.817
68055W        W36284  12.744  41.686   4.347
68056W        W36285  27.193  37.660   3.513
68057W        W36286  18.506  40.099   2.770
68058W        W36287  25.196  39.385  12.030
68059W        W36288  31.573  33.142  13.648
68060W        W36289  13.627   7.453   3.912
68061W        W36290  37.580  18.262  14.402
68062W        W36291  12.820  20.659  11.479
68063W        W36292  33.022  16.654  10.967
68064W        W36293  20.682  18.643   2.166
68065W        W36294   8.507  21.934  12.998
68066W        W36295  19.033  39.650   0.003
68067W        W36296  44.909  24.617  11.906
68068W        W36297  44.265  20.894   4.234
68069W        W36298  41.283  35.415   2.174
68070W        W36299  33.365  28.492  13.096
68071W        W36300  19.706  12.831   2.951
68072W        W36301  34.894  10.267  14.948
68073W        W36302   1.943   6.913  14.485
68074W        W36303  43.873   5.790  11.859
68075W        W36304  24.546   3.920   0.077
68076W        W36305  12.627  29.572  14.059
68077W        W36306  27.827  13.408   5.305
68078W        W36307   8.843  44.018   4.595
68079W        W36308  40.722  12.727   2.542
68080W        W36309   5.727  42.492  13.536
68081W        W36310  12.613  37.532   4.601
68082W        W36311  31.698  23.361   4.095
68083W        W36312  23.576  36.596   1.791
68084W        W36313   2.425  17.751  14.342
68085W        W36314  13.149  44.013   0.415
68086W        W36315  24.236  35.042   2.275
68087W        W36316  28.405  40.251  13.739
68088W        W36317  32.369  38.098  14.906
68089W        W36318  18.583  25.675  13.922
68090W        W36319  44.477  27.869  12.099
68091W        W36320  40.324  26.154  14.251
68092W        W36321  21.142  32.362   5.382
68093W        W36322  25.136   5.146  14.804
68094W        W36323  35.061   2.232   1.793
68095W        W36324   9.182   9.736  10.484
68096W        W36325  22.070   3.489   1.850
68097W        W36326  33.011  44.191   1.065
68098W        W36327  22.262  25.223   3.232
68099W        W36328  22.508  32.626  12.057
68100W        W36329  41.635  37.587   3.172
68101W        W36330  29.982  23.639  10.816
68102W        W36331   7.301  16.643  10.704
68103W        W36332  40.552  22.665  12.964
68104W        W36333  35.990   2.997  12.401
68105W        W36334  13.743  34.372   4.844
68106W        W36335   5.325  40.513   2.250
68107W        W36336   6.903  25.124  13.067
68108W        W36337   2.350  12.634  13.338
68109W        W36338  15.369   3.513  11.601
68110W        W36339  12.563  27.195  13.903
68111W        W36340  36.562  29.114  12.877
68112W        W36341  24.274  37.217  11.152
68113W        W36342  30.737  15.823   4.066
68114W        W36343  18.777   2.055   4.968
68115W        W36344  22.320  30.994  11.519
68116W        W36345   3.047  21.037   4.855
68117W        W36346  18.573  38.859   0.429
68118W        W36347  23.261  21.074   0.769
68119W        W36348  22.634  11.354  13.662
68120W        W36349  27.694  10.467  13.274
68121W        W36350  27.354   6.457  13.676
68122W        W36351  26.228  36.207   4.978
68123W        W36352  18.556  26.950   3.773
68124W        W36353  13.786  26.557  12.105
68125W        W36354  10.687   4.551   3.726
68126W        W36355  21.038  14.861  13.839
68127W        W36356   7.894  22.696  14.245
68128W        W36357  40.626  29.582   4.984
68129W        W36358   3.933  32.978  11.105
68130W        W36359  44.044  41.547  14.624
68131W        W36360  13.633   1.037  14.944
68132W        W36361   8.217   4.325  12.564
68133W        W36362  23.281   8.878   1.711
68134W        W36363  33.445  27.448  13.401
68135W        W36364  30.515  14.398   3.272
68136W        W36365  34.643  43.807   4.068
68137W        W36366  32.394   0.462   4.884
68138W        W36367  20.231  19.092   1.812
68139W        W36368  27.506  42.181   0.908
68140W        W36369  41.169  21.013   5.008
68141W        W36370  36.524  43.205  11.636
68142W        W36371  12.809  38.860  11.161
68143W        W36372  15.705  43.265  13.450
68144W        W36373  35.096  44.467  13.159
68145W        W36374  11.873  29.767  13.507
68146W        W36375  14.473  36.488   2.896
68147W        W36376  38.984  16.577   2.297
68148W        W36377   3.502   5.764  10.597
68149W        W36378  41.914  25.565   4.265
68150W        W36379  24.027  12.922   0.927
68151W        W36380  11.081  25.225  11.555
68152W        W36381  26.381  36.027   4.516
68153W        W36382  36.127  37.606   1.655
68154W        W36383  19.593  22.333  11.109
68155W        W36384  35.713  27.460  13.873
68156W        W36385  18.301   5.145   0.487
68157W        W36386  32.414  42.283   0.285
68158W        W36387  14.277  42.758  14.972
68159W        W36388  34.416   3.671   1.242
68160W        W36389  17.405  14.728  13.434
68161W        W36390   7.111  32.111   3.277
68162W        W36391  10.408  29.695  10.833
68163W        W36392   8.884  27.479  11.501
68164W        W36393   2.470  26.003  12.600
68165W        W36394  24.518  17.484  11.983
68166W        W36395   4.783  10.794  11.192
68167W        W36396  39.561  19.127   2.518
68168W        W36397  10.100  16.029   4.104
68169W        W36398  13.265  16.523   0.404
68170W        W36399  33.086  31.187  13.004
68171W        W36400  25.706  30.569   2.692
68172W        W36401   0.042  22.980   0.771
68173W        W36402  29.528  16.827  13.123
68174W        W36403   9.628  22.192   3.631
68175W        W36404   9.516  14.631   2.028
68176W        W36405  13.616  35.142  14.441
68177W        W36406  22.400  24.529  11.643
68178W        W36407  14.178  14.018   4.286
68179W        W36408   0.253  40.886   3.677
68180W        W36409   2.822  12.964  13.162
68181W        W36410  14.728  17.041   3.755
68182W        W36411  29.862  15.569  14.355
68183W        W36412  17.980   0.973   1.814
68184W        W36413   8.383  13.265   2.965
68185W        W36414  17.702   2.719   4.749
68186W        W36415   5.338   6.727  10.583
68187W        W36416   5.257  27.645   1.463
68188W        W36417  38.639   8.080  11.207
68189W        W36418   7.735  40.341  14.495
68190W        W36419  33.182   3.855  14.535
68191W        W36420  41.282  38.791  13.455
68192W        W36421  36.508  29.583  10.337
68193W        W36422  10.988  29.187  14.818
68194W        W36423  15.090  15.657   1.890
68195W        W36424  19.772   4.775  14.841
68196W        W36425  33.709  29.709  11.589
68197W        W36426  17.292   6.999   0.011
68198W        W36427   0.710  32.924   4.098
68199W        W36428   6.037  36.497   4.159
68200W        W36429   5.466  22.505  11.209
68201W        W36430  39.930  42.817  10.434
68202W        W36431  12.053  15.832   3.303
68203W        W36432  37.770  14.219  14.490
68204W        W36433  35.666   6.568   0.750
68205W        W36434  34.614  41.814   2.290
68206W        W36435  44.411  22.123   0.777
68207W        W36436  27.386  12.451   2.345
68208W        W36437  40.787  32.628  13.799
68209W        W36438   5.402  40.450  12.959
68210W        W36439  24.600  44.476  12.450
68211W        W36440  28.625  40.779   0.316
68212W        W36441   2.864  40.998  10.836
68213W        W36442  40.531   5.121   0.970
68214W        W36443  43.362  44.557   0.013
68215W        W36444  29.183  29.983  13.390
68216W        W36445  15.709  40.182  13.533
68217W        W36446  12.306  23.402  12.942
68218W        W36447  18.248  35.095   3.552
68219W        W36448  44.816  21.623  12.602
68220W        W36449  39.142  39.893  14.928
68221W        W36450  16.810  40.852  13.515
68222W        W36451   0.299   1.906  12.849
68223W        W36452   6.415  10.901   0.810
68224W        W36453  44.227  31.814  13.013
68225W        W36454  37.288  16.507   3.250
68226W        W36455  37.651   7.079  14.824
68227W        W36456   4.797  33.438   2.731
68228W        W36457   1.439  32.068  11.572
68229W        W36458  24.586   3.807   3.652
68230W        W36459  18.301   4.588  12.689
68231W        W36460  18.323  44.320  14.270
68232W        W36461  15.234  22.328  12.483
68233W        W36462  27.585  38.894  11.489
68234W        W36463  42.041  28.237  13.902
68235W        W36464   9.900  21.762   3.586
68236W        W36465  44.095  42.387  13.024
68237W        W36466   6.633  15.713  13.951
68238W        W36467   0.211  18.953  12.035
68239W        W36468  21.596   9.234   0.400
68240W        W36469  32.016  20.773   0.314
68241W        W36470  22.494  30.535  11.343
68242W        W36471  10.712  14.295  10.913
68243W        W36472  30.439  10.596   4.096
68244W        W36473  38.270   2.685  13.365
68245W        W36474  37.322  10.430  13.836
68246W        W36475  21.613  30.045  10.424
68247W        W36476  42.369  30.047  10.505
68248W        W36477  39.934  33.483   2.940
68249W        W36478  30.607  33.654   3.620
68250W        W36479  19.449  40.461   0.476
68251W        W36480  27.235  35.476  10.705
68252W        W36481  17.748   2.222  14.266
68253W        W36482  23.697  21.848  11.546
68254W        W36483  44.741   8.317  13.937
68255W        W36484  12.677   9.096  14.229
68256W        W36485  14.890  14.838   2.184
68257W        W36486   0.038  37.686  11.614
68258W        W36487  22.195  24.379   1.279
68259W        W36488  40.041  16.345  14.708
68260W        W36489  22.993  10.240  11.050
68261W        W36490   5.629  34.785   1.233
68262W        W36491  23.773  41.112   1.249
68263W        W36492  29.615  41.463   4.047
68264W        W36493  21.139  25.275  14.810
68265W        W36494  42.458  34.350  14.976
68266W        W36495   4.725  41.683   0.271
68267W        W36496  30.921   7.967   3.534
68268W        W36497  27.612  33.535  14.354
68269W        W36498  41.983  21.107  14.839
68270W        W36499  32.191  41.326  13.106
68271W        W36500  38.046   5.854   2.568
68272W        W36501  20.424  30.932  12.146
68273W        W36502  15.705  29.449   1.634
68274W        W36503  17.760  35.084   3.304
68275W        W36504  26.021  34.810  14.915
68276W        W36505  44.909  41.290  11.936
68277W        W36506  25.453  38.378   4.607
68278W        W36507  39.970  19.506  12.917
68279W        W36508  30.707   7.041  13.480
68280W        W36509  13.986  19.982  13.546
68281W        W36510  43.775   5.673   2.318
68282W        W36511  24.031  29.403   3.130
68283W        W36512  16.857  12.203   2.489
68284W        W36513  24.877   8.843  12.855
68285W        W36514  16.335  13.028  14.854
68286W        W36515  34.433  43.031   1.916
68287W        W36516  17.722  20.949   4.131
68288W        W36517  20.652   3.278  10.772
68289W        W36518  23.046   2.948   1.404
68290W        W36519  10.751   9.106   2.441
68291W        W36520   9.855   3.914   3.316
68292W        W36521  12.400   3.159   3.758
68293W        W36522  33.404  15.346  14.295
68294W        W36523  12.181  41.545  14.052
68295W        W36524  16.237  27.198   2.442
68296W        W36525  10.847  41.913   3.295
68297W        W36526   5.883   7.691  10.663
68298W        W36527  26.528  29.867   2.604
68299W        W36528  37.313  15.980   3.200
68300W        W36529  26.918   1.881  12.935
68301W        W36530  31.536  28.336  14.671
68302W        W36531  10.691  10.942   4.061
68303W        W36532   1.262  40.624  11.337
68304W        W36533   9.708  17.770   3.102
68305W        W36534   1.952  34.024   4.603
68306W        W36535  28.875  33.333   3.136
68307W        W36536  25.936  21.130   2.547
68308W        W36537   7.431   7.655  14.636
68309W        W36538  16.929   3.532  12.405
68310W        W36539  24.935  13.608   1.364
68311W        W36540  34.894   6.783   2.843
68312W        W36541  18.032  10.623  11.159
68313W        W36542  17.612   8.915   0.893
68314W        W36543  33.755  34.009  10.836
68315W        W36544  16.292   2.292   2.764
68316W        W36545  15.842  30.928   2.214
68317W        W36546  14.699   4.450  14.889
68318W        W36547   5.711  14.439  14.315
68319W        W36548  16.860   1.367   0.936
68320W        W36549  13.317  17.748   2.659
68321W        W36550  37.859  28.734  14.117
68322W        W36551   8.482  37.373   4.207
68323W        W36552   5.109  14.479  11.028
68324W        W36553  33.263  31.940  10.157
68325W        W36554  18.284   5.687   1.263
68326W        W36555   3.413  43.046   1.612
68327W        W36556  16.221  16.265  13.625
68328W        W36557  44.249   7.899   1.290
68329W        W36558  15.215   3.677   2.245
68330W        W36559  31.604  30.815   4.107
68331W        W36560  16.665  24.456  12.720
68332W        W36561  34.464  33.406  10.977
68333W        W36562   4.717  34.830   0.492
68334W        W36563  40.524  13.303   0.540
68335W        W36564   3.790  19.194   2.391
68336W        W36565  43.944  21.713   1.837
68337W        W36566   7.543  23.712  11.484
68338W        W36567  22.749  28.176  12.108
68339W        W36568  26.202  19.007   3.596
68340W        W36569  31.992  12.555  11.625
68341W        W36570   1.007  31.441  12.868
68342W        W36571  10.022  15.626   2.756
68343W        W36572  13.109  18.273   4.138
68344W        W36573  33.609  34.615   4.128
68345W        W36574  15.437   1.101   0.017
68346W        W36575  25.995   0.970   2.652
68347W        W36576  14.843   1.455  13.363
68348W        W36577  15.594  18.260  11.439
68349W        W36578  14.728  15.874  14.250
68350W        W36579  28.951  40.853  13.029
68351W        W36580   9.395  39.328   3.433
68352W        W36581  21.807  38.111  12.834
68353W        W36582  20.822   5.984  12.433
68354W        W36583  19.249  24.545   2.572
68355W        W36584   4.616  17.261  13.895
68356W        W36585  44.007  20.787  13.406
68357W        W36586   2.986  11.943   3.409
68358W        W36587  37.813  21.901  13.470
68359W        W36588  30.484  39.625   4.538
68360W        W36589  29.558  37.122  13.549
68361W        W36590   9.948  28.751   2.410
68362W        W36591  31.128  41.063   3.671
68363W        W36592  43.029  18.186  14.333
68364W        W36593  33.848  43.884  13.798
68365W        W36594  28.043   7.036  13.920
68366W        W36595   2.397   8.649   2.091
68367W        W36596   5.972  25.956   2.149
68368W        W36597  23.215  21.334   4.136
68369W        W36598  43.045  44.197  14.352
68370W        W36599  41.083  11.116   1.363
68371W        W36600  15.758   2.203   0.448
68372W        W36601   5.974  23.948   0.574
68373W        W36602   7.384   6.131  12.673
68374W        W36603   5.507  21.270   1.928
68375W        W36604  21.550   1.272  14.771
68376W        W36605   9.754   7.237  12.848
68377W        W36606  32.525   2.196  11.415
68378W        W36607  29.154   7.333  11.447
68379W        W36608  28.454  35.940  10.734
68380W        W36609  23.232   4.979  11.307
68381W        W36610   2.304  32.264   1.683
68382W        W36611  30.857   1.297   2.207
68383W        W36612  44.858  43.151   2.688
68384W        W36613  24.149  35.562  13.290
68385W        W36614  42.997   8.652  13.922
68386W        W36615  23.161   8.360  11.078
68387W        W36616  20.533  25.465   4.930
68388W        W36617  12.327  39.384   3.129
68389W        W36618   3.842  24.884  11.175
68390W        W36619  20.739  21.835   4.605
68391W        W36620  28.281  21.162   5.042
68392W        W36621  20.025   1.661   2.246
68393W        W36622   7.190  22.916   0.287
68394W        W36623  12.238   3.576  12.994
68395W        W36624  44.751  11.257  12.865
68396W        W36625  16.833  31.666  14.854
68397W        W36626  40.614  31.347  10.327
68398W        W36627   7.184   3.206  14.252
68399W        W36628  41.796  32.003  10.174
68400W        W36629  10.241  39.837  13.859
68401W        W36630   2.790  42.578  14.370
68402W        W36631  24.207   1.938  14.625
68403W        W36632  35.217  16.705   0.954
68404W        W36633   1.662  10.366   0.868
68405W        W36634  31.131  26.531   1.277
68406W        W36635  28.320  10.648   0.431
68407W        W36636   0.064  24.514  13.837
68408W        W36637   2.729  12.850   0.920
68409W        W36638  42.234  20.843  11.854
68410W        W36639  12.521  23.221   3.322
68411W        W36640   7.225  11.310   4.148
68412W        W36641  22.932  21.205  10.177
68413W        W36642  34.130  12.145  12.023
68414W        W36643  22.104  28.371   3.194
68415W        W36644  29.714  30.449   1.422
68416W        W36645  37.532  17.101   2.197
68417W        W36646  38.801  12.140   2.635
68418W        W36647  37.753  19.711  10.417
68419W        W36648  27.918  11.274  12.287
68420W        W36649  35.831  32.440  14.911
68421W        W36650  35.208  14.869   2.752
68422W        W36651  29.842  13.818   2.812
68423W        W36652  11.388   8.301   0.665
68424W        W36653  21.320  32.476   3.282
68425W        W36654   5.375  19.490  10.440
68426W        W36655   9.924   9.789  12.147
68427W        W36656   8.761  26.765   0.043
68428W        W36657  27.043   6.882   3.391
68429W        W36658  25.348   2.111  13.557
68430W        W36659   1.864  11.101  14.367
68431W        W36660  26.064  29.250   3.483
68432W        W36661   3.016   5.717  11.246
68433W        W36662  29.002  26.195   1.000
68434W        W36663  30.270   0.441   4.289
68435W        W36664  36.610  28.475   1.797
68436W        W36665  15.158  38.477  14.553
68437W        W36666  16.642  26.972   3.393
68438W        W36667   0.885  17.338   0.288
68439W        W36668  19.302  39.440  13.619
68440W        W36669  44.818  30.739   0.115
68441W        W36670  35.495   7.476   1.817
68442W        W36671  37.925  31.966  12.376
68443W        W36672  35.452  36.298   0.500
68444W        W36673  15.817  14.042  13.823
68445W        W36674  13.326  12.415   0.298
68446W        W36675  31.580  44.406   4.607
68447W        W36676  22.150  38.682  14.205
68448W        W36677  22.109  18.260   4.649
68449W        W36678  29.817  25.756   1.034
68450W        W36679   8.888  23.967   1.692
68451W        W36680  29.855  37.844  14.488
68452W        W36681  23.715  42.640   3.732
68453W        W36682  18.257  26.823   4.567
68454W        W36683   6.514  33.955  12.682
68455W        W36684  11.887  44.776   1.396
68456W        W36685   8.303  15.675  11.195
68457W        W36686   2.307  41.463   2.826
68458W        W36687  21.277  35.502   3.227
68459W        W36688  35.039  21.289   3.527
68460W        W36689   8.906  38.944   0.938
68461W        W36690   7.888  16.827   1.932
68462W        W36691  17.583  23.311  12.324
68463W        W36692  44.908  12.750  11.199
68464W        W36693  11.297  29.516  12.403
68465W        W36694  19.336  22.874  10.190
68466W        W36695  41.342   2.883  14.796
68467W        W36696  20.608  43.591  10.938
68468W        W36697  16.532  25.777  11.112
68469W        W36698   0.690  14.289   0.179
68470W        W36699   6.945  41.223   1.321
68471W        W36700   6.981   4.975   1.161
68472W        W36701  30.424  32.086  13.032
68473W        W36702  12.213  40.369  12.987
68474W        W36703   0.029  44.045  14.863
68475W        W36704  35.002   9.593   4.625
68476W        W36705  40.963  18.335   0.827
68477W        W36706  17.296  40.096   3.695
68478W        W36707  38.483   9.294   2.735
68479W        W36708  10.430   2.241   1.401
68480W        W36709  27.681  23.227  13.444
68481W        W36710  36.629  31.726  10.261
68482W        W36711   5.460  12.257   0.077
68483W        W36712  22.248  35.789  11.134
68484W        W36713  18.243  25.978  10.601
68485W        W36714  23.182   3.750   1.894
68486W        W36715  41.998   5.361  11.525
68487W        W36716   7.177  30.993  14.374
68488W        W36717   9.410  44.752   3.461
68489W        W36718  24.834  43.743  12.103
68490W        W36719   1.626  28.399   0.273
68491W        W36720   8.560  23.731   0.540
68492W        W36721  38.474  38.391  13.999
68493W        W36722  39.848  14.760   2.376
68494W        W36723   3.977   1.148   3.295
68495W        W36724  42.461   9.363  12.912
68496W        W36725   3.839  40.986  13.161
68497W        W36726  31.872   0.348   2.212
68498W        W36727  36.047  44.773   1.802
68499W        W36728  38.796  19.652  14.889
68500W        W36729  32.574  26.371   2.585
68501W        W36730  18.590  16.319   2.235
68502W        W36731  14.121  28.965   3.151
68503W        W36732  28.596   0.596  14.058
68504W        W36733   9.091   0.953   0.309
68505W        W36734  29.097  19.283  13.110
68506W        W36735  41.878  23.851  13.260
68507W        W36736  17.828   1.307  14.101
68508W        W36737  16.165  35.642  14.910
68509W        W36738  42.275   7.694  11.563
68510W        W36739  31.842   8.242  12.085
68511W        W36740  17.841   7.327  11.982
68512W        W36741   1.864  40.054   3.151
68513W        W36742  30.242   2.030   4.237
68514W        W36743   1.215  33.568  12.557
68515W        W36744  36.972  26.660   2.630
68516W        W36745   9.728  16.615   4.512
68517W        W36746  26.177   5.787  11.490
68518W        W36747  13.650  27.175   1.016
68519W        W36748  18.170  16.357   1.692
68520W        W36749  24.671  22.825   3.462
68521W        W36750  44.802  33.948   1.630
68522W        W36751  32.649   7.250   4.120
68523W        W36752  12.672  37.458   4.066
68524W        W36753   0.426  42.529  14.971
68525W        W36754   0.482  44.995  11.096
68526W        W36755  13.793  13.381   0.284
68527W        W36756  38.308  33.957  14.463
68528W        W36757  14.439  14.436   9.724
68529W        W36758   2.247  16.621   2.106
68530W        W36759  23.910  14.068  11.229
68531W        W36760  39.349  23.550  12.088
68532W        W36761  16.766  19.183   4.807
68533W        W36762  31.886  30.882   3.671
68534W        W36763  17.464   7.190   1.407
68535W        W36764  22.047  35.877   1.856
68536W        W36765   2.792  35.815  11.473
68537W        W36766  31.024  12.674  11.301
68538W        W36767   2.532   6.845   3.630
68539W        W36768  42.246  16.305  12.523
68540W        W36769  19.931  40.030  12.182
68541W        W36770  40.016   4.585   1.780
68542W        W36771  16.533  21.276   3.579
68543W        W36772   6.483   7.639  12.184
68544W        W36773   8.677  34.860  11.601
68545W        W36774  27.380  44.458   1.438
68546W        W36775   5.744  39.745   1.368
68547W        W36776  38.788  16.753  13.673
68548W        W36777  33.478   3.631   0.813
68549W        W36778  24.615   8.498  10.307
68550W        W36779  39.080  36.949  11.976
68551W        W36780  41.605  35.054  11.849
68552W        W36781   0.420  30.083   3.722
68553W        W36782  24.495  28.616  11.921
68554W        W36783  17.255  41.800  12.586
68555W        W36784   3.919  43.522   2.359
68556W        W36785  20.014   7.887  13.032
68557W        W36786  33.571  20.101   2.167
68558W        W36787  29.953  11.722   1.304
68559W        W36788  18.108   8.924  14.381
68560W        W36789  10.049   6.361   0.573
68561W        W36790  34.529  33.790   1.242
68562W        W36791  11.224  17.113  14.618
68563W        W36792  16.753  20.657  14.271
68564W        W36793  22.395  27.487   0.942
68565W        W36794  33.189  31.230  11.586
68566W        W36795  32.363  42.971   3.645
68567W        W36796  36.798  16.320  13.340
68568W        W36797  44.720  39.350  11.648
68569W        W36798  33.075   2.301  12.649
68570W        W36799  20.095  28.534   1.865
68571W        W36800  28.636   3.509  13.329
68572W        W36801  39.331  34.240  10.321
68573W        W36802  30.724  42.520  14.845
68574W        W36803   5.853  41.883  12.815
68575W        W36804  44.249  19.002   2.266
68576W        W36805   4.641  39.352  10.658
68577W        W36806  37.320   6.696   3.613
68578W        W36807  12.043  23.275   4.545
68579W        W36808   6.024   4.718   0.718
68580W        W36809   9.799  42.835  13.453
68581W        W36810  21.133  34.495   0.450
68582W        W36811  15.378   6.286  12.033
68583W        W36812  13.379  25.698  10.858
68584W        W36813  10.836  18.529  13.828
68585W        W36814   1.397   3.192  13.997
68586W        W36815  19.494   0.412  11.525
68587W        W36816   3.224  24.621   0.018
68588W        W36817  44.446   9.514   4.571
68589W        W36818  33.831   9.494   1.832
68590W        W36819  20.970  35.959   0.950
68591W        W36820  41.587  32.587   2.530
68592W        W36821  16.461  14.293  12.840
68593W        W36822  40.346  30.284   2.305
68594W        W36823  39.615  17.838   0.820
68595W        W36824  31.654  13.229  13.822
68596W        W36825  44.771   9.152   4.423
68597W        W36826  29.922  28.233  13.078
68598W        W36827  27.892  32.553  11.968
68599W        W36828   5.829  18.840  12.165
68600W        W36829  18.042  35.166  10.962
68601W        W36830  22.450  21.645  12.186
68602W        W36831  31.441   9.086  10.766
68603W        W36832  32.150  43.241  14.162
68604W        W36833  41.694  38.610   3.312
68605W        W36834  14.288   7.330   0.038
68606W        W36835  24.581  15.297  14.437
68607W        W36836  19.208  17.110   4.534
68608W        W36837   7.720  16.558  10.390
68609W        W36838  12.236  24.500  13.900
68610W        W36839  44.297  11.338  13.894
68611W        W36840   4.684  40.482   2.798
68612W        W36841  31.084  38.842   0.782
68613W        W36842  30.106  16.763  13.525
68614W        W36843   9.389  10.539   2.890
68615W        W36844  17.195  29.616  12.984
68616W        W36845  19.652  30.930  11.184
68617W        W36846  36.861  24.046  14.564
68618W        W36847  32.861  32.343   2.488
68619W        W36848  38.743   5.166  14.409
68620W        W36849  32.189  34.978   4.447
68621W        W36850  36.666  23.471   3.351
68622W        W36851  17.785   3.548  11.565
68623W        W36852   8.774  26.506   4.567
68624W        W36853  33.823  15.469  11.492
68625W        W36854  26.211  10.340  11.557
68626W        W36855  10.383   0.396  11.128
68627W        W36856   5.840   8.411   0.482
68628W        W36857  32.227   6.813  11.946
68629W        W36858  35.326  31.843  14.454
68630W        W36859  13.798  38.172  10.578
68631W        W36860   0.107  17.092   3.451
68632W        W36861  38.092  27.688  12.977
68633W        W36862   7.894  23.991   1.926
68634W        W36863   7.569  41.545  14.456
68635W        W36864   9.827  23.992   1.428
68636W        W36865  21.227  10.701  12.040
68637W        W36866  43.056  26.986  12.538
68638W        W36867  12.325  20.145  13.293
68639W        W36868  24.092  15.298  13.261
68640W        W36869   7.708   2.301  14.968
68641W        W36870  21.603  23.040   1.706
68642W        W36871   8.661   8.310  14.445
68643W        W36872   7.887  33.270  10.736
68644W        W36873   4.010   1.213   2.391
68645W        W36874   2.256  42.121  11.083
68646W        W36875  33.518  33.626  13.879
68647W        W36876  44.553  39.988   1.287
68648W        W36877   5.378  26.496   0.059
68649W        W36878  40.800  24.264  12.329
68650W        W36879   6.761  42.201   3.592
68651W        W36880  22.584  31.050  11.094
68652W        W36881  42.123  27.079   0.198
68653W        W36882  25.686  30.461   1.294
68654W        W36883  19.264  16.567   1.731
68655W        W36884  30.978  28.433  13.940
68656W        W36885  38.742  30.459  10.373
68657W        W36886  40.331   7.641   4.151
68658W        W36887  42.947  42.704  11.510
68659W        W36888   9.291  18.070   3.255
68660W        W36889  31.039   2.339  11.179
68661W        W36890  35.508  15.197  13.651
68662W        W36891  16.410  17.568   1.625
68663W        W36892   8.268  24.924  11.532
68664W        W36893  16.877  39.351  14.308
68665W        W36894  24.983   2.281  11.536
68666W        W36895  17.622  16.069   0.839
68667W        W36896  29.793  34.768   3.247
68668W        W36897  44.034  37.388   0.429
68669W        W36898  11.944  25.370  14.066
68670W        W36899  30.644  40.498  12.885
68671W        W36900  32.489  32.030  12.966
68672W        W36901  13.247   7.819   3.144
68673W        W36902  38.280  32.502  12.845
68674W        W36903  27.638  36.483   4.675
68675W        W36904  20.889  26.412   1.357
68676W        W36905  39.162   8.283  11.143
68677W        W36906  44.683   6.690   3.239
68678W        W36907  42.947   2.887  13.602
68679W        W36908   8.735  28.513  14.714
68680W        W36909  42.503  35.964   4.616
68681W        W36910  12.126  11.884  11.590
68682W        W36911  15.733  13.085  11.485
68683W        W36912   0.726  23.294  14.725
68684W        W36913   2.689  40.040  12.255
68685W        W36914  41.807   0.505   2.730
68686W        W36915  20.234  15.341  13.149
68687W        W36916  13.187  22.704   0.315
68688W        W36917  23.537  27.270   4.824
68689W        W36918  23.610  42.756  13.433
68690W        W36919  15.376   6.053   1.338
68691W        W36920  23.518  11.617   5.049
68692W        W36921  35.031  13.926   2.668
68693W        W36922   3.402   9.799  12.034
68694W        W36923  31.522  24.647  12.103
68695W        W36924  28.962  38.815  11.863
68696W        W36925  25.826   0.049   3.119
68697W        W36926  16.189  22.681   4.698
68698W        W36927  28.090   1.007   0.838
68699W        W36928  16.909   4.170  11.670
68700W        W36929   9.043  30.031  13.060
68701W        W36930  18.635  25.097   4.584
68702W        W36931  42.340  33.556   4.620
68703W        W36932   1.276  20.602   4.848
68704W        W36933  11.293  33.599   3.796
68705W        W36934  44.437  17.707   2.523
68706W        W36935  19.948  11.729   2.971
68707W        W36936   0.990  35.225  13.302
68708W        W36937  26.484   6.206  11.134
68709W        W36938  29.601  37.021   2.191
68710W        W36939  24.042  30.439  13.077
68711W        W36940  43.989  23.201   0.866
68712W        W36941  44.054  33.024  13.795
68713W        W36942  42.550  11.805   0.426
68714W        W36943  32.592  43.549  13.406
68715W        W36944   3.358  34.613   0.258
68716W        W36945   9.914   4.365   0.318
68717W        W36946   0.071  30.008   2.472
68718W        W36947   8.939  37.874  12.863
68719W        W36948  38.058  10.253   1.814
68720W        W36949  37.708  40.531   0.982
68721W        W36950   0.818  18.619  11.632
68722W        W36951  42.829  11.058   4.280
68723W        W36952   5.570  41.534   3.276
68724W        W36953  42.143  14.838   3.147
68725W        W36954  22.101  33.628   1.398
68726W        W36955  11.732  17.654   1.360
68727W        W36956  38.523  23.581  14.927
68728W        W36957  16.613  15.731   3.641
68729W        W36958  38.092  17.339  11.623
68730W        W36959   8.361  36.895   1.262
68731W        W36960  23.058  35.851   3.681
68732W        W36961  24.622   6.214   1.328
68733W        W36962  37.603  28.401  13.356
68734W        W36963  26.954  22.820   1.073
68735W        W36964   7.365  17.260  12.412
68736W        W36965  16.032  10.290   3.715
68737W        W36966  11.491  17.697  13.071
68738W        W36967  10.243  30.600   3.362
68739W        W36968  24.212  14.192   0.034
68740W        W36969  43.333  17.483  14.448
68741W        W36970  23.461  33.018  10.279
68742W        W36971  17.494   2.506  12.026
68743W        W36972  30.379  20.788  13.105
68744W        W36973  13.917  31.691   0.245
68745W        W36974   4.976   8.224   1.066
68746W        W36975  32.463  36.634  14.020
68747W        W36976  41.541   5.585  11.916
68748W        W36977  27.658  14.652   2.211
68749W        W36978  11.315  28.094   2.697
68750W        W36979  15.932   5.406  10.491
68751W        W36980  33.989  25.432  11.492
68752W        W36981  38.688   2.816  11.567
68753W        W36982  18.082  16.841  11.477
68754W        W36983  22.302  16.406  11.479
68755W        W36984  40.933  38.156   4.199
68756W        W36985  21.597   8.448  10.773
68757W        W36986   1.326  13.470   0.428
68758W        W36987  43.595  19.187   3.927
68759W        W36988   1.018   9.406   3.353
68760W        W36989   0.376   7.355  12.958
68761W        W36990  40.414  26.125  12.874
68762W        W36991   0.249  18.640   2.679
68763W        W36992  20.130   5.265   2.218
68764W        W36993   5.156  27.617  13.085
68765W        W36994  17.558  31.651   3.869
68766W        W36995  25.096  35.643   2.989
68767W        W36996  38.468  22.757   3.164
68768W        W36997  25.545  10.442   0.130
68769W        W36998   8.785   7.839  10.747
68770W        W36999  43.988  12.129  13.040
68771W        W37000   2.684  28.101  13.301
68772W        W37001   8.739  42.060  11.600
68773W        W37002  44.990  11.795  11.603
68774W        W37003  13.789  22.097  11.633
68775W        W37004  28.235  39.942   3.210
68776W        W37005  29.168  43.997   2.776
68777W        W37006  42.322  27.298   1.036
68778W        W37007   0.138  41.966   1.908
68779W        W37008  22.139  30.528   3.374
68780W        W37009  28.904  28.407   3.798
68781W        W37010  14.890  26.238  13.744
68782W        W37011   8.959  30.161   1.229
68783W        W37012   0.767  20.963  12.907
68784W        W37013  38.608  23.705   3.312
68785W        W37014  31.529   9.682   0.471
68786W        W37015  43.762  40.313   0.343
68787W        W37016  34.689  37.593   5.182
68788W        W37017   2.899   2.458   4.612
68789W        W37018  25.790  34.462  11.966
68790W        W37019   4.627   1.308  12.020
68791W        W37020  25.921  10.112   5.704
68792W        W37021  38.514  39.967   4.613
68793W        W37022  39.125  11.103   4.750
68794W        W37023   1.520  37.511   1.335
68795W        W37024   4.435  23.250  12.464
68796W        W37025  44.161  16.477  12.838
68797W        W37026  38.491   4.640   1.891
68798W        W37027   5.343  33.679   1.755
68799W        W37028  41.039  15.821  10.989
68800W        W37029  25.455  33.552  10.707
68801W        W37030  29.848  21.136  14.859
68802W        W37031   0.365  37.558   4.213
68803W        W37032  24.118   3.019  13.469
68804W        W37033   0.138  29.179   4.513
68805W        W37034  23.547  42.214  11.245
68806W        W37035  21.958  18.321  14.990
68807W        W37036  16.588  25.804  10.615
68808W        W37037  38.441  13.719   1.956
68809W        W37038  15.238  41.069   1.869
68810W        W37039  39.015  41.193   2.003
68811W        W37040   5.943  14.877  13.001
68812W        W37041  13.597  25.230   3.349
68813W        W37042  23.988  30.461   1.857
68814W        W37043  35.408  36.299   3.745
68815W        W37044  43.682   6.875  12.781
68816W        W37045  40.095  38.880   1.294
68817W        W37046  38.965  40.558   3.293
68818W        W37047  36.340   1.297  12.052
68819W        W37048   6.387  23.037   4.874
68820W        W37049  32.143  10.954   3.602
68821W        W37050  39.546   5.480   0.807
68822W        W37051  34.033  31.841   4.732
68823W        W37052  41.652  13.193  14.708
68824W        W37053  18.361  17.584   0.614
68825W        W37054   1.558  10.276  11.641
68826W        W37055  37.619  43.400  14.022
68827W        W37056  34.445  38.152  14.808
68828W        W37057  37.494  12.595  14.954
68829W        W37058   0.907  26.706   1.687
68830W        W37059  17.607  27.041   5.105
68831W        W37060   0.507  22.685   2.747
68832W        W37061  27.182  13.412   2.322
68833W        W37062   9.721  41.985  12.444
68834W        W37063   4.175  27.113   4.511
68835W        W37064  44.782  33.427  10.263
68836W        W37065  38.011  26.171  11.134
68837W        W37066  27.924   7.648  11.151
68838W        W37067  37.218   5.603   5.362
68839W        W37068  22.995  25.743   2.446
68840W        W37069   6.118  40.103   1.409
68841W        W37070  42.161  24.144   3.733
68842W        W37071  22.042  42.965   2.935
68843W        W37072  42.511  35.046  12.461
68844W        W37073  40.523  32.183  13.782
68845W        W37074   5.521  38.751   0.284
68846W        W37075   5.979  31.440   1.852
68847W        W37076   0.545  26.999  14.296
68848W        W37077   8.949  16.176  10.186
68849W        W37078  25.533  39.035   2.415
68850W        W37079  13.236  35.325   2.761
68851W        W37080   0.895   2.473  14.578
68852W        W37081  14.829  41.856   4.374
68853W        W37082  41.887   5.810   0.805
68854W        W37083  32.859   0.539   4.566
68855W        W37084  35.497  44.345   2.291
68856W        W37085  15.391   2.008  11.547
68857W        W37086   0.975  39.423  14.503
68858W        W37087  13.388  28.524   1.985
68859W        W37088   6.714  12.838   4.614
68860W        W37089  24.265  43.847   2.685
68861W        W37090  11.250   5.506  13.358
68862W        W37091   0.227  18.744  10.747
68863W        W37092  35.027  12.736   1.211
68864W        W37093  30.109  19.315   1.800
68865W        W37094  21.347   9.904   3.755
68866W        W37095   3.961   0.757  13.924
68867W        W37096  42.919  34.198  12.501
68868W        W37097  16.238  44.919   4.174
68869W        W37098  13.079  25.545  12.993
68870W        W37099  39.010  42.283  13.788
68871W        W37100  41.291  39.497  12.440
68872W        W37101   9.748  11.233  11.030
68873W        W37102  41.963  24.657   4.458
68874W        W37103  17.593   2.429   1.852
68875W        W37104   2.942  30.374  11.182
68876W        W37105   5.309  10.439  14.818
68877W        W37106   4.673  41.042  13.320
68878W        W37107   8.769  36.627   1.455
68879W        W37108  10.698   5.664  14.848
68880W        W37109  39.755  30.429  11.569
68881W        W37110  17.858  37.110  13.549
68882W        W37111  33.459  19.125  11.672
68883W        W37112  38.971  12.123   0.301
68884W        W37113   1.749   8.599  13.795
68885W        W37114  27.952  32.475  11.100
68886W        W37115   5.413  19.542  11.826
68887W        W37116  37.709  11.080  11.352
68888W        W37117  43.112  36.952   1.185
68889W        W37118  37.067  34.686   1.252
68890W        W37119  41.014  43.471   4.008
68891W        W37120   6.103  38.525  11.144
68892W        W37121  10.612  12.220   3.194
68893W        W37122  22.482  16.806  11.758
68894W        W37123  22.652  21.092   3.496
68895W        W37124  24.871  31.873   1.114
68896W        W37125  25.669  10.894  10.640
68897W        W37126  10.903  13.889  14.933
68898W        W37127  33.724  23.040   1.338
68899W        W37128  40.798   5.681   2.153
68900W        W37129   1.443  12.605  11.534
68901W        W37130   2.278   9.176   0.783
68902W        W37131  37.953  23.822  12.267
68903W        W37132  13.338   5.357   4.079
68904W        W37133  26.605   0.426  13.083
68905W        W37134  40.471  20.681  13.065
68906W        W37135  12.714   9.512   4.760
68907W        W37136  11.262  18.906  13.562
68908W        W37137  35.393  31.220   0.028
68909W        W37138  13.428  43.000  11.026
68910W        W37139  33.891   3.576   0.521
68911W        W37140  22.058  23.627  11.591
68912W        W37141  30.747  38.478   4.788
68913W        W37142   6.662  16.760   0.790
68914W        W37143  21.977  24.094  13.948
68915W        W37144  10.630  26.161  12.395
68916W        W37145   2.935  32.884  10.199
68917W        W37146   2.764  28.566   0.730
68918W        W37147  10.295  26.963  14.816
68919W        W37148  28.508  16.223   1.923
68920W        W37149   1.075  36.021  13.947
68921W        W37150  12.615  20.049   3.251
68922W        W37151   6.906  39.609   4.151
68923W        W37152  28.955  14.336  13.747
68924W        W37153  14.181  13.688   1.319
68925W        W37154  13.373  41.523  14.453
68926W        W37155  11.762  29.642   3.635
68927W        W37156   6.986  10.221  14.498
68928W        W37157   2.392   0.509  12.075
68929W        W37158  34.430  18.340   2.252
68930W        W37159  22.605  34.879   3.998
68931W        W37160  36.557  13.815  11.439
68932W        W37161   3.948   2.434   3.713
68933W        W37162  40.904  41.398   0.321
68934W        W37163  43.097  11.705  12.458
68935W        W37164  18.642   1.822   2.450
68936W        W37165  39.708  35.291  11.281
68937W        W37166  37.144  28.501  10.766
68938W        W37167  27.643  30.854  14.878
68939W        W37168  24.073  30.898   4.147
68940W        W37169  20.129  12.073  13.482
68941W        W37170  17.020  19.334  13.807
68942W        W37171  37.492   4.900  14.957
68943W        W37172  19.328  18.627  13.821
68944W        W37173  30.644  13.918   0.939
68945W        W37174  25.784  12.783  12.024
68946W        W37175  39.943  33.917   1.089
68947W        W37176  44.871   9.828  12.981
68948W        W37177  32.415  43.902  11.346
68949W        W37178  22.190  29.086   2.744
68950W        W37179  12.415  16.471  14.870
68951W        W37180  16.474  22.529   4.158
68952W        W37181  13.270  32.854  11.215
68953W        W37182  18.217   9.607  11.489
68954W        W37183  19.693  38.823   1.265
68955W        W37184  23.727   5.647  13.966
68956W        W37185  19.323  29.576  12.919
68957W        W37186  35.114  43.111   1.228
68958W        W37187  43.291  25.397   3.797
68959W        W37188  35.424  23.021   1.926
68960W        W37189  14.342  17.025   1.394
68961W        W37190   2.561  24.623   0.343
68962W        W37191   0.694  38.988  11.088
68963W        W37192  29.877  11.894  14.359
68964W        W37193  30.827   2.435   2.605
68965W        W37194  33.666  21.306  13.021
68966W        W37195  16.539  13.169  13.395
68967W        W37196  13.792  39.688   0.023
68968W        W37197  13.004  25.048  12.890
68969W        W37198  30.471   4.753   2.430
68970W        W37199  41.015  30.012   0.034
68971W        W37200  30.253  18.872  12.218
68972W        W37201  27.174  12.795   1.824
68973W        W37202  12.263   1.061   4.415
68974W        W37203  38.451  31.912  12.468
68975W        W37204  10.276  26.698  12.980
68976W        W37205   7.677  36.173   1.868
68977W        W37206  35.572  33.134   1.911
68978W        W37207  12.884  35.532   3.786
68979W        W37208  14.196   4.936   3.287
68980W        W37209  35.486  20.585  13.146
68981W        W37210  13.734  23.680  10.264
68982W        W37211  29.197   5.795   4.103
68983W        W37212  13.586  22.868  13.442
68984W        W37213  24.585  39.298   2.132
68985W        W37214  37.413  36.462   4.589
68986W        W37215  40.269  44.390  11.216
68987W        W37216  27.887  19.173   2.270
68988W        W37217  26.123  36.889  14.392
68989W        W37218   5.304  20.766   4.569
68990W        W37219  11.155   3.830  13.824
68991W        W37220  32.348   7.226   3.231
68992W        W37221   3.843  40.411   1.390
68993W        W37222   3.255   3.588   2.618
68994W        W37223  16.563  22.955   9.851
68995W        W37224  34.939  37.856   4.042
68996W        W37225   4.368  12.671  13.094
68997W        W37226  30.626  13.866   3.401
68998W        W37227   1.944  41.650  13.581
68999W        W37228  21.793   3.928   1.681
69000W        W37229   1.839  31.548   2.377
69001W        W37230   6.759  17.749   4.008
69002W        W37231  32.022  16.785   0.666
69003W        W37232   6.515  16.259   1.657
69004W        W37233  20.861  35.694   1.379
69005W        W37234  12.721   2.182   3.905
69006W        W37235  23.624  35.841  11.394
69007W        W37236  20.585  41.336  14.749
69008W        W37237  32.688  21.054   4.254
69009W        W37238  44.338  17.793  12.579
69010W        W37239  16.030  13.377   2.682
69011W        W37240  23.468  12.745  11.152
69012W        W37241  43.937  27.748   0.197
69013W        W37242  15.110  37.812  11.542
69014W        W37243  23.935  38.771   0.810
69015W        W37244   2.853  27.188   2.120
69016W        W37245  25.170  19.303  12.492
69017W        W37246  27.114  12.844  11.603
69018W        W37247  17.124   5.789  10.669
69019W        W37248   8.090  19.729  13.037
69020W        W37249  37.701  17.768   2.728
69021W        W37250  35.872   3.944   2.804
69022W        W37251  24.867  27.221   2.721
69023W        W37252  30.341   8.800  11.135
69024W        W37253   8.833   0.666  11.487
69025W        W37254  20.454  21.109   4.239
69026W        W37255  19.575  30.381  10.341
69027W        W37256  25.468  21.435   2.445
69028W        W37257  33.925  10.226  13.926
69029W        W37258  36.879   2.033   2.255
69030W        W37259   7.408  26.381   3.587
69031W        W37260  43.566  24.461   0.349
69032W        W37261   8.769  15.331  14.549
69033W        W37262   2.252  17.694  12.852
69034W        W37263  39.019  38.435   1.911
69035W        W37264   9.722  27.184   1.376
69036W        W37265  13.665  28.214  14.362
69037W        W37266  17.613  26.353  13.920
69038W        W37267  27.019  19.806   1.231
69039W        W37268  22.347  26.969  12.327
69040W        W37269   3.502   6.149   4.576
69041W        W37270  34.644  42.700  14.350
69042W        W37271   7.919   7.744  13.001
69043W        W37272  34.319   7.377   3.500
69044W        W37273  23.184  11.411   3.178
69045W        W37274  18.372  18.778   5.260
69046W        W37275   3.462  25.635   4.066
69047W        W37276  24.144  40.883   5.141
69048W        W37277  39.419  29.422   4.135
69049W        W37278   6.252  13.108   3.769
69050W        W37279  21.844  14.155  10.221
69051W        W37280  27.486  11.142  12.016
69052W        W37281  16.674  40.844   3.705
69053W        W37282  29.146  41.343   4.228
69054W        W37283  15.728   0.347   3.722
69055W        W37284  29.711  19.284  11.697
69056W        W37285  13.432  30.128  12.516
69057W        W37286  23.749  34.043  12.816
69058W        W37287  12.158  12.285   2.356
69059W        W37288  10.246   2.844  11.974
69060W        W37289  17.259   9.318   0.880
69061W        W37290  19.113  10.622  14.346
69062W        W37291   5.877  17.792   0.428
69063W        W37292  29.908   1.392  12.046
69064W        W37293  30.603  11.810   0.035
69065W        W37294  30.386  13.534   1.358
69066W        W37295  23.008  30.452   9.813
69067W        W37296  17.025  41.428   4.305
69068W        W37297  18.994  29.434  14.951
69069W        W37298  24.725  23.287   3.207
69070W        W37299  13.006   4.869  10.398
69071W        W37300  29.700  44.912   3.788
69072W        W37301  23.065  27.239   1.879
69073W        W37302  19.272  38.613   0.402
69074W        W37303  43.964  18.161  13.372
69075W        W37304  34.486   3.314   2.437
69076W        W37305  33.880  23.627  14.375
69077W        W37306   9.328   1.008   4.054
69078W        W37307  10.110  36.647  13.537
69079W        W37308  16.317  19.529   1.922
69080W        W37309  22.116  34.920   4.841
69081W        W37310  24.725  21.286  13.151
69082W        W37311   0.373  33.659  10.957
69083W        W37312  10.718  34.889   3.564
69084W        W37313  20.654  17.479  12.544
69085W        W37314  21.360  41.792  13.140
69086W        W37315   8.328  23.386  12.903
69087W        W37316   9.831   6.222   3.727
69088W        W37317   5.928   8.322   2.687
69089W        W37318  41.873   0.741   0.100
69090W        W37319  19.761  28.096   4.089
69091W        W37320  40.295  13.128  13.681
69092W        W37321   5.454  26.073   0.719
69093W        W37322  22.445   1.390   3.739
69094W        W37323   2.774  33.189  13.011
69095W        W37324  44.440   7.307   3.249
69096W        W37325  29.683  32.976   0.367
69097W        W37326  10.430  30.935   3.730
69098W        W37327   3.723  28.983   1.704
69099W        W37328   0.334  20.645  12.986
69100W        W37329  38.295  39.963   0.837
69101W        W37330   8.683  35.815  14.262
69102W        W37331  12.388  25.578   1.266
69103W        W37332  26.480   3.475  11.783
69104W        W37333   3.696   4.698  11.676
69105W        W37334  42.428   4.323   4.644
69106W        W37335  31.241   3.804   4.537
69107W        W37336  41.791  29.192   4.145
69108W        W37337  28.715  40.994  11.543
69109W        W37338   0.548  14.113   0.668
69110W        W37339  27.436  22.733  12.157
69111W        W37340  15.579   9.249  14.973
69112W        W37341  31.984   7.237  11.761
69113W        W37342  38.470  10.054  11.979
69114W        W37343  31.871  19.290   5.009
69115W        W37344  22.190  35.091  10.446
69116W        W37345  12.432  43.767  11.533
69117W        W37346  37.974  10.221  11.918
69118W        W37347   5.923  26.484   2.871
69119W        W37348  33.002  38.979  12.310
69120W        W37349  27.392   1.697  14.657
69121W        W37350   5.177  19.319   1.352
69122W        W37351  14.841  14.204   0.873
69123W        W37352  20.800   7.155   0.298
69124W        W37353   9.861  42.445  12.080
69125W        W37354   9.997  36.303   3.283
69126W        W37355  33.482  30.403  11.952
69127W        W37356  37.723  39.118  10.270
69128W        W37357   1.955  32.133  10.677
69129W        W37358  14.280  44.493  13.360
69130W        W37359  35.903  33.189  10.857
69131W        W37360  21.861  33.943  12.958
69132W        W37361  43.190  19.184   1.466
69133W        W37362  25.751  35.865  11.478
69134W        W37363  43.417   7.958   0.486
69135W        W37364   1.318  14.287   4.072
69136W        W37365   4.668  18.365  11.117
69137W        W37366  29.411  38.074   2.814
69138W        W37367  12.392   4.773  11.145
69139W        W37368   3.289  29.993  14.736
69140W        W37369  10.177  37.492   0.265
69141W        W37370  36.999  40.435   1.733
69142W        W37371   1.480  14.584   2.439
69143W        W37372   5.320  44.852   0.226
69144W        W37373  31.861  12.633  13.492
69145W        W37374   4.813   8.774   0.249
69146W        W37375  10.773  28.662  11.642
69147W        W37376  43.387  10.739   3.631
69148W        W37377   7.260   7.525   2.892
69149W        W37378  29.716  43.052   2.413
69150W        W37379  39.277  42.889  11.719
69151W        W37380  24.215   4.052   4.044
69152W        W37381  21.172  24.018   4.303
69153W        W37382   6.798  43.747  12.859
69154W        W37383   5.903   1.767   0.350
69155W        W37384  40.322  22.953  12.587
69156W        W37385  11.127  37.793   3.883
69157W        W37386   1.254   9.784   1.314
69158W        W37387   7.856  32.595   4.157
69159W        W37388  16.491  11.078   2.944
69160W        W37389  34.419  23.143  11.539
69161W        W37390  36.462  28.886   2.525
69162W        W37391  10.920  40.842   1.407
69163W        W37392  28.509  27.548   0.953
69164W        W37393  37.118   7.808  11.495
69165W        W37394  24.708  40.568  12.193
69166W        W37395  31.435  26.933   1.400
69167W        W37396   4.748  21.244   2.611
69168W        W37397  29.186  31.650  11.126
69169W        W37398  10.709  14.895  14.665
69170W        W37399  31.621  22.483  12.782
69171W        W37400  25.006   5.657  11.156
69172W        W37401  35.500  21.717  14.233
69173W        W37402  27.387  24.393  11.114
69174W        W37403   2.560  34.026  14.913
69175W        W37404   3.350  33.885   4.538
69176W        W37405  23.161  22.154  12.157
69177W        W37406  33.655  27.426   3.684
69178W        W37407   5.584  21.126  12.747
69179W        W37408   9.891  38.988   1.849
69180W        W37409  22.232  34.306   3.210
69181W        W37410  38.050  29.639   3.967
69182W        W37411  21.005  11.875   2.322
69183W        W37412   2.298  31.972   1.239
69184W        W37413  19.223   7.317   1.701
69185W        W37414  19.783  31.551  13.489
69186W        W37415   7.364   6.511   2.727
69187W        W37416  37.176   4.856   4.876
69188W        W37417   5.897  39.463   4.390
69189W        W37418  41.400  41.604  13.332
69190W        W37419  18.636  12.461   0.401
69191W        W37420  17.692  35.905   4.510
69192W        W37421  22.431  12.320  14.025
69193W        W37422  40.934   1.800  10.489
69194W        W37423  40.899  23.116  14.018
69195W        W37424  29.625  13.365   0.239
69196W        W37425  19.775  44.136   0.371
69197W        W37426  11.917   9.223   3.710
69198W        W37427  18.215   9.306   4.425
69199W        W37428   6.874   2.337  13.287
69200W        W37429  17.619  10.661  13.348
69201W        W37430  11.494  18.303   0.285
69202W        W37431  35.520  33.572  12.978
69203W        W37432  31.019  22.114  13.100
69204W        W37433   7.931   1.739   4.733
69205W        W37434  43.022   6.703  14.740
69206W        W37435   6.791  24.996  12.071
69207W        W37436  16.528  20.360  12.929
69208W        W37437  23.284  31.384  11.570
69209W        W37438   0.291   4.195   4.111
69210W        W37439  35.510  17.667  12.324
69211W        W37440  43.090  22.280   1.438
69212W        W37441   4.896  12.236  12.118
69213W        W37442  13.847  37.736  13.423
69214W        W37443  37.053  34.949  12.831
69215W        W37444  16.859  32.948  14.654
69216W        W37445  35.335   8.703   3.707
69217W        W37446  11.328   7.929   1.680
69218W        W37447  42.995   8.949  12.671
69219W        W37448  44.611  27.000  11.032
69220W        W37449   7.075  14.474   1.085
69221W        W37450  44.748   8.125   2.260
69222W        W37451  22.046   0.494   1.942
69223W        W37452  17.968   5.159   4.253
69224W        W37453   4.999   0.033   1.379
69225W        W37454  13.650   3.253   1.277
69226W        W37455  36.221  25.280  14.049
69227W        W37456   1.912  14.865  13.894
69228W        W37457  11.232  18.766   1.031
69229W        W37458   9.788  32.695  12.389
69230W        W37459  39.352  11.294  14.078
69231W        W37460  26.115   5.308   1.375
69232W        W37461  26.457   2.300   5.082
69233W        W37462   4.206  19.212   2.098
69234W        W37463  21.673  30.709  12.903
69235W        W37464  41.334  12.156   3.129
69236W        W37465  37.476  25.983  12.561
69237W        W37466   3.492   4.831   4.628
69238W        W37467  37.126  32.264  14.791
69239W        W37468  27.227  21.795   1.216
69240W        W37469  44.753  43.149  10.556
69241W        W37470  15.078  16.815   4.492
69242W        W37471   8.151  17.851   3.797
69243W        W37472   4.002  27.065   3.594
69244W        W37473  38.900  38.915  10.562
69245W        W37474   5.925   1.880  13.858
69246W        W37475  19.492  38.873  12.105
69247W        W37476  19.623  41.416  14.051
69248W        W37477   4.257  36.390   4.651
69249W        W37478  26.996  16.026  11.977
69250W        W37479  13.356  20.992  12.538
69251W        W37480  44.891  33.587  12.998
69252W        W37481   5.414  32.003   1.334
69253W        W37482  19.097  10.967  13.814
69254W        W37483   8.172  33.874   1.155
69255W        W37484  20.944  27.374   3.202
69256W        W37485   4.284   5.374  12.059
69257W        W37486  35.514  19.034  12.113
69258W        W37487  22.779  44.781  13.837
69259W        W37488  32.890  15.652  10.250
69260W        W37489  27.776  33.782   5.059
69261W        W37490  39.843   5.998  14.861
69262W        W37491  14.729  34.987   3.423
69263W        W37492  29.716  12.855   0.272
69264W        W37493  26.689   6.169   0.952
69265W        W37494  24.096   7.162   0.840
69266W        W37495  15.627  40.559  13.879
69267W        W37496   7.999  22.348   3.231
69268W        W37497  23.069  16.182   3.224
69269W        W37498  18.073  27.102   2.310
69270W        W37499  17.573  12.634   3.207
69271W        W37500  36.858  41.078  14.953
69272W        W37501  30.996  19.525   3.743
69273W        W37502  36.248   4.713   3.285
69274W        W37503  35.067  29.338   2.894
69275W        W37504  12.243   0.398   1.203
69276W        W37505  30.155   0.942   4.872
69277W        W37506  30.598  32.423   0.734
69278W        W37507  30.645  21.991  14.350
69279W        W37508  14.355   0.415  14.343
69280W        W37509  20.274  33.076  14.103
69281W        W37510  25.025   3.235  14.542
69282W        W37511  32.922  18.587   2.260
69283W        W37512  14.107  30.011  13.159
69284W        W37513  20.669  10.339  10.694
69285W        W37514  18.851  15.317   4.577
69286W        W37515  37.406  15.636  11.019
69287W        W37516  42.043  18.576  10.933
69288W        W37517  22.399  30.400   0.532
69289W        W37518   5.868  30.537  12.614
69290W        W37519  44.242  20.728  11.220
69291W        W37520  37.022  21.464   1.379
69292W        W37521  33.595  43.138  12.046
69293W        W37522  10.779  32.885   3.804
69294W        W37523  26.479  31.483   2.859
69295W        W37524  24.618  17.598  13.449
69296W        W37525  41.825  14.552  10.998
69297W        W37526  18.640  23.752  14.955
69298W        W37527  39.593  35.349  13.433
69299W        W37528  19.549  20.240  11.930
69300W        W37529  34.399   2.762   3.279
69301W        W37530  19.187  29.099   2.129
69302W        W37531   2.269   7.403   1.740
69303W        W37532  44.147  14.208   4.207
69304W        W37533  16.299  20.167  14.953
69305W        W37534  43.622  38.098   1.605
69306W        W37535  27.968  37.576   4.205
69307W        W37536   1.493  25.956   0.858
69308W        W37537   2.873  30.887   4.229
69309W        W37538  40.474  40.298  10.093
69310W        W37539  34.039  26.752   3.609
69311W        W37540   7.263  37.583   1.013
69312W        W37541  22.899  17.327   2.754
69313W        W37542  24.409   8.319  11.615
69314W        W37543   9.166  29.296   2.554
69315W        W37544   0.247   5.509  12.996
69316W        W37545  42.537  29.046   2.429
69317W        W37546  37.134  38.894  10.489
69318W        W37547  42.797  29.736   5.160
69319W        W37548  28.583   9.384   0.792
69320W        W37549  25.920  38.548   1.756
69321W        W37550  10.871  22.056  12.308
69322W        W37551  42.196  32.279  10.393
69323W        W37552  13.061  32.418  11.415
69324W        W37553  27.151  37.300  14.798
69325W        W37554  16.152  18.552   1.890
69326W        W37555  39.357  10.476  10.649
69327W        W37556  18.002   2.212  12.908
69328W        W37557  42.370  28.665   1.250
69329W        W37558  35.796   7.523  10.986
69330W        W37559  11.408  40.807  12.058
69331W        W37560   7.188  14.170   1.478
69332W        W37561  36.927  29.663  10.051
69333W        W37562  16.760   1.949  12.230
69334W        W37563  11.171  32.000   0.347
69335W        W37564   4.447  22.304   1.148
69336W        W37565   5.704   9.417  12.116
69337W        W37566  38.814  44.652  13.561
69338W        W37567  20.414  21.552  13.740
69339W        W37568  41.961  22.496   1.382
69340W        W37569  41.273  27.001   4.087
69341W        W37570  34.553  32.899  11.706
69342W        W37571   1.814   9.202  12.988
69343W        W37572   7.002  35.713  12.140
69344W        W37573   1.782  13.586   2.377
69345W        W37574   0.403  25.835  12.035
69346W        W37575  18.713  35.642   2.664
69347W        W37576  23.317  24.524   3.683
69348W        W37577  41.361  43.110  12.456
69349W        W37578  28.164  11.931  11.503
69350W        W37579  29.614  18.261   1.527
69351W        W37580  22.117  20.347  10.946
69352W        W37581   5.436  10.157  14.401
69353W        W37582  27.002   3.346   3.168
69354W        W37583  21.198  33.344   0.492
69355W        W37584  40.577  26.096   1.862
69356W        W37585  30.315  31.301  10.653
69357W        W37586  41.809  38.376  13.961
69358W        W37587   0.987  43.319  11.302
69359W        W37588  23.689  33.087  12.470
69360W        W37589   1.035  43.867  10.619
69361W        W37590   2.720  39.404   4.273
69362W        W37591   8.303  31.861   2.309
69363W        W37592  20.302  15.416   1.843
69364W        W37593  17.675  34.989   2.324
69365W        W37594  18.935   8.601  11.636
69366W        W37595  11.343  20.303   3.673
69367W        W37596  34.935  35.396   0.669
69368W        W37597  14.584  22.758  12.844
69369W        W37598   5.401   4.246   2.259
69370W        W37599  33.950  39.304  11.619
69371W        W37600  22.529  13.773   4.187
69372W        W37601  29.646  25.205   3.100
69373W        W37602  41.002  42.193   2.031
69374W        W37603  22.340  22.593   1.681
69375W        W37604   1.350  33.146  14.811
69376W        W37605  32.648  21.680  14.715
69377W        W37606  37.511   6.104  11.538
69378W        W37607   5.205  17.980   0.851
69379W        W37608  37.003  29.539   1.198
69380W        W37609  44.189  26.712  11.421
69381W        W37610  37.444   6.910  13.912
69382W        W37611  44.913  34.567   1.013
69383W        W37612  18.323  29.684   2.713
69384W        W37613  25.211  16.476  14.618
69385W        W37614  43.936  34.953   1.804
69386W        W37615  11.201  14.188  11.037
69387W        W37616  17.565  10.923   0.006
69388W        W37617   8.317   9.850  12.509
69389W        W37618  13.751  42.984   3.134
69390W        W37619  32.365  30.906   4.552
69391W        W37620  10.411  34.051   2.806
69392W        W37621  16.766  12.018  13.805
69393W        W37622  13.855  42.877  14.457
69394W        W37623  29.057  15.075   3.669
69395W        W37624  17.619  37.103   3.324
69396W        W37625  33.929  38.911  12.502
69397W        W37626  26.210  19.779   3.206
69398W        W37627  22.602  10.623   0.262
69399W        W37628  18.024   4.706  10.670
69400W        W37629   0.703  40.469   2.654
69401W        W37630   2.645  33.939  12.531
69402W        W37631  11.060  31.982   1.409
69403W        W37632  29.624  21.599  13.807
69404W        W37633  30.409  30.479   1.973
69405W        W37634   3.803  19.252   4.991
69406W        W37635   5.159  26.044   0.230
69407W        W37636  24.977  10.692   1.425
69408W        W37637  29.059  40.082  12.402
69409W        W37638  42.932   5.094   3.117
69410W        W37639   6.428  11.548   3.647
69411W        W37640   0.858   5.181  10.928
69412W        W37641   4.326  43.463  14.539
69413W        W37642   2.163  21.601   3.839
69414W        W37643  38.209  43.811  12.419
69415W        W37644   2.272  29.057  14.907
69416W        W37645  36.043   1.717   3.981
69417W        W37646  23.992  35.296   0.941
69418W        W37647   1.949  19.167  10.628
69419W        W37648  15.146  26.716  13.788
69420W        W37649  23.016  16.849  10.740
69421W        W37650   6.145  41.563  11.476
69422W        W37651  34.576  34.356  10.610
69423W        W37652  35.082   0.742  13.504
69424W        W37653   6.312  17.488  13.792
69425W        W37654   3.827  30.569   1.941
69426W        W37655  19.012  14.630   2.917
69427W        W37656  18.274  26.404   4.918
69428W        W37657  25.636   9.383   4.840
69429W        W37658  44.534  32.462   1.455
69430W        W37659  22.132  35.282  11.193
69431W        W37660  32.355   5.721   0.749
69432W        W37661  27.788  20.323  11.204
69433W        W37662  35.098   9.082   5.486
69434W        W37663  33.088  20.140   3.536
69435W        W37664  37.521  35.536  10.784
69436W        W37665  28.958  30.123   1.943
69437W        W37666  20.565  24.940   2.741
69438W        W37667  43.382  13.717  14.974
69439W        W37668  38.494  25.150   0.514
69440W        W37669   9.179  18.050  14.866
69441W        W37670  26.625  13.089  10.952
69442W        W37671  33.638  12.458  13.378
69443W        W37672  22.128  12.548  10.635
69444W        W37673  28.465  22.909  13.875
69445W        W37674   2.442   4.319   3.678
69446W        W37675  10.212  13.034   3.652
69447W        W37676  34.956  43.409   3.886
69448W        W37677  39.076  24.318  13.497
69449W        W37678  29.203   1.940  10.545
69450W        W37679  24.253   1.792  11.158
69451W        W37680  15.750  19.344   4.289
69452W        W37681  16.189  30.674   0.225
69453W        W37682  30.871  35.074   0.872
69454W        W37683   9.804  31.029   1.881
69455W        W37684  27.394   3.252  11.543
69456W        W37685   2.722  27.066   2.620
69457W        W37686  29.206   4.333  12.511
69458W        W37687  11.791  25.935  11.467
69459W        W37688  23.336  25.582   4.305
69460W        W37689   9.769  34.411   4.787
69461W        W37690  42.921  37.883  14.463
69462W        W37691  44.278  38.830   2.787
69463W        W37692   7.115  30.434  14.038
69464W        W37693   7.664  28.069   0.352
69465W        W37694  14.999  30.270   4.723
69466W        W37695  18.061  38.969  10.938
69467W        W37696  12.341  23.163   1.462
69468W        W37697  37.866  43.848  14.209
69469W        W37698  15.967  18.050   3.208
69470W        W37699  38.254  10.345  11.503
69471W        W37700  26.518  23.682  13.953
69472W        W37701  10.145  12.807   2.058
69473W        W37702  38.556  40.783  13.951
69474W        W37703  40.492   4.323  14.229
69475W        W37704  18.748  24.370   0.745
69476W        W37705  31.413  30.628  14.371
69477W        W37706  11.841  24.990  12.081
69478W        W37707   4.694  34.309   2.660
69479W        W37708  37.591  25.618   1.756
69480W        W37709   3.842  10.317  14.910
69481W        W37710  36.895  44.822   4.603
69482W        W37711  12.868  16.422   0.725
69483W        W37712  36.921  40.732   4.399
69484W        W37713  14.617  13.055   1.297
69485W        W37714   4.820  34.413  10.529
69486W        W37715  31.428  11.782  13.109
69487W        W37716   2.347  23.672   2.281
69488W        W37717  23.217  39.386   1.805
69489W        W37718  38.281  33.454   3.978
69490W        W37719  34.880  34.580  11.233
69491W        W37720  19.712  34.856  10.923
69492W        W37721   7.323  13.615   4.591
69493W        W37722  44.431   7.217  13.123
69494W        W37723  10.213  30.885  14.085
69495W        W37724  44.853  34.980   3.221
69496W        W37725  11.775   5.167  14.746
69497W        W37726  32.783  25.098   2.345
69498W        W37727  34.521  33.806  13.025
69499W        W37728   9.291   7.755   1.973
69500W        W37729  26.569  44.343  10.968
69501W        W37730  16.482   5.800  14.325
69502W        W37731  17.075  18.622  11.506
69503W        W37732  32.080  21.592  11.465
69504W        W37733  29.505  16.365   3.657
69505W        W37734   8.454  21.555   1.146
69506W        W37735  12.339  14.106  13.326
69507W        W37736  37.761  14.713  13.163
69508W        W37737  28.143   7.335   4.607
69509W        W37738  17.501  28.630   4.013
69510W        W37739  41.554  27.754   3.208
69511W        W37740  37.061  32.874  11.630
69512W        W37741  24.614  33.420   4.340
69513W        W37742  26.640   3.922   4.112
69514W        W37743  32.671  42.837   2.314
69515W        W37744  19.581   7.513  13.487
69516W        W37745  41.839  10.727  13.142
69517W        W37746  22.664  42.879   1.720
69518W        W37747  30.100  40.549   0.735
69519W        W37748  30.903  32.794   0.933
69520W        W37749  14.556  41.687  11.191
69521W        W37750  36.035  43.881  14.890
69522W        W37751  19.097  34.468   1.952
69523W        W37752  25.269  14.817  13.872
69524W        W37753  19.748   7.852   4.591
69525W        W37754  38.286  39.892  12.105
69526W        W37755  44.474  33.617   1.884
69527W        W37756  18.331  34.987  14.984
69528W        W37757  16.295  43.822  13.834
69529W        W37758  11.725  17.838  11.000
69530W        W37759  20.022  43.460   2.152
69531W        W37760  11.616   0.892   2.120
69532W        W37761  19.620  24.005  13.815
69533W        W37762   3.810  29.145  11.304
69534W        W37763  18.834  42.520  13.478
69535W        W37764   3.885  41.534  14.520
69536W        W37765  39.600  10.417  13.123
69537W        W37766   9.252  14.260   4.390
69538W        W37767  20.186   6.390   0.522
69539W        W37768  16.147  11.381  13.077
69540W        W37769  29.099  33.013  13.384
69541W        W37770  11.353  33.556   1.433
69542W        W37771   4.478   9.130  13.195
69543W        W37772  15.090  24.221   1.872
69544W        W37773   3.894   0.773   2.691
69545W        W37774  18.082   3.977  13.486
69546W        W37775  24.203  24.657  10.611
69547W        W37776  21.568  29.291   0.604
69548W        W37777  21.600  41.992  11.331
69549W        W37778  21.034   2.289  11.576
69550W        W37779   2.074   7.591   3.129
69551W        W37780   8.084  21.774  14.301
69552W        W37781  24.080  18.325  12.340
69553W        W37782   2.797  11.708  12.568
69554W        W37783   1.333  30.385  10.690
69555W        W37784   4.915  19.683  10.312
69556W        W37785  43.003  25.684  14.609
69557W        W37786  24.026  30.344  12.380
69558W        W37787  19.608  12.236  14.712
69559W        W37788  13.245  32.993   0.704
69560W        W37789  41.020  34.545   3.332
69561W        W37790  37.088  30.974   2.741
69562W        W37791  34.323   7.645   4.136
69563W        W37792  42.307  17.205   3.661
69564W        W37793  10.823  38.377   2.666
69565W        W37794   0.880  17.728  11.623
69566W        W37795   4.340  33.543   1.995
69567W        W37796   2.888   7.663  10.683
69568W        W37797   1.996  35.451  13.362
69569W        W37798  17.609   2.319   4.406
69570W        W37799  33.089  12.553  10.361
69571W        W37800  31.790   6.968   2.258
69572W        W37801   2.039   2.344   2.367
69573W        W37802  20.132  39.668   2.847
69574W        W37803  12.782  43.733  14.003
69575W        W37804  17.664   3.948  11.893
69576W        W37805  16.646   7.758  10.785
69577W        W37806  39.368  38.942  14.847
69578W        W37807   4.430  42.073   3.264
69579W        W37808  36.912  20.098   1.092
69580W        W37809   9.472   4.153  13.279
69581W        W37810  16.260  43.070  14.392
69582W        W37811  14.184  19.741   2.406
69583W        W37812  10.878  35.578   4.682
69584W        W37813  17.588  17.747  11.600
69585W        W37814  22.630  15.608   0.339
69586W        W37815  40.410   7.145   2.190
69587W        W37816  33.121   5.109  13.079
69588W        W37817  42.838  24.538  14.776
69589W        W37818  30.043  22.170  11.700
69590W        W37819   3.020  28.046  11.497
69591W        W37820  36.319  26.605   3.910
69592W        W37821  40.018  25.399  11.136
69593W        W37822  33.621  17.640  12.332
69594W        W37823  26.226  15.597  10.421
69595W        W37824  24.527  36.035  13.904
69596W        W37825  16.306  43.969   2.754
69597W        W37826  28.588  41.439  10.722
69598W        W37827  32.401  20.139   2.433
69599W        W37828  33.231  30.931  14.082
69600W        W37829   1.371  21.299  10.791
69601W        W37830  10.311  19.694   0.277
69602W        W37831  26.356  43.416   0.523
69603W        W37832   8.600   0.243   2.597
69604W        W37833  17.350  40.845  12.549
69605W        W37834  39.092  34.968   2.604
69606W        W37835  24.296  43.850  11.248
69607W        W37836  24.209   2.439   2.796
69608W        W37837  32.409  12.290   4.684
69609W        W37838  35.147  18.766  12.822
69610W        W37839  23.202  31.505   4.172
69611W        W37840  22.021  25.634  12.352
69612W        W37841  31.892  18.493  10.031
69613W        W37842  31.914  22.319   0.427
69614W        W37843  44.899   2.124  10.720
69615W        W37844  38.951  33.995   2.387
69616W        W37845  27.347  26.909  14.001
69617W        W37846  28.515  31.068  14.036
69618W        W37847  10.231  42.963   0.286
69619W        W37848  19.662  40.589   0.037
69620W        W37849  10.605  26.569   1.179
69621W        W37850   5.140  18.231  11.956
69622W        W37851   9.416  30.160  13.448
69623W        W37852  20.087  16.578   1.439
69624W        W37853  40.322   7.741   2.755
69625W        W37854  41.686  44.035  12.562
69626W        W37855  29.969  10.249   0.604
69627W        W37856  10.319  29.105   1.925
69628W        W37857  21.159  21.581   4.472
69629W        W37858  37.632  10.372  12.874
69630W        W37859  37.176  24.166   1.313
69631W        W37860  32.107  33.075   4.206
69632W        W37861   4.335  37.367  13.013
69633W        W37862  11.795   9.951   1.723
69634W        W37863  17.091  38.819  10.534
69635W        W37864   1.831  38.938   5.092
69636W        W37865  31.445  10.303  12.938
69637W        W37866  38.023  29.008  10.623
69638W        W37867   9.678  26.416   2.747
69639W        W37868  16.559  32.644  14.963
69640W        W37869  19.031  25.841   2.587
69641W        W37870  10.630  37.828   2.351
69642W        W37871  24.656  38.947  11.499
69643W        W37872  29.667   8.334   0.410
69644W        W37873  39.994  20.332  12.272
69645W        W37874  42.893  23.213  11.324
69646W        W37875  10.451  18.701   3.968
69647W        W37876   6.266  35.337   4.529
69648W        W37877   3.379  40.483   0.002
69649W        W37878  18.026  39.761  11.612
69650W        W37879  16.658  31.577  12.148
69651W        W37880   3.400   4.871   3.159
69652W        W37881  28.233  28.719  14.079
69653W        W37882  10.855  10.201  14.395
69654W        W37883  21.543  38.866  12.534
69655W        W37884  38.798  28.521  12.472
69656W        W37885  32.820  17.260  11.600
69657W        W37886  20.644  27.839   1.266
69658W        W37887  23.769  16.709   0.409
69659W        W37888  24.592  12.140  12.081
69660W        W37889   1.867  16.800  12.523
69661W        W37890  18.610  38.391  13.606
69662W        W37891  20.675  26.020  14.285
69663W        W37892   1.967  34.473  14.353
69664W        W37893  37.341  15.728   0.368
69665W        W37894  25.980  31.537  13.376
69666W        W37895   5.986  18.635  13.332
69667W        W37896  18.406   1.540  14.023
69668W        W37897  33.548  42.785   2.748
69669W        W37898   8.055   9.557  14.766
69670W        W37899   7.608  38.779   3.144
69671W        W37900  23.875  11.806  13.284
69672W        W37901  41.991   9.256   2.926
69673W        W37902  37.844  25.108   1.739
69674W        W37903   4.362  37.168  14.449
69675W        W37904  39.102  43.673  10.256
69676W        W37905  29.596  18.346  12.065
69677W        W37906  26.947  11.212   0.027
69678W        W37907  43.413  33.501   0.798
69679W        W37908  14.255  33.323  13.945
69680W        W37909  16.477  34.278  12.429
69681W        W37910  19.172  24.536  13.258
69682W        W37911  28.056   5.443   3.850
69683W        W37912   8.381   2.843   4.182
69684W        W37913  36.455  14.574   0.007
69685W        W37914  19.307  15.195   2.811
69686W        W37915  35.322  40.781  13.938
69687W        W37916  15.053  12.232   0.709
69688W        W37917  13.335  43.424   0.750
69689W        W37918  30.500  15.541   0.306
69690W        W37919  15.768  26.586  12.401
69691W        W37920   6.732  33.064  13.514
69692W        W37921  23.547  17.228   2.766
69693W        W37922  35.313  30.400  10.259
69694W        W37923   5.867  25.455  12.058
69695W        W37924   8.095   9.189   0.659
69696W        W37925  19.705   7.760  13.927
69697W        W37926  27.824   4.997  12.495
69698W        W37927  36.550  42.768   4.501
69699W        W37928  25.898  33.948  14.438
69700W        W37929   9.488  25.296  11.984
69701W        W37930  10.336  22.747  12.086
69702W        W37931  23.549   5.690   3.673
69703W        W37932  30.557  38.541   1.567
69704W        W37933   6.136  37.843  12.876
69705W        W37934  19.605   6.995  12.144
69706W        W37935  31.704  33.380  12.916
69707W        W37936  30.040  31.209   3.902
69708W        W37937   6.321  38.647   1.142
69709W        W37938  36.952   4.974   2.764
69710W        W37939  20.008   0.656  12.374
69711W        W37940  19.629   7.271   0.759
69712W        W37941  17.755  40.920  11.256
69713W        W37942  35.399  44.452   0.254
69714W        W37943  16.337  39.570   4.161
69715W        W37944  24.662  29.078  12.077
69716W        W37945   9.408   0.763   0.761
69717W        W37946   3.656   6.976  12.449
69718W        W37947   6.706  26.440   2.413
69719W        W37948  42.263  21.541   2.151
69720W        W37949   0.681  29.191   4.562
69721W        W37950  34.471  44.229  11.997
69722W        W37951  17.143  30.128  10.583
69723W        W37952  32.078   5.799  10.673
69724W        W37953   7.858  17.601  11.154
69725W        W37954  30.330  17.279  11.542
69726W        W37955  42.844  16.703  10.610
69727W        W37956   1.975  44.877  10.361
69728W        W37957  38.122  30.614  13.129
69729W        W37958  41.509   1.942  14.342
69730W        W37959  19.790  24.930  14.108
69731W        W37960   3.075   3.780  12.518
69732W        W37961  17.595  39.776  13.814
69733W        W37962  41.525  10.783   2.314
69734W        W37963   4.756  23.897  14.494
69735W        W37964   0.717  16.600   4.536
69736W        W37965  42.900  20.727  14.856
69737W        W37966  13.153  10.856   0.980
69738W        W37967  33.431  41.069   2.308
69739W        W37968   4.010  34.005   2.003
69740W        W37969  17.486   3.226   4.868
69741W        W37970  14.867  36.453  14.545
69742W        W37971  12.850  14.744  10.424
69743W        W37972   3.334   3.877   3.861
69744W        W37973  13.171  20.681   1.382
69745W        W37974  10.897  13.666   2.827
69746W        W37975   8.374  37.366  13.963
69747W        W37976  11.886   1.468   3.404
69748W        W37977  26.801   0.027   3.470
69749W        W37978  44.694  44.481   4.543
69750W        W37979  12.206  28.811   3.185
69751W        W37980   3.371   4.695   0.348
69752W        W37981   7.832   3.504   2.700
69753W        W37982  42.215  25.003   3.738
69754W        W37983  30.469  21.675   0.716
69755W        W37984  11.201  28.044   1.339
69756W        W37985  25.699  17.114   4.049
69757W        W37986  34.870  34.368  14.941
69758W        W37987  40.864  35.666  12.883
69759W        W37988  31.904  28.990   3.781
69760W        W37989   3.284  12.056   4.245
69761W        W37990  23.958  29.400   4.924
69762W        W37991  10.462   9.659  11.431
69763W        W37992  13.398  33.352   0.314
69764W        W37993   3.614   5.229  11.583
69765W        W37994  18.263  12.842   1.858
69766W        W37995   8.189   5.970   4.732
69767W        W37996   7.809   0.515  13.350
69768W        W37997   0.418  37.900   4.983
69769W        W37998  21.629  23.662  11.855
69770W        W37999  19.216  32.552  12.075
69771W        W38000   9.105   8.603   1.078
69772W        W38001  43.443  11.137   4.618
69773W        W38002   9.193  41.778   1.719
69774W        W38003   7.926  16.000  11.240
69775W        W38004   7.629   5.728   2.374
69776W        W38005  26.231  12.626  14.970
69777W        W38006  35.333  17.658  13.370
69778W        W38007   6.401   9.882   5.013
69779W        W38008  28.553  14.539   3.410
69780W        W38009  25.414  24.259   1.350
69781W        W38010  20.009   8.245   0.268
69782W        W38011  41.315   0.927  11.052
69783W        W38012  24.309  20.948  11.092
69784W        W38013  42.390   2.006  12.407
69785W        W38014  12.730  12.204   0.937
69786W        W38015   2.361  38.564   0.677
69787W        W38016  34.077  43.428  12.044
69788W        W38017  17.965  29.135   0.548
69789W        W38018  10.359   5.574   3.798
69790W        W38019  36.037   4.811   3.762
69791W        W38020  31.213   4.775  11.801
69792W        W38021  38.231  10.743   1.303
69793W        W38022  39.008  29.958   0.467
69794W        W38023  20.581  15.003  12.490
69795W        W38024  44.781  28.722  14.486
69796W        W38025  42.132  40.253  13.818
69797W        W38026   6.698  37.139  11.943
69798W        W38027   8.770  34.701  10.281
69799W        W38028  23.084   2.203   1.761
69800W        W38029  20.157  26.753  10.965
69801W        W38030   6.412   0.525  10.693
69802W        W38031   7.087   5.026   1.907
69803W        W38032  41.757  36.619  11.202
69804W        W38033  39.876  42.502   1.428
69805W        W38034  41.624  44.265  13.063
69806W        W38035  24.987   6.877  13.458
69807W        W38036   3.239  40.788   3.251
69808W        W38037  37.269   6.135  14.903
69809W        W38038  43.945  31.186  13.003
69810W        W38039  15.204   9.261   4.217
69811W        W38040  23.697  43.930  12.517
69812W        W38041  29.826  14.302   2.398
69813W        W38042  20.028  10.733  10.651
69814W        W38043  21.467   6.496   2.297
69815W        W38044  15.488  39.858   2.741
69816W        W38045  35.979  42.686   1.698
69817W        W38046  18.213  20.797   4.695
69818W        W38047   9.322  15.777  11.648
69819W        W38048  22.173  11.340   4.689
69820W        W38049  12.046  39.517   0.310
69821W        W38050  25.401   1.726   0.634
69822W        W38051  19.308  38.030   3.798
69823W        W38052  40.292  24.665  14.610
69824W        W38053  22.925  42.254   1.937
69825W        W38054   8.222   9.325  11.409
69826W        W38055   6.855  12.711  13.858
69827W        W38056  13.630  36.908  13.890
69828W        W38057  15.131  10.184   1.707
69829W        W38058   7.354  31.960   4.657
69830W        W38059   0.288  38.559  11.140
69831W        W38060  23.640  22.192  11.958
69832W        W38061  21.507  13.108   1.819
69833W        W38062   0.759  12.627   5.042
69834W        W38063  10.601  29.247   3.029
69835W        W38064  33.848  19.986  11.227
69836W        W38065  24.779  21.676  12.707
69837W        W38066   8.328   2.791  13.449
69838W        W38067   4.917  26.175  13.883
69839W        W38068  41.326   3.734   4.890
69840W        W38069  22.984  32.466  12.115
69841W        W38070  40.336  13.173  13.192
69842W        W38071  20.707  39.459  13.932
69843W        W38072  29.864  39.545   3.263
69844W        W38073  26.126  29.390   5.264
69845W        W38074   2.667  12.240   2.663
69846W        W38075  17.603  41.529   4.987
69847W        W38076  11.836  37.555   2.452
69848W        W38077  28.894  24.830   4.351
69849W        W38078  13.572  33.925  14.907
69850W        W38079  15.229  42.552  14.855
69851W        W38080   1.462  31.435  10.615
69852W        W38081  41.764  35.064   0.346
69853W        W38082  14.755   1.722   0.808
69854W        W38083  12.794  41.238  13.046
69855W        W38084  26.208   7.417  10.501
69856W        W38085   7.205  36.985  14.739
69857W        W38086  17.970  13.595   4.142
69858W        W38087  38.248  36.765   4.598
69859W        W38088  38.036  44.653  10.381
69860W        W38089  40.460  29.622   2.868
69861W        W38090  30.500  15.863  11.588
69862W        W38091  37.300  24.636   0.425
69863W        W38092  20.540   4.252   1.729
69864W        W38093  41.632  40.528  10.340
69865W        W38094  19.312  42.302  13.459
69866W        W38095  17.261   5.254  14.523
69867W        W38096  21.161  25.184   2.317
69868W        W38097  20.503  11.387   3.331
69869W        W38098  24.755  24.673  14.093
69870W        W38099  26.027   9.375  12.449
69871W        W38100   1.245  22.658   1.500
69872W        W38101  40.132  33.123  13.383
69873W        W38102  36.287  32.438   2.295
69874W        W38103  36.892  40.352  14.566
69875W        W38104  19.214   2.949   2.497
69876W        W38105   8.784  42.093  14.974
69877W        W38106  11.966   2.050  13.980
69878W        W38107  39.644  32.961   0.958
69879W        W38108  24.583   6.486  14.973
69880W        W38109   4.436   8.877   1.718
69881W        W38110  20.320  40.164  11.229
69882W        W38111   6.880   6.912   3.912
69883W        W38112  24.402  36.348   3.622
69884W        W38113  30.966   6.663  12.449
69885W        W38114  29.955   3.970   1.116
69886W        W38115  29.665   7.756   1.857
69887W        W38116  18.751  35.668   0.464
69888W        W38117  11.978  39.929  11.498
69889W        W38118   3.647  18.175  14.207
69890W        W38119   1.492   3.938  14.731
69891W        W38120  18.080  41.479   0.028
69892W        W38121  41.862  25.135  12.075
69893W        W38122  22.809  11.006  12.030
69894W        W38123   6.151   2.265   0.950
69895W        W38124   6.917  11.176  13.640
69896W        W38125  35.528  41.357   1.349
69897W        W38126  25.670  19.538   3.674
69898W        W38127   1.860   2.235  13.483
69899W        W38128  27.410  36.383   1.694
69900W        W38129  37.081  31.558  11.589
69901W        W38130  10.182  15.359  13.379
69902W        W38131  16.274  13.580  12.027
69903W        W38132  35.607  42.082  12.964
69904W        W38133  43.782  14.671   1.859
69905W        W38134   5.256   0.376  14.995
69906W        W38135  28.891   7.620   3.176
69907W        W38136  29.461  12.730  14.328
69908W        W38137  29.950  13.616   4.579
69909W        W38138  43.503   9.396   1.775
69910W        W38139  43.802  30.240   0.729
69911W        W38140  31.963  18.380   5.216
69912W        W38141  40.616  36.654  14.064
69913W        W38142   7.661   9.963   2.880
69914W        W38143   6.446  29.551  14.096
69915W        W38144  28.142  44.794   3.857
69916W        W38145  10.857   6.807   4.181
69917W        W38146  25.607  15.198   4.808
69918W        W38147  39.525  40.225   0.127
69919W        W38148  44.412  27.074   0.327
69920W        W38149   3.918  42.031   3.384
69921W        W38150  35.906  15.377  13.386
69922W        W38151  16.175  17.997  12.836
69923W        W38152  32.783  12.736  13.611
69924W        W38153  34.318  11.593   4.035
69925W        W38154   0.275   5.963   2.186
69926W        W38155   0.141  23.099   4.363
69927W        W38156  33.660  14.303   3.147
69928W        W38157  31.614  29.953   3.775
69929W        W38158   1.344  27.415  14.317
69930W        W38159  39.183  31.587  11.671
69931W        W38160  29.412   4.136  14.378
69932W        W38161  14.823  15.097   2.677
69933W        W38162  25.014  42.216  12.067
69934W        W38163  33.767  17.805   1.547
69935W        W38164   3.216  11.168  12.444
69936W        W38165   6.259  35.255  12.358
69937W        W38166  18.211   4.787   4.507
69938W        W38167   1.186   4.191  13.470
69939W        W38168  44.871  33.422   3.342
69940W        W38169   0.568   2.959  11.591
69941W        W38170  37.448  37.131  11.241
69942W        W38171  40.978  30.132  13.574
69943W        W38172  25.949  29.661   0.844
69944W        W38173  31.016  18.281   4.999
69945W        W38174  39.894  29.977  13.022
69946W        W38175   3.593  16.468  13.904
69947W        W38176  44.333  24.994   3.154
69948W        W38177   0.262  18.854   4.854
69949W        W38178  43.080   4.477  11.395
69950W        W38179  21.115  34.592   1.961
69951W        W38180   2.471  41.740   3.261
69952W        W38181  17.673   9.115  13.207
69953W        W38182  23.109  14.746  12.391
69954W        W38183  21.957  27.235  12.099
69955W        W38184   7.847  42.250  12.534
69956W        W38185  31.640  15.727  14.565
69957W        W38186  22.668  38.398   2.348
69958W        W38187   5.225  36.920   4.096
69959W        W38188  28.142  41.117  10.793
69960W        W38189   5.689  15.184  12.641
69961W        W38190  12.982  30.195  10.617
69962W        W38191  42.735   2.415  12.345
69963W        W38192  27.069  41.209   1.852
69964W        W38193  16.305  32.503  14.037
69965W        W38194  22.468  39.544   1.397
69966W        W38195  37.130  35.591   0.225
69967W        W38196  31.416  32.941  10.590
69968W        W38197  13.175   8.336   4.947
69969W        W38198  39.806  40.403  10.368
69970W        W38199  19.543  28.832   4.522
69971W        W38200   9.890  10.459   4.774
69972W        W38201  13.140   0.953  10.920
69973W        W38202  29.543   0.763   2.404
69974W        W38203  25.150  39.987   4.660
69975W        W38204  16.471  38.969   0.505
69976W        W38205  37.816  34.909   2.122
69977W        W38206  19.388  17.680   3.839
69978W        W38207  32.082  17.870   1.118
69979W        W38208  22.642  10.429   4.543
69980W        W38209   5.894  14.708  13.891
69981W        W38210  38.684  28.927   5.492
69982W        W38211   3.341  29.039  11.518
69983W        W38212   1.987  33.681  13.041
69984W        W38213  15.868  25.509   3.576
69985W        W38214  34.988  34.713  13.086
69986W        W38215  14.131  37.309   0.411
69987W        W38216  11.637  37.478  10.168
69988W        W38217  26.468   9.512   0.386
69989W        W38218   4.765  44.770   1.773
69990W        W38219  25.273  10.252  14.714
69991W        W38220  44.277  16.093  11.065
69992W        W38221  22.622  13.052  13.035
69993W        W38222   9.534  11.843  10.731
69994W        W38223  35.427  15.135   2.346
69995W        W38224  28.454   5.746  13.934
69996W        W38225  26.615  29.456   0.235
69997W        W38226  32.556  14.204  13.597
69998W        W38227  14.213  28.417   1.486
69999W        W38228  26.986   5.363   2.929
70000W        W38229   3.223  23.045   3.854
70001W        W38230  30.035   8.254   0.812
70002W        W38231   7.209  22.063  14.235
70003W        W38232  28.859  32.137   5.199
70004W        W38233   7.989  15.693   3.796
70005W        W38234   6.983  10.659  12.888
70006W        W38235   3.458  18.304   2.389
70007W        W38236   9.875   8.915   1.326
70008W        W38237  36.564  30.542   3.619
70009W        W38238   8.602  38.990  11.991
70010W        W38239  36.947   6.919  11.507
70011W        W38240  27.622  29.389   4.252
70012W        W38241  17.334  25.636  14.415
70013W        W38242  19.213  21.297   1.835
70014W        W38243  14.688  13.235   5.365
70015W        W38244   9.221  15.079  12.744
70016W        W38245   8.283  26.239   3.653
70017W        W38246  21.507   1.916  13.034
70018W        W38247   0.806  20.005   3.128
70019W        W38248   8.758   7.987  14.042
70020W        W38249  20.988  31.956   0.491
70021W        W38250  29.816  43.540   2.212
70022W        W38251  38.795  13.669   0.896
70023W        W38252   0.483   3.943   2.514
70024W        W38253  29.780   0.959   4.446
70025W        W38254  34.603   1.865  14.420
70026W        W38255  28.528   0.521  11.626
70027W        W38256  28.435  25.642  12.063
70028W        W38257  20.640  42.348  12.865
70029W        W38258  28.149  12.543  10.608
70030W        W38259   7.890  40.248   3.414
70031W        W38260  44.253   9.192  13.897
70032W        W38261  25.388  13.856  13.888
70033W        W38262  14.727   4.439  13.504
70034W        W38263  22.256  43.534   2.347
70035W        W38264   9.161  32.486   1.430
70036W        W38265  20.563   2.010   3.730
70037W        W38266  42.067   3.496  12.869
70038W        W38267  37.962  14.643   1.391
70039W        W38268  33.248  37.074   4.105
70040W        W38269  27.461  32.112   2.181
70041W        W38270  27.116  36.347  12.013
70042W        W38271  23.813  27.070   1.169
70043W        W38272  43.517  26.204  12.021
70044W        W38273  31.453   1.956   1.997
70045W        W38274   5.991  25.561   4.912
70046W        W38275  20.118  21.171  14.344
70047W        W38276  16.295  24.147   1.298
70048W        W38277  24.345   4.666   0.204
70049W        W38278  41.554   2.760   4.193
70050W        W38279  43.210  20.542   4.210
70051W        W38280   9.862  19.519   0.508
70052W        W38281  19.150  40.396  11.984
70053W        W38282  31.942   6.403  12.494
70054W        W38283  38.095   0.310  11.925
70055W        W38284  15.203  40.788   2.711
70056W        W38285  45.000   3.876  14.899
70057W        W38286  10.591  36.601   0.890
70058W        W38287  41.190  29.536  10.667
70059W        W38288  39.290  43.852   0.874
70060W        W38289   3.108  31.465  14.509
70061W        W38290   2.895  36.933   0.445
70062W        W38291  20.531  31.620  11.596
70063W        W38292  27.669  28.616   0.783
70064W        W38293  18.252   0.775  12.941
70065W        W38294  29.496  12.388   1.805
70066W        W38295  19.630   1.302   0.246
70067W        W38296   5.819  27.896   0.856
70068W        W38297  41.010  33.501  12.297
70069W        W38298  20.633   3.945   4.134
70070W        W38299  17.652  39.264  12.192
70071W        W38300  30.157  27.281   0.791
70072W        W38301  31.174   3.806  10.578
70073W        W38302   8.673  18.242   0.768
70074W        W38303  44.918  28.314  14.186
70075W        W38304  38.363  39.788   1.626
70076W        W38305  12.918  43.379  12.383
70077W        W38306   3.977   2.520  14.807
70078W        W38307  10.003  20.025  13.119
70079W        W38308   8.762  22.209   3.564
70080W        W38309  29.607  44.470   0.994
70081W        W38310   4.903  37.554  13.314
70082W        W38311  10.720  34.570   4.392
70083W        W38312  17.198  43.795   0.266
70084W        W38313  38.820   3.257  10.695
70085W        W38314  36.058  17.606  13.056
70086W        W38315  11.348  40.405  13.349
70087W        W38316  12.242   4.958  14.756
70088W        W38317  20.447  33.365   0.301
70089W        W38318   2.301  20.694  10.604
70090W        W38319  34.346  15.721  10.196
70091W        W38320  18.325  42.400  10.443
70092W        W38321  24.212  41.065  11.717
70093W        W38322   9.697  15.737   3.375
70094W        W38323  10.229  25.217  14.418
70095W        W38324  42.106  30.869  14.352
70096W        W38325  33.561   8.848   1.057
70097W        W38326   7.129  35.934  13.315
70098W        W38327  15.031  32.189   2.992
70099W        W38328  14.802  15.036   4.596
70100W        W38329  29.579   1.694  10.876
70101W        W38330   6.787   0.491   1.286
70102W        W38331  29.695  41.084   4.377
70103W        W38332  36.016   7.642  14.372
70104W        W38333   8.355  10.333  12.746
70105W        W38334  32.132   9.804  13.443
70106W        W38335  21.597   8.719   3.135
70107W        W38336   5.225  36.075  12.114
70108W        W38337  21.222  11.053  10.694
70109W        W38338  42.418  29.255  13.882
70110W        W38339   4.205  36.119   0.449
70111W        W38340  10.839  19.090  14.823
70112W        W38341  44.326  23.962  14.112
70113W        W38342   7.189  36.945  12.023
70114W        W38343  21.349  32.468  13.554
70115W        W38344   2.839  12.801  12.154
70116W        W38345  28.854  30.963   3.321
70117W        W38346  10.260  12.341  12.579
70118W        W38347   9.148  12.763   4.867
70119W        W38348  38.006  29.660  14.527
70120W        W38349  29.236  26.997   0.988
70121W        W38350   8.410   1.668  13.511
70122W        W38351  23.112  31.410   4.708
70123W        W38352  36.861  37.389  10.643
70124W        W38353  28.231   3.741  13.665
70125W        W38354  38.026  13.637  14.488
70126W        W38355  14.710  43.504   3.880
70127W        W38356  22.220   1.664  14.213
70128W        W38357   1.976   2.004  10.624
70129W        W38358   2.340  34.661   1.844
70130W        W38359   2.730   5.475   0.308
70131W        W38360  15.213  22.219   2.370
70132W        W38361  35.354   7.406   4.948
70133W        W38362  41.491   8.247   4.157
70134W        W38363  34.023  11.707  10.835
70135W        W38364  40.981  32.944   2.065
70136W        W38365  32.569  17.095  11.190
70137W        W38366  13.053  18.287   3.253
70138W        W38367  24.439  11.571  14.457
70139W        W38368  13.148  32.046  13.386
70140W        W38369  36.939  10.061   3.181
70141W        W38370  28.604  33.700  11.142
70142W        W38371  23.738  18.292  13.483
70143W        W38372  33.113  44.325   3.759
70144W        W38373  14.544  37.474   0.694
70145W        W38374   7.709  21.147   3.917
70146W        W38375  44.212  23.939   0.132
70147W        W38376  43.444  14.372  13.927
70148W        W38377   2.442  37.432   3.282
70149W        W38378  16.520   2.824   2.732
70150W        W38379  44.754  22.763   3.319
70151W        W38380  34.436  43.900   4.962
70152W        W38381  36.468   1.437   4.131
70153W        W38382  27.640  40.663  12.829
70154W        W38383  42.933  20.716   1.683
70155W        W38384  26.172  43.153   9.898
70156W        W38385  25.318  29.449  14.711
70157W        W38386  33.365  44.847   0.047
70158W        W38387  25.234  24.063   1.833
70159W        W38388  22.273  12.188  10.238
70160W        W38389  25.000   4.972   2.189
70161W        W38390  15.116  37.108   3.344
70162W        W38391  13.749  34.001   2.248
70163W        W38392   1.238  42.996  13.987
70164W        W38393   2.413  21.166   2.466
70165W        W38394  39.618   4.154  14.308
70166W        W38395  44.294  41.157  10.561
70167W        W38396  15.525   7.393  10.802
70168W        W38397  17.343  26.738   4.755
70169W        W38398  18.088   8.951  12.500
70170W        W38399   7.409  41.888  12.637
70171W        W38400  44.392  10.421   0.303
70172W        W38401  11.297   9.951  12.391
70173W        W38402  13.305  44.352  14.927
70174W        W38403  39.470  43.944  14.484
70175W        W38404   0.805  24.324  11.450
70176W        W38405  44.749   6.661   4.495
70177W        W38406  13.880  21.239   2.184
70178W        W38407  16.342  25.377  13.781
70179W        W38408   2.869  10.335   5.105
70180W        W38409  40.916   1.777   2.405
70181W        W38410  39.401  40.654  14.222
70182W        W38411  36.894  23.042   1.238
70183W        W38412  14.137  38.262  13.866
70184W        W38413   6.480  37.638   0.288
70185W        W38414  42.739  27.912  12.398
70186W        W38415  11.717  17.588   3.425
70187W        W38416  29.453   5.363   3.906
70188W        W38417  32.504  16.580  11.054
70189W        W38418   2.592  41.670   0.260
70190W        W38419  40.789  13.278  13.533
70191W        W38420  20.774  41.443   4.575
70192W        W38421  11.348   7.194   0.416
70193W        W38422  41.929  19.210  11.387
70194W        W38423  38.508   8.390   3.698
70195W        W38424  28.678  43.975   1.866
70196W        W38425  29.965  13.326  11.556
70197W        W38426  29.037   9.929  12.655
70198W        W38427  11.618  13.821  11.628
70199W        W38428  12.808  10.117   0.763
70200W        W38429  17.273  11.534   0.451
70201W        W38430  26.632  15.730   2.347
70202W        W38431   9.304  23.068   0.157
70203W        W38432  18.957  19.406  14.053
70204W        W38433  25.347  35.112  12.557
70205W        W38434   5.088   9.508  11.982
70206W        W38435  37.023  35.145   2.871
70207W        W38436   9.974   2.883  10.655
70208W        W38437  27.366  43.879  12.459
70209W        W38438   1.821  21.588  10.672
70210W        W38439  35.853   1.063   1.285
70211W        W38440   4.834  26.188  13.322
70212W        W38441   3.815   0.284  13.712
70213W        W38442  41.400   3.741  14.961
70214W        W38443  17.242  23.429  11.523
70215W        W38444  29.565   8.371   4.342
70216W        W38445  35.360  12.585  13.031
70217W        W38446  43.645  24.698  11.656
70218W        W38447   1.916   4.825   0.778
70219W        W38448   1.859  33.663   9.681
70220W        W38449  11.857   4.522   5.098
70221W        W38450  31.194  43.509   4.274
70222W        W38451  15.088  22.202  13.345
70223W        W38452   3.277  42.800  11.239
70224W        W38453   6.698   4.803   1.549
70225W        W38454  30.872  32.476  12.439
70226W        W38455  23.201  20.686  11.905
70227W        W38456   5.660  25.888  12.927
70228W        W38457  11.031   8.408   1.615
70229W        W38458  24.418  39.145   5.048
70230W        W38459  40.068   5.337  11.427
70231W        W38460  31.618  32.335  14.970
70232W        W38461  17.803  33.630  12.457
70233W        W38462  10.757   9.672  13.123
70234W        W38463  37.608  15.331   3.781
70235W        W38464  41.050  12.316   2.666
70236W        W38465  13.326   0.255   4.168
70237W        W38466  28.138  18.080  11.421
70238W        W38467  15.860   6.721  10.345
70239W        W38468  14.650   6.163   1.709
70240W        W38469  36.557  13.258   2.903
70241W        W38470   6.142  33.258   9.684
70242W        W38471  25.527  42.041   0.253
70243W        W38472  29.935  10.050   4.543
70244W        W38473  38.526  38.300   1.750
70245W        W38474  26.358  15.114  11.501
70246W        W38475  27.061  24.423  12.141
70247W        W38476  25.043  10.862   5.042
70248W        W38477   0.880  10.195  13.397
70249W        W38478  16.262  13.266  10.632
70250W        W38479  42.294  43.032   0.297
70251W        W38480  42.175  15.557   1.953
70252W        W38481   1.423  14.346  10.724
70253W        W38482  16.624   6.156   2.749
70254W        W38483  18.032  41.458  13.767
70255W        W38484  36.847   3.227  12.506
70256W        W38485  34.992  27.914  12.948
70257W        W38486  21.507  23.625   4.365
70258W        W38487  38.594  35.452   0.331
70259W        W38488   3.904  20.790  11.615
70260W        W38489  21.508  12.236   4.751
70261W        W38490  40.933  21.519  12.127
70262W        W38491  18.435  16.303   1.254
70263W        W38492  29.422  23.379  13.938
70264W        W38493  29.399  12.790  14.866
70265W        W38494  31.541  35.037  12.833
70266W        W38495   5.380  13.192  11.997
70267W        W38496   9.448  40.866  14.331
70268W        W38497  10.837  10.866   2.678
70269W        W38498  15.401  34.944   4.205
70270W        W38499  21.000   8.397   0.009
70271W        W38500  40.589  37.440  12.830
70272W        W38501  37.959  38.958   4.880
70273W        W38502  21.549  27.573  13.384
70274W        W38503   3.267   8.389  14.831
70275W        W38504  41.824   1.066  13.492
70276W        W38505   9.405  20.649  10.477
70277W        W38506  10.732  14.869   2.000
70278W        W38507  13.953  44.004   0.744
70279W        W38508   8.201  28.095   2.250
70280W        W38509  15.932  41.883   4.888
70281W        W38510  21.088  31.692   4.793
70282W        W38511  35.117  31.712   3.590
70283W        W38512  42.627  33.078   0.248
70284W        W38513  37.322  40.980   4.995
70285W        W38514  26.438  26.193  12.827
70286W        W38515  41.315  39.447  14.591
70287W        W38516   4.462   7.455  13.882
70288W        W38517  17.079  28.880   2.659
70289W        W38518  16.785  30.711  13.109
70290W        W38519  29.003  15.057   1.293
70291W        W38520   1.004   2.332   0.063
70292W        W38521  44.536  15.294   4.103
70293W        W38522   3.211  23.724   0.955
70294W        W38523  39.940  22.056  14.574
70295W        W38524  27.489  22.130   2.236
70296W        W38525  28.253  29.896  13.243
70297W        W38526   3.071  42.226   3.730
70298W        W38527  21.650  37.451   1.905
70299W        W38528  38.528  31.640   4.771
70300W        W38529  39.590  42.805  11.274
70301W        W38530  22.516  11.426   1.654
70302W        W38531  26.869  30.835   3.271
70303W        W38532  30.461  38.805  12.177
70304W        W38533  34.808   6.798  13.132
70305W        W38534  12.252  35.404  14.509
70306W        W38535  28.185  33.935  14.307
70307W        W38536   1.937  33.706   3.237
70308W        W38537  13.164   5.404   2.124
70309W        W38538  11.242   0.316  10.686
70310W        W38539  10.569   2.601   4.349
70311W        W38540  42.964  34.415  13.817
70312W        W38541  11.805  16.025   0.168
70313W        W38542   5.249  25.050   3.675
70314W        W38543   4.443  26.992  14.920
70315W        W38544  28.749  20.571  12.445
70316W        W38545  19.996   3.237   2.618
70317W        W38546  15.945  35.044   2.253
70318W        W38547  34.547   5.269  12.422
70319W        W38548  36.577  37.369   2.782
70320W        W38549  16.218  42.281  14.798
70321W        W38550  26.333  39.417   0.951
70322W        W38551  27.110   9.292  13.349
70323W        W38552  26.095  44.521   2.767
70324W        W38553  19.954   2.900   1.368
70325W        W38554  16.196  41.368  12.340
70326W        W38555  30.167  37.527  13.893
70327W        W38556  33.281  36.247  14.938
70328W        W38557  24.089   4.472   2.357
70329W        W38558  18.883  41.401   1.771
70330W        W38559   6.882  43.398   0.264
70331W        W38560  37.080   8.679  13.533
70332W        W38561   8.759  26.611   1.804
70333W        W38562  12.731  38.881   1.447
70334W        W38563   8.816  30.027   3.447
70335W        W38564  29.431  17.472  10.596
70336W        W38565  39.862   4.309   0.983
70337W        W38566  13.593   8.450   4.155
70338W        W38567   7.919   8.391  11.078
70339W        W38568  34.922  21.621  11.918
70340W        W38569  39.048   7.872   2.187
70341W        W38570  32.944  22.728   4.051
70342W        W38571  36.474  35.163   0.589
70343W        W38572  20.128   7.476   4.498
70344W        W38573  34.429   0.458  11.548
70345W        W38574  43.013   1.920   1.314
70346W        W38575  17.591  13.213  10.954
70347W        W38576   7.768  24.373  13.478
70348W        W38577  14.086   4.506   2.819
70349W        W38578  18.196  32.132   3.711
70350W        W38579  28.061  38.747  11.989
70351W        W38580  35.344   7.208   2.236
70352W        W38581  15.144  34.699  13.162
70353W        W38582  15.101  41.506  12.462
70354W        W38583   0.340  35.135   3.115
70355W        W38584  26.285  42.317   2.799
70356W        W38585  11.426  37.027   4.139
70357W        W38586  33.631  16.688  12.529
70358W        W38587  27.453   6.835   2.231
70359W        W38588  30.380   0.360  12.953
70360W        W38589  10.906  26.294   2.179
70361W        W38590   0.414   8.661   1.672
70362W        W38591  38.004  20.913  13.441
70363W        W38592  26.523  28.216   0.489
70364W        W38593  39.103   3.461  10.277
70365W        W38594  22.195  11.157  12.994
70366W        W38595   7.193  14.601   4.390
70367W        W38596  24.097  10.198   4.362
70368W        W38597  41.789  32.788   0.376
70369W        W38598  16.746  14.008  13.159
70370W        W38599  29.373  39.807  13.117
70371W        W38600  18.782   1.237  10.691
70372W        W38601  15.288   4.212   4.637
70373W        W38602   9.993  37.940   4.792
70374W        W38603  14.830  16.068   2.754
70375W        W38604  10.597  43.492  13.244
70376W        W38605  25.609   5.083  12.900
70377W        W38606  10.381  13.048   3.174
70378W        W38607  23.077  35.575   5.542
70379W        W38608  20.119   3.229  14.352
70380W        W38609  25.328   4.868   1.291
70381W        W38610  39.966  31.682   3.294
70382W        W38611   9.451  37.491  12.292
70383W        W38612  29.659  32.200  11.628
70384W        W38613  37.154  21.029  10.211
70385W        W38614   4.965  41.606  12.019
70386W        W38615  22.782   2.820  10.039
70387W        W38616  32.288  16.328   2.271
70388W        W38617  34.813  30.494   2.086
70389W        W38618  25.259   4.338   0.365
70390W        W38619  21.175  42.287  13.007
70391W        W38620  11.153  27.635  11.838
70392W        W38621   9.917  24.342  13.006
70393W        W38622  30.170  26.007  14.552
70394W        W38623  20.471  34.115  10.631
70395W        W38624   7.950  38.257  10.984
70396W        W38625  22.684   8.431  10.505
70397W        W38626   9.850  39.086   3.678
70398W        W38627  27.404  36.464  13.936
70399W        W38628  43.033   8.159  13.049
70400W        W38629  15.524  41.378  10.453
70401W        W38630  15.107  16.564   3.676
70402W        W38631  35.076   8.903   4.131
70403W        W38632  30.777  28.262   4.790
70404W        W38633   6.159  17.858  12.032
70405W        W38634   5.153  14.062   0.061
70406W        W38635   2.461  18.203   4.381
70407W        W38636   1.243  43.492   3.810
70408W        W38637  34.835  11.829   2.239
70409W        W38638  40.822  12.018  13.565
70410W        W38639  40.270  32.628  13.703
70411W        W38640  23.569  34.500   1.447
70412W        W38641  13.431   4.672   1.384
70413W        W38642   0.379  19.675   3.781
70414W        W38643  22.435  42.436  13.912
70415W        W38644  18.972  11.451   2.914
70416W        W38645  11.680   5.910  11.098
70417W        W38646   6.858  16.371   3.815
70418W        W38647   7.402  40.641   0.286
70419W        W38648  10.792  16.582  13.579
70420W        W38649  28.542  29.249  14.468
70421W        W38650  15.578  21.633   4.304
70422W        W38651  32.158  42.057  13.424
70423W        W38652  24.154  31.134   0.402
70424W        W38653  14.671  34.659   3.806
70425W        W38654  41.995  43.225   0.939
70426W        W38655  41.289   0.922   0.838
70427W        W38656  37.482  43.123  12.058
70428W        W38657   3.856  29.087  13.441
70429W        W38658  27.941  31.084   1.256
70430W        W38659  29.861  34.574   2.393
70431W        W38660  40.545  19.887   0.512
70432W        W38661  22.564  14.847   0.914
70433W        W38662  25.228  18.489  14.292
70434W        W38663  13.572  20.606   3.985
70435W        W38664   1.371   8.672   1.757
70436W        W38665  15.873  17.244  13.912
70437W        W38666  36.386  28.162   3.099
70438W        W38667  25.279  38.738   1.089
70439W        W38668  25.840  11.297  11.912
70440W        W38669   5.746  23.742   3.859
70441W        W38670   8.582  21.607  14.380
70442W        W38671  29.891  19.096   9.914
70443W        W38672  16.678   4.213   2.365
70444W        W38673  28.119   8.448   2.224
70445W        W38674  44.463   5.347   1.223
70446W        W38675   2.379  44.322  11.002
70447W        W38676   7.659  10.165   0.442
70448W        W38677  12.383   8.755  10.626
70449W        W38678  13.948  15.328  11.942
70450W        W38679   2.000  24.554   2.341
70451W        W38680  41.456  35.975  11.372
70452W        W38681  41.473   2.793  12.845
70453W        W38682  23.592  25.180  13.825
70454W        W38683  17.602   5.895  13.057
70455W        W38684  10.389  40.495   2.512
70456W        W38685   0.121  18.046  11.994
70457W        W38686  43.850  16.242   3.318
70458W        W38687  41.385  13.910   2.890
70459W        W38688  37.203  31.131  13.404
70460W        W38689  36.485  30.825   5.049
70461W        W38690  11.266   1.287   2.784
70462W        W38691  30.133  39.790  13.550
70463W        W38692  33.675  10.765   0.264
70464W        W38693   7.930   7.716  10.438
70465W        W38694  10.933   5.863   1.330
70466W        W38695   1.909  21.745   0.814
70467W        W38696  43.026  44.616  10.234
70468W        W38697  15.142   2.520  11.645
70469W        W38698  17.169  27.340   5.229
70470W        W38699   2.510  15.754   1.879
70471W        W38700  15.645   7.631   4.180
70472W        W38701  40.345   8.180  12.501
70473W        W38702  37.148  32.220  11.010
70474W        W38703  19.767   2.466   5.103
70475W        W38704  13.622  22.582   1.304
70476W        W38705   4.279  13.187  13.411
70477W        W38706  24.388   9.175  11.111
70478W        W38707  23.892  14.037   4.714
70479W        W38708  44.400  43.674  14.389
70480W        W38709  36.504  41.443  11.929
70481W        W38710   1.287  11.223  11.205
70482W        W38711  30.946  26.288   1.975
70483W        W38712  41.063  31.011   4.934
70484W        W38713  31.433   2.638  14.411
70485W        W38714  35.930  22.777   4.207
70486W        W38715  32.291   4.572  10.343
70487W        W38716  13.322  22.762  11.055
70488W        W38717   5.621  20.540  14.835
70489W        W38718  17.217  24.679  12.109
70490W        W38719  25.136  21.463  11.048
70491W        W38720  13.685  30.858   4.076
70492W        W38721   0.012   6.453  12.858
70493W        W38722  42.910   2.432  13.322
70494W        W38723  25.395  18.105  12.538
70495W        W38724   7.800  22.260   0.782
70496W        W38725  32.903  15.296   0.079
70497W        W38726  36.284  33.067  13.043
70498W        W38727  40.872  38.342   2.218
70499W        W38728  29.826  32.282  12.125
70500W        W38729  18.682   3.402  14.484
70501W        W38730  23.713  11.219   1.412
70502W        W38731  20.964  27.129  11.022
70503W        W38732  33.529  15.837  14.343
70504W        W38733  17.181   8.954  12.542
70505W        W38734   8.853  23.966   2.706
70506W        W38735  22.806  33.106  12.025
70507W        W38736  14.127  38.758  14.749
70508W        W38737  24.563  19.659   1.268
70509W        W38738  15.686  44.222  11.219
70510W        W38739  30.853   1.694   3.241
70511W        W38740   6.345  13.362   0.012
70512W        W38741  24.148  15.342   3.171
70513W        W38742   8.372  35.401  14.311
70514W        W38743  13.258  29.301  11.011
70515W        W38744  19.337  25.473   3.768
70516W        W38745   5.402  44.318   3.374
70517W        W38746   1.326   3.343  10.706
70518W        W38747  12.906  25.652   4.508
70519W        W38748  29.629  20.734   0.783
70520W        W38749  20.781  21.555   2.715
70521W        W38750   8.161  23.478   0.316
70522W        W38751   1.639  25.665  11.143
70523W        W38752  22.243  21.007  11.572
70524W        W38753  38.961  29.123   4.154
70525W        W38754   2.855  13.786   3.567
70526W        W38755  15.803  32.167  11.519
70527W        W38756  22.218   8.609  13.603
70528W        W38757  29.521  36.872   1.691
70529W        W38758  35.530  13.545  11.848
70530W        W38759  36.039  40.959   2.507
70531W        W38760  25.025  29.524   0.661
70532W        W38761  33.156  42.839  12.958
70533W        W38762  12.554  24.192   0.898
70534W        W38763  11.709  41.267  12.945
70535W        W38764  43.405  37.362   2.610
70536W        W38765  21.329  24.188   3.241
70537W        W38766   9.921  36.557   4.656
70538W        W38767  29.625  10.343  12.209
70539W        W38768  34.911  21.140   0.212
70540W        W38769   4.457  10.015  10.639
70541W        W38770  35.370  11.781   3.187
70542W        W38771   8.813   4.288  14.991
70543W        W38772  15.045  19.657  12.800
70544W        W38773  37.312  21.591  14.728
70545W        W38774  19.535  41.437   3.352
70546W        W38775  34.492  29.839  14.468
70547W        W38776  32.548   1.501   3.109
70548W        W38777   4.340  25.017   0.862
70549W        W38778  33.678  28.616  12.088
70550W        W38779  11.209   6.309  12.957
70551W        W38780  38.619  18.103  14.498
70552W        W38781   1.140  10.719   3.688
70553W        W38782  36.472  28.627  11.236
70554W        W38783  18.649  40.761   3.170
70555W        W38784  15.342   4.994   1.376
70556W        W38785  42.563  36.543  13.079
70557W        W38786   3.490   0.231   0.537
70558W        W38787  36.030  42.661  14.393
70559W        W38788  11.346  16.038   0.429
70560W        W38789  32.847   0.197  11.533
70561W        W38790  33.017   3.679   0.514
70562W        W38791  27.881  35.372  13.367
70563W        W38792   0.121  32.017   3.217
70564W        W38793  21.360  23.465  14.123
70565W        W38794  25.450  30.346  13.491
70566W        W38795  18.148  32.994  13.604
70567W        W38796  12.664  33.397  14.291
70568W        W38797  36.953   4.733  14.965
70569W        W38798  23.820  39.492  10.357
70570W        W38799   2.510  14.337   4.766
70571W        W38800  23.651  23.529   1.465
70572W        W38801  44.550  43.741   4.161
70573W        W38802  17.328  15.761  13.882
70574W        W38803  35.528  14.679   2.141
70575W        W38804  25.779   1.498  14.823
70576W        W38805   9.785  28.629  11.527
70577W        W38806  13.897  44.139  13.268
70578W        W38807  23.662  17.778  10.781
70579W        W38808  13.315  15.575  14.714
70580W        W38809  14.128   7.865  12.709
70581W        W38810  43.965  31.093   2.305
70582W        W38811  34.284  12.137  10.696
70583W        W38812  29.528   8.859  10.748
70584W        W38813  10.844  27.434  13.468
70585W        W38814   4.298  15.858  11.703
70586W        W38815   2.011  32.927   2.264
70587W        W38816  37.851  16.942  11.432
70588W        W38817  36.469  12.043   2.968
70589W        W38818  40.856  17.810  14.949
70590W        W38819  14.726  29.047   2.875
70591W        W38820  18.645   4.098  11.691
70592W        W38821  25.971   6.464  14.931
70593W        W38822  41.995   8.322   0.766
70594W        W38823  40.491   5.896   2.824
70595W        W38824  32.415  37.897   4.886
70596W        W38825  25.134  13.383  13.548
70597W        W38826  42.847  36.838  13.966
70598W        W38827  31.391   2.451   1.762
70599W        W38828  26.805  42.069   3.439
70600W        W38829  11.927   1.906   3.648
70601W        W38830  21.590  35.353  12.428
70602W        W38831   0.744   0.355   1.196
70603W        W38832  21.062  28.498  10.911
70604W        W38833  26.463  26.888   1.076
70605W        W38834   6.197  29.840  13.126
70606W        W38835  18.741  19.137  14.869
70607W        W38836  44.068  38.938   3.279
70608W        W38837  34.802  26.983  11.985
70609W        W38838  33.622   5.868  12.695
70610W        W38839  16.427  28.669   2.233
70611W        W38840  38.535   5.838   0.482
70612W        W38841  11.330  16.560   1.826
70613W        W38842  23.470  23.995   1.661
70614W        W38843   8.751  12.053   0.477
70615W        W38844  26.503  26.463  10.243
70616W        W38845  22.556  26.729   2.369
70617W        W38846  12.410  21.146   3.869
70618W        W38847  35.864   0.704   3.334
70619W        W38848  38.783  22.451  11.975
70620W        W38849   2.110  32.382  13.570
70621W        W38850   5.817   1.041  12.980
70622W        W38851  23.848   2.376  14.491
70623W        W38852  26.378  36.510  12.730
70624W        W38853  18.047  39.062   1.352
70625W        W38854  38.906  25.040  11.990
70626W        W38855   6.108  29.103  11.631
70627W        W38856  34.021  41.367   3.358
70628W        W38857   1.650  18.006   3.143
70629W        W38858   4.721   3.583   4.530
70630W        W38859  20.303  29.928   1.470
70631W        W38860  19.632   6.523   2.214
70632W        W38861   6.519  40.853  11.136
70633W        W38862   8.115   5.005  14.356
70634W        W38863  24.370  19.196   3.512
70635W        W38864  24.952  17.680   1.747
70636W        W38865  44.257  26.194   3.324
70637W        W38866  30.330  41.060  14.961
70638W        W38867   4.377  37.306  12.083
70639W        W38868  44.365  21.368  10.452
70640W        W38869  17.128  13.391   2.313
70641W        W38870  10.225  42.806  14.318
70642W        W38871  44.460  20.525   2.284
70643W        W38872   3.417  40.724  13.328
70644W        W38873  26.544  27.425  11.726
70645W        W38874  17.152  28.426   1.849
70646W        W38875  10.369   0.527   0.688
70647W        W38876  21.391  44.511  13.056
70648W        W38877  27.925  11.156   4.076
70649W        W38878  28.430   6.906   2.641
70650W        W38879  44.708  39.256   4.509
70651W        W38880  30.670  28.536   1.847
70652W        W38881  21.422  35.116   0.938
70653W        W38882  31.661  13.558  13.331
70654W        W38883  22.039  33.447   3.352
70655W        W38884  26.660   0.501   3.637
70656W        W38885  30.874  34.443  11.588
70657W        W38886  15.685  33.798  14.961
70658W        W38887  19.168   5.342   1.600
70659W        W38888  39.757  23.165  13.760
70660W        W38889  37.827  22.027  14.378
70661W        W38890  25.725  23.650   3.185
70662W        W38891  25.534  36.199   2.381
70663W        W38892  19.999  44.335   0.839
70664W        W38893   1.070  40.034  10.691
70665W        W38894  34.138  41.507  10.891
70666W        W38895  39.054  13.306   2.448
70667W        W38896  37.823  31.555  14.270
70668W        W38897  41.381   4.186   4.647
70669W        W38898  30.226  15.827   1.924
70670W        W38899   3.370  23.469   4.109
70671W        W38900  11.680  36.086   3.077
70672W        W38901  33.452   9.919  13.895
70673W        W38902  26.045   9.045   1.277
70674W        W38903  25.953  22.544   2.142
70675W        W38904  16.585  18.068   4.038
70676W        W38905  40.566  12.205   2.455
70677W        W38906   6.229  37.345  13.140
70678W        W38907  12.507  12.170  10.319
70679W        W38908   6.676   4.774  11.306
70680W        W38909  32.988  23.553   3.467
70681W        W38910  36.162  39.920  14.728
70682W        W38911  13.063  33.875   1.659
70683W        W38912  22.279   1.818  10.710
70684W        W38913  35.640   9.250  12.912
70685W        W38914  34.115  18.828   0.925
70686W        W38915  30.931  44.054  13.012
70687W        W38916  40.451  23.032  14.916
70688W        W38917  35.968   4.277  12.109
70689W        W38918  41.854  30.424   0.239
70690W        W38919  44.058  40.315  12.473
70691W        W38920   7.427  13.390   0.773
70692W        W38921  40.827  31.148   3.181
70693W        W38922   6.738  20.213  12.102
70694W        W38923  31.589  34.090  11.210
70695W        W38924   0.001  17.538   3.690
70696W        W38925  37.973   6.463  13.365
70697W        W38926   1.451  36.933   0.144
70698W        W38927  19.045  36.089  14.967
70699W        W38928  17.231  10.331   3.197
70700W        W38929   7.890  33.831   0.340
70701W        W38930  11.177   8.142   4.043
70702W        W38931  24.604  15.492  13.456
70703W        W38932   1.381  41.165   3.678
70704W        W38933  18.662  23.669   1.354
70705W        W38934   4.239   3.439  14.722
70706W        W38935  39.283  20.486  14.957
70707W        W38936  23.104  13.583   0.242
70708W        W38937  43.043   5.546  14.455
70709W        W38938  25.262   3.362   2.773
70710W        W38939  28.477  16.611   3.215
70711W        W38940   7.804  19.230   2.197
70712W        W38941  35.201   8.977  10.701
70713W        W38942  20.975  23.706   1.804
70714W        W38943  42.305  39.008   2.190
70715W        W38944  23.483  33.456   9.877
70716W        W38945  10.750  24.035  12.162
70717W        W38946  19.565  37.610   3.272
70718W        W38947  33.259  21.676   0.437
70719W        W38948  20.673  16.936  12.958
70720W        W38949   8.309  26.632  11.478
70721W        W38950  15.711   5.895  10.551
70722W        W38951  44.020  20.286  12.399
70723W        W38952  27.178  24.829   4.888
70724W        W38953  29.983  20.807   2.564
70725W        W38954  31.330  43.372  12.543
70726W        W38955  29.157   8.713   1.896
70727W        W38956  34.229   3.248  10.966
70728W        W38957  16.294  20.611  14.040
70729W        W38958   2.725   3.515  10.553
70730W        W38959  27.651  13.146   0.785
70731W        W38960  37.242  16.531   0.725
70732W        W38961  41.560  44.801   2.865
70733W        W38962  25.094   5.821  13.563
70734W        W38963  42.012  18.410   9.889
70735W        W38964  25.800  26.337   3.634
70736W        W38965   8.165  19.670  11.720
70737W        W38966  21.610  40.867   2.682
70738W        W38967  40.404  18.769  11.636
70739W        W38968  36.391  28.877  13.436
70740W        W38969  33.028  42.506   0.370
70741W        W38970   4.273  38.777   1.862
70742W        W38971  11.517  40.748   3.676
70743W        W38972  41.467  34.335  14.791
70744W        W38973  10.916  39.079  13.041
70745W        W38974  36.994  13.332   3.630
70746W        W38975  32.429  10.468   4.953
70747W        W38976  36.529   4.991  11.575
70748W        W38977  34.262  22.675  13.442
70749W        W38978  31.187  17.996  10.617
70750W        W38979  41.436   0.436   0.659
70751W        W38980  42.355  42.521  12.641
70752W        W38981  30.445  21.095   2.148
70753W        W38982  21.257  15.084   1.966
70754W        W38983   8.232  16.194   4.687
70755W        W38984  20.184  22.978   0.328
70756W        W38985  28.456  22.330  12.321
70757W        W38986  20.948  19.344   1.439
70758W        W38987  14.184  24.729  14.399
70759W        W38988   9.492  40.378   2.657
70760W        W38989  16.067  16.123  14.603
70761W        W38990   9.132  42.852   4.361
70762W        W38991   6.295  14.746   3.843
70763W        W38992  16.754  41.975   2.851
70764W        W38993  26.814  10.181   2.833
70765W        W38994   5.832  43.585   3.079
70766W        W38995  31.787  17.054  10.790
70767W        W38996   7.109  13.175  11.485
70768W        W38997  28.658  37.314  11.560
70769W        W38998  41.805  28.689   4.283
70770W        W38999  41.358  44.179  11.654
70771W        W39000  13.261  30.593   4.274
70772W        W39001  11.849  26.494  12.125
70773W        W39002  14.214  26.548   1.804
70774W        W39003   0.559  11.700  14.349
70775W        W39004   6.033  22.669   4.967
70776W        W39005  27.431  27.445   2.242
70777W        W39006  33.065   8.744  14.293
70778W        W39007  31.700  18.217  13.868
70779W        W39008  37.564  30.650   0.836
70780W        W39009   2.181  44.805  10.860
70781W        W39010  43.752  38.495   3.246
70782W        W39011  30.310   0.453   0.200
70783W        W39012  37.174  38.640   3.074
70784W        W39013  34.482  40.055  12.084
70785W        W39014   5.918   0.016  12.966
70786W        W39015  17.187  37.616   0.190
70787W        W39016   6.836   2.843  11.575
70788W        W39017  13.732   3.303   1.789
70789W        W39018  40.928  22.244  13.867
70790W        W39019  24.620  40.722  11.545
70791W        W39020   7.873   7.982  13.476
70792W        W39021   0.262  44.069   1.880
70793W        W39022  19.504  26.138   2.642
70794W        W39023  13.585  38.079   2.757
70795W        W39024  38.564  10.154   1.693
70796W        W39025  13.480  44.332  12.816
70797W        W39026  40.743  20.908  13.443
70798W        W39027  44.409  27.224  10.602
70799W        W39028  38.307  19.705   3.881
70800W        W39029  14.088  38.937  11.426
70801W        W39030  15.249  34.855   2.792
70802W        W39031  31.021  20.015   2.837
70803W        W39032  38.362  33.452  13.170
70804W        W39033  18.627  35.040   1.314
70805W        W39034  43.813   7.045   3.566
70806W        W39035   9.143   4.511   1.412
70807W        W39036   7.241  39.325  14.776
70808W        W39037   7.128  34.795  13.857
70809W        W39038  44.295  37.977   2.312
70810W        W39039  39.863  21.187   0.092
70811W        W39040  30.511  28.175  13.825
70812W        W39041   9.342  24.053   4.459
70813W        W39042  40.617  39.104  11.951
70814W        W39043  27.191  29.065  13.164
70815W        W39044  12.179  10.187  14.115
70816W        W39045   3.904  23.085  10.630
70817W        W39046  39.974  35.352  10.824
70818W        W39047  34.106   5.279  11.193
70819W        W39048  20.854   8.079   0.395
70820W        W39049  34.846  11.243   1.912
70821W        W39050  42.246  35.835  13.018
70822W        W39051   4.744  43.244  11.248
70823W        W39052  39.913  22.829   0.064
70824W        W39053  27.922  41.994   1.164
70825W        W39054  15.508  33.837  11.664
70826W        W39055   3.672   8.385   3.791
70827W        W39056   5.894  15.695   0.182
70828W        W39057  36.205  19.609   4.730
70829W        W39058  43.906  34.477  13.865
70830W        W39059  31.168  42.262   0.675
70831W        W39060  41.890  17.204   0.492
70832W        W39061  29.066  16.219  12.516
70833W        W39062  38.965   4.945  11.456
70834W        W39063   6.540   2.836   1.336
70835W        W39064  38.629  30.863   0.433
70836W        W39065  13.891  24.154  14.880
70837W        W39066  38.094  21.040   1.762
70838W        W39067  18.402  17.020   4.918
70839W        W39068  35.462  42.095   2.828
70840W        W39069  16.360  19.910   4.103
70841W        W39070  22.608  36.074   3.781
70842W        W39071  33.416  16.344  14.356
70843W        W39072  19.269  25.173   4.177
70844W        W39073   4.152  13.154   0.815
70845W        W39074  31.267  13.891  10.871
70846W        W39075  11.381  22.570  11.047
70847W        W39076  21.706  18.193  11.235
70848W        W39077   4.492  39.048   0.346
70849W        W39078  14.845  28.524  10.764
70850W        W39079  10.257  16.966  14.203
70851W        W39080  28.405  31.605  13.354
70852W        W39081   3.971  40.572   0.865
70853W        W39082   0.980  32.038  12.378
70854W        W39083  14.008  25.008   1.961
70855W        W39084  13.715   3.966  14.912
70856W        W39085  20.994   1.147   5.070
70857W        W39086   3.670  36.117   1.659
70858W        W39087   1.559  20.258  13.012
70859W        W39088  21.388  19.682   2.278
70860W        W39089  40.572  16.062   4.434
70861W        W39090  39.049  25.544  11.145
70862W        W39091  38.358  34.115   0.001
70863W        W39092  20.755   0.703   3.367
70864W        W39093   2.448  19.344   0.191
70865W        W39094  40.857   3.248   0.962
70866W        W39095  15.818  25.460   2.160
70867W        W39096   9.680  23.507   3.327
70868W        W39097  42.253  38.396   4.672
70869W        W39098  41.265  32.120   2.461
70870W        W39099  38.235  22.101   2.698
70871W        W39100   3.262  31.434   3.645
70872W        W39101  10.083  22.789   2.597
70873W        W39102  24.197  20.607   1.848
70874W        W39103  12.710  44.866  14.837
70875W        W39104  29.226  38.423  11.091
70876W        W39105  44.135  21.626  10.071
70877W        W39106   0.502  33.845  13.953
70878W        W39107  42.924  42.895   0.797
70879W        W39108  33.009  26.924   2.145
70880W        W39109  26.299  12.731   0.798
70881W        W39110  20.194  19.635   4.695
70882W        W39111  33.878  22.296  12.240
70883W        W39112  11.896  43.892  10.737
70884W        W39113  15.105  42.206  13.015
70885W        W39114  30.825  41.418  14.268
70886W        W39115   0.603  38.381   1.080
70887W        W39116  37.444  31.473   0.154
70888W        W39117   4.913  29.581   2.192
70889W        W39118   8.372  26.086   0.219
70890W        W39119  11.595  33.569  14.608
70891W        W39120   2.058  41.669  11.091
70892W        W39121   3.413   4.269  11.622
70893W        W39122  26.541  27.537  13.366
70894W        W39123  28.106   0.672   4.125
70895W        W39124   9.413  41.490   2.458
70896W        W39125  17.301   9.071   1.325
70897W        W39126   6.790   6.434   3.727
70898W        W39127  33.895   3.385  14.119
70899W        W39128  27.693   7.299  10.582
70900W        W39129  34.110  37.864   0.359
70901W        W39130  20.878  33.600  12.836
70902W        W39131  40.098   0.447   0.262
70903W        W39132  23.953  41.486  14.550
70904W        W39133  17.710  44.720   1.671
70905W        W39134  19.063  16.331  12.750
70906W        W39135   3.759  44.504  10.284
70907W        W39136  11.896   3.860   1.200
70908W        W39137  31.969  22.793  13.550
70909W        W39138  15.019  21.005  11.277
70910W        W39139  15.402   1.230   1.260
70911W        W39140  12.695  19.039  14.308
70912W        W39141  17.611  15.966   0.304
70913W        W39142  25.471  41.347  10.729
70914W        W39143  17.321  22.946  14.556
70915W        W39144  43.286   8.584  12.921
70916W        W39145  23.236  11.854  12.030
70917W        W39146  16.988   9.276   0.438
70918W        W39147  39.929   4.874  14.020
70919W        W39148  29.903  13.672   1.386
70920W        W39149  26.000  27.855   9.863
70921W        W39150  37.488  38.977   2.740
70922W        W39151  16.751  32.762   3.734
70923W        W39152  27.709   3.964  12.490
70924W        W39153   8.224  35.751  11.705
70925W        W39154  11.876   1.219   2.947
70926W        W39155  24.589  41.714   0.366
70927W        W39156  29.926  21.676   1.447
70928W        W39157   2.248  40.009   3.756
70929W        W39158  27.120  28.000  14.827
70930W        W39159  19.737  38.822   0.226
70931W        W39160  39.758   1.745   0.903
70932W        W39161   3.779  10.874  11.434
70933W        W39162  27.635  17.503  13.805
70934W        W39163   1.902  32.988   1.747
70935W        W39164  39.559   0.690  12.968
70936W        W39165  44.043  14.723  11.203
70937W        W39166   4.869  26.329   9.834
70938W        W39167   2.441  20.989  11.521
70939W        W39168  41.961  44.956  13.149
70940W        W39169  35.533  44.450  11.118
70941W        W39170   8.293  32.661  10.635
70942W        W39171  33.903  43.863  11.033
70943W        W39172  29.935   6.800   3.661
70944W        W39173   6.393   0.887  10.288
70945W        W39174  35.457   1.430   1.205
70946W        W39175  26.234  40.526   2.690
70947W        W39176  11.475  34.815  12.390
70948W        W39177  21.713  34.392   3.904
70949W        W39178   3.409  24.827   3.599
70950W        W39179  16.619  11.598  12.847
70951W        W39180  35.784  23.057   2.741
70952W        W39181  25.247  18.769  12.577
70953W        W39182  33.522  31.213  13.753
70954W        W39183  22.892   2.164   4.204
70955W        W39184  28.109   2.190  13.503
70956W        W39185  44.004  40.504  11.236
70957W        W39186  39.097  34.421  12.500
70958W        W39187  31.509  24.595  12.707
70959W        W39188  29.405  36.384   3.671
70960W        W39189  38.023  19.216   3.680
70961W        W39190  32.521   0.508   1.431
70962W        W39191  13.228  25.727  11.337
70963W        W39192   6.926  30.037  11.574
70964W        W39193  15.048  38.858   3.670
70965W        W39194  38.880   7.025  13.194
70966W        W39195  34.106  32.952   4.489
70967W        W39196   2.540   7.491   5.008
70968W        W39197  34.883  24.449   1.876
70969W        W39198  14.197  35.874  14.926
70970W        W39199  10.765  16.647  12.120
70971W        W39200   0.257   1.307  10.709
70972W        W39201  27.217  33.540   2.253
70973W        W39202  38.918  16.379   3.726
70974W        W39203   7.003  39.879   2.789
70975W        W39204  38.097   7.337  14.863
70976W        W39205  23.121  40.365  12.404
70977W        W39206  31.160   4.511   0.865
70978W        W39207   0.872  32.983  10.572
70979W        W39208  24.012  42.481  11.107
70980W        W39209  28.910  29.404  10.560
70981W        W39210  44.981  38.890   2.242
70982W        W39211  26.628  17.568  13.461
70983W        W39212  31.355  27.000   3.768
70984W        W39213  25.590   9.725  11.423
70985W        W39214  35.635  38.562  11.284
70986W        W39215  22.433  21.073  10.604
70987W        W39216  35.028  17.563  10.967
70988W        W39217  42.903   0.531   1.311
70989W        W39218   8.860  36.024   0.542
70990W        W39219  28.579  33.597   0.532
70991W        W39220   5.449   4.680  13.531
70992W        W39221  22.611   8.194   4.378
70993W        W39222  25.109  29.618   0.156
70994W        W39223  16.242  27.909   9.927
70995W        W39224  35.517  29.474  14.515
70996W        W39225  22.803  11.688   3.358
70997W        W39226   4.770  43.958  12.321
70998W        W39227  12.584  30.457   5.007
70999W        W39228  13.609  25.484   2.596
71000W        W39229  13.862  18.127   1.653
71001W        W39230  10.380   6.976   1.102
71002W        W39231   0.328  26.076   4.127
71003W        W39232  43.716  30.016   1.207
71004W        W39233  44.382   0.760   1.194
71005W        W39234  10.096  44.745   2.891
71006W        W39235  40.294  15.084  14.340
71007W        W39236   0.858  35.056   4.322
71008W        W39237  24.968  30.457   2.630
71009W        W39238  18.592  29.079   0.451
71010W        W39239  21.338  25.748  11.068
71011W        W39240  31.678  22.047  12.464
71012W        W39241   7.822  38.169   1.900
71013W        W39242  18.026   2.471   2.663
71014W        W39243  19.029  41.541   3.404
71015W        W39244  35.858  34.301  14.050
71016W        W39245  22.498  27.247  13.152
71017W        W39246  40.013  18.341   3.356
71018W        W39247   9.409   9.376   4.561
71019W        W39248  30.906  23.960   0.913
71020W        W39249  16.856  18.163  12.507
71021W        W39250  35.919  30.912   4.091
71022W        W39251  40.838   9.753   3.228
71023W        W39252  23.501  12.455   9.804
71024W        W39253  26.698  10.187   4.543
71025W        W39254   0.254   3.429   3.094
71026W        W39255  25.906  27.954  11.112
71027W        W39256  19.150  28.675   4.905
71028W        W39257  16.599  23.247  14.047
71029W        W39258  16.538  31.554   4.773
71030W        W39259  33.073   3.388  13.073
71031W        W39260  18.105  39.856   4.225
71032W        W39261  11.814  27.033   0.751
71033W        W39262  36.721  17.432  14.450
71034W        W39263  18.668  10.333   0.474
71035W        W39264  22.639  24.717  12.052
71036W        W39265  17.911  12.656   1.468
71037W        W39266   3.506   8.233   0.303
71038W        W39267  34.384   2.998   3.747
71039W        W39268  37.188  21.597  10.935
71040W        W39269  31.095  41.118   0.978
71041W        W39270  20.709  36.144  10.472
71042W        W39271  14.134  14.180   2.354
71043W        W39272  19.042  40.210   1.368
71044W        W39273   5.200   6.771   0.788
71045W        W39274  31.734  21.052   3.051
71046W        W39275  14.766  13.080  12.979
71047W        W39276  10.663  13.642   1.174
71048W        W39277  38.556  11.389  11.433
71049W        W39278  43.911  25.561  12.306
71050W        W39279  42.726  41.446  14.865
71051W        W39280   4.933   9.362   0.360
71052W        W39281   3.229  31.655  10.377
71053W        W39282  24.804  23.064   1.981
71054W        W39283  24.239  33.552  14.495
71055W        W39284  22.481  23.661  12.102
71056W        W39285  14.299  41.692  14.868
71057W        W39286  37.169  28.029  14.328
71058W        W39287  21.065  13.328   1.159
71059W        W39288  23.850  10.653  13.653
71060W        W39289  24.111  44.073   1.652
71061W        W39290   9.719  11.690   4.431
71062W        W39291   8.888  27.144   1.775
71063W        W39292  14.845  19.568  13.347
71064W        W39293  27.281   4.908  11.501
71065W        W39294   7.421  35.411  10.774
71066W        W39295   0.381   2.528   0.803
71067W        W39296  20.107  19.666  11.586
71068W        W39297  41.098  43.651   0.652
71069W        W39298  41.941   1.429   3.612
71070W        W39299  34.176   1.865   2.104
71071W        W39300  10.687  38.479  11.194
71072W        W39301   2.443  24.584  11.488
71073W        W39302  32.348  30.629   1.990
71074W        W39303  27.493   5.361  12.700
71075W        W39304  42.088  26.675   4.887
71076W        W39305   5.078  35.599   0.508
71077W        W39306  44.597  27.705  10.761
71078W        W39307  25.405  24.557  12.544
71079W        W39308  33.996  35.838   3.812
71080W        W39309   2.771  22.158  11.849
71081W        W39310  22.687   2.646   2.453
71082W        W39311  26.562  22.676   2.924
71083W        W39312  15.603  38.416  11.967
71084W        W39313  39.927  21.661   4.207
71085W        W39314  41.649   4.155   0.213
71086W        W39315   2.007   6.686   3.714
71087W        W39316  25.703  17.071   0.271
71088W        W39317  44.332  43.543   0.853
71089W        W39318  39.072  23.117   0.301
71090W        W39319  34.577  24.631   1.483
71091W        W39320  16.569  43.775   3.728
71092W        W39321  20.313  41.921  13.117
71093W        W39322  42.097  41.409   3.207
71094W        W39323   3.135  32.045   1.867
71095W        W39324  38.346  31.711   4.261
71096W        W39325  30.080  43.986   1.385
71097W        W39326  44.267   9.379   3.208
71098W        W39327   6.929   1.227   0.402
71099W        W39328  26.446  13.811   2.847
71100W        W39329  21.054  31.461  12.807
71101W        W39330  15.297  33.775  12.148
71102W        W39331  13.117  42.065  13.108
71103W        W39332  20.052   4.481  12.152
71104W        W39333  24.522  31.706  12.170
71105W        W39334  21.289  25.473   1.347
71106W        W39335  27.484  14.219   1.942
71107W        W39336  27.686  15.978   0.993
71108W        W39337  18.658  18.208   4.463
71109W        W39338  20.084   9.411   4.760
71110W        W39339  14.811  30.523  12.414
71111W        W39340   3.112  39.253   0.226
71112W        W39341  12.565  38.060   2.371
71113W        W39342  16.617  26.739  14.939
71114W        W39343   2.757  29.197  12.041
71115W        W39344   3.366  14.195   1.891
71116W        W39345  24.566  34.204   0.027
71117W        W39346  20.276  43.912   2.004
71118W        W39347   1.871  10.273   3.903
71119W        W39348   0.031  26.944   4.144
71120W        W39349  32.895   9.066   3.684
71121W        W39350  35.178  33.426   0.936
71122W        W39351  25.517  25.668   0.276
71123W        W39352   3.802  23.803   0.340
71124W        W39353  37.686  14.375   0.812
71125W        W39354   5.239  35.146   4.717
71126W        W39355   7.919  12.406   0.998
71127W        W39356  43.909  35.472   0.789
71128W        W39357  35.861  33.510  13.443
71129W        W39358  26.748  15.951  12.452
71130W        W39359   8.697  22.328   4.069
71131W        W39360  21.684  34.475   0.755
71132W        W39361  34.396   8.717  14.553
71133W        W39362   8.192   3.031  14.452
71134W        W39363  23.984  31.036  12.215
71135W        W39364  18.066   7.695   2.232
71136W        W39365  27.202  20.760  11.583
71137W        W39366  20.095  18.183   2.251
71138W        W39367  42.983  38.509  12.471
71139W        W39368  17.651   1.173   2.649
71140W        W39369  32.639  13.103   0.846
71141W        W39370  39.994   7.933  11.077
71142W        W39371  20.651  18.868   0.048
71143W        W39372  15.750  32.940  14.099
71144W        W39373  21.059  37.951  11.629
71145W        W39374  20.859  17.713   0.282
71146W        W39375  38.101  23.193   2.728
71147W        W39376  14.212  11.168  11.068
71148W        W39377  31.822  44.288   2.826
71149W        W39378  19.253  24.682  10.134
71150W        W39379  22.564  40.828  12.925
71151W        W39380  22.756  20.213   3.659
71152W        W39381  30.920  26.210  14.882
71153W        W39382  15.045   2.945   1.824
71154W        W39383   3.907  17.655  11.664
71155W        W39384  26.701  30.396   0.293
71156W        W39385  20.187  28.690  10.681
71157W        W39386  39.311  35.594   3.677
71158W        W39387   9.819  34.727  14.742
71159W        W39388  36.492  36.296  11.392
71160W        W39389  14.710  17.412   0.272
71161W        W39390  31.588  33.393   4.134
71162W        W39391  29.693  11.569  12.409
71163W        W39392  44.499  41.080   0.383
71164W        W39393  25.447  34.562  13.238
71165W        W39394  43.065  26.154  14.803
71166W        W39395  10.822  31.330  11.651
71167W        W39396  22.153  39.817   3.309
71168W        W39397  35.216  35.501   1.095
71169W        W39398  37.639  23.351  12.041
71170W        W39399   2.324  14.579   2.431
71171W        W39400  21.791  16.631   0.407
71172W        W39401   8.963  13.274   5.011
71173W        W39402  23.704  22.216  14.240
71174W        W39403  28.618   2.577   0.011
71175W        W39404  20.280  38.041  13.849
71176W        W39405  19.556  43.975   4.522
71177W        W39406   8.842  18.767  12.058
71178W        W39407  37.291  27.904   2.778
71179W        W39408  31.795  31.107   2.740
71180W        W39409  27.048  21.727   0.327
71181W        W39410  30.376  25.124  11.578
71182W        W39411   3.039   4.151  14.809
71183W        W39412  37.865  28.931   1.409
71184W        W39413  38.615  23.220  14.517
71185W        W39414   8.153  33.824  12.110
71186W        W39415   0.645  24.155   4.575
71187W        W39416   0.925  32.180  14.301
71188W        W39417  40.411  25.858  11.590
71189W        W39418  40.057  16.134  11.591
71190W        W39419   3.701  37.496  14.018
71191W        W39420  18.015   5.683  14.432
71192W        W39421  44.386   6.935  13.953
71193W        W39422  28.908  15.110   4.150
71194W        W39423   0.828   9.901  11.993
71195W        W39424  32.429   9.894  11.950
71196W        W39425  29.354  18.728   4.593
71197W        W39426   4.817  18.711  12.128
71198W        W39427  26.237  38.109   5.032
71199W        W39428  43.441   1.441   3.355
71200W        W39429  43.647   7.084   4.793
71201W        W39430  22.409  33.757   3.106
71202W        W39431  37.410  39.965  12.948
71203W        W39432  35.018  39.053  12.121
71204W        W39433  26.520   6.921   3.335
71205W        W39434  14.677  44.016  12.609
71206W        W39435  25.680  26.035   2.402
71207W        W39436  21.014   4.454   0.402
71208W        W39437  37.484  22.615   4.082
71209W        W39438   2.447  33.347   4.100
71210W        W39439   2.142  39.963  12.977
71211W        W39440  41.579   6.870   0.227
71212W        W39441  26.691  14.350   1.223
71213W        W39442   6.577  15.769  10.084
71214W        W39443  20.450  43.841   4.626
71215W        W39444   2.628  29.546   2.855
71216W        W39445  13.554  39.839  11.545
71217W        W39446  39.754  27.997  10.509
71218W        W39447  25.422   3.861  14.854
71219W        W39448  23.955  21.705  10.762
71220W        W39449  22.274  10.340   0.555
71221W        W39450   0.554  35.484   2.786
71222W        W39451   9.318  44.226  13.896
71223W        W39452  32.670  31.903  10.629
71224W        W39453  32.135  15.130   1.903
71225W        W39454   8.717  16.754   0.959
71226W        W39455  30.940  23.672  13.753
71227W        W39456  31.687  15.670  12.530
71228W        W39457  11.946   6.779   1.685
71229W        W39458  12.404  23.711  14.462
71230W        W39459  26.388   1.004   2.264
71231W        W39460  34.110  17.588  12.497
71232W        W39461  14.006  33.363   2.732
71233W        W39462  43.796  30.872  12.555
71234W        W39463   0.731  17.153  14.828
71235W        W39464   8.713  24.099   2.192
71236W        W39465   0.439  23.438  10.769
71237W        W39466   0.233  42.794   4.113
71238W        W39467  29.170   3.955  13.942
71239W        W39468  14.311  33.884   4.956
71240W        W39469  36.731   5.160  12.424
71241W        W39470  34.638   7.520   4.932
71242W        W39471  41.854   9.225   0.542
71243W        W39472  11.584  23.398   3.261
71244W        W39473  43.077  14.551  14.293
71245W        W39474  42.994  16.965   2.865
71246W        W39475   2.373  11.206  12.167
71247W        W39476  13.936  36.391   2.919
71248W        W39477  13.167  19.285   1.979
71249W        W39478   0.224   8.732  10.689
71250W        W39479  43.047  17.249  13.941
71251W        W39480  42.125  19.794   0.316
71252W        W39481  31.926  14.061   4.508
71253W        W39482  31.149  17.429   5.579
71254W        W39483  12.045  26.471   1.841
71255W        W39484  38.874  35.869  14.872
71256W        W39485  19.273  20.046  10.655
71257W        W39486  19.880  21.749   2.036
71258W        W39487  41.005  10.648   2.888
71259W        W39488  39.434  41.758  10.924
71260W        W39489  40.461  38.997   2.204
71261W        W39490   1.743  10.449  13.375
71262W        W39491  21.005  22.530   4.941
71263W        W39492  30.221  30.101   0.640
71264W        W39493   5.966  23.891   3.373
71265W        W39494  29.250   3.786  10.599
71266W        W39495   5.641   2.785   0.414
71267W        W39496  16.591  44.241  13.715
71268W        W39497  16.710  21.135   4.098
71269W        W39498  26.721  25.118  12.348
71270W        W39499   4.360   0.419   0.841
71271W        W39500  19.096  40.023  10.799
71272W        W39501  44.321   3.238  14.463
71273W        W39502  11.216  10.671   0.784
71274W        W39503  21.192  14.549   0.706
71275W        W39504   8.116  31.455  13.951
71276W        W39505  13.349   4.452  14.440
71277W        W39506   4.394  38.843   0.916
71278W        W39507  42.559  41.201  13.562
71279W        W39508  11.497  19.232  12.004
71280W        W39509  36.117  16.808  14.871
71281W        W39510  25.910  26.899  13.275
71282W        W39511   6.316  20.500  12.908
71283W        W39512  40.829  22.662   3.662
71284W        W39513  27.489   0.822  12.972
71285W        W39514  21.591  35.851  13.833
71286W        W39515   8.796  23.127   2.622
71287W        W39516  30.636  21.256   1.667
71288W        W39517   5.446  43.345   1.832
71289W        W39518  36.177  37.931   4.763
71290W        W39519   8.839   6.417  12.509
71291W        W39520  24.205  34.008   3.889
71292W        W39521  41.616   9.301   2.128
71293W        W39522  23.244  25.798  11.615
71294W        W39523  27.402  27.595   4.434
71295W        W39524  28.728  22.333   2.812
71296W        W39525  33.849  13.273   2.282
71297W        W39526  17.048  20.564   0.104
71298W        W39527  19.555  38.430  13.525
71299W        W39528  31.274  41.784  13.263
71300W        W39529   7.609   7.879   1.686
71301W        W39530   9.807  26.454  13.123
71302W        W39531  31.967  11.428   3.703
71303W        W39532   2.883  33.160  14.758
71304W        W39533  16.871  23.638   0.772
71305W        W39534  13.301  13.178  12.582
71306W        W39535  33.464  43.829   0.832
71307W        W39536  16.579  30.993   3.534
71308W        W39537  32.507  25.013   0.398
71309W        W39538  26.080  33.882  13.496
71310W        W39539  44.683   9.356  10.621
71311W        W39540  25.397   6.496  10.950
71312W        W39541  24.635  23.118   0.534
71313W        W39542  27.652   1.359   2.303
71314W        W39543  26.771  14.198   3.000
71315W        W39544   3.140  35.138  12.700
71316W        W39545  37.843  29.999  13.745
71317W        W39546  16.622  28.355   4.220
71318W        W39547  16.922  28.770  11.017
71319W        W39548   1.443   7.485  13.503
71320W        W39549  24.556  11.883   0.367
71321W        W39550  44.734  27.218   3.837
71322W        W39551  33.916  40.385   4.127
71323W        W39552  41.359   4.736  13.947
71324W        W39553  20.248  14.108   2.562
71325W        W39554   3.934  22.548  12.901
71326W        W39555  14.245   7.003  13.953
71327W        W39556  37.398  32.238   0.941
71328W        W39557  40.326  16.319   2.366
71329W        W39558  16.295  22.056   4.120
71330W        W39559  22.828  27.227   4.099
71331W        W39560  25.725  31.410   2.185
71332W        W39561  34.020  20.975  11.458
71333W        W39562  30.993  23.719   1.935
71334W        W39563  14.198  30.954   1.264
71335W        W39564  20.655  43.624   1.275
71336W        W39565  30.164  31.729   5.307
71337W        W39566  10.483  29.134  14.870
71338W        W39567   4.278  17.658   4.633
71339W        W39568  30.832  14.972   0.277
71340W        W39569  35.886  24.033  14.159
71341W        W39570  21.748  28.573   1.779
71342W        W39571  15.531  20.184  13.780
71343W        W39572  11.955  10.166   4.868
71344W        W39573  14.402  20.500   1.637
71345W        W39574  32.760  18.647  14.986
71346W        W39575  41.509  32.416  12.619
71347W        W39576  17.350  43.143  13.895
71348W        W39577  32.617   2.217  11.933
71349W        W39578  38.980  20.487   1.672
71350W        W39579  34.386  21.231  12.080
71351W        W39580  34.915  37.547   9.991
71352W        W39581  28.512  42.845  13.474
71353W        W39582  29.347  32.924  14.406
71354W        W39583  43.845  31.115  10.769
71355W        W39584  24.587  30.058   2.299
71356W        W39585   2.320  26.216   1.853
71357W        W39586  38.374  17.700  13.577
71358W        W39587   3.359  28.763   2.772
71359W        W39588  25.020  34.964  12.105
71360W        W39589  31.537  20.532  11.538
71361W        W39590  38.808  10.787   0.019
71362W        W39591  24.421  34.690  14.995
71363W        W39592  11.451   4.340   0.466
71364W        W39593  37.025  33.841   2.947
71365W        W39594  34.579   1.487   3.665
71366W        W39595   3.923  42.565   2.303
71367W        W39596  28.102  11.613   1.333
71368W        W39597   1.039   9.165   4.267
71369W        W39598  34.753  22.029  14.005
71370W        W39599  22.676  24.110  11.120
71371W        W39600  32.931  38.370   0.618
71372W        W39601  18.221  36.633   1.138
71373W        W39602  31.929  41.691  10.741
71374W        W39603  15.220  11.779  10.137
71375W        W39604  21.821  17.214  13.776
71376W        W39605  23.967  17.225  11.464
71377W        W39606  10.728  30.917  10.887
71378W        W39607  20.116  41.299  13.897
71379W        W39608  20.552  44.391  13.853
71380W        W39609  19.665  14.214   1.846
71381W        W39610   4.807  27.566  11.575
71382W        W39611  39.438  41.507  11.687
71383W        W39612  31.890  15.029   0.094
71384W        W39613  29.759  29.853   0.747
71385W        W39614  11.318  15.625   4.242
71386W        W39615  20.719  41.809   0.830
71387W        W39616   6.235  21.309  13.473
71388W        W39617  12.270  18.740   4.555
71389W        W39618  37.347  22.220   1.347
71390W        W39619  13.140   9.339  10.491
71391W        W39620  21.766  16.528   1.442
71392W        W39621  22.746  21.176   3.970
71393W        W39622  27.020   5.761  13.418
71394W        W39623   3.674   4.747   1.285
71395W        W39624  11.700  42.255   2.875
71396W        W39625  11.876  17.078  11.382
71397W        W39626  31.481  27.785  10.510
71398W        W39627   4.242  34.037   1.265
71399W        W39628  10.384  33.560  11.248
71400W        W39629  24.091  12.463   2.198
71401W        W39630  36.987  33.382   0.951
71402W        W39631   7.465  28.537   0.374
71403W        W39632  34.164  15.568   2.064
71404W        W39633  34.943  17.685  14.046
71405W        W39634  37.523   8.982   4.125
71406W        W39635  35.822   0.255  11.524
71407W        W39636  10.280  29.000  13.140
71408W        W39637  15.513  43.771   1.058
71409W        W39638  26.163   2.715  10.628
71410W        W39639   1.520  25.240  14.388
71411W        W39640   8.804  29.200  11.286
71412W        W39641  24.028  37.375   4.669
71413W        W39642  14.331  21.852  12.790
71414W        W39643  22.603  42.684   4.726
71415W        W39644  35.426  34.135  10.736
71416W        W39645  30.376  22.457  11.129
71417W        W39646  38.564  37.483   1.690
71418W        W39647  23.222  27.948   2.821
71419W        W39648  17.057   4.928   3.135
71420W        W39649  38.916  23.317  13.249
71421W        W39650   4.907  18.242  14.944
71422W        W39651  28.084  20.331  13.796
71423W        W39652  21.607  40.663   4.775
71424W        W39653  40.349  15.634  11.615
71425W        W39654  33.103  41.436  13.845
71426W        W39655  14.384   9.261   3.762
71427W        W39656  29.627   3.049  11.112
71428W        W39657  33.157  41.890   3.710
71429W        W39658  38.805  26.881   2.594
71430W        W39659  22.984  17.878  11.492
71431W        W39660   5.967  36.867   3.659
71432W        W39661  26.400  41.105   4.090
71433W        W39662  36.800  13.264  10.746
71434W        W39663  24.855  18.106   4.258
71435W        W39664  22.653   3.728   4.972
71436W        W39665  40.671   6.770  11.620
71437W        W39666  25.763  28.619   3.442
71438W        W39667  19.353  14.700   3.290
71439W        W39668  28.504  23.088   3.769
71440W        W39669  23.251  11.941   3.206
71441W        W39670  24.040  12.190   1.272
71442W        W39671   6.962  44.927   3.094
71443W        W39672   4.275   8.678   0.236
71444W        W39673  31.990  36.439   0.840
71445W        W39674  38.540   8.615   0.060
71446W        W39675   6.784  32.599  14.475
71447W        W39676  10.314  38.536   2.243
71448W        W39677  25.197  42.960  13.676
71449W        W39678  30.527  27.935   1.217
71450W        W39679   3.437   7.614   0.757
71451W        W39680  27.836  26.761  13.952
71452W        W39681  19.259  11.292   2.243
71453W        W39682  14.880  23.054  10.803
71454W        W39683   3.008  30.518   2.615
71455W        W39684  23.551   8.205  11.393
71456W        W39685  24.066   3.809  14.490
71457W        W39686  13.356  39.410  11.735
71458W        W39687  17.997  15.342  14.916
71459W        W39688  10.423  14.105  14.858
71460W        W39689  37.530  21.396   4.654
71461W        W39690  28.003   5.898  13.708
71462W        W39691  23.121  14.770  11.390
71463W        W39692  32.695  14.743   4.049
71464W        W39693  42.893  17.754  14.583
71465W        W39694   3.004  27.575  10.446
71466W        W39695  41.523   2.298   0.504
71467W        W39696  20.056  27.640  10.970
71468W        W39697  27.132  32.369  11.500
71469W        W39698  31.175  16.338   0.349
71470W        W39699  26.871  40.352   9.983
71471W        W39700  37.503  10.671   0.910
71472W        W39701  40.295  41.322   4.629
71473W        W39702  40.842   3.714  11.547
71474W        W39703  34.665  12.303   3.251
71475W        W39704   7.321   2.229   3.679
71476W        W39705  41.498  23.139   0.341
71477W        W39706  23.146  36.949   0.889
71478W        W39707  19.282  29.164   0.765
71479W        W39708  15.150   0.422   0.863
71480W        W39709  41.262  21.510   1.795
71481W        W39710  29.398  32.493  12.382
71482W        W39711  20.531   3.447  11.249
71483W        W39712   0.758  31.427   4.119
71484W        W39713  20.266  30.048  10.866
71485W        W39714  34.372  32.804  12.161
71486W        W39715   1.310  26.146   2.165
71487W        W39716  21.222   1.092   0.877
71488W        W39717  39.408   9.892   4.158
71489W        W39718  31.387  26.127  12.100
71490W        W39719   4.937  13.063  10.608
71491W        W39720  19.608   4.155   3.216
71492W        W39721  40.499  19.087   2.703
71493W        W39722  21.811  15.940  11.152
71494W        W39723  39.538  44.817  12.001
71495W        W39724  26.556  34.366  13.964
71496W        W39725  42.304  33.872  11.178
71497W        W39726  16.723  27.811  14.929
71498W        W39727  14.803   5.019  11.094
71499W        W39728  16.524   2.576  12.986
71500W        W39729   3.345   4.236   4.633
71501W        W39730  15.049  32.189   2.488
71502W        W39731   3.262  32.911   3.216
71503W        W39732  11.736   8.638  13.530
71504W        W39733  38.077  16.407  14.402
71505W        W39734  40.080   4.185   4.884
71506W        W39735  39.757  33.012  11.065
71507W        W39736  30.962  41.332  12.518
71508W        W39737  25.783  13.362   4.521
71509W        W39738   5.853  37.398  14.856
71510W        W39739  34.342   9.375  13.391
71511W        W39740  32.156   6.366  12.980
71512W        W39741   4.304  19.189   2.601
71513W        W39742  27.944  43.532   3.518
71514W        W39743   0.081  11.679   0.426
71515W        W39744  19.900   1.391  11.441
71516W        W39745  18.576  31.048   4.616
71517W        W39746  15.110   6.723   3.179
71518W        W39747  11.663  12.776   0.731
71519W        W39748  14.002  15.211  12.747
71520W        W39749  16.357  31.581   2.775
71521W        W39750  24.239  31.383  11.918
71522W        W39751  41.452  24.955   4.462
71523W        W39752   2.273  34.257  13.909
71524W        W39753  13.076  11.648   0.404
71525W        W39754  42.716   7.305  12.048
71526W        W39755   3.640  43.002   3.623
71527W        W39756  12.887  12.231   2.832
71528W        W39757  30.354  18.871   3.891
71529W        W39758  34.060  17.491   2.439
71530W        W39759  34.453  11.570   4.555
71531W        W39760  37.398  21.863   2.590
71532W        W39761  24.355  32.903  13.183
71533W        W39762   1.882  39.059  10.347
71534W        W39763   1.981  19.246  11.698
71535W        W39764  15.844  21.079  13.258
71536W        W39765  17.844  42.516  10.600
71537W        W39766  11.253  14.074   3.679
71538W        W39767  21.240  13.010   0.715
71539W        W39768  33.340   6.456   1.291
71540W        W39769  14.048  43.990  11.672
71541W        W39770   4.597  39.912  12.839
71542W        W39771   7.868   6.669  12.881
71543W        W39772  29.109  25.821   4.229
71544W        W39773  17.305  12.375   2.704
71545W        W39774  17.633   9.195  12.682
71546W        W39775  37.271  29.276  10.804
71547W        W39776  13.395  40.549   4.184
71548W        W39777   6.341  29.752  10.094
71549W        W39778   5.462   9.339   1.446
71550W        W39779  29.408   3.440  12.018
71551W        W39780   1.197  36.100   2.701
71552W        W39781   2.187  29.466  12.628
71553W        W39782  27.107  19.694  14.803
71554W        W39783  24.766  44.476  10.657
71555W        W39784  27.487   9.344  11.031
71556W        W39785   1.543  10.641  12.943
71557W        W39786   1.723  31.579  13.979
71558W        W39787  22.919  14.177   3.099
71559W        W39788  39.849  20.812  12.102
71560W        W39789  27.660  23.001  10.804
71561W        W39790  37.038   8.676   0.778
71562W        W39791   2.538  37.870  13.544
71563W        W39792  24.616  31.211   0.033
71564W        W39793   3.718  36.962   1.238
71565W        W39794  29.854  19.754   0.924
71566W        W39795  26.143  29.933   2.238
71567W        W39796  35.540  40.264   1.413
71568W        W39797  35.883  15.554   3.607
71569W        W39798  24.723  20.999   1.164
71570W        W39799  33.905  32.269   3.247
71571W        W39800  27.306  20.135  11.402
71572W        W39801  10.728  35.534  10.545
71573W        W39802   2.038  27.346   2.368
71574W        W39803  13.547  39.925   2.676
71575W        W39804   3.261  41.675   4.118
71576W        W39805  16.754  43.693  10.563
71577W        W39806   5.428  29.908   0.812
71578W        W39807   2.716   5.645  13.380
71579W        W39808  17.528  37.309   4.728
71580W        W39809   2.953   9.165   1.376
71581W        W39810  34.055  34.851  13.029
71582W        W39811   1.534  13.176  10.889
71583W        W39812   1.100  11.077  13.523
71584W        W39813  27.502  42.567   0.562
71585W        W39814  34.954  30.915   4.172
71586W        W39815   9.162  21.166   0.615
71587W        W39816  21.913  19.280  11.685
71588W        W39817   1.802  41.211   2.550
71589W        W39818  18.292  24.061  13.872
71590W        W39819  35.541  37.299   4.855
71591W        W39820  43.539   2.921   1.885
71592W        W39821  37.305  25.828   0.390
71593W        W39822   1.511   9.618   0.872
71594W        W39823  18.539  32.613  13.723
71595W        W39824  23.482  43.333  12.912
71596W        W39825  18.645   4.694  13.953
71597W        W39826  21.057   7.465   1.753
71598W        W39827   9.715  22.993   4.040
71599W        W39828  35.447   7.631   3.211
71600W        W39829  24.389   0.630   4.105
71601W        W39830  41.252  42.073   1.093
71602W        W39831  12.942  22.232   0.495
71603W        W39832   6.300  20.489   1.364
71604W        W39833   8.148  23.172  14.218
71605W        W39834  21.652  41.958   3.357
71606W        W39835  27.478  28.674  10.660
71607W        W39836  37.319  26.090  11.672
71608W        W39837  32.162  24.567  12.859
71609W        W39838  29.869   2.288   4.444
71610W        W39839  32.391   1.836   0.985
71611W        W39840  27.036  33.464   3.586
71612W        W39841  38.633  29.686   2.570
71613W        W39842   2.670  40.892  11.289
71614W        W39843  19.273  16.344   2.704
71615W        W39844  23.305  35.661  13.775
71616W        W39845   8.019  37.389   3.408
71617W        W39846   4.342  35.510  14.044
71618W        W39847  20.993   6.201  10.757
71619W        W39848  10.160  19.299  10.597
71620W        W39849  33.860  26.448  14.500
71621W        W39850   3.125  38.078   4.215
71622W        W39851  24.054   9.767   4.048
71623W        W39852  33.383   3.437  10.975
71624W        W39853  28.978  11.921   4.883
71625W        W39854  35.584  24.232  13.593
71626W        W39855  30.913  20.265  11.970
71627W        W39856  14.691  16.048   1.007
71628W        W39857  15.584  11.712   0.460
71629W        W39858  32.866  37.344   3.709
71630W        W39859  11.106  18.689   1.949
71631W        W39860  34.801  35.509  12.099
71632W        W39861  10.864   7.717   4.069
71633W        W39862  42.800   2.425   1.333
71634W        W39863  38.176  39.551  11.696
71635W        W39864  41.986   2.750  10.673
71636W        W39865  28.436   6.642   1.160
71637W        W39866  25.995  43.002  12.060
71638W        W39867  16.089  36.445  13.512
71639W        W39868  32.475   6.400  11.734
71640W        W39869  30.778   6.748   2.195
71641W        W39870  38.791  18.241  14.971
71642W        W39871  43.622  18.720   4.200
71643W        W39872   9.290  11.198  10.305
71644W        W39873  24.922  30.620  12.861
71645W        W39874  26.053  21.696   3.314
71646W        W39875  24.006  37.147   3.246
71647W        W39876   7.674  18.153   0.079
71648W        W39877  23.497   3.171  14.757
71649W        W39878  40.033   9.772  10.936
71650W        W39879  42.435  23.443   3.086
71651W        W39880  10.896  22.157   0.331
71652W        W39881  22.667   0.893   3.698
71653W        W39882   8.066   2.530  12.666
71654W        W39883  14.417  15.148  11.810
71655W        W39884  27.442  15.160   1.461
71656W        W39885  36.409  20.854   4.064
71657W        W39886  23.137  12.875  11.563
71658W        W39887  29.526  40.038   3.707
71659W        W39888  10.369   2.421   0.909
71660W        W39889   0.953  10.098  14.786
71661W        W39890  12.319  35.413   0.877
71662W        W39891  27.359  27.274   3.630
71663W        W39892  32.565  25.402   4.752
71664W        W39893  30.976  16.749  14.513
71665W        W39894  10.887  11.719   2.456
71666W        W39895  33.852  13.454  13.448
71667W        W39896  40.594  21.569  11.083
71668W        W39897  12.983  10.718  11.161
71669W        W39898  38.065  35.516  10.582
71670W        W39899   3.124   5.359  10.810
71671W        W39900  41.250   8.478  12.904
71672W        W39901   6.648   1.414   3.551
71673W        W39902  16.863  37.921  12.045
71674W        W39903  41.171  36.405   0.820
71675W        W39904   0.991  26.649  10.670
71676W        W39905  37.612  11.222   0.994
71677W        W39906  29.540  19.587   4.892
71678W        W39907  24.182   5.420  12.462
71679W        W39908  33.776  30.890  14.063
71680W        W39909  15.894  32.579  12.803
71681W        W39910  28.675  21.515  12.008
71682W        W39911  30.233  27.447  11.397
71683W        W39912  29.887  37.415   4.060
71684W        W39913  20.724  41.514  10.637
71685W        W39914  38.098  28.520   4.207
71686W        W39915   2.922  11.416  14.389
71687W        W39916  29.843   9.328  14.067
71688W        W39917  39.298  17.727  14.054
71689W        W39918  28.523  12.076  13.481
71690W        W39919  10.334  31.545  14.843
71691W        W39920  42.541  11.695   2.631
71692W        W39921  18.199  12.779  12.356
71693W        W39922   9.173   7.698  11.659
71694W        W39923  34.647  34.938   3.659
71695W        W39924  30.351  40.918  14.023
71696W        W39925  19.686  10.069  11.597
71697W        W39926  27.060  41.806   4.388
71698W        W39927  10.679   4.824   0.412
71699W        W39928  11.529   5.064   3.672
71700W        W39929  26.766  29.059  13.569
71701W        W39930  26.949  19.980  10.728
71702W        W39931   1.906  41.502   2.125
71703W        W39932  38.367  37.908  13.810
71704W        W39933  18.681  22.048  13.441
71705W        W39934  13.917  19.807   0.727
71706W        W39935   5.399  27.994   3.085
71707W        W39936  40.842  32.078  14.483
71708W        W39937  27.623   5.872  12.542
71709W        W39938  38.027  37.741  12.963
71710W        W39939  42.387  34.328   0.879
71711W        W39940  34.816  17.212  10.666
71712W        W39941  39.335   0.214   0.792
71713W        W39942   6.884  43.569   0.992
71714W        W39943  33.031  12.745   3.842
71715W        W39944  22.046  14.843  14.221
71716W        W39945  38.402  14.666   3.688
71717W        W39946  13.635  17.249   3.982
71718W        W39947  40.499   4.459  14.727
71719W        W39948  11.043  37.846   1.467
71720W        W39949  19.638   8.067  11.555
71721W        W39950  43.344  28.946  10.374
71722W        W39951  28.735  30.765  10.769
71723W        W39952  43.752  24.790   4.527
71724W        W39953   8.341  15.211   1.306
71725W        W39954  18.581  27.348   0.913
71726W        W39955  28.890  19.227   2.304
71727W        W39956  13.541  11.361  11.677
71728W        W39957  40.290  35.695  13.886
71729W        W39958   5.359  18.679  12.021
71730W        W39959  13.576  42.825   4.198
71731W        W39960  32.030   6.125   4.223
71732W        W39961  36.967  32.048   0.686
71733W        W39962   6.272   7.370   2.817
71734W        W39963   7.427  19.994   0.371
71735W        W39964  31.775   2.694   0.779
71736W        W39965  24.363  23.202   3.613
71737W        W39966  17.746  38.812  14.120
71738W        W39967  32.539  24.844  11.585
71739W        W39968  35.903  23.597   2.310
71740W        W39969   0.825   3.318   1.701
71741W        W39970  14.195   0.372   4.576
71742W        W39971  35.946  18.666  14.429
71743W        W39972  36.932  30.087  13.579
71744W        W39973   5.803  30.654  13.104
71745W        W39974   6.811   4.493  14.882
71746W        W39975   8.101  43.752  13.872
71747W        W39976   7.399  31.391  12.502
71748W        W39977  34.306  38.455  13.494
71749W        W39978   2.649  36.956  13.915
71750W        W39979  20.244  33.780   4.839
71751W        W39980  27.623  14.297  12.988
71752W        W39981  20.997  13.199   4.763
71753W        W39982   4.193  23.821  10.056
71754W        W39983  28.603  28.716   3.460
71755W        W39984  41.416  17.872  11.219
71756W        W39985  39.872  36.455  13.377
71757W        W39986  14.865  24.478   2.288
71758W        W39987  43.824  32.939   0.793
71759W        W39988  23.640  39.926  10.573
71760W        W39989  12.591  25.286   4.871
71761W        W39990  35.522  34.618  13.114
71762W        W39991  13.356  26.677   0.866
71763W        W39992  35.307  35.394  11.599
71764W        W39993  26.018   2.863   4.611
71765W        W39994  12.051  38.030   2.349
71766W        W39995  28.423  36.475  12.168
71767W        W39996  22.009  22.799  11.130
71768W        W39997  12.594   5.222   3.626
71769W        W39998  10.176   9.463  13.806
71770W        W39999   6.952  16.670   1.210
71771W        W40000  16.542   8.716  12.022
71772W        W40001  19.768   1.064   3.279
71773W        W40002  25.627  25.493  12.044
71774W        W40003  29.169  37.089   2.629
71775W        W40004   8.405  32.019   4.566
71776W        W40005  11.836  34.429  13.011
71777W        W40006  42.039  18.644  13.374
71778W        W40007   6.272  15.637  12.485
71779W        W40008  20.662  26.009   1.845
71780W        W40009  24.489  18.176  11.644
71781W        W40010   9.848   7.224  14.364
71782W        W40011  32.626   8.691  11.129
71783W        W40012  29.713  31.937  10.232
71784W        W40013  12.559  27.607   2.605
71785W        W40014   7.392  24.145   3.577
71786W        W40015   9.622  12.369  14.916
71787W        W40016  34.117  17.941   4.455
71788W        W40017   3.684  29.863  14.015
71789W        W40018  10.123  26.098   3.301
71790W        W40019  23.073  19.362  11.416
71791W        W40020   0.759  10.364   4.564
71792W        W40021  21.036  31.475   0.305
71793W        W40022   5.368  17.385   2.808
71794W        W40023  43.468   8.762  10.409
71795W        W40024  32.615  29.993  12.943
71796W        W40025   4.966  17.637  10.664
71797W        W40026  10.047  37.408  12.949
71798W        W40027  12.297  31.820  13.325
71799W        W40028   8.890   6.627  14.405
71800W        W40029  43.185  39.014  10.544
71801W        W40030  15.769  25.449   4.068
71802W        W40031  42.585  44.426   9.985
71803W        W40032  12.368  31.541   2.637
71804W        W40033  15.223  31.354  10.771
71805W        W40034  18.048  23.665  12.100
71806W        W40035  30.663   4.309  13.873
71807W        W40036  44.966  10.798  12.847
71808W        W40037  37.201  22.500  13.791
71809W        W40038  36.748  22.655  14.902
71810W        W40039   6.731  39.969  13.361
71811W        W40040  37.185  40.180   2.297
71812W        W40041   7.722  36.171  11.675
71813W        W40042  20.315  33.516  11.977
71814W        W40043   1.638  10.040   4.304
71815W        W40044  39.977  30.724  13.933
71816W        W40045  27.518  29.667  10.651
71817W        W40046   9.592  31.383  10.892
71818W        W40047  36.968  38.826  14.912
71819W        W40048  31.310  12.706  14.876
71820W        W40049  38.932   6.439   1.610
71821W        W40050  32.007  43.979  14.278
71822W        W40051  41.054  38.008   4.712
71823W        W40052   5.192  21.565   0.462
71824W        W40053   9.297  25.046   0.401
71825W        W40054   1.282  22.717  12.876
71826W        W40055   3.327  30.998   2.363
71827W        W40056   1.901  31.416   3.810
71828W        W40057  26.773  38.816   3.472
71829W        W40058  15.566  32.961  11.067
71830W        W40059   8.311  43.373   0.861
71831W        W40060  16.375  31.410  13.334
71832W        W40061  16.552  32.335   0.774
71833W        W40062  17.681   6.226  13.936
71834W        W40063  21.992   7.386  14.927
71835W        W40064  11.215   0.903   2.423
71836W        W40065  12.216   9.837   1.437
71837W        W40066   8.309  34.050  10.693
71838W        W40067  35.472  14.665  10.661
71839W        W40068  11.568  38.517  13.861
71840W        W40069   6.998  21.439   4.225
71841W        W40070  12.042  35.367  12.080
71842W        W40071  17.210  30.398  13.429
71843W        W40072  33.443  15.846  13.477
71844W        W40073  29.599   6.765  12.550
71845W        W40074  43.402   9.192  13.460
71846W        W40075   7.609  18.872   2.815
71847W        W40076  43.991   4.028  14.948
71848W        W40077  32.203  35.866   4.208
71849W        W40078  28.754  13.209   3.061
71850W        W40079  10.698   4.807   1.275
71851W        W40080   2.534  43.097   1.427
71852W        W40081   3.009  41.752   3.232
71853W        W40082  38.245  38.059   4.721
71854W        W40083   4.741  43.779   4.692
71855W        W40084  34.734  16.535   0.967
71856W        W40085  10.882  41.416   0.839
71857W        W40086  11.408  25.249  12.100
71858W        W40087   0.273   1.771  11.580
71859W        W40088  28.960   3.933   3.395
71860W        W40089  20.753  39.386   1.339
71861W        W40090  25.441   4.126   3.737
71862W        W40091   7.679  43.573  12.895
71863W        W40092  26.018  16.407  12.046
71864W        W40093  44.993  27.964  13.800
71865W        W40094  10.310  38.048  14.405
71866W        W40095  41.820  12.204  12.235
71867W        W40096  12.421  36.389   1.720
71868W        W40097  13.192  41.838   3.726
71869W        W40098  39.891  33.608  11.641
71870W        W40099  20.721  18.645  13.341
71871W        W40100  28.295   2.938  12.594
71872W        W40101  21.067  26.143   0.717
71873W        W40102  18.202  31.342  13.304
71874W        W40103  43.984  16.027   2.634
71875W        W40104  29.579  12.982  11.597
71876W        W40105  25.644   3.226  12.118
71877W        W40106  27.557  14.724  13.343
71878W        W40107  34.826   9.808  11.572
71879W        W40108   8.982  19.160   1.577
71880W        W40109  34.767  11.183  12.460
71881W        W40110  44.513  10.425  14.302
71882W        W40111   4.843  23.473  13.875
71883W        W40112  37.293  23.031  13.861
71884W        W40113  32.876  24.703   1.702
71885W        W40114  24.102  21.029   3.879
71886W        W40115  21.868  18.157   1.307
71887W        W40116   0.865  22.832   4.780
71888W        W40117  34.075  35.171   1.274
71889W        W40118   8.683  33.456  13.303
71890W        W40119  13.984  27.982   2.672
71891W        W40120  35.529  11.756  13.493
71892W        W40121  41.504  22.046  12.450
71893W        W40122  10.093  11.112   0.377
71894W        W40123  14.971   6.630  12.044
71895W        W40124  43.376   8.577  14.304
71896W        W40125  12.550  16.865  10.613
71897W        W40126  11.763  22.759  12.415
71898W        W40127  40.105  36.905  11.612
71899W        W40128  44.422   7.217  12.587
71900W        W40129  39.339  32.080  12.889
71901W        W40130  18.961  42.146  12.514
71902W        W40131   3.405  17.773  14.032
71903W        W40132   4.187   6.713   3.276
71904W        W40133  35.621  16.894  10.634
71905W        W40134  35.096  34.587   2.285
71906W        W40135  31.887   1.105   1.991
71907W        W40136  13.693  42.876   2.593
71908W        W40137  38.652  17.113   4.121
71909W        W40138  10.303  32.938  10.672
71910W        W40139  19.327  29.033   4.092
71911W        W40140   7.914  43.476   2.847
71912W        W40141  13.683  14.806  12.814
71913W        W40142   8.421   3.784   4.278
71914W        W40143  22.396  35.520   2.961
71915W        W40144  28.547  13.007  13.092
71916W        W40145   6.956  11.412   0.590
71917W        W40146  12.828  44.040  11.710
71918W        W40147  10.650  24.957  12.867
71919W        W40148   2.315  44.487  12.850
71920W        W40149  32.987  15.185  11.704
71921W        W40150   0.710  40.548   0.301
71922W        W40151  16.295  16.165  10.570
71923W        W40152  19.365  42.461   0.699
71924W        W40153  35.532  31.510   2.193
71925W        W40154  24.535  11.363   2.738
71926W        W40155   6.742  31.932   1.695
71927W        W40156   0.962   0.780  10.934
71928W        W40157   1.769  26.947   5.029
71929W        W40158  33.902  29.199   2.706
71930W        W40159  39.159  40.037  12.360
71931W        W40160   1.375  13.667  12.122
71932W        W40161  16.826  15.649  12.035
71933W        W40162  18.266  21.164   1.169
71934W        W40163   4.678  13.142   0.151
71935W        W40164  30.732   8.668   0.925
71936W        W40165  44.914  22.936   2.133
71937W        W40166   8.904   7.129  14.303
71938W        W40167  34.442  11.648  13.006
71939W        W40168  31.387   1.493   0.362
71940W        W40169  30.591  35.407  14.082
71941W        W40170   0.220  16.581  13.791
71942W        W40171  36.367  27.493   4.810
71943W        W40172   3.341   0.879   2.215
71944W        W40173  43.047  10.188   1.521
71945W        W40174  32.631   8.205   1.800
71946W        W40175  21.109   7.960   3.626
71947W        W40176  35.857  14.254   0.339
71948W        W40177  23.414  16.538   3.100
71949W        W40178  35.521  21.790  10.766
71950W        W40179   7.681  43.313   4.445
71951W        W40180   6.776  23.206   0.491
71952W        W40181  30.506  38.049  14.771
71953W        W40182   7.156  28.603  14.965
71954W        W40183   7.889   8.215  12.025
71955W        W40184   5.848  41.918   0.551
71956W        W40185  35.526  28.375  12.337
71957W        W40186   2.833  41.909  13.550
71958W        W40187   6.712  18.967  12.437
71959W        W40188  30.896  36.303   4.819
71960W        W40189  23.145   7.235  13.391
71961W        W40190  16.555  18.906   1.947
71962W        W40191   9.291   0.226   4.715
71963W        W40192  23.717   8.600  13.319
71964W        W40193  13.984  29.233   4.887
71965W        W40194  34.114   9.758   2.216
71966W        W40195   1.949   0.005  14.052
71967W        W40196   2.646  43.868  14.866
71968W        W40197  41.602  22.512  13.072
71969W        W40198  11.050  28.176  12.189
71970W        W40199  16.578  10.317  12.474
71971W        W40200  13.256  44.486  11.240
71972W        W40201   2.843  28.662   4.063
71973W        W40202  29.660  23.577  13.505
71974W        W40203  36.347   0.201   4.368
71975W        W40204   6.762  44.934   4.454
71976W        W40205  44.255   2.827   4.751
71977W        W40206  11.443  18.109  12.395
71978W        W40207  43.803  40.241  11.616
71979W        W40208  26.645   2.579  11.703
71980W        W40209  41.032  12.474  13.424
71981W        W40210   6.667   7.464  12.647
71982W        W40211  25.212  42.640   1.342
71983W        W40212   3.279  29.023  14.946
71984W        W40213  39.474  37.665   1.513
71985W        W40214  11.720  10.128   5.320
71986W        W40215  21.312   0.357   4.642
71987W        W40216  24.454  38.248  10.986
71988W        W40217   0.936  28.192   4.751
71989W        W40218   5.772  20.129   4.571
71990W        W40219  25.638  31.938  13.467
71991W        W40220   1.234   8.625   4.242
71992W        W40221  10.716  31.379   0.823
71993W        W40222   0.069  29.661   1.584
71994W        W40223  13.721  11.772  14.263
71995W        W40224  16.545  42.353  12.480
71996W        W40225  21.630  32.547   2.710
71997W        W40226  24.049  21.710  13.472
71998W        W40227  15.306  21.920   1.400
71999W        W40228   7.899  25.531  13.062
72000W        W40229   3.159  31.437   2.570
72001W        W40230  18.098   5.660   3.098
72002W        W40231  41.039  10.678  10.930
72003W        W40232  40.942  22.131  14.391
72004W        W40233  23.450  37.644   3.575
72005W        W40234   3.733  29.876   4.228
72006W        W40235  20.541  42.462   4.292
72007W        W40236  44.606   3.261  12.892
72008W        W40237   2.850  28.902  11.641
72009W        W40238  22.596   5.031  10.674
72010W        W40239   4.969  23.267  12.510
72011W        W40240   1.548  16.320  12.799
72012W        W40241   8.463  38.356   3.448
72013W        W40242  40.395  31.865  14.723
72014W        W40243   2.863  25.059   0.399
72015W        W40244  32.087  39.440  13.983
72016W        W40245   1.396  28.685   2.353
72017W        W40246  12.117  18.280   3.317
72018W        W40247  28.109  12.272   0.479
72019W        W40248  31.928  22.497   4.104
72020W        W40249   9.393  21.737  14.029
72021W        W40250  32.675  30.021  11.016
72022W        W40251  11.673  33.312   0.678
72023W        W40252  26.123  16.504  14.826
72024W        W40253   8.718  14.609  10.799
72025W        W40254  34.213  23.934   4.042
72026W        W40255  44.718   0.631  14.216
72027W        W40256  31.686  41.855  12.917
72028W        W40257   0.974   4.823  11.492
72029W        W40258  33.606  20.908  11.105
72030W        W40259   3.713   7.760   0.335
72031W        W40260  37.935   3.774   1.789
72032W        W40261  10.840  12.913   5.164
72033W        W40262  26.279   0.492   0.866
72034W        W40263  18.891  31.576   1.795
72035W        W40264  25.227  13.995   5.015
72036W        W40265   8.593  13.309   1.528
72037W        W40266  30.642  17.894   5.053
72038W        W40267  35.904  32.465   1.352
72039W        W40268  36.629  21.072  10.028
72040W        W40269  22.094  19.492   0.545
72041W        W40270  17.047  37.285  12.451
72042W        W40271  36.437  18.750  13.451
72043W        W40272   4.288  23.078   0.763
72044W        W40273  37.185  42.441   2.494
72045W        W40274  27.510  12.841   4.086
72046W        W40275  35.769  11.845   2.380
72047W        W40276  21.028  33.800   2.638
72048W        W40277  19.134  31.873   1.222
72049W        W40278  10.229  42.085  12.562
72050W        W40279   3.675  28.180  13.372
72051W        W40280  13.753  14.781   0.264
72052W        W40281  43.449  42.906  14.434
72053W        W40282  16.109   3.517   2.303
72054W        W40283   1.262  22.487   3.393
72055W        W40284  18.139  32.877   0.943
72056W        W40285  44.580  38.495  13.442
72057W        W40286  21.815  30.975  11.587
72058W        W40287  24.648   5.644  13.307
72059W        W40288  22.140  21.179   2.815
72060W        W40289  15.092  26.403   2.252
72061W        W40290  20.492  27.009  13.100
72062W        W40291  22.156  31.496  13.913
72063W        W40292  35.916   3.180   3.293
72064W        W40293  34.605  16.757  11.545
72065W        W40294   4.174  18.832  13.856
72066W        W40295  16.903  28.850   5.105
72067W        W40296  30.175  28.095   0.714
72068W        W40297  24.604  28.634  13.496
72069W        W40298  33.682  26.427  12.589
72070W        W40299  43.787   4.991   4.050
72071W        W40300  22.541   1.768   4.978
72072W        W40301  43.290  16.298  12.462
72073W        W40302  31.157  21.961  14.389
72074W        W40303  16.020  27.160   0.300
72075W        W40304  15.163  40.264   0.511
72076W        W40305  43.934   4.317  11.554
72077W        W40306  28.895  34.524  13.949
72078W        W40307  29.965  33.712  13.562
72079W        W40308  34.913  10.181   0.453
72080W        W40309  39.773  15.889  13.820
72081W        W40310  44.085  39.158   4.223
72082W        W40311   2.012  28.508   1.168
72083W        W40312  42.954  32.500  11.903
72084W        W40313   9.321  40.237  10.351
72085W        W40314  41.233  24.003   3.641
72086W        W40315  31.916  22.025   2.188
72087W        W40316  41.594  33.885   3.316
72088W        W40317  23.664   3.741   1.305
72089W        W40318  36.765  23.021   4.047
72090W        W40319  43.901  24.953  13.611
72091W        W40320  36.512   4.018  13.872
72092W        W40321  21.661  28.842   1.330
72093W        W40322  25.323  29.131   2.785
72094W        W40323   0.904   0.031  11.476
72095W        W40324  44.875   4.553   4.783
72096W        W40325  28.595  16.151  14.450
72097W        W40326   8.149  33.442  12.442
72098W        W40327  21.576  26.235  10.222
72099W        W40328  26.153  18.499  14.709
72100W        W40329   2.705  35.522   3.259
72101W        W40330  16.301  26.182   0.475
72102W        W40331  14.080  19.098   5.052
72103W        W40332  22.109  35.756  14.572
72104W        W40333   0.812  18.078   0.758
72105W        W40334  16.609   5.423   3.749
72106W        W40335  31.636  28.281  11.942
72107W        W40336  12.628   1.373  10.683
72108W        W40337  35.913   9.638   0.382
72109W        W40338  28.955  28.286   3.186
72110W        W40339  21.246  13.267   2.661
72111W        W40340  19.201   1.257   1.175
72112W        W40341  25.972  19.906   4.576
72113W        W40342   1.983   6.927   2.446
72114W        W40343  42.372   0.554   0.321
72115W        W40344  21.757  18.371  13.469
72116W        W40345   5.507  43.092   4.059
72117W        W40346  39.844  39.611   4.234
72118W        W40347  17.904  21.117   0.773
72119W        W40348  16.292  30.161   0.277
72120W        W40349   2.976  44.046   0.428
72121W        W40350   1.512   3.379  14.482
72122W        W40351  11.804   9.386   1.684
72123W        W40352  38.036  27.442   3.266
72124W        W40353  36.636  38.997  14.289
72125W        W40354   8.059  43.243  10.844
72126W        W40355  39.081  25.936  10.344
72127W        W40356  33.650  31.469  12.791
72128W        W40357  25.937  10.405  14.166
72129W        W40358  13.198   7.336  12.128
72130W        W40359   5.264  10.422   1.300
72131W        W40360  20.628   0.248   3.172
72132W        W40361  36.429  27.584  11.164
72133W        W40362  23.577  16.255   1.808
72134W        W40363  42.852  35.880   1.736
72135W        W40364  33.992  11.279  10.564
72136W        W40365  41.945   1.664  10.704
72137W        W40366  29.473  42.189   3.842
72138W        W40367  32.910  26.785  14.342
72139W        W40368   7.578  36.822   0.769
72140W        W40369   6.819  32.902  14.007
72141W        W40370  44.207  27.992   2.681
72142W        W40371  40.004  23.214   1.246
72143W        W40372   3.396  17.471   1.785
72144W        W40373   7.825   2.997  10.748
72145W        W40374   8.093  25.310   9.873
72146W        W40375  41.402  29.106  14.151
72147W        W40376  10.762  26.818  12.864
72148W        W40377  20.624  40.582  14.733
72149W        W40378   8.223  11.885  11.486
72150W        W40379   6.038  12.906  14.039
72151W        W40380   0.429  21.511  11.801
72152W        W40381  30.390   8.126  13.907
72153W        W40382  35.069  44.507   4.811
72154W        W40383  12.670  42.265   2.135
72155W        W40384  15.965   3.278   2.999
72156W        W40385  42.554  13.810   4.219
72157W        W40386  27.978  16.448  11.619
72158W        W40387   6.008   6.493  12.943
72159W        W40388  28.062  30.717   4.652
72160W        W40389  19.194  28.240  13.351
72161W        W40390  40.236   4.243  11.953
72162W        W40391   5.664  39.254   1.469
72163W        W40392  26.253  11.077  13.394
72164W        W40393   9.628  44.315   0.450
72165W        W40394  34.979  21.528  14.010
72166W        W40395   0.716  13.352  11.104
72167W        W40396  32.423  15.042   9.804
72168W        W40397  32.763  33.672  13.281
72169W        W40398  26.704  30.179  11.056
72170W        W40399   4.735  16.614  11.675
72171W        W40400  44.351   3.249   0.482
72172W        W40401  11.403  42.683   1.242
72173W        W40402  10.393  21.003  11.645
72174W        W40403  40.313   2.029   4.326
72175W        W40404  15.694  42.714   3.635
72176W        W40405  19.249  27.531  13.096
72177W        W40406  41.533  17.273   2.362
72178W        W40407  38.422  22.943  13.031
72179W        W40408  31.259  10.280  10.696
72180W        W40409   6.211  20.488  13.973
72181W        W40410  44.363  26.884  11.876
72182W        W40411  34.311   3.542   1.953
72183W        W40412  29.226   4.253   2.744
72184W        W40413  42.010  11.130   2.400
72185W        W40414  44.983  42.280   4.156
72186W        W40415  37.033  12.126   2.870
72187W        W40416   4.206   1.688  12.586
72188W        W40417  26.996  19.714  11.197
72189W        W40418  28.464   3.737   0.345
72190W        W40419  14.385  44.756  12.055
72191W        W40420  39.365   8.505   2.375
72192W        W40421  24.573  43.794  14.764
72193W        W40422  44.535  23.674   0.433
72194W        W40423  34.909  23.277   2.630
72195W        W40424  25.447  14.364  14.988
72196W        W40425  14.071  19.314  12.946
72197W        W40426   4.468  41.148  14.584
72198W        W40427  36.455  42.319   4.253
72199W        W40428  13.102  40.364  13.139
72200W        W40429  36.446   2.436  12.593
72201W        W40430  15.299  10.785  14.114
72202W        W40431   8.046   6.347   1.199
72203W        W40432  34.683  11.376  11.958
72204W        W40433  36.072  18.377   1.759
72205W        W40434  25.028  36.882   2.238
72206W        W40435  16.809  27.701   5.456
72207W        W40436  24.245  20.093  10.285
72208W        W40437   4.652  29.972   3.251
72209W        W40438  15.167  26.816  13.282
72210W        W40439   2.207  30.523   2.158
72211W        W40440  43.455   0.239  11.980
72212W        W40441  34.069  34.565  14.264
72213W        W40442   9.686  18.627   0.392
72214W        W40443  16.712   7.254   3.489
72215W        W40444  19.129  20.242   1.127
72216W        W40445   4.238  41.325  11.559
72217W        W40446   6.010   5.356  10.187
72218W        W40447  27.201   2.020  10.684
72219W        W40448  18.198  21.809  11.862
72220W        W40449  28.446  20.309   1.178
72221W        W40450  41.778  35.916   2.692
72222W        W40451  28.297   1.073  11.525
72223W        W40452  15.604  28.317   1.278
72224W        W40453  17.145  10.458   4.585
72225W        W40454  44.975  22.051  13.096
72226W        W40455  37.039  17.982   4.165
72227W        W40456  31.767  15.505   5.369
72228W        W40457   5.643  33.602  12.938
72229W        W40458  43.013  20.641  13.412
72230W        W40459  22.341   3.808  11.046
72231W        W40460  20.657   4.279  12.805
72232W        W40461   4.057  43.271  11.624
72233W        W40462  14.533   9.769  10.444
72234W        W40463  28.127   7.982   1.423
72235W        W40464  43.717  33.523   1.330
72236W        W40465  19.655  23.786  12.797
72237W        W40466  32.976  41.540  10.914
72238W        W40467  14.883  10.732   0.876
72239W        W40468  24.799  34.466  12.173
72240W        W40469  27.991  39.801  11.983
72241W        W40470  15.084  30.422  11.986
72242W        W40471  33.150   6.863   0.378
72243W        W40472   7.894  40.831   3.443
72244W        W40473  40.464   3.781  11.913
72245W        W40474  12.620  23.625  11.566
72246W        W40475  36.082  35.453   3.232
72247W        W40476  38.749  33.905   3.802
72248W        W40477   0.855  23.516   0.182
72249W        W40478   2.025  44.517   4.147
72250W        W40479  11.863  18.697  12.946
72251W        W40480  26.233  38.139   1.810
72252W        W40481  31.900  36.298  14.824
72253W        W40482  37.829  43.052   1.849
72254W        W40483   9.323  31.605   1.790
72255W        W40484  29.703  15.200   0.002
72256W        W40485   7.377  16.132  14.498
72257W        W40486   9.863  36.445  10.897
72258W        W40487  36.735  33.944   1.632
72259W        W40488  24.692  26.334   3.699
72260W        W40489  43.943   8.135   3.298
72261W        W40490   4.190  11.140   4.123
72262W        W40491  30.875  21.133  13.986
72263W        W40492  39.486   1.975   3.282
72264W        W40493  23.603  13.132  11.480
72265W        W40494  19.361   1.262   0.691
72266W        W40495  24.519  43.275   4.535
72267W        W40496  13.861   2.156  11.168
72268W        W40497  12.647  12.638   1.322
72269W        W40498  12.432  42.504   1.193
72270W        W40499  25.950   0.525  11.586
72271W        W40500  17.859  21.027  10.832
72272W        W40501  27.006  44.605  13.011
72273W        W40502   0.254  27.065  14.733
72274W        W40503  36.432   6.189  13.514
72275W        W40504  18.740  37.732   3.690
72276W        W40505  29.031  16.595   0.820
72277W        W40506  40.290  29.819   2.089
72278W        W40507   1.715  17.093   4.140
72279W        W40508  41.931  22.720   4.094
72280W        W40509   8.964  18.967   2.896
72281W        W40510  38.113  10.405  13.089
72282W        W40511  10.089  11.218  13.349
72283W        W40512  32.386  27.527  13.069
72284W        W40513  18.682   4.278  12.864
72285W        W40514  16.649  31.464   3.789
72286W        W40515  25.565  33.048   3.633
72287W        W40516  33.742   9.925   0.772
72288W        W40517  15.030  41.737   4.859
72289W        W40518  44.541  35.968  13.900
72290W        W40519  34.414  37.046   3.166
72291W        W40520  24.050   5.079  13.410
72292W        W40521  41.628   3.593  10.976
72293W        W40522  30.999   9.905  14.128
72294W        W40523   5.800   8.566  14.102
72295W        W40524  16.655  38.378   0.914
72296W        W40525  25.772  19.286  12.068
72297W        W40526  38.792  35.767  12.417
72298W        W40527  16.778  40.638   2.263
72299W        W40528  16.135  15.086  12.191
72300W        W40529  29.035  42.579   3.916
72301W        W40530  18.227  34.251  14.259
72302W        W40531  18.794  44.425  11.748
72303W        W40532   8.001   0.374   3.173
72304W        W40533  30.618  28.943  14.444
72305W        W40534   2.487  19.802  12.147
72306W        W40535  36.097  13.332  12.141
72307W        W40536  36.036  17.236   1.831
72308W        W40537  11.360  44.313  14.252
72309W        W40538  40.020  38.053  10.574
72310W        W40539  29.036  16.157   1.869
72311W        W40540  34.877  11.399  11.099
72312W        W40541   5.110  11.859   2.697
72313W        W40542  22.678  38.385   0.958
72314W        W40543  40.787  37.714   3.351
72315W        W40544  26.115  11.162  12.352
72316W        W40545  10.128  29.166  14.481
72317W        W40546   3.016  11.918  14.471
72318W        W40547   5.632  38.002  13.014
72319W        W40548   8.165  25.059   1.367
72320W        W40549  15.705   3.741   0.277
72321W        W40550  17.125  40.399  14.867
72322W        W40551  16.159  20.301   1.167
72323W        W40552  18.784  39.304   2.164
72324W        W40553  21.028  37.604  12.229
72325W        W40554  28.090  38.988   4.039
72326W        W40555  22.553  19.599  10.764
72327W        W40556  37.458  28.685  13.780
72328W        W40557  24.149  26.729  12.121
72329W        W40558  21.020  44.324   0.748
72330W        W40559  10.841  30.007   3.937
72331W        W40560  32.572   3.360   2.310
72332W        W40561   9.909  21.263   0.844
72333W        W40562   9.537   3.272   3.360
72334W        W40563  41.024  28.504   3.625
72335W        W40564   3.961   3.875  10.698
72336W        W40565   2.411  40.424   1.624
72337W        W40566  40.906  21.598  14.499
72338W        W40567   4.758  31.440  12.709
72339W        W40568   6.820  29.876  11.096
72340W        W40569   8.244  22.017  12.579
72341W        W40570   3.710  42.090  10.664
72342W        W40571  27.226   7.125  13.426
72343W        W40572   1.891   5.832   0.715
72344W        W40573   9.600  44.319  12.802
72345W        W40574  17.632   8.760  12.373
72346W        W40575  36.602  35.712   0.362
72347W        W40576  16.115  24.771  14.538
72348W        W40577   2.502  19.817  12.990
72349W        W40578  25.187  24.313   2.303
72350W        W40579  10.122   3.054  14.827
72351W        W40580  17.314  23.653   3.552
72352W        W40581  25.289  16.950  11.757
72353W        W40582  42.556  19.486   3.804
72354W        W40583  15.178  37.317   2.873
72355W        W40584  30.682  15.782  13.588
72356W        W40585  21.619  21.018  13.834
72357W        W40586  39.491  19.008  14.031
72358W        W40587   2.397  12.214  10.590
72359W        W40588  27.731   1.909   2.204
72360W        W40589  22.170   0.092  11.663
72361W        W40590  38.792  16.592  11.569
72362W        W40591  16.531  43.330  14.771
72363W        W40592  27.374  12.861   4.593
72364W        W40593   4.233  26.628   3.473
72365W        W40594   8.898  35.171  12.172
72366W        W40595   5.159  30.676   3.702
72367W        W40596  22.276  14.045   0.467
72368W        W40597  38.416   2.739  12.865
72369W        W40598  34.540  43.268  10.791
72370W        W40599   4.502  33.076  12.888
72371W        W40600  16.425   7.338   4.939
72372W        W40601   3.803  35.822  12.505
72373W        W40602   3.732   3.458  14.934
72374W        W40603  43.397   4.020  10.778
72375W        W40604   4.750   4.706  14.309
72376W        W40605  32.524  33.125   0.168
72377W        W40606  21.157  17.280   0.293
72378W        W40607  43.791   9.270  12.093
72379W        W40608  14.978  22.337   3.737
72380W        W40609   7.636   3.910   3.834
72381W        W40610  35.424   0.763  12.638
72382W        W40611  37.376  39.106   3.242
72383W        W40612   6.021  42.311   3.753
72384W        W40613  14.725   4.946   0.518
72385W        W40614  17.430  36.787   1.328
72386W        W40615  12.789  29.410  13.612
72387W        W40616  23.762  10.889   3.751
72388W        W40617   5.298   7.676   2.738
72389W        W40618  21.541  21.777   4.191
72390W        W40619  35.014  12.290  12.788
72391W        W40620  18.304  12.798  13.337
72392W        W40621  11.701  43.776   3.164
72393W        W40622  39.925  35.839   3.871
72394W        W40623  41.507  40.631  10.833
72395W        W40624  27.532  18.939  14.777
72396W        W40625  28.975  33.800   3.328
72397W        W40626  14.103  16.803  10.686
72398W        W40627  36.408  22.266  12.859
72399W        W40628  35.623   2.105  11.348
72400W        W40629  29.171  15.691  12.468
72401W        W40630  16.958  17.396  12.386
72402W        W40631   3.722   8.656  13.906
72403W        W40632  37.839  17.369  11.148
72404W        W40633  30.532  23.194  13.086
72405W        W40634  26.316  19.624  14.000
72406W        W40635  24.166  31.863  11.718
72407W        W40636  17.286   7.145  11.145
72408W        W40637  41.813  41.500   4.620
72409W        W40638  32.592  22.673   2.678
72410W        W40639  40.908   4.275   3.321
72411W        W40640   0.502  13.282   3.666
72412W        W40641  31.987   4.320   1.928
72413W        W40642  25.486  26.052   4.795
72414W        W40643  11.641  21.006   5.062
72415W        W40644  16.821  12.250  10.591
72416W        W40645  42.159  11.208   3.800
72417W        W40646   8.327  19.165  10.971
72418W        W40647  39.231  27.344  13.931
72419W        W40648  42.653  40.539  13.907
72420W        W40649  31.843  44.028  12.184
72421W        W40650  32.557  16.656  11.570
72422W        W40651  18.096   5.766  13.102
72423W        W40652  36.358  28.098   2.584
72424W        W40653   9.282  30.183   0.822
72425W        W40654  22.187  18.113   1.752
72426W        W40655  10.104  23.134  14.802
72427W        W40656  21.699  25.488   3.775
72428W        W40657   2.910  22.942   1.412
72429W        W40658  14.117  17.698   1.391
72430W        W40659   5.901  36.078   0.858
72431W        W40660   5.956  32.503   1.005
72432W        W40661   8.352  25.278   1.820
72433W        W40662  24.466  10.590  10.283
72434W        W40663   1.575   3.806  14.212
72435W        W40664  41.019   1.882  11.531
72436W        W40665  12.888  15.658  14.999
72437W        W40666  18.909  16.215   4.460
72438W        W40667  14.013   1.881   2.907
72439W        W40668  37.547  30.568  14.924
72440W        W40669  12.174  22.968   2.184
72441W        W40670  12.234   8.209  11.849
72442W        W40671  30.110  20.148  14.641
72443W        W40672  38.305  17.035  14.998
72444W        W40673   0.695  23.451  11.677
72445W        W40674   2.748   5.791   0.810
72446W        W40675  41.376  35.534  12.950
72447W        W40676  16.815  15.787   3.143
72448W        W40677  27.410  21.119   1.453
72449W        W40678  35.850  14.847  13.383
72450W        W40679  41.612  40.005  12.041
72451W        W40680  10.654  36.355   0.257
72452W        W40681   0.234  30.427  14.350
72453W        W40682  29.009   5.701   1.058
72454W        W40683  34.494  26.448   0.759
72455W        W40684  36.035   6.907   3.100
72456W        W40685  10.211  17.569  13.372
72457W        W40686  40.336   1.675   1.846
72458W        W40687  10.704  27.342  11.783
72459W        W40688  31.467  23.945  14.317
72460W        W40689  23.255  42.045   2.291
72461W        W40690  18.295  20.802   0.755
72462W        W40691  39.524  29.086   2.746
72463W        W40692  29.421  26.982   2.195
72464W        W40693  33.810  18.291   2.772
72465W        W40694  29.247  22.019   3.553
72466W        W40695  33.527  25.136   4.021
72467W        W40696  25.274  15.910   4.527
72468W        W40697  15.749  19.653  11.581
72469W        W40698   2.918  17.552   0.421
72470W        W40699   5.289  24.045   0.985
72471W        W40700   7.381  28.193  12.523
72472W        W40701  34.640   0.723   4.129
72473W        W40702   8.010  10.211   3.868
72474W        W40703   5.189  33.174  12.509
72475W        W40704   6.326  38.513  11.616
72476W        W40705  29.641  38.055   3.342
72477W        W40706  12.264   2.984  12.216
72478W        W40707  15.059  40.762   0.418
72479W        W40708  10.791  44.601   0.795
72480W        W40709  13.123  27.397  12.065
72481W        W40710  34.378  15.252  14.458
72482W        W40711  21.614  32.762  10.174
72483W        W40712  30.569  30.475   1.070
72484W        W40713  19.902  37.804  11.798
72485W        W40714  39.046  20.670  13.953
72486W        W40715  19.561   7.022   4.111
72487W        W40716   3.528  40.752   3.698
72488W        W40717  40.305  26.949   3.332
72489W        W40718  16.120  30.515  11.984
72490W        W40719   8.646  40.458  12.060
72491W        W40720  32.869  34.554   3.193
72492W        W40721  11.892  39.717   4.739
72493W        W40722  10.395  26.547   3.259
72494W        W40723   9.259  38.411  11.488
72495W        W40724  34.481   5.153   3.261
72496W        W40725   5.835  41.007   1.954
72497W        W40726  26.545  36.868   3.310
72498W        W40727  12.220  18.102  11.860
72499W        W40728   6.408  18.039  13.033
72500W        W40729   6.926  40.857  14.263
72501W        W40730  34.519  10.162  10.716
72502W        W40731  13.757   4.533   0.753
72503W        W40732  37.482  21.334   0.850
72504W        W40733  26.713   8.209   1.330
72505W        W40734  34.956   3.400   3.625
72506W        W40735  35.962  23.364   1.858
72507W        W40736   3.812  14.699   0.366
72508W        W40737   6.248  30.169   4.842
72509W        W40738  34.801   1.298  12.538
72510W        W40739  24.936  11.378   5.032
72511W        W40740  23.924   7.262  11.115
72512W        W40741  11.162   9.063  11.108
72513W        W40742   5.678  15.782  13.744
72514W        W40743  41.920  16.659   4.271
72515W        W40744  30.129  37.044  10.779
72516W        W40745   9.432  33.439   4.091
72517W        W40746   9.810  27.053  10.664
72518W        W40747  43.989  10.246   3.178
72519W        W40748  43.336  34.264   4.117
72520W        W40749  16.643  31.932  10.533
72521W        W40750   2.273  12.326  14.305
72522W        W40751  41.708  26.479   4.522
72523W        W40752  17.660  18.129  14.035
72524W        W40753  34.040  13.463  10.987
72525W        W40754   4.458  36.356  11.094
72526W        W40755  44.386   0.936  11.895
72527W        W40756  11.147  13.617   1.816
72528W        W40757  10.406  27.753   1.675
72529W        W40758  21.059  26.541  12.827
72530W        W40759  41.273  16.524  13.908
72531W        W40760  40.472  37.501  14.572
72532W        W40761  12.016   8.836   0.044
72533W        W40762  18.061  10.962   3.693
72534W        W40763  42.477  35.356   2.498
72535W        W40764   5.152  44.891   3.610
72536W        W40765  26.356   4.263   0.578
72537W        W40766   8.671  28.601   1.022
72538W        W40767   2.615  16.721  14.784
72539W        W40768  37.981  37.537  13.853
72540W        W40769  14.513  22.476   2.778
72541W        W40770  42.532   6.567   4.168
72542W        W40771  42.988  42.409   4.297
72543W        W40772   3.658  28.129  14.991
72544W        W40773  27.394  26.366   4.765
72545W        W40774   1.909  14.359  13.817
72546W        W40775  16.314   4.056   3.630
72547W        W40776  29.907  43.317  11.652
72548W        W40777   6.914  35.570  14.472
72549W        W40778  19.102  38.327  14.995
72550W        W40779  29.835  13.089   3.299
72551W        W40780   6.161  25.035   1.175
72552W        W40781  27.078  42.738   4.741
72553W        W40782  18.481  36.934   1.800
72554W        W40783  36.856  19.452   2.452
72555W        W40784   1.754  39.414   2.330
72556W        W40785  22.186  18.634   3.357
72557W        W40786  34.013  37.010   1.434
72558W        W40787   4.750  15.624   3.243
72559W        W40788  16.535  17.058   2.945
72560W        W40789   2.165  11.629  10.761
72561W        W40790  14.371  18.357   1.607
72562W        W40791  26.904  21.162  11.858
72563W        W40792  31.100  21.595  13.092
72564W        W40793  42.476  10.206  11.608
72565W        W40794  10.655   1.596  12.381
72566W        W40795  12.783  26.681   3.924
72567W        W40796   9.278  10.023   3.653
72568W        W40797   4.962  15.336   3.655
72569W        W40798  40.437  42.427   4.466
72570W        W40799  31.041  10.516  12.062
72571W        W40800  39.492   5.439   3.431
72572W        W40801  19.663  21.495  12.523
72573W        W40802  40.312  25.523   2.494
72574W        W40803  38.983  21.768  10.689
72575W        W40804  36.602   5.365   1.886
72576W        W40805  11.700  22.867  10.135
72577W        W40806  38.071  21.178  14.714
72578W        W40807   4.053  22.653   1.007
72579W        W40808  26.716  23.169   0.256
72580W        W40809   0.274  13.165   4.104
72581W        W40810   4.383  16.625  11.261
72582W        W40811   1.883  23.958  13.100
72583W        W40812  44.490  37.154   0.298
72584W        W40813  14.950  34.911  12.604
72585W        W40814   2.695   2.391  13.835
72586W        W40815  14.824  29.293  11.296
72587W        W40816  39.292   1.278   4.420
72588W        W40817  41.978   2.215  11.494
72589W        W40818   1.707  33.435  14.460
72590W        W40819  33.472  10.062   0.344
72591W        W40820  44.491  11.125   3.306
72592W        W40821  42.368  25.649  11.539
72593W        W40822  19.769  16.367   4.911
72594W        W40823  40.982  21.961   2.039
72595W        W40824  44.996  41.840   3.329
72596W        W40825  20.880  29.730   0.524
72597W        W40826  23.099  14.858  10.516
72598W        W40827  33.647  17.996   3.182
72599W        W40828   9.326  10.258   4.789
72600W        W40829   9.205  35.720  14.299
72601W        W40830  38.958  32.402  10.306
72602W        W40831   3.963   4.518   3.973
72603W        W40832  16.757  33.038   2.719
72604W        W40833  36.811  11.681   3.079
72605W        W40834  33.428  36.976  12.199
72606W        W40835  36.364  22.786  12.978
72607W        W40836   6.192  25.990   4.244
72608W        W40837  23.635  28.095  10.731
72609W        W40838   8.019  14.516   1.943
72610W        W40839  24.138  20.785  12.166
72611W        W40840  17.132  30.324   2.790
72612W        W40841  29.560  43.217   3.701
72613W        W40842  28.534  25.573  11.541
72614W        W40843  23.398  44.818   1.684
72615W        W40844  12.178   9.221  11.966
72616W        W40845  39.481  19.631   4.265
72617W        W40846  31.086   0.225   3.213
72618W        W40847  23.280  35.112   4.170
72619W        W40848   5.810  43.076   3.139
72620W        W40849   5.223  31.583  10.516
72621W        W40850  32.630  23.929  13.293
72622W        W40851  20.531  33.050   1.457
72623W        W40852  10.683   2.050   3.643
72624W        W40853   7.113  14.291   3.324
72625W        W40854  27.205  30.350   0.197
72626W        W40855  30.527  33.968  14.446
72627W        W40856  21.004  42.925   3.848
72628W        W40857  20.637   3.400  14.434
72629W        W40858  27.543  28.689   4.549
72630W        W40859  33.093  29.087  14.652
72631W        W40860  20.229  20.946  11.883
72632W        W40861  18.202  16.158  12.204
72633W        W40862  10.151   0.023   0.690
72634W        W40863   0.367  23.563   3.149
72635W        W40864  21.037  20.675   4.578
72636W        W40865  31.127  42.926  11.955
72637W        W40866   3.346  15.474  12.508
72638W        W40867  43.613  38.442   4.478
72639W        W40868  32.835  26.688   4.321
72640W        W40869   2.774   2.481  12.089
72641W        W40870  39.785  27.443  13.986
72642W        W40871  11.209  29.997   0.358
72643W        W40872  43.040  31.600   0.824
72644W        W40873  24.634  19.181  10.783
72645W        W40874  27.880  25.570  14.487
72646W        W40875   0.408  22.188   2.748
72647W        W40876   7.877  21.423  14.628
72648W        W40877  34.871  33.034  12.097
72649W        W40878  36.523  15.315  11.377
72650W        W40879  33.222  15.269  12.153
72651W        W40880  30.979  37.426  12.820
72652W        W40881   4.715  14.689   3.112
72653W        W40882   4.544  44.316  11.952
72654W        W40883  32.042  13.830  12.516
72655W        W40884   2.364  22.048  11.495
72656W        W40885  20.641   4.939   3.233
72657W        W40886  30.682  19.047  11.993
72658W        W40887  42.054  24.584   3.436
72659W        W40888  22.464  15.633   1.730
72660W        W40889   3.008  37.886   5.159
72661W        W40890  33.915  27.018   0.211
72662W        W40891  28.704  27.080   4.302
72663W        W40892  13.477  13.042  13.523
72664W        W40893  23.466  30.092   0.738
72665W        W40894  31.564  19.366   4.603
72666W        W40895  44.407  28.365  12.120
72667W        W40896  36.442   6.158  10.991
72668W        W40897  23.536  21.504  13.457
72669W        W40898   0.927  20.982   4.178
72670W        W40899  36.736  38.981  12.397
72671W        W40900   6.021   9.633   1.777
72672W        W40901  22.314  17.051  10.474
72673W        W40902  32.434  30.415   4.411
72674W        W40903  29.384  29.542  11.778
72675W        W40904   9.862  10.628   0.951
72676W        W40905  39.399  44.226   3.429
72677W        W40906  24.972   9.785   1.087
72678W        W40907  16.506  30.489   2.377
72679W        W40908  39.584  30.381  13.822
72680W        W40909  23.465  42.327   1.808
72681W        W40910  27.413   8.691  12.644
72682W        W40911  40.991   9.733  12.652
72683W        W40912  38.865  22.069  12.949
72684W        W40913  14.985   3.385   3.731
72685W        W40914   2.782   2.002   1.051
72686W        W40915   5.915  37.409  10.357
72687W        W40916   4.681  38.129  14.230
72688W        W40917  24.134  20.319   4.380
72689W        W40918  29.566  33.464  10.405
72690W        W40919  23.461  40.482   3.147
72691W        W40920   5.149  16.286   3.651
72692W        W40921  35.845  21.499  13.863
72693W        W40922   1.881  37.420   4.133
72694W        W40923  29.133  26.587   0.684
72695W        W40924   4.366   5.337   4.470
72696W        W40925  11.555   8.761   2.702
72697W        W40926   8.299  23.170  11.255
72698W        W40927  37.068   7.366  11.728
72699W        W40928  25.206  18.317   3.444
72700W        W40929  32.551   6.242  10.866
72701W        W40930  29.016  33.987  13.240
72702W        W40931  13.380  36.792  12.217
72703W        W40932   7.422  44.283   0.781
72704W        W40933  25.466  20.057   4.546
72705W        W40934  36.905   3.925  10.940
72706W        W40935  21.194  10.577   4.101
72707W        W40936  10.550  27.692   2.166
72708W        W40937  17.338  10.545   0.331
72709W        W40938  41.725  26.252  11.123
72710W        W40939   5.807  43.086  12.129
72711W        W40940  32.885  18.171   4.852
72712W        W40941  17.448  35.777  11.377
72713W        W40942  33.728  19.467  11.106
72714W        W40943   0.548   0.511  13.948
72715W        W40944  15.999  13.998  12.905
72716W        W40945  30.096   1.771   3.806
72717W        W40946  15.591  19.720  13.989
72718W        W40947  40.841   3.680   2.218
72719W        W40948  40.594  15.532   2.208
72720W        W40949  26.465  42.384  10.778
72721W        W40950  28.788  18.156   1.866
72722W        W40951  16.647  18.258  14.263
72723W        W40952   5.743  39.266  10.430
72724W        W40953  11.797  35.098  10.319
72725W        W40954   9.428  26.140  11.702
72726W        W40955  41.786   7.883   2.890
72727W        W40956  20.031   3.360   0.470
72728W        W40957   7.243  41.050   0.715
72729W        W40958  12.393   4.618  12.915
72730W        W40959  44.827  34.088  12.950
72731W        W40960  11.412  30.134  14.798
72732W        W40961  22.599  23.696   2.422
72733W        W40962  44.069  28.554  10.717
72734W        W40963  24.034  32.640   2.278
72735W        W40964  13.562   5.698  11.476
72736W        W40965  16.599   7.321   2.484
72737W        W40966  19.239  16.803  12.933
72738W        W40967  24.843  31.361   0.931
72739W        W40968  10.730  20.472  11.134
72740W        W40969  12.029  21.221   4.200
72741W        W40970  22.703  37.253  11.106
72742W        W40971   2.699   5.761  12.080
72743W        W40972  18.492  38.475   0.777
72744W        W40973  41.753  14.821  13.492
72745W        W40974  25.002  25.998  11.170
72746W        W40975  16.171  39.579   1.880
72747W        W40976  23.047  20.329   4.084
72748W        W40977   8.845  33.910   3.725
72749W        W40978   8.334   7.766  13.356
72750W        W40979  44.513  34.693  11.570
72751W        W40980   0.997  16.818   3.157
72752W        W40981  24.899  19.175   4.620
72753W        W40982  30.614  21.649  11.650
72754W        W40983  18.228  22.775   0.303
72755W        W40984  28.836   9.455   3.235
72756W        W40985  23.768  23.515  12.496
72757W        W40986  43.436  29.059  12.945
72758W        W40987  24.460  20.172   1.873
72759W        W40988  19.030  23.090   5.020
72760W        W40989  39.227  40.665   0.115
72761W        W40990  25.651  22.021   1.362
72762W        W40991   7.266  20.556  11.960
72763W        W40992  16.071  25.580   2.648
72764W        W40993   9.257   1.754  12.102
72765W        W40994  40.155  23.557   3.359
72766W        W40995  19.308  20.104  13.350
72767W        W40996  40.857  43.591  14.063
72768W        W40997  36.851  10.752  12.644
72769W        W40998  14.746  29.581  12.643
72770W        W40999   8.367  14.734  12.059
72771W        W41000  20.282  29.886   3.820
72772W        W41001  20.475  11.678   2.432
72773W        W41002  29.342  44.408  14.309
72774W        W41003  17.107  34.440   3.187
72775W        W41004  34.609  18.325   3.291
72776W        W41005   4.316  11.594  13.005
72777W        W41006  41.489  34.771  13.450
72778W        W41007  12.288  41.442  12.148
72779W        W41008   1.669   8.054  13.824
72780W        W41009  11.808  27.200   1.257
72781W        W41010  27.896   5.205   1.952
72782W        W41011  22.248  12.739   4.386
72783W        W41012  42.127   7.628  14.774
72784W        W41013  21.723  44.041  14.466
72785W        W41014   7.891  43.406   0.328
72786W        W41015  12.597  36.048   0.032
72787W        W41016  22.993  23.247   4.118
72788W        W41017  17.523   4.293   1.253
72789W        W41018  18.322  16.217  10.691
72790W        W41019   5.864   8.241  13.674
72791W        W41020  26.177  11.706   0.951
72792W        W41021  17.049  28.452   3.827
72793W        W41022  39.043  44.922   0.328
72794W        W41023   1.276   1.233   1.827
72795W        W41024   0.800  16.812   4.060
72796W        W41025  15.121  30.099   0.353
72797W        W41026   9.774   9.388   2.790
72798W        W41027  32.302  40.748   0.314
72799W        W41028   6.714  43.039   3.257
72800W        W41029  25.954   2.361   4.414
72801W        W41030  26.543  21.503   0.992
72802W        W41031  34.545  41.329   4.728
72803W        W41032   0.471  34.225  11.719
72804W        W41033  36.525  17.515  12.866
72805W        W41034   2.883   0.388   3.614
72806W        W41035   7.876   4.855   2.905
72807W        W41036  36.117   3.799  11.376
72808W        W41037   9.089   6.277   0.123
72809W        W41038  38.603   3.819   2.733
72810W        W41039   6.788  18.695   2.341
72811W        W41040  44.558  21.542  12.159
72812W        W41041  39.797  30.582   1.709
72813W        W41042  16.690   4.584   4.198
72814W        W41043  21.214  20.977   0.950
72815W        W41044  29.405  31.361  13.406
72816W        W41045  35.899  31.092   0.243
72817W        W41046  34.256  21.694   4.780
72818W        W41047   6.656  14.465   3.130
72819W        W41048  17.599  13.376   1.917
72820W        W41049  35.924  21.572   2.759
72821W        W41050  35.606  40.886   2.197
72822W        W41051  27.594  38.634  13.378
72823W        W41052  14.161  21.427   1.798
72824W        W41053  42.406   8.804   2.363
72825W        W41054  25.923   3.959   4.961
72826W        W41055  16.353   6.395   4.128
72827W        W41056  15.741  27.567   0.158
72828W        W41057  25.780  17.068  14.305
72829W        W41058  39.641  38.300   0.950
72830W        W41059  39.088  29.013  11.128
72831W        W41060  18.691   4.327  12.364
72832W        W41061  33.541  10.466   9.946
72833W        W41062   8.996  28.102   1.731
72834W        W41063  22.551  12.461   3.558
72835W        W41064  27.033  21.191  11.378
72836W        W41065  38.303   1.421   1.678
72837W        W41066   9.692   5.888  12.479
72838W        W41067  21.029  20.039   2.882
72839W        W41068  25.453  40.254   4.336
72840W        W41069  22.097  15.779  12.581
72841W        W41070   9.850  21.788   2.703
72842W        W41071  36.881  33.143   2.230
72843W        W41072  38.480  44.030   0.298
72844W        W41073   2.580  22.373   9.946
72845W        W41074  14.004   5.010   2.820
72846W        W41075  33.473  29.887  12.031
72847W        W41076  26.673  30.880  13.579
72848W        W41077   7.748  27.250  13.826
72849W        W41078   4.175  29.581   4.096
72850W        W41079   5.370  10.438  12.036
72851W        W41080  39.963  38.376   1.459
72852W        W41081  35.101   9.058  11.999
72853W        W41082  43.026  44.891   2.821
72854W        W41083  41.472  21.539  10.724
72855W        W41084  19.355  43.559  11.176
72856W        W41085  35.499  44.580   3.506
72857W        W41086  26.978  21.567   3.685
72858W        W41087  18.362  19.191   4.262
72859W        W41088  16.520  38.031  10.735
72860W        W41089  41.039  27.877  12.951
72861W        W41090  16.697  17.196   1.385
72862W        W41091  31.483   6.878  13.941
72863W        W41092   1.277  36.954   1.121
72864W        W41093  31.507  23.405   1.814
72865W        W41094  39.978  10.719   0.289
72866W        W41095   5.670  33.875   0.930
72867W        W41096  20.447  40.564  12.597
72868W        W41097  23.514  33.958   9.659
72869W        W41098  37.890  15.303   4.733
72870W        W41099  17.169   4.346  12.489
72871W        W41100   7.585  24.698   4.624
72872W        W41101  35.339  26.641  14.895
72873W        W41102  10.123  38.347  13.031
72874W        W41103  36.046  24.629  14.833
72875W        W41104  17.762  21.601  11.630
72876W        W41105   2.751   3.833  12.099
72877W        W41106  16.751  32.828  13.952
72878W        W41107  22.498  29.464   4.716
72879W        W41108  16.244  25.280   1.870
72880W        W41109  12.435  35.419   4.066
72881W        W41110  12.848  20.090   2.366
72882W        W41111   8.448  35.994  12.467
72883W        W41112  16.620  39.019  12.577
72884W        W41113   9.393  13.521   1.965
72885W        W41114  17.553  31.123   3.841
72886W        W41115  42.263   0.512   4.308
72887W        W41116  43.117  43.866   3.641
72888W        W41117  35.843   2.429  14.501
72889W        W41118  26.164  23.111  12.110
72890W        W41119  40.447  11.880   2.820
72891W        W41120  44.261  10.817  14.664
72892W        W41121  10.226  20.794  12.913
72893W        W41122  22.128  36.860   1.827
72894W        W41123  26.621  22.408   0.973
72895W        W41124  17.961  32.350   0.303
72896W        W41125  35.564   0.826   1.899
72897W        W41126  41.053  42.282   0.653
72898W        W41127  15.748   2.836   4.873
72899W        W41128  42.004  20.315   2.674
72900W        W41129   1.201  21.281   2.618
72901W        W41130  15.743  29.580   3.111
72902W        W41131  18.168  30.970   3.130
72903W        W41132  34.566  21.498  14.774
72904W        W41133  24.694  37.385   3.728
72905W        W41134  32.961   2.906  12.382
72906W        W41135  19.124  36.675  13.608
72907W        W41136  31.271  19.792   4.572
72908W        W41137   1.725   2.305   1.031
72909W        W41138  11.256  42.198   4.479
72910W        W41139   2.931  16.430  11.138
72911W        W41140  40.852   7.706  12.104
72912W        W41141  32.975  35.089   1.303
72913W        W41142  11.664  39.856   0.477
72914W        W41143  32.625  19.941   3.454
72915W        W41144  12.381  41.491  12.657
72916W        W41145  30.953   5.227   4.227
72917W        W41146  10.597  26.979  13.325
72918W        W41147  25.704  19.028   3.718
72919W        W41148  24.131  32.952  11.714
72920W        W41149   9.296  18.530  11.978
72921W        W41150  12.240  36.563   1.261
72922W        W41151  23.451  15.810  12.603
72923W        W41152  19.048  35.334  14.546
72924W        W41153  16.596  37.141   2.635
72925W        W41154  19.136  32.654  14.903
72926W        W41155   2.275  11.369   1.720
72927W        W41156  36.453  19.236   1.908
72928W        W41157  22.429   3.452   3.375
72929W        W41158  24.220  17.342  10.497
72930W        W41159  17.935  42.314   3.164
72931W        W41160   7.467  25.076  13.065
72932W        W41161  14.733  17.148   1.788
72933W        W41162  34.295  17.838  13.424
72934W        W41163  21.296  41.016   4.578
72935W        W41164  15.050  33.449   0.785
72936W        W41165  25.113   2.665  11.011
72937W        W41166   5.200  37.366  14.048
72938W        W41167  26.039   7.389  13.939
72939W        W41168  32.198  36.974   0.989
72940W        W41169  28.955   4.237  10.639
72941W        W41170  20.013  20.904   4.005
72942W        W41171  22.020  31.945  11.613
72943W        W41172  27.067  40.584  12.069
72944W        W41173  25.513  33.043  10.592
72945W        W41174  39.798  37.797   0.199
72946W        W41175  35.933  35.751   3.651
72947W        W41176  22.045  38.145   4.286
72948W        W41177  40.323   5.669   2.374
72949W        W41178   2.551   2.710   3.718
72950W        W41179   8.957   8.331   0.668
72951W        W41180  24.211  13.057   3.625
72952W        W41181   5.432  39.070  14.386
72953W        W41182  23.233  13.201  11.095
72954W        W41183  39.334  21.436   4.648
72955W        W41184  28.660  44.501  10.600
72956W        W41185   7.765  40.324   4.625
72957W        W41186  25.151  40.134   3.296
72958W        W41187  44.288  44.292  12.066
72959W        W41188  35.557  30.372   3.714
72960W        W41189  21.560  33.946  10.697
72961W        W41190  34.249  43.963   0.086
72962W        W41191  36.337  44.876  11.091
72963W        W41192   2.132  16.945  13.357
72964W        W41193  24.695  23.067   2.500
72965W        W41194  18.340   7.278  11.872
72966W        W41195   8.089   1.384  14.896
72967W        W41196  41.293  25.968  14.414
72968W        W41197  33.907  26.279   3.760
72969W        W41198  36.497  19.835   0.913
72970W        W41199  29.356  29.074   4.040
72971W        W41200  27.774  36.906  11.502
72972W        W41201   5.547   4.427  13.095
72973W        W41202  22.987  23.225  13.411
72974W        W41203  16.108  29.550   3.920
72975W        W41204  11.959   0.715  12.464
72976W        W41205   5.804   4.510  12.166
72977W        W41206  41.930   5.434   1.176
72978W        W41207  20.790   7.334   4.345
72979W        W41208  25.940  10.142   0.342
72980W        W41209  25.874  25.262  12.610
72981W        W41210   4.336  25.447  14.858
72982W        W41211  34.658  44.339   3.128
72983W        W41212  44.297  33.132  11.522
72984W        W41213  38.848  16.325  14.799
72985W        W41214  18.829  19.931  12.383
72986W        W41215  31.897   2.420   3.238
72987W        W41216  29.620  33.472  10.922
72988W        W41217   5.135   4.740  13.956
72989W        W41218  19.602   8.264  13.909
72990W        W41219  44.371  15.694   1.909
72991W        W41220  34.335   9.405   1.878
72992W        W41221  36.324  12.685  11.017
72993W        W41222   9.095  42.460  10.706
72994W        W41223  13.815  40.006  11.125
72995W        W41224  15.601  20.590  11.990
72996W        W41225  42.431  25.076   4.795
72997W        W41226  28.242  35.166   5.358
72998W        W41227  27.141   6.272  10.452
72999W        W41228   9.914   5.333  14.451
73000W        W41229  28.714   5.660  11.686
73001W        W41230   0.039  16.155  12.909
73002W        W41231   9.474  20.033  10.742
73003W        W41232  33.869  37.144   3.392
73004W        W41233   9.402  35.086   4.589
73005W        W41234  17.562  30.452   0.236
73006W        W41235  32.804  20.306  10.507
73007W        W41236  32.331  41.293   0.276
73008W        W41237  20.006  18.819  10.971
73009W        W41238  37.519  44.941  11.034
73010W        W41239  11.861   4.855   1.594
73011W        W41240  10.134  33.071   0.865
73012W        W41241  19.149  37.101   2.874
73013W        W41242  13.775   2.430   0.855
73014W        W41243   8.210  23.955   4.678
73015W        W41244   8.427  39.542  11.319
73016W        W41245  26.914   3.344  14.031
73017W        W41246  40.311  25.924  12.391
73018W        W41247  41.622  30.839  12.898
73019W        W41248  28.464  13.338  10.629
73020W        W41249  41.302  20.188   2.394
73021W        W41250  20.843  21.628   0.942
73022W        W41251  32.389   3.663   3.764
73023W        W41252  42.746  31.049   3.330
73024W        W41253  41.396   8.747   4.118
73025W        W41254  32.609   9.726   0.049
73026W        W41255  33.545  16.184  11.541
73027W        W41256  40.958  22.493   2.961
73028W        W41257  11.422  23.601  14.380
73029W        W41258  39.486  22.993  14.480
73030W        W41259  22.928  36.302  14.519
73031W        W41260   7.326  19.976   3.771
73032W        W41261  30.684  29.977   2.869
73033W        W41262  21.915   9.055  13.527
73034W        W41263  41.194  22.110   2.693
73035W        W41264  34.662  21.515  12.414
73036W        W41265  14.888  23.758  14.884
73037W        W41266  38.584  24.654  10.984
73038W        W41267  15.024  14.601   2.626
73039W        W41268  22.624  41.434   1.254
73040W        W41269   8.248  30.036   5.002
73041W        W41270  35.877  36.531  12.881
73042W        W41271  13.232  29.801  10.860
73043W        W41272  29.408  42.310  10.731
73044W        W41273  12.245  17.181   0.894
73045W        W41274  42.679  32.559   0.336
73046W        W41275  22.242   1.499  11.595
73047W        W41276   7.181  22.651   3.022
73048W        W41277  10.794  42.051   4.223
73049W        W41278   8.490  12.957   3.336
73050W        W41279  21.718  10.226   0.494
73051W        W41280  20.009  13.372   2.323
73052W        W41281  15.805   7.243  10.386
73053W        W41282  12.752   1.569  14.781
73054W        W41283  12.103  33.611   4.213
73055W        W41284   8.250  28.625  13.871
73056W        W41285   0.515   0.784  13.505
73057W        W41286  25.786   9.451  11.944
73058W        W41287  25.499  20.575  13.888
73059W        W41288  27.666  30.890   1.799
73060W        W41289   0.997   8.698  12.038
73061W        W41290   7.681  37.248   4.840
73062W        W41291  19.000   2.272   3.710
73063W        W41292  37.488   6.889   3.145
73064W        W41293  12.184  35.559  11.198
73065W        W41294  27.914  35.413  11.084
73066W        W41295  42.802   2.756   3.625
73067W        W41296  31.567  17.968   1.154
73068W        W41297   6.624   4.474   2.670
73069W        W41298   8.311   0.831   4.025
73070W        W41299  10.321   8.852  12.056
73071W        W41300   1.413   5.897   0.487
73072W        W41301  32.084  17.786   3.761
73073W        W41302   9.257  20.698  13.965
73074W        W41303  13.251  20.164   2.057
73075W        W41304  25.545  44.180   4.103
73076W        W41305   4.859  14.226  11.942
73077W        W41306  12.834  19.648   3.760
73078W        W41307  19.005  37.454   3.266
73079W        W41308   5.228  19.657  11.359
73080W        W41309  35.854  26.679  13.073
73081W        W41310  30.358  10.673   3.232
73082W        W41311   4.381  33.689  12.332
73083W        W41312   0.946   8.264   4.530
73084W        W41313  43.907   5.738  13.773
73085W        W41314  43.463  16.884  13.926
73086W        W41315   7.931  20.466  10.419
73087W        W41316  12.011  11.635  14.839
73088W        W41317  30.668  22.660   3.897
73089W        W41318  30.166  43.906   0.431
73090W        W41319  17.297  31.638  12.842
73091W        W41320  35.125  38.423   2.317
73092W        W41321  37.108  22.120  11.478
73093W        W41322  16.740  43.229  14.286
73094W        W41323   5.159  30.433  11.636
73095W        W41324   6.128  29.398   2.876
73096W        W41325   1.431  34.091   2.563
73097W        W41326  44.389  37.465   3.106
73098W        W41327  12.173  10.860  12.511
73099W        W41328  29.541  15.127  12.410
73100W        W41329  33.895  41.288  12.049
73101W        W41330  42.794  42.063  10.982
73102W        W41331  44.710  23.107   4.628
73103W        W41332  43.089  18.809   0.526
73104W        W41333   4.967  36.410   5.231
73105W        W41334  21.009  41.715  10.225
73106W        W41335   1.756  15.459   4.045
73107W        W41336  29.571  41.316  13.867
73108W        W41337  11.489  38.980   0.089
73109W        W41338   6.080  37.492  14.132
73110W        W41339  33.586   1.549   1.751
73111W        W41340  29.451  41.457   1.273
73112W        W41341  44.735  25.594   2.216
73113W        W41342  41.887   8.154  14.423
73114W        W41343  18.697   0.477  12.858
73115W        W41344  35.555  13.293   3.293
73116W        W41345  19.187  23.037  13.235
73117W        W41346  34.873  30.949   1.808
73118W        W41347  40.536  40.860  13.738
73119W        W41348  21.713  30.191   3.316
73120W        W41349  34.828  11.091   3.747
73121W        W41350   8.717  20.521   3.737
73122W        W41351  36.321  24.157  11.112
73123W        W41352  21.540  10.832  14.451
73124W        W41353  28.952  13.148  12.823
73125W        W41354  44.332  10.755   2.960
73126W        W41355  19.702  42.940   4.490
73127W        W41356  28.242  14.969  11.185
73128W        W41357  35.879  22.314  11.198
73129W        W41358   0.393  30.408  13.852
73130W        W41359  39.566   8.043   2.256
73131W        W41360  20.249  22.636  11.208
73132W        W41361  22.524  34.960   4.509
73133W        W41362  26.055  32.569   5.516
73134W        W41363  17.328  27.581   3.166
73135W        W41364   8.203  41.554   0.264
73136W        W41365  23.560  37.958  12.544
73137W        W41366  37.704  20.110   4.592
73138W        W41367  34.441  41.857  10.652
73139W        W41368   4.370  38.842  11.723
73140W        W41369  39.429  34.675   1.718
73141W        W41370   4.856  10.175  14.938
73142W        W41371  18.790  31.451   2.892
73143W        W41372  28.517  17.351   2.781
73144W        W41373  41.628  21.003   1.897
73145W        W41374   9.621  43.779  11.167
73146W        W41375   4.384   4.386   4.358
73147W        W41376   3.803  30.969  11.361
73148W        W41377  25.425  35.441   2.643
73149W        W41378  43.302  41.587  11.615
73150W        W41379  43.434  31.964  10.848
73151W        W41380  15.607  16.281  14.828
73152W        W41381  27.116   1.348  13.597
73153W        W41382  42.778  39.390  12.450
73154W        W41383  28.149   2.987   1.398
73155W        W41384  19.242  11.456   1.749
73156W        W41385  20.981   1.822   1.306
73157W        W41386  25.967  37.190   0.408
73158W        W41387  23.706  41.912  14.727
73159W        W41388   7.824  16.626   0.697
73160W        W41389  33.647  14.847  13.432
73161W        W41390   4.046   4.376  13.932
73162W        W41391   6.123  42.792   5.049
73163W        W41392   7.021  38.005  14.798
73164W        W41393  18.111  21.114  12.603
73165W        W41394  16.204  16.165   0.567
73166W        W41395  43.775   4.099  11.989
73167W        W41396   6.688  16.220   4.272
73168W        W41397  39.455  33.850   1.240
73169W        W41398  33.159  31.031   4.531
73170W        W41399  22.953  34.025  10.950
73171W        W41400  20.551  33.192  11.650
73172W        W41401   7.854  36.601  11.449
73173W        W41402  14.562  29.622   0.837
73174W        W41403  25.003  20.066   4.248
73175W        W41404  19.025  40.966  10.677
73176W        W41405  36.978   1.186  13.829
73177W        W41406   1.601   4.250   4.439
73178W        W41407  15.092   2.676   2.274
73179W        W41408   6.709  14.724   3.556
73180W        W41409  43.080  25.554   1.268
73181W        W41410  40.953  44.020   1.932
73182W        W41411  12.630  28.057   2.936
73183W        W41412  27.241  13.286  11.992
73184W        W41413  30.605  12.906   2.077
73185W        W41414  39.054  40.675   9.915
73186W        W41415  37.853  31.342  13.784
73187W        W41416  39.264  14.128   3.253
73188W        W41417   3.228  20.725   3.868
73189W        W41418  17.265  23.578  14.839
73190W        W41419  16.118  17.804  14.919
73191W        W41420  32.355  11.347   4.634
73192W        W41421  20.675  40.097  12.580
73193W        W41422  12.445   4.749   3.765
73194W        W41423   4.803   5.769   0.293
73195W        W41424  27.574  29.166  10.627
73196W        W41425  23.265   4.839  13.604
73197W        W41426  35.954  34.652   4.611
73198W        W41427  34.563  24.516  10.628
73199W        W41428  31.485  13.243   0.209
73200W        W41429  38.516  19.728   1.930
73201W        W41430  39.296  19.666   3.802
73202W        W41431  21.950   3.841   2.623
73203W        W41432  14.966  18.542   5.179
73204W        W41433  12.642  11.927   0.398
73205W        W41434  19.760  43.873   1.866
73206W        W41435   1.297   9.349  13.079
73207W        W41436  27.543  32.130  14.177
73208W        W41437   7.946  36.006   0.356
73209W        W41438  38.572  30.501   0.984
73210W        W41439  31.153   6.202  11.440
73211W        W41440  13.880   8.914  13.057
73212W        W41441   5.996  28.546  10.745
73213W        W41442  10.499  43.606   5.309
73214W        W41443  23.182  32.700   1.412
73215W        W41444  10.945  28.965  14.040
73216W        W41445  32.877  22.713   0.398
73217W        W41446   9.861   1.076  12.300
73218W        W41447  21.054  16.387   0.132
73219W        W41448  32.310  32.508  12.982
73220W        W41449  26.743   5.272  14.274
73221W        W41450  34.405  25.908  13.767
73222W        W41451  14.849   7.804  11.482
73223W        W41452  15.612  19.080  14.446
73224W        W41453  34.890  34.925  12.618
73225W        W41454  44.562  14.140   1.807
73226W        W41455  41.594  12.705   3.757
73227W        W41456  14.806   0.463  11.144
73228W        W41457  11.860  24.381   3.288
73229W        W41458  16.375  36.629  13.914
73230W        W41459  15.842  41.035  11.213
73231W        W41460  16.126  24.745   3.077
73232W        W41461  36.007  19.442   0.673
73233W        W41462  28.427  29.636  14.857
73234W        W41463  22.204  40.911   4.506
73235W        W41464  25.094  10.951   0.999
73236W        W41465   9.252   5.623  12.483
73237W        W41466  28.941  38.982   3.710
73238W        W41467   4.794  24.252   2.763
73239W        W41468  24.200  34.267  12.812
73240W        W41469  35.589  42.013   3.739
73241W        W41470  20.762  42.303  10.995
73242W        W41471  37.166  21.484   2.280
73243W        W41472  31.100   4.729   3.523
73244W        W41473   1.315  30.910  10.686
73245W        W41474  25.503   9.870  11.903
73246W        W41475  11.270   2.943   2.747
73247W        W41476   5.647  18.129  11.965
73248W        W41477  36.835  44.447   0.480
73249W        W41478  17.865  31.689   5.144
73250W        W41479  17.318  17.539  14.774
73251W        W41480  21.704  29.582   1.666
73252W        W41481  15.255   2.385   0.266
73253W        W41482  31.374  15.795  11.115
73254W        W41483  33.421  29.374   4.486
73255W        W41484  41.869  21.754   3.070
73256W        W41485  20.821  29.010   2.465
73257W        W41486   7.347  29.461   2.926
73258W        W41487  34.996  29.057   1.163
73259W        W41488  29.022  14.768   3.260
73260W        W41489  11.636  25.914   4.450
73261W        W41490  39.534   5.641  12.901
73262W        W41491  21.621  12.109   3.791
73263W        W41492  38.953  20.829  13.420
73264W        W41493  10.481  10.615  11.469
73265W        W41494  24.201  44.881   1.290
73266W        W41495  35.426  36.148   1.891
73267W        W41496  26.302   9.779   4.529
73268W        W41497  36.107  27.290   0.385
73269W        W41498  39.360   2.353  14.107
73270W        W41499   7.153  28.638  11.157
73271W        W41500  30.870  43.276  12.262
73272W        W41501  35.013  40.978  13.558
73273W        W41502   6.532  11.547  12.925
73274W        W41503  37.207  28.166   1.343
73275W        W41504  44.455  25.099   3.682
73276W        W41505  12.645  29.534  11.214
73277W        W41506  38.998  10.713  10.996
73278W        W41507  17.095  19.817  14.024
73279W        W41508  39.024  28.446   2.626
73280W        W41509  27.125  11.304  12.330
73281W        W41510  20.152  29.031  10.266
73282W        W41511  14.396  28.507   0.017
73283W        W41512  18.088   0.451   0.289
73284W        W41513  15.547  31.145  11.602
73285W        W41514  38.773  11.467   4.629
73286W        W41515  23.268  27.050   2.858
73287W        W41516  39.957  32.234   1.435
73288W        W41517  26.674  37.071   0.933
73289W        W41518   1.468  25.000  11.061
73290W        W41519  22.705   3.343  10.162
73291W        W41520  20.060  36.568  12.925
73292W        W41521  44.774  26.986   3.281
73293W        W41522  11.972   7.569   3.815
73294W        W41523   3.681  40.314  11.880
73295W        W41524  38.315  31.190  13.985
73296W        W41525  16.593  10.781   1.680
73297W        W41526   5.970  36.956   2.635
73298W        W41527  16.215  39.349  11.494
73299W        W41528  21.042  19.485   3.743
73300W        W41529  16.089  33.286  13.249
73301W        W41530  28.137  35.586   1.936
73302W        W41531   2.810  18.288   4.755
73303W        W41532  21.699  30.085   0.356
73304W        W41533  23.488   0.820  14.811
73305W        W41534  11.970   0.427   4.627
73306W        W41535  11.148  35.885  14.482
73307W        W41536   2.178  23.179   0.738
73308W        W41537  28.738   9.641   1.226
73309W        W41538  15.268   4.938  11.351
73310W        W41539  25.033  18.684   0.185
73311W        W41540   4.283  22.258  12.475
73312W        W41541  35.979  19.703  11.183
73313W        W41542   2.843   3.881  10.926
73314W        W41543   9.365  29.951   1.867
73315W        W41544  38.413   4.675   3.962
73316W        W41545  23.975  43.260   3.343
73317W        W41546   1.519   8.233   2.784
73318W        W41547   6.382  30.083  10.542
73319W        W41548  16.827   2.824  12.035
73320W        W41549  43.234  34.630   1.604
73321W        W41550  16.489  15.703  11.650
73322W        W41551  32.954  40.884   2.290
73323W        W41552  11.586  39.945   3.229
73324W        W41553  38.031   8.390   2.692
73325W        W41554   1.182   5.450   2.148
73326W        W41555  14.696  16.351   0.494
73327W        W41556  15.699  39.885   0.980
73328W        W41557   6.977  19.240   1.883
73329W        W41558   0.517  24.450  14.763
73330W        W41559  28.064  22.036  12.460
73331W        W41560  42.537  10.235  14.763
73332W        W41561   0.794  20.052  12.583
73333W        W41562  28.607  20.295   2.660
73334W        W41563  26.804  21.733   2.868
73335W        W41564  25.206  38.823   4.572
73336W        W41565  34.887   2.439  11.102
73337W        W41566   6.518  17.122  12.899
73338W        W41567  32.774  26.837   0.847
73339W        W41568  44.727  17.616   1.798
73340W        W41569  26.532  36.437   0.075
73341W        W41570  41.305  35.099  14.351
73342W        W41571  35.101  18.318  11.981
73343W        W41572   6.198  16.036   4.170
73344W        W41573  23.931  40.865  10.827
73345W        W41574  14.877  44.122   0.900
73346W        W41575  22.797  19.255  14.882
73347W        W41576  44.675  42.486  10.481
73348W        W41577  40.059   7.683  10.605
73349W        W41578  11.376   3.711  10.732
73350W        W41579  42.244  28.931   4.118
73351W        W41580  14.661  22.486  14.462
73352W        W41581   4.162   5.840  14.066
73353W        W41582  11.703  16.772   2.783
73354W        W41583   9.371  31.979  10.236
73355W        W41584  11.348  20.662   3.249
73356W        W41585  14.782  11.109  14.948
73357W        W41586  21.552   0.768  13.529
73358W        W41587   5.252   9.813  11.011
73359W        W41588   6.393   1.464  13.672
73360W        W41589  17.968  31.365   4.031
73361W        W41590  14.342  33.141  10.816
73362W        W41591  30.013  39.808   3.687
73363W        W41592   1.793  34.930  10.836
73364W        W41593  23.189  23.742   0.745
73365W        W41594  31.080  12.381  13.946
73366W        W41595  32.561  20.678  13.753
73367W        W41596  43.770  19.802  11.163
73368W        W41597   9.394   1.908  10.398
73369W        W41598  32.069  43.733   4.255
73370W        W41599  18.685  16.565  14.331
73371W        W41600  29.451  26.019   0.757
73372W        W41601  18.320  27.029  14.233
73373W        W41602   0.972  38.878   4.107
73374W        W41603   9.984  16.320  11.769
73375W        W41604  22.742  44.395  12.631
73376W        W41605  27.680  23.104   2.269
73377W        W41606  16.786  21.084   2.214
73378W        W41607  14.828  20.173  13.773
73379W        W41608  22.461  43.331   0.424
73380W        W41609   2.442  43.098  12.795
73381W        W41610  23.448  44.998  11.719
73382W        W41611  41.973  39.127  11.975
73383W        W41612  25.231  32.870  11.144
73384W        W41613   6.193  31.344  14.940
73385W        W41614  38.427  38.082   4.230
73386W        W41615  41.131  12.218   1.765
73387W        W41616  34.990  43.724  13.493
73388W        W41617  16.342  35.663  11.406
73389W        W41618   5.275  11.827  14.795
73390W        W41619  37.468   4.065  12.552
73391W        W41620  36.116  26.577  13.531
73392W        W41621  22.229  38.246   2.092
73393W        W41622  24.127   6.922  12.977
73394W        W41623  44.798  10.686   3.263
73395W        W41624  27.106  34.110  13.210
73396W        W41625  15.083  32.207  12.518
73397W        W41626  21.303  36.521   3.826
73398W        W41627  31.695   2.899   2.330
73399W        W41628  35.393  25.268   4.100
73400W        W41629  19.528  20.057   0.765
73401W        W41630   8.381  27.526  11.515
73402W        W41631  34.316   2.246   0.212
73403W        W41632   0.703  26.583  11.579
73404W        W41633  25.969  25.882  12.804
73405W        W41634  16.722  40.464  12.603
73406W        W41635  39.904  31.757   0.393
73407W        W41636  36.040  25.774  13.253
73408W        W41637  40.146   9.172  13.859
73409W        W41638  23.028  44.909   4.160
73410W        W41639   0.239  37.019   4.960
73411W        W41640  24.228  43.807   3.218
73412W        W41641  13.397  26.697  11.126
73413W        W41642  39.284   8.987   3.935
73414W        W41643  38.938  12.320  10.627
73415W        W41644  29.891   3.285  11.937
73416W        W41645  25.171  42.356  14.492
73417W        W41646  38.168   3.400   4.591
73418W        W41647  33.574  27.242   4.927
73419W        W41648  44.820  21.607  11.711
73420W        W41649  11.275  38.644   2.800
73421W        W41650  13.109  41.196   3.201
73422W        W41651  16.303   4.288  12.392
73423W        W41652  26.827  18.638  12.316
73424W        W41653  44.250  10.139   3.630
73425W        W41654  34.870  19.003  13.923
73426W        W41655   0.789  28.621   1.233
73427W        W41656   0.239  29.853   0.257
73428W        W41657  41.254  31.656   0.442
73429W        W41658  10.373  37.471  12.561
73430W        W41659   5.815  21.658  13.568
73431W        W41660   2.115  27.624  14.786
73432W        W41661   1.236  21.989  12.389
73433W        W41662  16.782  42.296  13.863
73434W        W41663  38.691  29.323   4.898
73435W        W41664  39.833  23.512  11.895
73436W        W41665  25.285  24.923   3.804
73437W        W41666  36.102  27.559   1.727
73438W        W41667   6.830  16.654  12.043
73439W        W41668  11.675  11.333   1.866
73440W        W41669  36.923  13.809  11.011
73441W        W41670  24.923  37.469  14.429
73442W        W41671  36.379  25.211   1.684
73443W        W41672  41.237  28.647  13.957
73444W        W41673  24.516  41.343   0.755
73445W        W41674  16.019  16.971   0.922
73446W        W41675  36.308  17.807  13.477
73447W        W41676  17.126  23.216   2.052
73448W        W41677  39.826  15.679  11.599
73449W        W41678  34.236  18.219   3.765
73450W        W41679  35.533   1.773   4.090
73451W        W41680  25.556  25.668  12.553
73452W        W41681   6.630  39.569   1.855
73453W        W41682   3.812  16.467  12.956
73454W        W41683  26.860  11.088  11.956
73455W        W41684  39.933  33.466   0.808
73456W        W41685   4.938  44.576   5.023
73457W        W41686  32.574  38.474  10.908
73458W        W41687  39.842  13.680   0.548
73459W        W41688   0.506  29.070   2.200
73460W        W41689  12.429  14.798   5.247
73461W        W41690  22.286  31.037  10.664
73462W        W41691  44.767  25.729  11.546
73463W        W41692   2.420  32.161  12.146
73464W        W41693   2.295  15.667  11.874
73465W        W41694  35.800  12.322   1.485
73466W        W41695   7.581  31.591  11.163
73467W        W41696   7.660  23.980  10.607
73468W        W41697  41.492  38.783   1.137
73469W        W41698  21.085  10.656   2.162
73470W        W41699  32.666  43.452   1.712
73471W        W41700  33.169  40.606   0.467
73472W        W41701  25.743  11.232  11.038
73473W        W41702  41.035   0.946   2.697
73474W        W41703  43.245  44.500   0.797
73475W        W41704  32.910  24.613   3.385
73476W        W41705   5.748  29.420   2.321
73477W        W41706  18.245  29.592   0.643
73478W        W41707  18.786  25.239  10.753
73479W        W41708   3.734  43.839   3.791
73480W        W41709   0.004  30.223  14.948
73481W        W41710  17.833  33.389  13.430
73482W        W41711   1.079  12.529  13.469
73483W        W41712   7.408  37.976   0.691
73484W        W41713  19.708  28.267  14.434
73485W        W41714  41.334  28.238   2.321
73486W        W41715  25.415  28.541  12.144
73487W        W41716  44.365  32.046   2.706
73488W        W41717  39.035  16.146  11.495
73489W        W41718  31.118  15.300  11.169
73490W        W41719   6.292  33.164   4.825
73491W        W41720  44.842  10.252  12.707
73492W        W41721  16.769  23.111  13.561
73493W        W41722   4.923  27.221  14.777
73494W        W41723  19.849  31.428  11.143
73495W        W41724  36.356  26.262  13.936
73496W        W41725  12.709  12.168  12.902
73497W        W41726  31.892   9.407   4.572
73498W        W41727  31.511   3.274   4.645
73499W        W41728  12.718  44.020   2.295
73500W        W41729  27.972  20.215  12.515
73501W        W41730   3.295   8.708   0.269
73502W        W41731  27.193  34.021   3.429
73503W        W41732  21.534   3.244   3.088
73504W        W41733  26.395  27.732   0.248
73505W        W41734  34.348  42.016  14.917
73506W        W41735  41.756  18.275  11.249
73507W        W41736   2.541   1.754   4.872
73508W        W41737  23.969  31.879   0.910
73509W        W41738  39.175  11.165   3.208
73510W        W41739  37.999  42.010  11.691
73511W        W41740  31.588  16.356   2.741
73512W        W41741   2.463   4.340  13.849
73513W        W41742  41.829  21.612  13.601
73514W        W41743  23.334  33.299  13.993
73515W        W41744  42.274  16.212   3.260
73516W        W41745  15.425  15.583  13.812
73517W        W41746   1.948  12.734  13.998
73518W        W41747  17.338  41.618   3.404
73519W        W41748  14.683  31.367  11.926
73520W        W41749  12.395  37.549   1.148
73521W        W41750   7.602  16.716  13.417
73522W        W41751  42.588  42.230   0.905
73523W        W41752  14.228  22.743   4.134
73524W        W41753   8.350  39.429   1.467
73525W        W41754  24.624  23.190  12.652
73526W        W41755  22.126  30.855  13.090
73527W        W41756  16.026  33.239  12.295
73528W        W41757  15.084  32.081   1.976
73529W        W41758  42.474  25.599   4.987
73530W        W41759  30.138  29.454  11.091
73531W        W41760   2.873  34.720  12.868
73532W        W41761  37.218  44.782  11.407
73533W        W41762  14.125  16.236  13.340
73534W        W41763  32.567  22.523  14.901
73535W        W41764   6.122  41.134   9.952
73536W        W41765  15.773   9.905   2.842
73537W        W41766  10.941  34.614   2.267
73538W        W41767  29.523  25.469   2.649
73539W        W41768  31.154  10.693  11.323
73540W        W41769  27.426  26.823   4.483
73541W        W41770   0.802   9.797   0.349
73542W        W41771  19.160  28.724  10.481
73543W        W41772  26.270  34.952  11.665
73544W        W41773  23.303   0.943  11.435
73545W        W41774   1.460  36.952  12.067
73546W        W41775  39.011  15.884   3.511
73547W        W41776  17.965  32.845   4.150
73548W        W41777  40.443  17.788   2.274
73549W        W41778  18.290  29.655  10.639
73550W        W41779  13.384   0.923  12.894
73551W        W41780  30.947  29.153   1.695
73552W        W41781  19.279   4.888   0.356
73553W        W41782  12.693   6.282   4.134
73554W        W41783  40.018  26.157   0.070
73555W        W41784  10.377  25.971   2.853
73556W        W41785  17.052   8.660  11.126
73557W        W41786  10.214  13.236  11.732
73558W        W41787   2.250  20.030   3.856
73559W        W41788   1.187   1.668   4.213
73560W        W41789  40.820  35.939   2.758
73561W        W41790   9.422  19.257   4.937
73562W        W41791  19.640  23.591  14.239
73563W        W41792   7.502  23.619  10.969
73564W        W41793  16.485  15.618   0.836
73565W        W41794  11.704  34.984  11.934
73566W        W41795  35.621   5.251   2.944
73567W        W41796  39.509  43.199   4.076
73568W        W41797  16.992  15.482   2.342
73569W        W41798   8.264  31.875   1.455
73570W        W41799  25.228  36.958  14.929
73571W        W41800  36.686  21.619  10.738
73572W        W41801  40.885  40.450  14.664
73573W        W41802  43.422  21.857  11.128
73574W        W41803  11.236  22.593  13.944
73575W        W41804   1.536  33.127   0.917
73576W        W41805  38.935  44.155  13.349
73577W        W41806  21.260   5.303   2.736
73578W        W41807  17.657  33.875  13.963
73579W        W41808  41.485  38.635   2.700
73580W        W41809  17.509   3.921  13.591
73581W        W41810  24.633  37.911  11.619
73582W        W41811  38.139   4.220  11.606
73583W        W41812  25.674   1.494   4.081
73584W        W41813   4.351   9.955  11.484
73585W        W41814  36.441  11.596  13.576
73586W        W41815  36.953  20.460  14.521
73587W        W41816   8.311   3.103  14.950
73588W        W41817  32.557  24.569   0.692
73589W        W41818  19.680  33.120   2.743
73590W        W41819   1.632  23.451  13.938
73591W        W41820  38.384  33.961   4.148
73592W        W41821  35.078   7.583  14.385
73593W        W41822  10.800  24.058  13.948
73594W        W41823  21.093  44.956   4.354
73595W        W41824  11.906   6.373  12.391
73596W        W41825   0.055  33.448  11.276
73597W        W41826   5.750  42.957  10.628
73598W        W41827  13.331  17.043   0.441
73599W        W41828  17.876  18.817   5.092
73600W        W41829  42.799  20.321  12.982
73601W        W41830  17.332  24.006  12.872
73602W        W41831   8.875  36.299  10.933
73603W        W41832   2.403  11.107   4.108
73604W        W41833  22.437  26.906   5.011
73605W        W41834  32.404   3.835  11.473
73606W        W41835  37.354  18.860   1.759
73607W        W41836  12.218  29.130   2.721
73608W        W41837  21.088   8.760   1.758
73609W        W41838  10.408   9.755   1.147
73610W        W41839   4.825  19.294   0.949
73611W        W41840  31.631  26.098   3.377
73612W        W41841  35.574  19.484  11.902
73613W        W41842  35.827  31.073  13.855
73614W        W41843   0.432   0.523   2.788
73615W        W41844  39.087  32.169   4.187
73616W        W41845  39.275   4.786  14.897
73617W        W41846  12.878  27.714   4.199
73618W        W41847  30.082   1.350  14.941
73619W        W41848  39.248   3.148   1.883
73620W        W41849  34.054  32.445   4.554
73621W        W41850   8.416  32.060   2.758
73622W        W41851   7.809  21.311   0.454
73623W        W41852  11.657  21.724  11.518
73624W        W41853  28.707   0.278  11.196
73625W        W41854  29.907  35.434  10.830
73626W        W41855  10.993  19.062  11.106
73627W        W41856  18.671   4.845  12.437
73628W        W41857  25.659   2.687  10.784
73629W        W41858   4.447  22.065   4.067
73630W        W41859  34.226   1.991   1.274
73631W        W41860   8.108  24.495   4.524
73632W        W41861  11.162  32.465   1.272
73633W        W41862  12.486  43.454  11.084
73634W        W41863  11.182   3.305   0.285
73635W        W41864  31.693  20.224   1.806
73636W        W41865  13.841  30.381   3.546
73637W        W41866  33.969  36.818   0.400
73638W        W41867  39.512  27.790   5.029
73639W        W41868   7.329  16.069  13.502
73640W        W41869   3.493  23.121  11.750
73641W        W41870  11.246  37.833   4.584
73642W        W41871  17.498  43.376  11.668
73643W        W41872  29.589   4.938  13.405
73644W        W41873   9.871  15.843  10.478
73645W        W41874  38.612   7.353  11.960
73646W        W41875  15.279   6.704   1.833
73647W        W41876  13.067  25.949   2.201
73648W        W41877  19.525  22.663   3.138
73649W        W41878  14.227  34.879   2.114
73650W        W41879  30.189   3.402   2.236
73651W        W41880  38.278  33.355   5.570
73652W        W41881   9.612  36.664   0.283
73653W        W41882  22.275  32.496   1.844
73654W        W41883   6.905  20.791  14.488
73655W        W41884  41.383  36.838  11.526
73656W        W41885  12.146  24.607  12.416
73657W        W41886  38.546  24.665  12.015
73658W        W41887  42.254  27.752   0.834
73659W        W41888  44.465  18.788  11.127
73660W        W41889  43.237  15.812   0.905
73661W        W41890  44.752  40.591   2.857
73662W        W41891  10.419  30.892   1.250
73663W        W41892  19.679  34.503  12.151
73664W        W41893  23.158  25.085  13.120
73665W        W41894  37.594  39.560   3.454
73666W        W41895   9.834  19.682   2.767
73667W        W41896  26.697  29.049   2.223
73668W        W41897  25.330  26.812  13.075
73669W        W41898   3.079  21.384  14.820
73670W        W41899  43.063   2.131   0.787
73671W        W41900  17.854  33.292   2.970
73672W        W41901  32.841  35.108   3.857
73673W        W41902  41.465  37.725  12.826
73674W        W41903  28.774  17.216  13.802
73675W        W41904  29.616  33.901   2.716
73676W        W41905   5.450  34.951   1.712
73677W        W41906  13.120  17.730   4.573
73678W        W41907  16.633  30.588  11.952
73679W        W41908  24.001  34.545   2.345
73680W        W41909  35.517  44.088   3.645
73681W        W41910  39.981   2.424   3.889
73682W        W41911  18.451   8.007  11.069
73683W        W41912  33.189   1.927   4.013
73684W        W41913  39.498  39.422  11.619
73685W        W41914  39.831   8.405   0.879
73686W        W41915   1.747  28.015  10.684
73687W        W41916  38.029  41.601  14.016
73688W        W41917   1.771  26.127   4.113
73689W        W41918   7.480  26.212  11.256
73690W        W41919  44.310   7.751   0.388
73691W        W41920  35.037   9.900   3.261
73692W        W41921  16.064  20.434   2.177
73693W        W41922   6.930  24.912   1.941
73694W        W41923   0.168  24.694   2.137
73695W        W41924  28.031  44.498   3.215
73696W        W41925  42.060  41.891  12.110
73697W        W41926   5.823  31.437  12.501
73698W        W41927  21.096   4.160  11.572
73699W        W41928  13.965  42.420   0.238
73700W        W41929  38.022  40.715   1.780
73701W        W41930  42.289  14.142  13.213
73702W        W41931   1.081   3.295   2.156
73703W        W41932  27.038   0.495  10.548
73704W        W41933   3.408  15.867   4.247
73705W        W41934  29.285  19.076   0.441
73706W        W41935  17.692   9.310   4.516
73707W        W41936   8.667  44.735  12.402
73708W        W41937  31.713  44.934  13.726
73709W        W41938  11.267  20.687  12.861
73710W        W41939  10.189  11.374  14.394
73711W        W41940   1.381  44.295  12.560
73712W        W41941  12.718  34.249   3.306
73713W        W41942  22.608   2.286   0.858
73714W        W41943  24.218   1.255  10.465
73715W        W41944   0.481  30.906  13.927
73716W        W41945  19.716  12.049  12.440
73717W        W41946  28.091  12.152   1.394
73718W        W41947  19.212  40.544  14.107
73719W        W41948  39.629   3.415   1.397
73720W        W41949  43.232  23.356  10.933
73721W        W41950  40.307  16.792  14.590
73722W        W41951  24.537  16.836   1.767
73723W        W41952  16.355  41.170   1.761
73724W        W41953  26.374  39.842  12.598
73725W        W41954   3.039  17.148   3.484
73726W        W41955   0.183   2.590  14.094
73727W        W41956  11.183  30.059  10.537
73728W        W41957  19.385  29.362   1.443
73729W        W41958  33.082  20.329  11.284
73730W        W41959  19.937  25.914   0.017
73731W        W41960  17.872  21.534   3.596
73732W        W41961  44.261  25.213   1.762
73733W        W41962   5.305  29.395   3.574
73734W        W41963  42.139  26.319  14.879
73735W        W41964   7.247   3.198   3.357
73736W        W41965  36.528  11.754  12.487
73737W        W41966   8.188  16.720   4.516
73738W        W41967  40.829  12.897  13.880
73739W        W41968  33.630  30.401  10.901
73740W        W41969  15.327  19.405   4.594
73741W        W41970   3.196  43.825   0.870
73742W        W41971  37.270   8.833  14.435
73743W        W41972   9.218   5.016   1.113
73744W        W41973  21.675  30.311   2.812
73745W        W41974   8.782  29.587  12.202
73746W        W41975  36.972  21.305  12.059
73747W        W41976   3.703  22.116   4.799
73748W        W41977   9.214  38.853   0.504
73749W        W41978  11.384  19.435  13.466
73750W        W41979  22.678  18.795   0.693
73751W        W41980   5.701   1.971  10.604
73752W        W41981  41.344  21.004  11.488
73753W        W41982  44.798  23.938   0.836
73754W        W41983  24.359  33.072   4.057
73755W        W41984  18.233  35.150   0.932
73756W        W41985  37.129  11.286   4.370
73757W        W41986   9.620  13.337  13.420
73758W        W41987  10.655  30.641   0.178
73759W        W41988  37.635  31.655   2.424
73760W        W41989  27.566  14.691   4.665
73761W        W41990  21.019  41.449  11.054
73762W        W41991   6.760  14.305   4.362
73763W        W41992  21.242   4.451   1.211
73764W        W41993  43.771  25.217  12.670
73765W        W41994   4.332  13.677  11.640
73766W        W41995  37.945  22.962   1.256
73767W        W41996  25.458   7.255   2.557
73768W        W41997   1.287  15.498   2.859
73769W        W41998  30.137  18.441  13.734
73770W        W41999  44.605   5.356   0.742
73771W        W42000  25.784  39.435   2.620
73772W        W42001  25.861  39.488   0.777
73773W        W42002  13.228  36.027  13.875
73774W        W42003  37.438   5.265   1.484
73775W        W42004  42.505  13.776   3.704
73776W        W42005  20.666  27.659  11.904
73777W        W42006  42.060  14.007   3.599
73778W        W42007  26.250  23.725   0.799
73779W        W42008  36.218  23.159  12.005
73780W        W42009   6.171  41.895   4.516
73781W        W42010  38.795  19.454   1.558
73782W        W42011   7.354   0.979   0.236
73783W        W42012  44.927  11.579   1.310
73784W        W42013  43.823  19.539   2.588
73785W        W42014  34.726  44.741  10.991
73786W        W42015  21.199  11.764  14.740
73787W        W42016  24.791  10.863  10.649
73788W        W42017  27.004  27.338   0.334
73789W        W42018   0.285  12.845  13.066
73790W        W42019  29.389  20.018   2.350
73791W        W42020  17.288  43.923   4.610
73792W        W42021  19.170   0.577   2.614
73793W        W42022   4.910  18.643   4.614
73794W        W42023   1.202  37.101   4.988
73795W        W42024  22.933  39.308   3.598
73796W        W42025  31.363  31.484   0.475
73797W        W42026  27.327  33.475  10.348
73798W        W42027  30.439  18.428  12.409
73799W        W42028  19.114   7.171   3.846
73800W        W42029  43.387  16.069  14.398
73801W        W42030  38.751  43.249   1.673
73802W        W42031   9.264   2.795   0.712
73803W        W42032  15.405   8.969   0.379
73804W        W42033   8.803  30.976  12.085
73805W        W42034   8.378  16.327  13.826
73806W        W42035   1.637  42.912  12.384
73807W        W42036  27.951  35.904  13.305
73808W        W42037  18.793  43.649  12.769
73809W        W42038  27.070  26.187   2.567
73810W        W42039   3.234  12.691   3.155
73811W        W42040   4.603   4.802   5.055
73812W        W42041  14.305  31.636  14.888
73813W        W42042  35.857   1.652   1.985
73814W        W42043   1.477  44.054   0.256
73815W        W42044  14.612  25.441   3.126
73816W        W42045  16.723  15.103   4.961
73817W        W42046   4.189   2.324  12.785
73818W        W42047  27.053  42.451   3.751
73819W        W42048  11.101  28.071  12.702
73820W        W42049  18.714   3.782  12.670
73821W        W42050  41.200   9.163   2.430
73822W        W42051  41.517   7.149  11.553
73823W        W42052  41.066  10.549  14.389
73824W        W42053  43.030   5.215   0.776
73825W        W42054   4.467  44.302   3.867
73826W        W42055   5.085  12.794   3.241
73827W        W42056   9.665  30.919  11.844
73828W        W42057   9.065   1.197  14.828
73829W        W42058  42.051  34.157   3.261
73830W        W42059  40.918  12.838  12.975
73831W        W42060  28.653  40.818   3.557
73832W        W42061   2.378  23.965  12.538
73833W        W42062  26.262  26.019   2.281
73834W        W42063  40.724  22.057  14.873
73835W        W42064  35.479  10.344   2.602
73836W        W42065  26.031  36.382   0.766
73837W        W42066  33.584  32.499   1.784
73838W        W42067  26.498   9.889  10.658
73839W        W42068  28.436  20.924  11.482
73840W        W42069  14.849  32.637   2.789
73841W        W42070  31.814  37.352   5.044
73842W        W42071   7.213   5.845   4.841
73843W        W42072  42.327   7.981  10.622
73844W        W42073  37.601  28.715   1.808
73845W        W42074  33.519  14.067  12.362
73846W        W42075  11.426  11.538  11.078
73847W        W42076   1.479   7.798   3.742
73848W        W42077   7.690  23.215  11.515
73849W        W42078  34.347  43.884  11.287
73850W        W42079  41.126  23.591   1.208
73851W        W42080  30.503  17.320   3.666
73852W        W42081  32.963  25.433  10.626
73853W        W42082  41.794   6.733  11.680
73854W        W42083  30.577  18.281  11.523
73855W        W42084   4.297  30.050   4.247
73856W        W42085  17.725   2.435   0.791
73857W        W42086  42.513  21.658  12.322
73858W        W42087  15.499  32.341   2.277
73859W        W42088   8.423   5.662   2.043
73860W        W42089  11.248  15.052  11.990
73861W        W42090  36.351  21.793   4.103
73862W        W42091  32.744  10.240   3.185
73863W        W42092  43.818  32.059   0.980
73864W        W42093  40.905  13.895  12.226
73865W        W42094  31.348  25.176   2.286
73866W        W42095  36.925  15.964   1.238
73867W        W42096  31.410  25.608   2.584
73868W        W42097  25.504  21.235  14.459
73869W        W42098  11.639  18.124   1.191
73870W        W42099  20.189  44.713  10.996
73871W        W42100   0.302  20.169   3.222
73872W        W42101  16.930  25.983  12.010
73873W        W42102  19.981  35.648  14.015
73874W        W42103   2.825  27.097  10.600
73875W        W42104  13.773  20.511  14.514
73876W        W42105  17.840  42.171  13.017
73877W        W42106  38.031  42.726   0.311
73878W        W42107  12.726  13.476  14.070
73879W        W42108  11.079   9.235  13.747
73880W        W42109  34.936  30.216  14.068
73881W        W42110  29.666  17.294   1.589
73882W        W42111  33.509  20.301   4.580
73883W        W42112   8.644  17.600  13.438
73884W        W42113  29.831  13.598   3.272
73885W        W42114  34.934   2.073   0.952
73886W        W42115  37.038   4.356   2.328
73887W        W42116  30.054   5.339   4.444
73888W        W42117   8.457  18.138   3.008
73889W        W42118  13.543  12.826  11.147
73890W        W42119  21.536  12.576  12.808
73891W        W42120  29.003   2.351   1.990
73892W        W42121  44.717   3.293   4.304
73893W        W42122   0.080  31.356   1.986
73894W        W42123   1.689  11.762  10.627
73895W        W42124  31.705  15.609  13.469
73896W        W42125  38.749  17.758  12.779
73897W        W42126  43.898  22.927  13.372
73898W        W42127  24.304  14.861   4.602
73899W        W42128  36.058  16.418   2.323
73900W        W42129  21.286   7.692  14.482
73901W        W42130  16.288  29.200  13.933
73902W        W42131  18.318  24.672   0.747
73903W        W42132  32.536  20.144  13.968
73904W        W42133  36.141  24.249   3.583
73905W        W42134  20.140  13.450   1.832
73906W        W42135  27.677   5.849   3.109
73907W        W42136  41.353   0.956   4.807
73908W        W42137   6.175  24.655  13.043
73909W        W42138  20.641  35.503   3.875
73910W        W42139  28.109  27.685  13.954
73911W        W42140  17.070  21.716  11.740
73912W        W42141  38.903  34.358   5.551
73913W        W42142  16.860   5.874   3.652
73914W        W42143  24.610  27.709   1.150
73915W        W42144   7.588  35.009   4.292
73916W        W42145   3.972  43.472  11.169
73917W        W42146  42.851   6.711   0.573
73918W        W42147  34.996   0.824  12.376
73919W        W42148  44.194   0.848   3.619
73920W        W42149   3.534  29.606   4.669
73921W        W42150  13.947   4.635   0.290
73922W        W42151  38.123   0.703   4.066
73923W        W42152  35.806  36.836  14.424
73924W        W42153  24.074  34.876   2.747
73925W        W42154  26.092   3.724   2.820
73926W        W42155  33.553  19.777   4.558
73927W        W42156   7.834  28.138   3.810
73928W        W42157   5.829   4.195  12.593
73929W        W42158  12.616  19.334  13.893
73930W        W42159   2.706  42.298  11.937
73931W        W42160  26.197  25.414   4.476
73932W        W42161  11.565  22.503   4.038
73933W        W42162  41.863  12.716  10.961
73934W        W42163  24.601  26.776   2.787
73935W        W42164  44.203   5.707   0.430
73936W        W42165  18.094   0.984   0.351
73937W        W42166  21.886  43.136   3.794
73938W        W42167  33.669  20.870   1.905
73939W        W42168   1.242   6.574   4.071
73940W        W42169   7.374  31.143   1.657
73941W        W42170  18.006   3.813  10.996
73942W        W42171   8.120  30.394   1.022
73943W        W42172  39.898  13.775   0.042
73944W        W42173  25.011  25.633  12.121
73945W        W42174  30.172  21.222   2.857
73946W        W42175  38.487   1.921  12.457
73947W        W42176   7.211  15.278  13.914
73948W        W42177  39.392  20.586  13.564
73949W        W42178  30.628  44.944   3.325
73950W        W42179  28.005   1.710  13.822
73951W        W42180  22.949  36.284  11.884
73952W        W42181   9.205  26.580   0.998
73953W        W42182  34.339   2.288  12.493
73954W        W42183  24.161  11.852  13.708
73955W        W42184  12.794   5.668  13.780
73956W        W42185  27.641   2.058  13.829
73957W        W42186   4.535   8.079   0.292
73958W        W42187  10.489  19.079   1.215
73959W        W42188  16.440  35.337   3.657
73960W        W42189  29.416  10.140   4.467
73961W        W42190  26.922  29.365   1.414
73962W        W42191  17.365  25.960   1.621
73963W        W42192  30.224   6.881  13.542
73964W        W42193  33.844  20.960  10.098
73965W        W42194  10.383  38.970   1.735
73966W        W42195   5.036  39.917  12.503
73967W        W42196   3.696   3.811   0.315
73968W        W42197   2.730  23.873   2.613
73969W        W42198  12.986  43.829   0.868
73970W        W42199  12.874  41.793  11.519
73971W        W42200  38.887   8.536  10.768
73972W        W42201  10.190  11.131   2.745
73973W        W42202  25.177  40.024   2.381
73974W        W42203  25.090   3.854  12.636
73975W        W42204   4.125   2.729   0.380
73976W        W42205   6.864  28.236  11.013
73977W        W42206  32.044  39.217   0.411
73978W        W42207  14.548  21.686   2.921
73979W        W42208  12.745  38.631  10.716
73980W        W42209   6.255   3.483  10.174
73981W        W42210  18.157  35.996   4.718
73982W        W42211  40.112   4.393   4.412
73983W        W42212   9.309  21.788   2.697
73984W        W42213  17.153  21.004  12.251
73985W        W42214  23.069  38.819   0.717
73986W        W42215  16.153  11.369   4.304
73987W        W42216   0.033  16.882  12.186
73988W        W42217   3.817  39.573   3.742
73989W        W42218  12.263  42.452  12.676
73990W        W42219   6.802  37.875   1.311
73991W        W42220   8.686  38.670  12.459
73992W        W42221  34.438  39.020   2.370
73993W        W42222  37.145  34.655   4.986
73994W        W42223  21.688   8.404   0.530
73995W        W42224  20.039  30.642  14.319
73996W        W42225  28.113  25.517  11.212
73997W        W42226  43.751   6.777  10.876
73998W        W42227  21.513  44.291  14.077
73999W        W42228  41.524  30.091   4.475
74000W        W42229  15.673  10.417   0.524
74001W        W42230  10.621  11.213   1.833
74002W        W42231  33.101   0.717  14.782
74003W        W42232   1.718  36.163   4.391
74004W        W42233  11.624  31.479   0.496
74005W        W42234   7.670  44.236  13.434
74006W        W42235  33.577  21.136   3.200
74007W        W42236   3.456  43.219   1.102
74008W        W42237  38.563  20.712  11.610
74009W        W42238  35.854   0.496   1.181
74010W        W42239   0.768  28.947   9.996
74011W        W42240   7.224  32.805  14.314
74012W        W42241   9.167  37.901  11.601
74013W        W42242   3.911  23.956  11.627
74014W        W42243  17.687  32.107   4.077
74015W        W42244  41.684   0.278  12.248
74016W        W42245  42.560  19.811  11.970
74017W        W42246  18.226   9.959  12.417
74018W        W42247  23.390  13.146   2.748
74019W        W42248  23.800  15.660  13.522
74020W        W42249  44.035  34.412  14.379
74021W        W42250  39.062  42.874   2.379
74022W        W42251   6.484  13.241  10.728
74023W        W42252   3.831  34.264   1.555
74024W        W42253  28.997  15.104  11.046
74025W        W42254  36.530  10.686   4.142
74026W        W42255   2.879   4.738  12.125
74027W        W42256  11.039  37.037  12.894
74028W        W42257  14.490   4.002  14.686
74029W        W42258  34.483  32.414  13.047
74030W        W42259  21.133  17.863   4.609
74031W        W42260  10.236  41.124  12.446
74032W        W42261  44.751  14.162  11.939
74033W        W42262  36.925  25.510   0.053
74034W        W42263  34.626  16.122   2.355
74035W        W42264  13.320  19.715   3.633
74036W        W42265  12.997  11.918  14.957
74037W        W42266  21.731  19.158  14.745
74038W        W42267  27.719  34.229   4.772
74039W        W42268   7.430  32.060   1.841
74040W        W42269   5.937  27.136  14.806
74041W        W42270   6.312  25.069   2.806
74042W        W42271  21.297  38.551   4.658
74043W        W42272  30.670  31.745   3.276
74044W        W42273  16.703  42.264   0.940
74045W        W42274   6.908  28.918   2.398
74046W        W42275   3.133   2.823  11.083
74047W        W42276  40.556  42.151   1.757
74048W        W42277  33.813  18.517   3.759
74049W        W42278  26.761  43.504  13.255
74050W        W42279  25.203  27.214  12.684
74051W        W42280  23.451  39.839   1.911
74052W        W42281   2.832  15.672  14.049
74053W        W42282   2.908  23.028  10.489
74054W        W42283   2.018  23.548  10.491
74055W        W42284  31.453  28.178   0.486
74056W        W42285   0.614  17.356  10.831
74057W        W42286   0.346  37.072  14.299
74058W        W42287  43.023  39.790  11.173
74059W        W42288  33.083  24.208  11.171
74060W        W42289   0.784  28.443  14.357
74061W        W42290   6.210  20.136   4.888
74062W        W42291   5.901  28.215  11.675
74063W        W42292  43.112  15.889  14.886
74064W        W42293   4.320  18.800   3.767
74065W        W42294  38.446   9.921  13.417
74066W        W42295   0.894  42.496   4.848
74067W        W42296   9.502  39.895   2.433
74068W        W42297  35.983  32.631  14.459
74069W        W42298  32.109  18.351  12.810
74070W        W42299  38.670  33.497   2.189
74071W        W42300  16.192  15.143   1.792
74072W        W42301  33.802  25.380   2.749
74073W        W42302  43.966   0.366  12.486
74074W        W42303  18.574  43.530   4.539
74075W        W42304  38.566   9.537   3.251
74076W        W42305  32.902  18.863  10.285
74077W        W42306  20.416   5.316  12.155
74078W        W42307   7.976   8.254  13.009
74079W        W42308   9.841   1.835  11.379
74080W        W42309  42.325   6.727  11.653
74081W        W42310   0.935  24.625   1.998
74082W        W42311  41.095  37.348  12.852
74083W        W42312  43.418  11.571   2.320
74084W        W42313  42.943  12.122  13.718
74085W        W42314  14.819   8.399   2.351
74086W        W42315  27.018   9.296   3.070
74087W        W42316  31.075  14.345   3.143
74088W        W42317  24.121  20.765   0.451
74089W        W42318   5.834  12.725   4.892
74090W        W42319  14.598  14.057   4.602
74091W        W42320  34.656   3.769  12.479
74092W        W42321  39.428  22.146  14.746
74093W        W42322  23.932  42.346  13.973
74094W        W42323  43.389  11.324   2.795
74095W        W42324  30.067  22.541  12.616
74096W        W42325   0.049  35.014   1.803
74097W        W42326   5.267  44.944  14.693
74098W        W42327  24.112  42.145   2.857
74099W        W42328  35.342   6.056  14.039
74100W        W42329  23.323  11.088  10.504
74101W        W42330  40.179   2.906   3.817
74102W        W42331  26.173  32.183   0.399
74103W        W42332   8.198  27.503  13.845
74104W        W42333  20.407  17.087  14.101
74105W        W42334  37.834  27.597   4.241
74106W        W42335  43.071   5.897   1.427
74107W        W42336  21.897   0.476   3.696
74108W        W42337  37.319  27.781  11.202
74109W        W42338  36.851  14.040  11.868
74110W        W42339  36.157  24.973  12.142
74111W        W42340  30.673  24.386  14.345
74112W        W42341  29.059  41.315   0.486
74113W        W42342  21.712   3.481  14.818
74114W        W42343  25.511  44.348   3.610
74115W        W42344  18.698   8.611   0.909
74116W        W42345  37.246  39.358  11.508
74117W        W42346   9.779  28.689   3.253
74118W        W42347  18.234   0.428  13.360
74119W        W42348  36.520  32.601  14.779
74120W        W42349  11.841  10.754   1.177
74121W        W42350  32.473  35.406   2.675
74122W        W42351  12.077   2.534   4.395
74123W        W42352  34.706  35.906  12.457
74124W        W42353  12.532  14.777   0.666
74125W        W42354  16.175  30.150   2.638
74126W        W42355  43.794  11.861  14.424
74127W        W42356   3.775   5.744  14.413
74128W        W42357  40.727   6.361  12.432
74129W        W42358   8.039   6.400   3.194
74130W        W42359  38.017  38.047   0.372
74131W        W42360  27.817  38.684   0.141
74132W        W42361   4.439  11.691   3.864
74133W        W42362   1.973  28.703  14.579
74134W        W42363  36.037  29.530   2.340
74135W        W42364   9.450   2.421   3.140
74136W        W42365  15.540  30.186   3.387
74137W        W42366  26.723  16.964  10.656
74138W        W42367  26.111  42.355  11.258
74139W        W42368  43.313   8.715   2.912
74140W        W42369  41.935   3.780   0.756
74141W        W42370   7.297  26.469  14.058
74142W        W42371  14.311  13.162  11.428
74143W        W42372   4.735  15.461  12.449
74144W        W42373  43.868  11.078  12.020
74145W        W42374   9.314  14.251  11.565
74146W        W42375  21.632   0.657   4.112
74147W        W42376  26.592  38.906   2.215
74148W        W42377   6.988   1.026  14.388
74149W        W42378  30.963  41.128   3.167
74150W        W42379  22.920  32.488  14.048
74151W        W42380  41.358  11.667   2.854
74152W        W42381  24.485  18.627  10.912
74153W        W42382   7.897  39.844   2.427
74154W        W42383  28.599   7.391   4.268
74155W        W42384  29.968  27.463  12.497
74156W        W42385   5.253  42.760   1.433
74157W        W42386   4.225  25.915  13.475
74158W        W42387  19.455  20.598   1.343
74159W        W42388  31.313  34.905   3.148
74160W        W42389  37.799  25.572   3.294
74161W        W42390  36.287  31.503   0.934
74162W        W42391  38.293   9.752   2.867
74163W        W42392  17.548  39.887  12.300
74164W        W42393  33.611  38.528  12.367
74165W        W42394  29.196   8.407   2.326
74166W        W42395  15.515  14.650   0.539
74167W        W42396  37.824  29.394   2.416
74168W        W42397  35.420  13.103  13.050
74169W        W42398  19.638   4.690  13.896
74170W        W42399   2.393  37.974   2.849
74171W        W42400  27.609  36.956   0.835
74172W        W42401  40.115   4.738   4.791
74173W        W42402  36.194  17.288   2.722
74174W        W42403  21.346   1.693   0.017
74175W        W42404  17.731  40.240  14.023
74176W        W42405  16.114  43.341   3.446
74177W        W42406   8.418  19.505  12.148
74178W        W42407  33.838  14.149   4.362
74179W        W42408  41.030  25.186   2.160
74180W        W42409  38.631   1.690  11.096
74181W        W42410  32.313  35.436  12.525
74182W        W42411  34.399  43.071   4.493
74183W        W42412  38.461  29.274  10.648
74184W        W42413  20.001  38.205  14.949
74185W        W42414  22.300  11.792  12.011
74186W        W42415  36.216  13.383   0.428
74187W        W42416   6.899  12.274   1.704
74188W        W42417  34.827  24.839   5.143
74189W        W42418  42.436  39.394  14.733
74190W        W42419   9.670  15.689   0.979
74191W        W42420  22.530  26.883   1.491
74192W        W42421  18.269  29.129   1.909
74193W        W42422   5.415  32.071   4.522
74194W        W42423  15.130  30.549   1.176
74195W        W42424  38.524   2.450   0.530
74196W        W42425  40.292  32.772  13.037
74197W        W42426   2.203   1.210   1.038
74198W        W42427  36.015  38.274  13.110
74199W        W42428  30.614   6.214  14.525
74200W        W42429  36.520  35.440   1.056
74201W        W42430  24.887  38.469   2.869
74202W        W42431   6.818  17.106  11.790
74203W        W42432  35.492   7.567   0.778
74204W        W42433   7.687  21.235   2.265
74205W        W42434  19.343  15.272   3.696
74206W        W42435  27.008   7.931  13.051
74207W        W42436  37.898  30.235  12.015
74208W        W42437  44.398  35.553   0.282
74209W        W42438  41.517  15.988  12.985
74210W        W42439  31.583  35.224  13.810
74211W        W42440  15.882   8.736   1.171
74212W        W42441  38.820  34.128  11.997
74213W        W42442  40.934  34.837   1.516
74214W        W42443  19.665  41.772   1.667
74215W        W42444   4.989  39.947   4.233
74216W        W42445  40.113  37.905   3.798
74217W        W42446  30.978  32.080  14.780
74218W        W42447  39.585  21.599  11.512
74219W        W42448  29.483  33.099   3.611
74220W        W42449  17.964  42.201   1.134
74221W        W42450  34.344  25.628  14.834
74222W        W42451  15.677  15.011   3.205
74223W        W42452  23.379   3.230  13.084
74224W        W42453   8.293  29.142  11.191
74225W        W42454  44.373  18.355  11.360
74226W        W42455  21.071  14.333   2.798
74227W        W42456  18.195  18.837   3.944
74228W        W42457   4.761  12.155   0.386
74229W        W42458   8.744  42.515   2.323
74230W        W42459  22.199  38.064  12.512
74231W        W42460   7.315  18.676   4.117
74232W        W42461  42.011   8.519   2.212
74233W        W42462   1.843  30.721   1.220
74234W        W42463  11.220  34.554   1.285
74235W        W42464  29.955  21.644   3.200
74236W        W42465   5.594  42.999  12.604
74237W        W42466  31.427  19.658   4.076
74238W        W42467   5.856  37.204   0.329
74239W        W42468  12.430  37.838  14.283
74240W        W42469  18.451  31.676  12.461
74241W        W42470  32.424  31.863  11.973
74242W        W42471  21.837  20.892   4.109
74243W        W42472  10.370   3.257   3.669
74244W        W42473  28.802  30.025  14.841
74245W        W42474  24.024  41.716   4.109
74246W        W42475  32.250  10.718   2.465
74247W        W42476  19.358  42.469  12.608
74248W        W42477   7.289  14.044  12.112
74249W        W42478   9.467  17.194   1.144
74250W        W42479  23.047  26.963  14.045
74251W        W42480  22.989  12.032  10.718
74252W        W42481  41.728  20.363   5.069
74253W        W42482   5.257   7.324   1.869
74254W        W42483   9.456  42.996   3.323
74255W        W42484  13.090   9.600   3.654
74256W        W42485  17.239  28.098   3.168
74257W        W42486  27.902   4.163  10.707
74258W        W42487   9.489  34.016  13.055
74259W        W42488  24.491  15.823  14.323
74260W        W42489  22.045  28.429  13.317
74261W        W42490   4.725  33.101  13.367
74262W        W42491  23.177  32.043  11.918
74263W        W42492  44.472  17.978  14.296
74264W        W42493  40.366  31.150   2.865
74265W        W42494  25.086  14.818   4.039
74266W        W42495   2.707  35.368   0.060
74267W        W42496  39.857  36.214   2.458
74268W        W42497  37.494  15.871  13.932
74269W        W42498  26.613  18.663  14.495
74270W        W42499  22.601  42.780  14.257
74271W        W42500  22.085  42.486  11.596
74272W        W42501  12.075  35.007   3.662
74273W        W42502  42.140  21.493   1.296
74274W        W42503  33.601  13.268   4.199
74275W        W42504  37.457  18.729  13.832
74276W        W42505  34.254  10.775  14.575
74277W        W42506  37.110  19.599   3.171
74278W        W42507  41.695  20.550  13.471
74279W        W42508   4.336  18.185  14.709
74280W        W42509   5.344  32.618  12.918
74281W        W42510  18.493  35.141   9.784
74282W        W42511  35.380   3.740   2.792
74283W        W42512  34.007   7.733  13.581
74284W        W42513   4.655  16.675   1.795
74285W        W42514   3.909  27.818  13.072
74286W        W42515  21.034   5.906  12.920
74287W        W42516  10.454   9.976   4.092
74288W        W42517  22.188   2.851   0.067
74289W        W42518  33.548   4.283   1.731
74290W        W42519  12.151   0.374   0.699
74291W        W42520  21.049  26.592  13.349
74292W        W42521   8.345  19.551  13.457
74293W        W42522  25.063  26.917  13.537
74294W        W42523  23.058  32.953  14.741
74295W        W42524   6.046  10.768  10.719
74296W        W42525  15.713   7.973   3.321
74297W        W42526   0.949  15.844  12.080
74298W        W42527  23.589  15.015  12.059
74299W        W42528  14.550  14.694  13.039
74300W        W42529   1.880  43.913  11.814
74301W        W42530  15.451   4.020  11.578
74302W        W42531   0.292  34.188  12.636
74303W        W42532  12.863  33.995   4.620
74304W        W42533   9.833   9.694   4.732
74305W        W42534   8.238  34.856   2.745
74306W        W42535  11.750  37.007   4.808
74307W        W42536  32.487   0.252  10.177
74308W        W42537   4.395   9.509  10.567
74309W        W42538  32.013  10.726  14.036
74310W        W42539  39.572  14.609  14.508
74311W        W42540   1.334  39.998   0.629
74312W        W42541  39.615  34.302  12.566
74313W        W42542   2.852   8.257  12.423
74314W        W42543   6.911   3.852  10.519
74315W        W42544  28.723  39.836  13.324
74316W        W42545  31.742  37.321   0.211
74317W        W42546  25.574  29.368  11.018
74318W        W42547  11.324  42.380   0.283
74319W        W42548  14.526  25.104   1.538
74320W        W42549  22.502  21.512  10.317
74321W        W42550  15.766  40.745   3.209
74322W        W42551  41.512  35.890   2.246
74323W        W42552  27.640  29.434   2.626
74324W        W42553   5.331  30.014   4.837
74325W        W42554   0.226  27.518   1.719
74326W        W42555  17.790  11.873   1.943
74327W        W42556   1.651  33.481  11.168
74328W        W42557  24.591  29.944  11.091
74329W        W42558  10.457  36.537   3.205
74330W        W42559  44.815  34.932  14.674
74331W        W42560  20.512  37.353   2.602
74332W        W42561   8.866  23.134   4.605
74333W        W42562  27.988   9.682  10.744
74334W        W42563  43.600  39.299   4.112
74335W        W42564  15.177  21.826   0.261
74336W        W42565  41.471  35.110   3.494
74337W        W42566  14.843   2.088   1.874
74338W        W42567   9.867   0.359  11.274
74339W        W42568  12.819  35.038  13.407
74340W        W42569  33.105  29.082   1.394
74341W        W42570  42.989  36.537   2.905
74342W        W42571  31.245  31.994  14.346
74343W        W42572  35.593  26.490   1.280
74344W        W42573  16.534  11.789   4.416
74345W        W42574  10.599   1.566  14.804
74346W        W42575  30.746  27.443  14.073
74347W        W42576  41.342  38.920  14.731
74348W        W42577  39.506   7.010  10.995
74349W        W42578  27.882  22.203   3.172
74350W        W42579  21.748   2.966  11.191
74351W        W42580  41.446  39.421   2.759
74352W        W42581  17.159  22.693  12.797
74353W        W42582   0.876  11.120   0.722
74354W        W42583  23.528   3.849   3.679
74355W        W42584   9.343  33.052  10.660
74356W        W42585  18.721  27.569   3.353
74357W        W42586   2.878   9.693   1.441
74358W        W42587  39.536   2.157   2.771
74359W        W42588  10.955  28.835   0.208
74360W        W42589  22.475  33.563  13.468
74361W        W42590  40.525   9.217  14.419
74362W        W42591  18.039  33.006   1.447
74363W        W42592   6.160  41.561   4.115
74364W        W42593  30.082   4.918   4.107
74365W        W42594  28.431   5.372  12.942
74366W        W42595  20.519  20.170   1.027
74367W        W42596  22.528  40.985  14.952
74368W        W42597  32.743  12.193   0.699
74369W        W42598  38.816  16.791   3.345
74370W        W42599  39.768   4.649   3.896
74371W        W42600  16.039  15.311   4.141
74372W        W42601  28.135  35.874  11.134
74373W        W42602  34.915  25.062   4.197
74374W        W42603   1.295   2.129   0.807
74375W        W42604  28.998  31.653   0.904
74376W        W42605   7.304  20.160   4.683
74377W        W42606  20.344  39.673   1.487
74378W        W42607  19.761   0.358  14.446
74379W        W42608  35.589  25.980  14.037
74380W        W42609  20.135  36.629  12.412
74381W        W42610  43.000  36.818   3.607
74382W        W42611  13.850   9.318   3.718
74383W        W42612  26.310   6.720   2.901
74384W        W42613  32.763   3.308  12.666
74385W        W42614  44.732  26.944   1.531
74386W        W42615  29.404  24.763   3.137
74387W        W42616  13.956  20.105  11.407
74388W        W42617  32.958  21.602  10.633
74389W        W42618  29.008   4.285   2.261
74390W        W42619  37.249   7.861   4.061
74391W        W42620  38.194  38.571   0.815
74392W        W42621  19.540   4.868  12.623
74393W        W42622  43.098   4.035   4.356
74394W        W42623   3.063   5.398  12.329
74395W        W42624  17.088  24.731  12.594
74396W        W42625  11.582   9.146   2.101
74397W        W42626  31.428  42.079   1.676
74398W        W42627   5.793   9.956   4.071
74399W        W42628   8.764  42.809   0.604
74400W        W42629  36.802  26.244  12.025
74401W        W42630   5.171  10.893  12.101
74402W        W42631   9.365  10.964   4.086
74403W        W42632  22.524   1.849   1.425
74404W        W42633  29.444  39.976   0.869
74405W        W42634  27.622  23.578  13.839
74406W        W42635  11.748  12.301  12.626
74407W        W42636  26.873  20.696  12.007
74408W        W42637  23.571   0.034   2.357
74409W        W42638  33.559  40.830  13.509
74410W        W42639   1.341  36.439  12.020
74411W        W42640  30.027   2.939   0.849
74412W        W42641  20.588  16.024  14.300
74413W        W42642  13.810  17.687  14.582
74414W        W42643  23.039  24.022   2.898
74415W        W42644  36.035  27.048   3.825
74416W        W42645   3.984  19.039   3.425
74417W        W42646  31.122  19.014  10.605
74418W        W42647  18.173  39.957   3.243
74419W        W42648  37.129  12.398  10.871
74420W        W42649  41.465  31.078   1.098
74421W        W42650  12.922   5.759  12.886
74422W        W42651  18.167  32.352   0.805
74423W        W42652  23.559  30.601  14.898
74424W        W42653  43.455   7.972   4.545
74425W        W42654  39.938  39.129  14.321
74426W        W42655  10.614  21.898  11.466
74427W        W42656  28.429  19.522   0.420
74428W        W42657   4.902  39.292  11.098
74429W        W42658  34.834   3.665   0.898
74430W        W42659  15.617  26.430  13.814
74431W        W42660  18.202  16.589  13.205
74432W        W42661  37.412  23.814  11.989
74433W        W42662  10.967  14.802   4.966
74434W        W42663  35.502   6.970  13.865
74435W        W42664  36.288  35.570   2.788
74436W        W42665  18.272   5.299  13.152
74437W        W42666  20.615  36.828  12.471
74438W        W42667  26.903  36.407  10.673
74439W        W42668   2.731  24.233  11.171
74440W        W42669  14.277  42.977   1.376
74441W        W42670  16.731  44.879  13.064
74442W        W42671  12.604  16.760  11.943
74443W        W42672  17.757  40.897  13.274
74444W        W42673  32.452  34.922   2.963
74445W        W42674  35.870  36.580  14.854
74446W        W42675  33.040  15.997  14.401
74447W        W42676  24.461  24.978  14.780
74448W        W42677  30.165   5.394  14.488
74449W        W42678  33.919  17.911  14.155
74450W        W42679  36.271  37.990  13.434
74451W        W42680   8.912  19.907  10.730
74452W        W42681   9.201  25.877  10.780
74453W        W42682  20.295  27.228   1.741
74454W        W42683  19.294  32.118   0.793
74455W        W42684  32.205  17.501  12.494
74456W        W42685  43.941  31.572   5.159
74457W        W42686   1.947  34.526   2.830
74458W        W42687  43.352  41.864   2.459
74459W        W42688   3.177   3.359   1.344
74460W        W42689  23.949   5.887   4.256
74461W        W42690  20.524   1.725  14.279
74462W        W42691  44.924   0.495   1.700
74463W        W42692   1.416  39.457   1.282
74464W        W42693  37.317  24.199  11.127
74465W        W42694  12.314  38.700  14.805
74466W        W42695  16.880  32.389   2.461
74467W        W42696  28.700   6.661  13.467
74468W        W42697  17.262   8.557  13.849
74469W        W42698  27.188  37.949   1.021
74470W        W42699   8.092  10.939  13.900
74471W        W42700  13.631  18.187  14.741
74472W        W42701  43.449  17.827   2.634
74473W        W42702  44.860  36.709   0.924
74474W        W42703  12.476  21.752   2.884
74475W        W42704   9.838  11.745  12.441
74476W        W42705  14.092  13.108   1.364
74477W        W42706   1.351  28.481  11.489
74478W        W42707  33.421  40.276  10.427
74479W        W42708   1.932  43.244   1.430
74480W        W42709  38.452  44.161   1.331
74481W        W42710  35.941  35.568  12.995
74482W        W42711  43.814  10.700   2.262
74483W        W42712  30.491  15.538  12.747
74484W        W42713   0.425  11.816  13.041
74485W        W42714   4.839   4.509   4.114
74486W        W42715  10.102  24.258  10.301
74487W        W42716  43.508  41.204   4.109
74488W        W42717  26.723  39.953   0.233
74489W        W42718  37.011  17.938   1.821
74490W        W42719  25.669  25.344  10.697
74491W        W42720   8.984   0.403  11.070
74492W        W42721  11.180  16.246  10.469
74493W        W42722  28.181  28.103  11.066
74494W        W42723   0.268   3.078  14.014
74495W        W42724  30.450  12.682  11.171
74496W        W42725  22.247  11.309  14.020
74497W        W42726  10.331   9.164   0.685
74498W        W42727  28.655  13.268   0.865
74499W        W42728  32.401  13.581   0.828
74500W        W42729  15.739   3.934  14.023
74501W        W42730  26.192   8.156   1.360
74502W        W42731   4.466  10.332  14.589
74503W        W42732  40.733   8.742  14.412
74504W        W42733  11.892  30.923   3.898
74505W        W42734  12.192   6.149   1.192
74506W        W42735  13.596  16.913   2.907
74507W        W42736  44.407  37.425   4.599
74508W        W42737   9.345  43.058  14.451
74509W        W42738  12.171  33.925   1.163
74510W        W42739  17.643  35.466   4.268
74511W        W42740  19.067   4.399   1.436
74512W        W42741  44.280   3.316   3.811
74513W        W42742  44.619   9.840   9.930
74514W        W42743  34.349   7.898   2.785
74515W        W42744   1.805   7.801   2.753
74516W        W42745  27.811  39.939  13.581
74517W        W42746  15.266  22.066   4.143
74518W        W42747  28.239  29.153  12.078
74519W        W42748   4.700  43.443   0.339
74520W        W42749   7.837  23.126  10.501
74521W        W42750  12.645  32.105  14.132
74522W        W42751  30.547  30.796  14.548
74523W        W42752   1.636  23.268   3.638
74524W        W42753  41.753   9.974  14.377
74525W        W42754  30.402  14.829   1.832
74526W        W42755  11.651  32.599  12.790
74527W        W42756  29.437   6.653  10.977
74528W        W42757  29.823   7.083   2.352
74529W        W42758  27.989  14.567  14.980
74530W        W42759  17.953  19.666  10.660
74531W        W42760  25.561  25.989   3.918
74532W        W42761  20.739  26.179  11.806
74533W        W42762  32.439  39.379  10.684
74534W        W42763  31.062  37.377   9.944
74535W        W42764  12.590  17.733   0.318
74536W        W42765   2.141  10.726   3.867
74537W        W42766  11.636  44.340  10.590
74538W        W42767   2.159  21.448  13.909
74539W        W42768  28.365  14.340   0.716
74540W        W42769  42.545  30.006  11.517
74541W        W42770  34.078  15.800  10.633
74542W        W42771   1.655  22.731   1.212
74543W        W42772   8.133  15.247  10.516
74544W        W42773  22.600  26.181  11.583
74545W        W42774  28.881   7.741   4.718
74546W        W42775  16.058  41.768  13.895
74547W        W42776  13.755  18.599   0.023
74548W        W42777  33.216  30.035  10.981
74549W        W42778   5.824  21.353  13.138
74550W        W42779   6.891  18.814   0.668
74551W        W42780  40.968   4.437  14.500
74552W        W42781  43.865  31.797   0.505
74553W        W42782  24.198  19.587   2.775
74554W        W42783  33.375  20.211  14.330
74555W        W42784   5.258   4.262   1.722
74556W        W42785  14.795  28.701   0.323
74557W        W42786  11.887  13.009   3.980
74558W        W42787   0.225  33.550   3.751
74559W        W42788  42.294  10.702  14.889
74560W        W42789   0.912  20.755  13.335
74561W        W42790  44.001  24.218  11.088
74562W        W42791  38.960  17.262   2.663
74563W        W42792   8.917   7.479  12.535
74564W        W42793  41.760   0.877   0.581
74565W        W42794  31.558  15.729   2.192
74566W        W42795  38.967   3.968   4.723
74567W        W42796  15.191   8.920  12.373
74568W        W42797  30.950   8.922  10.763
74569W        W42798  13.067  10.933  12.538
74570W        W42799   4.260   3.794   1.408
74571W        W42800  38.899   3.346   2.846
74572W        W42801  42.832  13.888  13.349
74573W        W42802   9.246  24.795  10.719
74574W        W42803  33.114  27.194  12.882
74575W        W42804  18.030  34.811   1.267
74576W        W42805  33.136  40.554  11.097
74577W        W42806  34.072   6.917   4.551
74578W        W42807  39.316  23.076   3.336
74579W        W42808  40.466   6.987  10.001
74580W        W42809   0.921  33.908  10.607
74581W        W42810  27.153  20.297   3.323
74582W        W42811  22.062  43.996   4.379
74583W        W42812  21.213  12.877   1.406
74584W        W42813   8.888  17.766  12.994
74585W        W42814   6.674   1.082   2.119
74586W        W42815  38.028  14.766   0.896
74587W        W42816  31.023  13.591   0.867
74588W        W42817  24.344  43.446  13.413
74589W        W42818  24.674   5.300  14.587
74590W        W42819  21.836  32.078   2.574
74591W        W42820  29.494  12.656  13.324
74592W        W42821  12.328  39.717  13.441
74593W        W42822   3.650  35.780  12.018
74594W        W42823  22.534  34.393   4.143
74595W        W42824  29.285  36.416   3.133
74596W        W42825   6.353  23.612  10.140
74597W        W42826   3.191  15.671  14.437
74598W        W42827  34.020  36.783   1.903
74599W        W42828  42.991  13.375  13.378
74600W        W42829  40.558  34.911  13.405
74601W        W42830  36.540   0.275   2.153
74602W        W42831  12.081  31.527  12.923
74603W        W42832   4.206  38.089  11.695
74604W        W42833  43.555  24.588   3.619
74605W        W42834   8.945  12.698  11.535
74606W        W42835  43.883  38.989  12.907
74607W        W42836  21.563  28.604  13.359
74608W        W42837  43.546  17.391  13.831
74609W        W42838  20.174   8.098   2.466
74610W        W42839  20.574  26.005  13.789
74611W        W42840  19.111   5.802   2.350
74612W        W42841  30.900   8.148   4.036
74613W        W42842  36.482  10.660  13.032
74614W        W42843  26.422   1.350  11.706
74615W        W42844  26.241  23.662  14.912
74616W        W42845  24.707  25.114  12.848
74617W        W42846  25.635  31.958  12.906
74618W        W42847  26.592  25.223   9.923
74619W        W42848  41.055  32.673   4.173
74620W        W42849  24.077   6.709  14.894
74621W        W42850  32.660  14.713   2.268
74622W        W42851  19.731  42.489   1.334
74623W        W42852  23.101  38.039   2.752
74624W        W42853  16.693  37.532   0.379
74625W        W42854   1.790  20.351  14.198
74626W        W42855   5.192   0.435  12.026
74627W        W42856  31.030   0.837  12.331
74628W        W42857  30.465  32.528   0.253
74629W        W42858   1.293   3.521  12.135
74630W        W42859  34.457   4.935  12.037
74631W        W42860  20.639  37.500  10.941
74632W        W42861  30.467  35.897  14.042
74633W        W42862  10.655  29.115  11.372
74634W        W42863  16.187  17.809  11.900
74635W        W42864  31.730  31.346   4.148
74636W        W42865  16.845   2.796   2.328
74637W        W42866  15.889  18.596  14.437
74638W        W42867  26.508  40.280   3.660
74639W        W42868  44.616  34.582   3.024
74640W        W42869  28.107  25.356   0.791
74641W        W42870  24.817  31.446  13.155
74642W        W42871   4.208  41.147  13.501
74643W        W42872  30.941  35.592   4.593
74644W        W42873   5.956  25.604   0.452
74645W        W42874  15.538  41.550  14.967
74646W        W42875  29.949  15.634   3.744
74647W        W42876  38.852  39.614   0.279
74648W        W42877  14.740  11.420   4.205
74649W        W42878  32.451  38.336   2.111
74650W        W42879  24.151  39.864  12.876
74651W        W42880  37.797   3.782   4.772
74652W        W42881   5.276  36.539  11.117
74653W        W42882  37.281  20.158  13.858
74654W        W42883  19.820  11.386  14.471
74655W        W42884  38.624  24.198  12.547
74656W        W42885  42.725   8.160  14.103
74657W        W42886   2.038  32.903  14.285
74658W        W42887  35.084   8.886  13.386
74659W        W42888  35.848  17.864  14.819
74660W        W42889  28.487  33.796  12.864
74661W        W42890  32.980  19.138   9.861
74662W        W42891  40.836  20.207  11.690
74663W        W42892  32.948  23.916   3.827
74664W        W42893  33.443   2.670  13.991
74665W        W42894  39.922  16.615   2.431
74666W        W42895  17.995   9.645   1.295
74667W        W42896  21.035  14.587   0.205
74668W        W42897  21.002  18.309   2.366
74669W        W42898  11.939  44.314  13.367
74670W        W42899  12.311  11.372  11.635
74671W        W42900  42.022   8.688   0.399
74672W        W42901  41.340   6.867   2.644
74673W        W42902  33.256  14.107   9.928
74674W        W42903  31.553  14.438   5.415
74675W        W42904  19.271  39.091   1.837
74676W        W42905  38.500  18.726   4.210
74677W        W42906   5.159  19.570  12.296
74678W        W42907  22.243  44.023  14.491
74679W        W42908   2.352  24.990  13.624
74680W        W42909   0.911  38.066  12.986
74681W        W42910   5.419  16.185   0.893
74682W        W42911  19.811  28.666  14.113
74683W        W42912   0.125   2.204   0.505
74684W        W42913  11.171   9.320   3.271
74685W        W42914  28.481  37.282  12.457
74686W        W42915   3.485  14.142   3.719
74687W        W42916  22.320  32.672  13.282
74688W        W42917   6.012  16.573  14.094
74689W        W42918  41.401  20.720  11.930
74690W        W42919  35.200  34.506  12.129
74691W        W42920  40.370  13.567  14.860
74692W        W42921  14.832  31.158   4.440
74693W        W42922  35.657  23.656   3.237
74694W        W42923   7.596   3.187  13.936
74695W        W42924  12.995  40.114  10.727
74696W        W42925  42.406  10.907   3.297
74697W        W42926  17.523  34.604   0.421
74698W        W42927  16.556   5.169   1.781
74699W        W42928   1.069  28.917  11.656
74700W        W42929  12.167  29.951   3.623
74701W        W42930   8.369  10.913   4.141
74702W        W42931  25.473  26.581   3.930
74703W        W42932  14.638   2.249   2.699
74704W        W42933  40.272   9.488   4.580
74705W        W42934  28.133  16.786  14.182
74706W        W42935   8.236  42.569   3.961
74707W        W42936  21.821  36.441   4.372
74708W        W42937   6.522  42.978  13.430
74709W        W42938  18.008  35.901  12.173
74710W        W42939  18.919  29.059  14.434
74711W        W42940   3.960  24.180   3.647
74712W        W42941  33.230   6.689  11.541
74713W        W42942  30.622  44.464   3.170
74714W        W42943  38.401  32.723  13.842
74715W        W42944  37.398   5.296  11.271
74716W        W42945  33.519  12.608  10.776
74717W        W42946   4.172  17.093   1.964
74718W        W42947  22.608  38.763  12.904
74719W        W42948  42.194   7.365   5.048
74720W        W42949  43.384   0.975   3.067
74721W        W42950  39.502  12.067  13.104
74722W        W42951  22.172   3.715  13.119
74723W        W42952   8.671  43.020   2.293
74724W        W42953   5.878  28.028   3.826
74725W        W42954   8.469  44.401  10.632
74726W        W42955   8.006  29.615   4.244
74727W        W42956  16.988   7.164  11.978
74728W        W42957  34.991  15.174   3.558
74729W        W42958  38.317  31.512   0.968
74730W        W42959  19.950  35.120  13.185
74731W        W42960  20.732  37.448  11.448
74732W        W42961  16.672  43.584   2.806
74733W        W42962  38.011  39.311  14.450
74734W        W42963  18.201  24.992   2.675
74735W        W42964  24.773   2.734  11.487
74736W        W42965  17.790  33.983  11.074
74737W        W42966  21.753  32.437   3.605
74738W        W42967  15.237   5.268   0.909
74739W        W42968   1.376   8.631  11.232
74740W        W42969  33.916  41.789   4.113
74741W        W42970  16.509  43.731  12.366
74742W        W42971  35.964  43.200   1.685
74743W        W42972  44.185  33.624  11.539
74744W        W42973  12.986  13.134  13.601
74745W        W42974   9.822  37.841  11.049
74746W        W42975  14.223  32.205   0.952
74747W        W42976  18.734  15.086  14.454
74748W        W42977  29.333  30.521  12.646
74749W        W42978   3.215  36.147   2.602
74750W        W42979   0.526  22.380  10.707
74751W        W42980  15.105  23.548   1.329
74752W        W42981  35.944  29.705   2.870
74753W        W42982  35.604   1.717  12.569
74754W        W42983   1.599   2.710  13.471
74755W        W42984  15.563  15.266  10.212
74756W        W42985  25.943  39.592  12.504
74757W        W42986  16.284  11.224   1.732
74758W        W42987   2.672  25.628   3.654
74759W        W42988  30.052  21.674   0.400
74760W        W42989  26.422   2.222   4.177
74761W        W42990  41.830  38.567  13.016
74762W        W42991  29.067  15.871   4.635
74763W        W42992   5.203  19.175   2.255
74764W        W42993   5.729   8.926  12.415
74765W        W42994  33.908  10.445  11.556
74766W        W42995  10.786  26.892   3.163
74767W        W42996  39.655  24.798   0.811
74768W        W42997  10.916  26.778   2.353
74769W        W42998  33.479  38.341  13.352
74770W        W42999  12.617  39.501  13.812
74771W        W43000  17.251   4.525  12.014
74772W        W43001  31.422  22.759  10.416
74773W        W43002  41.251  22.568   3.373
74774W        W43003  31.602  18.640  14.139
74775W        W43004  40.747  40.002   2.839
74776W        W43005   3.216   0.729  12.664
74777W        W43006  20.498  29.788  11.293
74778W        W43007   9.750  17.004   4.881
74779W        W43008  19.561  43.519   1.492
74780W        W43009  31.529  21.522   0.406
74781W        W43010  14.777   4.410   2.248
74782W        W43011   6.787  21.271   1.329
74783W        W43012  12.532  34.952   4.578
74784W        W43013   6.845  23.046   3.028
74785W        W43014  35.249   7.899  14.019
74786W        W43015  20.575  12.677   2.642
74787W        W43016  12.144   0.900  12.956
74788W        W43017  34.867   9.202  12.442
74789W        W43018  29.946  38.509   4.127
74790W        W43019   7.847  29.531   0.724
74791W        W43020   2.394   5.984   1.544
74792W        W43021   2.983  31.067  12.219
74793W        W43022   5.283  36.170  13.404
74794W        W43023   9.023  22.516  12.138
74795W        W43024  42.266  21.205   0.324
74796W        W43025  40.435  22.533  11.622
74797W        W43026  39.909  35.690   2.443
74798W        W43027   6.320  26.022  12.509
74799W        W43028  44.892  37.456   3.274
74800W        W43029  25.411   7.239   2.050
74801W        W43030  24.391  10.105   3.112
74802W        W43031  21.742  34.956   2.636
74803W        W43032  28.578  40.362  12.388
74804W        W43033  34.170  29.251   4.217
74805W        W43034  21.069  23.179  13.387
74806W        W43035  31.459  22.277   4.140
74807W        W43036  40.592  41.013  10.657
74808W        W43037  17.933  23.163   4.873
74809W        W43038  29.514  11.264   0.160
74810W        W43039  23.488  42.861   0.666
74811W        W43040  33.226  24.541  12.991
74812W        W43041  40.921  16.958  13.314
74813W        W43042  23.493  23.335   2.826
74814W        W43043   6.666   3.943   4.306
74815W        W43044  38.927  15.119   4.021
74816W        W43045  13.820  23.245   2.712
74817W        W43046  32.080   1.260  13.013
74818W        W43047  31.524  36.017   0.390
74819W        W43048  10.133  44.229  10.383
74820W        W43049  20.489  30.401   2.864
74821W        W43050  34.364  18.777  12.345
74822W        W43051  31.350  44.286   4.146
74823W        W43052  15.606  11.369   0.850
74824W        W43053  32.574  18.541  13.959
74825W        W43054  37.810  19.902  12.459
74826W        W43055  23.090   1.769  12.673
74827W        W43056   5.059   6.788  11.952
74828W        W43057  34.129   7.056  14.503
74829W        W43058  21.849  29.905  11.323
74830W        W43059  29.933  39.320   4.521
74831W        W43060  17.920  31.062  12.424
74832W        W43061  39.024   9.671  11.416
74833W        W43062  13.801  19.028   4.636
74834W        W43063  44.308   4.554   1.324
74835W        W43064  34.090  29.953   4.770
74836W        W43065  21.535  32.021   1.642
74837W        W43066  35.003   6.242  11.596
74838W        W43067  22.656  23.454   1.416
74839W        W43068  31.565  24.512  14.042
74840W        W43069   8.668  15.031  13.352
74841W        W43070   2.375  34.415   5.560
74842W        W43071  37.538  42.944   0.319
74843W        W43072  22.664  31.968   4.897
74844W        W43073  19.630   0.352   4.949
74845W        W43074  38.740   5.769  11.493
74846W        W43075   4.360  15.043   4.452
74847W        W43076  23.506  22.188   1.191
74848W        W43077  18.126   4.324  13.097
74849W        W43078  16.986  20.263   1.775
74850W        W43079  18.628   1.279   2.064
74851W        W43080   0.211  32.040  11.232
74852W        W43081  13.029  39.125   2.354
74853W        W43082  16.933  31.050  10.257
74854W        W43083  23.139  11.321  14.439
74855W        W43084  12.764  23.073   0.533
74856W        W43085  42.339  21.997  13.066
74857W        W43086   6.419  44.934  14.032
74858W        W43087   7.354   7.749  12.436
74859W        W43088  13.114  11.725   1.319
74860W        W43089  31.434  13.096   2.122
74861W        W43090  24.937  42.456  14.973
74862W        W43091   2.190  11.033  12.614
74863W        W43092  15.278  23.482  13.967
74864W        W43093  20.754  16.804   0.369
74865W        W43094  39.519  44.702   3.276
74866W        W43095  40.424  34.312  12.917
74867W        W43096   8.152  12.815   3.681
74868W        W43097  13.150   7.293   3.155
74869W        W43098  27.197   8.355   1.439
74870W        W43099  43.857  30.847  13.946
74871W        W43100  34.500  42.275   4.065
74872W        W43101  28.402  12.384   3.984
74873W        W43102  23.494  11.211  12.611
74874W        W43103   1.280  41.334  10.740
74875W        W43104  31.287  34.406   3.254
74876W        W43105  35.431  28.491  12.811
74877W        W43106  24.202  13.316  14.027
74878W        W43107   5.506   2.736  11.671
74879W        W43108  27.985  33.660  12.942
74880W        W43109  31.188  35.597  13.921
74881W        W43110  39.365   2.469  11.040
74882W        W43111  44.903  11.849  10.675
74883W        W43112  31.587  22.478  11.396
74884W        W43113  16.992  11.810  11.987
74885W        W43114   4.217  16.418  10.819
74886W        W43115   9.574   8.477  11.530
74887W        W43116  26.434   3.539  13.957
74888W        W43117  30.615  42.884  14.227
74889W        W43118  29.227  30.422   1.251
74890W        W43119  21.592  39.566   4.686
74891W        W43120  19.657  22.975  12.456
74892W        W43121  39.164   0.411   1.375
74893W        W43122  12.348   2.705   1.398
74894W        W43123  10.026  18.720  12.561
74895W        W43124  44.072  24.391   0.334
74896W        W43125  22.447  23.975  11.575
74897W        W43126  37.542  38.359   4.011
74898W        W43127  13.083  42.868   3.861
74899W        W43128  35.257  14.393   3.938
74900W        W43129  24.906  25.193  14.053
74901W        W43130  26.304  21.708   2.861
74902W        W43131  23.411  11.029  14.951
74903W        W43132  35.490   2.387  14.051
74904W        W43133   6.409  24.231  14.294
74905W        W43134   7.315  10.606   1.238
74906W        W43135  40.482  31.320   2.386
74907W        W43136  12.629   4.854   4.236
74908W        W43137  25.154   5.403  13.951
74909W        W43138   4.191  11.404  10.704
74910W        W43139  37.444   3.568  10.770
74911W        W43140  34.101  42.745   2.326
74912W        W43141  13.861  31.137  12.093
74913W        W43142  44.155  20.382   4.191
74914W        W43143   8.900  10.697  14.472
74915W        W43144  18.079  26.215  14.478
74916W        W43145  20.685  13.267  14.975
74917W        W43146  26.627  23.677   2.591
74918W        W43147  18.702  10.639   3.229
74919W        W43148  35.806  41.385   3.371
74920W        W43149   7.803  32.782   0.387
74921W        W43150  14.686   2.780   2.586
74922W        W43151   9.660  15.620   3.871
74923W        W43152  37.963  23.671   4.604
74924W        W43153  16.536   0.722  11.630
74925W        W43154   7.456  39.082   4.025
74926W        W43155  17.535  23.715  13.417
74927W        W43156  21.119  22.657   0.857
74928W        W43157  24.239   7.846  12.846
74929W        W43158  34.266  28.346  11.536
74930W        W43159   2.313   1.262   1.905
74931W        W43160  25.111  41.897  12.725
74932W        W43161  16.543  32.427  10.275
74933W        W43162  23.200  10.241   1.002
74934W        W43163  32.043   6.406   0.946
74935W        W43164   1.672   1.431  13.798
74936W        W43165  23.077   7.416  11.501
74937W        W43166  27.715  21.652  11.000
74938W        W43167  34.906   0.126   3.555
74939W        W43168  33.096  13.555   4.314
74940W        W43169  33.087  38.870   0.886
74941W        W43170  30.414   7.255   0.943
74942W        W43171  38.922  37.752  12.566
74943W        W43172   6.790   7.403   1.964
74944W        W43173  35.996  35.247   3.704
74945W        W43174  14.498   4.148   3.102
74946W        W43175  10.334   6.091   3.781
74947W        W43176  26.489  23.320  12.866
74948W        W43177  15.687  26.631   0.252
74949W        W43178  44.754  28.447   4.086
74950W        W43179  33.145  39.929   1.233
74951W        W43180  26.448  26.035  11.953
74952W        W43181   0.900  13.315   0.193
74953W        W43182  43.714  39.750   2.863
74954W        W43183  17.518  28.704  14.007
74955W        W43184  30.652  26.116  14.463
74956W        W43185   1.261  14.833  14.305
74957W        W43186  23.533   8.227  14.943
74958W        W43187  19.293  22.955  11.188
74959W        W43188  20.942  13.962  14.808
74960W        W43189  32.059  27.774  13.457
74961W        W43190  12.217  17.754   4.134
74962W        W43191  42.789  17.125   4.586
74963W        W43192   3.299  14.156  14.718
74964W        W43193  36.514  24.226   0.846
74965W        W43194  32.697  40.510   3.728
74966W        W43195   2.962   9.881  11.756
74967W        W43196  20.676  11.352   0.362
74968W        W43197  40.217  33.570   0.375
74969W        W43198  41.875  38.377  10.784
74970W        W43199   0.852  11.360   1.175
74971W        W43200  37.584  34.587  14.431
74972W        W43201  43.221  44.561  11.113
74973W        W43202   6.812  36.629   1.735
74974W        W43203  25.693  15.499   3.815
74975W        W43204   2.548  35.062   2.131
74976W        W43205  42.917  12.612   3.714
74977W        W43206   1.756   1.649   4.795
74978W        W43207  25.587  17.003  13.140
74979W        W43208  12.917   4.809  12.925
74980W        W43209  34.637  18.177  10.382
74981W        W43210   7.329   1.524   2.150
74982W        W43211   2.806  41.791   4.341
74983W        W43212  34.041  38.743  12.019
74984W        W43213  13.783  17.184  14.796
74985W        W43214  13.395  13.968   1.910
74986W        W43215   0.082  38.578  13.339
74987W        W43216  37.718  19.713  14.164
74988W        W43217  28.291  36.404   9.967
74989W        W43218  23.933   0.781   4.279
74990W        W43219  22.979  41.486   4.234
74991W        W43220  41.065  31.663  12.140
74992W        W43221   1.789   1.935  13.950
74993W        W43222  23.203  24.618  12.821
74994W        W43223  26.197   9.161   0.781
74995W        W43224  14.715  41.811   2.744
74996W        W43225  42.377  39.180  10.379
74997W        W43226  32.215  43.064   0.521
74998W        W43227  16.191  20.864   1.887
74999W        W43228  44.014   5.681   1.303
75000W        W43229   3.446   2.569   3.541
75001W        W43230  42.007   1.252   3.133
75002W        W43231   2.957   5.872  12.517
75003W        W43232  39.471  27.842  13.928
75004W        W43233  37.808  26.238  11.584
75005W        W43234  23.752  39.412   1.743
75006W        W43235  43.873  22.764   4.344
75007W        W43236  12.225  18.844   4.050
75008W        W43237  26.220  35.655   4.169
75009W        W43238  32.343  32.826   3.633
75010W        W43239   7.967  22.342  11.609
75011W        W43240  19.657  35.382  12.687
75012W        W43241  19.391  11.870   3.229
75013W        W43242  32.254  21.218  11.794
75014W        W43243  31.435  25.493   4.072
75015W        W43244  20.644   8.796  14.903
75016W        W43245  17.242  28.897   1.026
75017W        W43246  25.990   6.940   4.626
75018W        W43247  13.118  35.353   0.181
75019W        W43248  25.265  30.879   2.678
75020W        W43249  28.976   6.826  10.733
75021W        W43250  30.464  43.541  12.441
75022W        W43251   3.883   2.691   4.156
75023W        W43252  11.731  20.194   1.422
75024W        W43253  16.337  12.756   1.116
75025W        W43254  19.038  28.446   1.800
75026W        W43255  24.642  35.341   4.070
75027W        W43256  30.447  14.605   2.793
75028W        W43257  38.212  22.902  11.501
75029W        W43258  27.202  38.292   2.135
75030W        W43259  28.514  34.820   4.462
75031W        W43260  39.967  43.096  14.823
75032W        W43261  33.979   6.304   2.123
75033W        W43262   4.849   2.303  12.030
75034W        W43263  36.150  27.046   1.944
75035W        W43264  38.585  30.528  13.377
75036W        W43265  31.685  20.754  11.111
75037W        W43266   8.142  17.531  10.705
75038W        W43267  27.558  39.540   3.694
75039W        W43268  26.022  11.364   4.092
75040W        W43269  22.804  22.991  12.597
75041W        W43270  21.477   8.207   3.212
75042W        W43271  13.270  13.314  11.382
75043W        W43272   2.650  18.381  11.776
75044W        W43273   3.760   1.117   4.112
75045W        W43274  31.507   4.243   0.521
75046W        W43275   7.879  14.734   3.859
75047W        W43276  41.534  27.690  12.846
75048W        W43277  39.090  30.491  14.757
75049W        W43278  21.796  14.306  12.108
75050W        W43279  36.430   9.757  13.034
75051W        W43280  27.629  34.157   1.330
75052W        W43281  33.724  42.274   0.930
75053W        W43282  19.738  17.895   4.500
75054W        W43283   6.226  36.042  11.913
75055W        W43284   6.802   0.896  14.859
75056W        W43285  28.270  36.995  11.634
75057W        W43286   7.282  11.370  14.318
75058W        W43287  17.508   5.433   0.834
75059W        W43288  39.458  38.489   2.207
75060W        W43289  44.174  44.689  13.474
75061W        W43290  12.329   7.733   1.863
75062W        W43291  27.136  15.557   3.160
75063W        W43292  11.161   8.356   2.117
75064W        W43293  24.020  22.707   4.820
75065W        W43294  34.069   1.462  11.556
75066W        W43295  38.723  23.479   0.389
75067W        W43296   1.745  31.581  12.312
75068W        W43297  29.115  18.145  11.823
75069W        W43298  16.170  44.751   4.651
75070W        W43299  13.568  12.135  14.942
75071W        W43300  29.181  31.886  11.616
75072W        W43301  15.389  28.892   3.473
75073W        W43302  18.146   4.218  11.765
75074W        W43303  29.890  33.444  14.002
75075W        W43304   6.137  20.625  10.988
75076W        W43305  10.062  35.881   3.589
75077W        W43306  28.690   2.478   2.385
75078W        W43307  19.173  26.590  12.874
75079W        W43308  33.013  37.948   0.317
75080W        W43309  44.362  11.271   2.817
75081W        W43310   7.435  26.378  13.115
75082W        W43311  32.079  26.065   1.166
75083W        W43312  14.416  28.657   4.324
75084W        W43313  24.238   3.326  14.260
75085W        W43314  26.022  25.217   1.604
75086W        W43315  17.571  24.521   0.273
75087W        W43316  18.945   0.292   1.243
75088W        W43317   1.581  18.487   0.067
75089W        W43318  38.588  25.042  12.463
75090W        W43319  22.981   2.264   3.710
75091W        W43320  28.648  34.680   3.154
75092W        W43321  36.384  19.955   5.138
75093W        W43322  27.548   7.182  13.967
75094W        W43323   7.883  10.828  11.095
75095W        W43324  25.075  40.834   1.899
75096W        W43325   2.780  10.540  10.645
75097W        W43326  43.238   2.428   3.638
75098W        W43327  17.981   7.186   1.345
75099W        W43328  10.752  34.440   2.718
75100W        W43329  30.466  24.199  13.899
75101W        W43330  10.277  33.200   3.864
75102W        W43331   7.666   6.708   0.968
75103W        W43332   4.117   0.735  14.972
75104W        W43333  35.395  15.390  14.142
75105W        W43334  25.726  39.433  12.063
75106W        W43335  12.057   7.622  14.862
75107W        W43336  35.776  37.824   2.641
75108W        W43337  18.551  24.352  12.615
75109W        W43338  11.379  27.779   3.190
75110W        W43339  28.959  43.849  14.865
75111W        W43340  16.237  28.748   4.756
75112W        W43341  21.150   2.332   0.269
75113W        W43342  21.041   6.763  11.548
75114W        W43343  26.285  10.384  14.599
75115W        W43344   8.619  10.089  14.071
75116W        W43345  42.383  10.238   4.651
75117W        W43346  10.588   2.772  13.870
75118W        W43347   9.750   0.377   3.701
75119W        W43348   5.881  43.355   0.350
75120W        W43349   7.311   4.822   0.168
75121W        W43350  43.226  30.141  13.039
75122W        W43351  23.602  13.273   2.306
75123W        W43352  35.596  34.022   4.694
75124W        W43353  20.703  21.125   1.729
75125W        W43354  26.927  16.229  14.734
75126W        W43355  43.861  38.510   1.311
75127W        W43356  22.885  35.185   9.940
75128W        W43357   1.558  27.246   4.177
75129W        W43358   0.881  28.005  11.838
75130W        W43359  23.469  24.530  11.061
75131W        W43360  28.711  25.569  13.051
75132W        W43361  22.266  10.312   1.764
75133W        W43362  10.083  34.373   0.479
75134W        W43363  44.738  31.541  11.054
75135W        W43364  31.478  38.641  14.041
75136W        W43365  20.339  40.595   4.897
75137W        W43366  39.008  44.824  12.967
75138W        W43367  29.071  13.189   4.189
75139W        W43368  24.696  22.346   3.741
75140W        W43369  25.128  44.200  11.583
75141W        W43370  17.629  16.605   3.798
75142W        W43371  43.945  17.681  12.919
75143W        W43372  32.034   6.386   1.899
75144W        W43373  31.269  44.374  11.039
75145W        W43374  23.704  19.175   2.804
75146W        W43375  23.927  19.758  10.623
75147W        W43376  32.527  10.294   4.437
75148W        W43377  17.553  30.963  14.780
75149W        W43378  18.165  40.529   3.650
75150W        W43379   4.806  25.940   4.499
75151W        W43380  34.897   9.927  13.956
75152W        W43381   7.834  26.198   0.355
75153W        W43382   8.243  36.407   0.517
75154W        W43383   1.931   6.609  13.620
75155W        W43384  25.594  37.536   4.069
75156W        W43385  15.528  44.316   1.388
75157W        W43386  36.553  22.764  10.738
75158W        W43387  19.107   7.984   4.625
75159W        W43388   6.399  38.350  13.910
75160W        W43389  42.364  42.464  14.048
75161W        W43390   9.964  25.784   4.989
75162W        W43391  26.109  12.677   2.671
75163W        W43392  18.747  34.870  11.989
75164W        W43393  31.373  37.064   3.704
75165W        W43394   0.890  22.550   0.797
75166W        W43395  15.823  26.512  14.285
75167W        W43396  12.051  27.596   4.354
75168W        W43397   9.259  28.900  12.531
75169W        W43398  36.943  40.373   3.113
75170W        W43399  37.298  28.755  11.202
75171W        W43400  23.596  11.135   3.328
75172W        W43401  39.087   9.297   1.888
75173W        W43402   5.665  10.636  13.414
75174W        W43403  29.252  39.223  10.683
75175W        W43404  44.380   4.670   1.819
75176W        W43405  34.381  43.487   2.817
75177W        W43406   3.455  11.824   3.617
75178W        W43407  39.101  33.508  12.067
75179W        W43408  25.131  25.664  13.928
75180W        W43409  32.484  11.079   4.199
75181W        W43410  36.847  20.628  11.682
75182W        W43411  28.499   5.456   4.556
75183W        W43412   4.356  28.634   0.478
75184W        W43413  24.121  27.698  12.435
75185W        W43414   5.524  37.806  14.776
75186W        W43415  19.456   9.316   0.829
75187W        W43416  28.607  29.455   0.314
75188W        W43417  29.058  43.018  10.838
75189W        W43418  10.699  43.956   2.608
75190W        W43419  33.603  37.055   4.915
75191W        W43420  31.655   1.240   0.747
75192W        W43421  22.982  23.004  14.927
75193W        W43422  34.461  20.348   2.325
75194W        W43423   5.642   1.660  12.405
75195W        W43424  22.663   6.271   2.796
75196W        W43425  43.499  23.100   4.432
75197W        W43426  34.363  43.397  12.508
75198W        W43427  25.571  16.148  12.467
75199W        W43428  29.864  41.744  11.689
75200W        W43429  23.507  25.525   2.188
75201W        W43430  40.632  26.544   4.609
75202W        W43431  24.028  21.158  10.700
75203W        W43432  27.848  17.892   0.116
75204W        W43433   2.299  28.072  14.523
75205W        W43434  27.626  27.698  14.842
75206W        W43435  44.362   4.663  12.164
75207W        W43436  34.094  30.423  13.457
75208W        W43437  25.745  30.193  14.349
75209W        W43438  44.332   3.340  13.388
75210W        W43439   5.830  20.781   3.710
75211W        W43440  24.217  29.086  12.896
75212W        W43441  15.693  16.293  13.809
75213W        W43442  27.699   2.949  13.847
75214W        W43443   8.865  11.732   4.098
75215W        W43444  20.434  36.496   1.437
75216W        W43445  18.083  15.418  12.026
75217W        W43446   9.326  21.455  13.590
75218W        W43447  34.362  12.927   0.885
75219W        W43448   7.913   8.688   0.684
75220W        W43449  21.026  17.528   2.668
75221W        W43450  36.383  19.029  12.973
75222W        W43451  24.763  42.733   0.442
75223W        W43452  44.364   5.418   4.097
75224W        W43453   8.921  28.540   1.988
75225W        W43454  26.649  40.473   0.346
75226W        W43455  28.962  20.095  14.528
75227W        W43456   1.851  25.041  13.961
75228W        W43457   6.877  30.156  10.675
75229W        W43458   3.808  36.596   4.234
75230W        W43459  23.107  31.965  13.349
75231W        W43460  30.949  19.106  14.258
75232W        W43461  39.735  15.142  12.464
75233W        W43462  28.036  41.385  12.055
75234W        W43463  29.591   8.365   3.300
75235W        W43464  27.155  28.533   1.811
75236W        W43465  36.336   5.122  11.113
75237W        W43466  41.236  12.745   2.400
75238W        W43467  16.545   9.773   3.157
75239W        W43468   7.052  43.733   1.768
75240W        W43469   1.299  31.846  13.024
75241W        W43470  29.498  37.082   3.539
75242W        W43471   7.328  35.665   4.107
75243W        W43472   1.779  18.075  11.979
75244W        W43473   8.185  28.010  11.545
75245W        W43474  36.990  17.846  11.012
75246W        W43475  35.902  32.663   4.108
75247W        W43476  41.339   1.858   0.719
75248W        W43477  38.426  18.573  14.342
75249W        W43478  36.355  33.992   4.856
75250W        W43479  44.999  19.148   1.814
75251W        W43480  11.704  27.560  12.058
75252W        W43481  40.084  41.972  12.920
75253W        W43482  40.983  26.029   2.242
75254W        W43483  34.491  42.491   1.272
75255W        W43484   8.062   1.763  11.640
75256W        W43485  24.612  17.620   1.297
75257W        W43486  26.327  35.136   1.854
75258W        W43487  17.634   2.975  10.724
75259W        W43488  21.928   1.923   4.624
75260W        W43489  21.786  10.881   3.306
75261W        W43490   0.011  28.623  14.949
75262W        W43491  42.035  22.466   2.829
75263W        W43492  40.000   8.796   3.581
75264W        W43493  28.457   3.117   4.884
75265W        W43494   1.344   4.373   0.293
75266W        W43495  34.567  29.553  11.687
75267W        W43496   8.360  37.992   0.843
75268W        W43497  22.630  34.080  13.343
75269W        W43498  31.312  17.580   2.799
75270W        W43499  33.373  40.412   0.922
75271W        W43500  16.520  34.075   1.230
75272W        W43501  25.582  22.617  11.556
75273W        W43502  13.173  16.679  13.337
75274W        W43503   0.179  17.250  10.564
75275W        W43504  16.313  38.026   4.295
75276W        W43505  21.120  24.615  12.590
75277W        W43506  22.633  27.122   4.586
75278W        W43507   6.895  20.277   1.226
75279W        W43508  36.318  30.104  14.715
75280W        W43509   1.430   4.932   0.941
75281W        W43510  24.806  12.357   2.225
75282W        W43511  16.998  41.926   1.548
75283W        W43512  37.431  44.118   4.789
75284W        W43513  31.638  15.548   4.061
75285W        W43514  43.897   9.666  13.895
75286W        W43515  20.698  12.146   0.905
75287W        W43516  16.671  40.383  12.103
75288W        W43517  44.360   0.518  12.182
75289W        W43518  17.067  17.108  14.479
75290W        W43519  23.280  25.261   3.375
75291W        W43520  10.341  20.685  14.701
75292W        W43521   1.337  25.079   4.407
75293W        W43522  44.770  20.069   2.271
75294W        W43523  32.886  16.335  11.882
75295W        W43524  16.210   8.661  12.979
75296W        W43525  20.076  41.674  13.525
75297W        W43526  40.266   1.577   2.712
75298W        W43527  43.484  37.073  12.042
75299W        W43528   2.934  27.142  11.573
75300W        W43529  38.795  20.448  11.213
75301W        W43530  28.348  16.376   2.419
75302W        W43531  22.119  14.973   0.409
75303W        W43532  16.854  12.566   1.599
75304W        W43533  37.993  36.121   2.282
75305W        W43534   2.315  34.514  11.510
75306W        W43535  44.432  38.603   0.404
75307W        W43536  18.503  27.142  14.710
75308W        W43537  32.793   9.704  12.930
75309W        W43538   2.469  10.913   1.711
75310W        W43539  12.810  40.597  12.282
75311W        W43540  20.224  32.947  13.059
75312W        W43541  43.281   1.094   2.553
75313W        W43542  17.824  17.634  14.726
75314W        W43543  43.768  12.314  12.624
75315W        W43544  15.745  28.179   3.662
75316W        W43545  18.496   2.301  14.837
75317W        W43546  27.891  26.213  13.504
75318W        W43547  23.044   3.733   1.025
75319W        W43548   7.649  13.056   3.711
75320W        W43549   4.063   4.030   4.132
75321W        W43550   9.165  38.522   0.988
75322W        W43551  28.011   3.758   3.986
75323W        W43552  43.539  22.145   1.218
75324W        W43553  35.375  21.297   2.310
75325W        W43554  30.092  43.979   2.298
75326W        W43555  31.135   0.701  10.668
75327W        W43556  37.613   4.714   1.302
75328W        W43557  19.095  25.169   4.789
75329W        W43558  37.857  19.491   4.063
75330W        W43559  11.424  44.881   0.496
75331W        W43560  13.718   7.472  13.475
75332W        W43561  36.487  13.818   4.154
75333W        W43562  19.775  38.843   4.669
75334W        W43563   0.215   2.960  11.962
75335W        W43564   7.835   5.812   0.974
75336W        W43565  30.140  16.569   2.568
75337W        W43566  16.698  29.192   3.928
75338W        W43567   2.219  18.150  13.948
75339W        W43568   3.340  34.043  14.599
75340W        W43569  37.311  41.240   3.197
75341W        W43570  34.999   6.059  12.084
75342W        W43571  36.757  33.931   2.138
75343W        W43572  26.979  40.366  11.077
75344W        W43573  11.123  40.044   0.759
75345W        W43574  34.929  27.906   1.768
75346W        W43575   8.970  44.755   1.738
75347W        W43576  37.587  43.879   2.736
75348W        W43577   2.979   5.458  12.873
75349W        W43578  25.471  44.881   3.505
75350W        W43579  11.864  14.052   5.066
75351W        W43580  30.736   2.386  11.611
75352W        W43581  12.760   7.661   4.990
75353W        W43582  23.405  11.857  13.045
75354W        W43583  20.331  21.529   0.822
75355W        W43584  35.240  32.513  12.471
75356W        W43585  16.602   6.783   3.242
75357W        W43586  34.688   3.782   3.364
75358W        W43587  40.095  37.487  12.908
75359W        W43588   8.514  43.907   4.228
75360W        W43589  38.711   8.104  12.020
75361W        W43590   4.918  10.165  14.378
75362W        W43591  21.117  23.171  10.465
75363W        W43592  22.769  14.597   2.778
75364W        W43593  17.350  33.119  11.148
75365W        W43594  37.547  28.988   3.710
75366W        W43595  22.181  21.568  13.499
75367W        W43596  20.005  27.057   3.545
75368W        W43597   8.265   6.162   3.600
75369W        W43598  34.940  36.690  12.984
75370W        W43599  42.980  12.829  14.406
75371W        W43600   5.483  20.089   1.041
75372W        W43601  25.878  35.348  14.361
75373W        W43602  39.424  28.113   4.605
75374W        W43603  37.824  44.229   0.536
75375W        W43604  31.082  18.713   0.437
75376W        W43605   4.194  24.248  12.580
75377W        W43606   5.849   0.791   3.131
75378W        W43607  32.656   7.809  12.098
75379W        W43608  32.868  23.741   1.772
75380W        W43609  44.363  19.530  12.338
75381W        W43610  31.552   1.376  11.294
75382W        W43611   9.864  41.190  11.056
75383W        W43612   2.881  21.162   2.687
75384W        W43613   2.831   3.994  11.439
75385W        W43614  11.357   4.288   2.812
75386W        W43615  31.614   9.684   2.729
75387W        W43616  21.148   9.809  13.566
75388W        W43617  43.216  25.968   2.190
75389W        W43618  28.961  38.808   4.730
75390W        W43619  41.580   5.609   3.352
75391W        W43620  40.907  29.603  14.709
75392W        W43621  35.754   4.482  13.906
75393W        W43622  38.690  23.436   5.093
75394W        W43623   9.232  33.125   0.022
75395W        W43624  33.500  39.807  10.638
75396W        W43625  23.646  33.022   0.489
75397W        W43626  10.927  20.248   2.494
75398W        W43627  39.942  19.506  12.391
75399W        W43628   5.429  29.549  11.353
75400W        W43629  22.239   9.901  12.440
75401W        W43630   1.184  32.129   4.538
75402W        W43631  16.739  21.609  11.019
75403W        W43632   6.726  33.120  12.570
75404W        W43633  15.704   4.167  13.562
75405W        W43634  36.142  39.898   4.825
75406W        W43635  28.893  33.350  11.611
75407W        W43636  16.180  19.481   2.418
75408W        W43637  39.518  15.749   0.201
75409W        W43638  28.602  37.992  13.048
75410W        W43639  30.019  14.332  12.903
75411W        W43640   9.244   1.718   1.872
75412W        W43641   1.896  26.230   1.550
75413W        W43642  20.198  26.835  14.348
75414W        W43643  20.587  32.980   3.828
75415W        W43644   0.501  33.340  13.888
75416W        W43645  18.743   6.304   2.988
75417W        W43646  18.820  27.574  14.780
75418W        W43647  13.156  29.697   0.926
75419W        W43648  43.035  23.160  13.608
75420W        W43649  21.607  11.237  11.690
75421W        W43650  22.197  10.659   0.943
75422W        W43651   0.408  40.421  13.194
75423W        W43652  35.358  37.873  12.594
75424W        W43653  17.205  16.977  13.699
75425W        W43654   0.377   6.120  14.822
75426W        W43655  30.106  38.316  11.222
75427W        W43656  11.563  15.044   4.217
75428W        W43657  14.324  25.580   3.817
75429W        W43658  33.407   0.040  11.527
75430W        W43659  43.800   5.881  14.738
75431W        W43660  21.733  36.470   1.957
75432W        W43661   9.391  39.875  11.589
75433W        W43662   3.548   5.321  12.157
75434W        W43663  15.155   0.623  13.457
75435W        W43664  30.936  23.157   2.830
75436W        W43665   3.697  18.573   2.845
75437W        W43666  13.760  30.367  11.180
75438W        W43667  27.110   4.724   0.690
75439W        W43668   3.781  27.852  10.765
75440W        W43669  16.038  34.875  11.720
75441W        W43670  16.575  13.742   3.735
75442W        W43671  10.584  15.637   3.459
75443W        W43672  26.276  39.307   2.364
75444W        W43673  17.747   9.715  10.739
75445W        W43674   1.316  11.758   4.674
75446W        W43675  36.803  40.247   0.414
75447W        W43676  30.191  18.337   2.893
75448W        W43677   0.854  23.583   3.420
75449W        W43678  15.236  16.493  12.616
75450W        W43679  41.444  38.808   0.238
75451W        W43680  40.667  19.546   4.809
75452W        W43681  32.683  34.917   4.335
75453W        W43682   0.321   5.334  13.901
75454W        W43683   9.410  13.090  14.072
75455W        W43684  32.116   0.717   1.167
75456W        W43685   3.877  25.187  10.143
75457W        W43686  34.815  27.521   2.613
75458W        W43687  10.447  44.484   3.228
75459W        W43688   1.630  37.106   9.755
75460W        W43689   8.647  35.565  13.823
75461W        W43690  27.660  22.565   4.101
75462W        W43691  44.468  12.026  14.970
75463W        W43692  28.382   0.301   0.039
75464W        W43693  27.966  32.918   2.319
75465W        W43694  27.133   2.830   4.566
75466W        W43695   9.081   9.542   0.696
75467W        W43696  35.553   2.683  12.380
75468W        W43697  26.477  30.564   0.760
75469W        W43698  36.193  44.394  14.124
75470W        W43699  44.497   4.399  13.893
75471W        W43700  22.202  17.540   0.292
75472W        W43701   4.913  16.647  10.810
75473W        W43702  29.436  32.622  11.427
75474W        W43703   4.960  18.768  14.369
75475W        W43704   4.964   4.490  13.518
75476W        W43705   8.323  21.723   2.823
75477W        W43706  36.358   5.309  13.350
75478W        W43707  44.682  34.061  11.982
75479W        W43708   9.281  16.793  11.781
75480W        W43709  18.151  33.325  14.564
75481W        W43710  41.604  42.336   1.910
75482W        W43711   2.196  10.327   1.254
75483W        W43712   7.327  32.088   9.912
75484W        W43713  41.582   8.881  12.395
75485W        W43714  21.665  41.072   1.302
75486W        W43715  18.682   4.979   4.607
75487W        W43716   8.883  35.322  14.221
75488W        W43717  21.677  20.259  11.573
75489W        W43718  40.523   0.418   3.768
75490W        W43719  33.866  23.764  11.145
75491W        W43720  40.995  41.021  13.932
75492W        W43721  37.509  15.563  14.872
75493W        W43722  21.270  42.876  12.677
75494W        W43723  32.656   6.473  13.133
75495W        W43724  37.169  32.252   2.008
75496W        W43725  23.270  32.868  12.284
75497W        W43726  38.372  38.981  14.797
75498W        W43727  42.695  17.999  10.930
75499W        W43728  29.553  17.721   4.398
75500W        W43729  41.083  32.592   2.413
75501W        W43730  20.226   3.728  14.296
75502W        W43731  19.804  44.730   3.546
75503W        W43732  39.185   4.923   5.113
75504W        W43733   1.464   5.159   4.622
75505W        W43734   5.390   0.269  12.936
75506W        W43735  18.235  26.987   0.400
75507W        W43736  20.207  17.643  11.085
75508W        W43737  43.837  13.241   2.632
75509W        W43738  24.936  35.651   3.788
75510W        W43739  27.928  20.461   1.178
75511W        W43740  16.601  29.709   0.176
75512W        W43741  23.885  38.473  13.743
75513W        W43742  24.537  35.558  13.649
75514W        W43743   4.804  13.887  11.537
75515W        W43744   9.569  40.491   4.086
75516W        W43745  32.105  12.765   3.814
75517W        W43746  40.503  31.643   2.795
75518W        W43747  43.400  15.331   0.886
75519W        W43748  40.950  16.992   2.214
75520W        W43749  38.035  18.571   0.066
75521W        W43750  31.316  37.751  13.441
75522W        W43751  18.080  25.170   0.665
75523W        W43752  23.096  12.320   5.528
75524W        W43753  21.505  28.370   3.670
75525W        W43754  12.081  35.603  13.004
75526W        W43755   1.305  33.844  10.246
75527W        W43756  43.278  24.263  14.904
75528W        W43757  17.119  33.074   2.267
75529W        W43758   4.065   9.895   3.414
75530W        W43759  32.909  38.916  12.827
75531W        W43760  18.511  31.942   2.186
75532W        W43761   6.343  38.839  12.012
75533W        W43762  38.921  44.212   1.741
75534W        W43763  27.128  21.048   3.664
75535W        W43764  10.710  15.765  14.011
75536W        W43765  24.287  34.161   1.372
75537W        W43766  29.679  39.326  14.824
75538W        W43767  15.633  35.392   4.130
75539W        W43768  40.595   5.342  14.890
75540W        W43769  10.631  40.332  14.733
75541W        W43770  13.686  14.490  13.410
75542W        W43771  32.007  38.562   2.278
75543W        W43772  40.797   4.883  14.722
75544W        W43773  13.110  32.400   0.364
75545W        W43774  30.404  26.992  11.601
75546W        W43775  44.273  14.054  14.203
75547W        W43776   7.905  27.603  10.628
75548W        W43777  38.235  22.422  10.206
75549W        W43778   2.002  35.098  13.723
75550W        W43779   1.229  19.491  13.071
75551W        W43780   3.961   6.438  10.830
75552W        W43781  31.365  38.424   2.682
75553W        W43782  25.761   9.864  12.831
75554W        W43783  30.669  32.670   4.056
75555W        W43784  23.317  27.189  10.817
75556W        W43785  27.021   6.387  14.830
75557W        W43786  27.004  31.530   2.884
75558W        W43787  33.048  29.503   1.905
75559W        W43788  28.872  37.107  14.895
75560W        W43789  44.874  32.344   4.238
75561W        W43790  37.799  38.082   1.864
75562W        W43791  12.212  19.290   4.284
75563W        W43792  24.973   2.832  13.806
75564W        W43793  22.650  10.034  12.160
75565W        W43794  40.956   0.016  10.694
75566W        W43795  42.001  30.984   2.358
75567W        W43796  26.633  21.189   3.702
75568W        W43797  34.067   7.470   4.544
75569W        W43798  15.111  44.257  12.390
75570W        W43799  32.140  37.463   3.832
75571W        W43800  25.136  42.047   3.702
75572W        W43801   8.274   5.899  14.501
75573W        W43802   3.677  25.823  12.763
75574W        W43803   5.975   9.408  13.071
75575W        W43804   0.855  40.111   1.608
75576W        W43805  39.536  41.946   3.394
75577W        W43806   9.339  43.256   2.849
75578W        W43807  20.471  18.528   1.158
75579W        W43808   3.681  35.570   3.132
75580W        W43809  29.397  43.059   4.998
75581W        W43810  41.372  11.875   1.462
75582W        W43811  36.069  31.969   2.162
75583W        W43812  16.058  39.474  12.997
75584W        W43813  19.816  15.254   1.776
75585W        W43814   8.534   5.586   2.797
75586W        W43815  20.761   9.730  11.522
75587W        W43816  32.625  39.439  11.156
75588W        W43817  15.345  39.895  12.804
75589W        W43818  23.779  18.961   4.102
75590W        W43819   0.247   9.258  11.956
75591W        W43820  25.934  16.735  11.122
75592W        W43821   3.299  33.544   1.059
75593W        W43822   9.494  26.599   4.520
75594W        W43823  29.671   7.438   0.255
75595W        W43824  25.816  15.641  14.468
75596W        W43825  36.882  19.797  10.805
75597W        W43826  14.723  22.319  11.193
75598W        W43827  38.974   7.686  11.335
75599W        W43828  14.198  37.085   5.014
75600W        W43829  43.544  43.939  11.625
75601W        W43830  26.549  18.270   4.599
75602W        W43831  17.580   5.691   3.174
75603W        W43832  29.665   4.770  10.754
75604W        W43833  10.671  13.294  13.510
75605W        W43834  37.550  16.593  11.164
75606W        W43835  15.698  28.579   2.681
75607W        W43836   8.729  23.354   0.854
75608W        W43837  21.530  25.966   0.890
75609W        W43838  20.313  39.489   0.481
75610W        W43839   7.317  34.992   2.352
75611W        W43840   6.238  36.274  12.606
75612W        W43841  24.787  41.822   0.830
75613W        W43842  35.059  25.045  10.643
75614W        W43843   2.080   4.355  11.235
75615W        W43844  21.043   0.818   4.637
75616W        W43845  11.540  28.141  12.455
75617W        W43846  31.933  40.476   3.289
75618W        W43847  41.584  29.686   4.149
75619W        W43848  30.498   3.820  13.798
75620W        W43849   9.761  20.592   1.601
75621W        W43850  20.180  13.790  13.845
75622W        W43851  16.276  21.666   2.428
75623W        W43852  21.301  43.921   2.794
75624W        W43853   9.635  10.790  10.263
75625W        W43854  22.759  22.059  13.053
75626W        W43855  27.931  26.596   4.527
75627W        W43856  10.528  20.589  11.919
75628W        W43857   3.232  16.985   1.886
75629W        W43858  20.052   7.445  14.836
75630W        W43859  26.615  19.482   3.328
75631W        W43860  14.315  27.769   2.315
75632W        W43861   2.837  21.145  14.415
75633W        W43862  23.259  22.144  14.543
75634W        W43863  20.056   4.901   4.610
75635W        W43864   9.376  39.029   1.810
75636W        W43865  28.180  23.292  11.148
75637W        W43866  43.399   9.800  12.217
75638W        W43867  43.189  41.952   3.175
75639W        W43868  31.133  38.970  11.995
75640W        W43869   7.323   2.038   0.203
75641W        W43870  33.395  40.141   0.432
75642W        W43871  20.026  31.479  12.989
75643W        W43872  41.162   7.974   4.487
75644W        W43873  24.222  23.847  11.140
75645W        W43874  38.574  12.740   1.818
75646W        W43875  36.011   9.201  10.246
75647W        W43876   8.293  23.405   3.295
75648W        W43877  43.186   4.402  12.554
75649W        W43878  44.820  14.599  11.694
75650W        W43879   7.617  14.853  11.535
75651W        W43880  35.265  11.754  14.916
75652W        W43881  10.659  27.321   3.453
75653W        W43882  31.124  44.925  12.099
75654W        W43883  17.744  29.554   0.767
75655W        W43884  11.135   6.428  14.972
75656W        W43885   6.455  27.412  14.977
75657W        W43886   5.373  32.899   4.094
75658W        W43887  39.754  14.252   4.333
75659W        W43888   3.750  33.838   0.378
75660W        W43889   5.733  25.775  10.780
75661W        W43890  31.090  35.081   4.532
75662W        W43891  23.734   0.391   0.048
75663W        W43892   8.671  32.021   3.206
75664W        W43893   0.874  12.895   1.995
75665W        W43894  35.884   0.449   4.561
75666W        W43895   6.451  14.247   3.567
75667W        W43896  40.322  21.780   4.557
75668W        W43897  43.818  35.880  12.018
75669W        W43898  15.741  36.106   1.958
75670W        W43899  38.565  35.408   4.695
75671W        W43900   0.325   6.158   3.853
75672W        W43901   3.205  43.723  13.549
75673W        W43902   2.278  38.744   3.675
75674W        W43903  19.629   5.099   3.386
75675W        W43904   8.212  27.197   2.320
75676W        W43905   1.974  31.450   4.647
75677W        W43906   9.656  22.004  10.607
75678W        W43907  25.800   5.282   0.961
75679W        W43908  24.020   9.343   1.260
75680W        W43909  29.497  11.691   0.995
75681W        W43910  28.776  17.047  11.937
75682W        W43911  28.525  34.595   4.911
75683W        W43912  14.061  24.656   2.728
75684W        W43913  40.780  28.626   1.722
75685W        W43914  31.918   8.599  14.760
75686W        W43915  21.296  12.085   1.923
75687W        W43916  27.064  32.992   3.795
75688W        W43917  20.289  18.288  12.601
75689W        W43918  44.261   3.386   9.996
75690W        W43919  14.010   6.247   4.838
75691W        W43920  15.675  35.802  14.488
75692W        W43921   0.171   0.044   2.791
75693W        W43922   1.735   2.226   4.668
75694W        W43923  35.964  32.848   3.633
75695W        W43924  20.458  15.800  12.919
75696W        W43925  42.439  19.059   2.454
75697W        W43926   2.231  13.181  14.027
75698W        W43927  36.695  11.172  13.764
75699W        W43928  23.684  19.652   0.778
75700W        W43929  37.004  31.917  12.868
75701W        W43930  25.698   2.969  12.570
75702W        W43931  33.870   7.766  14.091
75703W        W43932   7.663  14.745   2.325
75704W        W43933  11.078  36.460   0.962
75705W        W43934   4.874  14.537   0.076
75706W        W43935  12.722  40.980  10.746
75707W        W43936   9.670  14.099   2.571
75708W        W43937  42.230  11.316  14.357
75709W        W43938   8.668   4.331   4.562
75710W        W43939   5.978  44.872  11.175
75711W        W43940  13.738  20.509  10.482
75712W        W43941  13.739  27.708  14.240
75713W        W43942  20.207   8.304  12.817
75714W        W43943  41.318  22.914   2.955
75715W        W43944  20.089  35.082  10.676
75716W        W43945   9.791  16.788  11.709
75717W        W43946  23.006  18.511   4.812
75718W        W43947   2.619  32.596   1.372
75719W        W43948   7.215  36.337   4.682
75720W        W43949  28.153  14.850   3.146
75721W        W43950  22.630  30.006   4.074
75722W        W43951  42.963  43.794  10.694
75723W        W43952  34.457  27.971  13.933
75724W        W43953  14.626  18.052  13.815
75725W        W43954  15.992  25.476  13.408
75726W        W43955  26.417  15.557   0.829
75727W        W43956  14.427  11.881   2.125
75728W        W43957  39.933  28.518   1.659
75729W        W43958   7.142  15.743  11.750
75730W        W43959   2.360  12.098   0.669
75731W        W43960  40.876  15.632  11.688
75732W        W43961  22.242   5.801   1.319
75733W        W43962  39.017   1.302  10.683
75734W        W43963  44.123  16.813   0.456
75735W        W43964  38.580  12.117  13.630
75736W        W43965  36.509  21.742  12.915
75737W        W43966   7.628   5.092  14.382
75738W        W43967  30.676  11.804   1.464
75739W        W43968  25.496  12.905   1.283
75740W        W43969   7.696  13.840  10.748
75741W        W43970   9.776   8.136  14.739
75742W        W43971  44.163  37.036  10.659
75743W        W43972  13.708  29.180   2.325
75744W        W43973   8.231  39.843   0.330
75745W        W43974  38.462  37.316   3.063
75746W        W43975  33.301  38.639  11.977
75747W        W43976  17.806  34.173  12.405
75748W        W43977  23.051  28.119   2.354
75749W        W43978  22.407   4.051   0.240
75750W        W43979   8.902   1.914  13.765
75751W        W43980   2.282  39.191   4.025
75752W        W43981  39.511  42.205   4.136
75753W        W43982   7.286  26.037   1.275
75754W        W43983  14.567   3.920   4.504
75755W        W43984  14.294  27.040   0.869
75756W        W43985  42.431  41.864   2.541
75757W        W43986  23.726  19.024   0.316
75758W        W43987  37.786  35.050  14.303
75759W        W43988  10.284  19.006   2.585
75760W        W43989   8.021  37.677  11.586
75761W        W43990  29.854  13.857  11.536
75762W        W43991  17.631  31.180   1.379
75763W        W43992  10.467   1.061  14.974
75764W        W43993   6.119  29.068   1.630
75765W        W43994   8.772   2.666  11.977
75766W        W43995   8.913   3.828   3.419
75767W        W43996  23.138  23.986  12.008
75768W        W43997  13.245   5.999  12.513
75769W        W43998  35.478  18.109  13.126
75770W        W43999   9.322   6.418  13.862
75771W        W44000   5.876   2.753  13.893
75772W        W44001  41.009  12.060  12.483
75773W        W44002   4.139  11.051   2.192
75774W        W44003  43.374  39.078   4.594
75775W        W44004   5.417  10.185  13.502
75776W        W44005  26.513  16.205  12.913
75777W        W44006   9.208  15.696  10.188
75778W        W44007  12.234  18.817  10.953
75779W        W44008  29.013   5.428   4.405
75780W        W44009  12.796   4.705   1.884
75781W        W44010  13.739   5.993   2.764
75782W        W44011  22.093  38.959   3.330
75783W        W44012  35.488  15.691  13.562
75784W        W44013  44.397  32.666   1.915
75785W        W44014  28.886  12.610  13.025
75786W        W44015  37.923  31.080   0.782
75787W        W44016  22.749   0.455  10.780
75788W        W44017  27.907  35.823  12.425
75789W        W44018   7.225  39.074   4.840
75790W        W44019   7.660  42.942  10.804
75791W        W44020  31.923  25.924  14.840
75792W        W44021  40.766  39.842  13.779
75793W        W44022   9.328  14.453   1.037
75794W        W44023  17.268   8.791  13.014
75795W        W44024  18.150  39.675   4.701
75796W        W44025  12.861  31.459   1.368
75797W        W44026  17.221  12.294  11.976
75798W        W44027   4.217   9.473  11.631
75799W        W44028  16.318  22.565  11.143
75800W        W44029  41.958  40.345   2.805
75801W        W44030  23.515  36.973  13.929
75802W        W44031  37.180   0.158  14.016
75803W        W44032  29.563  18.182   2.994
75804W        W44033  32.815  19.976  13.034
75805W        W44034   3.890  31.079  11.835
75806W        W44035  12.215   5.217   2.303
75807W        W44036  38.068  12.535   1.164
75808W        W44037  10.957   1.206   3.239
75809W        W44038  17.028  41.923   2.067
75810W        W44039  36.555  13.740   2.181
75811W        W44040  14.284   6.783  10.683
75812W        W44041  21.810  34.504  14.037
75813W        W44042  41.050  35.647   0.371
75814W        W44043   4.226  13.233   4.482
75815W        W44044  43.349  33.878   4.469
75816W        W44045  16.084  41.831   1.657
75817W        W44046   1.711  37.451   1.860
75818W        W44047  35.000  34.983   4.570
75819W        W44048  23.430   1.956   0.453
75820W        W44049  22.223  29.652   1.230
75821W        W44050  20.579  13.177   1.927
75822W        W44051  18.874  29.996   3.160
75823W        W44052  19.695  27.415   2.387
75824W        W44053  41.641   4.751   3.726
75825W        W44054  30.977  29.573  14.921
75826W        W44055   8.826  11.225  12.430
75827W        W44056  26.206  13.234  12.675
75828W        W44057  31.807  20.719   2.655
75829W        W44058  33.137  13.301  11.255
75830W        W44059   7.754  10.857   0.084
75831W        W44060  44.675  22.972  12.589
75832W        W44061   3.685  33.928  10.215
75833W        W44062   7.341  38.546  12.864
75834W        W44063  13.045  27.487   2.446
75835W        W44064  20.719  25.703  11.987
75836W        W44065  38.876   1.854  12.113
75837W        W44066  26.179  38.846   2.606
75838W        W44067  38.296  12.613  14.531
75839W        W44068   8.328   2.897  11.966
75840W        W44069  24.612   7.271   0.892
75841W        W44070   2.483  44.825  14.046
75842W        W44071  21.782  40.532   0.392
75843W        W44072  16.283  38.197   2.214
75844W        W44073  23.699  32.714  11.506
75845W        W44074   2.534   1.368   2.382
75846W        W44075  27.185  14.728  14.018
75847W        W44076  32.436  38.101  12.998
75848W        W44077   9.286  18.341   3.757
75849W        W44078   8.264  38.971  12.478
75850W        W44079  31.097  42.687   2.205
75851W        W44080  23.686  29.535   2.222
75852W        W44081  31.125   6.283  14.597
75853W        W44082  21.025  34.988   1.263
75854W        W44083  25.587  28.755  14.920
75855W        W44084  43.353  24.132  13.327
75856W        W44085  22.589  41.203  14.466
75857W        W44086  35.926   0.763  12.635
75858W        W44087   1.402   3.121   0.959
75859W        W44088  14.483   5.768   0.788
75860W        W44089  18.796  16.117   4.942
75861W        W44090  17.842  41.445   2.309
75862W        W44091  34.483  29.524   0.464
75863W        W44092  11.263   4.207  11.669
75864W        W44093  43.487  39.627  11.195
75865W        W44094  25.540  31.550   2.641
75866W        W44095   3.293  33.163   2.751
75867W        W44096  14.031  19.298   2.641
75868W        W44097  14.213  21.506   0.846
75869W        W44098   4.645  29.211  11.618
75870W        W44099  11.883  34.560   2.053
75871W        W44100   6.653  35.373   2.624
75872W        W44101   6.533  21.349   2.144
75873W        W44102  23.237  31.959  12.841
75874W        W44103  35.858   3.397   0.800
75875W        W44104  29.624   0.463   4.554
75876W        W44105  11.521  19.557   2.632
75877W        W44106  31.962   0.818   0.682
75878W        W44107  17.326  22.480  13.226
75879W        W44108  40.368  14.716   1.638
75880W        W44109  31.488  28.674   0.689
75881W        W44110  33.877  13.943  11.041
75882W        W44111   2.189  44.804   3.755
75883W        W44112  29.511   2.526   3.670
75884W        W44113  29.379   7.178  13.478
75885W        W44114  26.676  10.862  13.755
75886W        W44115  19.978  37.562  13.956
75887W        W44116   8.792   8.524  13.373
75888W        W44117  44.218  22.722   3.724
75889W        W44118  27.750  21.508   1.462
75890W        W44119  43.339  16.777  10.714
75891W        W44120  30.688  11.778  12.446
75892W        W44121  42.885   8.102   1.264
75893W        W44122  15.608  16.642   0.999
75894W        W44123  29.828  16.256   0.883
75895W        W44124   3.759  24.421  11.874
75896W        W44125  35.774  18.702   3.862
75897W        W44126  18.119  16.654   3.597
75898W        W44127  24.588  34.886   2.749
75899W        W44128  37.319  39.438   1.398
75900W        W44129  37.074   4.408   4.658
75901W        W44130  15.841  19.558   3.832
75902W        W44131  10.765   2.539  10.673
75903W        W44132  21.686  14.456   1.467
75904W        W44133  37.345  23.803  13.107
75905W        W44134   2.809  23.054  14.347
75906W        W44135  10.754  26.438   0.686
75907W        W44136   0.977   4.386  12.085
75908W        W44137  22.603  16.000   3.327
75909W        W44138   3.315  38.643  12.038
75910W        W44139  19.106  21.490   3.243
75911W        W44140  15.052  31.489  14.335
75912W        W44141   3.146   9.369   1.800
75913W        W44142  20.603  13.583   4.700
75914W        W44143  17.342  32.052   1.194
75915W        W44144  41.491   3.728   4.387
75916W        W44145  15.339  43.035   4.481
75917W        W44146  21.056  24.730   2.768
75918W        W44147  33.069  15.305   3.594
75919W        W44148   7.938  38.751  11.014
75920W        W44149  24.028  37.373  11.583
75921W        W44150  14.747  38.779  10.312
75922W        W44151  16.369  31.039  11.988
75923W        W44152  10.107   4.306  14.508
75924W        W44153  36.050  27.179  14.516
75925W        W44154  25.029   0.840  10.795
75926W        W44155  17.275  23.091  10.227
75927W        W44156   4.773   6.455   0.810
75928W        W44157  24.477  21.759   4.043
75929W        W44158  22.206  11.625  10.641
75930W        W44159  26.609   7.268  14.034
75931W        W44160   6.459  26.433   1.382
75932W        W44161  37.851  38.490   3.573
75933W        W44162  32.208  36.544  12.640
75934W        W44163  15.766  17.573   3.207
75935W        W44164  34.725  33.595  14.995
75936W        W44165   3.215  29.453  11.838
75937W        W44166  18.336  31.903   0.428
75938W        W44167  28.131  34.625   5.229
75939W        W44168  25.150   4.353   3.095
75940W        W44169   4.374  13.125  12.168
75941W        W44170  11.749  44.480   2.181
75942W        W44171  28.685  42.461  12.419
75943W        W44172   5.245  40.402  12.446
75944W        W44173  16.262  18.814   0.716
75945W        W44174  19.829   3.037  11.127
75946W        W44175  36.022  37.020  12.939
75947W        W44176  12.238  38.611  12.408
75948W        W44177  33.014  14.705   2.699
75949W        W44178  13.180  42.941   0.938
75950W        W44179   7.569  34.073  11.296
75951W        W44180  21.314  40.906  10.777
75952W        W44181  14.761  34.385   4.568
75953W        W44182  33.202  30.565  12.368
75954W        W44183   2.020  16.297   4.591
75955W        W44184   1.733   7.727  12.922
75956W        W44185  30.433   7.197  11.265
75957W        W44186  20.046   3.727   2.473
75958W        W44187  26.269  43.950   2.226
75959W        W44188  15.292  34.175  13.104
75960W        W44189  25.881  29.974   0.427
75961W        W44190  16.788  25.843  14.869
75962W        W44191  11.345  12.570   0.382
75963W        W44192  29.259  35.854   4.875
75964W        W44193  26.387  20.921  13.916
75965W        W44194   5.660  15.376   4.446
75966W        W44195  14.166  19.824  10.674
75967W        W44196  10.795  42.346   2.360
75968W        W44197   4.141  21.056   0.808
75969W        W44198  21.075  32.278   1.327
75970W        W44199   7.470  14.068   2.719
75971W        W44200  27.266  37.226  12.374
75972W        W44201  10.396   5.151  14.492
75973W        W44202  37.610  40.553   2.390
75974W        W44203  28.912  30.290  11.495
75975W        W44204  41.386   1.402   1.717
75976W        W44205  33.066  39.405  13.566
75977W        W44206  33.874   2.341   3.760
75978W        W44207  18.727  31.836  14.820
75979W        W44208  20.343  29.394   2.693
75980W        W44209   8.128  34.285  13.359
75981W        W44210  10.103   8.690   0.772
75982W        W44211  28.246   3.316  11.916
75983W        W44212   1.869  36.909  12.415
75984W        W44213  30.773  12.917  13.018
75985W        W44214  29.637   2.890   4.015
75986W        W44215  41.731  10.901   3.712
75987W        W44216  12.431  22.183   0.546
75988W        W44217  25.529   6.661   9.971
75989W        W44218  33.601  20.223  14.849
75990W        W44219  15.112   8.093   1.350
75991W        W44220  12.337  24.116   1.378
75992W        W44221  29.441  18.233   2.469
75993W        W44222  38.867   0.357  12.953
75994W        W44223  36.515   6.828  11.848
75995W        W44224  33.446  10.390  14.092
75996W        W44225   0.020   0.697   4.960
75997W        W44226  31.088  22.356  12.654
75998W        W44227  29.547  11.584   3.559
75999W        W44228  38.609   5.230  13.593
76000W        W44229  32.981  37.287   4.514
76001W        W44230   2.765   9.012   0.916
76002W        W44231  30.679  31.995  12.593
76003W        W44232  20.244  27.171  13.518
76004W        W44233  11.900  25.557   4.814
76005W        W44234  11.125  15.860   4.673
76006W        W44235  30.307   7.277   1.454
76007W        W44236  31.050   7.888   2.634
76008W        W44237   4.828   9.469  13.359
76009W        W44238   7.159   9.365  14.081
76010W        W44239  37.898  37.093  12.163
76011W        W44240  22.771  43.312   2.370
76012W        W44241  18.581   2.721  11.576
76013W        W44242   7.844   3.851  14.000
76014W        W44243   3.318   8.396  11.005
76015W        W44244  41.493  20.224   3.805
76016W        W44245  14.102   8.346   4.174
76017W        W44246  20.477  36.058   1.148
76018W        W44247  24.772  33.931   3.642
76019W        W44248   3.383  34.881  10.176
76020W        W44249  43.561  27.954  12.755
76021W        W44250  16.286  36.070   4.474
76022W        W44251   9.583  15.846   2.886
76023W        W44252  27.606  25.175   3.302
76024W        W44253  40.123  14.226  14.860
76025W        W44254  35.388  22.814   2.508
76026W        W44255   3.571   0.769   5.082
76027W        W44256  15.760  23.663  11.415
76028W        W44257  24.586  16.729   4.493
76029W        W44258  28.412  12.744  14.744
76030W        W44259  27.613  32.229   1.303
76031W        W44260  27.939  42.020  12.470
76032W        W44261  19.055  34.824   1.556
76033W        W44262  10.271  11.546   0.615
76034W        W44263  28.435  37.646   0.766
76035W        W44264   1.887  40.422  14.884
76036W        W44265  12.062  12.103   3.248
76037W        W44266  19.009  18.626   4.503
76038W        W44267   8.452  20.193   2.810
76039W        W44268  10.663  17.531  13.822
76040W        W44269   9.311  36.189  13.060
76041W        W44270  28.288  27.686  12.949
76042W        W44271   6.659  18.508  11.602
76043W        W44272  11.270  41.665   3.581
76044W        W44273  28.280  37.973   2.972
76045W        W44274  37.343  33.120   2.424
76046W        W44275  23.622  22.019   3.094
76047W        W44276  40.947   5.379  11.123
76048W        W44277   4.585   4.280  10.633
76049W        W44278   2.889   4.587   3.814
76050W        W44279  41.129  18.962  12.356
76051W        W44280  36.869  14.211   2.595
76052W        W44281  22.222   2.816   3.049
76053W        W44282   0.865  15.540  13.033
76054W        W44283  27.451   3.187   2.952
76055W        W44284   8.192  38.351   1.483
76056W        W44285  39.386  43.330  11.969
76057W        W44286  44.750  20.594   3.024
76058W        W44287  18.885  35.424   2.193
76059W        W44288  26.832  20.654  10.628
76060W        W44289   8.674   3.864   4.737
76061W        W44290   3.515  20.573  12.548
76062W        W44291  42.977  10.332  11.614
76063W        W44292   3.985  23.572  13.776
76064W        W44293  13.996  26.148  14.673
76065W        W44294   4.295  17.739   0.966
76066W        W44295  26.107  37.146   4.685
76067W        W44296  41.375  18.192  13.008
76068W        W44297   5.210  36.837   1.723
76069W        W44298   4.808   5.632   1.209
76070W        W44299  19.811  13.196  10.671
76071W        W44300   0.525   8.844  12.144
76072W        W44301  38.256  39.205   0.410
76073W        W44302  27.487   7.614  11.421
76074W        W44303  37.962  44.220   4.409
76075W        W44304  43.982  30.989  13.478
76076W        W44305  17.186  30.500  14.864
76077W        W44306  21.738  32.422   4.125
76078W        W44307  38.041  28.909  12.374
76079W        W44308   0.221  39.260  13.950
76080W        W44309   2.336  30.025   0.214
76081W        W44310  39.084   8.246   2.898
76082W        W44311  37.885  32.373  14.021
76083W        W44312  36.847  35.836  10.735
76084W        W44313  12.920  27.677   1.565
76085W        W44314  10.934  18.000   1.006
76086W        W44315  21.508  10.230   5.252
76087W        W44316  25.382  20.152  13.461
76088W        W44317  14.677  19.537   3.749
76089W        W44318  13.156  25.511   2.828
76090W        W44319   7.119   8.540   0.471
76091W        W44320   1.793  33.497   4.607
76092W        W44321   3.441  28.078   4.515
76093W        W44322  20.554  35.900  13.503
76094W        W44323   7.862  34.015  13.821
76095W        W44324  16.989  14.903   4.003
76096W        W44325  19.635  44.734  13.006
76097W        W44326   2.713  13.082  11.455
76098W        W44327  32.371  15.124   1.001
76099W        W44328  42.634  16.349  13.827
76100W        W44329  24.989  12.746   1.196
76101W        W44330  19.813  25.390  10.157
76102W        W44331   9.333  41.978   2.222
76103W        W44332  10.780  14.759   3.885
76104W        W44333  40.310  24.068   4.603
76105W        W44334   0.068   5.867   4.186
76106W        W44335   6.322   3.343   1.046
76107W        W44336  37.151  27.374  13.898
76108W        W44337  32.677  33.143   2.380
76109W        W44338  31.114  36.934  12.890
76110W        W44339  43.371  28.421  11.060
76111W        W44340   2.155  44.966   3.272
76112W        W44341  18.117  41.937   4.378
76113W        W44342   1.913   6.023   1.966
76114W        W44343  16.145  31.967   0.796
76115W        W44344  23.366  40.889  13.417
76116W        W44345  19.726  16.798  11.985
76117W        W44346  27.516   1.734   2.665
76118W        W44347  13.883  28.897   1.008
76119W        W44348  13.998   1.759  12.326
76120W        W44349  42.891  22.668   3.223
76121W        W44350  12.196  41.943   0.249
76122W        W44351   7.406  14.484  11.861
76123W        W44352   2.060  28.022  11.274
76124W        W44353  41.478   9.482   0.819
76125W        W44354  19.615  39.573   3.314
76126W        W44355   9.148   2.737  14.267
76127W        W44356  43.344   8.248   1.474
76128W        W44357  36.381  40.003   4.325
76129W        W44358  23.347  19.455  13.533
76130W        W44359  20.658  37.343  11.951
76131W        W44360  37.569  32.507  14.885
76132W        W44361  30.960   4.942   2.569
76133W        W44362  19.765  13.319   2.781
76134W        W44363  40.950  17.594   3.882
76135W        W44364  44.467  36.097   2.265
76136W        W44365   1.955  26.183   1.015
76137W        W44366   3.415  23.260  10.605
76138W        W44367  26.324  38.192  12.418
76139W        W44368  39.116  19.660   1.929
76140W        W44369  37.319  23.450   1.780
76141W        W44370  27.969  39.521   0.299
76142W        W44371  31.450  41.106   1.361
76143W        W44372   0.008  11.142   3.389
76144W        W44373  11.169  34.093  12.031
76145W        W44374  23.533  28.005   2.153
76146W        W44375  28.588   0.038   4.635
76147W        W44376  24.721   3.506  14.211
76148W        W44377  25.414  12.570  11.106
76149W        W44378  10.667   9.210   1.387
76150W        W44379   5.862  14.937   3.674
76151W        W44380  35.093  44.372  14.005
76152W        W44381  11.725  14.223   0.066
76153W        W44382  28.571  24.481   3.284
76154W        W44383  32.874  31.080   3.727
76155W        W44384   1.489   2.989   2.711
76156W        W44385  19.335  15.236   4.790
76157W        W44386  14.107   1.259  14.874
76158W        W44387   3.369  31.945   0.423
76159W        W44388   8.366  23.268  12.115
76160W        W44389  30.067  36.950  14.954
76161W        W44390  36.387  40.002  12.881
76162W        W44391  20.084  32.835  11.773
76163W        W44392  25.097  13.600  11.248
76164W        W44393   5.658   8.331   1.726
76165W        W44394   5.045   6.143   1.161
76166W        W44395  41.082  34.006   3.247
76167W        W44396  19.533  16.837   3.578
76168W        W44397  17.727   0.523  12.062
76169W        W44398   2.141  44.045   2.850
76170W        W44399  44.791  32.024   2.371
76171W        W44400  38.482  34.108   1.485
76172W        W44401   2.874  23.796   1.360
76173W        W44402   2.685  10.661   2.102
76174W        W44403   1.524  17.132  11.566
76175W        W44404   6.834  29.574  13.049
76176W        W44405  20.183  22.812  10.724
76177W        W44406  10.457   0.059   4.346
76178W        W44407  11.774  32.106   4.560
76179W        W44408  26.523  33.983   2.471
76180W        W44409   2.457  10.848  11.796
76181W        W44410  27.195   0.795   1.696
76182W        W44411  36.566  15.266   0.859
76183W        W44412  12.803   0.401   1.835
76184W        W44413   5.753   3.697  11.684
76185W        W44414   3.444  27.015  14.091
76186W        W44415  16.282   9.911   1.631
76187W        W44416  19.559  28.396   0.001
76188W        W44417  17.647  44.989  11.165
76189W        W44418  31.125   3.996   0.773
76190W        W44419  22.269   8.875   5.070
76191W        W44420  43.190  28.008   3.618
76192W        W44421  25.076  20.953  14.697
76193W        W44422  33.992  14.768   3.168
76194W        W44423  35.786  15.204   4.782
76195W        W44424  19.641   7.721   0.499
76196W        W44425   7.884   6.839  11.653
76197W        W44426  11.747  39.240   4.873
76198W        W44427  29.917  37.068   3.171
76199W        W44428  35.590   7.641  12.432
76200W        W44429   5.764  43.394  10.897
76201W        W44430  20.306  31.595   4.162
76202W        W44431  17.305  22.729   1.858
76203W        W44432   0.949  22.787  13.505
76204W        W44433  43.573  36.547  10.894
76205W        W44434  43.110  34.946  13.195
76206W        W44435  44.968  25.113  12.795
76207W        W44436  21.022  11.358   3.178
76208W        W44437  31.887   7.342  14.505
76209W        W44438  11.379  42.576   0.741
76210W        W44439  13.736  16.268   3.307
76211W        W44440  32.119   2.510   5.030
76212W        W44441   2.158  15.463   3.367
76213W        W44442  18.540  37.050  14.402
76214W        W44443   4.308  42.749   1.993
76215W        W44444  18.752  41.326  11.478
76216W        W44445   4.599   1.529   3.688
76217W        W44446  18.557  18.558   1.778
76218W        W44447  39.473  10.717   4.707
76219W        W44448  27.038   5.330   0.482
76220W        W44449  35.428  13.553  12.347
76221W        W44450   7.660  20.715   3.604
76222W        W44451  42.246   4.876   3.048
76223W        W44452  31.692  41.316  10.437
76224W        W44453   6.462   5.759  14.316
76225W        W44454  25.141  44.387  13.605
76226W        W44455   7.437  18.862   4.992
76227W        W44456   9.696  10.442  10.677
76228W        W44457   4.787   7.171   0.152
76229W        W44458  30.482  42.498  12.396
76230W        W44459  41.052  28.647   0.868
76231W        W44460  24.536   5.126   0.357
76232W        W44461   8.922  11.746   2.253
76233W        W44462  36.630  12.071  13.774
76234W        W44463  15.844  28.040  13.916
76235W        W44464  31.359  29.229  11.089
76236W        W44465   2.141  38.234   3.611
76237W        W44466  25.482  33.602   2.771
76238W        W44467  33.150  20.969   1.916
76239W        W44468  14.227   2.372   3.651
76240W        W44469  35.387  39.878   4.327
76241W        W44470   4.658  33.630  13.085
76242W        W44471   9.683  25.696   1.080
76243W        W44472  44.989  16.123  13.802
76244W        W44473  17.161  16.805  11.439
76245W        W44474  16.389  13.774  14.458
76246W        W44475  26.943   0.489   2.649
76247W        W44476  19.846   7.867   5.182
76248W        W44477  44.224  23.222   2.580
76249W        W44478  30.832   4.780  12.784
76250W        W44479  13.130  12.413   3.273
76251W        W44480  36.792  14.056   3.075
76252W        W44481  15.770  16.184  12.819
76253W        W44482   5.779  28.556   2.303
76254W        W44483  25.154  30.333   1.213
76255W        W44484  13.272  16.617   1.378
76256W        W44485  41.804  34.527   1.734
76257W        W44486  15.250  44.488   0.939
76258W        W44487  26.949  11.159   1.396
76259W        W44488  12.649   2.890   4.659
76260W        W44489  37.195   4.231   0.688
76261W        W44490  30.488  21.654   4.048
76262W        W44491  24.671  41.811  13.939
76263W        W44492  11.797  25.056   0.845
76264W        W44493  33.499   0.249   1.225
76265W        W44494   5.209  23.775  12.575
76266W        W44495  31.447  28.256  10.719
76267W        W44496  44.644  17.698   0.395
76268W        W44497   3.802  39.730  10.168
76269W        W44498  32.402  15.621  11.143
76270W        W44499  29.654  30.899   4.032
76271W        W44500  26.842  39.367   0.961
76272W        W44501  13.680  13.383   1.218
76273W        W44502   4.016  30.862   2.801
76274W        W44503  34.930   2.728  10.655
76275W        W44504   4.904  33.146   0.866
76276W        W44505  23.634  39.927   3.846
76277W        W44506  31.991   6.361  11.915
76278W        W44507   3.509  39.087   0.885
76279W        W44508  22.464   6.270   5.013
76280W        W44509   2.694  37.969   1.308
76281W        W44510  14.650  40.958   0.112
76282W        W44511   3.227  43.533   4.277
76283W        W44512  31.597  33.922  12.988
76284W        W44513  38.831  17.646  14.343
76285W        W44514  37.374  37.492  11.593
76286W        W44515   5.811   2.784   1.872
76287W        W44516   5.004   8.091   4.970
76288W        W44517  12.641  20.367  12.546
76289W        W44518  14.506  12.865   3.122
76290W        W44519  38.178  22.021  11.560
76291W        W44520   1.244   5.814   1.385
76292W        W44521  17.222  24.944   1.788
76293W        W44522  20.203  20.973   1.793
76294W        W44523   0.716  39.421  12.581
76295W        W44524  36.617   6.754  12.346
76296W        W44525  31.414  14.138   1.384
76297W        W44526  25.321   7.641   4.993
76298W        W44527  32.086  12.390  13.073
76299W        W44528   4.837  29.598  12.927
76300W        W44529  40.312  10.925   4.921
76301W        W44530  29.117  29.242  12.929
76302W        W44531  18.282  12.285  14.588
76303W        W44532  19.624  27.907  12.463
76304W        W44533  12.456  16.202  13.974
76305W        W44534  24.562   6.963   3.471
76306W        W44535  12.228  39.293   3.660
76307W        W44536  18.150   3.862   3.370
76308W        W44537  14.726  44.846  13.358
76309W        W44538  14.106  36.740  13.783
76310W        W44539  31.188  25.247  12.657
76311W        W44540  43.832  34.822   0.415
76312W        W44541  27.424   1.699   5.118
76313W        W44542  27.101  25.623   1.862
76314W        W44543   1.173  25.125  13.821
76315W        W44544  32.286  44.744   4.029
76316W        W44545  44.254  38.775  13.767
76317W        W44546  32.217  25.256  11.614
76318W        W44547  42.412   9.212  13.994
76319W        W44548  19.838  28.554   1.392
76320W        W44549   8.340   1.532  12.581
76321W        W44550  10.095  13.777  10.469
76322W        W44551   6.047   7.899  12.280
76323W        W44552  11.973  21.128   2.089
76324W        W44553  40.474  42.796   3.047
76325W        W44554  23.168  30.588   4.078
76326W        W44555  40.034  27.161  14.860
76327W        W44556   2.026  24.124  12.211
76328W        W44557  42.727  35.085   3.923
76329W        W44558  22.388   0.424  10.408
76330W        W44559  26.541  13.071  14.845
76331W        W44560  18.792   1.842  14.982
76332W        W44561   4.840  40.254   3.259
76333W        W44562   4.315  15.311  11.672
76334W        W44563   8.704  29.009  14.880
76335W        W44564  19.187   5.252   3.172
76336W        W44565  44.796  22.253   3.346
76337W        W44566  12.375  44.584  13.354
76338W        W44567  21.528  17.524  14.586
76339W        W44568   9.140   5.987  10.335
76340W        W44569  38.169  32.962   2.742
76341W        W44570  23.635  24.105  14.383
76342W        W44571  29.425  36.926   3.041
76343W        W44572  25.449  30.587  13.007
76344W        W44573   2.709  17.912  11.941
76345W        W44574  41.924  40.576   4.613
76346W        W44575  24.208  21.436   1.990
76347W        W44576   3.825  37.356  12.074
76348W        W44577  14.505  40.969   4.755
76349W        W44578  25.141  11.309  11.333
76350W        W44579  34.922   3.439  13.692
76351W        W44580  20.654  38.865   1.419
76352W        W44581   7.207   1.423   4.248
76353W        W44582   4.985   2.439   2.810
76354W        W44583  20.644  12.071   4.793
76355W        W44584  14.806  32.158  11.446
76356W        W44585  31.586  10.467  11.538
76357W        W44586  33.002   7.209  11.564
76358W        W44587  25.735   3.382   2.598
76359W        W44588  17.016  28.027   4.135
76360W        W44589  16.580  42.395   0.436
76361W        W44590  38.680  39.773  11.055
76362W        W44591  21.053  34.376   2.837
76363W        W44592  21.990  44.513   4.241
76364W        W44593  22.516   1.682   2.361
76365W        W44594   9.551  29.886   2.768
76366W        W44595   1.464  16.649   3.355
76367W        W44596  13.748  12.273  14.489
76368W        W44597  10.826   2.522   4.801
76369W        W44598  38.794  21.727   3.172
76370W        W44599  44.883  40.382  11.938
76371W        W44600  22.915  20.088   2.769
76372W        W44601  44.155  33.546  12.470
76373W        W44602  15.818  15.569   3.258
76374W        W44603  25.647  21.559   0.440
76375W        W44604  21.341  21.678   2.083
76376W        W44605  38.626  24.462   2.754
76377W        W44606   6.732  22.485  11.561
76378W        W44607  25.030  17.500  14.350
76379W        W44608  39.210  34.629   4.831
76380W        W44609   5.362  30.395  13.447
76381W        W44610  24.563  37.389  11.673
76382W        W44611   6.425   1.782   4.362
76383W        W44612  35.271  10.680   1.303
76384W        W44613  39.984   3.004   0.399
76385W        W44614   4.306  43.121  10.963
76386W        W44615  39.591  33.643   1.705
76387W        W44616  16.864  31.177   4.954
76388W        W44617  24.030  32.143   0.473
76389W        W44618   2.670   7.748  11.140
76390W        W44619  13.820  17.028   1.342
76391W        W44620  33.084   8.794   2.253
76392W        W44621  34.089   5.031   0.544
76393W        W44622  44.739  27.726   4.646
76394W        W44623  21.558  19.537  11.211
76395W        W44624   8.576   1.292  14.909
76396W        W44625  12.588  11.829   4.494
76397W        W44626  10.185  44.776  14.779
76398W        W44627  31.897  43.960   2.206
76399W        W44628  13.868  14.410   4.104
76400W        W44629  15.361  11.622  14.514
76401W        W44630  22.545   8.687   3.393
76402W        W44631  36.961  10.667  11.207
76403W        W44632  20.860  37.977  10.790
76404W        W44633  38.950  29.649   4.040
76405W        W44634  44.975  24.499   0.498
76406W        W44635  29.906  27.786  13.398
76407W        W44636  44.785  13.721   0.281
76408W        W44637   6.310  36.461   0.942
76409W        W44638  10.210   2.296  11.959
76410W        W44639  44.251  41.922   4.048
76411W        W44640  17.555  29.216  12.116
76412W        W44641   7.656  42.637   3.357
76413W        W44642  32.331  21.015  14.966
76414W        W44643  19.749  30.834   0.097
76415W        W44644  43.765  32.932   2.352
76416W        W44645  10.823  25.912   3.824
76417W        W44646   4.228  25.193   0.367
76418W        W44647  34.535  32.858   2.444
76419W        W44648  36.829   7.857  11.067
76420W        W44649  28.351  22.572   1.942
76421W        W44650  32.807  20.468   2.688
76422W        W44651   4.233  24.488  14.765
76423W        W44652  13.134  36.501   3.356
76424W        W44653  28.339  43.140   4.166
76425W        W44654  11.336  27.185   4.577
76426W        W44655  14.056   0.066   2.492
76427W        W44656  27.142  37.739   4.031
76428W        W44657  30.979  13.200  11.572
76429W        W44658  17.529  29.157   2.757
76430W        W44659   0.793  24.792  11.664
76431W        W44660  35.200  12.626  14.065
76432W        W44661  12.488  28.398   4.737
76433W        W44662  14.877  33.095  12.496
76434W        W44663   6.854  35.364   4.191
76435W        W44664   8.364  40.357   2.308
76436W        W44665   7.599  32.470   3.712
76437W        W44666  25.670  29.870   4.586
76438W        W44667  20.040  43.993   4.282
76439W        W44668  15.901  28.755   2.166
76440W        W44669  32.213  44.614  14.440
76441W        W44670  38.267  10.269   2.768
76442W        W44671  44.921  42.855   3.149
76443W        W44672  21.478  32.880   3.592
76444W        W44673  40.662  44.646  10.425
76445W        W44674  21.825  41.079  13.422
76446W        W44675  21.983  23.250  14.863
76447W        W44676  28.119  20.101  10.434
76448W        W44677  24.731  36.802  14.346
76449W        W44678  38.536   0.688  11.041
76450W        W44679  10.863  28.285   2.841
76451W        W44680  18.284  32.528   1.301
76452W        W44681  28.232  40.760  13.868
76453W        W44682  27.980   8.857   2.611
76454W        W44683  32.792  29.233   0.977
76455W        W44684   9.236   3.408  11.739
76456W        W44685   3.873  21.601  14.030
76457W        W44686  39.403  31.833   9.782
76458W        W44687   0.606  38.839  13.977
76459W        W44688  19.283  22.051  10.796
76460W        W44689  21.343  29.668   0.330
76461W        W44690  40.533  15.661   4.082
76462W        W44691  32.322  43.737  14.864
76463W        W44692  23.545   6.862  13.306
76464W        W44693  34.401  19.522   1.855
76465W        W44694  40.335  24.550  12.141
76466W        W44695  12.703  14.037   4.085
76467W        W44696  29.722  35.132  12.032
76468W        W44697  22.469  15.693  13.836
76469W        W44698  15.664  16.590  11.508
76470W        W44699  23.024  26.531   0.356
76471W        W44700  29.530  12.673   3.267
76472W        W44701   6.187   5.910  13.877
76473W        W44702  21.120  27.912   0.557
76474W        W44703  35.085   8.155  11.185
76475W        W44704  24.967  23.522   0.340
76476W        W44705  41.824   6.665   2.248
76477W        W44706  42.666  17.662   0.617
76478W        W44707   4.378  33.510  14.986
76479W        W44708   4.403   9.667   0.754
76480W        W44709  24.719  38.397   4.216
76481W        W44710  25.591   9.779   9.926
76482W        W44711  13.762  36.112  12.612
76483W        W44712  26.313  13.434   3.228
76484W        W44713  12.284  32.856   1.053
76485W        W44714  31.431   9.058   4.206
76486W        W44715  21.684  14.837  11.112
76487W        W44716  29.329  32.627   3.780
76488W        W44717  33.842  32.444   0.030
76489W        W44718  33.383  14.660   0.596
76490W        W44719  39.853  32.930   2.944
76491W        W44720   7.911   8.885   0.205
76492W        W44721   8.288  23.207  10.757
76493W        W44722  16.517   4.384  10.739
76494W        W44723  27.458  39.100   2.475
76495W        W44724  17.801  23.032  14.337
76496W        W44725   4.696  44.047  10.987
76497W        W44726  20.041  29.508  11.961
76498W        W44727  13.368  41.796  11.624
76499W        W44728  36.799  16.993  12.988
76500W        W44729  11.923  16.286   0.626
76501W        W44730  14.819  33.478   3.325
76502W        W44731   9.905   8.846  13.958
76503W        W44732  28.194  24.720  14.005
76504W        W44733  10.300  28.655  14.432
76505W        W44734  39.758  40.531   1.790
76506W        W44735  26.529  26.468   1.398
76507W        W44736  12.805  22.507  11.866
76508W        W44737  10.882  26.260  11.512
76509W        W44738  30.655  42.928  10.616
76510W        W44739  21.327  40.469  10.465
76511W        W44740   4.452   0.888  13.777
76512W        W44741  23.640  34.095   0.034
76513W        W44742   2.211  37.898  11.834
76514W        W44743   0.197  39.405  12.560
76515W        W44744  39.399  29.965  13.543
76516W        W44745  21.475  39.921  14.070
76517W        W44746  37.322   7.843   1.397
76518W        W44747   3.385  10.170   5.066
76519W        W44748  31.171   5.895  10.605
76520W        W44749   3.498   1.024  13.961
76521W        W44750  32.157  36.619   1.366
76522W        W44751   0.947   3.295   0.715
76523W        W44752  36.518  25.232   5.325
76524W        W44753   7.556   2.442  12.395
76525W        W44754  13.087  17.244  10.606
76526W        W44755  10.971  38.888   0.751
76527W        W44756  19.299   6.265  13.268
76528W        W44757  42.817  25.454  11.240
76529W        W44758  16.646   9.364   0.018
76530W        W44759  32.605   3.898   0.218
76531W        W44760  37.491  35.985   0.272
76532W        W44761   1.825  20.590   2.446
76533W        W44762  23.626   2.379  13.120
76534W        W44763  26.999   4.244  12.019
76535W        W44764  18.567  37.195  11.731
76536W        W44765  42.327  35.064  14.301
76537W        W44766  38.545  28.433  11.626
76538W        W44767  40.800  18.500  13.446
76539W        W44768  40.357  37.072  13.145
76540W        W44769  14.563  42.008   2.265
76541W        W44770  24.676   3.308   3.581
76542W        W44771  24.080  10.961   2.157
76543W        W44772  29.127   3.419  13.940
76544W        W44773   9.259  31.001   0.448
76545W        W44774  34.558   4.936  13.961
76546W        W44775  33.064  10.658   4.681
76547W        W44776  24.427  37.144  12.552
76548W        W44777  33.092  18.097   0.548
76549W        W44778  33.124  22.668   3.429
76550W        W44779   4.215  15.605  11.245
76551W        W44780  44.475  26.124   0.301
76552W        W44781   9.219  13.883  14.422
76553W        W44782   6.647  14.987   2.384
76554W        W44783  26.671  44.631   5.082
76555W        W44784  40.433  44.160  11.660
76556W        W44785  29.765  34.730   1.488
76557W        W44786  26.556  20.027  11.609
76558W        W44787   3.736   6.039  11.068
76559W        W44788  42.431  36.860   4.295
76560W        W44789  12.317   3.800   3.096
76561W        W44790  24.817  41.500  14.922
76562W        W44791  15.118  40.009  10.537
76563W        W44792  43.836  10.493   3.608
76564W        W44793  19.774   7.933  14.428
76565W        W44794  16.755  34.453  10.929
76566W        W44795  14.839  26.203   4.294
76567W        W44796  20.455   2.127  12.589
76568W        W44797  28.996  42.145   3.643
76569W        W44798  18.957  29.108  13.045
76570W        W44799  41.217  38.043  14.923
76571W        W44800  13.806  39.148  10.154
76572W        W44801  33.702   1.433   0.857
76573W        W44802  10.490  42.453  12.945
76574W        W44803  38.851  25.217   1.804
76575W        W44804  41.364   7.202  13.868
76576W        W44805   6.864  31.849  13.921
76577W        W44806  38.592  10.707   2.717
76578W        W44807  26.715   2.687  13.808
76579W        W44808  18.254  34.420  12.386
76580W        W44809  37.372  28.509  12.916
76581W        W44810   2.225   2.270  11.604
76582W        W44811  30.437   3.315  13.073
76583W        W44812   7.186  30.776   0.981
76584W        W44813  37.324   9.221  13.581
76585W        W44814  26.873  15.214  11.387
76586W        W44815  13.182  30.180   0.714
76587W        W44816  34.154  15.025   1.756
76588W        W44817  22.062  10.842  14.110
76589W        W44818  27.354  31.917   0.995
76590W        W44819   9.455   9.789   4.100
76591W        W44820   0.084  11.352   1.871
76592W        W44821  23.767  33.977   3.179
76593W        W44822  24.771  19.290   1.940
76594W        W44823  26.699  22.067  13.384
76595W        W44824  27.859  10.577  10.413
76596W        W44825   0.034  29.403   4.069
76597W        W44826  13.777  15.285   0.378
76598W        W44827  10.199  33.129   1.811
76599W        W44828   6.401  12.142   1.733
76600W        W44829   8.386   2.754   2.756
76601W        W44830  32.994  38.827   0.377
76602W        W44831  34.132   1.493  13.411
76603W        W44832  11.196  12.869   1.326
76604W        W44833  30.381  24.534   1.118
76605W        W44834  44.105   1.439   2.213
76606W        W44835   4.778  10.753   3.546
76607W        W44836  32.909  40.386   2.425
76608W        W44837  41.501  15.121  13.155
76609W        W44838   6.247  13.065  12.647
76610W        W44839  30.464  39.099   4.513
76611W        W44840  35.156  30.483  14.854
76612W        W44841  29.842   4.901   2.195
76613W        W44842  29.089  25.106   2.459
76614W        W44843   0.716  15.995  10.330
76615W        W44844   1.438  23.516   1.796
76616W        W44845  33.721  35.770  11.087
76617W        W44846  36.226  18.125   5.228
76618W        W44847  26.594   4.010   3.206
76619W        W44848  25.018  39.970   4.162
76620W        W44849  41.942  30.926  11.978
76621W        W44850  25.467   4.978  11.141
76622W        W44851  37.295  37.716   3.345
76623W        W44852   3.136  12.962   2.227
76624W        W44853   8.119   4.054  14.385
76625W        W44854   6.279  36.499  12.162
76626W        W44855  14.295  28.944  13.784
76627W        W44856   6.891   1.932  12.972
76628W        W44857   6.891   9.788   0.223
76629W        W44858   6.209  19.723  11.586
76630W        W44859  28.384  34.988   0.858
76631W        W44860  26.199  39.610   3.324
76632W        W44861  18.725  11.642  12.508
76633W        W44862  18.509  18.195  14.782
76634W        W44863  29.215  17.297   5.088
76635W        W44864  34.051  11.635   2.686
76636W        W44865   1.510  33.025   1.414
76637W        W44866   0.937  41.333  11.843
76638W        W44867  34.151  29.769  10.914
76639W        W44868  29.490  19.542  13.976
76640W        W44869  20.853   4.201   4.576
76641W        W44870  21.643  11.279   4.576
76642W        W44871   3.843   6.511  11.340
76643W        W44872  28.039  14.103  11.594
76644W        W44873   3.918   0.283   4.546
76645W        W44874  32.913   4.198   0.497
76646W        W44875  18.658  17.221   1.919
76647W        W44876  30.823  16.784   4.139
76648W        W44877  33.929  28.159  12.252
76649W        W44878  36.575  37.618  12.621
76650W        W44879  19.632   6.229   1.344
76651W        W44880  10.695  34.099   2.327
76652W        W44881  17.755   9.888  14.084
76653W        W44882  15.814  30.629   0.923
76654W        W44883  28.304   1.720  13.400
76655W        W44884   1.407  35.719  11.603
76656W        W44885   3.848  25.460   0.169
76657W        W44886  36.444  24.651   3.616
76658W        W44887   3.837  42.877   4.077
76659W        W44888   0.812  11.281   0.227
76660W        W44889  26.464   5.831   2.436
76661W        W44890   5.547   3.964   4.320
76662W        W44891  17.729  14.586   0.866
76663W        W44892  31.095   9.097  14.804
76664W        W44893  32.196  19.863   4.974
76665W        W44894   8.604  24.354  12.932
76666W        W44895  13.536  23.537   5.024
76667W        W44896  12.419  22.118   4.180
76668W        W44897  20.543  28.156  12.074
76669W        W44898  10.608  25.916   3.337
76670W        W44899   2.983  26.717   1.765
76671W        W44900  28.716  34.075  14.130
76672W        W44901   0.458   7.622   1.803
76673W        W44902  21.038  12.328   4.542
76674W        W44903  22.770   9.638   1.292
76675W        W44904  22.211   6.436  14.782
76676W        W44905   1.543  20.660   0.505
76677W        W44906  31.576  16.589  10.810
76678W        W44907  17.534  20.132   5.519
76679W        W44908  39.165  31.337  12.567
76680W        W44909   0.867  41.438   2.908
76681W        W44910   7.261  35.176  14.362
76682W        W44911   5.709  15.653  12.431
76683W        W44912  17.011   4.832   0.879
76684W        W44913   9.710  18.638   1.470
76685W        W44914  15.690  38.172   3.682
76686W        W44915  16.292  21.727   0.680
76687W        W44916  30.910  17.233  12.570
76688W        W44917   0.205   3.247   2.455
76689W        W44918   0.549  13.016   1.555
76690W        W44919  39.375  39.587  12.580
76691W        W44920  15.628  10.849   2.645
76692W        W44921  30.254  36.319  11.611
76693W        W44922  35.107   5.191  10.592
76694W        W44923   4.453  26.060  10.565
76695W        W44924  22.517  35.600  14.824
76696W        W44925  39.928  38.792   1.773
76697W        W44926  18.685  38.537  11.393
76698W        W44927  34.695  34.620  13.515
76699W        W44928  41.853   5.736  10.624
76700W        W44929  29.949  43.167  14.333
76701W        W44930  15.423  17.521   1.852
76702W        W44931  32.523  36.353   2.342
76703W        W44932  33.512  38.086   0.228
76704W        W44933  26.282  15.333  13.147
76705W        W44934   5.168  24.005  10.802
76706W        W44935  35.526   9.134   3.399
76707W        W44936  16.038  32.656  11.010
76708W        W44937  19.951  24.791  12.605
76709W        W44938  40.608   2.667  10.771
76710W        W44939  28.459  38.416   1.259
76711W        W44940   5.843  15.235   3.264
76712W        W44941  42.487   2.775   0.926
76713W        W44942  25.016  14.351  12.508
76714W        W44943  22.199   5.998   2.638
76715W        W44944  11.752  36.457  10.468
76716W        W44945  22.788  15.200   1.719
76717W        W44946  31.880  17.920   3.311
76718W        W44947  26.677  38.774  13.300
76719W        W44948  22.261  28.580  12.869
76720W        W44949  13.047  29.146  13.282
76721W        W44950  36.845   9.077  11.015
76722W        W44951   1.959  36.135   0.118
76723W        W44952  14.112  24.964   1.184
76724W        W44953   5.594  27.696   4.161
76725W        W44954  34.660   5.067  10.882
76726W        W44955   0.919   7.199   1.167
76727W        W44956  42.075  18.995   2.814
76728W        W44957   5.686   2.172  12.525
76729W        W44958   5.892  22.379  12.931
76730W        W44959  34.134  14.267   3.324
76731W        W44960  40.906  25.397  13.834
76732W        W44961  17.399   3.314  12.484
76733W        W44962  40.579  24.196   2.882
76734W        W44963  40.881  18.088   4.112
76735W        W44964   5.906  12.356   0.325
76736W        W44965  20.788  42.601  10.577
76737W        W44966  34.720  19.515   2.739
76738W        W44967  29.645  20.219   0.896
76739W        W44968  20.569  31.843  14.698
76740W        W44969   3.561  13.350   0.651
76741W        W44970  38.260  24.249  12.152
76742W        W44971  12.413  33.892  13.689
76743W        W44972  28.969  39.599   1.773
76744W        W44973   6.123  34.451   4.992
76745W        W44974  17.010  39.963  14.497
76746W        W44975  32.395  39.768  11.517
76747W        W44976  33.874  41.330   4.370
76748W        W44977  31.051  16.039   3.570
76749W        W44978  28.921  42.550  11.529
76750W        W44979  30.957  19.204   2.280
76751W        W44980  29.238   4.932   3.674
76752W        W44981  14.148  29.562   2.295
76753W        W44982  13.840  17.832   2.642
76754W        W44983  24.776  15.696  12.111
76755W        W44984  10.609  10.888   3.149
76756W        W44985  18.760  21.145   1.447
76757W        W44986  22.014  11.149   0.859
76758W        W44987   8.664  17.051   3.746
76759W        W44988  34.386  33.633   0.500
76760W        W44989  40.794  34.661   1.017
76761W        W44990  36.758  14.242   3.551
76762W        W44991  33.421  38.109  12.670
76763W        W44992  19.678  37.496  14.671
76764W        W44993  27.632  30.887   2.745
76765W        W44994  28.470  44.582  14.323
76766W        W44995   3.901  13.828  12.896
76767W        W44996  43.364  40.751   1.230
76768W        W44997  17.124  10.132  11.353
76769W        W44998  39.869  12.281   1.375
76770W        W44999  34.614  35.106   0.268
76771W        W45000  17.648  29.182  13.882
76772W        W45001  35.089  18.830  11.931
76773W        W45002  39.833  34.565   3.221
76774W        W45003  16.631  40.492   2.753
76775W        W45004  17.078  11.222   2.808
76776W        W45005   7.748  41.892  11.704
76777W        W45006  34.843   9.179   0.327
76778W        W45007  11.145  24.172   5.047
76779W        W45008  38.574   4.363   4.851
76780W        W45009   5.730  26.159   4.085
76781W        W45010  20.751  17.896   3.616
76782W        W45011  40.121   2.851  10.718
76783W        W45012  37.601  31.011  11.048
76784W        W45013  21.504  17.601   2.796
76785W        W45014  24.172  20.188  10.779
76786W        W45015  23.356   2.443   4.051
76787W        W45016  37.730   5.719   3.662
76788W        W45017  11.668   0.275  14.329
76789W        W45018  30.679  36.902   2.889
76790W        W45019  35.967   8.920   3.555
76791W        W45020   9.301  15.488   3.141
76792W        W45021  25.195  31.565  10.032
76793W        W45022  16.570  14.853   3.653
76794W        W45023   9.579  42.900   1.300
76795W        W45024  35.010  20.800  13.102
76796W        W45025  26.987  14.307   2.139
76797W        W45026  34.101  29.555  11.890
76798W        W45027  18.725  14.343   3.836
76799W        W45028  28.094  34.767   0.454
76800W        W45029   5.236  41.567   4.158
76801W        W45030  35.458  20.898  14.393
76802W        W45031  43.400   2.846  11.857
76803W        W45032  33.894  32.818   0.835
76804W        W45033   9.779  16.968  11.222
76805W        W45034  17.623   1.777  13.525
76806W        W45035  23.746  19.061  11.261
76807W        W45036  33.492  39.029  13.633
76808W        W45037   0.239  13.978   3.295
76809W        W45038  18.479   1.792  13.573
76810W        W45039   6.827  35.991  12.543
76811W        W45040  32.115   5.926  12.704
76812W        W45041  15.366  16.547   0.543
76813W        W45042   8.841  32.390   1.851
76814W        W45043  29.608  30.317   2.290
76815W        W45044  22.766   4.218   1.332
76816W        W45045  26.779  20.632   1.914
76817W        W45046  13.777   5.233   3.255
76818W        W45047  28.152  30.839   1.658
76819W        W45048  30.974   0.658  11.172
76820W        W45049  16.749  22.304  10.563
76821W        W45050  38.891  18.545   1.996
76822W        W45051  34.724  43.314  11.262
76823W        W45052  40.373  24.016  13.791
76824W        W45053  41.823  18.438   3.668
76825W        W45054   6.255  29.975  13.611
76826W        W45055  22.571  44.484  13.461
76827W        W45056  32.112  37.731  11.618
76828W        W45057  28.617  29.164   0.890
76829W        W45058  11.618  24.617  10.818
76830W        W45059   6.658   6.156   0.450
76831W        W45060  13.246  43.185  11.475
76832W        W45061  43.986  15.486  13.171
76833W        W45062  27.549  25.922  14.294
76834W        W45063   0.219  34.044   4.632
76835W        W45064  11.185  15.627   2.234
76836W        W45065  10.270  34.595   2.820
76837W        W45066  27.585  27.546  13.502
76838W        W45067  24.763  25.554   0.916
76839W        W45068   9.699  10.135  11.525
76840W        W45069  11.309  37.364   4.787
76841W        W45070  36.240  24.047  12.084
76842W        W45071   8.088  42.742   3.084
76843W        W45072  39.399  33.077   5.077
76844W        W45073  29.118  11.190  11.924
76845W        W45074  35.611  36.503  12.081
76846W        W45075  37.408   4.570  12.557
76847W        W45076  40.630  36.359   0.866
76848W        W45077  42.911  20.021  14.211
76849W        W45078   0.305  22.454  11.570
76850W        W45079  15.157  27.026  12.821
76851W        W45080  21.178  14.689   1.661
76852W        W45081  16.091   7.341   2.655
76853W        W45082  10.296  23.893   4.021
76854W        W45083  13.290  33.867   4.347
76855W        W45084  28.350  18.699   4.774
76856W        W45085  16.777   5.256  11.110
76857W        W45086   0.091  23.632   1.303
76858W        W45087  23.536  25.946  14.781
76859W        W45088  29.391  44.690  11.424
76860W        W45089  36.458  12.675   1.793
76861W        W45090  11.766  18.073   3.623
76862W        W45091  12.903  20.995   1.858
76863W        W45092   3.085   2.669  14.990
76864W        W45093  28.534  24.074   3.588
76865W        W45094  29.005  18.316  12.303
76866W        W45095  35.871  16.061   4.603
76867W        W45096  28.454  21.442   0.482
76868W        W45097  22.780  12.253  10.311
76869W        W45098  31.946  31.919   5.041
76870W        W45099  20.554  24.250  12.995
76871W        W45100  23.273  27.002   3.372
76872W        W45101   9.706  44.784  11.983
76873W        W45102  27.685  26.765   4.958
76874W        W45103  30.140  19.671   0.488
76875W        W45104  18.572  28.182   2.780
76876W        W45105  15.032  25.379   4.865
76877W        W45106  10.956  33.058   4.632
76878W        W45107  42.506  30.959  11.521
76879W        W45108  17.685  41.583  14.492
76880W        W45109  16.107  16.045   1.445
76881W        W45110   2.349  24.163   2.896
76882W        W45111  31.739  33.351  10.707
76883W        W45112  30.154  11.102  10.958
76884W        W45113   0.828  38.474   9.963
76885W        W45114   0.413  42.406   4.646
76886W        W45115  27.550   0.331   2.334
76887W        W45116   3.690  27.422   1.802
76888W        W45117  39.450  15.457  13.057
76889W        W45118  37.628  33.224   1.940
76890W        W45119  17.149  32.136  12.961
76891W        W45120  23.592   2.858   1.519
76892W        W45121   1.044  42.952  14.482
76893W        W45122  42.195  32.816  13.040
76894W        W45123   8.364  21.061  12.899
76895W        W45124  35.327  26.981  13.836
76896W        W45125  17.961  16.097   1.254
76897W        W45126  23.269  34.061   1.430
76898W        W45127  13.328  41.874  14.849
76899W        W45128  11.145  32.699   1.739
76900W        W45129  24.292  25.198   4.202
76901W        W45130  16.547  35.828   1.342
76902W        W45131  35.212  27.535  13.973
76903W        W45132  12.057   5.158   1.026
76904W        W45133  35.059  31.463   2.426
76905W        W45134  22.539  20.092  10.556
76906W        W45135  32.477  26.150   0.311
76907W        W45136  37.568  21.152  14.782
76908W        W45137  29.042  41.238  14.046
76909W        W45138  34.747  43.866  14.937
76910W        W45139  18.554  17.966  10.716
76911W        W45140  41.304  34.673  11.075
76912W        W45141  23.098   2.653   2.764
76913W        W45142  22.561  37.468   2.410
76914W        W45143  18.014   8.745  12.022
76915W        W45144  35.912  23.710   0.404
76916W        W45145  34.865  17.053  11.878
76917W        W45146  20.208   3.235   1.043
76918W        W45147   5.350  23.488  14.072
76919W        W45148  30.880  34.731   0.236
76920W        W45149   8.752  42.720  13.236
76921W        W45150  44.711  26.243  11.559
76922W        W45151  30.669  11.097   3.176
76923W        W45152  18.431  12.243  11.725
76924W        W45153  32.204  35.807  12.866
76925W        W45154  24.616  42.999  12.482
76926W        W45155   7.722  11.332   3.961
76927W        W45156   6.775  22.141  13.425
76928W        W45157  26.041  43.558   3.754
76929W        W45158   8.067  24.028  13.876
76930W        W45159  17.636   8.358   2.608
76931W        W45160  23.647   7.673   0.017
76932W        W45161  20.143  31.033  10.800
76933W        W45162  28.152  13.802  12.687
76934W        W45163  27.461  22.740  14.901
76935W        W45164  30.467   0.667   1.018
76936W        W45165  39.805  17.644  12.485
76937W        W45166   4.008   9.341  12.500
76938W        W45167  15.125  44.983  14.156
76939W        W45168   1.356  28.218  12.518
76940W        W45169  36.391  29.095  14.285
76941W        W45170  31.581   6.256   1.167
76942W        W45171  39.511  36.662   1.771
76943W        W45172  30.689  13.976  11.196
76944W        W45173   4.927  10.827  12.871
76945W        W45174   2.931  27.206  12.448
76946W        W45175  37.395  21.585   3.055
76947W        W45176  40.928  20.055   1.665
76948W        W45177  44.833   0.859  12.825
76949W        W45178  33.814  24.989   3.148
76950W        W45179  22.844   5.917   0.376
76951W        W45180  31.541  22.008  13.013
76952W        W45181  37.101  15.294  14.656
76953W        W45182  27.941  17.212   4.046
76954W        W45183  42.186  38.282  11.197
76955W        W45184  11.353  16.127  11.020
76956W        W45185  41.951  35.390   1.298
76957W        W45186  34.891   7.476   3.385
76958W        W45187  37.339  32.451  12.332
76959W        W45188  42.426  11.264   2.895
76960W        W45189   0.218  35.974   0.291
76961W        W45190  26.511  19.588  13.512
76962W        W45191  37.342  20.501   1.686
76963W        W45192   0.669  33.125   0.505
76964W        W45193  25.697  10.218  11.561
76965W        W45194  26.150  43.550  14.915
76966W        W45195   3.906  39.054  14.592
76967W        W45196  29.475  44.673   4.244
76968W        W45197  38.456  23.897  12.972
76969W        W45198  14.235  14.815   0.041
76970W        W45199  13.807  19.016  10.658
76971W        W45200   2.676  30.527  13.856
76972W        W45201   6.310  15.835   3.415
76973W        W45202  20.991  37.606   2.581
76974W        W45203   6.456   8.165  12.117
76975W        W45204  18.556  29.871  12.919
76976W        W45205  16.756   6.921   0.048
76977W        W45206   8.831   8.693  11.125
76978W        W45207  27.946  17.871  12.573
76979W        W45208  28.561  29.125   1.441
76980W        W45209  42.610  41.162   3.253
76981W        W45210   7.376  23.963   3.103
76982W        W45211   5.925  38.835  11.671
76983W        W45212  37.019   4.418  10.893
76984W        W45213  16.267  44.778  13.847
76985W        W45214  16.575  11.757   1.201
76986W        W45215  16.839  34.899   4.224
76987W        W45216  33.779   0.555   0.918
76988W        W45217  41.027  31.876  11.666
76989W        W45218  14.709  35.374   4.402
76990W        W45219  25.666  26.989   0.816
76991W        W45220  23.926  43.445  12.138
76992W        W45221   5.760  41.694   2.818
76993W        W45222   0.422  35.201  12.586
76994W        W45223  26.125  13.867  13.324
76995W        W45224  20.718   1.925   1.766
76996W        W45225  27.726  12.885  10.613
76997W        W45226   1.270  37.800  14.933
76998W        W45227  41.294  29.641   4.562
76999W        W45228  10.624  23.126  14.803
77000W        W45229  33.477  11.722   0.033
77001W        W45230   0.774  12.682  13.075
77002W        W45231  34.488   4.578  10.722
77003W        W45232  37.093   1.158   3.262
77004W        W45233  22.657   3.731   2.067
77005W        W45234  31.639   5.752   0.503
77006W        W45235  12.271  40.024  11.088
77007W        W45236  26.163  11.580   2.774
77008W        W45237  30.408  30.682   4.584
77009W        W45238  38.012   4.745  11.586
77010W        W45239  43.560  23.493  12.572
77011W        W45240  30.049  20.823   1.615
77012W        W45241   6.400   0.357  12.868
77013W        W45242  41.171   3.755   3.953
77014W        W45243  16.147  44.525   3.808
77015W        W45244  44.045  29.438  14.754
77016W        W45245  42.945  12.769   3.181
77017W        W45246  43.421  31.132   0.741
77018W        W45247  28.044   2.126   0.124
77019W        W45248  25.121  15.064   2.712
77020W        W45249  11.390  35.927  10.462
77021W        W45250  37.556   6.016   5.356
77022W        W45251  32.595  31.624  13.894
77023W        W45252  28.870  12.185   3.918
77024W        W45253  21.214  18.541   4.938
77025W        W45254  25.986  35.684  13.100
77026W        W45255  28.069   7.512   0.501
77027W        W45256   5.924   9.200  11.189
77028W        W45257  24.455   0.044   1.756
77029W        W45258   2.088   2.771  14.680
77030W        W45259  10.620  20.167   1.358
77031W        W45260  26.905   1.227  11.077
77032W        W45261  18.585  40.345   4.534
77033W        W45262  42.775  24.156   0.127
77034W        W45263  26.655  37.588   1.942
77035W        W45264  43.584  37.568  13.394
77036W        W45265  15.080   7.142   2.026
77037W        W45266  30.101  15.560  13.846
77038W        W45267  15.061  36.862  14.321
77039W        W45268  17.373   6.145  11.383
77040W        W45269  37.490  37.393  12.614
77041W        W45270  37.466  16.792   2.867
77042W        W45271  37.172   1.685  11.186
77043W        W45272   2.280  39.790  12.471
77044W        W45273  42.254  34.663  13.571
77045W        W45274  39.522  28.147   0.290
77046W        W45275  31.656  16.382   0.564
77047W        W45276  38.019  22.299  12.466
77048W        W45277   9.603  40.309   0.330
77049W        W45278  17.809  42.967   1.353
77050W        W45279   8.668   3.304   4.228
77051W        W45280   8.141  13.351   0.160
77052W        W45281  19.685  17.306  12.160
77053W        W45282  25.006  26.672   5.091
77054W        W45283  13.800  15.805   2.350
77055W        W45284  12.729  31.356  14.365
77056W        W45285  14.319  27.895  11.594
77057W        W45286  26.474  10.585  13.370
77058W        W45287  18.622  25.744  14.825
77059W        W45288  24.450  17.870   1.764
77060W        W45289  41.685  11.522   1.264
77061W        W45290  14.068  36.584   4.804
77062W        W45291  21.036  12.424  11.437
77063W        W45292  28.926  35.087   1.784
77064W        W45293  33.421  13.656   3.889
77065W        W45294  44.749  16.086   1.878
77066W        W45295  20.466   3.188  11.726
77067W        W45296  38.400   8.443   2.344
77068W        W45297   0.687  20.162  11.718
77069W        W45298   1.382   7.998  13.398
77070W        W45299  20.651  17.050  11.621
77071W        W45300  37.304  11.852  12.933
77072W        W45301   3.471  37.060  12.842
77073W        W45302  42.939  25.051   2.482
77074W        W45303  22.825  32.060  13.782
77075W        W45304  37.419  18.776  14.352
77076W        W45305  32.697   4.311  12.758
77077W        W45306  24.778  28.582   2.107
77078W        W45307  11.642  31.623  13.171
77079W        W45308   1.936  27.032   0.565
77080W        W45309  21.603   3.581   5.067
77081W        W45310  23.522   9.146  12.523
77082W        W45311  33.828  24.069  10.710
77083W        W45312   0.751   3.072   4.124
77084W        W45313  39.114   4.222  14.530
77085W        W45314  33.418   9.678  10.818
77086W        W45315   1.317  41.023   0.402
77087W        W45316   4.451   1.803   1.332
77088W        W45317  37.926  16.617   4.160
77089W        W45318  25.828  17.078   2.693
77090W        W45319  30.175  30.730  12.460
77091W        W45320  40.382  29.427   2.411
77092W        W45321   4.345  30.506   2.604
77093W        W45322  28.763  17.321   3.648
77094W        W45323  36.471  12.048   0.357
77095W        W45324   5.776  44.922   2.864
77096W        W45325   4.429   3.310   1.268
77097W        W45326  39.105  17.285   1.776
77098W        W45327  16.789   9.832  11.603
77099W        W45328  20.961   1.010   2.230
77100W        W45329  13.016  42.861  12.419
77101W        W45330   6.753  19.778  14.290
77102W        W45331  13.388  35.037  12.120
77103W        W45332  19.194   0.796   0.890
77104W        W45333  37.045  17.289   0.884
77105W        W45334  22.768  41.812   1.689
77106W        W45335  36.010  20.822   2.499
77107W        W45336  13.639   9.927   4.379
77108W        W45337  12.576  13.057  11.875
77109W        W45338  39.859   7.155  10.585
77110W        W45339  42.336  36.490  12.515
77111W        W45340  12.286  28.937   2.242
77112W        W45341  34.869   2.276  12.533
77113W        W45342  31.933  29.137  14.825
77114W        W45343  28.028  37.500  12.321
77115W        W45344  21.033  42.987   0.814
77116W        W45345  27.229  14.651   1.848
77117W        W45346   7.876   0.800  14.515
77118W        W45347   8.801   5.131  13.043
77119W        W45348   8.883   7.965   2.345
77120W        W45349  23.326  32.996  11.103
77121W        W45350  16.634  13.770   0.345
77122W        W45351  21.465  14.597  14.041
77123W        W45352   8.984   0.990  13.587
77124W        W45353  15.178   5.066  14.419
77125W        W45354  23.068  26.178  11.327
77126W        W45355  38.333   1.966  13.802
77127W        W45356  14.997   4.182   3.233
77128W        W45357   8.875  40.827   3.000
77129W        W45358  24.110  36.338  13.771
77130W        W45359  25.704  14.217   0.945
77131W        W45360  44.681  16.628  12.950
77132W        W45361  27.288  20.558   4.689
77133W        W45362  43.814  18.716   3.650
77134W        W45363  42.241   2.399  14.000
77135W        W45364   6.811  10.267  11.556
77136W        W45365  29.537  21.020   4.620
77137W        W45366  36.377  27.903  11.612
77138W        W45367   0.495  42.048   1.130
77139W        W45368  29.882  20.923  12.963
77140W        W45369   2.822   4.191   1.383
77141W        W45370  17.048  38.970  11.901
77142W        W45371  20.426  41.939  12.606
77143W        W45372   7.323   2.367  13.652
77144W        W45373   0.717  10.723   3.410
77145W        W45374  28.984  25.873  14.931
77146W        W45375  28.040  28.742   9.776
77147W        W45376  19.074  40.377  13.124
77148W        W45377   4.029  11.916   2.392
77149W        W45378  24.918  15.436   1.041
77150W        W45379  12.614  17.535   0.800
77151W        W45380  10.821  29.604   4.819
77152W        W45381  32.507   1.342   2.624
77153W        W45382   7.334  44.284   4.293
77154W        W45383  33.385   5.951  14.042
77155W        W45384  23.940  38.645   2.644
77156W        W45385   3.670  35.037  11.558
77157W        W45386  19.118  14.328   2.204
77158W        W45387  39.585  36.894  13.449
77159W        W45388   4.752  16.223   4.038
77160W        W45389   3.114  39.757   3.128
77161W        W45390   9.695  15.806  12.587
77162W        W45391  20.690  16.090   4.070
77163W        W45392  11.126   2.221  14.254
77164W        W45393   3.503  40.443   4.701
77165W        W45394   9.616  10.225  10.189
77166W        W45395  41.240  30.017   0.883
77167W        W45396   9.565   2.291   1.847
77168W        W45397   8.698  44.817   4.057
77169W        W45398  22.117  33.138  13.229
77170W        W45399   4.280  19.826  11.003
77171W        W45400  12.100   4.265   2.252
77172W        W45401   5.386   0.377   0.970
77173W        W45402  34.294  18.282   0.389
77174W        W45403  19.184  14.229   4.155
77175W        W45404  36.980  40.804   3.905
77176W        W45405  21.213  21.209   2.912
77177W        W45406  28.198  12.231  11.082
77178W        W45407  10.690  10.671  13.302
77179W        W45408   7.224  32.390  12.593
77180W        W45409  43.511  10.481   3.185
77181W        W45410  23.736  20.505  11.277
77182W        W45411  10.899  10.269  11.132
77183W        W45412  23.150  10.227  12.049
77184W        W45413   1.950  28.393  13.812
77185W        W45414  16.157  30.451   1.319
77186W        W45415  21.436   4.407  14.382
77187W        W45416  19.019  27.090  14.790
77188W        W45417  20.438  28.143   1.686
77189W        W45418  16.309  10.232   3.273
77190W        W45419  41.429  38.115   4.018
77191W        W45420  35.205   3.762  13.392
77192W        W45421  17.714  40.869   1.850
77193W        W45422  20.001  30.392   2.682
77194W        W45423  21.609  43.081  12.356
77195W        W45424  38.033  44.478   0.947
77196W        W45425  12.903  25.509   1.223
77197W        W45426  11.152  43.383  10.629
77198W        W45427   3.833  11.201   1.784
77199W        W45428   4.743  32.901  12.435
77200W        W45429  18.849  31.330  11.174
77201W        W45430  29.277  29.945   2.311
77202W        W45431  14.166  43.929   3.195
77203W        W45432  18.229  42.696   1.215
77204W        W45433   2.214   6.210   3.213
77205W        W45434  19.054  24.706   4.998
77206W        W45435  37.497  27.715  12.583
77207W        W45436  22.101  44.416   0.700
77208W        W45437   3.997  12.712  14.963
77209W        W45438  24.516   1.586   0.204
77210W        W45439  38.929  33.677   0.755
77211W        W45440  44.249   7.656  12.893
77212W        W45441  43.456  17.097  12.921
77213W        W45442   9.624  40.844   4.554
77214W        W45443  14.498  29.705  14.090
77215W        W45444  25.635  24.062   3.894
77216W        W45445  33.384  32.710  14.926
77217W        W45446  18.515   8.821   3.771
77218W        W45447   9.826   6.824   0.454
77219W        W45448   4.255  18.119  13.303
77220W        W45449  25.123  38.984  11.701
77221W        W45450  22.129  30.618   2.156
77222W        W45451  23.983   9.645  13.321
77223W        W45452  41.169  32.898  14.276
77224W        W45453   6.549  34.856  12.512
77225W        W45454   4.669  31.169   0.897
77226W        W45455  25.490  13.298   1.919
77227W        W45456  18.067  22.797  13.460
77228W        W45457  21.090  18.667  12.362
77229W        W45458   3.402   8.913   1.697
77230W        W45459  23.258  23.682  13.399
77231W        W45460  25.107  13.903  10.712
77232W        W45461  14.810  37.236  13.366
77233W        W45462   5.443   5.808   2.319
77234W        W45463  44.787   5.165   3.879
77235W        W45464   0.906  19.248   1.273
77236W        W45465  21.244   1.451  13.088
77237W        W45466  19.150  32.134  14.864
77238W        W45467  29.159   0.487   1.167
77239W        W45468  29.517  24.184  10.400
77240W        W45469  31.948  39.170  14.457
77241W        W45470  25.172   3.011  13.274
77242W        W45471  27.695  34.988  11.226
77243W        W45472  40.089  18.011  14.243
77244W        W45473  39.972  42.141  11.583
77245W        W45474   2.961  27.986  13.795
77246W        W45475  13.643  18.060   5.005
77247W        W45476   8.112   9.657  10.610
77248W        W45477  13.329   4.934   2.319
77249W        W45478   4.896  44.673   0.525
77250W        W45479  11.245  28.042  10.651
77251W        W45480  25.758  19.264   1.762
77252W        W45481  10.811  16.533   3.685
77253W        W45482   7.233  18.008   0.296
77254W        W45483   4.742  25.959  14.384
77255W        W45484  12.938   2.681   3.161
77256W        W45485  23.644   7.754   0.956
77257W        W45486  35.986  26.567  10.407
77258W        W45487  40.897  29.494   0.228
77259W        W45488   7.742  30.352  10.870
77260W        W45489  16.721  22.548   3.684
77261W        W45490   0.736  27.667   0.964
77262W        W45491   4.380  43.569  14.048
77263W        W45492  13.396  35.517  12.270
77264W        W45493  26.496  11.154  14.754
77265W        W45494   8.294  27.214   4.024
77266W        W45495  14.732  25.737  12.975
77267W        W45496  22.232   5.117  14.388
77268W        W45497  38.309  13.807   1.046
77269W        W45498  19.873   7.213   2.339
77270W        W45499  28.502  23.615   3.894
77271W        W45500  40.309   3.321   3.092
77272W        W45501   9.607  17.582   0.788
77273W        W45502  36.044  20.206  12.046
77274W        W45503   9.682  39.999  11.989
77275W        W45504  21.698  40.558   1.313
77276W        W45505  34.908  40.452  11.715
77277W        W45506  24.632  18.630   1.387
77278W        W45507  21.638  40.452   3.894
77279W        W45508   5.484  37.013   1.299
77280W        W45509   1.779  22.718  13.721
77281W        W45510  13.756   9.624   4.781
77282W        W45511  36.820  19.148   1.271
77283W        W45512   8.180  24.639   0.108
77284W        W45513  20.576  23.899   2.920
77285W        W45514  35.411  31.035  10.916
77286W        W45515  30.542  24.972  12.097
77287W        W45516  18.675  19.110   2.826
77288W        W45517  36.051  14.374   1.393
77289W        W45518  33.366  33.450  12.358
77290W        W45519  17.102  26.896  14.651
77291W        W45520  21.111   9.742   4.622
77292W        W45521  11.894  15.870  10.281
77293W        W45522  24.243   7.892  13.344
77294W        W45523  23.713  35.992  12.874
77295W        W45524  39.358   8.973  10.703
77296W        W45525  30.467  38.078   4.058
77297W        W45526  42.350  29.521  12.067
77298W        W45527  39.058  16.732  11.990
77299W        W45528  44.269  42.007  11.092
77300W        W45529  38.468  14.895   4.158
77301W        W45530  39.033  42.511  11.475
77302W        W45531   5.120  24.465   0.712
77303W        W45532  28.147  15.170   3.657
77304W        W45533  34.384  26.076  12.052
77305W        W45534   1.911  24.716  13.573
77306W        W45535  27.084  14.379  11.495
77307W        W45536   6.833  23.848  11.994
77308W        W45537  21.109  39.462   4.848
77309W        W45538  29.474  34.153  12.889
77310W        W45539  43.986  39.614  11.120
77311W        W45540  42.791   4.871   0.435
77312W        W45541  27.478  31.962  12.500
77313W        W45542   5.246  18.145   3.022
77314W        W45543  12.161  30.272  14.188
77315W        W45544  44.165   3.349  10.629
77316W        W45545   6.545  38.588  13.465
77317W        W45546   7.797  43.226  14.229
77318W        W45547   7.519  10.856  11.560
77319W        W45548   3.757  18.997   1.903
77320W        W45549  17.886  12.802  11.104
77321W        W45550  25.091   4.251  14.465
77322W        W45551  36.462  18.689   1.954
77323W        W45552  26.715  26.708  13.051
77324W        W45553  11.803  25.168  13.064
77325W        W45554   9.670  21.117   1.797
77326W        W45555   7.991  33.908  13.039
77327W        W45556   2.161  41.895   1.842
77328W        W45557   3.091  29.423   1.027
77329W        W45558  16.226  30.986  14.796
77330W        W45559  44.773  39.507  13.933
77331W        W45560  24.718  18.949  11.243
77332W        W45561   3.790  30.627  12.149
77333W        W45562  31.471  27.920   1.320
77334W        W45563  12.605  36.944  10.876
77335W        W45564  44.984   9.247   1.491
77336W        W45565  33.681  38.099   2.499
77337W        W45566   5.442   8.199   0.744
77338W        W45567  42.985   6.928  12.326
77339W        W45568  13.474  10.802   2.974
77340W        W45569  25.757  39.740   3.550
77341W        W45570  37.271  32.142   3.354
77342W        W45571   4.194   8.399   1.810
77343W        W45572  33.064   3.480  14.014
77344W        W45573  18.644  26.439  10.228
77345W        W45574  31.681  10.619   2.271
77346W        W45575  28.014  43.201  10.694
77347W        W45576  21.929  33.070   3.811
77348W        W45577   4.011   1.653  14.300
77349W        W45578  33.022  31.339  14.926
77350W        W45579  29.987   3.658   4.534
77351W        W45580   0.845  40.519  14.705
77352W        W45581  42.053  16.648   0.320
77353W        W45582  15.811   0.813   3.997
77354W        W45583  26.493   8.137  10.901
77355W        W45584  19.787  29.760  12.998
77356W        W45585  35.586  22.084   1.981
77357W        W45586  44.277   2.338  12.569
77358W        W45587  17.016  28.184  14.694
77359W        W45588  24.883  27.795  11.779
77360W        W45589   2.294   3.468  11.204
77361W        W45590  32.781   7.335   2.221
77362W        W45591  29.239  16.924  14.116
77363W        W45592  28.410  23.066  14.835
77364W        W45593  41.782  37.350   4.962
77365W        W45594  12.087  22.944  13.047
77366W        W45595   3.811  19.752  11.197
77367W        W45596  28.598  13.124   4.007
77368W        W45597  21.938   5.336  14.014
77369W        W45598  42.422  17.516  13.966
77370W        W45599  42.066  11.721   4.058
77371W        W45600  21.806   5.816  14.093
77372W        W45601  44.458  29.259   3.207
77373W        W45602  11.607  43.552  14.413
77374W        W45603  38.964  35.947  13.324
77375W        W45604  35.624   8.303   2.268
77376W        W45605  31.163  18.268  11.046
77377W        W45606   4.206  42.919   4.964
77378W        W45607   6.894   1.889  12.078
77379W        W45608  32.379  26.633   4.559
77380W        W45609  10.352  32.841   3.486
77381W        W45610   0.242  34.325   3.303
77382W        W45611  11.811  34.409  10.671
77383W        W45612   5.360   1.525   2.598
77384W        W45613   9.205  41.935  13.261
77385W        W45614  20.572  33.110   0.925
77386W        W45615   3.258  18.637   1.537
77387W        W45616  36.920  44.021  12.930
77388W        W45617  44.134  25.084  11.123
77389W        W45618  23.762  14.189   4.088
77390W        W45619  40.800  42.911   2.230
77391W        W45620  32.477  15.302   2.286
77392W        W45621  36.484  29.983   1.709
77393W        W45622  14.660  22.130   0.637
77394W        W45623   2.217  15.131   0.771
77395W        W45624  42.851  33.071   2.401
77396W        W45625   2.535   0.984  12.151
77397W        W45626  18.815  11.873   1.154
77398W        W45627  19.020  21.114  10.981
77399W        W45628  28.485  32.140   3.488
77400W        W45629   7.880   7.253   3.185
77401W        W45630  23.125  34.216   4.962
77402W        W45631   9.885  29.921   1.850
77403W        W45632  20.359   1.890  14.773
77404W        W45633  21.422  30.463   5.033
77405W        W45634   3.820  23.166  14.083
77406W        W45635  28.217  28.621   4.439
77407W        W45636   9.314  34.066   0.415
77408W        W45637  21.606  44.048  12.880
77409W        W45638   7.894  12.232   1.803
77410W        W45639  10.790  29.652  13.183
77411W        W45640  16.596   3.115  12.431
77412W        W45641   8.294  25.994   3.175
77413W        W45642  25.001   7.729   1.299
77414W        W45643  18.100  30.700  14.513
77415W        W45644  30.628  22.156   0.673
77416W        W45645   7.695  10.288  10.420
77417W        W45646  10.592  13.403   4.508
77418W        W45647   4.904   6.789   3.688
77419W        W45648  44.089  18.548   4.081
77420W        W45649  11.658  35.976   1.708
77421W        W45650  41.402   4.230  14.741
77422W        W45651  21.073  39.779  13.762
77423W        W45652  10.416  31.849  13.514
77424W        W45653  12.250  22.103   0.022
77425W        W45654   7.831  41.554  11.320
77426W        W45655  27.036  13.493  13.633
77427W        W45656  42.519  30.933   1.209
77428W        W45657   9.603  22.445   4.096
77429W        W45658  32.027  24.497  11.916
77430W        W45659  21.293  36.377  10.979
77431W        W45660  35.211   3.732   3.348
77432W        W45661  37.979  16.703   0.311
77433W        W45662  31.176  12.739  12.769
77434W        W45663  39.491   4.526  11.114
77435W        W45664  14.895  27.400  12.022
77436W        W45665   1.533  17.522  14.787
77437W        W45666   1.972  11.860   2.282
77438W        W45667  34.526   8.753   0.938
77439W        W45668  38.550  23.676   0.840
77440W        W45669   0.002   4.698   2.432
77441W        W45670  15.307   5.271  12.044
77442W        W45671  26.961   6.798   0.192
77443W        W45672  29.438  44.976   0.944
77444W        W45673  31.448  35.344   3.379
77445W        W45674  10.184   4.656  13.635
77446W        W45675  36.830  13.806   0.824
77447W        W45676   8.332  19.042  14.311
77448W        W45677  17.688   3.490  10.675
77449W        W45678   9.022   8.000  12.501
77450W        W45679  31.936  34.858  13.119
77451W        W45680   3.721  13.165   1.122
77452W        W45681  10.376   9.394  12.451
77453W        W45682  42.258  17.304   4.574
77454W        W45683  28.183  19.253  10.724
77455W        W45684  40.417  15.561  14.897
77456W        W45685  44.390   4.375  11.360
77457W        W45686  30.728  28.976   0.258
77458W        W45687  40.057  10.785  14.347
77459W        W45688  32.886  42.078   1.810
77460W        W45689  25.539  17.395   4.476
77461W        W45690  36.437  17.247   4.146
77462W        W45691  24.108  18.498   0.099
77463W        W45692  16.125   5.614   3.314
77464W        W45693  44.225  27.034  13.954
77465W        W45694  41.136   7.328   3.278
77466W        W45695  39.504  10.977   2.840
77467W        W45696   2.222  40.294  12.372
77468W        W45697  21.601  20.669   4.557
77469W        W45698  35.096   3.733  10.708
77470W        W45699   5.859  23.273   2.750
77471W        W45700  28.618  28.353   1.615
77472W        W45701  11.315  36.961  11.924
77473W        W45702  36.938  27.190   0.296
77474W        W45703   0.753  10.710  12.546
77475W        W45704   7.427  23.088   0.749
77476W        W45705  29.384  27.902   5.034
77477W        W45706  16.048  42.936  10.687
77478W        W45707  12.297  30.214  12.297
77479W        W45708   9.362  13.087  11.428
77480W        W45709  26.421  36.306  11.489
77481W        W45710  41.323   5.785  12.414
77482W        W45711  22.748  23.503  12.529
77483W        W45712  20.754   1.667   4.225
77484W        W45713  17.743  19.241  11.533
77485W        W45714  34.578  39.534   4.101
77486W        W45715  36.483  30.452  10.156
77487W        W45716  24.470  22.814   3.936
77488W        W45717  38.980   8.149  11.596
77489W        W45718   2.191  38.965   0.364
77490W        W45719   5.759   2.270  11.698
77491W        W45720  10.215  24.124  11.325
77492W        W45721  40.898  26.689  14.603
77493W        W45722  17.129  16.604   3.617
77494W        W45723  43.444   2.790  10.932
77495W        W45724   5.332  10.245  10.728
77496W        W45725  23.528  20.046  12.530
77497W        W45726  34.206  23.410   4.142
77498W        W45727  13.796  14.348   0.608
77499W        W45728   6.667   7.235   4.619
77500W        W45729  29.890  36.971  12.639
77501W        W45730  43.097  23.986   4.018
77502W        W45731  13.894  34.558  10.590
77503W        W45732  43.973  40.995  14.709
77504W        W45733  35.005   6.750   1.507
77505W        W45734  13.775  41.472   1.825
77506W        W45735  15.760  31.903   1.386
77507W        W45736  39.306  23.009   4.353
77508W        W45737  16.208  35.164  11.336
77509W        W45738  15.709  31.185  10.689
77510W        W45739  21.668  18.180  12.197
77511W        W45740  14.790  25.263  11.079
77512W        W45741   7.019  30.377  11.157
77513W        W45742   2.684  20.857   3.876
77514W        W45743  36.931   2.044  13.425
77515W        W45744   8.225  41.773  11.110
77516W        W45745  33.377  16.776   0.437
77517W        W45746  11.666  33.583  12.603
77518W        W45747   1.775  39.305   4.142
77519W        W45748  36.935  28.042   1.772
77520W        W45749  22.621  26.323  10.162
77521W        W45750   5.862  31.159  12.942
77522W        W45751  13.343  13.796   2.856
77523W        W45752  31.575  44.434  10.610
77524W        W45753  30.477  42.178  12.793
77525W        W45754  37.994  42.792  11.213
77526W        W45755  41.893  24.753  11.692
77527W        W45756  12.925  42.509  14.270
77528W        W45757   7.233  24.427   4.897
77529W        W45758  32.034  18.377  10.524
77530W        W45759   3.776  28.439   0.925
77531W        W45760  14.191  37.454  10.923
77532W        W45761  25.943  32.090   0.925
77533W        W45762  42.794  12.713  10.464
77534W        W45763  36.067  41.031   2.007
77535W        W45764  19.745  25.286   3.424
77536W        W45765  40.085  24.467   0.981
77537W        W45766  32.899   1.843  11.417
77538W        W45767  11.851  13.434  12.975
77539W        W45768  27.615  27.149   4.095
77540W        W45769  28.054  13.260  12.791
77541W        W45770   3.214  12.223  11.185
77542W        W45771   1.874  26.505   3.351
77543W        W45772  34.080  20.030  13.710
77544W        W45773  43.883   8.693  14.195
77545W        W45774   0.789  29.995   4.064
77546W        W45775  15.260  42.996  13.425
77547W        W45776  16.858  34.588   0.930
77548W        W45777  33.439  27.819   4.031
77549W        W45778  10.065  43.816   4.384
77550W        W45779  34.587  11.151  12.954
77551W        W45780  25.980  12.464   4.072
77552W        W45781  42.978   0.440  13.441
77553W        W45782   2.172  19.050  12.686
77554W        W45783  29.506  13.880   3.739
77555W        W45784  39.280   1.870  13.828
77556W        W45785  38.245  40.472  14.894
77557W        W45786  29.213  43.535   0.338
77558W        W45787  37.707  44.727   2.375
77559W        W45788  33.012  18.616  10.739
77560W        W45789  30.157  38.880   0.398
77561W        W45790  30.199  36.365  13.324
77562W        W45791  30.215  12.236  11.147
77563W        W45792  37.528  18.022  11.073
77564W        W45793  26.303  18.284   1.731
77565W        W45794  23.064  31.399  12.494
77566W        W45795  43.620   0.609  11.651
77567W        W45796  35.057  33.338   1.863
77568W        W45797   6.327  14.686   4.920
77569W        W45798  32.551  42.352  10.372
77570W        W45799   8.752  43.447   1.281
77571W        W45800  11.340   7.648   3.273
77572W        W45801  34.121  42.661   0.363
77573W        W45802  25.114  10.714  12.081
77574W        W45803  16.176  38.050   3.807
77575W        W45804  34.848  16.564   4.122
77576W        W45805   6.869  12.174   2.695
77577W        W45806  21.823  17.870  13.175
77578W        W45807  25.953  21.218  12.660
77579W        W45808   3.230   6.038  10.925
77580W        W45809   1.553  39.823  13.820
77581W        W45810  28.369  43.641   3.257
77582W        W45811  14.356   7.002   2.792
77583W        W45812  38.621  12.798  11.784
77584W        W45813  25.400  36.865   1.274
77585W        W45814  15.288   2.310   4.570
77586W        W45815  17.257  12.416   4.140
77587W        W45816  33.059  39.551  14.068
77588W        W45817  43.188  12.338  13.311
77589W        W45818  21.750  39.733  14.934
77590W        W45819  19.063   4.868   1.780
77591W        W45820  26.256  23.506  13.346
77592W        W45821   2.894  26.201  12.368
77593W        W45822  21.720  12.610   3.662
77594W        W45823  32.812   2.196  14.408
77595W        W45824  15.697  22.122  13.901
77596W        W45825  41.458  12.625  11.492
77597W        W45826  21.361  39.599  10.702
77598W        W45827  27.747  34.301  13.581
77599W        W45828   7.119  14.557  11.460
77600W        W45829   9.703   4.178   2.888
77601W        W45830  13.820  33.183   4.189
77602W        W45831  38.651  31.540   3.385
77603W        W45832  22.255  43.745  13.489
77604W        W45833  21.971  24.786   0.013
77605W        W45834  32.396   9.444  11.662
77606W        W45835  14.514  14.682   2.713
77607W        W45836  33.094   0.419  13.813
77608W        W45837  34.293  12.357  11.580
77609W        W45838  25.982   3.190  10.612
77610W        W45839  36.103  25.734   2.420
77611W        W45840  22.901  11.626   4.425
77612W        W45841  23.387  40.421   4.713
77613W        W45842  28.408   4.927  14.837
77614W        W45843   9.952  23.160  13.806
77615W        W45844   0.130  22.506   2.426
77616W        W45845  38.782  25.125  11.096
77617W        W45846  29.865  25.952  13.080
77618W        W45847  25.151  36.427  12.732
77619W        W45848  43.847   3.032   3.936
77620W        W45849  28.464   6.901  14.894
77621W        W45850  29.589  10.077   4.950
77622W        W45851  19.742  19.294   3.715
77623W        W45852   7.716  38.333  12.440
77624W        W45853  28.057  41.101  14.291
77625W        W45854  35.600   4.427  10.760
77626W        W45855  16.007  33.241  11.009
77627W        W45856  12.238  29.040  14.774
77628W        W45857   5.335  15.335   1.141
77629W        W45858  10.564  23.431   0.459
77630W        W45859   1.806  26.944   3.615
77631W        W45860  32.161  38.354  10.623
77632W        W45861  34.890  21.978  12.398
77633W        W45862  39.278   9.729  13.884
77634W        W45863   5.861  22.210  11.507
77635W        W45864  43.365  33.682   1.681
77636W        W45865  23.184  37.681   2.339
77637W        W45866  42.592   0.578   5.024
77638W        W45867   1.247  26.758   1.250
77639W        W45868   6.758  24.254   4.713
77640W        W45869  36.336  12.171  12.756
77641W        W45870  28.688  22.577   3.770
77642W        W45871   4.733  18.066  13.432
77643W        W45872  27.581  23.968   4.526
77644W        W45873   3.820  19.089  12.881
77645W        W45874  31.053  13.365  12.964
77646W        W45875  24.759   9.352  12.923
77647W        W45876   4.863  21.046  11.485
77648W        W45877   8.027  32.511   0.748
77649W        W45878  17.403   6.390   2.326
77650W        W45879  22.762  23.649  14.034
77651W        W45880  33.097  38.037   2.622
77652W        W45881  26.559  32.588  10.214
77653W        W45882  40.336  25.196   2.889
77654W        W45883   2.479   7.679   2.234
77655W        W45884   2.884  11.717   4.791
77656W        W45885   3.827   5.219  13.955
77657W        W45886   4.750  37.572   0.959
77658W        W45887  15.472  31.987   2.800
77659W        W45888  27.566  41.375  12.979
77660W        W45889  16.735  20.731   1.798
77661W        W45890  39.799  21.131   0.597
77662W        W45891  44.945  24.950   3.800
77663W        W45892   1.549  11.424  11.596
77664W        W45893  41.115  24.945  11.618
77665W        W45894  33.606  12.543   0.359
77666W        W45895  38.963  26.504   2.282
77667W        W45896   5.005  36.231  10.251
77668W        W45897  41.561  36.859   0.176
77669W        W45898  17.305  12.882   2.856
77670W        W45899  29.123  19.647   2.112
77671W        W45900   3.549  10.298  11.369
77672W        W45901  37.795  17.976   1.859
77673W        W45902   9.733  40.517  12.141
77674W        W45903  29.470  23.959   1.054
77675W        W45904  23.205  34.467  11.075
77676W        W45905  36.987  11.944  11.165
77677W        W45906  13.816  38.193   2.275
77678W        W45907  30.407   1.761   2.934
77679W        W45908  35.457  18.629   3.408
77680W        W45909  27.117  33.334  14.381
77681W        W45910  38.703  33.170  14.527
77682W        W45911  30.598  37.514   4.736
77683W        W45912  11.329  43.966  13.100
77684W        W45913  43.321  36.181  11.142
77685W        W45914  41.354  15.253   4.143
77686W        W45915  26.702  39.489  12.862
77687W        W45916   2.830  29.825   0.815
77688W        W45917  23.105  13.825  13.698
77689W        W45918  44.895  37.197  11.781
77690W        W45919  16.734  20.128   4.897
77691W        W45920  26.544   4.522  14.846
77692W        W45921   6.927   2.223   4.908
77693W        W45922  17.940  28.629   0.281
77694W        W45923  40.102   4.748  14.533
77695W        W45924   9.617  41.999   4.018
77696W        W45925   5.075  32.219  12.108
77697W        W45926   0.304  29.834   2.898
77698W        W45927  39.606  16.377  13.930
77699W        W45928  15.023  31.103  11.609
77700W        W45929  22.214  15.220   3.288
77701W        W45930  33.704  41.547   0.553
77702W        W45931   5.227  44.026   3.788
77703W        W45932  42.799  40.947  10.973
77704W        W45933  32.989  38.145  10.562
77705W        W45934  10.304  19.626  10.968
77706W        W45935  40.794  43.886   2.398
77707W        W45936  19.358  34.423   0.397
77708W        W45937  31.400  23.590  12.601
77709W        W45938  19.221  22.025  11.300
77710W        W45939  38.365  23.911  13.995
77711W        W45940   0.298  42.996  11.430
77712W        W45941  33.893  37.941   3.330
77713W        W45942   5.534  10.765  10.718
77714W        W45943  43.007  38.914  14.513
77715W        W45944   9.247  16.065  12.422
77716W        W45945   3.832  19.685  12.241
77717W        W45946   2.740  22.932   1.921
77718W        W45947  18.204  25.292  11.618
77719W        W45948  31.459  35.560   4.531
77720W        W45949  15.291  44.076   1.827
77721W        W45950  22.728  33.397   4.007
77722W        W45951   5.973  41.417   4.597
77723W        W45952   8.861   6.629   1.274
77724W        W45953  34.501  39.510  12.835
77725W        W45954  41.820   5.000  13.972
77726W        W45955  10.851  15.840  13.062
77727W        W45956  11.099  44.883  10.933
77728W        W45957  20.002  18.056   4.090
77729W        W45958   3.362   9.340  12.245
77730W        W45959  19.491  10.305   4.648
77731W        W45960  30.667  19.367  10.605
77732W        W45961  39.964  20.566   3.073
77733W        W45962   9.168  40.304  11.358
77734W        W45963  44.025  41.051   4.185
77735W        W45964  22.473  22.997   3.925
77736W        W45965  27.143  40.312   4.645
77737W        W45966  42.821   7.695   3.274
77738W        W45967  16.541  20.024   3.494
77739W        W45968  16.815   5.927   1.330
77740W        W45969  35.695  43.063  11.550
77741W        W45970   1.889  15.849  10.484
77742W        W45971  12.814  14.760  10.938
77743W        W45972   3.300  18.944  14.297
77744W        W45973  30.557  27.800   4.629
77745W        W45974   4.260  18.107   4.978
77746W        W45975  35.266  10.932  12.433
77747W        W45976  21.974  43.271   0.260
77748W        W45977  20.311  14.614  10.668
77749W        W45978  14.122   6.747  14.447
77750W        W45979  31.059  35.023  11.028
77751W        W45980  38.352  17.145  10.453
77752W        W45981  41.823   4.490  13.957
77753W        W45982  20.848  23.388  13.982
77754W        W45983  15.158  19.498  12.316
77755W        W45984  23.684  16.249   0.760
77756W        W45985  14.745   9.705   1.153
77757W        W45986   7.688  14.763   3.375
77758W        W45987  28.634  11.370   1.057
77759W        W45988  30.857  22.276   4.588
77760W        W45989  35.764   8.373   5.186
77761W        W45990  28.167  21.737   0.799
77762W        W45991  13.583  36.426   5.043
77763W        W45992  28.184  17.370   0.990
77764W        W45993  34.676  10.913  11.154
77765W        W45994  43.105  37.428   0.948
77766W        W45995   1.681   7.939   3.239
77767W        W45996  13.263  29.489   2.273
77768W        W45997  16.824  26.470  14.555
77769W        W45998  32.385  15.194   0.074
77770W        W45999   3.390  25.708  14.892
77771W        W46000  18.031  44.382  13.386
77772W        W46001  15.715  24.119  12.129
77773W        W46002   5.661  20.689   2.776
77774W        W46003  37.914   5.887   9.745
77775W        W46004  35.537  35.046  13.474
77776W        W46005  42.471  13.802  14.500
77777W        W46006  25.632   8.543   2.673
77778W        W46007  27.327   9.233  13.832
77779W        W46008  38.849  26.998  13.131
77780W        W46009  19.696   6.384   3.627
77781W        W46010  39.567   3.786  12.391
77782W        W46011  41.279  19.529   2.762
77783W        W46012  24.050   9.792  14.509
77784W        W46013  40.682  35.156   3.802
77785W        W46014   0.893  20.218  13.347
77786W        W46015   6.417  13.187  12.172
77787W        W46016   3.858   5.152  11.113
77788W        W46017   1.861  17.139  14.681
77789W        W46018   7.326  20.006   1.409
77790W        W46019  21.231  13.125  12.053
77791W        W46020  42.880  19.691  13.803
77792W        W46021  41.536  24.539   4.167
77793W        W46022   5.915  15.400  11.205
77794W        W46023  17.030   0.926  13.903
77795W        W46024  39.009   5.790  12.977
77796W        W46025  30.900  38.723  13.340
77797W        W46026  15.835   0.369   1.425
77798W        W46027  11.934  44.918   0.487
77799W        W46028  44.032   5.801  10.402
77800W        W46029  37.472  17.634   2.277
77801W        W46030  35.028  12.630  10.721
77802W        W46031  12.803  34.059   2.840
77803W        W46032   8.194   5.933  10.687
77804W        W46033  26.622  12.554  11.894
77805W        W46034  39.952  13.707  10.727
77806W        W46035   8.346   4.065  14.891
77807W        W46036   8.785  11.271  10.971
77808W        W46037   9.477  20.239  13.822
77809W        W46038  26.977  33.605  13.024
77810W        W46039  36.322  27.995  12.570
77811W        W46040  12.811  27.527   0.254
77812W        W46041  43.296  31.362  13.830
77813W        W46042  12.646  20.503   3.504
77814W        W46043  18.924   6.292  10.645
77815W        W46044  19.349  31.363  11.123
77816W        W46045  17.677  12.636  12.102
77817W        W46046   5.476  13.707   3.823
77818W        W46047   3.431  32.393  11.454
77819W        W46048   6.674   5.784   4.883
77820W        W46049  23.947  40.512   4.044
77821W        W46050  16.129  31.678  13.718
77822W        W46051  12.318  20.076   2.280
77823W        W46052   6.224   6.273   2.263
77824W        W46053  20.507  34.814   2.179
77825W        W46054   5.779  36.565   0.893
77826W        W46055   8.843  10.262   4.592
77827W        W46056  33.534  10.735  11.976
77828W        W46057   6.999   5.185  11.175
77829W        W46058  22.668   6.179  14.753
77830W        W46059  18.581   6.458  11.506
77831W        W46060  37.024   6.394   9.920
77832W        W46061  44.880  43.939   1.400
77833W        W46062  31.142  24.774  12.405
77834W        W46063  18.778  24.413   2.758
77835W        W46064  13.102   4.904   2.778
77836W        W46065  12.843   6.266  12.950
77837W        W46066  16.300   9.161  12.081
77838W        W46067  28.619  39.856   0.366
77839W        W46068  11.421  33.047   2.096
77840W        W46069   9.969  22.553  12.384
77841W        W46070  41.910   4.212  12.361
77842W        W46071  22.768  33.541  10.614
77843W        W46072  39.572   0.500   0.418
77844W        W46073   7.863  18.788  12.149
77845W        W46074  12.301  19.657   1.759
77846W        W46075   5.700  25.636  14.781
77847W        W46076  35.369   3.839   1.381
77848W        W46077  23.695  36.556   4.718
77849W        W46078  21.069   7.469   3.578
77850W        W46079  33.560  40.510  12.853
77851W        W46080  41.836  33.398   1.413
77852W        W46081  42.604  32.116   4.868
77853W        W46082  40.637   1.777  13.233
77854W        W46083  32.039  19.231  12.148
77855W        W46084  33.012  37.800  11.969
77856W        W46085  22.621  23.757  10.756
77857W        W46086  43.874   1.207   3.740
77858W        W46087   3.801  34.627   4.623
77859W        W46088  35.273  18.165  11.134
77860W        W46089   8.869  16.969  11.163
77861W        W46090   7.647   3.538  14.377
77862W        W46091   0.978   8.706   0.736
77863W        W46092  35.480  17.661  13.853
77864W        W46093  17.040  16.507   4.645
77865W        W46094  18.866   8.335  11.121
77866W        W46095  23.032  29.507  12.165
77867W        W46096  28.983  10.740  10.656
77868W        W46097   4.166  29.972   1.345
77869W        W46098   2.352   7.374  14.340
77870W        W46099  32.973  10.304   0.978
77871W        W46100   7.106   1.455   0.833
77872W        W46101  24.552  19.482  11.216
77873W        W46102   7.828  12.544  10.711
77874W        W46103   2.713   9.750  12.634
77875W        W46104  31.467  19.774  13.968
77876W        W46105  26.620   8.929  14.380
77877W        W46106  18.858  26.938   4.596
77878W        W46107   1.227  24.106  14.439
77879W        W46108   4.638  12.083  11.684
77880W        W46109  20.700  25.273   0.522
77881W        W46110  19.639  25.594   1.927
77882W        W46111  25.161  44.799  10.694
77883W        W46112  19.034  27.495  13.982
77884W        W46113  40.257  13.660   3.696
77885W        W46114  29.178   3.432  10.234
77886W        W46115   4.376   1.930   4.258
77887W        W46116  37.504  41.872  11.510
77888W        W46117  35.129   9.411   3.239
77889W        W46118  13.121  11.558   1.822
77890W        W46119  27.779  28.988  11.080
77891W        W46120  26.944  18.610   0.418
77892W        W46121  15.085  22.730   4.491
77893W        W46122  16.282   5.016   1.315
77894W        W46123  31.462   6.424  14.250
77895W        W46124  25.285  22.652   0.295
77896W        W46125  15.145  37.332  11.689
77897W        W46126  13.319   2.374  12.293
77898W        W46127  19.602   7.196  11.379
77899W        W46128  12.714  26.207   3.132
77900W        W46129   0.996  31.365   1.855
77901W        W46130  35.615  38.965  13.399
77902W        W46131  43.272  28.978   0.034
77903W        W46132  29.196  14.159  11.158
77904W        W46133  10.167   5.323  11.973
77905W        W46134  28.083  29.008  11.570
77906W        W46135  34.743  16.057  11.937
77907W        W46136  40.006  27.481   0.275
77908W        W46137   4.174   3.448   2.931
77909W        W46138  28.942  34.558   1.765
77910W        W46139  29.928  35.954   4.018
77911W        W46140  37.178  33.039  13.426
77912W        W46141  34.134  16.566   5.405
77913W        W46142  39.490  36.923   3.239
77914W        W46143  40.101  17.969  13.343
77915W        W46144  37.824  25.739  11.639
77916W        W46145  28.409   1.268  12.870
77917W        W46146  23.706  43.922   2.692
77918W        W46147   7.804  31.101   3.687
77919W        W46148   7.239   6.198   3.871
77920W        W46149   4.968  38.816   3.109
77921W        W46150   8.486  38.676  10.291
77922W        W46151  28.550  12.544  13.837
77923W        W46152   5.174  25.462   4.049
77924W        W46153   6.980  15.852  10.395
77925W        W46154   3.483  26.490  13.877
77926W        W46155  38.024   1.945   4.572
77927W        W46156  34.093  22.789   4.969
77928W        W46157   0.525  43.189   3.121
77929W        W46158  23.429   3.302   3.196
77930W        W46159   0.886  16.313   4.111
77931W        W46160  40.915  21.903  13.447
77932W        W46161   5.342  14.657   0.559
77933W        W46162   9.530  18.706   2.730
77934W        W46163  33.352   0.007  10.629
77935W        W46164  30.041  36.316   1.453
77936W        W46165   7.202  14.920   0.889
77937W        W46166  39.354  20.943   2.126
77938W        W46167  24.424   7.863   3.358
77939W        W46168  21.623  25.704   4.768
77940W        W46169   3.359  19.418   1.017
77941W        W46170  32.993  16.635   0.774
77942W        W46171  22.681  16.618   2.443
77943W        W46172  30.383  38.997   2.136
77944W        W46173   0.410  23.288   0.476
77945W        W46174   4.280  31.567  11.448
77946W        W46175  21.958  40.207  14.986
77947W        W46176   3.944  38.550  11.675
77948W        W46177  10.106  32.981  14.971
77949W        W46178  17.070  20.574   1.359
77950W        W46179  24.964  28.259  14.396
77951W        W46180  43.914  11.367   4.597
77952W        W46181  13.396   4.123   4.410
77953W        W46182  31.964   1.873  10.755
77954W        W46183  14.979  32.480   0.814
77955W        W46184  36.963  40.345   3.648
77956W        W46185  35.021  16.155  13.867
77957W        W46186  34.051  22.501  11.453
77958W        W46187  10.379  25.913   4.092
77959W        W46188  22.107  15.576   0.438
77960W        W46189  39.607  30.080   1.826
77961W        W46190  23.469   1.776   2.970
77962W        W46191   7.755  20.640   4.106
77963W        W46192  14.967  42.725  12.497
77964W        W46193   8.283  10.952   1.253
77965W        W46194  30.704  30.950   4.244
77966W        W46195  34.910   3.503  14.977
77967W        W46196  25.635  27.675   5.072
77968W        W46197  31.831  35.323  14.937
77969W        W46198  42.543  11.390  13.411
77970W        W46199  27.262  37.999   3.149
77971W        W46200  36.091  41.761  14.094
77972W        W46201  30.241  44.320  10.795
77973W        W46202  40.816  35.967  14.370
77974W        W46203  23.957  25.594   3.750
77975W        W46204   7.228  32.975   0.655
77976W        W46205  40.445  14.174   3.653
77977W        W46206  44.730  16.143  14.300
77978W        W46207  38.914  17.228  13.470
77979W        W46208  10.537  12.078  14.807
77980W        W46209  11.903  10.897   2.109
77981W        W46210  21.596  32.171  11.155
77982W        W46211  42.602  34.915   5.198
77983W        W46212  21.630  44.400  12.264
77984W        W46213   5.290  43.106  12.067
77985W        W46214  34.044   8.210  11.024
77986W        W46215  32.442  14.786   3.166
77987W        W46216  22.065  25.720  14.712
77988W        W46217   6.470  29.169   3.560
77989W        W46218  15.329  26.860   3.662
77990W        W46219  19.781  39.115  14.335
77991W        W46220   1.925   1.854   3.509
77992W        W46221  10.297   0.525   4.193
77993W        W46222  39.228  15.123  12.403
77994W        W46223  21.368  18.094  13.232
77995W        W46224  19.902  26.732  10.526
77996W        W46225   6.946  35.849   0.489
77997W        W46226  13.207   9.806   4.126
77998W        W46227   9.152  12.465   3.065
77999W        W46228  26.210   4.747  10.706
78000W        W46229   9.879   9.606   3.785
78001W        W46230  15.074   2.673   1.003
78002W        W46231   8.893   2.272   1.376
78003W        W46232  27.409  27.665  10.655
78004W        W46233  43.465  12.581   0.311
78005W        W46234  38.993  16.778  11.138
78006W        W46235  22.588  12.757   0.368
78007W        W46236  26.098  28.647  10.671
78008W        W46237  44.520  26.676  10.109
78009W        W46238  33.968  17.331  12.081
78010W        W46239  37.558  11.255   3.174
78011W        W46240   2.455  25.228   2.861
78012W        W46241  36.617  26.539  13.484
78013W        W46242  20.454   7.402   1.229
78014W        W46243  11.197  15.371  10.590
78015W        W46244  19.815  42.343  12.413
78016W        W46245  27.522  32.545   0.295
78017W        W46246  10.160  15.040   1.168
78018W        W46247  41.390  31.093   4.551
78019W        W46248   3.139  18.723  11.568
78020W        W46249   8.145  15.583   0.777
78021W        W46250  26.329  33.115   3.182
78022W        W46251  12.088  34.171  11.063
78023W        W46252  44.303  42.385  11.904
78024W        W46253  43.642  25.217   0.694
78025W        W46254  34.205  44.377   3.787
78026W        W46255  43.845  40.463  12.933
78027W        W46256  30.051  17.710   4.277
78028W        W46257  19.217  20.031   3.727
78029W        W46258  22.466  16.134  13.391
78030W        W46259  11.389  22.115   4.351
78031W        W46260  31.936  22.895  12.636
78032W        W46261  18.120   0.005   1.791
78033W        W46262  19.151   6.648   1.964
78034W        W46263   3.801  20.552   2.357
78035W        W46264   8.697  44.449   3.663
78036W        W46265  37.503  19.048  10.946
78037W        W46266  28.170   2.781   4.092
78038W        W46267  31.664  38.926  12.073
78039W        W46268   6.504  43.528   1.744
78040W        W46269  14.334  11.611   1.193
78041W        W46270   5.345  41.963   2.004
78042W        W46271  11.291   9.816   3.212
78043W        W46272   9.038  18.019  10.513
78044W        W46273  24.451  43.745  12.985
78045W        W46274  43.807  35.015   3.212
78046W        W46275  11.575  19.571  10.435
78047W        W46276   7.587  17.789   4.624
78048W        W46277  31.356  41.533   3.376
78049W        W46278  27.766   6.264  10.991
78050W        W46279  34.441  19.752  13.448
78051W        W46280  34.484  31.899  12.984
78052W        W46281  15.599  28.433  11.882
78053W        W46282  27.088  41.514   1.140
78054W        W46283   4.491  39.261  13.419
78055W        W46284   6.282  22.634   2.562
78056W        W46285   8.289  13.533  13.842
78057W        W46286  39.368  36.982  11.057
78058W        W46287  25.123  27.627   3.666
78059W        W46288  29.614  28.874   0.335
78060W        W46289  34.113   4.349   0.800
78061W        W46290  13.635  10.293   0.719
78062W        W46291  20.204  38.077   3.827
78063W        W46292  25.195   3.338   3.602
78064W        W46293  16.110  35.778   2.181
78065W        W46294  36.217  44.896  14.783
78066W        W46295  19.766  21.466   2.888
78067W        W46296  15.544   8.677  11.162
78068W        W46297  18.598  25.578  11.233
78069W        W46298  37.025  17.960   3.182
78070W        W46299   4.680   3.482  11.918
78071W        W46300  21.928  27.064   3.354
78072W        W46301   4.921  33.333   1.342
78073W        W46302  39.246  41.332  10.701
78074W        W46303  37.951  17.159  10.103
78075W        W46304  11.717  17.014   1.339
78076W        W46305   0.796  43.317   3.605
78077W        W46306   6.378   7.647  10.471
78078W        W46307   4.860  23.282  13.373
78079W        W46308  18.267   9.693   2.180
78080W        W46309   0.521   6.372  12.975
78081W        W46310   0.275   0.744   0.246
78082W        W46311  32.052  18.602  13.805
78083W        W46312  32.597  34.858   4.855
78084W        W46313  15.524  27.851  11.041
78085W        W46314  27.582   0.024   1.887
78086W        W46315  22.124  17.797   3.784
78087W        W46316   2.496  11.147   0.310
78088W        W46317   5.241  18.629  13.919
78089W        W46318  16.072  32.513   4.427
78090W        W46319  12.540  29.009  12.420
78091W        W46320   7.234  43.586   2.288
78092W        W46321  12.210  14.281  13.787
78093W        W46322  36.970  17.617  13.110
78094W        W46323  42.594   3.795  11.132
78095W        W46324  17.032   4.424  10.739
78096W        W46325  24.894  23.291   3.677
78097W        W46326  40.601   2.220   0.721
78098W        W46327  18.811  30.558  11.696
78099W        W46328  35.531  23.036   4.854
78100W        W46329  22.320  13.037  10.773
78101W        W46330  23.348   8.705   0.103
78102W        W46331  18.852  39.490  11.587
78103W        W46332  12.780   7.749   4.470
78104W        W46333  18.176  16.354   4.075
78105W        W46334   0.289  10.791   3.142
78106W        W46335  19.809  29.202  11.561
78107W        W46336  19.882  37.056  11.168
78108W        W46337  30.966  27.107  11.208
78109W        W46338  44.293   1.409  10.782
78110W        W46339   8.223  38.259  14.448
78111W        W46340  27.077   2.461   0.873
78112W        W46341  29.240  43.284   1.298
78113W        W46342  32.918  20.245   2.231
78114W        W46343  16.600  28.027  14.432
78115W        W46344  39.659  39.744   1.506
78116W        W46345   8.646   3.864   0.377
78117W        W46346  24.433  41.724   2.810
78118W        W46347  22.202  12.087  13.406
78119W        W46348  24.707  32.589  11.419
78120W        W46349   6.722  15.346  12.544
78121W        W46350  43.743   5.480  11.070
78122W        W46351  10.824  39.047  13.928
78123W        W46352  39.509  30.164   3.553
78124W        W46353   9.126  27.472  14.355
78125W        W46354  27.732   5.844   3.957
78126W        W46355  30.562  40.386   0.848
78127W        W46356  29.682  21.324   0.306
78128W        W46357  11.279  37.477   0.383
78129W        W46358   7.971  12.651   4.117
78130W        W46359  14.101  19.293  11.073
78131W        W46360  38.631   4.169   3.818
78132W        W46361  28.048  15.323  12.342
78133W        W46362  37.637  11.385   4.080
78134W        W46363   5.946  19.893   2.891
78135W        W46364  38.442  11.416   3.608
78136W        W46365  27.243   4.759   4.651
78137W        W46366  39.703  10.298  10.291
78138W        W46367  22.117  40.001  11.638
78139W        W46368  39.271  30.488   3.868
78140W        W46369  24.508   3.513  14.684
78141W        W46370  38.722   3.978   3.315
78142W        W46371  25.365   0.757   4.839
78143W        W46372  29.407  38.522   2.549
78144W        W46373  32.676  27.365  12.652
78145W        W46374   5.982  24.560  14.380
78146W        W46375  26.005  38.890   4.087
78147W        W46376  26.538  37.607  14.300
78148W        W46377  35.256   3.386   0.416
78149W        W46378   8.594  31.146  14.718
78150W        W46379  21.351  40.734   0.193
78151W        W46380  33.158  30.679   0.374
78152W        W46381  17.618  15.239   1.143
78153W        W46382  24.726  15.152   2.394
78154W        W46383  30.505   6.271   2.385
78155W        W46384  38.311  31.442   3.773
78156W        W46385  16.461  44.107  14.238
78157W        W46386  35.588   3.938  10.593
78158W        W46387  27.375  20.480   3.830
78159W        W46388   2.639  39.321   5.171
78160W        W46389  18.719   0.438   1.734
78161W        W46390   3.438   6.126   0.560
78162W        W46391  42.368  39.059   1.319
78163W        W46392  43.973  39.531  13.700
78164W        W46393   4.339  10.894   0.440
78165W        W46394  20.230  29.117  14.784
78166W        W46395  33.007  22.228   3.666
78167W        W46396   4.897  38.039  10.603
78168W        W46397  17.790  44.154   4.472
78169W        W46398  16.124  10.904  14.880
78170W        W46399  35.870  23.818   3.694
78171W        W46400  26.738  39.468  14.041
78172W        W46401  25.107  22.821  13.894
78173W        W46402   1.365  37.428  10.661
78174W        W46403  17.785  32.264  11.051
78175W        W46404  12.627   3.284  13.617
78176W        W46405  35.642  12.371   2.461
78177W        W46406  13.677  30.569   4.582
78178W        W46407  40.448   7.108  10.903
78179W        W46408  44.036   1.223  11.175
78180W        W46409  16.049  20.134  13.918
78181W        W46410  16.334   3.345   1.819
78182W        W46411   3.192  25.536  12.895
78183W        W46412  26.764  26.206   4.865
78184W        W46413   0.205  27.160   2.419
78185W        W46414   7.224  40.172   0.378
78186W        W46415  10.303   9.472   1.649
78187W        W46416  19.381   5.791   0.386
78188W        W46417  41.806   3.477  10.197
78189W        W46418  38.026  37.407  10.835
78190W        W46419  20.722  42.710   3.308
78191W        W46420  27.535  22.540  11.094
78192W        W46421   0.448  33.364  12.131
78193W        W46422  17.798  38.026  11.073
78194W        W46423  36.157  29.605   0.913
78195W        W46424   8.750  13.740   0.270
78196W        W46425  11.774   5.275   4.087
78197W        W46426   9.108  34.856   4.212
78198W        W46427  31.058  36.409  10.943
78199W        W46428  10.303  20.129  11.818
78200W        W46429   5.300  16.871  13.520
78201W        W46430   2.761  35.968   3.527
78202W        W46431   1.278  10.338   4.551
78203W        W46432  37.853  35.972  10.724
78204W        W46433  25.574  10.607   4.189
78205W        W46434   1.850  28.947   2.934
78206W        W46435  29.550  35.403  14.444
78207W        W46436  27.373  17.564  11.913
78208W        W46437  43.703  36.081  10.743
78209W        W46438  23.723  22.205  10.606
78210W        W46439  36.451  34.920  14.618
78211W        W46440   2.275  23.731  11.953
78212W        W46441  36.561  37.358   3.737
78213W        W46442  23.969  26.135   1.043
78214W        W46443  35.353  27.154  14.819
78215W        W46444  40.581   5.207  11.504
78216W        W46445  25.083   0.518  12.998
78217W        W46446  30.288  27.726  14.025
78218W        W46447   2.224  35.461   2.326
78219W        W46448  32.042  41.890   3.420
78220W        W46449  29.985   0.397  11.501
78221W        W46450  23.050  29.965  10.387
78222W        W46451  25.911  10.730  12.550
78223W        W46452  26.496  41.296  10.345
78224W        W46453  23.477  16.804  14.080
78225W        W46454  23.676  12.294  11.022
78226W        W46455  17.291  17.663  11.162
78227W        W46456  13.669  32.498   1.946
78228W        W46457  40.545  29.857   4.179
78229W        W46458  22.184  17.045   0.275
78230W        W46459  42.359   5.282   4.372
78231W        W46460  29.722  33.941  12.491
78232W        W46461   1.969  24.492  10.698
78233W        W46462  19.700  31.413  12.562
78234W        W46463   9.737  19.617  11.655
78235W        W46464  29.157   9.317   0.201
78236W        W46465  42.541  17.255   2.208
78237W        W46466  13.953  15.776  13.574
78238W        W46467   0.238  17.528   4.178
78239W        W46468  11.278  29.018   4.387
78240W        W46469  30.707  17.092  14.025
78241W        W46470  32.814  39.873  13.731
78242W        W46471   5.411   3.949  12.401
78243W        W46472  24.056  17.029   1.839
78244W        W46473   4.646  39.509  14.192
78245W        W46474  21.963   6.213   1.102
78246W        W46475  39.394  34.126  13.813
78247W        W46476  14.090  37.429  11.923
78248W        W46477  41.579  14.832   3.269
78249W        W46478  12.081  15.722  11.801
78250W        W46479   3.810  19.228  14.451
78251W        W46480  16.411  30.104  11.915
78252W        W46481  33.064  12.059  12.014
78253W        W46482   2.048  20.090  12.947
78254W        W46483   4.770  15.323  14.897
78255W        W46484  40.433  34.674   4.550
78256W        W46485  24.585  38.278  14.447
78257W        W46486  17.950  13.675  12.437
78258W        W46487  17.578  30.437   4.988
78259W        W46488  25.408  36.300  11.497
78260W        W46489  13.422  23.451  10.617
78261W        W46490  30.426  43.318  12.918
78262W        W46491  20.640  41.032  11.582
78263W        W46492  44.369  29.470   4.976
78264W        W46493   0.918   5.671  10.995
78265W        W46494   3.193  13.177  13.947
78266W        W46495  21.162  11.698   0.799
78267W        W46496  37.314  21.566  11.761
78268W        W46497  31.328  33.470   2.363
78269W        W46498  42.997  15.086   2.239
78270W        W46499  40.538  14.854  12.052
78271W        W46500   1.218   7.089  12.089
78272W        W46501  28.187  24.654   1.366
78273W        W46502  44.191   1.760  12.155
78274W        W46503  44.866  23.445   0.844
78275W        W46504  38.778  27.633  13.774
78276W        W46505  20.247  36.900   3.672
78277W        W46506   9.118  36.505  12.702
78278W        W46507  35.414   0.247   4.710
78279W        W46508  19.203  38.398  11.430
78280W        W46509  43.458  35.133   1.718
78281W        W46510   5.612  38.439  10.931
78282W        W46511  26.041  37.762  12.530
78283W        W46512  18.713  24.868   5.402
78284W        W46513  17.639   2.297   2.342
78285W        W46514  35.855  33.874   2.001
78286W        W46515   5.911  39.725  11.188
78287W        W46516  28.076  26.933   2.575
78288W        W46517  38.986  17.053  11.575
78289W        W46518  28.522  42.422   0.873
78290W        W46519  31.862   8.374   0.229
78291W        W46520  11.221  15.079   2.415
78292W        W46521   8.951   3.742   4.290
78293W        W46522  18.156  10.185   5.083
78294W        W46523  40.956  21.747  11.618
78295W        W46524  35.473  44.009  11.912
78296W        W46525  10.840  33.598   0.780
78297W        W46526  36.586   3.812   0.234
78298W        W46527   7.563  43.403  10.552
78299W        W46528  28.986   6.718   3.211
78300W        W46529  14.360  34.893   4.210
78301W        W46530   4.772  20.806  11.966
78302W        W46531  19.216  23.730  14.497
78303W        W46532  21.105  42.481   3.567
78304W        W46533  15.010  27.648  13.898
78305W        W46534  29.418  25.984   1.274
78306W        W46535   4.242  31.267  12.677
78307W        W46536   5.938  28.713   1.258
78308W        W46537  37.830  10.653  11.078
78309W        W46538  23.391  23.965  14.797
78310W        W46539   0.953   4.715   0.350
78311W        W46540  23.384  37.269   1.292
78312W        W46541  19.585   5.991   2.329
78313W        W46542   9.938  33.562   2.377
78314W        W46543  30.369   1.242   0.418
78315W        W46544  34.413  17.155   3.310
78316W        W46545  24.759  22.090   4.304
78317W        W46546  25.669  18.063  11.235
78318W        W46547  25.860  22.117  12.095
78319W        W46548  20.598  20.199  11.983
78320W        W46549   7.795  22.599   3.647
78321W        W46550   4.665  38.498  10.543
78322W        W46551  33.299  16.379  13.470
78323W        W46552  14.562  28.175   0.374
78324W        W46553  17.712   7.896   0.899
78325W        W46554  32.888  26.659  12.836
78326W        W46555  40.832  18.633  14.479
78327W        W46556   9.910  34.933  12.988
78328W        W46557  36.156  41.278   3.730
78329W        W46558  25.268   7.483  11.662
78330W        W46559  41.911  32.060  12.080
78331W        W46560  30.106   6.510  13.186
78332W        W46561  28.142  19.379   4.196
78333W        W46562  22.977  30.372  11.511
78334W        W46563  15.991   0.390   0.932
78335W        W46564  43.099  32.864   0.318
78336W        W46565  36.963  37.100  11.042
78337W        W46566  26.604  23.288   2.258
78338W        W46567  38.308   9.409   1.349
78339W        W46568  38.095  11.008  10.126
78340W        W46569  43.422  35.284  13.495
78341W        W46570  31.415  29.864  11.708
78342W        W46571  32.872  24.428   3.869
78343W        W46572  21.979  19.038   3.132
78344W        W46573  13.832  22.061  13.051
78345W        W46574  17.100  38.473  14.508
78346W        W46575  29.467  16.658  12.445
78347W        W46576  25.233   1.745  10.784
78348W        W46577  15.242  21.472  13.837
78349W        W46578  36.685   4.866  14.029
78350W        W46579  21.498  18.770   3.171
78351W        W46580   4.192  41.598   4.189
78352W        W46581  13.407  35.000   0.529
78353W        W46582  36.792  21.625  13.349
78354W        W46583  43.912  30.649   1.959
78355W        W46584  14.159  13.644   2.123
78356W        W46585  41.190   5.690  13.545
78357W        W46586  11.819   4.753  12.134
78358W        W46587  17.094  37.311   2.745
78359W        W46588   8.338  10.226   4.704
78360W        W46589   9.311   5.156   4.667
78361W        W46590  26.543  43.926   3.087
78362W        W46591  35.794  14.075   0.818
78363W        W46592  19.081  37.616  12.083
78364W        W46593   5.485  18.549   3.271
78365W        W46594  34.976   8.719   1.240
78366W        W46595  37.064   0.806  10.676
78367W        W46596  39.522  15.446  13.933
78368W        W46597  14.799  21.678  14.077
78369W        W46598  35.054   9.245   1.467
78370W        W46599  26.521  27.405  10.195
78371W        W46600  17.190  32.438  11.851
78372W        W46601  22.243   6.919  13.877
78373W        W46602  42.264  42.843   2.355
78374W        W46603   9.986  10.942  13.798
78375W        W46604  18.333   7.697  13.847
78376W        W46605  25.225  30.163  12.062
78377W        W46606  23.874  20.576  12.581
78378W        W46607  37.774  36.421   3.037
78379W        W46608  39.525  18.191   2.397
78380W        W46609  18.275  23.717   2.511
78381W        W46610  17.247  10.704  12.033
78382W        W46611   8.805   1.592  12.823
78383W        W46612  35.090  33.466   3.640
78384W        W46613   6.790  21.785   2.296
78385W        W46614  31.966  40.109  11.547
78386W        W46615  20.568  17.802   0.688
78387W        W46616  17.730  25.466  12.876
78388W        W46617   6.216   7.921   2.907
78389W        W46618  38.566  16.246  14.280
78390W        W46619  10.581   7.812   2.800
78391W        W46620  21.671  32.862  14.429
78392W        W46621  44.053  11.634   0.320
78393W        W46622  40.055  26.233   0.943
78394W        W46623  40.433  42.752  13.019
78395W        W46624  17.236   5.305  10.875
78396W        W46625   8.960  31.008   4.138
78397W        W46626  12.956  35.750   1.337
78398W        W46627  18.049  25.103  12.538
78399W        W46628   8.250  27.845  14.521
78400W        W46629  19.250  24.508   1.309
78401W        W46630  34.586  38.344  12.585
78402W        W46631  19.809  40.531  10.616
78403W        W46632   3.017   9.237   2.734
78404W        W46633  30.954  11.128   4.511
78405W        W46634   1.497  39.357   1.798
78406W        W46635  38.104  27.157   0.811
78407W        W46636  31.427  42.449  11.577
78408W        W46637  40.633  36.136  12.939
78409W        W46638  32.454   1.751  14.212
78410W        W46639  26.033  13.610  14.862
78411W        W46640   1.290  36.490   1.355
78412W        W46641  35.420  32.742  14.822
78413W        W46642  33.024  42.801   4.474
78414W        W46643  23.987   4.658  11.934
78415W        W46644  32.845   0.335   3.641
78416W        W46645   7.402  19.686   4.315
78417W        W46646  26.750  21.734  12.954
78418W        W46647  33.144  29.651   0.861
78419W        W46648  38.535  11.836   0.494
78420W        W46649  44.055  44.885   3.352
78421W        W46650  27.070  13.632   1.433
78422W        W46651  23.158  41.996  10.942
78423W        W46652  21.674   6.341  13.297
78424W        W46653  34.407  40.433  12.919
78425W        W46654  36.052   0.309  11.048
78426W        W46655   6.466  15.651  14.465
78427W        W46656  15.154  36.992  12.449
78428W        W46657  20.180  14.847  14.019
78429W        W46658   9.910  35.813  11.976
78430W        W46659  30.649  34.142   3.415
78431W        W46660   0.780  31.957  12.891
78432W        W46661  38.205  29.489   0.405
78433W        W46662  42.976   7.211   3.348
78434W        W46663   6.092  40.551   1.168
78435W        W46664  44.189   2.373   0.220
78436W        W46665  25.487   5.968   4.497
78437W        W46666  20.229  30.223  13.365
78438W        W46667  15.699  24.959  12.412
78439W        W46668  44.487  16.217  13.761
78440W        W46669  42.564  13.991   3.235
78441W        W46670  26.667  31.918   0.355
78442W        W46671  11.195  31.192   0.856
78443W        W46672  20.778  40.682   3.333
78444W        W46673  28.960  43.282   2.166
78445W        W46674  20.934  34.049   0.663
78446W        W46675  15.201  33.631  14.939
78447W        W46676   3.725  37.483   2.867
78448W        W46677  19.667  39.193   0.881
78449W        W46678   1.026  38.826  11.499
78450W        W46679  16.122   4.292  13.947
78451W        W46680  44.807  21.867   1.952
78452W        W46681  39.351  31.094  13.507
78453W        W46682   3.228  44.026   4.130
78454W        W46683   0.182   6.593   1.983
78455W        W46684  37.984  39.464   2.632
78456W        W46685  36.426  22.212   1.174
78457W        W46686  44.429  35.029  10.311
78458W        W46687  23.118  18.994  13.583
78459W        W46688  21.621  42.347  10.408
78460W        W46689  30.373  43.074   2.742
78461W        W46690  30.471   5.233  13.405
78462W        W46691  39.002  25.749  12.102
78463W        W46692  32.357  33.504  14.348
78464W        W46693   8.593  31.524  11.087
78465W        W46694   3.697  21.528   2.529
78466W        W46695  40.001   2.687   3.390
78467W        W46696   9.740   6.214  14.803
78468W        W46697   0.473  24.638   4.201
78469W        W46698   4.261  23.228   2.897
78470W        W46699  12.094  37.072   1.580
78471W        W46700  43.856   3.352   0.400
78472W        W46701  38.246   3.957   4.140
78473W        W46702  22.208  34.617   1.931
78474W        W46703  17.143   9.133   5.000
78475W        W46704  17.650  27.383   2.256
78476W        W46705  20.663  27.466  13.268
78477W        W46706  44.095  22.064  12.354
78478W        W46707   2.763  16.690   0.675
78479W        W46708  11.562  19.416   3.740
78480W        W46709  14.493  32.647   0.975
78481W        W46710  41.871  24.599  14.986
78482W        W46711  15.650   3.955  12.056
78483W        W46712  11.395   6.737  12.099
78484W        W46713  14.337  30.982  12.067
78485W        W46714  40.427  31.691  13.997
78486W        W46715   0.407  44.239   3.252
78487W        W46716   4.175  40.363   4.104
78488W        W46717   9.962  36.002  11.166
78489W        W46718   2.766  19.831   3.699
78490W        W46719   5.428  41.313   3.730
78491W        W46720  16.174  23.061   2.249
78492W        W46721  23.543  37.421  14.207
78493W        W46722  18.646  25.539  11.737
78494W        W46723  17.088   1.082   1.901
78495W        W46724   7.273   3.458   4.657
78496W        W46725  14.758   7.835   3.098
78497W        W46726  38.130  10.691   4.058
78498W        W46727  27.911  26.210  14.008
78499W        W46728  34.975  20.646  14.970
78500W        W46729  34.590  17.267   1.863
78501W        W46730   6.284  22.683  10.179
78502W        W46731  21.704  37.906  13.846
78503W        W46732  35.438   1.951  11.787
78504W        W46733  20.564  43.246  14.921
78505W        W46734  24.222  32.416   2.745
78506W        W46735  26.546  29.997  14.827
78507W        W46736   3.686  15.356   4.250
78508W        W46737  22.567  44.163  10.590
78509W        W46738   4.182  42.582  11.852
78510W        W46739  13.664  21.643   1.914
78511W        W46740   4.968  44.975  11.208
78512W        W46741  21.808  23.563   2.405
78513W        W46742  13.113  19.140   2.486
78514W        W46743  14.580  39.999   4.135
78515W        W46744  25.195   5.006   0.790
78516W        W46745   7.600   4.068  14.445
78517W        W46746  26.402  42.513  14.902
78518W        W46747  20.403  18.613  10.145
78519W        W46748   2.613  29.359   0.817
78520W        W46749  43.775   2.188  10.327
78521W        W46750   9.273  35.570  14.995
78522W        W46751   9.715   4.691  13.373
78523W        W46752  38.296   8.723  13.009
78524W        W46753  42.460  39.308  12.854
78525W        W46754  11.938  13.361   5.052
78526W        W46755  25.417  39.662  13.303
78527W        W46756  24.622   9.674  14.442
78528W        W46757  35.592  19.814  12.283
78529W        W46758  23.638  26.196   4.583
78530W        W46759  35.670   3.642  11.206
78531W        W46760  15.875  32.454  11.926
78532W        W46761  23.215   8.251   0.385
78533W        W46762   1.855  42.145  13.428
78534W        W46763  37.294  19.290  13.048
78535W        W46764  32.153  17.489   3.338
78536W        W46765  24.144  11.765   3.358
78537W        W46766  28.928  10.869  14.364
78538W        W46767  40.751  17.797   2.746
78539W        W46768  26.897  42.478   4.277
78540W        W46769  17.701   4.845  10.265
78541W        W46770  31.717  32.155  14.415
78542W        W46771  16.545  32.927   3.249
78543W        W46772   6.632  40.358  11.225
78544W        W46773  12.778  38.403   4.367
78545W        W46774  27.079  29.505   0.516
78546W        W46775  10.690   4.852  10.237
78547W        W46776  28.681  16.924   0.621
78548W        W46777  29.201  19.116  10.623
78549W        W46778  36.486  42.509  11.103
78550W        W46779   8.325  18.039  14.437
78551W        W46780  30.434  23.584  11.968
78552W        W46781  32.303  36.330   3.914
78553W        W46782  27.203  33.703  14.021
78554W        W46783  44.280  37.491  12.085
78555W        W46784  26.250  19.157   1.762
78556W        W46785  31.596   4.663   0.207
78557W        W46786  32.468  26.514   4.013
78558W        W46787  29.697  17.764   2.433
78559W        W46788  34.919  14.827   4.777
78560W        W46789  34.511  12.142   1.916
78561W        W46790  20.622   8.053  13.062
78562W        W46791  32.857  36.125   3.616
78563W        W46792  15.861  24.622  14.979
78564W        W46793  15.351  27.208   1.429
78565W        W46794  21.716   7.935  11.980
78566W        W46795  29.965  19.247  14.047
78567W        W46796  18.215   1.827   3.779
78568W        W46797  12.749  21.507   1.960
78569W        W46798  31.709   4.436  13.924
78570W        W46799  14.103  41.284   4.505
78571W        W46800   7.855  24.758   2.384
78572W        W46801  36.812  42.045   1.792
78573W        W46802  15.702  43.237   3.763
78574W        W46803  16.688  32.803   2.256
78575W        W46804  28.441  18.794  10.753
78576W        W46805  41.807  14.044   0.306
78577W        W46806   4.392  14.206  14.045
78578W        W46807   6.134  31.428  12.053
78579W        W46808  17.401  14.820  12.129
78580W        W46809  43.704  37.914  11.731
78581W        W46810  25.396  39.116   3.274
78582W        W46811   4.409  29.597   2.166
78583W        W46812  23.616  29.051  11.140
78584W        W46813  26.647  14.639  10.853
78585W        W46814  29.519  29.472   2.901
78586W        W46815  22.561  43.482   0.964
78587W        W46816  23.553  38.792   4.252
78588W        W46817   6.358  10.767   4.877
78589W        W46818   6.058  24.543   0.681
78590W        W46819  18.257  43.537   0.794
78591W        W46820  21.503   9.728   1.801
78592W        W46821  10.281  17.125  14.729
78593W        W46822  36.630  24.055  12.455
78594W        W46823  19.088  12.436  12.644
78595W        W46824   1.382   6.101   3.850
78596W        W46825   6.959  18.020   1.142
78597W        W46826  29.561  30.026   3.678
78598W        W46827  37.375  15.233   0.759
78599W        W46828  36.640   6.438  13.932
78600W        W46829  30.004  25.096   2.736
78601W        W46830  35.399  25.497   1.120
78602W        W46831   7.155  13.071   3.372
78603W        W46832  37.443  30.217   3.303
78604W        W46833  39.278  19.418  14.818
78605W        W46834  26.651   7.312  14.571
78606W        W46835  28.942  27.611  11.659
78607W        W46836  22.649   9.203  12.425
78608W        W46837  32.795  41.141   3.147
78609W        W46838  22.520  26.072   1.787
78610W        W46839  44.977   1.913  11.996
78611W        W46840   0.061   2.535   2.734
78612W        W46841   4.197  29.321  11.995
78613W        W46842  33.926   9.997  14.838
78614W        W46843  34.585  16.854  12.299
78615W        W46844  31.331  12.500  13.493
78616W        W46845  12.314  34.421  10.605
78617W        W46846  18.223  33.687  14.154
78618W        W46847  23.743  14.836   1.916
78619W        W46848  13.548  36.120   4.233
78620W        W46849  20.907  36.140   0.155
78621W        W46850  37.526  36.657  11.492
78622W        W46851  10.377  36.481   2.701
78623W        W46852   0.024  36.735   3.756
78624W        W46853  25.257  43.053   2.276
78625W        W46854  19.591  17.344   2.079
78626W        W46855  18.072   2.749   1.240
78627W        W46856   4.955  28.456   1.693
78628W        W46857  32.465  15.982   4.441
78629W        W46858   2.442  41.482  14.776
78630W        W46859  22.249  19.022   4.286
78631W        W46860  31.704  36.890   4.168
78632W        W46861  28.254  27.875   4.989
78633W        W46862  31.842  16.771   1.567
78634W        W46863  33.079  24.990  11.520
78635W        W46864  44.811  30.155   2.888
78636W        W46865  12.899  32.929  13.061
78637W        W46866  39.036   7.344   2.453
78638W        W46867  10.792  10.669   1.205
78639W        W46868  12.190  28.533  14.023
78640W        W46869  11.352   6.817   2.357
78641W        W46870  14.574  30.070  12.491
78642W        W46871  22.746  44.290  10.115
78643W        W46872  10.896  26.537  13.332
78644W        W46873  13.003  24.976   2.071
78645W        W46874  38.303  37.707   2.734
78646W        W46875  17.272   7.602  13.635
78647W        W46876  13.657  16.001  11.530
78648W        W46877  38.421   0.701   1.000
78649W        W46878  22.074   2.386   0.821
78650W        W46879  41.975  31.871   4.007
78651W        W46880  38.951  29.343  13.838
78652W        W46881  32.348   4.857  11.063
78653W        W46882  37.489  31.006  13.006
78654W        W46883   8.138   8.367  14.378
78655W        W46884   3.500  29.985  12.458
78656W        W46885   2.472   8.406  13.071
78657W        W46886   1.938  29.948   2.728
78658W        W46887  44.510  25.170  14.317
78659W        W46888  31.580  35.303   1.269
78660W        W46889  12.465  27.058  10.880
78661W        W46890  28.217  17.085  12.088
78662W        W46891  28.991  10.569  14.805
78663W        W46892   5.898  12.574  10.605
78664W        W46893  12.543  26.040   2.142
78665W        W46894  26.124  26.175  14.598
78666W        W46895  28.247  25.605   2.702
78667W        W46896   2.955  44.282   4.877
78668W        W46897  28.064  31.976   1.345
78669W        W46898   9.394  21.108  11.662
78670W        W46899  25.157  37.041   5.101
78671W        W46900   5.645  12.774  12.126
78672W        W46901  35.929   5.166  12.633
78673W        W46902  43.934  22.934   2.969
78674W        W46903  24.584  26.870   3.794
78675W        W46904  24.124  43.164  10.342
78676W        W46905  42.315  11.832  14.953
78677W        W46906   3.053  26.484  11.967
78678W        W46907   7.313  20.598   4.374
78679W        W46908  20.924  27.961  13.813
78680W        W46909  10.790  39.416   3.273
78681W        W46910  44.165  19.126  14.867
78682W        W46911  41.190  35.502  11.182
78683W        W46912  36.512   5.935  13.956
78684W        W46913   2.959  38.126  14.801
78685W        W46914  25.662   1.798  11.675
78686W        W46915  31.794   6.738  11.184
78687W        W46916   0.315  44.963   4.404
78688W        W46917  21.169   6.348  14.889
78689W        W46918  21.149  31.406   3.331
78690W        W46919  12.786  12.147  14.503
78691W        W46920   2.556  23.607   3.574
78692W        W46921  24.137  36.485   0.116
78693W        W46922  28.641  12.695  10.603
78694W        W46923  37.069  25.159  13.526
78695W        W46924   9.083  40.227  11.850
78696W        W46925  35.479  16.370  13.948
78697W        W46926  34.890  32.432  13.380
78698W        W46927  25.388  41.849   5.030
78699W        W46928   6.197  10.908   1.742
78700W        W46929   6.248  29.540   3.870
78701W        W46930  34.300  44.853  10.710
78702W        W46931  10.988  18.281  13.389
78703W        W46932   0.181  34.975   1.265
78704W        W46933  26.224   6.116  14.650
78705W        W46934  32.494  13.088  12.942
78706W        W46935  38.332  19.142  12.196
78707W        W46936  25.089   1.694  14.320
78708W        W46937  28.952   9.989   3.024
78709W        W46938  15.569  41.956   0.401
78710W        W46939  38.010   0.404   0.859
78711W        W46940   6.463  35.229   3.548
78712W        W46941  41.647  16.186  13.939
78713W        W46942  39.795  23.038   4.156
78714W        W46943  27.627  20.971   2.773
78715W        W46944  43.715  35.838  11.223
78716W        W46945  25.669  10.275  12.448
78717W        W46946  41.353  17.799   1.263
78718W        W46947  22.945   0.786  14.847
78719W        W46948  44.177   6.280  10.262
78720W        W46949  14.189   4.562  14.364
78721W        W46950  36.587  25.549   3.869
78722W        W46951  27.194  42.981  13.906
78723W        W46952  41.817  42.198   3.198
78724W        W46953  40.807   2.471   0.321
78725W        W46954  20.056  35.643  10.720
78726W        W46955   9.496  19.203   1.475
78727W        W46956   2.171  22.488  12.447
78728W        W46957  42.039   9.554   2.354
78729W        W46958   8.106  13.311   3.442
78730W        W46959  20.597  42.620  14.264
78731W        W46960  34.117  17.269  14.927
78732W        W46961  23.533   8.723  12.849
78733W        W46962  42.662  39.691   1.915
78734W        W46963  12.143  16.123   1.639
78735W        W46964   7.257  41.351  10.645
78736W        W46965  16.024  41.006   0.280
78737W        W46966  41.725  42.339   4.737
78738W        W46967  25.086  21.963  11.007
78739W        W46968  30.973  19.763   3.273
78740W        W46969   9.807  19.232  13.429
78741W        W46970  22.272  22.277  13.914
78742W        W46971  36.609  44.679   0.859
78743W        W46972  20.609  35.760   0.330
78744W        W46973  43.285  42.829   1.393
78745W        W46974   8.549   1.445   3.864
78746W        W46975  34.968   8.238   0.367
78747W        W46976  17.274  12.046   0.453
78748W        W46977  43.957  38.887   0.014
78749W        W46978  11.185  23.842   4.655
78750W        W46979   1.200  30.969   4.680
78751W        W46980   1.826  11.539  14.765
78752W        W46981  10.816  37.152  13.406
78753W        W46982  17.101  25.239  12.573
78754W        W46983  35.533  14.245  13.584
78755W        W46984  33.322  12.358  11.650
78756W        W46985  19.657   7.745  14.982
78757W        W46986  39.859  23.758  12.342
78758W        W46987  38.422  30.997   0.898
78759W        W46988  14.052  29.610   0.844
78760W        W46989   2.839  39.736   4.905
78761W        W46990  29.422  25.788   0.231
78762W        W46991   0.356  18.362   4.480
78763W        W46992  13.178  34.653   1.388
78764W        W46993   2.375   0.021  12.214
78765W        W46994   4.775  15.890   2.768
78766W        W46995   6.943  40.424   1.523
78767W        W46996  40.469  35.592   1.200
78768W        W46997  43.321   4.216  14.270
78769W        W46998   7.461  11.792  10.750
78770W        W46999   1.164  36.930   3.010
78771W        W47000  30.549  26.620  13.678
78772W        W47001  11.697  36.564   2.875
78773W        W47002  22.664   4.479  10.738
78774W        W47003  26.929  27.534  14.345
78775W        W47004  28.533  42.984  11.539
78776W        W47005  42.104  36.551   1.202
78777W        W47006  43.077  37.773   0.307
78778W        W47007  14.138  15.668   2.772
78779W        W47008  38.377  13.741   0.550
78780W        W47009  15.756  25.970   2.353
78781W        W47010   1.637  44.791   2.052
78782W        W47011   5.191  38.086   3.823
78783W        W47012  23.640   9.266  11.582
78784W        W47013  44.425  10.873   1.452
78785W        W47014   7.118  22.575   1.383
78786W        W47015  36.225  10.547   9.809
78787W        W47016  40.781   8.470   2.752
78788W        W47017   9.181  42.551  14.463
78789W        W47018  28.323   0.684   5.034
78790W        W47019  32.543   1.965  13.268
78791W        W47020  16.495   7.356  14.251
78792W        W47021   5.064  16.528  14.473
78793W        W47022  30.110   3.954  14.129
78794W        W47023  38.708  10.624   1.380
78795W        W47024  39.893  39.668  12.520
78796W        W47025  25.122  16.423  12.421
78797W        W47026   6.931  44.443   3.391
78798W        W47027  15.102  31.400   4.063
78799W        W47028   6.358  18.800   0.769
78800W        W47029  29.491  21.268   1.396
78801W        W47030   2.800  24.381   2.710
78802W        W47031   5.749  14.088  13.366
78803W        W47032  21.152   8.779   4.726
78804W        W47033  36.553  44.641  14.426
78805W        W47034   9.274  15.831   1.764
78806W        W47035  32.523  26.219  11.527
78807W        W47036  20.387   5.931   0.278
78808W        W47037  22.436   1.221  11.164
78809W        W47038  16.577  25.609   9.693
78810W        W47039   7.892  10.200  12.523
78811W        W47040  40.853  10.141   2.894
78812W        W47041   0.318  36.539   2.155
78813W        W47042  29.529   8.303  12.636
78814W        W47043  44.777  25.759   2.699
78815W        W47044  38.078  21.265  10.098
78816W        W47045  39.202  40.238  10.174
78817W        W47046  25.546   1.170   4.485
78818W        W47047  43.212  12.005   3.339
78819W        W47048  31.807  18.094  13.346
78820W        W47049  26.475  29.640   1.308
78821W        W47050  10.257   6.922  14.525
78822W        W47051   8.713   1.747   0.665
78823W        W47052  13.327  35.618   2.332
78824W        W47053  10.725   8.134  12.905
78825W        W47054   3.416  24.583  13.317
78826W        W47055  12.216  40.089   2.059
78827W        W47056  20.181   3.748   1.960
78828W        W47057  12.068  18.482   1.902
78829W        W47058   5.005  28.092   4.597
78830W        W47059  13.595   9.805   5.642
78831W        W47060   2.496  32.010  13.550
78832W        W47061  32.491  39.168   3.200
78833W        W47062  13.603  26.159   3.678
78834W        W47063  15.119  42.248  10.759
78835W        W47064   3.670  39.343  12.450
78836W        W47065  41.820   1.789   9.899
78837W        W47066  20.496  32.635   0.765
78838W        W47067   1.386   9.033  13.505
78839W        W47068  14.988   7.593   3.518
78840W        W47069  28.363  26.770  13.055
78841W        W47070  34.907  38.864   2.570
78842W        W47071  43.964  18.628  14.941
78843W        W47072  17.723  11.308  11.251
78844W        W47073  20.100  24.733   0.769
78845W        W47074  16.163  20.843  11.733
78846W        W47075  32.014  33.239  11.153
78847W        W47076  22.981  41.866  10.467
78848W        W47077  24.080  25.386   0.527
78849W        W47078  41.443  17.596   0.763
78850W        W47079   4.485   3.080  13.873
78851W        W47080  10.618  28.088  12.503
78852W        W47081   1.234   3.623  11.161
78853W        W47082  33.833  24.734   3.615
78854W        W47083  41.263  28.703   2.478
78855W        W47084  17.320  39.301  10.545
78856W        W47085  40.515  38.032   4.747
78857W        W47086  37.784   8.791   4.521
78858W        W47087   3.528  28.596   1.391
78859W        W47088   7.154   7.803   0.791
78860W        W47089  30.944  38.550   3.765
78861W        W47090  22.515  34.209  11.130
78862W        W47091  20.115   2.310   3.829
78863W        W47092  17.278  39.509   3.915
78864W        W47093   7.456  16.257   3.201
78865W        W47094  22.636  42.531   2.796
78866W        W47095  41.542  19.704   2.305
78867W        W47096  29.121  34.120  14.826
78868W        W47097   3.822  28.738   3.604
78869W        W47098   5.663  41.536   1.824
78870W        W47099  41.880  16.354  13.044
78871W        W47100  33.996  27.386   4.635
78872W        W47101  31.087  24.598   4.345
78873W        W47102  13.213   7.284   5.211
78874W        W47103  36.144   0.416  12.163
78875W        W47104  40.146  20.622   1.668
78876W        W47105   0.701  21.567  14.012
78877W        W47106  44.733   2.455   4.506
78878W        W47107  20.657  24.299   1.336
78879W        W47108   9.753  18.078   0.825
78880W        W47109  41.020  43.841   2.853
78881W        W47110  33.514  32.462   0.882
78882W        W47111  41.354   0.248   3.832
78883W        W47112   0.774  23.010   0.202
78884W        W47113  31.017   1.461   2.811
78885W        W47114   8.860  39.840  11.207
78886W        W47115  34.573   8.339  10.415
78887W        W47116  22.231  33.646  10.550
78888W        W47117   4.177  41.813  10.654
78889W        W47118  35.575  40.791   1.311
78890W        W47119  21.782  41.223   4.604
78891W        W47120  35.329  23.229   2.872
78892W        W47121  39.144  33.564  12.777
78893W        W47122  19.669  17.326   3.612
78894W        W47123  35.427  27.041   2.337
78895W        W47124  30.971  27.098   1.215
78896W        W47125  26.945   2.234   4.292
78897W        W47126  36.988  25.890   3.480
78898W        W47127  29.096  29.407   3.714
78899W        W47128  21.836   2.489   2.737
78900W        W47129  16.707  12.618   0.595
78901W        W47130  44.048  43.507  11.114
78902W        W47131  20.282  21.790  13.274
78903W        W47132  17.281  18.190  12.243
78904W        W47133   3.981   3.572  10.257
78905W        W47134  33.003  33.210  13.303
78906W        W47135  40.089  36.136  13.011
78907W        W47136  42.223  39.892   2.880
78908W        W47137   8.154  18.132  14.942
78909W        W47138  32.017   6.150   2.406
78910W        W47139  12.804   3.945   3.775
78911W        W47140  24.627  15.717   3.226
78912W        W47141  18.309   2.625  12.906
78913W        W47142  19.733  32.080  13.741
78914W        W47143  12.481  33.058   1.908
78915W        W47144   3.468  27.920  13.780
78916W        W47145  16.336  25.858  11.963
78917W        W47146  13.276  38.716  10.572
78918W        W47147  31.140  27.572  11.364
78919W        W47148  17.061  39.301  12.972
78920W        W47149  16.401  10.577   2.855
78921W        W47150  23.182  44.363  14.861
78922W        W47151  26.645   9.448  13.163
78923W        W47152   7.818  35.462  13.474
78924W        W47153   6.396  24.465  13.505
78925W        W47154   1.250  10.803   2.822
78926W        W47155  12.635  17.384  10.390
78927W        W47156   6.751   1.914   3.116
78928W        W47157  32.549  34.409  14.309
78929W        W47158  10.893  35.032   3.113
78930W        W47159  28.986  38.117   1.906
78931W        W47160  17.817  36.358   1.299
78932W        W47161  14.651  23.319   4.963
78933W        W47162  27.146   4.452  11.195
78934W        W47163  38.295  26.135   1.218
78935W        W47164  17.953  34.495  10.306
78936W        W47165  11.280  29.172  14.417
78937W        W47166   1.928  28.992   1.378
78938W        W47167  10.501  34.587  12.007
78939W        W47168  10.758  40.750   4.156
78940W        W47169   6.150   4.413  14.388
78941W        W47170  42.426   0.327  10.596
78942W        W47171  14.801  39.469  11.721
78943W        W47172  18.557  39.475  12.952
78944W        W47173  42.737  27.248   0.231
78945W        W47174  42.829  37.430  10.485
78946W        W47175  26.918  32.444  11.994
78947W        W47176  38.571  17.214   0.850
78948W        W47177  26.287   7.469   4.513
78949W        W47178  26.555   8.963   1.807
78950W        W47179  17.772   5.674   1.223
78951W        W47180  23.550  29.592   4.171
78952W        W47181   1.201  14.273   0.100
78953W        W47182  29.417   7.057   1.213
78954W        W47183  25.112  11.254   1.472
78955W        W47184   6.043  40.946   2.437
78956W        W47185  27.660   3.011   1.621
78957W        W47186  11.880  41.259   4.167
78958W        W47187  12.053   9.355  13.007
78959W        W47188  12.827   3.427   3.715
78960W        W47189   5.369  22.484  13.910
78961W        W47190  39.799  32.461  14.007
78962W        W47191   3.862  11.367  13.022
78963W        W47192  28.548  11.180   5.044
78964W        W47193  19.618   9.083  12.655
78965W        W47194  44.679   7.056  11.034
78966W        W47195  26.145  10.157   2.490
78967W        W47196  41.489  44.555   0.968
78968W        W47197  18.465  19.636  14.038
78969W        W47198  44.887  12.275  11.408
78970W        W47199  41.428  16.613   4.087
78971W        W47200   0.890  27.038  12.890
78972W        W47201  13.294  33.384  11.322
78973W        W47202   3.476  23.669  11.491
78974W        W47203  24.570  14.291   4.589
78975W        W47204  14.734  42.653  14.755
78976W        W47205  34.564  30.478   4.591
78977W        W47206  37.318  35.769   0.724
78978W        W47207  26.577  34.878  14.023
78979W        W47208  26.645  28.679   0.736
78980W        W47209  43.566   3.885   2.648
78981W        W47210  28.288  22.603  11.896
78982W        W47211  43.249  41.748   3.660
78983W        W47212  26.361  35.596   3.670
78984W        W47213  31.029  39.819  12.646
78985W        W47214  27.643  16.536   4.080
78986W        W47215   0.929  12.838  11.660
78987W        W47216   0.014  25.762   1.815
78988W        W47217  41.973   7.382  12.484
78989W        W47218   2.806   7.122   4.795
78990W        W47219   9.130  28.231  14.962
78991W        W47220  28.257   8.282   3.767
78992W        W47221  13.440  35.570   1.147
78993W        W47222  38.749  36.318   3.295
78994W        W47223  29.512  23.612   0.430
78995W        W47224   3.404  37.443  11.552
78996W        W47225  13.670   0.507   3.890
78997W        W47226  20.425   8.306   0.599
78998W        W47227  25.151  23.842   4.549
78999W        W47228  42.139  15.432   4.785
79000W        W47229  36.570  15.119   2.106
79001W        W47230   7.666   6.168   0.249
79002W        W47231  41.433   3.281   4.649
79003W        W47232  30.001  11.766  13.475
79004W        W47233  17.227   8.412   0.333
79005W        W47234  39.096  25.748   0.238
79006W        W47235  26.725  41.028   2.171
79007W        W47236   5.642   5.522  12.085
79008W        W47237  22.282  15.262   0.827
79009W        W47238  36.510   7.625   3.317
79010W        W47239  35.351  35.369   0.367
79011W        W47240  35.934  42.380  10.499
79012W        W47241  44.909   5.784   4.684
79013W        W47242   2.356  26.053  14.884
79014W        W47243   2.758   0.460   2.214
79015W        W47244  35.838  19.235   1.495
79016W        W47245  42.263  37.429   4.170
79017W        W47246  10.497   5.164  11.154
79018W        W47247  30.895  22.457  14.367
79019W        W47248   9.765   0.805   2.196
79020W        W47249  37.850  39.541   0.411
79021W        W47250  29.250  40.427   3.854
79022W        W47251  23.116  24.208   1.980
79023W        W47252  12.747  15.747   4.341
79024W        W47253  32.908  12.252  12.873
79025W        W47254  36.856  39.919   0.839
79026W        W47255  40.558  11.156  14.985
79027W        W47256  33.028  11.869  14.796
79028W        W47257   9.809  28.469   3.710
79029W        W47258  12.326   9.948   0.622
79030W        W47259  23.704  29.508  10.493
79031W        W47260  36.121  43.906  11.340
79032W        W47261  10.637  13.743   0.670
79033W        W47262  40.279  15.845  13.890
79034W        W47263  42.763  19.017   3.672
79035W        W47264  43.102  36.022   2.177
79036W        W47265  39.331  20.808   2.631
79037W        W47266  21.596  31.669   3.157
79038W        W47267  29.092  37.675  12.411
79039W        W47268  16.829  37.999  14.470
79040W        W47269  27.099  21.456  12.680
79041W        W47270   8.697  25.204  10.460
79042W        W47271  24.073  15.138  11.942
79043W        W47272  41.318  42.806   3.738
79044W        W47273  23.187   5.537   1.435
79045W        W47274  37.018  33.614   2.462
79046W        W47275  23.276  15.825  12.126
79047W        W47276  29.947   0.074  13.011
79048W        W47277  21.035  33.002   2.219
79049W        W47278  15.585  25.138  13.281
79050W        W47279  30.263  36.765  12.970
79051W        W47280  15.016  15.200  12.911
79052W        W47281  24.228  38.110  13.513
79053W        W47282   9.227   6.406  13.017
79054W        W47283  34.263  30.902   5.047
79055W        W47284  25.079  16.695   4.270
79056W        W47285   9.299   5.951  11.201
79057W        W47286   7.390  23.035   2.333
79058W        W47287  24.878  19.145  12.079
79059W        W47288  20.597   5.113   1.740
79060W        W47289  36.487  32.115  12.138
79061W        W47290   7.341  44.985   0.223
79062W        W47291  23.557  14.007  12.109
79063W        W47292  36.295  23.487  14.618
79064W        W47293   2.233  31.910   4.595
79065W        W47294  26.806  16.277   3.935
79066W        W47295  27.593  36.566  12.161
79067W        W47296  10.677  12.288  13.626
79068W        W47297  41.767   8.437  11.184
79069W        W47298  42.743  37.333   2.233
79070W        W47299   8.395  36.015   3.232
79071W        W47300  44.547   7.887  14.931
79072W        W47301  36.902  22.456  11.069
79073W        W47302  24.489  41.990   4.132
79074W        W47303  36.621   4.309   3.604
79075W        W47304  33.053  35.024   3.335
79076W        W47305   1.002  42.342   4.116
79077W        W47306  13.014   4.245  11.690
79078W        W47307  24.967  20.742   4.858
79079W        W47308   6.439  43.137  13.964
79080W        W47309   6.137  27.762  14.264
79081W        W47310   2.463  38.583   2.143
79082W        W47311   7.405  32.667  14.785
79083W        W47312  36.103  38.110   2.306
79084W        W47313  31.706  38.858   2.698
79085W        W47314   2.086  39.796  10.703
79086W        W47315   4.915   1.138   0.940
79087W        W47316   6.950   6.573  13.680
79088W        W47317  14.241  30.172   0.152
79089W        W47318  22.961  18.254   1.424
79090W        W47319  10.987  30.884   2.998
79091W        W47320  11.392  26.073  13.076
79092W        W47321  32.097  38.652   4.539
79093W        W47322  23.982  29.693   3.571
79094W        W47323  17.118  30.944   0.101
79095W        W47324  30.588   7.721   2.819
79096W        W47325  14.558   9.635   4.098
79097W        W47326  15.073  30.617  13.377
79098W        W47327  12.160   5.404  13.338
79099W        W47328   0.747  32.951   3.268
79100W        W47329   4.535  36.174   5.096
79101W        W47330  29.572  16.843   3.805
79102W        W47331  44.076  39.523  14.696
79103W        W47332  40.571  23.754   4.268
79104W        W47333   4.355  32.897   4.809
79105W        W47334  19.127  11.233   3.755
79106W        W47335  19.759   5.819   2.793
79107W        W47336  29.628   2.394  12.044
79108W        W47337  13.530   1.751   2.789
79109W        W47338  23.764  29.955   2.565
79110W        W47339  13.529   4.011   0.809
79111W        W47340  35.290  20.063   2.850
79112W        W47341   7.729  36.518  13.214
79113W        W47342  24.970  13.954   4.581
79114W        W47343  17.569  33.021  11.615
79115W        W47344  35.194   2.360  11.498
79116W        W47345  27.371  26.104  11.485
79117W        W47346  31.375  32.038   0.346
79118W        W47347  29.294  23.496   1.444
79119W        W47348  37.192  41.343   4.651
79120W        W47349   5.543  27.104   1.239
79121W        W47350   9.069  18.760   4.135
79122W        W47351  32.971  23.704  14.481
79123W        W47352  16.284  27.725   2.454
79124W        W47353  19.637   8.987  11.311
79125W        W47354   4.781  39.592  13.700
79126W        W47355  19.501  15.821   0.420
79127W        W47356  12.657  13.896  10.198
79128W        W47357  36.647  29.413  11.658
79129W        W47358   7.166  13.153  12.374
79130W        W47359  13.758  33.901   3.642
79131W        W47360  25.355  36.384  10.978
79132W        W47361  32.916   4.653  14.344
79133W        W47362  15.088  25.275  13.436
79134W        W47363  16.112  11.954  14.825
79135W        W47364   1.964   0.947  11.475
79136W        W47365  44.916   9.184  12.434
79137W        W47366  11.280  44.378   4.851
79138W        W47367   9.386  44.997  11.454
79139W        W47368  37.213  28.430   2.746
79140W        W47369  19.514   7.767  13.050
79141W        W47370  24.068  27.736  13.874
79142W        W47371  34.415   1.749  14.907
79143W        W47372   8.759  28.134   1.264
79144W        W47373  43.375   8.693   3.847
79145W        W47374  18.147  37.968   1.042
79146W        W47375  16.507  26.249   1.713
79147W        W47376  34.954  33.372  13.415
79148W        W47377  32.105   2.590   2.366
79149W        W47378  16.250  19.437   4.227
79150W        W47379  44.102  12.730  13.448
79151W        W47380  43.767  16.630   3.782
79152W        W47381   9.913  44.307  14.524
79153W        W47382  38.147   3.652  14.909
79154W        W47383  35.696  10.481  13.716
79155W        W47384  18.137   9.709  11.974
79156W        W47385  18.139   3.540  12.944
79157W        W47386  19.576   5.155   4.630
79158W        W47387   2.809  41.391  12.455
79159W        W47388  32.071  40.983  14.425
79160W        W47389  37.780   9.569   1.400
79161W        W47390  43.877  43.402  13.771
79162W        W47391  13.652  34.768   4.473
79163W        W47392  32.159   9.414   0.856
79164W        W47393  24.248   6.673   2.178
79165W        W47394  12.672   0.313  14.278
79166W        W47395  43.500  28.329   0.662
79167W        W47396   3.255  43.820  14.430
79168W        W47397  24.545  23.662  14.005
79169W        W47398  23.507  19.573  11.219
79170W        W47399  20.537  37.521  14.715
79171W        W47400  31.444  43.920  13.085
79172W        W47401  10.411  44.601   1.644
79173W        W47402   1.755  33.382   5.125
79174W        W47403  13.258  21.603   0.680
79175W        W47404   9.940   3.690   1.479
79176W        W47405  13.205  39.117  10.901
79177W        W47406   5.397   2.314   0.490
79178W        W47407  14.555  16.763  13.216
79179W        W47408  38.012  33.827  12.935
79180W        W47409  30.833   9.766  14.629
79181W        W47410  32.826  39.055  11.412
79182W        W47411  16.658   0.846  14.676
79183W        W47412  38.332   0.469  11.490
79184W        W47413  30.822  19.590   4.757
79185W        W47414  17.213   1.997  14.793
79186W        W47415   1.546  30.357   4.076
79187W        W47416  22.761  18.297   0.946
79188W        W47417  18.665  10.260  13.896
79189W        W47418  16.588  25.023  14.463
79190W        W47419  37.520   4.295  13.502
79191W        W47420   5.009  28.997  12.044
79192W        W47421  19.080  29.054   0.311
79193W        W47422  42.241  43.458   3.171
79194W        W47423  43.890  27.992   3.094
79195W        W47424  24.274  25.701   4.155
79196W        W47425  38.007  27.137  13.290
79197W        W47426  38.638  32.989  13.446
79198W        W47427  14.180   0.268  10.356
79199W        W47428  25.166  14.239   2.393
79200W        W47429   0.402  42.332  13.066
79201W        W47430  28.441   3.225   2.865
79202W        W47431  29.048  33.523  13.478
79203W        W47432  17.768  35.485  10.657
79204W        W47433  44.602  36.537   3.570
79205W        W47434   6.837   3.521  13.998
79206W        W47435  42.359  33.035  11.401
79207W        W47436  29.582  35.678   3.169
79208W        W47437  33.524  29.582  10.248
79209W        W47438  33.022  19.582  11.827
79210W        W47439  42.948  22.177   1.916
79211W        W47440  26.173  23.990  12.098
79212W        W47441  13.527  15.277  12.590
79213W        W47442  29.539  22.714   3.283
79214W        W47443  18.035   4.189   0.484
79215W        W47444  37.206  19.536  14.823
79216W        W47445  17.824  39.854  11.065
79217W        W47446  42.965   8.184   0.732
79218W        W47447  19.740   7.742  10.718
79219W        W47448   5.749  43.424  10.372
79220W        W47449  32.616  44.891   2.054
79221W        W47450  37.950   4.376  12.648
79222W        W47451   4.183  41.872  14.078
79223W        W47452  25.053  38.776   1.804
79224W        W47453  31.345   8.374   0.322
79225W        W47454   3.896  11.597   0.174
79226W        W47455  41.295  22.337  11.158
79227W        W47456  11.808   0.690   1.125
79228W        W47457  20.169  12.252   4.707
79229W        W47458  39.850  18.096   3.777
79230W        W47459  22.031  40.984  13.878
79231W        W47460  33.491   8.271  14.826
79232W        W47461  26.628  39.028   1.689
79233W        W47462  27.958  21.340   3.198
79234W        W47463   3.380  44.469   1.701
79235W        W47464  30.989   7.656   3.128
79236W        W47465  43.691  20.006   4.980
79237W        W47466  41.571  26.273  11.627
79238W        W47467  19.931  27.874  10.356
79239W        W47468   8.059   5.448   4.585
79240W        W47469  33.015  44.742  12.382
79241W        W47470  38.467  20.293   1.683
79242W        W47471  12.386  21.235  10.688
79243W        W47472  27.641   1.870   1.404
79244W        W47473   4.813  19.073  11.472
79245W        W47474  17.285  29.411  12.520
79246W        W47475  39.142  13.060   4.882
79247W        W47476   0.411  11.279   2.348
79248W        W47477   8.683  15.752  10.062
79249W        W47478  33.053  20.648  13.941
79250W        W47479  24.648  40.871   0.923
79251W        W47480   8.760  15.510   1.388
79252W        W47481   8.413  32.854  13.934
79253W        W47482   3.290  21.176   1.827
79254W        W47483   9.306   8.507  11.979
79255W        W47484   5.441  34.591   0.313
79256W        W47485  10.807  41.693   4.593
79257W        W47486  39.032  22.634  10.458
79258W        W47487  40.224  24.069   3.959
79259W        W47488  31.667  13.151   1.118
79260W        W47489  35.406  28.364   2.349
79261W        W47490  14.360   0.972   3.972
79262W        W47491   2.755  35.872   0.648
79263W        W47492  11.391  37.383  14.873
79264W        W47493  20.182  27.593  13.102
79265W        W47494   8.852   9.358  12.893
79266W        W47495   6.660  26.079   4.508
79267W        W47496  33.422  15.584   2.738
79268W        W47497  13.850  25.707   4.038
79269W        W47498  42.622  18.676   0.380
79270W        W47499  22.394  38.550   1.437
79271W        W47500  10.214  44.906   3.378
79272W        W47501  24.286  26.886   1.330
79273W        W47502  20.562  44.084   2.433
79274W        W47503   0.510  20.568   0.341
79275W        W47504  20.341  12.262   3.143
79276W        W47505  16.093  34.757   3.072
79277W        W47506  40.865  32.462   0.278
79278W        W47507   9.686   4.418  12.871
79279W        W47508  34.026  18.776   0.064
79280W        W47509   9.409  19.277  11.170
79281W        W47510  15.809  28.017  12.859
79282W        W47511  11.841   7.250   2.185
79283W        W47512  30.331  35.387   3.908
79284W        W47513  33.590  35.454   1.937
79285W        W47514  11.529   3.754   0.810
79286W        W47515  41.518  32.142  13.257
79287W        W47516  12.717  26.511   1.399
79288W        W47517   3.210  14.440  11.976
79289W        W47518  20.395   0.019   1.262
79290W        W47519  18.697  14.209   2.465
79291W        W47520  37.007  43.199  10.614
79292W        W47521   7.384   3.771   2.658
79293W        W47522  13.119  21.701  14.378
79294W        W47523  24.642  23.520   2.234
79295W        W47524  41.286   2.213   3.568
79296W        W47525   4.539  34.902  14.973
79297W        W47526  12.784  10.895   4.686
79298W        W47527  19.553  44.047  12.075
79299W        W47528  18.721  10.545   0.945
79300W        W47529  35.999  16.125  12.942
79301W        W47530  25.663   8.349  11.173
79302W        W47531   6.894   3.475   4.279
79303W        W47532  40.069   3.369  13.415
79304W        W47533   5.788  23.071  13.379
79305W        W47534  21.660   7.742  13.908
79306W        W47535  43.838  42.062   1.245
79307W        W47536  17.366  11.887   0.959
79308W        W47537  10.198  37.022  12.324
79309W        W47538  41.714  14.874  12.360
79310W        W47539  22.220  22.026  14.384
79311W        W47540  36.394  39.053   1.615
79312W        W47541  30.012  12.303  14.964
79313W        W47542  27.170  38.575  11.996
79314W        W47543  36.661  27.052   2.131
79315W        W47544  20.793  26.100  14.777
79316W        W47545  36.539  44.259   1.152
79317W        W47546  12.167  21.201   4.698
79318W        W47547  39.624  33.425  12.054
79319W        W47548  41.435  40.551   2.091
79320W        W47549  20.703   6.295  12.982
79321W        W47550  39.796  28.072   3.323
79322W        W47551  29.433  11.031   5.036
79323W        W47552   8.203   7.101   2.819
79324W        W47553  15.252  15.980   3.026
79325W        W47554  35.952  22.802  14.968
79326W        W47555  15.604  37.749  12.425
79327W        W47556  26.645   8.401  14.383
79328W        W47557   3.389  10.164   4.552
79329W        W47558  41.291  25.616   2.251
79330W        W47559  30.076   6.588  12.659
79331W        W47560  43.006  27.117  14.299
79332W        W47561  18.222  22.573  10.898
79333W        W47562  27.416  16.182  13.783
79334W        W47563  14.816  16.258   3.290
79335W        W47564   5.625   3.356   5.062
79336W        W47565  17.479   3.235   3.520
79337W        W47566   2.326  43.550   1.554
79338W        W47567  20.789  13.576   2.625
79339W        W47568  38.020  23.653   2.931
79340W        W47569  23.310   3.988  12.079
79341W        W47570  25.975   2.866  14.393
79342W        W47571  38.859  13.367   1.926
79343W        W47572  22.787   0.507   2.415
79344W        W47573   5.914  35.683  10.650
79345W        W47574  40.005   6.471   2.143
79346W        W47575   6.818  27.738  11.822
79347W        W47576   4.654  14.889   1.879
79348W        W47577  40.570  10.327   4.086
79349W        W47578  41.505  23.684   0.306
79350W        W47579  31.381  12.355  12.489
79351W        W47580  42.830  15.319   4.074
79352W        W47581  10.564   7.687   3.646
79353W        W47582  10.221  23.383   3.169
79354W        W47583  31.583  22.691   2.435
79355W        W47584  39.580  26.898  14.851
79356W        W47585  38.502   5.946  11.064
79357W        W47586  35.869   6.615  10.658
79358W        W47587  17.303  16.668  11.938
79359W        W47588  18.701  16.835   5.312
79360W        W47589   5.874  17.497   2.748
79361W        W47590  34.512  21.033  11.619
79362W        W47591  28.034  23.168  11.639
79363W        W47592  11.376  11.411  14.326
79364W        W47593  26.427  14.538  10.388
79365W        W47594  43.491  16.684   1.407
79366W        W47595   5.309  28.614  12.943
79367W        W47596  24.092  26.449   3.158
79368W        W47597  15.238  37.527   2.385
79369W        W47598  19.336   5.610  12.616
79370W        W47599  37.479  10.363  11.900
79371W        W47600  44.834  31.491  12.640
79372W        W47601   8.521  37.773  11.539
79373W        W47602  35.530  20.272  13.759
79374W        W47603  29.031  38.462   2.926
79375W        W47604  38.006  39.899   2.350
79376W        W47605   6.030   8.580   5.015
79377W        W47606   0.253  19.210   2.260
79378W        W47607   4.230   1.584   2.747
79379W        W47608   3.662  21.235   0.843
79380W        W47609  13.782  18.523   3.343
79381W        W47610  28.606   3.951   2.274
79382W        W47611  18.712   3.814  13.545
79383W        W47612  20.758   7.616  13.436
79384W        W47613  31.414  24.991  13.038
79385W        W47614  16.054   1.655   0.496
79386W        W47615   1.125  34.539  14.818
79387W        W47616  22.235  37.947  13.091
79388W        W47617  39.946   6.892   3.751
79389W        W47618  28.109  16.539   0.399
79390W        W47619  10.343  40.818   2.915
79391W        W47620  21.474  14.074   3.715
79392W        W47621  34.623  14.574  14.999
79393W        W47622  26.321  35.501   5.443
79394W        W47623   8.755  17.538   1.146
79395W        W47624  37.855   0.456  12.928
79396W        W47625  18.145  42.888  11.720
79397W        W47626  42.318  41.942  11.208
79398W        W47627  12.838  33.566  12.414
79399W        W47628  33.092   8.691   4.525
79400W        W47629  40.324  44.339  10.702
79401W        W47630  27.236   7.293   3.634
79402W        W47631   3.725  33.385  13.490
79403W        W47632   5.737  43.864  13.942
79404W        W47633  24.113  30.960   5.152
79405W        W47634  36.433   9.362   2.054
79406W        W47635  18.235  25.796  13.548
79407W        W47636  30.523  16.036  12.572
79408W        W47637  12.562  36.983   2.443
79409W        W47638  12.724   6.610   0.481
79410W        W47639  43.159   1.828   3.739
79411W        W47640  14.248  25.692   0.548
79412W        W47641  10.805  11.727  13.877
79413W        W47642  32.122  30.436  10.415
79414W        W47643  23.984  23.745  12.012
79415W        W47644  30.044  28.815  11.443
79416W        W47645  35.903  40.831   0.673
79417W        W47646  41.345  15.117   0.052
79418W        W47647   5.213  33.037  11.588
79419W        W47648  19.599  31.512   3.449
79420W        W47649  37.869  36.927   3.222
79421W        W47650  27.410   8.231  10.626
79422W        W47651  35.941  43.862   3.867
79423W        W47652  24.429  38.038   2.088
79424W        W47653   3.945  35.449   2.697
79425W        W47654   2.868   3.386  14.363
79426W        W47655  31.023  12.944   2.407
79427W        W47656   1.565  22.035   2.022
79428W        W47657  12.931  44.456   2.056
79429W        W47658   4.693  29.164   2.844
79430W        W47659  32.636   0.930   0.322
79431W        W47660  33.356  25.935   0.883
79432W        W47661   0.577  41.641   4.675
79433W        W47662   4.053  22.352   0.245
79434W        W47663  40.119  23.715  14.741
79435W        W47664   4.754  15.217   4.120
79436W        W47665  42.776  21.306   2.868
79437W        W47666  40.073  35.522   0.231
79438W        W47667  22.758   4.737   1.272
79439W        W47668  36.975  22.641   4.376
79440W        W47669  18.316  44.181  11.033
79441W        W47670  37.315  20.482   0.410
79442W        W47671  37.066  21.123  14.652
79443W        W47672  26.320  14.086   1.540
79444W        W47673   0.710  31.438   2.770
79445W        W47674  26.681  24.574  13.882
79446W        W47675  23.994  38.551  12.746
79447W        W47676  28.195   3.249  13.424
79448W        W47677  31.193  27.588  12.355
79449W        W47678  15.729  32.305   5.086
79450W        W47679   7.271   9.085   4.239
79451W        W47680  13.663  31.806   1.190
79452W        W47681   2.010  26.563   4.299
79453W        W47682  31.866  13.510  11.660
79454W        W47683  12.596   5.706  13.299
79455W        W47684  34.573   8.779   2.912
79456W        W47685  44.406  25.770  13.571
79457W        W47686   3.178  31.445   2.050
79458W        W47687   1.177  34.591   1.840
79459W        W47688  34.488   7.623   0.424
79460W        W47689  29.862  17.318  11.761
79461W        W47690   3.605  18.487   1.898
79462W        W47691  44.824   0.952   2.982
79463W        W47692  10.910  21.697   3.596
79464W        W47693  34.690  14.848   1.895
79465W        W47694  28.555  28.727   2.484
79466W        W47695  17.272  40.839   5.018
79467W        W47696  30.428   3.917   4.791
79468W        W47697  30.525  36.328  13.762
79469W        W47698  34.943  22.765  12.849
79470W        W47699   6.955  32.342  14.885
79471W        W47700  40.832  15.609   4.522
79472W        W47701  42.283  30.011  11.942
79473W        W47702  18.544  18.799   0.476
79474W        W47703   9.142  33.460   4.523
79475W        W47704  12.641   6.249  10.412
79476W        W47705  33.699  15.799  11.897
79477W        W47706  30.164  22.706   2.331
79478W        W47707  17.364  26.843   9.795
79479W        W47708  44.040  20.643   3.774
79480W        W47709  34.870  38.982  13.828
79481W        W47710  40.992  27.662  14.933
79482W        W47711  29.205  42.586  11.106
79483W        W47712  37.328   4.836   3.101
79484W        W47713  41.324  17.540  10.837
79485W        W47714  15.266  17.975  14.239
79486W        W47715  11.091  43.336   1.384
79487W        W47716  11.892  12.044   2.754
79488W        W47717  29.782   9.629  13.374
79489W        W47718  22.211  23.122  11.550
79490W        W47719  41.710  29.579  12.079
79491W        W47720  29.684  39.478  12.839
79492W        W47721   2.954  43.861  13.977
79493W        W47722  39.508  35.662   2.782
79494W        W47723  32.460  23.624  10.794
79495W        W47724   7.390  15.194   1.277
79496W        W47725  20.584   7.380  14.890
79497W        W47726  21.093  38.342   3.334
79498W        W47727   4.934  43.002   0.269
79499W        W47728  41.580  24.043  12.005
79500W        W47729  44.529  21.242   2.701
79501W        W47730   7.791  33.229   2.401
79502W        W47731  29.053   7.274  10.936
79503W        W47732  36.356  40.081  10.715
79504W        W47733  32.913   5.878   1.869
79505W        W47734  24.392  19.677   1.770
79506W        W47735  37.603  40.346   4.323
79507W        W47736   2.319  19.288   3.372
79508W        W47737  10.144  39.784  12.139
79509W        W47738   3.851  23.684  14.270
79510W        W47739  31.001   1.553  12.862
79511W        W47740  14.622  24.508   0.322
79512W        W47741  18.618  32.551   1.959
79513W        W47742  36.548  16.626   4.870
79514W        W47743  29.611  28.170  10.760
79515W        W47744   2.178  28.612   3.239
79516W        W47745  13.629  38.526  12.825
79517W        W47746  12.003  34.532  14.234
79518W        W47747  17.553  41.931  11.261
79519W        W47748  19.553   3.293  13.586
79520W        W47749  13.108  16.290  12.466
79521W        W47750   3.625   4.057  14.840
79522W        W47751  28.510   8.680  14.376
79523W        W47752  25.287  25.408   0.860
79524W        W47753  28.833  44.227  14.495
79525W        W47754  40.419  22.810  14.432
79526W        W47755  30.168  19.167   4.806
79527W        W47756  24.973   0.405   0.281
79528W        W47757  43.308   3.983   3.083
79529W        W47758   5.859  20.822  13.145
79530W        W47759   1.544  12.656   3.274
79531W        W47760  32.548  13.296  14.437
79532W        W47761  31.476  28.842  14.753
79533W        W47762   6.371  34.810   0.835
79534W        W47763  44.980  27.649  10.370
79535W        W47764   9.691  13.229  12.535
79536W        W47765  32.928   2.975   1.854
79537W        W47766  43.452  38.989  14.292
79538W        W47767  38.504  40.039   2.579
79539W        W47768  25.920  26.024   1.887
79540W        W47769  24.098   3.456  12.576
79541W        W47770  26.372  31.466  12.439
79542W        W47771  22.668  37.242   0.871
79543W        W47772  13.392  42.018   1.199
79544W        W47773  12.443   1.322  12.956
79545W        W47774  38.477  28.101  12.425
79546W        W47775  32.980  12.088  14.224
79547W        W47776   4.822  39.916   4.738
79548W        W47777  44.951  36.336  12.755
79549W        W47778  25.467  12.838   0.268
79550W        W47779  17.558   1.829   3.206
79551W        W47780  42.877  43.360  13.919
79552W        W47781  23.370   6.465   4.160
79553W        W47782  30.956   9.245   2.411
79554W        W47783  41.749  33.665  12.890
79555W        W47784   7.419  32.529   1.625
79556W        W47785  20.978  34.453  11.026
79557W        W47786   9.833  16.806   1.230
79558W        W47787  13.951  20.561   1.932
79559W        W47788  31.191   3.715  11.106
79560W        W47789   0.487   6.396   0.326
79561W        W47790  39.879   7.782   1.387
79562W        W47791  13.589   0.790  14.471
79563W        W47792  37.362  37.076  10.717
79564W        W47793   0.955   8.643   4.858
79565W        W47794  12.659  10.246  12.875
79566W        W47795   5.877  36.630   1.760
79567W        W47796  43.760  35.150   3.707
79568W        W47797   7.905  26.615  12.997
79569W        W47798  16.457  21.625   5.353
79570W        W47799  37.952  22.405  13.365
79571W        W47800  20.260  25.144  10.159
79572W        W47801  19.348  14.730   1.409
79573W        W47802   4.483  17.754   2.777
79574W        W47803  38.917  25.467   4.907
79575W        W47804  31.831  26.380   3.789
79576W        W47805   0.429  22.024   4.638
79577W        W47806   4.171  27.649   2.765
79578W        W47807  38.417   3.154  13.200
79579W        W47808   3.685  11.334   3.402
79580W        W47809  28.198  21.551   2.474
79581W        W47810  33.669   9.256  11.996
79582W        W47811  10.123  28.247  11.477
79583W        W47812  34.607   7.290   3.910
79584W        W47813   5.855   1.195  12.471
79585W        W47814  40.228  23.096   2.156
79586W        W47815  33.599  30.910   3.256
79587W        W47816   7.230   3.264   2.611
79588W        W47817  34.123   7.082  12.436
79589W        W47818   2.985  25.533   0.199
79590W        W47819  19.601  29.650   3.177
79591W        W47820  40.043  32.007  12.618
79592W        W47821  39.521   7.737  14.855
79593W        W47822  18.648   1.426  12.985
79594W        W47823   4.370  13.694   2.653
79595W        W47824  26.638  36.074  12.912
79596W        W47825  44.850  31.574  14.387
79597W        W47826   4.203  22.609  11.674
79598W        W47827  25.002  42.073  10.759
79599W        W47828   8.403  15.933   3.180
79600W        W47829   9.871   4.898   0.844
79601W        W47830   3.429  22.255  14.429
79602W        W47831  39.905  32.496   4.685
79603W        W47832  39.821   6.781   2.896
79604W        W47833   7.629  12.466   2.240
79605W        W47834   7.881   7.465  13.439
79606W        W47835  38.012  24.989  13.380
79607W        W47836  27.402  19.064   1.461
79608W        W47837  13.325  29.384  12.906
79609W        W47838  20.272  34.575   0.030
79610W        W47839  14.061  37.000  11.612
79611W        W47840  11.125   0.426   2.778
79612W        W47841  13.792  38.427   0.512
79613W        W47842  10.418   2.708  13.366
79614W        W47843   9.888  16.145   3.661
79615W        W47844  14.445  15.090   2.122
79616W        W47845  22.803   1.530   4.574
79617W        W47846   2.898  28.431   0.257
79618W        W47847   1.303  35.566  14.925
79619W        W47848  39.887  31.246  11.033
79620W        W47849  14.832  44.427  11.985
79621W        W47850  21.771  33.755  10.251
79622W        W47851  33.998  32.614  13.124
79623W        W47852  43.901  18.110  11.493
79624W        W47853  38.953  36.464   0.492
79625W        W47854   3.322   1.610   3.821
79626W        W47855  17.192   2.797   4.804
79627W        W47856   2.980  28.572   3.581
79628W        W47857   5.342  30.643  11.145
79629W        W47858   2.230  27.403  13.849
79630W        W47859  11.347  30.926   3.766
79631W        W47860  19.230   0.518  12.864
79632W        W47861  18.590  43.885   4.182
79633W        W47862  42.591  33.968   1.238
79634W        W47863  35.850  15.746   0.373
79635W        W47864  16.027  12.586  14.643
79636W        W47865  32.904  18.970  14.003
79637W        W47866  39.414  35.907  11.888
79638W        W47867  16.162  41.061  14.404
79639W        W47868  35.098  16.844  12.382
79640W        W47869  15.965   1.879   4.102
79641W        W47870   0.314  30.891  12.025
79642W        W47871  10.138  27.907  11.117
79643W        W47872  12.259   8.232   1.201
79644W        W47873  18.445   2.491  11.124
79645W        W47874  12.836  30.878   4.260
79646W        W47875  26.426   1.040   3.631
79647W        W47876  14.664  26.326  11.944
79648W        W47877  41.931  28.718  11.271
79649W        W47878  41.193  30.072   9.805
79650W        W47879  31.947  21.218   2.600
79651W        W47880   1.386  40.224   3.334
79652W        W47881  44.303  19.475   1.474
79653W        W47882  32.393  14.780  12.920
79654W        W47883   8.305  27.655   1.979
79655W        W47884   2.366  40.414  14.644
79656W        W47885  42.303  36.403  13.521
79657W        W47886  30.705  10.733  13.862
79658W        W47887  16.977  27.428   1.721
79659W        W47888   0.442   7.934  14.593
79660W        W47889  26.594  12.335   1.286
79661W        W47890  29.028  20.480   2.934
79662W        W47891  21.838  17.680   4.193
79663W        W47892  16.093  37.457   4.952
79664W        W47893   9.195   6.255  10.771
79665W        W47894  43.229  31.599  13.077
79666W        W47895  26.546  27.615   3.853
79667W        W47896  40.121   0.766   3.634
79668W        W47897  22.120  12.201   2.195
79669W        W47898  38.597  38.029   2.180
79670W        W47899  31.931  41.834   2.915
79671W        W47900   8.257   9.133   2.035
79672W        W47901  24.744   0.954  11.789
79673W        W47902  27.721   8.700  11.687
79674W        W47903  19.736  43.995  11.596
79675W        W47904  28.640  31.998   3.973
79676W        W47905  25.676  41.039   3.197
79677W        W47906   0.658  31.341  11.152
79678W        W47907  21.693  26.263  11.695
79679W        W47908  34.367  21.011  13.876
79680W        W47909  11.215  37.310   1.856
79681W        W47910  34.043  29.172  12.898
79682W        W47911  38.781  20.354  13.508
79683W        W47912  30.940  15.675   2.720
79684W        W47913  29.037  38.562  12.606
79685W        W47914  16.284  23.221  13.350
79686W        W47915  36.473   6.424   0.732
79687W        W47916  22.608  19.277   4.560
79688W        W47917  27.201  16.874  12.386
79689W        W47918  43.452  18.354  11.719
79690W        W47919  16.299  38.502   1.322
79691W        W47920  35.123  26.098  11.542
79692W        W47921  26.893   8.902  13.919
79693W        W47922  15.659  26.531   2.221
79694W        W47923  42.788  11.782   3.100
79695W        W47924  19.562  30.753   4.805
79696W        W47925  33.469  17.236  13.163
79697W        W47926  27.546  44.511   1.919
79698W        W47927  41.822  27.084  10.706
79699W        W47928  10.687   9.257  12.067
79700W        W47929  18.367  10.905  12.165
79701W        W47930  41.856  14.021   4.473
79702W        W47931  10.984  19.142   1.351
79703W        W47932  12.164  33.949   1.678
79704W        W47933  32.463  25.525  12.590
79705W        W47934   8.394   2.735   0.778
79706W        W47935  17.138  33.344  11.581
79707W        W47936  18.983   4.163   2.857
79708W        W47937  27.740   3.434  11.165
79709W        W47938  36.472   3.371   2.184
79710W        W47939  13.400   3.402  12.587
79711W        W47940  34.598  24.077  14.698
79712W        W47941  28.652  16.063   4.363
79713W        W47942   7.603  42.524  11.094
79714W        W47943  24.443  10.792   4.663
79715W        W47944  10.594  23.264   1.633
79716W        W47945   5.888  16.823   4.311
79717W        W47946  37.692  43.996  12.403
79718W        W47947  24.570  41.467   4.129
79719W        W47948   4.283   1.132  14.668
79720W        W47949   9.306  21.003  14.388
79721W        W47950   0.576  20.466   2.825
79722W        W47951  13.595  29.368   0.908
79723W        W47952  17.057  17.862   4.054
79724W        W47953   8.716  31.558   0.013
79725W        W47954   5.872  10.238   1.057
79726W        W47955   2.482  17.298  13.059
79727W        W47956  11.383  20.192   1.011
79728W        W47957  44.138   9.867   4.095
79729W        W47958   5.397  17.267  14.317
79730W        W47959  35.282  12.310   1.018
79731W        W47960  42.783  30.018   1.005
79732W        W47961  41.504  25.872  14.888
79733W        W47962  44.478  34.145  14.430
79734W        W47963  17.462  20.591   3.330
79735W        W47964   7.364   6.640  12.547
79736W        W47965  38.397   2.491   0.024
79737W        W47966  23.970   9.986  11.148
79738W        W47967  16.732  38.505  10.777
79739W        W47968  10.601  13.557  13.055
79740W        W47969  25.535   7.050  11.797
79741W        W47970  18.788   7.404  11.650
79742W        W47971  26.958  27.575  10.428
79743W        W47972  28.631  27.115   4.928
79744W        W47973   8.172  18.842   0.339
79745W        W47974  43.377   9.736  10.666
79746W        W47975  20.587  37.393  12.470
79747W        W47976  11.276  21.991  13.487
79748W        W47977  41.878  27.038  11.612
79749W        W47978   3.863  25.458  12.397
79750W        W47979   1.644  14.413  11.567
79751W        W47980  27.262   8.634  14.884
79752W        W47981   0.391   6.708  11.586
79753W        W47982  39.389   7.374  11.345
79754W        W47983  17.266  28.358  11.117
79755W        W47984  42.870   5.054  11.993
79756W        W47985  38.299  32.898  14.340
79757W        W47986  23.276   2.476   1.351
79758W        W47987  26.579  18.192  12.422
79759W        W47988  40.919  31.272   4.428
79760W        W47989  43.859  14.178  14.464
79761W        W47990  14.272   7.948  13.190
79762W        W47991   9.172  15.813   0.887
79763W        W47992  31.110  10.821   1.606
79764W        W47993  25.789   4.957  13.356
79765W        W47994  41.851  38.897  14.920
79766W        W47995  21.045  39.721  11.554
79767W        W47996  33.578  41.554  14.750
79768W        W47997  34.718  27.436   3.817
79769W        W47998  34.133  18.135   3.221
79770W        W47999  19.017  15.100   1.252
79771W        W48000   1.884  14.669  13.400
79772W        W48001  39.034   5.794   2.223
79773W        W48002  30.003  11.935  12.586
79774W        W48003  42.512   9.810   2.361
79775W        W48004  32.177  26.761  13.283
79776W        W48005   8.881  25.948  12.309
79777W        W48006  38.550  13.937   1.474
79778W        W48007  31.030  29.135   4.036
79779W        W48008  20.342  23.506  13.944
79780W        W48009  26.013  23.940   0.321
79781W        W48010  12.723  43.045   4.724
79782W        W48011  42.897  19.551   2.773
79783W        W48012  36.980  21.545  12.858
79784W        W48013  31.572  42.736   4.509
79785W        W48014   3.016  23.242   0.219
79786W        W48015  38.354  35.492  12.335
79787W        W48016  39.759  35.334   3.735
79788W        W48017   0.727  14.095   3.207
79789W        W48018  10.825  21.303  11.654
79790W        W48019  19.247  40.030   0.849
79791W        W48020   4.284  42.565  13.674
79792W        W48021   7.302  24.262  14.936
79793W        W48022   3.938  12.630   4.246
79794W        W48023  28.542  25.871   2.054
79795W        W48024  37.965  15.244   0.678
79796W        W48025  27.029  27.679   3.693
79797W        W48026  40.877  44.485  12.408
79798W        W48027  43.341   1.812  11.145
79799W        W48028  13.474  28.017   1.858
79800W        W48029  27.790  28.967  14.987
79801W        W48030  35.703  22.526  11.631
79802W        W48031  12.324  29.893   2.225
79803W        W48032  30.493   5.977   1.180
79804W        W48033  28.581  44.781  13.851
79805W        W48034   5.963  15.825   4.586
79806W        W48035  23.074  28.610   1.457
79807W        W48036   3.844  12.599   0.435
79808W        W48037  16.884  40.559  11.080
79809W        W48038  40.449  16.066  14.777
79810W        W48039   8.172   0.528   2.620
79811W        W48040   7.672   7.764   0.893
79812W        W48041   9.654  41.319  14.485
79813W        W48042  31.408  44.434   0.426
79814W        W48043  42.741  11.712   0.911
79815W        W48044  22.954  14.156  12.658
79816W        W48045  27.705  32.602  10.668
79817W        W48046   3.827  28.265   3.129
79818W        W48047  14.646  20.047  10.651
79819W        W48048  43.122  18.544   1.367
79820W        W48049  16.880  17.961   2.780
79821W        W48050  20.810   4.951   0.447
79822W        W48051  35.577  13.861  14.949
79823W        W48052  40.084  43.953  12.820
79824W        W48053   2.265   4.440  14.763
79825W        W48054   0.972  17.825   2.522
79826W        W48055  44.089  41.974  13.906
79827W        W48056  16.684  26.847  11.861
79828W        W48057   8.655   6.747   1.756
79829W        W48058  19.266  24.614  11.983
79830W        W48059   8.576  37.488   5.004
79831W        W48060  38.350  30.068   2.284
79832W        W48061  14.050   1.851   4.250
79833W        W48062   9.741  44.800   2.121
79834W        W48063  14.075   7.500  13.971
79835W        W48064  22.495  17.713  11.347
79836W        W48065  13.393  37.147   2.761
79837W        W48066  19.012  14.546   0.250
79838W        W48067  25.985   5.502  11.080
79839W        W48068  29.018  25.722   0.816
79840W        W48069  23.285   5.323  12.391
79841W        W48070  20.561  20.766  14.946
79842W        W48071  27.743  20.697  12.457
79843W        W48072  29.938  31.015  14.702
79844W        W48073  27.883  35.599  11.963
79845W        W48074  15.042  29.000  10.673
79846W        W48075  35.094  44.299  14.845
79847W        W48076   9.724  29.606   0.510
79848W        W48077  40.563  34.595  12.465
79849W        W48078  17.308  35.855  13.548
79850W        W48079  42.815  19.283  11.417
79851W        W48080  17.836   1.389   4.762
79852W        W48081   4.531   6.109   1.265
79853W        W48082  43.601   2.468  14.520
79854W        W48083   4.047  29.221   2.068
79855W        W48084  29.492   5.424  13.113
79856W        W48085  41.447  41.289   0.764
79857W        W48086  33.856  33.247   3.003
79858W        W48087   8.655  27.055   3.159
79859W        W48088  18.264  11.402  12.375
79860W        W48089   5.935   3.048  12.973
79861W        W48090   2.777  18.106   0.913
79862W        W48091  22.309  23.999   0.361
79863W        W48092  28.478  11.705   0.688
79864W        W48093  42.348  13.788   2.359
79865W        W48094  37.588  14.582  11.876
79866W        W48095  33.866  42.277   2.250
79867W        W48096  26.254  24.235   1.633
79868W        W48097  18.662  40.461   9.734
79869W        W48098  12.696  16.057  14.750
79870W        W48099  10.115  15.824  11.876
79871W        W48100   3.781   8.344   4.720
79872W        W48101  20.453  18.672   0.497
79873W        W48102  20.747  37.045   2.271
79874W        W48103  15.297   7.927  13.995
79875W        W48104  24.921  32.805   0.883
79876W        W48105  28.945  11.572   2.805
79877W        W48106  21.763  37.443  11.506
79878W        W48107  37.410  30.021  12.103
79879W        W48108  32.606  25.439  14.077
79880W        W48109  33.935  11.596   4.442
79881W        W48110  36.508  10.845  11.100
79882W        W48111  28.383  33.882   4.095
79883W        W48112  29.166  25.194  14.357
79884W        W48113  23.175  30.452  12.689
79885W        W48114  15.377  15.113  11.479
79886W        W48115   7.959   4.018   1.889
79887W        W48116  21.167  41.491   0.832
79888W        W48117   8.621   5.545   3.569
79889W        W48118   3.263  28.135   1.359
79890W        W48119   6.129  41.816  14.642
79891W        W48120  43.863  18.182   0.929
79892W        W48121  34.473   9.915  11.162
79893W        W48122  16.576  40.963   0.349
79894W        W48123   9.162  32.593   2.790
79895W        W48124  32.064   6.371  11.414
79896W        W48125   2.295  10.653   2.962
79897W        W48126  14.893  32.908  13.722
79898W        W48127  12.880   2.481  11.559
79899W        W48128  39.096  42.029  11.638
79900W        W48129  39.447  44.149   4.440
79901W        W48130  40.939  32.028  10.666
79902W        W48131  11.782  23.056  11.428
79903W        W48132  36.243  41.509   1.907
79904W        W48133  32.221  36.842   4.086
79905W        W48134  12.654   0.771  13.037
79906W        W48135  36.843  44.803   3.250
79907W        W48136  20.308  42.468  10.760
79908W        W48137  42.521  44.817  14.667
79909W        W48138  38.816  34.556  14.854
79910W        W48139   9.873  32.011  10.331
79911W        W48140  14.134  22.739  13.371
79912W        W48141  30.832   7.616  13.365
79913W        W48142  39.600   6.799   3.350
79914W        W48143   8.900  18.049  13.492
79915W        W48144  19.143  13.148   0.848
79916W        W48145  23.316  25.492  11.995
79917W        W48146  24.245  42.852   2.369
79918W        W48147  19.764  23.158   4.432
79919W        W48148  31.387   9.226  13.800
79920W        W48149  34.874  33.129  10.775
79921W        W48150   4.162  40.001  10.953
79922W        W48151   4.207   7.781  12.575
79923W        W48152  21.575   7.467  10.681
79924W        W48153  16.864  43.968  11.437
79925W        W48154  27.179  29.253   2.441
79926W        W48155  14.309  12.953   5.154
79927W        W48156  22.510  18.209   3.254
79928W        W48157  27.129  38.800   2.222
79929W        W48158  20.598  26.516  13.094
79930W        W48159  35.872  24.695   3.359
79931W        W48160   5.681  19.048  14.911
79932W        W48161  40.358   2.275  12.079
79933W        W48162  28.088   2.988   4.554
79934W        W48163  37.035  30.537  14.861
79935W        W48164   2.475  39.891  11.040
79936W        W48165  14.893  31.038   0.833
79937W        W48166  41.535  33.396  14.921
79938W        W48167  43.859  30.917   4.314
79939W        W48168   0.142  40.918   1.480
79940W        W48169  13.878  23.392  14.275
79941W        W48170  32.672   1.420  11.151
79942W        W48171   7.361  23.146  10.758
79943W        W48172   0.552  12.642  14.364
79944W        W48173   4.256  33.401   4.875
79945W        W48174  39.159   1.436   1.272
79946W        W48175  23.094   3.617  14.810
79947W        W48176  42.780  16.359  12.938
79948W        W48177  20.253   0.458  12.941
79949W        W48178   5.149  42.182  13.246
79950W        W48179  30.336  22.671  10.668
79951W        W48180   8.484  15.330   3.120
79952W        W48181   7.250  38.395   4.231
79953W        W48182  12.546  15.726   3.437
79954W        W48183   1.615  24.971   0.894
79955W        W48184  35.630  12.290   4.552
79956W        W48185  30.803  31.646  13.752
79957W        W48186  12.103   7.276   1.729
79958W        W48187  15.026  26.495  10.650
79959W        W48188  30.049  22.275  12.185
79960W        W48189   2.904  15.341   3.595
79961W        W48190  18.187  21.645  10.847
79962W        W48191  24.255  30.184  11.455
79963W        W48192  42.023  12.149   3.798
79964W        W48193  18.916  16.861  12.534
79965W        W48194  15.290   5.431  13.990
79966W        W48195  12.509  14.582  13.513
79967W        W48196  27.944   5.950  13.200
79968W        W48197  39.546  34.796   1.185
79969W        W48198  11.684  25.970  14.954
79970W        W48199   4.749  36.904  11.703
79971W        W48200  10.100  27.021  13.448
79972W        W48201  31.457  30.665  13.480
79973W        W48202  33.302  32.447  12.885
79974W        W48203   7.071  30.784   5.139
79975W        W48204  39.341  29.358   2.326
79976W        W48205   5.867  21.282  14.061
79977W        W48206   4.237  30.147  11.576
79978W        W48207  25.663  41.886  13.346
79979W        W48208   5.274  22.979  13.350
79980W        W48209  44.453  13.069  14.880
79981W        W48210   5.727  10.664   4.523
79982W        W48211  36.882  27.872  13.852
79983W        W48212  13.256  34.432   0.453
79984W        W48213  33.136   0.497  11.245
79985W        W48214  43.935   6.818  14.709
79986W        W48215  29.084   0.427  12.482
79987W        W48216  34.895  31.571  12.821
79988W        W48217  12.200  27.007  11.583
79989W        W48218  20.342   3.512   4.163
79990W        W48219   2.694   8.834   3.395
79991W        W48220  22.706  38.889   2.582
79992W        W48221  22.983  34.967   0.917
79993W        W48222  19.564  21.502   2.371
79994W        W48223  21.154  38.457   0.886
79995W        W48224  20.373  34.824  13.002
79996W        W48225   6.501   4.685  12.950
79997W        W48226  30.212  25.167  14.401
79998W        W48227  27.746  37.287   0.473
79999W        W48228  15.220   2.712   3.235
80000W        W48229  37.324  26.297  12.177
80001W        W48230   1.314  28.067   2.829
80002W        W48231   7.171  26.278  12.209
80003W        W48232  11.990  20.009   0.922
80004W        W48233  43.232   7.327   2.659
80005W        W48234   2.255   8.148  11.557
80006W        W48235  40.850  34.318   2.876
80007W        W48236   3.237  37.802   1.451
80008W        W48237  17.776  40.208   3.497
80009W        W48238  19.153  24.106  11.959
80010W        W48239  19.520  43.684   4.110
80011W        W48240  26.884  26.840  11.996
80012W        W48241   2.367  40.213   3.261
80013W        W48242   8.807  11.076   1.815
80014W        W48243  42.905   0.300   0.418
80015W        W48244  11.811  29.901   2.062
80016W        W48245   7.204   3.691   0.766
80017W        W48246   1.752  16.723   4.819
80018W        W48247  12.705  36.678   4.501
80019W        W48248   9.362  24.725   2.317
80020W        W48249  13.728  43.396  10.686
80021W        W48250   7.438  44.308   2.588
80022W        W48251  39.781  18.943   4.189
80023W        W48252  19.520  39.308   3.744
80024W        W48253  11.525  35.834  11.575
80025W        W48254  32.723  35.898   2.226
80026W        W48255   5.179   0.773   4.304
80027W        W48256   5.212  44.862   4.153
80028W        W48257  18.180  37.040  10.605
80029W        W48258  10.842  18.466   0.798
80030W        W48259  42.009  26.305   3.030
80031W        W48260   5.471   0.804   0.250
80032W        W48261  28.054  42.571   3.794
80033W        W48262  19.598  27.251   3.771
80034W        W48263   3.470  36.069  11.584
80035W        W48264  20.202  38.352   3.353
80036W        W48265  25.705  41.911  10.644
80037W        W48266  19.015  34.960  14.208
80038W        W48267  13.527  26.150  14.913
80039W        W48268  14.284   3.885  10.764
80040W        W48269   9.839  33.422   0.509
80041W        W48270   3.903  40.211  10.360
80042W        W48271  30.860  38.538   2.727
80043W        W48272  17.518   6.476  14.945
80044W        W48273   6.978  23.842  13.379
80045W        W48274  42.818  39.284   0.453
80046W        W48275  35.010  33.947  14.679
80047W        W48276  21.114  38.039  13.482
80048W        W48277  14.308   0.471   5.083
80049W        W48278  10.620   3.425   4.087
80050W        W48279   7.753  40.480  12.616
80051W        W48280  25.614  17.559   2.620
80052W        W48281  31.993  12.625   3.307
80053W        W48282  19.366   2.789  11.119
80054W        W48283  37.058  26.216  10.598
80055W        W48284  27.256  13.247   0.449
80056W        W48285  28.959  44.726  14.519
80057W        W48286  31.515   8.465  11.720
80058W        W48287   2.200  31.026   0.916
80059W        W48288  43.310   7.453   0.362
80060W        W48289  26.535   3.037  11.490
80061W        W48290  35.444  41.859  14.846
80062W        W48291  20.993   9.348  13.331
80063W        W48292  33.192  26.290   4.230
80064W        W48293   8.114  41.484  14.320
80065W        W48294  29.147   9.243   1.845
80066W        W48295  34.901  15.837   2.685
80067W        W48296  32.376   5.503   4.761
80068W        W48297  34.125  36.821   4.267
80069W        W48298  31.822  26.016   2.288
80070W        W48299  23.785   9.322  10.670
80071W        W48300  15.049  13.755  14.729
80072W        W48301  27.375  33.370  14.829
80073W        W48302  16.123   2.351   4.316
80074W        W48303  11.683   6.372   2.501
80075W        W48304   7.160  31.562  12.960
80076W        W48305  38.532  39.910   3.593
80077W        W48306   8.758  40.594  11.550
80078W        W48307  31.002  10.642  14.728
80079W        W48308  18.663  18.114   1.985
80080W        W48309   7.347  31.624   3.335
80081W        W48310  24.940  21.314  13.741
80082W        W48311  25.920   9.278   2.001
80083W        W48312   9.890  39.879  13.351
80084W        W48313  13.891  30.862  14.854
80085W        W48314   3.759   7.579   3.408
80086W        W48315  21.589  26.484   0.809
80087W        W48316   3.529   4.501  12.117
80088W        W48317  36.863   5.634  10.303
80089W        W48318  24.386  36.463   0.620
80090W        W48319  36.381  36.613   1.719
80091W        W48320   9.312   6.648  12.572
80092W        W48321  23.462  18.099   4.178
80093W        W48322   7.034   2.501   4.045
80094W        W48323   0.079   0.757  13.824
80095W        W48324  23.611  41.682   2.391
80096W        W48325   4.210  33.273  13.281
80097W        W48326  27.016   5.488  12.957
80098W        W48327  15.141  19.953  14.143
80099W        W48328  26.439   2.368   3.245
80100W        W48329  34.492  17.142   2.365
80101W        W48330  19.754  32.765  12.729
80102W        W48331  42.971  16.750  13.862
80103W        W48332   5.953  25.119   0.687
80104W        W48333  21.106  42.237  10.355
80105W        W48334  42.429  35.129   0.312
80106W        W48335   9.590  35.369  12.856
80107W        W48336  35.566   8.638  10.777
80108W        W48337  14.211  22.066  13.929
80109W        W48338  28.594  16.124   3.359
80110W        W48339  18.574  38.317  13.079
80111W        W48340   3.775  44.930   0.862
80112W        W48341  12.716  31.922  12.612
80113W        W48342   2.291   6.374   1.895
80114W        W48343  39.020  41.468   3.886
80115W        W48344  40.882  37.877   0.817
80116W        W48345   2.050  22.029   2.249
80117W        W48346   2.011  17.535   4.129
80118W        W48347  25.741  34.083   4.005
80119W        W48348  40.590  30.630   3.706
80120W        W48349  36.089  27.498  10.782
80121W        W48350  34.190   9.402  11.988
80122W        W48351  28.329  26.759   1.220
80123W        W48352  25.469  31.801  11.955
80124W        W48353   8.670  21.365  10.179
80125W        W48354   2.650   1.759  10.435
80126W        W48355   8.755  15.404   0.063
80127W        W48356  42.740   1.007   1.176
80128W        W48357  22.709  24.487   1.369
80129W        W48358  14.213  24.270   5.107
80130W        W48359   0.337  21.134   3.668
80131W        W48360  14.878  43.347  13.936
80132W        W48361  15.750  31.654  11.557
80133W        W48362  22.961  28.180  10.912
80134W        W48363  28.924  13.733  14.928
80135W        W48364   3.697  43.571  13.418
80136W        W48365  12.394  21.145  14.680
80137W        W48366  27.170  11.866   4.865
80138W        W48367  33.666  10.225   1.201
80139W        W48368   5.917  35.061   0.906
80140W        W48369  25.207  22.269  11.656
80141W        W48370  22.605  20.882  12.517
80142W        W48371   5.736  22.731  11.597
80143W        W48372   2.348  15.627   5.134
80144W        W48373  23.007   8.340  12.635
80145W        W48374  23.744  37.472   0.479
80146W        W48375   0.295  12.862  13.951
80147W        W48376  14.560  42.464  11.585
80148W        W48377  26.146  11.079   9.947
80149W        W48378  39.990  34.623   0.911
80150W        W48379  10.199  17.266   4.946
80151W        W48380   0.177  17.686   0.441
80152W        W48381  10.763  19.621   0.532
80153W        W48382   5.533  29.599   1.293
80154W        W48383  25.737   3.043   1.282
80155W        W48384   5.886  43.310  12.911
80156W        W48385  35.916  31.976   0.155
80157W        W48386  15.025  39.016  11.347
80158W        W48387  16.285   0.404   2.317
80159W        W48388  41.960   9.771  12.703
80160W        W48389  23.091  41.265  14.080
80161W        W48390  17.539  38.321  14.228
80162W        W48391  34.441   0.276  12.041
80163W        W48392  41.789   3.031   3.812
80164W        W48393  17.062  12.523   9.837
80165W        W48394  23.449   6.607  10.637
80166W        W48395   4.508  16.105  12.095
80167W        W48396  42.199  41.401   5.200
80168W        W48397  31.814  36.494   1.757
80169W        W48398   2.842  38.235  14.291
80170W        W48399  19.084  15.524   0.368
80171W        W48400   8.688  14.769  14.360
80172W        W48401   7.283  30.404   4.825
80173W        W48402  42.345  30.504   0.377
80174W        W48403  22.905  30.933   4.875
80175W        W48404  20.464   3.884  13.067
80176W        W48405  28.809  10.012  11.078
80177W        W48406   2.494  24.073   4.205
80178W        W48407  16.646  15.250  10.745
80179W        W48408  34.446  25.948   0.604
80180W        W48409  40.269  41.409  10.869
80181W        W48410   9.303  36.801   2.292
80182W        W48411  26.427  36.055   3.840
80183W        W48412  36.530  41.327  12.439
80184W        W48413  13.818   5.606   4.168
80185W        W48414  30.094  27.913  10.617
80186W        W48415  20.778  31.825   4.160
80187W        W48416  33.128  32.968   4.400
80188W        W48417   9.954  22.311  11.926
80189W        W48418   0.565  28.735   1.785
80190W        W48419  25.964  26.216  11.521
80191W        W48420   8.829  41.899   3.571
80192W        W48421  36.949  24.395   3.632
80193W        W48422  28.020  26.842  11.389
80194W        W48423  32.968  14.122   1.462
80195W        W48424  44.961   2.263   0.999
80196W        W48425  35.984  20.802  11.266
80197W        W48426  32.406  21.441  12.751
80198W        W48427   6.486  35.566   1.364
80199W        W48428  12.198  41.363  13.140
80200W        W48429   0.501  19.096  14.360
80201W        W48430  21.822  11.273   0.375
80202W        W48431  37.907  42.500   3.164
80203W        W48432  18.565  42.831  14.900
80204W        W48433   8.186  43.115  12.371
80205W        W48434  35.962  43.172  11.033
80206W        W48435  23.074  15.797  11.649
80207W        W48436  37.984  24.666   4.724
80208W        W48437  40.976  20.243  12.596
80209W        W48438  29.198  43.429   4.061
80210W        W48439  40.581  17.217  13.767
80211W        W48440   7.793  29.449  14.325
80212W        W48441  20.971  16.102   0.956
80213W        W48442  21.562  21.938  14.964
80214W        W48443  29.519  32.781  14.897
80215W        W48444   0.398  19.123   1.328
80216W        W48445  39.801  25.983   0.536
80217W        W48446  21.728  29.238   3.986
80218W        W48447  34.575  14.159  11.009
80219W        W48448  32.346  20.376  14.414
80220W        W48449  20.999  29.675  14.362
80221W        W48450  39.868  22.697  12.512
80222W        W48451  29.626  35.874   4.471
80223W        W48452  15.098   7.714  14.982
80224W        W48453  38.952  37.529   3.741
80225W        W48454  31.665   0.865   4.490
80226W        W48455  28.423  11.325  10.616
80227W        W48456  31.510   7.452  11.573
80228W        W48457  42.589  37.061   4.864
80229W        W48458   9.386   5.353   2.326
80230W        W48459  10.220  31.647  12.085
80231W        W48460   6.727  20.541   3.155
80232W        W48461  44.444  16.088   0.179
80233W        W48462   5.802   3.208  12.510
80234W        W48463  12.688  14.014  11.670
80235W        W48464  17.997  24.259  14.279
80236W        W48465  21.135  13.650   3.008
80237W        W48466   8.272  37.621   4.606
80238W        W48467  25.109   8.393  13.020
80239W        W48468  11.544  17.401  14.314
80240W        W48469  27.082  33.612   1.781
80241W        W48470   5.434  18.062   3.491
80242W        W48471  24.758  24.190   0.814
80243W        W48472   1.473  33.083   3.782
80244W        W48473  33.593  35.472  13.308
80245W        W48474  20.738  30.186   0.761
80246W        W48475  21.509   6.078  11.598
80247W        W48476  16.689   6.749  11.872
80248W        W48477   9.797  40.036   1.761
80249W        W48478  42.189   4.030   0.326
80250W        W48479   3.629  21.118  14.021
80251W        W48480  24.945  33.631  13.348
80252W        W48481  36.872  21.275   1.869
80253W        W48482  40.790   6.328   0.518
80254W        W48483   5.647  13.423  10.746
80255W        W48484  44.823  26.317  10.675
80256W        W48485  18.547  18.705  12.530
80257W        W48486  25.106  18.665   0.687
80258W        W48487  41.666  27.189  12.044
80259W        W48488  26.575  19.610   0.481
80260W        W48489  40.425  41.389   1.024
80261W        W48490  25.989  38.044  12.976
80262W        W48491   4.721   6.244   3.303
80263W        W48492  14.550   1.398   3.731
80264W        W48493  34.346  17.907  14.491
80265W        W48494   6.565  23.527  13.377
80266W        W48495  19.058  11.485  13.889
80267W        W48496  10.269  13.211  14.743
80268W        W48497  24.015  25.468  12.420
80269W        W48498   1.077  41.485   4.832
80270W        W48499  22.712  13.292  11.097
80271W        W48500   4.392  44.776  14.795
80272W        W48501  14.619   6.806  12.448
80273W        W48502  26.155  19.052  12.352
80274W        W48503  29.550  11.056   1.188
80275W        W48504  12.560  27.046   3.188
80276W        W48505   4.520  16.280   0.663
80277W        W48506   7.642  34.801   0.177
80278W        W48507  24.590   3.985  14.523
80279W        W48508   7.689  39.368   4.763
80280W        W48509   8.953  32.294   0.532
80281W        W48510   9.747  44.053  14.102
80282W        W48511  26.405  44.359  10.008
80283W        W48512  12.907  35.356  10.820
80284W        W48513  44.587  40.341  10.581
80285W        W48514  39.499  25.785  12.895
80286W        W48515  41.760   0.774  10.793
80287W        W48516  27.912  10.753  14.555
80288W        W48517  36.800  38.299  14.981
80289W        W48518  30.789  26.032  12.162
80290W        W48519  19.033  13.116  11.914
80291W        W48520   6.687  19.013  11.525
80292W        W48521  14.703  35.404   4.926
80293W        W48522  21.798  33.615  14.067
80294W        W48523  42.983  27.500  11.218
80295W        W48524  40.761  35.419   2.043
80296W        W48525  43.345  39.981  11.556
80297W        W48526  37.988  12.837  14.888
80298W        W48527   5.265  27.051   0.775
80299W        W48528  43.534   5.664   1.547
80300W        W48529  28.761  16.599  14.191
80301W        W48530  33.843  29.698   1.458
80302W        W48531  27.959   8.309   0.983
80303W        W48532  34.739  18.128  13.798
80304W        W48533  23.594  15.376  13.018
80305W        W48534   8.914   5.106  12.075
80306W        W48535  29.994  30.879  11.994
80307W        W48536  40.307  21.275   0.396
80308W        W48537  26.553  26.706  14.013
80309W        W48538  29.244  31.408   1.397
80310W        W48539  12.753  29.655  11.704
80311W        W48540  38.782  10.941  10.557
80312W        W48541  40.717  20.408  13.516
80313W        W48542  34.003  11.608   0.200
80314W        W48543  41.991  43.409   4.033
80315W        W48544  22.028  20.015   4.188
80316W        W48545  17.048  22.548  14.260
80317W        W48546  26.004  32.358  11.064
80318W        W48547   8.802  36.373  13.113
80319W        W48548  28.085  38.173   3.404
80320W        W48549  32.926   5.098  14.579
80321W        W48550  43.911  11.389   4.080
80322W        W48551  33.076  32.799  11.998
80323W        W48552  22.089  41.108   0.827
80324W        W48553  10.246  31.164   0.832
80325W        W48554  27.935  23.677   4.788
80326W        W48555  22.999  36.952  13.964
80327W        W48556  13.842  42.556  12.834
80328W        W48557  21.524  30.546  13.376
80329W        W48558  37.128  23.748   0.021
80330W        W48559  32.368   1.831   1.843
80331W        W48560  11.845   1.332   1.961
80332W        W48561  11.436  25.203  11.109
80333W        W48562  17.768  42.849   3.869
80334W        W48563  23.131   8.431  11.607
80335W        W48564  21.140  37.822   3.268
80336W        W48565  28.207  22.244   2.757
80337W        W48566  14.051  22.559  11.626
80338W        W48567  18.524  33.851  12.871
80339W        W48568   9.982  39.476  10.639
80340W        W48569   7.235   9.849   4.481
80341W        W48570  14.869   1.484  13.892
80342W        W48571   4.822  23.655   2.300
80343W        W48572  24.005  41.774  10.589
80344W        W48573  14.790  28.331   3.669
80345W        W48574  33.726  44.375   2.914
80346W        W48575  28.910   4.787   2.129
80347W        W48576  22.628  30.424   1.432
80348W        W48577  38.153  43.310  11.220
80349W        W48578   5.084  22.730   1.711
80350W        W48579  31.894  10.365   4.168
80351W        W48580   0.990  28.598  14.817
80352W        W48581  38.395  24.499   3.784
80353W        W48582  26.873  31.771   4.781
80354W        W48583  10.975  43.524   1.869
80355W        W48584  29.632  24.097  12.006
80356W        W48585   6.665   7.707   4.122
80357W        W48586  27.923  25.654   0.397
80358W        W48587   6.832  16.605   3.364
80359W        W48588   3.086  40.339   4.384
80360W        W48589  26.994  23.620   4.434
80361W        W48590  43.783  10.502  13.971
80362W        W48591  34.377   0.199  13.527
80363W        W48592  26.705  19.811   9.810
80364W        W48593   8.649   9.477  12.437
80365W        W48594  16.938  17.348   0.400
80366W        W48595  11.108  42.276  13.546
80367W        W48596  36.376  43.896  13.968
80368W        W48597  39.542  34.425   0.777
80369W        W48598  16.698   5.349  11.626
80370W        W48599  44.685  35.642   5.252
80371W        W48600  32.475  23.977   4.816
80372W        W48601  37.919   4.741   3.839
80373W        W48602  25.040  30.131   3.242
80374W        W48603   5.225  39.989  14.522
80375W        W48604  30.025   2.345  14.726
80376W        W48605  44.750  25.453  13.828
80377W        W48606  36.553  23.711  11.039
80378W        W48607  15.671  29.712   2.083
80379W        W48608   6.902  27.113  14.988
80380W        W48609  43.597  33.420  10.974
80381W        W48610   2.594  34.284  13.452
80382W        W48611  16.944  35.421   9.930
80383W        W48612  27.668   1.054   1.831
80384W        W48613  13.688  11.240  13.570
80385W        W48614  14.148  44.911   0.308
80386W        W48615  22.954  32.994  10.078
80387W        W48616  38.374  16.123  14.746
80388W        W48617  43.512  15.734  12.596
80389W        W48618  41.750  22.750   5.114
80390W        W48619   8.630   9.938  12.939
80391W        W48620  12.809   1.326   2.951
80392W        W48621  44.792   2.940   0.233
80393W        W48622   6.926   7.420   3.289
80394W        W48623  13.381  31.315  12.136
80395W        W48624  13.932  26.992   1.955
80396W        W48625   4.285  18.245   2.966
80397W        W48626  11.178  11.320   2.689
80398W        W48627   4.989  43.212   1.610
80399W        W48628   3.845  19.648   0.756
80400W        W48629  10.444  27.170   1.010
80401W        W48630  15.376  37.002   4.686
80402W        W48631   4.020  22.102   4.339
80403W        W48632  32.646  15.226  13.900
80404W        W48633   5.370  42.464   2.280
80405W        W48634   8.897   6.447   4.495
80406W        W48635  39.118  17.541  11.509
80407W        W48636  42.355   7.447  12.917
80408W        W48637  11.479   1.401   0.691
80409W        W48638  26.591   1.505  12.180
80410W        W48639  37.506   0.704  14.480
80411W        W48640  12.062  12.421   0.924
80412W        W48641  23.760  33.142   3.159
80413W        W48642   6.599  13.501  13.496
80414W        W48643  28.926  14.741   0.481
80415W        W48644   9.717  36.036   1.095
80416W        W48645  15.503  36.359   2.750
80417W        W48646   4.750   9.268   0.838
80418W        W48647  16.136  41.439   5.071
80419W        W48648  36.455  29.145  11.255
80420W        W48649  42.776  24.185   0.632
80421W        W48650  19.757  34.213   1.355
80422W        W48651  19.703  19.697  11.249
80423W        W48652  34.088  30.500  12.621
80424W        W48653   7.085   2.159   1.036
80425W        W48654  41.390  21.641  14.729
80426W        W48655   3.356  21.122   0.399
80427W        W48656  22.502  35.459   0.466
80428W        W48657  14.557  12.140   3.634
80429W        W48658  34.107  40.641  14.929
80430W        W48659  10.621   2.906  14.808
80431W        W48660  21.125  42.605   3.039
80432W        W48661   3.846  19.215   1.042
80433W        W48662  39.871  14.377   2.726
80434W        W48663   1.232  42.864  11.470
80435W        W48664  30.455  21.661  10.666
80436W        W48665  40.370   2.520  14.908
80437W        W48666  43.261  35.499  13.043
80438W        W48667   7.898  32.394  14.788
80439W        W48668  38.423  16.676   4.285
80440W        W48669  43.906  28.190  11.411
80441W        W48670  43.082   5.143  14.801
80442W        W48671  39.498   9.447  11.538
80443W        W48672   7.150  28.963   1.666
80444W        W48673  10.102  32.029  14.751
80445W        W48674  44.333  36.103   0.273
80446W        W48675  43.795  38.932  12.020
80447W        W48676  31.181  22.604  14.777
80448W        W48677  22.016  31.034  11.111
80449W        W48678  23.135  20.259  10.768
80450W        W48679  22.045  28.674  11.261
80451W        W48680  28.646  16.333   2.831
80452W        W48681  34.101  37.552  11.454
80453W        W48682  39.604  41.271   1.099
80454W        W48683  29.081   0.974   3.199
80455W        W48684  23.556  17.787   2.722
80456W        W48685  12.960  14.338   0.261
80457W        W48686  35.064  21.023  13.599
80458W        W48687  29.814  27.717   0.609
80459W        W48688  18.630  31.986   4.973
80460W        W48689  27.510  22.225  14.885
80461W        W48690  31.255  31.112  11.116
80462W        W48691  39.152  24.254  12.631
80463W        W48692   4.789  24.663   2.177
80464W        W48693  16.317   8.288  12.176
80465W        W48694  37.368  18.640   3.609
80466W        W48695  16.569  16.438   5.023
80467W        W48696   2.402  25.854  11.572
80468W        W48697  18.799  39.124  14.309
80469W        W48698  30.945  11.141  11.502
80470W        W48699  23.989  15.846   2.385
80471W        W48700  10.356   9.363  14.685
80472W        W48701  35.154  17.810  10.501
80473W        W48702  43.895  29.049  11.974
80474W        W48703  29.635   5.614  14.459
80475W        W48704  19.812  11.584  10.539
80476W        W48705  16.084  19.711  14.873
80477W        W48706   4.455   4.897  11.910
80478W        W48707  39.985  20.765   4.493
80479W        W48708  34.419  21.301   0.288
80480W        W48709  25.314  26.597  10.447
80481W        W48710  17.472  38.889  13.642
80482W        W48711  41.940   6.802  14.780
80483W        W48712  14.791  28.210  12.541
80484W        W48713  44.262  42.043  10.029
80485W        W48714  21.955  28.618   3.619
80486W        W48715  24.490  12.050   3.994
80487W        W48716  12.851  24.689  14.259
80488W        W48717   2.251  37.505  12.943
80489W        W48718  29.084  16.001  14.564
80490W        W48719  30.143  26.667  11.921
80491W        W48720  33.249  44.825  12.849
80492W        W48721   8.094  40.961  13.947
80493W        W48722   8.149   4.476  12.040
80494W        W48723  13.894   3.424   5.010
80495W        W48724  24.589  25.079   3.410
80496W        W48725  38.293  20.246   0.749
80497W        W48726  41.863  10.126   4.637
80498W        W48727  32.498  27.988   4.428
80499W        W48728   6.785  16.726   1.705
80500W        W48729  14.735  23.058  10.252
80501W        W48730   3.697   1.715  12.799
80502W        W48731  11.737   6.125   4.546
80503W        W48732  34.338  43.210  13.411
80504W        W48733  39.994  15.880   1.416
80505W        W48734  17.113  38.141   4.632
80506W        W48735  10.570  15.039  13.496
80507W        W48736  27.109  35.500  11.618
80508W        W48737  37.500   4.353   3.156
80509W        W48738  24.663  16.352   4.085
80510W        W48739  40.029  44.444  14.551
80511W        W48740  20.258  26.423  14.685
80512W        W48741  10.320  29.901   1.371
80513W        W48742  44.970  23.953  11.063
80514W        W48743  28.536  20.136  13.945
80515W        W48744  27.482   0.489  12.514
80516W        W48745  17.351  42.067   0.234
80517W        W48746  21.181  34.807  14.542
80518W        W48747  42.082  41.528  11.021
80519W        W48748   3.542  19.513   1.912
80520W        W48749  12.765  21.310   1.478
80521W        W48750  13.668  11.209  13.045
80522W        W48751  21.109  13.195  14.298
80523W        W48752  42.060  21.284   1.765
80524W        W48753  18.532   3.312   0.276
80525W        W48754  32.255   4.608   4.157
80526W        W48755  15.958   4.166  11.569
80527W        W48756  13.308   0.420   1.682
80528W        W48757  22.194  31.175   2.553
80529W        W48758  34.499  29.113  11.108
80530W        W48759  23.120  11.981   4.114
80531W        W48760  22.892   2.248  11.482
80532W        W48761  21.011  38.889  14.121
80533W        W48762   4.368  10.704   0.915
80534W        W48763  40.299  34.058   3.643
80535W        W48764  36.348   9.170   4.489
80536W        W48765  33.618  29.150   1.374
80537W        W48766  35.178  13.477   5.055
80538W        W48767  30.090  13.201   4.272
80539W        W48768   2.151  43.341  13.893
80540W        W48769   7.379  24.698  10.714
80541W        W48770  27.116  41.685  12.657
80542W        W48771  17.407  37.953  12.030
80543W        W48772   4.872  27.702   9.970
80544W        W48773  18.534  26.330  13.425
80545W        W48774  24.015  10.358   3.353
80546W        W48775  10.665  32.358   1.066
80547W        W48776  14.285  10.706  13.279
80548W        W48777  37.229  17.076  12.008
80549W        W48778  34.470  34.299   1.235
80550W        W48779  43.158  38.346   0.853
80551W        W48780   4.881  32.013   4.514
80552W        W48781  37.444   2.840   2.728
80553W        W48782  21.586   2.456   1.878
80554W        W48783  17.520  34.957  11.488
80555W        W48784   8.437  10.129   2.404
80556W        W48785  28.476  27.137   3.848
80557W        W48786   4.490  14.112   2.381
80558W        W48787   2.210   5.990  11.996
80559W        W48788  21.562  14.310  13.629
80560W        W48789  36.445  43.038   1.804
80561W        W48790   3.780  15.985  13.873
80562W        W48791   0.916  24.701   1.452
80563W        W48792  17.174  10.503  10.995
80564W        W48793  26.367  31.962   1.315
80565W        W48794  18.100  30.385   4.965
80566W        W48795  15.695   9.396   2.703
80567W        W48796  28.987   8.373   3.175
80568W        W48797  20.303  32.097   4.151
80569W        W48798  11.423   3.431   2.775
80570W        W48799  27.479  12.684   9.851
80571W        W48800  36.450  11.856  11.974
80572W        W48801  25.561  10.335   1.291
80573W        W48802  24.501  20.610   3.570
80574W        W48803   2.479  23.284   0.321
80575W        W48804  26.557  13.593  14.867
80576W        W48805  15.515  21.157  11.399
80577W        W48806  24.177  24.365  11.212
80578W        W48807  32.601  41.001  12.925
80579W        W48808  24.676  29.485  12.443
80580W        W48809  24.287  13.728   2.139
80581W        W48810  23.203  20.536   2.794
80582W        W48811  30.035  36.945   0.946
80583W        W48812  31.571  41.166   4.659
80584W        W48813  13.280  37.655  14.810
80585W        W48814  25.721  32.848  12.834
80586W        W48815  36.367   2.968   0.020
80587W        W48816  36.125  13.844   0.241
80588W        W48817  19.608  34.361  10.786
80589W        W48818  41.283  24.306   3.227
80590W        W48819  39.597  21.965  13.492
80591W        W48820  23.541  29.489   2.771
80592W        W48821  32.969  23.765   4.663
80593W        W48822  26.442   6.230  11.633
80594W        W48823   9.454   1.248  11.162
80595W        W48824  15.755   5.980   3.233
80596W        W48825  38.911   2.607   4.001
80597W        W48826   1.393   3.227   0.448
80598W        W48827   6.191  34.000   4.252
80599W        W48828   4.467  24.959  14.777
80600W        W48829  28.085   1.321   2.810
80601W        W48830   1.293   5.395  10.704
80602W        W48831  34.100   6.445  14.858
80603W        W48832  39.377  19.200   4.006
80604W        W48833  10.620  20.775  10.744
80605W        W48834   4.867   6.179   2.259
80606W        W48835   9.285  11.761  12.327
80607W        W48836   6.427  28.458   0.322
80608W        W48837   9.804  30.110   4.064
80609W        W48838  28.640   6.260   2.001
80610W        W48839  32.079   0.248   1.358
80611W        W48840  38.495   5.863   1.438
80612W        W48841  23.010  11.973  11.567
80613W        W48842  34.819   4.281   2.382
80614W        W48843   3.817  30.929  14.348
80615W        W48844  22.925  28.413   2.860
80616W        W48845  28.394   6.608  11.454
80617W        W48846  20.691   4.274   2.705
80618W        W48847   5.713  24.254  13.994
80619W        W48848  42.395  18.840   4.486
80620W        W48849   9.283  29.001   1.508
80621W        W48850  43.332  20.029   1.243
80622W        W48851  32.900  22.713  13.604
80623W        W48852  42.345  37.017  11.571
80624W        W48853   5.183   1.943  14.200
80625W        W48854  37.710  42.479   3.650
80626W        W48855  31.017  43.691   3.132
80627W        W48856  24.878  18.635  12.951
80628W        W48857  20.674   7.446  12.564
80629W        W48858  21.943  42.594   3.631
80630W        W48859   7.014  32.685   2.392
80631W        W48860  13.400  18.614  11.857
80632W        W48861  41.860  29.828   2.852
80633W        W48862  30.384  29.662   3.165
80634W        W48863  24.571  21.520  14.061
80635W        W48864   3.854  39.867  11.730
80636W        W48865  24.079  15.417   2.664
80637W        W48866  28.587  18.977   3.572
80638W        W48867   4.315   9.252   2.141
80639W        W48868  33.972   5.214   2.582
80640W        W48869   9.165  11.416  12.975
80641W        W48870   0.694  36.118   1.922
80642W        W48871  11.076  15.615   0.205
80643W        W48872   2.305   9.189  11.180
80644W        W48873  25.035  32.467   2.300
80645W        W48874  19.208   4.187  10.733
80646W        W48875   0.356  29.228   1.730
80647W        W48876  31.025  13.415   0.385
80648W        W48877  32.231   2.190   4.144
80649W        W48878  41.115  38.341   0.809
80650W        W48879   4.981  40.387  14.743
80651W        W48880  14.385  17.873   1.803
80652W        W48881   9.771  25.046  11.136
80653W        W48882  10.714  37.107   1.772
80654W        W48883  25.288  23.079  11.522
80655W        W48884  17.535  41.735  13.044
80656W        W48885  20.290   8.118  14.348
80657W        W48886  29.858  23.698   2.375
80658W        W48887  29.443  15.123   3.277
80659W        W48888  23.964  14.802  10.671
80660W        W48889   1.725  44.757  13.622
80661W        W48890   7.834  34.523   4.178
80662W        W48891   0.584   5.062   0.509
80663W        W48892  42.978  15.462   1.221
80664W        W48893  30.192  14.065  11.130
80665W        W48894   5.371   7.647  10.744
80666W        W48895  29.129   6.496  12.933
80667W        W48896  26.148  11.797  14.615
80668W        W48897  44.039  21.447   2.677
80669W        W48898  16.059  21.727   4.464
80670W        W48899  13.078  34.471  14.206
80671W        W48900  30.078  26.130  11.198
80672W        W48901  27.048  11.679   2.778
80673W        W48902  14.589   2.420  12.344
80674W        W48903  16.071   0.193   2.755
80675W        W48904  21.482  42.029  12.659
80676W        W48905  35.921   8.341  10.515
80677W        W48906  44.495  24.963  12.076
80678W        W48907  36.564  30.156  11.170
80679W        W48908  44.861  22.401   0.144
80680W        W48909  30.464  36.944   1.235
80681W        W48910  37.383  13.542  12.667
80682W        W48911   2.793  23.031  13.361
80683W        W48912  26.177  15.768   1.398
80684W        W48913  26.206  34.803   1.366
80685W        W48914   7.362  41.129   4.132
80686W        W48915  37.480   1.449   3.124
80687W        W48916  32.321  37.135   5.070
80688W        W48917   1.874  11.021   4.199
80689W        W48918  31.372  25.683   1.116
80690W        W48919  14.303  16.528   1.294
80691W        W48920  39.429  32.877  10.686
80692W        W48921   5.833  36.617  13.709
80693W        W48922  43.860   4.311   4.678
80694W        W48923   9.379  15.676   4.532
80695W        W48924  14.769   3.916   2.161
80696W        W48925  24.233  39.869   2.353
80697W        W48926  32.165  40.304   2.842
80698W        W48927  21.989  32.773  12.891
80699W        W48928  38.599  23.156   2.823
80700W        W48929  34.644  37.541   3.269
80701W        W48930   3.775  25.841   3.355
80702W        W48931  39.452  23.281   1.912
80703W        W48932  20.080  31.732  12.467
80704W        W48933   4.880  21.308  12.062
80705W        W48934   3.883  37.457   1.404
80706W        W48935  40.371  28.097   3.763
80707W        W48936  18.299  37.745  12.883
80708W        W48937  21.129   2.649  14.831
80709W        W48938  28.523  43.248  14.410
80710W        W48939  11.040  19.479  12.111
80711W        W48940  24.390  37.473  10.587
80712W        W48941  16.096  20.013  14.443
80713W        W48942  34.097  21.014  12.944
80714W        W48943  15.193  26.112  11.686
80715W        W48944  19.122  16.484   2.226
80716W        W48945   4.996  22.424   3.680
80717W        W48946  44.879  12.071   3.127
80718W        W48947  31.418  34.091  12.009
80719W        W48948  38.766  15.232   0.383
80720W        W48949  12.291  23.789  11.931
80721W        W48950  29.719  21.423  12.935
80722W        W48951  32.696   2.958  13.318
80723W        W48952  37.353  21.132  11.205
80724W        W48953  16.070  39.014  10.560
80725W        W48954  32.651  41.765   2.161
80726W        W48955   7.926   1.719  12.899
80727W        W48956   4.087  23.994  13.454
80728W        W48957  28.988  10.267  13.799
80729W        W48958  31.864  19.532   0.912
80730W        W48959  43.548  13.052   1.315
80731W        W48960  19.055  24.467  10.576
80732W        W48961  35.936  33.407   0.250
80733W        W48962  14.307  42.332  12.571
80734W        W48963  15.625  40.079  10.652
80735W        W48964   7.216  20.532   2.914
80736W        W48965  21.508  37.347   4.168
80737W        W48966  42.384  13.281   3.693
80738W        W48967  24.670  26.006   4.146
80739W        W48968  17.364  39.452   2.608
80740W        W48969   9.653  44.056   3.367
80741W        W48970  33.088  44.237  14.210
80742W        W48971  32.509  44.347  11.569
80743W        W48972  15.744  37.483   2.167
80744W        W48973  17.626  24.017   4.052
80745W        W48974  36.497  40.995   3.971
80746W        W48975  41.599  36.272  10.828
80747W        W48976  22.035   7.224  10.605
80748W        W48977  28.896   0.192  14.753
80749W        W48978   0.050   0.023  14.942
80750W        W48979  20.062  33.176  14.986
80751W        W48980   3.124  22.582  11.667
80752W        W48981  16.943  26.882  12.739
80753W        W48982  34.344  28.799  14.304
80754W        W48983  23.939   0.023  14.756
80755W        W48984   4.203  19.474  11.954
80756W        W48985  24.628  23.179  14.192
80757W        W48986  34.724  44.733   2.195
80758W        W48987  20.311  24.183  14.346
80759W        W48988  28.496  23.485   0.807
80760W        W48989   5.502  36.480   1.423
80761W        W48990  40.222  33.139  12.622
80762W        W48991  17.582  27.080  14.515
80763W        W48992   8.328   7.587  14.822
80764W        W48993  21.737  25.191   3.348
80765W        W48994   1.760  11.605   3.300
80766W        W48995  31.684  35.629  11.173
80767W        W48996   7.139  25.218   2.491
80768W        W48997  13.151  28.922  11.945
80769W        W48998   2.260   0.960   0.541
80770W        W48999  15.046   8.825   4.435
80771W        W49000   3.398   1.473   1.399
80772W        W49001  18.107  21.623  12.605
80773W        W49002  44.447  32.279   9.872
80774W        W49003   1.179  15.317   0.819
80775W        W49004  15.657  34.100  13.482
80776W        W49005   3.752  26.375   0.272
80777W        W49006  20.264   9.195   0.661
80778W        W49007  35.696   4.497  11.254
80779W        W49008  36.022  11.250  12.966
80780W        W49009   5.208  42.958  13.926
80781W        W49010  34.560   4.692  11.608
80782W        W49011  13.654  14.267   4.558
80783W        W49012  28.568  33.687  13.347
80784W        W49013   3.341  12.633  11.927
80785W        W49014   3.930  13.612   2.933
80786W        W49015  25.011   3.534   1.287
80787W        W49016  27.739  40.924  11.057
80788W        W49017  10.990  30.109  13.506
80789W        W49018  35.538  11.430   0.185
80790W        W49019  19.030  17.663   3.362
80791W        W49020   5.252  25.593   0.009
80792W        W49021   1.551   0.638  11.643
80793W        W49022   0.718   5.765   1.275
80794W        W49023  35.860  43.359   3.985
80795W        W49024  42.284  44.189   0.951
80796W        W49025  13.355  31.061   4.890
80797W        W49026  34.527  14.294  14.023
80798W        W49027   7.373  44.483  11.945
80799W        W49028  22.403  14.689   4.094
80800W        W49029  11.212  11.723   4.339
80801W        W49030  19.655  18.665   3.235
80802W        W49031  18.545  15.062   3.287
80803W        W49032  32.214   5.665   1.297
80804W        W49033  43.280  42.711   0.454
80805W        W49034  17.199   1.143   5.080
80806W        W49035  30.118  14.561   1.466
80807W        W49036   3.519  23.934  11.946
80808W        W49037   9.656  33.948  10.997
80809W        W49038  16.701  31.675   1.279
80810W        W49039   8.089  37.674   2.964
80811W        W49040   9.431  41.285  13.990
80812W        W49041   6.907  14.325   3.791
80813W        W49042  21.209  35.037   4.256
80814W        W49043  41.470   0.521   3.388
80815W        W49044  30.077  36.761   4.709
80816W        W49045  23.764   9.288  13.972
80817W        W49046  12.639   6.357  10.920
80818W        W49047  14.521  25.113   2.070
80819W        W49048  12.763  40.071  13.391
80820W        W49049  39.765  42.072  13.780
80821W        W49050  15.860  14.854  11.094
80822W        W49051  36.014  14.601   3.058
80823W        W49052   9.258  40.590  13.398
80824W        W49053   2.360  32.756   1.885
80825W        W49054  18.827  24.164  13.018
80826W        W49055  24.358  26.552  12.895
80827W        W49056  30.169  39.015  13.058
80828W        W49057  31.619   2.183  11.972
80829W        W49058  20.013  12.011  14.974
80830W        W49059  38.824  17.854   4.157
80831W        W49060  14.163  26.761  10.861
80832W        W49061  14.829  13.311  11.607
80833W        W49062   1.832  36.577  14.871
80834W        W49063  44.812  23.289  14.835
80835W        W49064  34.501  40.951   0.137
80836W        W49065  32.827  23.990  11.561
80837W        W49066  10.409  42.027  10.744
80838W        W49067  28.874  10.325   2.595
80839W        W49068   4.238  36.946  14.899
80840W        W49069   4.737  39.050  12.419
80841W        W49070  39.481  43.893   3.803
80842W        W49071  34.654  28.412  12.142
80843W        W49072  43.319  22.710   3.681
80844W        W49073  28.508  20.366  14.443
80845W        W49074  24.700  32.900  14.395
80846W        W49075   4.504  15.085  12.089
80847W        W49076  36.792  12.685  14.256
80848W        W49077  25.579  32.164  10.444
80849W        W49078  35.096  28.906  13.001
80850W        W49079  17.604  23.052   3.699
80851W        W49080  28.006  29.456  14.523
80852W        W49081  15.266   3.462   1.321
80853W        W49082  24.990  19.830   3.771
80854W        W49083  39.055  39.927  10.673
80855W        W49084  13.219  15.235   1.900
80856W        W49085  23.067  36.021   2.845
80857W        W49086  18.133  16.618   2.973
80858W        W49087  20.299  13.621  14.328
80859W        W49088   7.227  25.721   1.879
80860W        W49089  35.920  25.205   5.094
80861W        W49090  10.342  11.320   4.055
80862W        W49091  42.744  12.409   4.182
80863W        W49092  11.737  17.360  12.319
80864W        W49093  32.696   5.956   3.133
80865W        W49094  38.569  22.660  14.393
80866W        W49095  24.082  31.096   3.296
80867W        W49096  35.627   4.461  13.035
80868W        W49097  36.982   8.382   2.142
80869W        W49098  37.219  30.224   0.781
80870W        W49099  31.368  43.563  14.785
80871W        W49100  33.051   7.469  11.134
80872W        W49101  16.182  43.992  11.984
80873W        W49102   7.021  37.513  14.197
80874W        W49103  44.458  32.479   0.310
80875W        W49104  26.651  30.689  11.098
80876W        W49105  28.381  17.119  12.859
80877W        W49106   7.574  35.286  10.077
80878W        W49107  27.645  27.248   2.662
80879W        W49108  20.206  36.571   4.347
80880W        W49109  19.217  25.017  13.024
80881W        W49110  30.360   9.231  14.041
80882W        W49111  25.137  38.493  11.545
80883W        W49112  24.146  22.497  13.894
80884W        W49113  39.935  17.765  13.799
80885W        W49114  35.101  13.700  14.996
80886W        W49115  27.588  16.569  12.535
80887W        W49116  43.542  39.543   1.923
80888W        W49117  19.627  20.324  13.991
80889W        W49118   7.417   0.180  13.287
80890W        W49119   9.926  35.439   1.694
80891W        W49120  32.534   2.348   2.551
80892W        W49121   1.540   9.340   3.323
80893W        W49122  39.237  43.581   0.422
80894W        W49123  34.633  32.429   0.878
80895W        W49124  30.039  28.438   2.693
80896W        W49125  21.597  40.450  12.945
80897W        W49126  30.003  12.080  13.067
80898W        W49127  44.184  41.012  11.426
80899W        W49128  21.113   7.682   2.230
80900W        W49129  42.382  43.618  11.194
80901W        W49130   8.225  11.110  13.404
80902W        W49131  19.955   1.179   1.939
80903W        W49132  37.913  26.948   3.334
80904W        W49133  14.656  12.783   9.837
80905W        W49134  11.686   4.402   3.250
80906W        W49135  30.936  43.944   4.180
80907W        W49136  12.900  33.576   0.194
80908W        W49137   3.408  11.754  11.375
80909W        W49138  27.610   4.930  14.447
80910W        W49139   4.709  35.281   3.266
80911W        W49140  35.534  19.259   0.793
80912W        W49141  28.626   1.773   1.616
80913W        W49142   0.917  37.088  12.542
80914W        W49143  36.473  16.824   0.282
80915W        W49144  34.867   0.730  11.438
80916W        W49145  40.987  43.377  13.463
80917W        W49146   2.869  38.597  13.364
80918W        W49147  15.196   2.837  14.006
80919W        W49148  13.993  10.228   4.597
80920W        W49149  36.806  10.328  14.822
80921W        W49150  23.652  31.376   0.345
80922W        W49151  36.981  26.582  14.448
80923W        W49152  23.893  44.945   1.720
80924W        W49153  43.447   6.144  12.478
80925W        W49154  16.915  30.865  12.630
80926W        W49155  14.152   0.246  12.288
80927W        W49156  16.697  36.570  11.925
80928W        W49157   3.205   3.863   1.466
80929W        W49158  20.544  14.227  10.951
80930W        W49159  21.909  19.590  12.104
80931W        W49160   7.666  44.259   3.907
80932W        W49161  41.082  32.631   3.297
80933W        W49162  37.610  24.804   4.190
80934W        W49163  38.874   1.593   4.444
80935W        W49164   1.919  38.602  11.850
80936W        W49165   3.524  28.720  11.145
80937W        W49166  19.065  18.012   4.224
80938W        W49167  32.702   2.191  10.718
80939W        W49168  38.136  17.067   3.338
80940W        W49169  16.068  44.057   4.037
80941W        W49170   4.271  27.453  11.359
80942W        W49171  33.968  14.970  11.538
80943W        W49172  17.112  17.679  13.060
80944W        W49173  10.449  44.397  12.165
80945W        W49174   7.427  15.196   3.673
80946W        W49175  16.312  42.501   2.317
80947W        W49176   0.914   6.108   0.421
80948W        W49177  16.094  28.855  14.245
80949W        W49178  26.235  29.180   2.951
80950W        W49179  39.472   4.554  13.871
80951W        W49180  30.882  43.161  12.757
80952W        W49181  10.408   8.742  13.301
80953W        W49182  25.710  41.343  14.014
80954W        W49183  38.583  12.233  12.121
80955W        W49184  32.885  20.571  11.671
80956W        W49185  30.151  44.501   2.231
80957W        W49186  19.309  40.837   2.807
80958W        W49187  19.624   3.580   4.319
80959W        W49188  16.320  27.796  11.991
80960W        W49189   1.718  34.485   2.368
80961W        W49190  44.352  33.906   4.713
80962W        W49191  28.836   2.747  14.070
80963W        W49192   4.917   6.703   0.356
80964W        W49193  44.516  14.627   3.355
80965W        W49194  43.867  13.769   0.303
80966W        W49195  35.849  35.402   1.889
80967W        W49196   4.209   0.892   4.197
80968W        W49197  37.959   2.540   1.172
80969W        W49198   8.174  16.516  10.642
80970W        W49199  18.841   2.274  11.433
80971W        W49200  25.667   3.706  13.402
80972W        W49201  26.189  41.006  11.936
80973W        W49202   7.171  42.480  14.322
80974W        W49203  16.769   3.955  10.684
80975W        W49204  39.911   6.688   1.676
80976W        W49205  11.399  26.983   2.245
80977W        W49206  22.497  14.179  13.869
80978W        W49207  37.496   6.671   1.226
80979W        W49208   9.306  35.078  12.537
80980W        W49209   4.828   3.993  11.928
80981W        W49210  44.382  20.437  13.456
80982W        W49211  13.711   1.273   2.731
80983W        W49212  38.512  36.159  11.597
80984W        W49213   1.382  40.470  11.824
80985W        W49214  24.166  32.714   3.655
80986W        W49215  26.906  14.246  10.654
80987W        W49216  16.778  29.349  12.837
80988W        W49217  40.316  11.916   0.605
80989W        W49218  43.361   1.717   4.230
80990W        W49219  19.789   9.097   0.482
80991W        W49220  33.561  24.172   0.013
80992W        W49221   5.259  12.785  11.234
80993W        W49222   2.244  17.590   1.890
80994W        W49223  31.893   3.167  11.415
80995W        W49224  34.374  39.718   2.764
80996W        W49225  28.210  19.632   4.649
80997W        W49226  12.878  13.390   1.753
80998W        W49227  24.080  44.455  12.024
80999W        W49228  39.603  40.060  12.618
81000W        W49229  19.167   3.432  12.842
81001W        W49230   6.943  16.277   1.929
81002W        W49231  42.914   4.592   5.153
81003W        W49232   7.827  36.811   4.579
81004W        W49233  38.549  12.430   1.414
81005W        W49234  13.786  42.282  12.419
81006W        W49235  25.208  11.047  10.384
81007W        W49236  37.954  11.496  10.261
81008W        W49237  26.609  36.065   1.522
81009W        W49238  24.383   9.865  13.577
81010W        W49239  44.334  44.906  14.837
81011W        W49240  14.265  16.046   2.359
81012W        W49241   1.795  42.934  11.507
81013W        W49242  37.425  34.709  14.970
81014W        W49243  23.978   5.541  11.583
81015W        W49244  44.190  36.514   9.973
81016W        W49245   1.412   7.362   4.726
81017W        W49246  34.439  19.620  14.957
81018W        W49247   1.156  15.608   0.376
81019W        W49248  14.134  24.064  11.019
81020W        W49249  12.735  34.138  14.445
81021W        W49250  22.911  37.553   2.784
81022W        W49251  26.707  44.931  13.520
81023W        W49252  10.475  11.506   2.236
81024W        W49253  15.578  31.944  11.125
81025W        W49254  26.584  30.858  11.621
81026W        W49255  12.393  27.045  14.384
81027W        W49256   3.312   2.400  13.109
81028W        W49257  33.302   9.929  11.641
81029W        W49258  37.077  31.274  10.708
81030W        W49259  31.094  37.707   4.700
81031W        W49260  15.655   9.929  12.858
81032W        W49261  18.185  30.860  12.044
81033W        W49262  40.664   2.889   3.899
81034W        W49263   5.725   6.379   1.879
81035W        W49264   9.473  35.889  13.912
81036W        W49265  36.674  29.804  14.985
81037W        W49266   6.805  23.159   4.569
81038W        W49267  35.510  26.444   0.375
81039W        W49268  33.082  44.979  11.930
81040W        W49269   6.226  14.281  13.147
81041W        W49270   8.522   3.304   3.225
81042W        W49271  34.032  31.161   1.941
81043W        W49272  33.207   5.269  11.930
81044W        W49273  19.284   2.799   0.746
81045W        W49274  35.626  26.309  12.708
81046W        W49275  25.967  24.199  13.641
81047W        W49276   3.741  13.882   4.834
81048W        W49277  24.552  31.980   0.513
81049W        W49278  25.221  26.139   2.855
81050W        W49279  39.536  12.026  14.578
81051W        W49280   5.919  30.745   4.545
81052W        W49281  35.427   7.796   2.234
81053W        W49282  10.655  32.206  11.508
81054W        W49283  18.603  16.024   3.137
81055W        W49284  39.311  27.831  10.262
81056W        W49285  40.809  37.846   2.351
81057W        W49286  20.299  30.921   0.119
81058W        W49287  25.109  30.018   2.294
81059W        W49288   8.646  31.544  13.981
81060W        W49289   8.260  42.734  13.921
81061W        W49290   8.768   6.908  11.629
81062W        W49291  28.587   4.798  10.365
81063W        W49292  41.092  28.356   5.520
81064W        W49293  33.976   4.750  10.356
81065W        W49294  43.366  16.544  11.194
81066W        W49295  26.481   8.709   0.724
81067W        W49296  43.261  34.580   3.675
81068W        W49297   3.981  33.623   2.376
81069W        W49298  20.346  27.653  10.557
81070W        W49299  21.153  43.239  13.009
81071W        W49300  30.646  33.298  11.119
81072W        W49301   2.928  41.810   1.178
81073W        W49302  18.311  39.912  11.206
81074W        W49303  28.061  39.026   0.460
81075W        W49304  29.648  37.458  12.999
81076W        W49305  41.807  44.628  10.623
81077W        W49306  25.147  44.460  14.983
81078W        W49307  36.492  33.772  11.087
81079W        W49308   5.693  25.944  12.069
81080W        W49309  11.887  34.006  13.803
81081W        W49310  31.441  14.634   3.372
81082W        W49311  22.706  12.842   4.181
81083W        W49312   5.871   3.379   1.769
81084W        W49313  43.325  41.993   4.221
81085W        W49314  38.483   5.257   2.185
81086W        W49315  39.833   1.106  13.839
81087W        W49316  17.695  37.914   3.391
81088W        W49317  17.074  32.556  14.931
81089W        W49318  17.582  15.358  11.020
81090W        W49319  41.225  41.502  12.080
81091W        W49320   3.318  33.632  12.140
81092W        W49321  11.799   2.601  10.216
81093W        W49322  29.735  33.950  11.149
81094W        W49323  36.124  18.576  13.069
81095W        W49324  14.245  38.406  10.447
81096W        W49325  14.181  27.482  14.970
81097W        W49326  18.923  30.383  13.525
81098W        W49327  30.367  40.031  14.927
81099W        W49328  20.083  24.631   2.887
81100W        W49329   4.961   2.436   1.387
81101W        W49330   8.311  40.747   4.169
81102W        W49331  19.156  43.506   1.847
81103W        W49332  32.353  32.902   1.040
81104W        W49333  28.078  19.097  14.627
81105W        W49334  30.816   3.247   4.053
81106W        W49335   7.262   2.010   3.196
81107W        W49336   6.866  31.210   4.792
81108W        W49337   2.493   4.629  12.508
81109W        W49338   8.114  42.216  10.889
81110W        W49339  24.998  30.667  14.457
81111W        W49340  18.992   8.643  14.390
81112W        W49341   4.882  21.099   4.555
81113W        W49342  40.939   0.731   0.411
81114W        W49343  10.815  39.256  12.542
81115W        W49344  39.818   8.365  12.858
81116W        W49345  31.138  29.669  11.295
81117W        W49346   0.571   3.778   3.410
81118W        W49347  42.017  28.288  11.527
81119W        W49348  35.179  43.063   1.733
81120W        W49349  16.600  38.008  13.819
81121W        W49350   3.889   5.379   2.297
81122W        W49351  26.424  30.362   4.258
81123W        W49352  29.621  25.308  12.599
81124W        W49353   9.093  27.030  13.564
81125W        W49354  16.139  43.552   3.937
81126W        W49355   5.415   1.728   1.156
81127W        W49356  12.320  21.047   1.385
81128W        W49357  15.344  13.289   2.633
81129W        W49358  43.285  17.129   3.263
81130W        W49359   7.385  25.501   3.365
81131W        W49360  23.738  39.367  14.107
81132W        W49361   5.348   3.298   1.070
81133W        W49362  36.982  10.268  13.440
81134W        W49363   6.500  39.948  14.536
81135W        W49364   1.305  33.563   0.192
81136W        W49365   9.306  29.210  11.177
81137W        W49366  42.456   6.248   2.075
81138W        W49367  14.110  26.414   2.815
81139W        W49368   9.891  21.419  10.808
81140W        W49369  33.449   2.844   1.647
81141W        W49370   3.321  19.348  14.622
81142W        W49371  37.997   8.773  12.570
81143W        W49372  13.360  14.716  14.015
81144W        W49373  15.700  23.709  13.031
81145W        W49374  16.751  23.117  10.296
81146W        W49375  16.643  21.648  13.950
81147W        W49376  18.987   2.312  14.916
81148W        W49377  16.018  43.383  12.536
81149W        W49378  19.472  14.953  11.116
81150W        W49379  41.410  27.248   3.311
81151W        W49380  11.292  19.851  11.361
81152W        W49381  38.785   3.878   4.233
81153W        W49382   3.695  34.082   4.053
81154W        W49383  12.997  28.637  13.295
81155W        W49384  12.081  30.926   1.238
81156W        W49385  43.092   3.819   1.720
81157W        W49386  44.505  24.929   1.417
81158W        W49387   3.669   4.344   3.170
81159W        W49388  30.719  37.307  11.835
81160W        W49389  36.106  36.007  10.614
81161W        W49390  17.858  31.933   0.625
81162W        W49391  19.266  26.529   0.038
81163W        W49392  29.088  24.179   0.788
81164W        W49393   5.104   7.806   0.793
81165W        W49394  32.846   8.895   3.202
81166W        W49395  28.528  21.807  12.400
81167W        W49396  18.733   8.849  13.120
81168W        W49397  26.524  32.826   1.481
81169W        W49398  29.421  17.274   0.357
81170W        W49399   2.281   0.808   4.703
81171W        W49400  34.468  15.341   0.419
81172W        W49401  27.406  11.208   4.101
81173W        W49402  29.095  25.619   2.340
81174W        W49403  21.107  28.560   2.458
81175W        W49404  43.336  30.555  11.172
81176W        W49405  12.159   6.593   0.706
81177W        W49406  12.090  19.594   2.734
81178W        W49407  12.926  10.418   3.132
81179W        W49408  12.718   9.608   0.724
81180W        W49409  39.127   0.375   4.377
81181W        W49410  21.505  14.374  13.113
81182W        W49411  43.287   5.113   2.283
81183W        W49412  40.821  38.473   4.661
81184W        W49413  35.680  40.578  11.557
81185W        W49414  36.954  19.596   0.824
81186W        W49415  44.378  11.882   4.079
81187W        W49416  14.997  25.944  14.248
81188W        W49417  32.112  28.831   0.222
81189W        W49418  21.127  22.730  14.503
81190W        W49419  35.290  32.580   0.302
81191W        W49420  34.399  12.035  14.437
81192W        W49421  28.128  36.330  14.361
81193W        W49422  16.040   5.630  14.542
81194W        W49423   1.149  34.785  10.173
81195W        W49424  20.144   0.372   3.001
81196W        W49425  17.159   2.414   2.184
81197W        W49426  33.898   9.881  10.726
81198W        W49427  38.904  22.984  12.842
81199W        W49428   2.333  30.998  12.895
81200W        W49429   7.697  36.372   4.264
81201W        W49430  13.099  29.140  11.475
81202W        W49431  19.192  24.177   0.907
81203W        W49432  19.706  36.302   0.694
81204W        W49433   1.778  38.860  14.431
81205W        W49434  26.541  33.864  13.869
81206W        W49435  27.443   6.873   0.386
81207W        W49436  32.525   0.935   4.325
81208W        W49437  31.917   3.181  10.875
81209W        W49438   1.070  16.326   3.270
81210W        W49439  20.596  39.772  14.400
81211W        W49440  42.900  25.117   1.966
81212W        W49441  32.997   0.476   2.317
81213W        W49442  12.849   9.709  14.761
81214W        W49443  27.139  17.693  14.061
81215W        W49444  26.605  25.388   4.791
81216W        W49445   7.913  27.167  12.973
81217W        W49446  19.089  18.580  11.631
81218W        W49447  21.596  36.821  14.834
81219W        W49448  38.231  35.529  13.718
81220W        W49449   6.723  14.896   1.857
81221W        W49450   3.024  17.819   1.267
81222W        W49451   5.400  43.205  13.053
81223W        W49452   9.324  30.736   0.010
81224W        W49453  25.686  21.568   1.982
81225W        W49454  12.712  10.398   5.097
81226W        W49455  24.537  24.731   2.020
81227W        W49456  27.143   6.138   0.710
81228W        W49457  24.118  36.863   4.727
81229W        W49458   4.804  32.826   1.361
81230W        W49459  32.107  31.757  14.068
81231W        W49460  19.651   6.483   0.794
81232W        W49461  31.571  41.978  14.765
81233W        W49462  22.098  36.148  12.508
81234W        W49463  23.260   1.402  13.000
81235W        W49464  12.611   2.751  11.908
81236W        W49465  43.825  35.334  12.023
81237W        W49466  15.356  23.643  12.192
81238W        W49467   9.613   5.014  11.111
81239W        W49468  27.276  20.328  10.938
81240W        W49469  18.236  19.795  11.112
81241W        W49470  44.404  17.545  13.110
81242W        W49471  40.668  37.487   2.906
81243W        W49472   5.284   5.755   0.901
81244W        W49473  33.120  42.927   3.581
81245W        W49474  26.496  43.290  11.199
81246W        W49475  18.544   2.304   1.840
81247W        W49476  32.677  26.199   4.495
81248W        W49477   3.016  30.889  13.955
81249W        W49478  15.153  41.554   1.710
81250W        W49479  37.880   9.066   1.340
81251W        W49480   6.241  11.646   5.018
81252W        W49481  43.236  28.113   1.064
81253W        W49482  19.985  24.864   4.996
81254W        W49483  44.362  21.654   4.555
81255W        W49484  22.106  41.088   4.017
81256W        W49485   6.292  32.931   1.844
81257W        W49486  26.104  17.543   1.959
81258W        W49487  40.301  15.608   4.586
81259W        W49488  11.074  36.529  12.152
81260W        W49489  26.547  32.313  12.988
81261W        W49490   9.440  18.171   0.314
81262W        W49491   9.478  35.529   2.762
81263W        W49492   3.740  11.616   2.736
81264W        W49493  38.552  43.965   2.359
81265W        W49494   1.942  27.690  12.926
81266W        W49495   8.715  25.635   0.842
81267W        W49496   5.829  44.644   4.806
81268W        W49497  40.068  21.027   1.041
81269W        W49498  16.806  30.961  14.056
81270W        W49499  35.402   6.265  14.531
81271W        W49500  44.618   7.374   4.525
81272W        W49501   5.276  13.212   0.109
81273W        W49502  40.359  39.383  10.706
81274W        W49503  28.630  42.599  12.937
81275W        W49504  25.960  31.990   4.744
81276W        W49505  32.522  33.057  14.132
81277W        W49506   8.794  42.539  11.357
81278W        W49507  35.062   2.761  12.487
81279W        W49508   6.830  21.218   3.283
81280W        W49509  40.252  22.566   2.299
81281W        W49510  27.394   2.034   1.824
81282W        W49511  13.807  42.119  13.766
81283W        W49512   0.842   3.302  11.043
81284W        W49513  26.654  11.303  11.533
81285W        W49514  40.259  19.653  11.669
81286W        W49515  29.096   7.897   1.415
81287W        W49516  16.943  16.770  14.091
81288W        W49517  33.520  34.881   4.565
81289W        W49518  21.655  43.910  11.468
81290W        W49519  40.823  42.946  14.931
81291W        W49520  26.387  20.958  10.657
81292W        W49521  26.377  29.065   0.474
81293W        W49522  19.613   0.209   1.761
81294W        W49523  19.128  31.614   0.747
81295W        W49524  34.050  10.681   2.672
81296W        W49525  15.813  12.721   4.831
81297W        W49526  16.653  34.719   4.667
81298W        W49527  38.245  20.707   2.157
81299W        W49528  36.419   6.237  14.362
81300W        W49529  13.612  32.126   2.690
81301W        W49530  43.060  38.453  11.482
81302W        W49531  14.155  40.494   1.264
81303W        W49532  35.652   6.909   0.370
81304W        W49533   3.787  20.285   3.318
81305W        W49534  33.776  35.590   1.449
81306W        W49535  25.213  26.211   3.618
81307W        W49536  32.939  24.497  11.654
81308W        W49537   6.187  37.435   2.425
81309W        W49538  11.054  24.197  11.083
81310W        W49539  33.571  17.357   2.258
81311W        W49540  17.156  24.406   2.878
81312W        W49541  29.872   2.609  11.018
81313W        W49542  21.713   4.177  13.573
81314W        W49543  31.544  40.962  12.605
81315W        W49544   3.831   1.766   1.859
81316W        W49545   2.895  22.620  12.939
81317W        W49546  27.676   4.344  11.156
81318W        W49547  38.567   9.463  11.688
81319W        W49548  31.835   8.023   1.707
81320W        W49549  22.974  12.602   3.800
81321W        W49550   9.612  43.797  12.966
81322W        W49551  19.256  28.077   3.992
81323W        W49552  22.075   9.693  14.325
81324W        W49553  23.032  38.805   3.495
81325W        W49554   9.702  30.677   0.392
81326W        W49555  25.489  27.214  13.365
81327W        W49556  19.851  14.743   3.176
81328W        W49557  11.162  41.835  11.144
81329W        W49558  26.019  34.098  11.121
81330W        W49559   7.662  22.730   3.168
81331W        W49560   2.352  30.063  11.875
81332W        W49561  24.720  38.464  10.601
81333W        W49562  22.759  33.071   3.383
81334W        W49563   8.608  17.629   2.913
81335W        W49564  29.128  10.667  11.545
81336W        W49565   9.387   2.135   0.110
81337W        W49566  32.067  22.141  12.096
81338W        W49567  19.070   0.909   3.907
81339W        W49568  23.740  29.194  12.720
81340W        W49569  25.964  32.318  14.058
81341W        W49570   6.638  29.045   1.722
81342W        W49571   8.068  34.356   2.798
81343W        W49572  33.568  21.669  13.791
81344W        W49573   8.294  19.247   4.089
81345W        W49574  26.311   2.207  11.767
81346W        W49575  42.476  38.413   2.852
81347W        W49576  10.300   8.184   3.645
81348W        W49577  35.313  40.247  11.487
81349W        W49578  41.599  19.719   0.393
81350W        W49579   5.990  17.368  11.770
81351W        W49580  24.244  22.827   0.245
81352W        W49581  41.513  36.521   4.563
81353W        W49582   8.107  30.593   0.082
81354W        W49583   1.351  20.411  13.498
81355W        W49584   1.332  40.658  14.368
81356W        W49585  15.319  18.666  14.375
81357W        W49586  36.327   6.294  13.020
81358W        W49587   1.632  12.084   2.611
81359W        W49588  27.618   5.639  14.915
81360W        W49589  17.586  37.737  14.895
81361W        W49590  10.506  40.564   1.236
81362W        W49591  18.646  30.856  12.924
81363W        W49592   1.236  19.799  10.677
81364W        W49593  35.874   1.327  12.339
81365W        W49594   2.959  17.778  10.706
81366W        W49595  35.346  20.162  11.476
81367W        W49596  26.965  42.335   0.740
81368W        W49597   1.313  23.242  12.888
81369W        W49598  11.779  33.040   1.120
81370W        W49599  41.570  29.609   0.803
81371W        W49600   2.347   6.013  13.043
81372W        W49601  42.384  27.535   4.772
81373W        W49602  31.109   8.944  13.046
81374W        W49603  19.762  27.474   3.305
81375W        W49604  43.416  31.830   1.324
81376W        W49605  44.916  29.135  12.971
81377W        W49606  41.943  31.452  12.670
81378W        W49607  15.380  34.904  10.600
81379W        W49608  28.059  14.870  10.696
81380W        W49609  34.692  34.028   0.324
81381W        W49610  39.231  12.451  11.090
81382W        W49611   6.769  34.545   3.136
81383W        W49612  40.776  26.507   3.289
81384W        W49613   6.414   5.840   2.926
81385W        W49614  41.325   2.412  14.553
81386W        W49615  18.583  20.319   0.436
81387W        W49616  39.663  14.956   0.524
81388W        W49617   1.950  15.347   1.732
81389W        W49618  43.835   9.368   0.489
81390W        W49619  24.564  17.773  14.350
81391W        W49620  44.241  40.017  10.361
81392W        W49621   5.294  44.779   3.115
81393W        W49622  10.599  11.185  13.441
81394W        W49623  30.504  18.144   1.339
81395W        W49624   6.772  28.445  12.865
81396W        W49625   7.744  35.793   0.923
81397W        W49626  34.701   3.787  13.360
81398W        W49627  31.794   9.561  13.028
81399W        W49628  23.678  30.865  13.493
81400W        W49629  16.737   4.648   2.060
81401W        W49630  27.198   6.515  12.737
81402W        W49631   5.976  40.382   0.668
81403W        W49632  36.941  33.058   0.535
81404W        W49633   4.172  15.263  10.855
81405W        W49634  43.394  18.794   9.720
81406W        W49635  14.909  12.667   1.861
81407W        W49636  21.810  22.412   0.062
81408W        W49637  22.384  14.344   3.697
81409W        W49638  22.086  14.512  11.055
81410W        W49639  23.998  16.440  14.806
81411W        W49640  43.407  42.907  14.961
81412W        W49641   6.756   3.383  10.323
81413W        W49642  42.459  33.586   1.843
81414W        W49643  21.096   7.580   0.428
81415W        W49644  23.906  25.633  13.258
81416W        W49645  33.953  42.745   4.564
81417W        W49646   8.764   4.230  12.697
81418W        W49647  24.700  39.428   0.205
81419W        W49648  24.445  28.208  14.370
81420W        W49649  25.924   6.131   4.275
81421W        W49650   4.868  30.473  13.686
81422W        W49651  42.388  26.202   4.696
81423W        W49652   7.490  42.011   4.141
81424W        W49653   7.580  33.821   2.478
81425W        W49654  22.100  26.296  10.059
81426W        W49655   4.911  11.342  12.042
81427W        W49656   4.694   3.667  14.554
81428W        W49657   4.903  34.917   4.197
81429W        W49658  24.555  21.217  12.686
81430W        W49659  29.917  17.321   2.283
81431W        W49660  42.376  24.001  13.079
81432W        W49661   4.771   7.203  12.157
81433W        W49662  39.318  27.234  12.116
81434W        W49663  40.545  29.386  13.849
81435W        W49664  19.459  34.462   3.666
81436W        W49665  21.784  35.094  11.569
81437W        W49666  34.107  24.229  11.121
81438W        W49667  23.447  14.409   1.865
81439W        W49668  41.774  13.586   0.527
81440W        W49669  12.307  22.065  12.599
81441W        W49670  21.837   2.104  10.785
81442W        W49671   2.229  27.155  13.378
81443W        W49672  10.149   3.326  11.119
81444W        W49673  31.909  10.671  13.141
81445W        W49674  16.327  33.345   1.809
81446W        W49675  35.414  27.973  12.635
81447W        W49676   1.164  14.333  14.269
81448W        W49677  28.065  33.912   4.521
81449W        W49678  16.216  27.684   3.351
81450W        W49679  19.145  32.352   3.655
81451W        W49680  27.036  25.122   0.480
81452W        W49681  36.045   7.209   0.133
81453W        W49682   8.453  42.937   3.594
81454W        W49683  20.572  39.942   4.176
81455W        W49684  23.090  30.524   1.197
81456W        W49685  30.537  15.700  14.072
81457W        W49686  20.557  43.478  14.222
81458W        W49687  35.294   4.878  14.346
81459W        W49688  30.987   4.763  12.258
81460W        W49689  34.570  10.679  10.707
81461W        W49690  34.951  14.312   4.574
81462W        W49691  11.106  39.999  10.701
81463W        W49692  30.917  35.823  11.554
81464W        W49693   7.404   0.996   4.487
81465W        W49694  37.178   3.277   2.914
81466W        W49695  35.187  43.630   1.159
81467W        W49696  28.547  32.137  11.654
81468W        W49697  34.428  27.003   3.835
81469W        W49698  19.279  44.352   2.286
81470W        W49699  42.150  11.120  12.070
81471W        W49700   0.519  27.887  13.134
81472W        W49701  22.497  17.818   0.791
81473W        W49702   0.453   8.798   0.767
81474W        W49703  35.979  24.539  11.925
81475W        W49704   4.362   4.696  12.427
81476W        W49705  36.344  28.816   4.479
81477W        W49706  12.583  41.023   2.206
81478W        W49707  26.603  11.424  10.705
81479W        W49708   2.970  26.581  13.321
81480W        W49709  19.882  42.697   3.158
81481W        W49710  28.712   6.458   4.558
81482W        W49711  12.104  35.794   4.270
81483W        W49712  29.182   9.822   1.417
81484W        W49713  42.375   1.594  13.862
81485W        W49714  44.329  39.440   3.275
81486W        W49715  16.715  10.153  11.064
81487W        W49716   6.234   5.464  10.668
81488W        W49717  31.023  41.940   3.225
81489W        W49718  19.209  14.229  14.881
81490W        W49719  28.388  12.602  10.107
81491W        W49720   8.102  36.522  11.929
81492W        W49721   6.983  44.360   2.875
81493W        W49722  39.914   1.760   2.222
81494W        W49723  32.241  31.153   4.124
81495W        W49724  22.706   3.322   1.236
81496W        W49725  30.114  17.436   3.318
81497W        W49726   1.811   5.774  14.210
81498W        W49727   0.297  36.312  14.861
81499W        W49728  13.739  17.840  11.104
81500W        W49729  36.480   1.797  13.473
81501W        W49730   1.976  40.905  12.915
81502W        W49731  43.476  23.367   0.979
81503W        W49732  31.147   9.870   3.746
81504W        W49733  30.366  16.672  14.018
81505W        W49734   7.880   2.502   1.376
81506W        W49735   3.334  37.521   0.976
81507W        W49736  10.925   2.713  13.455
81508W        W49737  24.641  44.161  11.050
81509W        W49738  34.335  18.785   2.540
81510W        W49739  35.900  39.863   3.437
81511W        W49740   0.805  19.359  12.051
81512W        W49741  41.118  25.632  12.900
81513W        W49742  11.330  32.002  10.645
81514W        W49743  13.441  23.370   1.787
81515W        W49744  26.572  27.409  11.221
81516W        W49745   9.872  23.846  13.239
81517W        W49746  20.059   7.962   0.720
81518W        W49747  43.458  24.768   1.458
81519W        W49748  42.811  30.883  10.568
81520W        W49749   1.145  16.097   3.725
81521W        W49750  39.359  21.192   0.255
81522W        W49751  16.357  33.999   0.474
81523W        W49752  23.161   5.015   1.397
81524W        W49753  34.572  33.837  10.694
81525W        W49754  10.827   0.772  12.186
81526W        W49755  36.419  31.142   4.146
81527W        W49756  34.797  19.594   0.969
81528W        W49757   3.811  25.021  13.799
81529W        W49758  16.078  26.096   1.433
81530W        W49759   8.577  17.567   3.716
81531W        W49760   5.701  38.766   4.216
81532W        W49761  40.955  41.813  12.535
81533W        W49762   4.176  14.805  12.551
81534W        W49763  25.443  43.955  13.816
81535W        W49764  34.340  15.059  11.873
81536W        W49765   9.227  25.101   1.486
81537W        W49766  16.632   0.210   3.609
81538W        W49767  35.537  40.348   2.274
81539W        W49768  11.418   4.029   1.330
81540W        W49769  16.254  25.529  12.952
81541W        W49770  17.089  28.654  11.490
81542W        W49771   7.313   8.465   1.226
81543W        W49772  16.299  16.679   3.230
81544W        W49773   3.658  15.229  14.735
81545W        W49774  17.781  13.381   3.687
81546W        W49775   8.413  18.687   0.825
81547W        W49776  41.117  25.859  13.916
81548W        W49777  18.675  44.382   4.302
81549W        W49778  15.944  22.496  12.813
81550W        W49779  15.100  41.882   1.168
81551W        W49780  10.539   4.175  12.628
81552W        W49781  15.630  14.821   1.724
81553W        W49782  44.492   6.718   0.433
81554W        W49783  39.762  32.437   3.733
81555W        W49784  10.115  39.006  11.574
81556W        W49785   5.152  10.510   3.847
81557W        W49786  36.842  35.956  12.058
81558W        W49787   9.839  31.279   2.984
81559W        W49788   4.258   5.874  12.115
81560W        W49789  17.669  44.234   1.799
81561W        W49790  27.681  26.941  12.352
81562W        W49791  24.635  10.544   5.084
81563W        W49792  13.540  40.508  11.164
81564W        W49793  18.918  30.785   3.723
81565W        W49794  26.611  43.925   4.592
81566W        W49795   9.939   9.848   4.235
81567W        W49796  15.561  26.847  11.145
81568W        W49797  22.207   7.724  10.667
81569W        W49798  11.259  38.118  12.814
81570W        W49799  43.337  24.957  13.860
81571W        W49800  16.306  14.271  14.558
81572W        W49801  11.921  18.855  11.357
81573W        W49802  23.204  12.635  14.540
81574W        W49803   1.877  11.164   3.605
81575W        W49804  23.633  17.207   0.291
81576W        W49805  29.113  37.821   1.330
81577W        W49806  22.092  32.709  10.955
81578W        W49807  39.092   4.971   4.593
81579W        W49808   7.633  44.862  14.511
81580W        W49809  28.352  13.313   9.959
81581W        W49810  37.070  36.310  13.959
81582W        W49811  37.439  28.715   3.142
81583W        W49812  34.570  27.991  11.203
81584W        W49813  36.528  37.481   0.474
81585W        W49814  20.985  27.070   3.649
81586W        W49815  10.439  32.430   3.055
81587W        W49816   1.903  21.593   1.389
81588W        W49817  15.064   5.424   0.401
81589W        W49818  19.726  36.059  13.876
81590W        W49819  42.873  26.347   4.452
81591W        W49820  16.307   6.978   1.785
81592W        W49821  14.947  22.002   5.021
81593W        W49822  24.638  27.007   2.285
81594W        W49823  26.294   1.918   2.328
81595W        W49824  15.715   6.604   4.104
81596W        W49825  32.027  13.897  13.049
81597W        W49826  24.206  42.003   3.711
81598W        W49827  19.600  43.954  13.126
81599W        W49828   7.466  15.742  13.036
81600W        W49829  26.527  23.820  13.041
81601W        W49830  34.376  29.999  13.312
81602W        W49831  24.070  15.054  13.705
81603W        W49832  32.922   4.307  13.416
81604W        W49833  10.720  14.833  14.163
81605W        W49834  13.053  10.902   3.312
81606W        W49835  40.639  44.754   4.189
81607W        W49836  34.902  12.811   9.846
81608W        W49837  16.528  42.330   4.115
81609W        W49838  41.170  43.157   0.834
81610W        W49839   0.679  25.115  13.668
81611W        W49840  43.046  24.402  12.923
81612W        W49841  40.842  44.017   0.918
81613W        W49842  40.103  32.246   4.129
81614W        W49843  21.768   3.434   3.742
81615W        W49844  10.954  44.094   0.820
81616W        W49845   2.492   8.610   0.768
81617W        W49846  15.968  25.430   0.777
81618W        W49847   3.664  12.893   2.244
81619W        W49848  13.878  44.046   1.829
81620W        W49849  10.824  29.548  11.136
81621W        W49850   5.215  11.153  11.646
81622W        W49851  20.152  37.056  13.991
81623W        W49852  23.057  41.012  14.534
81624W        W49853  36.358  35.566  10.707
81625W        W49854  14.364  17.604  11.658
81626W        W49855   0.892  17.724  13.288
81627W        W49856  34.876  42.688   0.279
81628W        W49857  23.180  25.159  14.851
81629W        W49858  33.346  37.458  13.493
81630W        W49859  37.265  26.884  11.272
81631W        W49860  21.728  43.186   4.357
81632W        W49861  16.841  22.705   0.903
81633W        W49862  30.620  32.935  12.458
81634W        W49863   0.905   4.229   0.552
81635W        W49864   6.486   4.950   0.739
81636W        W49865  10.460  16.156  11.636
81637W        W49866  37.053  41.059  11.167
81638W        W49867  14.343  26.354   4.359
81639W        W49868  19.916   0.356  11.066
81640W        W49869  12.968  31.422   0.494
81641W        W49870  40.347  14.033   2.779
81642W        W49871  12.720  44.236   1.111
81643W        W49872  35.553  25.057  10.900
81644W        W49873  37.865  11.429  10.774
81645W        W49874  13.365  23.654   0.777
81646W        W49875  28.904   2.725   0.746
81647W        W49876   5.968   6.681  14.372
81648W        W49877  32.001  37.913  12.081
81649W        W49878  42.944  39.505   3.807
81650W        W49879   7.779  27.422  12.497
81651W        W49880  23.243   8.281   3.125
81652W        W49881   1.783  42.917  14.020
81653W        W49882   4.846  16.644   0.404
81654W        W49883  20.286   6.716  12.028
81655W        W49884  44.910  42.562  11.335
81656W        W49885  36.799  17.730  13.612
81657W        W49886  42.903   7.089   0.064
81658W        W49887  44.354  19.797   1.893
81659W        W49888  26.577  10.629  11.162
81660W        W49889  14.325  20.333   3.911
81661W        W49890  29.045  12.440   4.875
81662W        W49891   8.255   0.374  10.747
81663W        W49892  20.387   0.470   3.710
81664W        W49893  25.034  31.656  13.590
81665W        W49894  27.110   3.065  10.703
81666W        W49895  33.370  15.740   0.476
81667W        W49896   4.396  35.076   5.040
81668W        W49897   8.131  32.094   1.023
81669W        W49898  37.362   8.380  12.379
81670W        W49899   2.547  32.468  11.402
81671W        W49900  34.876  40.486  12.674
81672W        W49901  42.146  25.904   2.679
81673W        W49902  26.735  19.235   2.859
81674W        W49903  30.451  12.762  13.383
81675W        W49904  17.080  28.030  10.321
81676W        W49905  21.076   4.742  13.795
81677W        W49906  11.275   2.515   2.460
81678W        W49907   9.907  20.263   3.777
81679W        W49908  37.319  31.440  11.139
81680W        W49909  37.818  27.660  14.060
81681W        W49910  19.821  15.141   2.756
81682W        W49911  42.858  40.207   2.592
81683W        W49912  34.021  20.295   3.303
81684W        W49913  29.905   7.335   1.069
81685W        W49914  16.464   7.382   1.508
81686W        W49915  20.588   9.779  13.471
81687W        W49916  17.792  25.537   0.973
81688W        W49917  41.498  20.819   1.451
81689W        W49918   9.169  22.148   3.886
81690W        W49919   6.859  43.947   3.252
81691W        W49920   8.853  17.314  12.509
81692W        W49921  30.483  31.501   0.742
81693W        W49922  23.074  38.328   3.628
81694W        W49923  41.477  37.520   2.296
81695W        W49924  27.042  26.058  12.965
81696W        W49925  31.369  13.289  12.529
81697W        W49926  28.945  33.857  11.489
81698W        W49927  10.351  27.634   0.764
81699W        W49928  14.864  38.359  12.584
81700W        W49929  26.488  35.862  10.565
81701W        W49930  33.435  29.462   5.009
81702W        W49931  35.423  12.646  12.073
81703W        W49932  11.503   8.046  13.377
81704W        W49933  36.332  41.418   3.270
81705W        W49934   4.292  41.993  12.970
81706W        W49935   6.972  10.158   2.889
81707W        W49936  25.663  37.251  14.389
81708W        W49937  29.004  19.891  14.020
81709W        W49938   6.329  19.248  12.128
81710W        W49939  14.743  31.155  10.440
81711W        W49940  36.008  18.896   1.850
81712W        W49941  35.912  43.754  11.793
81713W        W49942  26.573  13.551   5.024
81714W        W49943  44.704  37.936   4.435
81715W        W49944  17.014  26.038   4.077
81716W        W49945   2.410  37.054  11.653
81717W        W49946  28.587  44.091   4.123
81718W        W49947  25.010  31.105   5.024
81719W        W49948  32.739  34.580  12.616
81720W        W49949  25.151  14.041   2.867
81721W        W49950   1.437  31.104   1.666
81722W        W49951  14.609  25.048  14.404
81723W        W49952  36.889   8.264  11.472
81724W        W49953  39.522  20.935  14.804
81725W        W49954  23.671   6.808  11.050
81726W        W49955  26.681  22.240  11.535
81727W        W49956  15.538  26.658  12.905
81728W        W49957   1.295  22.503   2.008
81729W        W49958   8.888  28.984  13.253
81730W        W49959  25.300  23.020  10.650
81731W        W49960   1.380  21.243   4.108
81732W        W49961  39.788   3.249  12.034
81733W        W49962   4.428  40.793   3.632
81734W        W49963  19.587  38.017  10.508
81735W        W49964  32.551  25.592   2.390
81736W        W49965   2.633   8.831  13.669
81737W        W49966   3.257  31.905  12.063
81738W        W49967  25.755  27.640  12.173
81739W        W49968   5.380  42.266  10.490
81740W        W49969  31.187  37.508   3.888
81741W        W49970  30.109  36.064   4.487
81742W        W49971  31.868  34.004  11.678
81743W        W49972  11.721  25.064   2.455
81744W        W49973  33.001  31.745   4.360
81745W        W49974  37.829  25.550   4.313
81746W        W49975  40.421  19.323   1.388
81747W        W49976  18.774   5.310   0.597
81748W        W49977  31.513  30.273  12.078
81749W        W49978  39.615  12.490  14.797
81750W        W49979  20.658  34.686  11.446
81751W        W49980  44.724  27.431   1.694
81752W        W49981  38.264  17.143   4.495
81753W        W49982  27.500  35.677  13.520
81754W        W49983  23.602  14.387   3.650
81755W        W49984  21.362   7.478  11.144
81756W        W49985  40.128  44.407  14.058
81757W        W49986  37.149   6.718  14.375
81758W        W49987  23.114   2.192   0.959
81759W        W49988   1.942  19.213  11.193
81760W        W49989  26.367  37.058   1.352
81761W        W49990  31.613  11.912  12.278
81762W        W49991  30.903  13.863  13.505
81763W        W49992  43.373  24.896   2.092
81764W        W49993   7.269  18.505   2.184
81765W        W49994  11.909  37.128   4.333
81766W        W49995   9.005   4.842  10.362
81767W        W49996  32.307   2.215  14.395
81768W        W49997  11.040   4.307  12.161
81769W        W49998  18.904  37.144  11.347
81770W        W49999  27.436   7.637  12.975
81771W        W50000   8.090   2.038  14.291
81772W        W50001  35.826  33.900  12.077
81773W        W50002   8.364  19.028  13.435
81774W        W50003  27.093  39.601  12.129
81775W        W50004  31.474  18.449   1.238
81776W        W50005  34.131  22.602   4.473
81777W        W50006   4.711  43.501  12.572
81778W        W50007  13.871  13.264   5.202
81779W        W50008  37.221  28.014  12.911
81780W        W50009  33.854  32.617  11.616
81781W        W50010  39.088  42.019   1.419
81782W        W50011  18.067  37.607   4.123
81783W        W50012  21.517  10.444  10.933
81784W        W50013  11.866  36.738   0.252
81785W        W50014  25.484  25.167  11.144
81786W        W50015  29.724  24.564   2.341
81787W        W50016  41.335   2.713  11.879
81788W        W50017  10.047   3.766   2.844
81789W        W50018   9.151  32.104  13.493
81790W        W50019  11.964  32.845  10.729
81791W        W50020  39.722   1.691  13.055
81792W        W50021  24.686  28.487  14.764
81793W        W50022  13.740  32.529   0.078
81794W        W50023  36.371  31.195   2.297
81795W        W50024  29.587   8.097   1.412
81796W        W50025  29.169  34.063   3.700
81797W        W50026  31.674  18.613   2.178
81798W        W50027   3.889   0.461  13.249
81799W        W50028  20.938  17.780   1.384
81800W        W50029   9.647  32.634  12.907
81801W        W50030  10.330  41.983   4.474
81802W        W50031  18.691   6.183  11.091
81803W        W50032   5.167  29.393  10.507
81804W        W50033  14.046  20.266   4.355
81805W        W50034  11.715  36.106   4.412
81806W        W50035  40.606  14.649  14.435
81807W        W50036  21.401  19.996  14.823
81808W        W50037  14.063  29.682   3.718
81809W        W50038  15.554  11.160  11.290
81810W        W50039  36.411  29.455   4.601
81811W        W50040  12.745   8.854  12.566
81812W        W50041  17.366  16.109   4.520
81813W        W50042  31.385  28.996   1.997
81814W        W50043  14.375   0.748  12.905
81815W        W50044  30.930  31.254   0.673
81816W        W50045   2.027  30.892  11.091
81817W        W50046  11.729   9.553  11.714
81818W        W50047   9.200  33.013  12.583
81819W        W50048  17.117  31.616   3.612
81820W        W50049  31.269   2.385  11.630
81821W        W50050  31.389   3.306  13.704
81822W        W50051  26.059  24.082   3.570
81823W        W50052  12.198  31.567  10.695
81824W        W50053  11.349  24.991  14.882
81825W        W50054  17.823  25.713   1.540
81826W        W50055  19.091  23.551   2.835
81827W        W50056  33.130   0.661  13.356
81828W        W50057  25.639  24.252  11.566
81829W        W50058  20.662  39.571   0.132
81830W        W50059  29.787  15.176   2.359
81831W        W50060  30.503  41.816   1.601
81832W        W50061  14.126  42.982   4.429
81833W        W50062  10.593   6.387  11.235
81834W        W50063  35.056  38.642  14.185
81835W        W50064  20.222  17.099   1.404
81836W        W50065   3.462   3.347   0.377
81837W        W50066  32.780  43.923   2.374
81838W        W50067  43.266  37.787   3.835
81839W        W50068   3.810  10.131  12.114
81840W        W50069  23.739  24.397   1.464
81841W        W50070  30.588  42.010  10.680
81842W        W50071   4.621  11.085  10.780
81843W        W50072  31.117   5.202   0.058
81844W        W50073   5.231  22.942   3.831
81845W        W50074  43.815  37.205   1.742
81846W        W50075   7.397   8.932   1.418
81847W        W50076  23.837  11.103  10.630
81848W        W50077   4.471  44.723   4.859
81849W        W50078  16.138  42.976   3.820
81850W        W50079  14.504  32.471   4.790
81851W        W50080  43.314  13.739   3.870
81852W        W50081   7.125   7.280  12.442
81853W        W50082  13.615  37.487   4.553
81854W        W50083  18.250   8.757   1.202
81855W        W50084   5.986  20.290  11.603
81856W        W50085   1.146  15.921  13.582
81857W        W50086   1.155  13.513  10.923
81858W        W50087  16.135   8.195  14.427
81859W        W50088  42.235  38.931   2.722
81860W        W50089  38.311  20.782   0.012
81861W        W50090  12.024  24.697  13.477
81862W        W50091   6.269  39.137   1.340
81863W        W50092  37.862  13.425  12.865
81864W        W50093   1.737  34.933  11.342
81865W        W50094  25.624  28.522   1.854
81866W        W50095  31.921  18.771   0.632
81867W        W50096   9.567  31.134   3.534
81868W        W50097  37.367  20.193  14.347
81869W        W50098  33.953  11.893   3.122
81870W        W50099   5.872  41.336   0.813
81871W        W50100  35.375  35.992   0.922
81872W        W50101  41.053  22.064   3.250
81873W        W50102  38.210  29.896  14.096
81874W        W50103   2.139   9.537   1.869
81875W        W50104   2.269  23.465  13.437
81876W        W50105  26.535  20.618  11.043
81877W        W50106  34.401  13.580  12.146
81878W        W50107   1.824  11.102   1.698
81879W        W50108  42.789  22.966   2.383
81880W        W50109  15.577  15.581   0.387
81881W        W50110   7.137  25.159  10.738
81882W        W50111  35.233  30.560   2.409
81883W        W50112   9.122  22.926  10.636
81884W        W50113   9.201  37.130   3.627
81885W        W50114   6.140   1.932  14.331
81886W        W50115   1.202  42.976  10.979
81887W        W50116  11.223  26.138  13.556
81888W        W50117  15.268  12.787   2.831
81889W        W50118   8.093   0.110  14.746
81890W        W50119  19.695  10.967   2.397
81891W        W50120  24.063  22.258   3.193
81892W        W50121   7.774  15.802  12.601
81893W        W50122  25.996   1.970   1.886
81894W        W50123  37.543  20.956   1.863
81895W        W50124  35.376   3.221   4.534
81896W        W50125  17.611  21.579   4.288
81897W        W50126  24.784  43.449  10.513
81898W        W50127  38.405  32.230   3.620
81899W        W50128  24.852   2.424  12.803
81900W        W50129   4.198  18.711   2.777
81901W        W50130  30.142   9.816   4.131
81902W        W50131  44.060  20.366  13.877
81903W        W50132  23.642  28.600   1.020
81904W        W50133  16.925   3.714  10.227
81905W        W50134  41.448   4.662  11.478
81906W        W50135  31.399  33.852  12.485
81907W        W50136  31.702  16.765   3.661
81908W        W50137  10.201  36.577  11.997
81909W        W50138  16.725  28.745   1.792
81910W        W50139  39.201  28.857  13.751
81911W        W50140  23.976  32.128   3.128
81912W        W50141  26.012  31.842   2.309
81913W        W50142  23.250  32.430   3.716
81914W        W50143   3.848  31.174  12.330
81915W        W50144  12.084  40.847   0.963
81916W        W50145  34.989   5.217  13.884
81917W        W50146  25.271  41.783   1.848
81918W        W50147  36.284  24.520   3.116
81919W        W50148  42.487   5.972  14.175
81920W        W50149  16.709  40.050  12.902
81921W        W50150  11.588   0.420  12.105
81922W        W50151  41.530   0.206  12.780
81923W        W50152  14.739  34.981   2.898
81924W        W50153  22.152   6.944  11.320
81925W        W50154  37.352  42.189  14.303
81926W        W50155  18.724  43.217   2.016
81927W        W50156  30.082  42.457  12.940
81928W        W50157  10.068  36.024   1.476
81929W        W50158  31.486   8.592  13.013
81930W        W50159  40.943  34.005   0.438
81931W        W50160  11.410  43.331   3.081
81932W        W50161   0.821  37.523  12.940
81933W        W50162   5.134   8.309   1.652
81934W        W50163  41.073   0.439   2.568
81935W        W50164  18.006  23.650   3.510
81936W        W50165  13.219  16.017  12.880
81937W        W50166  39.776  15.845  12.883
81938W        W50167  11.809  32.666   2.353
81939W        W50168  13.418  11.054  10.296
81940W        W50169  33.063   3.273   4.613
81941W        W50170  29.422  25.131   1.644
81942W        W50171   2.256  35.132   3.996
81943W        W50172  27.509  20.088   4.652
81944W        W50173   8.296  27.668  12.494
81945W        W50174  27.275  24.101  13.978
81946W        W50175  24.079   3.725  15.000
81947W        W50176  23.189  31.896   2.383
81948W        W50177  10.408   8.236   0.528
81949W        W50178  21.038  10.406   4.555
81950W        W50179  28.641  20.122  10.419
81951W        W50180  33.556  17.067   3.586
81952W        W50181  26.639   5.876  13.785
81953W        W50182  10.853  36.542  12.660
81954W        W50183   7.803   9.827  14.389
81955W        W50184  37.286  34.152  14.228
81956W        W50185  44.360  43.581  12.977
81957W        W50186  34.071  17.240   0.816
81958W        W50187   6.772  10.957  11.913
81959W        W50188  32.891  35.623   3.704
81960W        W50189  19.287  19.079   0.704
81961W        W50190   5.618   0.711   4.031
81962W        W50191  38.868  42.193  12.084
81963W        W50192  25.705  33.604   1.682
81964W        W50193   0.202   3.431  10.837
81965W        W50194  13.716  32.181   1.539
81966W        W50195  35.290  19.665   1.046
81967W        W50196  20.953   7.779  10.965
81968W        W50197  10.601  24.026  10.101
81969W        W50198  18.606  41.440   0.204
81970W        W50199  26.659  20.506   3.318
81971W        W50200   0.753   6.912  13.708
81972W        W50201   6.923  42.859   4.615
81973W        W50202  44.468   8.416   2.591
81974W        W50203  10.912   3.479  10.650
81975W        W50204  12.328  35.157  13.172
81976W        W50205  30.253  23.978  11.678
81977W        W50206  16.345   8.950  10.614
81978W        W50207  40.267  27.931  11.385
81979W        W50208   4.764  43.911  13.993
81980W        W50209  36.059  34.591  12.836
81981W        W50210   7.171  26.513  10.988
81982W        W50211  18.908  33.467  12.904
81983W        W50212  21.566  36.299  11.955
81984W        W50213  37.415  20.342  14.830
81985W        W50214  27.193  21.679  14.402
81986W        W50215  24.130  37.646   2.357
81987W        W50216  41.812  26.580  14.575
81988W        W50217  12.374  41.748  11.530
81989W        W50218  28.900   7.412  11.877
81990W        W50219  35.863   1.319   0.850
81991W        W50220  24.733   7.849  13.468
81992W        W50221   4.452  21.301   1.154
81993W        W50222  21.543  35.635   0.901
81994W        W50223  12.338  36.100   3.328
81995W        W50224  32.101  25.146  12.511
81996W        W50225  36.885   7.729  12.841
81997W        W50226  24.173  27.201   2.123
81998W        W50227  13.890  25.357   1.437
81999W        W50228   7.223  29.587  11.173
82000W        W50229  38.538  13.621  14.325
82001W        W50230  17.858  18.140   2.991
82002W        W50231  33.660   5.294  10.943
82003W        W50232  24.543  20.080  14.200
82004W        W50233  14.663  43.513  12.414
82005W        W50234  23.723  39.601   0.972
82006W        W50235  12.680   5.480   2.312
82007W        W50236  22.210  31.076  14.911
82008W        W50237   5.924  25.694  13.919
82009W        W50238  14.378  31.028   0.769
82010W        W50239  43.032  28.525  12.618
82011W        W50240  19.665  19.886  13.707
82012W        W50241  31.187  16.997   0.000
82013W        W50242  32.623  12.105   4.265
82014W        W50243  11.203  36.046  14.973
82015W        W50244  40.774  11.746   0.807
82016W        W50245  43.393  10.251   9.950
82017W        W50246  43.543  20.583  14.279
82018W        W50247  37.957   5.921   3.096
82019W        W50248  11.802  37.450   1.896
82020W        W50249   0.450  43.866   3.644
82021W        W50250   2.908  16.593  13.093
82022W        W50251  24.070  43.514   4.614
82023W        W50252  11.355   7.220   2.692
82024W        W50253  36.852  19.556  13.970
82025W        W50254  24.702   8.132  13.899
82026W        W50255  19.250   6.306   0.471
82027W        W50256  33.205  41.974   4.514
82028W        W50257  29.096  15.235   0.286
82029W        W50258  34.634   6.015  11.218
82030W        W50259   8.131   5.354   1.762
82031W        W50260  17.493  15.286   2.294
82032W        W50261  13.525  33.623  14.334
82033W        W50262  13.343  22.082   1.914
82034W        W50263  25.990  14.368  13.248
82035W        W50264  37.067  37.985   1.429
82036W        W50265   7.674  29.510  14.827
82037W        W50266  12.699  29.820   4.279
82038W        W50267  12.097  39.859   3.028
82039W        W50268  16.044  15.748   9.783
82040W        W50269  29.018  33.070   1.201
82041W        W50270  37.924  40.482   3.608
82042W        W50271  10.360  42.414   3.164
82043W        W50272  33.125  16.702  12.749
82044W        W50273   5.382   6.850  11.079
82045W        W50274  25.299  38.418  13.975
82046W        W50275  28.071  30.131   4.606
82047W        W50276  12.050  13.252   1.504
82048W        W50277  28.473   4.031  14.440
82049W        W50278  44.231  17.307  10.582
82050W        W50279  13.042  29.401   1.798
82051W        W50280  16.717   6.766  11.353
82052W        W50281   1.863  11.243  10.512
82053W        W50282   6.800  43.403   4.236
82054W        W50283  44.813  35.419  12.003
82055W        W50284  27.725   3.137   3.438
82056W        W50285  13.870  20.259  10.938
82057W        W50286   7.754  41.021   1.665
82058W        W50287   4.858  36.159   1.209
82059W        W50288   2.825   3.952   0.290
82060W        W50289  20.218  44.277  10.742
82061W        W50290  14.792  20.805   1.862
82062W        W50291  17.528  21.036   3.648
82063W        W50292  42.980   3.693  11.910
82064W        W50293  39.098  29.826  11.726
82065W        W50294  17.767  28.558  14.418
82066W        W50295  23.932   6.862   1.784
82067W        W50296   1.038  44.519   0.497
82068W        W50297  35.421  35.817   3.578
82069W        W50298   8.263   7.014  10.539
82070W        W50299   5.986   0.278   3.194
82071W        W50300  25.601   6.765   2.173
82072W        W50301  32.331  35.032  14.773
82073W        W50302   3.428  36.960  11.371
82074W        W50303   4.409  40.862   1.752
82075W        W50304  11.798  18.436  13.471
82076W        W50305  11.672  26.132   1.694
82077W        W50306   8.063  35.042  12.631
82078W        W50307  31.947   1.834  11.756
82079W        W50308  40.484  17.112   0.878
82080W        W50309   7.831  16.818  14.715
82081W        W50310  38.986  13.322   3.732
82082W        W50311  22.877  12.747  10.266
82083W        W50312  29.176  27.832   4.563
82084W        W50313  26.072  37.172  12.883
82085W        W50314  33.477  13.794  13.289
82086W        W50315  15.566  11.412  11.985
82087W        W50316   8.213  27.147  12.524
82088W        W50317  16.175  28.566  14.990
82089W        W50318  15.340  16.807   2.295
82090W        W50319  19.772  18.952   5.063
82091W        W50320  40.542  32.016  11.473
82092W        W50321  22.188  20.874  11.022
82093W        W50322   6.802  20.735   1.435
82094W        W50323  11.465  18.740  12.150
82095W        W50324   0.795  36.891   9.888
82096W        W50325  17.465  18.006   9.584
82097W        W50326  36.042   1.403  10.933
82098W        W50327   1.040  41.844  13.448
82099W        W50328  20.939  28.199  11.758
82100W        W50329   4.985  22.666  12.085
82101W        W50330  38.977  10.132  14.019
82102W        W50331   2.419  20.291   3.020
82103W        W50332   6.508   6.050  11.544
82104W        W50333  35.337   0.460  11.515
82105W        W50334  34.372  17.262  11.475
82106W        W50335  14.154  17.519   4.551
82107W        W50336   2.640  33.003   0.175
82108W        W50337   2.623  24.603   4.099
82109W        W50338  35.474  27.918  11.160
82110W        W50339  44.058  31.755   3.251
82111W        W50340  26.606  19.041  11.577
82112W        W50341  16.295  16.104   4.428
82113W        W50342  10.117   3.442   4.162
82114W        W50343  32.984  39.886   2.569
82115W        W50344  24.379  24.071  11.574
82116W        W50345  23.153  42.302  11.629
82117W        W50346  32.981  21.801  11.996
82118W        W50347  36.971  32.949  10.072
82119W        W50348  34.848   3.919   1.375
82120W        W50349  42.453  33.224  13.347
82121W        W50350   3.984  36.889   3.657
82122W        W50351  38.168  17.054   3.978
82123W        W50352  27.160  23.101   2.372
82124W        W50353   6.272  22.085   4.301
82125W        W50354   0.868  20.470  12.887
82126W        W50355  25.727  11.595  11.433
82127W        W50356  39.750  44.862  11.516
82128W        W50357  35.115  11.153   4.202
82129W        W50358  11.335  24.208   3.335
82130W        W50359  30.869   8.411   0.473
82131W        W50360   2.725  22.644   3.238
82132W        W50361  31.111   6.525   1.829
82133W        W50362  27.201  37.779  14.070
82134W        W50363  30.085   4.578  14.845
82135W        W50364   5.729  37.956  11.077
82136W        W50365  10.197  38.513  11.420
82137W        W50366   7.259  30.574  13.137
82138W        W50367  22.205  27.881   2.890
82139W        W50368  14.786   8.839  12.844
82140W        W50369  30.402  30.425   3.664
82141W        W50370  44.352   3.843  11.436
82142W        W50371   5.892  14.974   2.806
82143W        W50372  16.424  19.324  11.660
82144W        W50373   2.353  40.855   1.950
82145W        W50374   3.969  31.228   3.173
82146W        W50375  37.431  24.194   0.714
82147W        W50376  23.928  35.656  12.499
82148W        W50377   8.258  11.728  12.988
82149W        W50378  41.755  39.164  12.438
82150W        W50379   2.198  15.726   4.209
82151W        W50380  11.273   8.817   1.837
82152W        W50381  10.565   4.067  11.400
82153W        W50382  28.990  44.723   0.907
82154W        W50383  14.908  22.624   2.317
82155W        W50384  19.658  14.257  14.613
82156W        W50385  27.890  44.694  12.242
82157W        W50386   4.906  31.000  11.475
82158W        W50387  11.243  34.013   1.733
82159W        W50388  30.938  40.315  12.479
82160W        W50389   8.847  20.782   2.449
82161W        W50390  33.438  18.485   4.112
82162W        W50391  40.632   1.912   2.836
82163W        W50392  41.878  26.728   1.584
82164W        W50393   9.679   5.478   0.375
82165W        W50394  36.965  11.762   1.282
82166W        W50395  24.161  35.617   4.101
82167W        W50396  22.078   0.949   4.713
82168W        W50397  29.497  29.479   1.508
82169W        W50398   3.215   4.822  12.902
82170W        W50399  24.695  23.504   4.472
82171W        W50400  33.304  10.883  14.909
82172W        W50401  33.335  37.835  10.813
82173W        W50402  19.180  22.016  11.795
82174W        W50403  36.343  17.994  13.973
82175W        W50404   3.913  18.156   2.152
82176W        W50405  43.648  30.400  13.850
82177W        W50406   8.371  21.358  14.793
82178W        W50407  16.608   5.756  11.983
82179W        W50408   1.187  39.529  12.916
82180W        W50409  18.449   5.245   0.994
82181W        W50410  24.998  44.760  12.599
82182W        W50411  11.435  42.972  14.963
82183W        W50412  10.321  34.574  11.051
82184W        W50413  30.156  14.778   2.370
82185W        W50414  43.021  14.243   3.345
82186W        W50415   0.243   0.772  11.604
82187W        W50416   2.901   6.967  11.653
82188W        W50417  19.927   1.209   2.465
82189W        W50418  38.494  18.640   0.820
82190W        W50419   4.050  38.223   1.197
82191W        W50420  33.140   8.507  11.161
82192W        W50421  35.369  15.679   2.868
82193W        W50422  42.619  14.527   3.196
82194W        W50423   8.484  22.748  12.029
82195W        W50424  39.091  24.052  10.597
82196W        W50425  20.307  25.493   3.657
82197W        W50426  23.216  19.040  12.377
82198W        W50427   2.065  35.758  13.772
82199W        W50428  23.617  37.793   4.041
82200W        W50429   5.906  23.288  13.844
82201W        W50430  20.557  20.073  13.829
82202W        W50431  20.963  26.946   1.217
82203W        W50432  26.890  39.883  12.538
82204W        W50433  21.823  27.529  10.937
82205W        W50434  43.977  29.171  14.289
82206W        W50435  15.374  14.551   4.081
82207W        W50436  16.779  27.104   4.395
82208W        W50437  31.275  32.408  12.109
82209W        W50438  36.511  37.757   2.308
82210W        W50439  18.225  32.464  11.241
82211W        W50440  40.930  31.941  13.985
82212W        W50441  42.022  30.986   0.243
82213W        W50442  24.196  24.045   2.980
82214W        W50443   1.737  42.103  11.113
82215W        W50444   5.636  16.235  13.974
82216W        W50445   5.998   2.834  11.806
82217W        W50446  37.447  22.684   2.299
82218W        W50447  37.496   0.229  13.588
82219W        W50448   2.554  33.193   4.586
82220W        W50449   9.659  36.024   2.718
82221W        W50450  27.393  24.643  12.472
82222W        W50451   1.391  14.232  12.930
82223W        W50452  40.942  32.942   0.542
82224W        W50453  23.306  25.164  12.637
82225W        W50454  30.695  18.854  12.530
82226W        W50455   1.074  31.092   0.084
82227W        W50456  37.442   6.287  14.419
82228W        W50457   7.866  42.913  11.795
82229W        W50458  23.711  34.061  13.394
82230W        W50459   5.631  17.721   3.146
82231W        W50460  44.704   1.803   4.110
82232W        W50461  36.811   6.387  14.822
82233W        W50462  39.333  13.227  13.421
82234W        W50463  35.200  26.067  12.994
82235W        W50464  29.490  43.306  10.727
82236W        W50465  10.522  30.008   2.957
82237W        W50466  35.813  15.302   1.392
82238W        W50467  13.188   4.348  10.308
82239W        W50468   6.684  16.148   0.257
82240W        W50469  19.033   1.694  12.131
82241W        W50470  44.770  42.415   0.378
82242W        W50471  30.179   9.575   3.679
82243W        W50472   2.989  33.935   0.863
82244W        W50473  29.185   8.344  13.641
82245W        W50474  15.300   8.005   0.473
82246W        W50475  13.732  39.158  13.558
82247W        W50476  24.355   5.285   0.812
82248W        W50477   4.244  43.813   3.685
82249W        W50478  30.658  11.355   0.360
82250W        W50479  43.419  40.481   4.697
82251W        W50480   3.397   9.823  11.519
82252W        W50481  35.964  20.762  14.425
82253W        W50482   2.441   0.411   3.341
82254W        W50483  28.080  34.344  10.063
82255W        W50484  34.073   4.031   0.413
82256W        W50485  14.369  10.711  12.763
82257W        W50486  38.965  42.957   3.724
82258W        W50487  35.786  44.903   3.767
82259W        W50488  10.157  33.756   9.992
82260W        W50489  30.291   7.735   0.780
82261W        W50490  28.565  44.556  11.726
82262W        W50491  25.933  40.310   1.327
82263W        W50492   7.239  24.764  12.015
82264W        W50493  33.845  24.043  11.567
82265W        W50494  10.280  19.774  12.773
82266W        W50495  17.028  13.702   2.773
82267W        W50496   5.404   6.669   3.622
82268W        W50497  43.428  26.696   3.159
82269W        W50498  15.858  30.966  12.032
82270W        W50499  35.922  19.362  11.549
82271W        W50500  40.919  22.325   1.643
82272W        W50501  36.318   0.709  11.197
82273W        W50502  32.930  42.725   2.745
82274W        W50503  10.271  37.099   0.936
82275W        W50504  19.756  35.142   2.782
82276W        W50505  10.343   3.519  14.897
82277W        W50506  40.360  33.117  13.857
82278W        W50507   7.408  10.338   4.824
82279W        W50508  10.323  34.944   5.110
82280W        W50509   2.729  13.061  13.695
82281W        W50510  39.794  28.976  13.053
82282W        W50511  21.486  16.191  14.687
82283W        W50512  30.163  33.247   2.905
82284W        W50513  24.098   5.264  13.903
82285W        W50514   8.163  28.483   2.676
82286W        W50515  21.233  43.924   1.864
82287W        W50516   7.200  25.534  14.994
82288W        W50517  36.522  10.375   1.795
82289W        W50518  32.992  35.412   2.681
82290W        W50519  42.371  15.066   1.940
82291W        W50520   8.103  26.138  12.231
82292W        W50521  10.961  12.893   9.650
82293W        W50522  39.439   3.388  14.120
82294W        W50523  26.145  16.054  10.693
82295W        W50524  30.520   9.384  13.537
82296W        W50525  31.662   3.156  12.832
82297W        W50526  27.005  36.393   3.209
82298W        W50527  22.051  14.038   4.579
82299W        W50528  12.918  28.913  14.466
82300W        W50529  11.587  43.154   1.338
82301W        W50530  42.973  29.360  12.905
82302W        W50531  43.269  24.387   0.854
82303W        W50532  43.749   7.912  13.568
82304W        W50533  21.620  25.445  14.686
82305W        W50534  28.570  28.355  14.254
82306W        W50535   1.819  16.137  12.377
82307W        W50536  42.497  44.266  13.532
82308W        W50537   4.767  41.908  11.521
82309W        W50538  26.627  25.624  11.662
82310W        W50539   8.730   4.308   3.337
82311W        W50540  14.003  22.016  12.448
82312W        W50541  13.811   1.649  11.875
82313W        W50542  25.960  14.693   4.560
82314W        W50543  30.857   0.310   2.239
82315W        W50544   8.680  14.209  11.645
82316W        W50545   3.435   4.019   1.897
82317W        W50546  34.095  25.642   2.336
82318W        W50547  32.722   6.388   4.633
82319W        W50548   5.787  14.467  11.511
82320W        W50549  19.163  40.690   2.325
82321W        W50550  14.646  18.611  11.622
82322W        W50551  44.470  24.720   0.427
82323W        W50552  19.578  13.563  12.478
82324W        W50553  32.971  29.930  11.968
82325W        W50554  20.567   9.671   0.372
82326W        W50555  33.113  11.917  13.421
82327W        W50556  44.433  36.563   1.225
82328W        W50557   2.862  33.438   0.799
82329W        W50558  20.832  15.699   2.175
82330W        W50559  20.165  38.955   1.966
82331W        W50560  13.352  25.519   4.832
82332W        W50561  33.096  36.582  10.694
82333W        W50562  13.695  44.121  13.756
82334W        W50563  10.814   2.251   2.299
82335W        W50564  35.420  18.553  12.357
82336W        W50565   5.603  31.197  14.724
82337W        W50566  22.539  11.798   4.750
82338W        W50567  18.806  17.160   0.919
82339W        W50568  34.019  14.739   2.256
82340W        W50569   0.874  38.051  12.482
82341W        W50570  17.043  34.073   1.229
82342W        W50571  28.308   2.329  11.961
82343W        W50572   1.023  39.563   2.664
82344W        W50573  42.482  13.270  14.358
82345W        W50574  16.664  32.909  12.586
82346W        W50575  29.113  40.277  13.098
82347W        W50576  23.619  33.356   4.976
82348W        W50577  17.279  19.063  11.689
82349W        W50578  34.572  37.640  11.256
82350W        W50579  12.710   1.685  13.750
82351W        W50580  33.153  39.951  12.315
82352W        W50581  40.899  37.314   0.791
82353W        W50582  10.127   9.329  12.017
82354W        W50583  27.656   7.776  12.365
82355W        W50584   3.735  37.354   3.684
82356W        W50585  13.259   6.347  14.848
82357W        W50586  23.106  29.320   0.713
82358W        W50587   7.185  32.911  12.588
82359W        W50588  43.259  21.002  13.078
82360W        W50589  19.253  32.409   0.342
82361W        W50590  13.270  17.278   4.358
82362W        W50591   9.111  30.794  11.701
82363W        W50592  16.201  43.230  13.003
82364W        W50593  14.051   7.934   4.499
82365W        W50594  36.675  35.507   1.542
82366W        W50595   4.939  20.548  11.538
82367W        W50596   3.167  41.964   1.660
82368W        W50597  29.712  22.112   0.303
82369W        W50598  24.583   3.795  11.496
82370W        W50599  27.960   2.758  11.167
82371W        W50600  41.460   0.829   2.981
82372W        W50601  43.376  25.944  10.689
82373W        W50602  17.556   4.735   0.399
82374W        W50603  33.120   4.665  10.682
82375W        W50604  34.831   6.665  10.726
82376W        W50605   1.163  24.100   4.620
82377W        W50606  42.510  13.164   0.308
82378W        W50607   0.457   3.654  13.357
82379W        W50608  17.102  23.591   3.058
82380W        W50609   9.313  21.719   4.208
82381W        W50610  20.016   3.905   4.185
82382W        W50611  17.575  39.946  12.801
82383W        W50612  19.860  10.304   1.877
82384W        W50613  16.086  31.468  12.903
82385W        W50614  29.654  44.202   4.297
82386W        W50615  39.018   0.779  12.089
82387W        W50616  12.343  25.544  12.470
82388W        W50617  25.187   7.625   1.789
82389W        W50618  36.815  17.644   0.574
82390W        W50619   5.703   9.246  10.717
82391W        W50620  24.423  30.484   2.655
82392W        W50621   2.815   2.455   0.784
82393W        W50622  44.365   1.107  12.916
82394W        W50623  40.906   7.249  10.684
82395W        W50624  18.202  10.229  14.824
82396W        W50625  43.746  33.900   4.125
82397W        W50626  42.455   4.413   3.109
82398W        W50627  11.257  44.464   2.035
82399W        W50628   7.661   9.626   3.274
82400W        W50629  39.390   8.897   2.712
82401W        W50630  22.114  10.826   0.453
82402W        W50631  12.745  30.923   3.630
82403W        W50632  19.143  36.484   0.325
82404W        W50633  19.899  21.035  11.481
82405W        W50634  12.814  39.829   1.863
82406W        W50635  33.916   7.848   1.859
82407W        W50636   5.724  44.774  13.393
82408W        W50637  38.408  30.015  11.223
82409W        W50638  27.238  28.146  12.101
82410W        W50639  22.917   7.223  11.007
82411W        W50640  43.354  12.222  14.854
82412W        W50641  41.829  35.063  14.482
82413W        W50642   1.924  15.388   4.534
82414W        W50643  11.900  18.818  11.877
82415W        W50644  37.576   9.198   1.725
82416W        W50645  25.259  19.878  11.741
82417W        W50646   0.661  36.414  14.481
82418W        W50647  42.682  20.012   3.183
82419W        W50648   3.805  11.463  12.195
82420W        W50649  31.149  22.502   2.215
82421W        W50650  25.478   1.984   2.743
82422W        W50651   9.900  33.097   1.381
82423W        W50652   9.342  23.912   3.421
82424W        W50653  24.486  10.070   0.738
82425W        W50654  37.996  39.904  10.435
82426W        W50655  18.031   7.722   0.452
82427W        W50656  28.028  36.636   3.087
82428W        W50657  20.274  37.283   2.128
82429W        W50658  29.255  36.792   4.338
82430W        W50659  20.569  33.629  13.937
82431W        W50660   7.291  31.618  10.729
82432W        W50661  29.512  29.637  13.563
82433W        W50662  37.589  31.452  13.329
82434W        W50663   2.498  22.253   4.163
82435W        W50664  37.288  32.651   1.282
82436W        W50665  33.560  36.529   1.834
82437W        W50666  43.412  10.842  13.827
82438W        W50667   8.136  37.436  11.160
82439W        W50668  39.881  31.943  14.388
82440W        W50669  39.542   6.855   0.400
82441W        W50670  40.831  27.625   4.584
82442W        W50671  35.553  33.382  13.843
82443W        W50672  12.762  17.243  11.915
82444W        W50673  42.682  11.717  12.775
82445W        W50674  34.902  28.293  14.870
82446W        W50675  10.106   6.929   0.016
82447W        W50676  22.278   8.011   1.662
82448W        W50677  36.526  35.116   2.884
82449W        W50678  36.432  32.639  12.808
82450W        W50679   5.933   4.071  13.081
82451W        W50680  32.189  23.293   0.648
82452W        W50681  25.627  32.972  14.388
82453W        W50682  38.461  10.232  13.944
82454W        W50683  36.626  37.801  14.721
82455W        W50684  36.802  42.469   0.831
82456W        W50685   6.277   3.400   0.310
82457W        W50686   0.196  20.247  11.544
82458W        W50687  33.619  14.603  11.527
82459W        W50688  41.385   5.451   4.717
82460W        W50689   2.322  43.766  11.464
82461W        W50690  21.674  41.581   1.228
82462W        W50691  17.796  27.199  13.398
82463W        W50692   5.068  40.167  12.003
82464W        W50693  40.891  18.590   1.328
82465W        W50694   3.715  25.088   1.192
82466W        W50695   7.301  11.260   3.109
82467W        W50696   6.305  29.445  11.317
82468W        W50697  22.045   1.581  11.128
82469W        W50698  18.793  11.736  13.452
82470W        W50699   8.978   4.177  11.839
82471W        W50700  40.881  26.678   4.176
82472W        W50701  39.388  40.636   2.744
82473W        W50702   2.829  37.783  13.963
82474W        W50703  38.451  20.196   2.206
82475W        W50704   9.295  30.045   4.116
82476W        W50705  18.469  29.397  14.834
82477W        W50706  28.234   8.135  11.199
82478W        W50707  10.537  13.610   0.174
82479W        W50708  43.032  28.881   3.766
82480W        W50709  13.141  29.659  11.355
82481W        W50710   3.359  17.567  13.339
82482W        W50711  36.539  10.301   3.809
82483W        W50712  14.272  36.451  12.607
82484W        W50713  33.453  14.156   2.694
82485W        W50714  12.895  21.245   0.592
82486W        W50715  11.104  21.260   3.815
82487W        W50716  31.639  38.617  12.576
82488W        W50717  42.348   8.908  13.149
82489W        W50718   2.447   6.493   2.825
82490W        W50719  17.353  13.808  11.144
82491W        W50720  26.201  29.625  14.895
82492W        W50721  42.406  18.530  13.026
82493W        W50722  21.800  43.509   2.076
82494W        W50723   6.879  31.426  12.525
82495W        W50724   6.277  15.151   4.618
82496W        W50725  22.029  44.920  13.082
82497W        W50726   8.347  22.459   4.736
82498W        W50727  43.788   6.115   1.451
82499W        W50728  41.772   6.382  12.481
82500W        W50729  40.485  35.175   4.676
82501W        W50730  29.811  27.306  14.390
82502W        W50731  42.396  24.295  13.594
82503W        W50732   0.743   8.729   4.409
82504W        W50733  11.526  26.571   1.901
82505W        W50734  13.199   9.217   3.320
82506W        W50735   0.143   6.016   0.439
82507W        W50736  16.038  12.566   3.060
82508W        W50737  12.374  11.700   3.123
82509W        W50738   5.848  21.561  12.622
82510W        W50739  35.053  15.644  11.131
82511W        W50740   7.075   5.599  13.505
82512W        W50741  34.971   3.835   0.429
82513W        W50742  27.006  27.534   3.189
82514W        W50743  28.031   6.648   2.823
82515W        W50744  26.736  44.781   4.177
82516W        W50745  27.048  28.055  10.707
82517W        W50746  28.151  44.343   4.147
82518W        W50747  24.635  12.858  11.563
82519W        W50748  28.894  15.191  13.181
82520W        W50749   5.929  18.481  11.004
82521W        W50750  34.391  42.292   2.261
82522W        W50751  34.348  26.536  14.292
82523W        W50752  11.097  16.363   4.494
82524W        W50753  13.141  38.780   3.679
82525W        W50754  42.050   8.917  11.004
82526W        W50755   2.693  12.232   1.773
82527W        W50756  39.521  43.475  12.444
82528W        W50757  31.084  24.009   3.074
82529W        W50758   8.330  12.233   0.711
82530W        W50759   3.207   8.611  12.815
82531W        W50760  32.563  23.148   4.212
82532W        W50761  24.902  36.516  10.798
82533W        W50762  38.813   4.475  12.206
82534W        W50763  19.573  30.623  14.114
82535W        W50764  41.648  12.797   4.647
82536W        W50765   2.440  32.371   2.203
82537W        W50766  24.136  27.567  11.918
82538W        W50767   4.235  33.026   0.168
82539W        W50768  14.710  19.300   3.265
82540W        W50769  27.695  38.322  10.652
82541W        W50770  29.796  43.320   4.693
82542W        W50771  23.103  20.090   1.420
82543W        W50772  20.981  14.834   2.722
82544W        W50773  33.156  35.532   3.259
82545W        W50774  38.384  18.484  10.600
82546W        W50775  17.545  31.505  10.688
82547W        W50776  44.422   0.523  13.798
82548W        W50777  36.056  33.854  13.829
82549W        W50778  10.593   5.828  12.462
82550W        W50779  36.101  11.077   2.846
82551W        W50780  33.478  27.040   2.394
82552W        W50781  17.776  15.564  13.131
82553W        W50782   0.689  24.771   5.200
82554W        W50783  25.392  41.002  12.345
82555W        W50784  21.536  33.232   3.227
82556W        W50785  27.711  28.507  14.189
82557W        W50786  35.326   0.328   2.605
82558W        W50787   0.351   0.772  12.633
82559W        W50788  12.001  34.939  12.382
82560W        W50789   2.418  44.586  11.865
82561W        W50790  26.243  40.778  11.065
82562W        W50791  10.753  12.163   2.192
82563W        W50792  24.551   8.327  13.440
82564W        W50793  42.272  34.842  11.208
82565W        W50794  37.914   1.765   4.104
82566W        W50795  23.509  40.994  13.942
82567W        W50796  31.935   7.552   1.021
82568W        W50797  37.435   1.957  10.802
82569W        W50798  19.790   1.315   4.345
82570W        W50799  16.850  17.739   2.277
82571W        W50800  16.856  27.063  13.577
82572W        W50801  26.295   3.772  12.460
82573W        W50802  20.613  40.864   1.934
82574W        W50803  27.886  19.658  10.712
82575W        W50804  12.563  26.402   0.176
82576W        W50805  30.399  28.124  12.484
82577W        W50806  29.040  32.524  11.019
82578W        W50807  38.796  33.348  12.465
82579W        W50808  15.009  20.278   4.512
82580W        W50809  37.207  33.157   1.369
82581W        W50810  30.503  22.970  12.608
82582W        W50811  41.493  32.115  11.784
82583W        W50812  29.212  29.106  11.540
82584W        W50813  43.796  29.922  14.749
82585W        W50814  19.583  30.494   4.332
82586W        W50815  41.338  12.504   4.162
82587W        W50816   8.883  19.087  14.331
82588W        W50817  33.418  26.026   2.193
82589W        W50818  31.189   2.827  13.969
82590W        W50819   7.906  40.999   3.940
82591W        W50820  33.226  41.091   0.316
82592W        W50821   8.790  16.051  12.187
82593W        W50822  39.493  22.659  10.684
82594W        W50823  30.909  38.661  12.400
82595W        W50824  12.777   4.679  10.838
82596W        W50825   3.740  41.249   1.851
82597W        W50826   7.740  26.023  10.517
82598W        W50827  44.038   2.804   1.279
82599W        W50828  36.459  21.181   3.657
82600W        W50829  17.865   9.320  14.116
82601W        W50830  36.730  44.520   3.691
82602W        W50831  16.070  28.098  10.394
82603W        W50832  42.855  17.107   1.633
82604W        W50833  23.189  16.376  10.693
82605W        W50834   4.206  44.745   3.646
82606W        W50835  18.073  20.278  14.267
82607W        W50836  23.278   6.909   3.917
82608W        W50837  41.849  26.083  12.036
82609W        W50838  31.999  28.168   4.889
82610W        W50839  17.156  22.097  11.004
82611W        W50840  40.513  29.855   3.309
82612W        W50841   9.216  43.515   1.477
82613W        W50842   5.438  19.211  13.577
82614W        W50843  44.443  21.579   1.732
82615W        W50844   4.743  38.738  11.049
82616W        W50845  38.488   6.750  12.460
82617W        W50846  12.538  35.893  14.356
82618W        W50847  37.872   0.906   4.507
82619W        W50848   4.875  30.554  14.585
82620W        W50849  18.139  13.049  13.777
82621W        W50850  21.138   7.896  13.116
82622W        W50851  20.773  40.664   1.488
82623W        W50852  43.320  25.658   2.601
82624W        W50853  29.526  14.620   3.196
82625W        W50854  16.685  13.073   0.882
82626W        W50855  42.966   9.989  10.873
82627W        W50856  31.894  11.850   3.998
82628W        W50857  41.890  13.731  11.861
82629W        W50858   8.677  18.273  13.914
82630W        W50859  15.496  34.887  14.464
82631W        W50860  32.583  14.007   2.699
82632W        W50861  18.535  25.087  11.226
82633W        W50862  38.326  25.539  14.647
82634W        W50863  20.275   4.694  11.391
82635W        W50864  41.266   4.305  11.953
82636W        W50865   5.435   8.303   4.138
82637W        W50866   1.864   7.771  13.420
82638W        W50867  42.070  32.469  10.904
82639W        W50868  30.619   8.368  13.511
82640W        W50869  28.409  41.077   3.161
82641W        W50870  18.418  12.670  11.429
82642W        W50871  36.975  33.811   4.170
82643W        W50872  36.056  37.103  11.224
82644W        W50873  17.297  23.933  11.439
82645W        W50874   7.370  14.385   0.661
82646W        W50875   6.653   7.359  13.713
82647W        W50876   7.593  38.623  13.361
82648W        W50877  40.501  39.727  12.906
82649W        W50878  24.561   6.435  10.626
82650W        W50879  12.318  41.599   1.451
82651W        W50880  19.467  21.086   2.725
82652W        W50881   5.627  44.972  14.259
82653W        W50882  37.822  31.643  14.784
82654W        W50883  38.496   2.224  13.360
82655W        W50884  20.642  15.983   4.574
82656W        W50885  36.349  39.035  11.626
82657W        W50886  33.973  30.106   2.008
82658W        W50887  41.948  33.812  12.441
82659W        W50888   6.298  42.663  14.801
82660W        W50889  13.995  23.271   4.927
82661W        W50890  22.630  25.615   3.038
82662W        W50891   9.893  34.863   4.553
82663W        W50892  27.427  28.987  12.361
82664W        W50893   0.344   4.839  14.080
82665W        W50894   2.049  34.513   4.500
82666W        W50895  30.192  12.088  13.950
82667W        W50896  42.064  29.170   3.701
82668W        W50897  24.978  24.960   0.699
82669W        W50898  25.291   2.519  12.552
82670W        W50899   1.813  38.558   2.376
82671W        W50900  35.961  23.674   4.827
82672W        W50901   7.936  33.785   1.598
82673W        W50902   1.315  15.576   1.879
82674W        W50903  42.930  11.204  12.496
82675W        W50904   5.903  22.917  12.895
82676W        W50905  11.964  33.410   3.342
82677W        W50906  23.989  11.290   0.781
82678W        W50907   6.454  36.089   1.353
82679W        W50908  11.875  12.569   2.755
82680W        W50909  20.780  11.890  14.479
82681W        W50910  44.201  37.994   4.320
82682W        W50911  12.595  21.290   2.683
82683W        W50912  39.587  31.867  11.456
82684W        W50913   2.907   0.726   2.637
82685W        W50914  14.664  31.519  11.430
82686W        W50915  26.428  31.490   0.872
82687W        W50916  11.915  27.584   3.721
82688W        W50917   6.036  23.400  11.722
82689W        W50918  15.736   1.337  12.166
82690W        W50919  30.144   9.346   1.828
82691W        W50920   7.853   8.893  10.996
82692W        W50921  35.777  28.300   0.370
82693W        W50922  26.116  22.117   3.632
82694W        W50923   6.753  28.247  11.924
82695W        W50924  23.008  19.282   3.242
82696W        W50925  30.585  10.080   4.099
82697W        W50926  32.503  44.885   3.076
82698W        W50927   4.690  17.109   3.843
82699W        W50928  29.140  35.297   0.422
82700W        W50929  24.304  44.324   0.377
82701W        W50930  26.546  39.090  11.515
82702W        W50931   3.422  10.362   2.611
82703W        W50932  18.049   2.446  11.996
82704W        W50933  28.843   9.141  13.918
82705W        W50934   6.422  31.592   0.336
82706W        W50935  22.770  34.530  12.043
82707W        W50936  38.527  22.777   0.977
82708W        W50937   7.322  43.894  10.605
82709W        W50938   9.799  19.993  14.581
82710W        W50939   3.481  40.255   2.430
82711W        W50940  23.296  43.905   3.656
82712W        W50941  33.035  31.548  14.443
82713W        W50942  25.602  28.053   4.150
82714W        W50943  21.854  13.692   1.808
82715W        W50944   0.783  23.051   0.727
82716W        W50945  19.065  35.555  13.464
82717W        W50946  29.634  25.785   4.185
82718W        W50947   5.734  32.101   0.242
82719W        W50948  41.069   5.096   2.737
82720W        W50949   8.261  31.872  11.864
82721W        W50950  21.037   4.711  13.260
82722W        W50951   5.911  29.613  11.640
82723W        W50952   5.814  42.527  12.627
82724W        W50953  37.397  33.562   3.695
82725W        W50954   8.356   8.802  13.497
82726W        W50955  10.395  41.930  13.080
82727W        W50956  16.264  24.262   1.808
82728W        W50957  39.421  11.742   1.001
82729W        W50958  28.940  44.926  11.606
82730W        W50959  12.101  23.514   3.236
82731W        W50960  15.311   8.891   2.961
82732W        W50961  43.085  29.475  11.592
82733W        W50962   7.999  25.219   2.204
82734W        W50963  31.359   9.822  13.038
82735W        W50964  21.244  31.637   4.228
82736W        W50965  12.189  44.909   0.959
82737W        W50966   6.316  14.891  11.864
82738W        W50967   0.702  27.043  12.397
82739W        W50968  13.319  21.143   3.706
82740W        W50969  17.156  30.011  14.728
82741W        W50970  16.980  33.845  13.459
82742W        W50971   9.466  37.925  12.012
82743W        W50972   7.359  36.270  14.033
82744W        W50973  27.716   0.181   3.632
82745W        W50974  13.115  32.553   4.741
82746W        W50975   6.347  26.241   2.712
82747W        W50976  25.815   9.922   3.665
82748W        W50977  23.507   0.628   3.982
82749W        W50978  26.036  21.059   0.565
82750W        W50979  28.654  11.322  14.515
82751W        W50980  28.715   6.882  14.406
82752W        W50981  28.772   3.221  11.192
82753W        W50982   0.768   1.945  11.609
82754W        W50983  25.730   5.887   3.125
82755W        W50984  31.425  33.702   1.899
82756W        W50985  19.115  33.373  12.442
82757W        W50986  17.719  41.833   4.051
82758W        W50987   3.766  41.807   1.790
82759W        W50988  39.447  11.151  11.464
82760W        W50989  10.590  35.411   4.304
82761W        W50990  40.320  24.053  12.449
82762W        W50991   2.994   1.112  14.900
82763W        W50992  43.404  34.153   1.933
82764W        W50993  38.980   4.507  11.162
82765W        W50994  30.449  40.499  12.399
82766W        W50995  17.859  38.440   4.676
82767W        W50996  34.877   6.851  12.616
82768W        W50997  39.426   5.827  13.633
82769W        W50998   3.539  17.585  14.519
82770W        W50999  34.582   1.014   1.867
82771W        W51000  10.886  11.173   1.358
82772W        W51001  33.126  13.031   4.303
82773W        W51002  44.571  12.516  13.518
82774W        W51003  40.979  17.510   2.197
82775W        W51004   5.485  43.276   2.687
82776W        W51005  13.807  17.745  13.261
82777W        W51006  13.327   1.217  13.534
82778W        W51007   4.787  16.086  11.658
82779W        W51008  23.434  15.179   3.996
82780W        W51009  12.263  24.021   3.231
82781W        W51010  17.740   7.689  13.344
82782W        W51011  19.213   9.277   0.338
82783W        W51012  21.472   5.067  13.933
82784W        W51013  14.237  19.799   3.897
82785W        W51014  30.529  41.101  11.680
82786W        W51015  28.988   3.186   4.913
82787W        W51016  43.383  41.999   0.998
82788W        W51017  34.503   5.071  12.927
82789W        W51018   8.340  26.049   1.252
82790W        W51019   8.779  13.478  12.867
82791W        W51020  25.704  13.319   0.346
82792W        W51021  30.129   4.540  11.109
82793W        W51022  22.725  20.218  13.333
82794W        W51023  37.963  15.644   2.651
82795W        W51024  19.931  42.070  11.614
82796W        W51025  33.914  15.881   3.618
82797W        W51026  25.599  37.528   0.500
82798W        W51027  27.641  34.604  12.160
82799W        W51028   1.779   8.405   2.340
82800W        W51029  35.916  22.605  14.355
82801W        W51030  40.115  30.099   4.357
82802W        W51031  23.206  21.589   0.929
82803W        W51032   7.179  27.198  12.597
82804W        W51033   8.301  25.190   3.606
82805W        W51034  25.587  17.865  14.887
82806W        W51035  44.353   4.376  14.415
82807W        W51036  25.616  37.108   3.773
82808W        W51037   8.817  29.534  12.730
82809W        W51038  40.870   2.476   3.396
82810W        W51039  21.615  15.094  11.549
82811W        W51040  26.169  34.078  10.626
82812W        W51041  17.881  41.577  11.441
82813W        W51042   3.660  22.267   3.358
82814W        W51043  12.705  26.691   2.370
82815W        W51044  10.603   6.336  12.519
82816W        W51045  11.192  20.272  13.810
82817W        W51046  22.565  43.772  11.466
82818W        W51047  14.353  32.416   1.455
82819W        W51048  31.067  10.261  11.589
82820W        W51049  27.608  14.701  11.840
82821W        W51050  33.441  38.891   2.201
82822W        W51051  14.762   5.958  14.641
82823W        W51052   5.444  40.020   2.963
82824W        W51053  19.694  10.052   2.605
82825W        W51054  22.043  10.214  14.147
82826W        W51055  21.992  19.769  13.621
82827W        W51056  19.632  38.077  14.607
82828W        W51057  30.437  10.976  11.397
82829W        W51058  10.197  33.493   0.098
82830W        W51059  30.480   0.401   3.132
82831W        W51060   3.197  22.021   4.637
82832W        W51061  19.007  33.969   1.830
82833W        W51062  38.084  30.155   4.037
82834W        W51063   1.388   8.417  12.517
82835W        W51064  22.638  41.754  12.670
82836W        W51065  13.681  43.034   0.799
82837W        W51066  15.560  13.098   2.193
82838W        W51067  28.533  35.121   4.032
82839W        W51068  37.357  18.153   2.841
82840W        W51069  42.300  44.521  12.405
82841W        W51070   6.818   5.855   3.845
82842W        W51071  40.949  17.113  14.554
82843W        W51072  23.651  36.383   4.218
82844W        W51073  36.822  22.211   3.576
82845W        W51074  18.519  13.028   3.097
82846W        W51075  40.033  12.831   4.642
82847W        W51076  22.690   5.842  14.269
82848W        W51077  24.642  13.161  14.285
82849W        W51078   8.188  24.600  13.224
82850W        W51079  18.711  34.556  14.890
82851W        W51080  37.891   1.348  12.847
82852W        W51081  34.368  16.556  11.117
82853W        W51082   3.837  40.844  11.098
82854W        W51083  21.088  27.989   2.264
82855W        W51084  24.817  29.533   1.631
82856W        W51085  36.649  17.543   2.669
82857W        W51086   6.674  30.417  14.968
82858W        W51087  22.686  28.536   2.362
82859W        W51088  42.218  44.520   1.925
82860W        W51089  19.296  20.048  11.524
82861W        W51090  36.316  26.990  11.625
82862W        W51091  14.456  19.803  13.578
82863W        W51092   8.163  20.634   4.433
82864W        W51093  10.404  28.556  12.351
82865W        W51094   5.221   5.355   3.105
82866W        W51095  35.829   9.269   4.535
82867W        W51096  31.082  40.440  14.940
82868W        W51097  19.493   4.011  11.116
82869W        W51098  24.537  18.158   2.211
82870W        W51099  10.605  26.827  11.651
82871W        W51100  44.327   4.203  11.866
82872W        W51101  20.192   9.848   4.467
82873W        W51102  30.856  36.611  10.515
82874W        W51103  43.993  21.277  14.700
82875W        W51104  39.984   1.713   3.130
82876W        W51105  43.950  38.981   2.403
82877W        W51106  36.143   7.386  12.865
82878W        W51107  44.542  30.641   4.512
82879W        W51108   3.365  38.877  12.529
82880W        W51109  33.888  42.357  11.401
82881W        W51110  26.232  27.027  14.362
82882W        W51111  21.192  42.279   0.266
82883W        W51112   2.214   6.463   4.186
82884W        W51113  29.113  33.600  14.860
82885W        W51114  25.996  21.901   4.662
82886W        W51115  12.851  23.616   4.564
82887W        W51116  14.878  23.249  14.890
82888W        W51117   0.196  44.015   2.829
82889W        W51118   4.400  41.376   0.826
82890W        W51119  32.618  10.776  10.869
82891W        W51120  24.563  40.109  10.556
82892W        W51121  30.377  23.457   3.729
82893W        W51122  11.813  44.848  11.135
82894W        W51123  24.241  26.787  10.684
82895W        W51124  17.739  30.315  12.897
82896W        W51125   6.190  24.418  14.835
82897W        W51126  28.201   2.426   2.231
82898W        W51127   4.132  30.691   3.539
82899W        W51128   2.952  37.382   2.379
82900W        W51129  30.854  14.784  12.142
82901W        W51130  24.028   9.135  13.405
82902W        W51131   6.389  20.157  14.531
82903W        W51132  39.381  16.827   0.815
82904W        W51133  33.764  26.941  14.268
82905W        W51134  10.144  23.265  10.858
82906W        W51135  36.391  28.647  12.979
82907W        W51136   5.859  14.673  11.976
82908W        W51137  44.290  24.071   0.943
82909W        W51138  41.273   1.002  13.414
82910W        W51139   6.002  11.577   1.439
82911W        W51140   1.174  21.672   3.871
82912W        W51141  10.119  43.848   0.995
82913W        W51142  15.178  43.541   2.713
82914W        W51143  21.611  38.580  12.969
82915W        W51144  30.615  17.812   2.178
82916W        W51145  23.936  42.337   0.524
82917W        W51146  22.252  16.200  14.050
82918W        W51147  22.161  31.412   0.336
82919W        W51148  27.137  14.966   0.312
82920W        W51149  19.100  44.501   3.995
82921W        W51150  13.067  35.095   5.294
82922W        W51151  39.583  35.448   3.245
82923W        W51152   4.369   5.272   4.977
82924W        W51153  22.764  32.476   1.650
82925W        W51154  24.196  27.436  11.341
82926W        W51155  30.631  16.568  11.882
82927W        W51156   5.033  21.842   2.437
82928W        W51157   5.939  15.762   2.380
82929W        W51158   9.406  13.773  11.924
82930W        W51159   6.466  39.052  12.472
82931W        W51160   7.416  24.026   2.181
82932W        W51161  40.402  14.322   0.415
82933W        W51162  21.057  24.277  11.037
82934W        W51163  23.606  10.067   4.100
82935W        W51164   8.182  29.037  12.072
82936W        W51165   2.362  43.493   0.538
82937W        W51166  39.250  16.338  11.087
82938W        W51167  21.602  22.901   0.024
82939W        W51168   5.618  19.071   3.283
82940W        W51169  17.157   4.784   4.071
82941W        W51170  19.755  16.696  12.964
82942W        W51171  19.578   7.478  14.344
82943W        W51172  16.580   9.819   4.184
82944W        W51173  12.217  22.535  12.372
82945W        W51174  40.345  44.950   4.594
82946W        W51175  35.630  12.370  11.648
82947W        W51176  12.427   0.399   2.804
82948W        W51177  19.752  34.836  13.628
82949W        W51178  17.603  23.384  13.006
82950W        W51179   4.070  26.234  11.477
82951W        W51180  42.071  36.996   4.709
82952W        W51181  39.254  40.368   0.563
82953W        W51182  41.931   2.134   4.810
82954W        W51183  29.543  43.262  12.192
82955W        W51184  36.922  30.251   4.558
82956W        W51185   1.054  10.779  12.959
82957W        W51186   7.361  12.997  13.317
82958W        W51187  21.139  17.059  11.894
82959W        W51188   3.652  28.562   4.615
82960W        W51189  21.406  28.553  12.480
82961W        W51190  41.872  37.786  12.498
82962W        W51191  18.494  30.852  14.801
82963W        W51192   1.534  15.765   2.331
82964W        W51193  16.897   7.917  13.463
82965W        W51194  11.699   8.172  11.144
82966W        W51195  41.563  30.412  10.625
82967W        W51196  16.627  27.677   3.685
82968W        W51197   2.900  33.446   0.254
82969W        W51198  33.434  34.369   4.558
82970W        W51199   0.530  16.146  13.795
82971W        W51200  31.364  20.615  14.529
82972W        W51201  13.179  31.117  13.401
82973W        W51202   5.937   3.361   4.598
82974W        W51203  18.993  11.836   0.270
82975W        W51204   1.262  22.549   4.937
82976W        W51205  35.000   6.941   0.011
82977W        W51206  24.972  36.388   1.821
82978W        W51207  32.108  23.782  14.377
82979W        W51208  27.169  36.065  12.880
82980W        W51209  40.355  27.120  12.036
82981W        W51210  39.793  40.916   2.441
82982W        W51211  26.115   9.296  10.998
82983W        W51212  21.554  44.967  12.873
82984W        W51213  34.506   9.658   1.376
82985W        W51214   3.923   5.028  11.983
82986W        W51215  13.677  21.597  12.487
82987W        W51216  41.093   3.261   1.449
82988W        W51217  26.731  31.409   2.411
82989W        W51218  16.248  44.695  11.014
82990W        W51219  22.699   9.013  14.442
82991W        W51220   6.706  41.902   4.504
82992W        W51221  41.336  21.811  12.008
82993W        W51222  41.767  35.868   3.562
82994W        W51223   9.687  11.654  11.950
82995W        W51224  25.999  16.825   4.344
82996W        W51225  33.328  29.909  13.748
82997W        W51226  19.934  15.405   2.270
82998W        W51227  37.861  28.977   4.143
82999W        W51228  38.959  36.098  10.655
83000W        W51229  21.040  11.713   0.229
83001W        W51230  33.957   4.261  12.411
83002W        W51231  42.898  28.736   0.340
83003W        W51232  41.236  10.161  12.328
83004W        W51233  27.459   6.265  11.419
83005W        W51234  13.503  27.592  13.790
83006W        W51235  32.768  21.774   0.288
83007W        W51236  18.915  18.675   2.163
83008W        W51237  43.134  20.096   0.620
83009W        W51238   7.911  32.215   2.280
83010W        W51239  38.140   1.734  11.030
83011W        W51240  22.298  17.844  14.871
83012W        W51241  20.810  35.705   9.847
83013W        W51242  13.870   3.972  14.025
83014W        W51243  24.989  32.941   4.535
83015W        W51244  11.630  17.941  10.139
83016W        W51245  31.065  21.600  12.157
83017W        W51246  43.847  23.866   4.093
83018W        W51247  30.108  43.298  13.359
83019W        W51248  44.920  20.669  11.718
83020W        W51249  24.680  24.208  12.841
83021W        W51250  42.487   8.693  14.029
83022W        W51251  29.354  16.200   2.304
83023W        W51252  33.022  35.523  11.535
83024W        W51253   3.183  13.871  14.238
83025W        W51254  35.654  17.786   2.480
83026W        W51255  31.913  24.236  14.521
83027W        W51256  29.970  11.076  14.966
83028W        W51257   0.380  29.131  13.452
83029W        W51258  11.558  24.604   2.692
83030W        W51259  26.698  38.420   4.285
83031W        W51260  39.538   7.877   3.716
83032W        W51261  36.196   5.935  11.387
83033W        W51262  21.825  26.402   0.326
83034W        W51263  13.155  18.200  10.619
83035W        W51264  29.068  17.621  11.941
83036W        W51265  32.388  33.643  12.496
83037W        W51266  38.985  21.766   0.382
83038W        W51267   3.873  38.859  12.529
83039W        W51268   7.993   4.083   0.309
83040W        W51269   7.704  43.079   3.098
83041W        W51270  12.619   0.279   3.655
83042W        W51271  35.306   5.392  14.237
83043W        W51272  43.305  42.415  12.318
83044W        W51273  22.428  23.725  12.928
83045W        W51274  41.273  35.989   3.680
83046W        W51275  16.808  41.925  13.491
83047W        W51276   9.246  43.940   1.136
83048W        W51277  14.712  24.641  12.574
83049W        W51278  27.638  34.665   2.340
83050W        W51279  30.154  20.326  11.699
83051W        W51280  21.581  41.471  14.743
83052W        W51281  16.180  31.427   0.739
83053W        W51282  43.455  23.163  13.251
83054W        W51283   2.350  10.250  10.608
83055W        W51284   2.880  30.439   3.992
83056W        W51285  12.360  20.733  13.902
83057W        W51286  31.534  38.365   0.409
83058W        W51287  39.321   6.884   0.878
83059W        W51288  43.953  16.069  13.960
83060W        W51289  12.339  12.331   0.493
83061W        W51290  43.734  40.075  11.140
83062W        W51291  40.830  39.006  14.761
83063W        W51292  34.545   8.270   3.622
83064W        W51293   3.037  28.102   0.654
83065W        W51294   1.657  44.242   2.779
83066W        W51295  28.060  14.336  14.484
83067W        W51296  21.411  12.048  13.729
83068W        W51297   3.924  21.738   1.534
83069W        W51298  30.465  12.384  12.955
83070W        W51299  15.295   8.793  13.541
83071W        W51300   3.860  36.021  14.700
83072W        W51301  17.266   0.531  13.414
83073W        W51302  21.051   3.344   1.673
83074W        W51303   4.779   6.112  12.711
83075W        W51304  11.272  19.368  14.895
83076W        W51305   4.017  40.734  12.747
83077W        W51306  12.042   0.941   4.927
83078W        W51307   1.786  20.186  14.668
83079W        W51308   3.521  30.667   2.717
83080W        W51309   0.546  31.152   1.732
83081W        W51310   6.072  40.765   0.067
83082W        W51311  27.190   0.978  10.721
83083W        W51312  31.053  29.635   2.733
83084W        W51313   2.911   7.435   2.401
83085W        W51314  23.822  34.453  14.215
83086W        W51315  38.106   6.186  11.436
83087W        W51316  22.604  12.446   9.875
83088W        W51317  31.643  32.234   2.304
83089W        W51318  43.292  26.294   1.768
83090W        W51319  23.257   8.270   2.230
83091W        W51320  30.106  24.164   2.322
83092W        W51321  21.503   1.735   1.328
83093W        W51322  31.530  37.882   3.880
83094W        W51323  24.051   2.402   4.283
83095W        W51324  28.394  15.862  11.139
83096W        W51325   4.151  15.606  12.947
83097W        W51326  44.845  42.219  12.338
83098W        W51327  29.841  44.108  12.073
83099W        W51328  38.015   1.258   2.362
83100W        W51329  20.363  17.142   2.355
83101W        W51330   4.121  30.445   0.812
83102W        W51331  10.087  21.113  11.186
83103W        W51332  40.368  29.877  11.835
83104W        W51333  31.484  43.438  10.636
83105W        W51334  20.792   2.786  14.019
83106W        W51335  36.072  11.435   2.455
83107W        W51336   0.504  18.649   3.161
83108W        W51337  44.085  23.127   1.733
83109W        W51338  12.597  16.563   2.848
83110W        W51339   1.729   6.695  14.955
83111W        W51340  34.489  34.113  12.624
83112W        W51341   7.585  19.493   0.346
83113W        W51342  15.241  21.647   0.768
83114W        W51343  31.154  40.556  10.931
83115W        W51344  12.763  32.899  14.428
83116W        W51345  27.185  18.906  10.839
83117W        W51346  13.767  33.441   1.846
83118W        W51347  34.445  24.483  14.964
83119W        W51348  22.987  25.590  12.758
83120W        W51349  26.132  38.298  11.562
83121W        W51350  16.024  41.461  11.423
83122W        W51351   3.596   9.095   1.226
83123W        W51352  43.965  36.431  11.954
83124W        W51353   5.142   0.995  13.444
83125W        W51354  30.369  24.702  14.056
83126W        W51355  25.890  32.925   4.866
83127W        W51356  22.563  14.339  10.921
83128W        W51357  16.340  28.389  13.515
83129W        W51358   3.302  42.224  12.553
83130W        W51359   7.244  25.267  12.131
83131W        W51360  43.489   6.755   3.899
83132W        W51361  24.663   2.767   4.642
83133W        W51362  11.129  19.861  14.771
83134W        W51363   4.990   8.003  10.760
83135W        W51364  11.890  31.753   1.067
83136W        W51365  28.578  31.483   4.073
83137W        W51366  13.259  28.160   3.237
83138W        W51367  39.550  17.719  10.575
83139W        W51368  33.586   5.942   0.266
83140W        W51369  10.761   1.390   2.814
83141W        W51370  22.550  34.863  12.375
83142W        W51371  10.272   7.821   3.225
83143W        W51372  31.125  17.781   4.070
83144W        W51373  20.888   0.344   3.697
83145W        W51374  24.988  10.610  10.239
83146W        W51375  21.523   5.112   1.891
83147W        W51376  34.940  35.470  14.070
83148W        W51377  31.933  29.310   4.189
83149W        W51378  33.793   6.017  11.494
83150W        W51379  24.168  38.609  11.233
83151W        W51380  44.013  18.844   4.568
83152W        W51381  39.724  23.544   1.565
83153W        W51382  39.373  14.277  13.504
83154W        W51383   8.562  32.653   0.549
83155W        W51384  34.478  29.000   0.420
83156W        W51385   4.674  33.646  11.925
83157W        W51386  34.392  43.783  10.797
83158W        W51387  23.208  15.492   1.804
83159W        W51388  18.770  42.622   0.329
83160W        W51389  20.562  22.058  14.066
83161W        W51390  41.578   2.804   0.331
83162W        W51391   2.924  40.807   1.283
83163W        W51392  29.281   9.839  13.526
83164W        W51393  37.879  20.142  14.963
83165W        W51394  12.894  12.587  11.681
83166W        W51395  33.209  43.695  11.532
83167W        W51396  15.266  42.853   0.289
83168W        W51397  17.566   0.906   4.811
83169W        W51398  33.435  32.638  13.738
83170W        W51399   0.328  36.036   2.306
83171W        W51400  21.874  18.216  14.001
83172W        W51401  36.411  10.146   4.826
83173W        W51402  42.835  29.723  11.187
83174W        W51403  32.922   9.315   2.874
83175W        W51404  24.364  11.559  11.250
83176W        W51405  22.023  29.499   0.796
83177W        W51406  10.729  44.805  14.842
83178W        W51407   8.841  22.709   2.289
83179W        W51408  16.967  40.316   0.816
83180W        W51409  18.272  17.092   0.736
83181W        W51410  13.860  10.443  13.965
83182W        W51411  19.978  21.937   2.911
83183W        W51412  37.642  11.103   3.652
83184W        W51413  19.338  16.109   4.102
83185W        W51414  16.420   6.305  11.756
83186W        W51415  42.463   0.465  12.626
83187W        W51416   1.369   4.149   0.793
83188W        W51417  28.029  33.629  11.954
83189W        W51418  20.576  29.673  10.689
83190W        W51419   3.364   4.484   2.716
83191W        W51420   7.200   7.229  11.112
83192W        W51421   2.905   1.515  13.496
83193W        W51422  26.760   0.995   1.423
83194W        W51423  42.589   2.307   1.794
83195W        W51424   7.388  31.937  12.357
83196W        W51425   4.418   4.315   3.849
83197W        W51426  28.079   1.311   4.291
83198W        W51427  28.092   6.298  12.834
83199W        W51428  28.628  10.333  10.694
83200W        W51429  43.798  43.892   2.392
83201W        W51430  12.204  33.696  10.186
83202W        W51431  17.990  40.306   0.479
83203W        W51432  16.671  40.767  14.439
83204W        W51433  27.424  12.566  14.461
83205W        W51434  25.071  40.468  11.487
83206W        W51435  28.250  38.434  14.249
83207W        W51436  28.417   0.103   2.358
83208W        W51437  28.720  38.149   3.233
83209W        W51438  36.177  29.631  14.874
83210W        W51439  27.151  30.368  11.967
83211W        W51440  41.287  33.594   0.357
83212W        W51441  16.689  16.971  14.889
83213W        W51442  37.623  44.485  12.061
83214W        W51443  18.181  10.049   4.580
83215W        W51444  38.042  14.670  11.054
83216W        W51445  15.366  17.113  13.883
83217W        W51446  13.385  41.484   1.306
83218W        W51447  23.162  10.803   1.765
83219W        W51448  26.256  44.752   1.311
83220W        W51449  22.297  21.956  10.608
83221W        W51450  35.363  33.736   2.195
83222W        W51451   7.045  33.337  11.068
83223W        W51452  37.694   3.304   2.873
83224W        W51453   7.658  25.121  10.617
83225W        W51454   6.943  34.082   1.984
83226W        W51455  24.906  32.629   4.966
83227W        W51456  41.489  22.972  10.787
83228W        W51457  35.695  36.722   3.614
83229W        W51458   3.434   7.935   1.182
83230W        W51459  40.825  24.008  14.036
83231W        W51460  33.209  15.550   1.743
83232W        W51461  20.691  23.631  12.192
83233W        W51462   1.018   3.975  12.392
83234W        W51463  15.996  11.668   1.787
83235W        W51464  21.691   3.163   4.191
83236W        W51465   7.434  37.668   4.207
83237W        W51466  28.856  21.136  13.048
83238W        W51467  20.011  42.043   0.375
83239W        W51468  12.216   1.879   2.446
83240W        W51469  14.837   9.902   0.220
83241W        W51470  43.601  31.591   0.906
83242W        W51471  32.490  22.637   2.168
83243W        W51472  40.783  25.903   0.482
83244W        W51473  33.163   4.955   0.764
83245W        W51474  38.360  11.788  12.299
83246W        W51475  23.670  38.166   1.025
83247W        W51476  31.536  12.721  11.405
83248W        W51477  22.720  34.664  11.198
83249W        W51478  35.414  14.395   3.446
83250W        W51479  24.169  16.186  11.998
83251W        W51480   6.629  17.800  14.333
83252W        W51481  25.262  39.385   2.805
83253W        W51482  43.900   9.691  10.614
83254W        W51483  26.032  18.705   3.977
83255W        W51484  17.006  43.507  11.630
83256W        W51485  30.092  38.411  13.442
83257W        W51486   4.149   0.694  12.458
83258W        W51487  39.395  34.927   3.778
83259W        W51488   6.598  15.927   3.846
83260W        W51489  18.934  21.884  12.964
83261W        W51490   5.199  28.659  13.797
83262W        W51491   2.711  12.874   3.774
83263W        W51492  40.239  25.140   3.789
83264W        W51493  14.275  20.456   0.741
83265W        W51494  34.117  15.337  13.797
83266W        W51495  24.262  10.930   1.004
83267W        W51496  10.633   5.244  13.158
83268W        W51497  44.919  21.233   3.362
83269W        W51498  20.108  17.016   0.051
83270W        W51499  12.110  25.447   3.218
83271W        W51500  22.679   3.394  12.157
83272W        W51501  32.121  34.503  14.596
83273W        W51502   9.217  11.610   0.071
83274W        W51503  19.569   9.324   4.668
83275W        W51504  28.574  26.485   0.861
83276W        W51505  31.047  20.571   4.824
83277W        W51506  18.538  40.268   0.365
83278W        W51507  13.367   6.350   2.765
83279W        W51508  10.395  16.908   3.141
83280W        W51509  36.480  13.560  14.921
83281W        W51510   9.893  12.727  12.611
83282W        W51511   5.730  35.467   2.780
83283W        W51512   2.770  25.962   4.041
83284W        W51513   0.414   2.410  12.892
83285W        W51514  18.802  15.277   3.700
83286W        W51515  16.590  39.942  12.392
83287W        W51516  33.982  29.728   4.321
83288W        W51517  42.485  26.000   0.797
83289W        W51518  42.076  38.395  14.847
83290W        W51519  34.589  40.962  12.513
83291W        W51520   7.388  42.790  12.062
83292W        W51521  15.117  44.870  14.652
83293W        W51522  15.716   2.555   3.336
83294W        W51523  26.232  39.129  12.458
83295W        W51524  14.715  21.035  14.342
83296W        W51525  42.898   0.748   3.275
83297W        W51526  24.756  13.741   1.880
83298W        W51527  15.376  31.076  13.432
83299W        W51528  37.794  33.178  10.983
83300W        W51529  33.512  25.049  10.217
83301W        W51530  36.087  35.610  12.043
83302W        W51531  35.442  19.052  11.599
83303W        W51532   6.927  29.936   2.303
83304W        W51533  18.695  32.216   1.173
83305W        W51534  13.538  22.274   4.375
83306W        W51535  23.158  12.410  11.799
83307W        W51536  43.419   5.029  10.667
83308W        W51537   1.403  20.287   2.490
83309W        W51538  24.497  22.596   4.650
83310W        W51539   8.298  44.205   4.604
83311W        W51540  15.362   1.654  12.623
83312W        W51541  40.421  16.095   1.056
83313W        W51542  27.125  25.666   2.402
83314W        W51543  10.641   2.821   1.293
83315W        W51544  43.315   8.427   1.949
83316W        W51545  39.088  35.621  10.506
83317W        W51546  44.677  20.540  13.910
83318W        W51547  26.459   8.980   3.623
83319W        W51548   5.315  38.334  11.769
83320W        W51549  16.019  22.147  11.047
83321W        W51550  24.018  43.011   4.579
83322W        W51551   3.781   6.961   4.062
83323W        W51552  30.209  38.287  14.403
83324W        W51553  14.282  12.862  11.844
83325W        W51554  15.866  34.384  13.865
83326W        W51555  10.889   6.635   2.490
83327W        W51556  27.454  33.881   0.424
83328W        W51557  13.680   6.756  12.886
83329W        W51558  12.280  29.805  14.357
83330W        W51559  29.217   5.773  13.426
83331W        W51560  32.720  31.104  11.178
83332W        W51561  40.266  19.660   0.968
83333W        W51562  38.987  44.318   0.867
83334W        W51563  13.980  44.227   2.793
83335W        W51564  23.175  38.056  10.752
83336W        W51565  34.877  17.207  13.837
83337W        W51566   2.040  19.259   0.477
83338W        W51567  24.102  15.343   4.551
83339W        W51568  12.169  28.556  14.535
83340W        W51569  14.387  36.886   3.693
83341W        W51570  40.160   1.594   1.333
83342W        W51571   7.305   4.217   0.765
83343W        W51572   6.058   3.682  12.438
83344W        W51573  12.257  25.792  12.892
83345W        W51574  31.197  41.846  12.769
83346W        W51575  35.367  15.591   3.769
83347W        W51576  41.928  41.979   3.972
83348W        W51577  40.302  15.023   2.461
83349W        W51578   3.092  23.929  13.789
83350W        W51579   1.737  15.244   3.567
83351W        W51580   3.156  22.795  12.524
83352W        W51581  43.105  28.115  14.865
83353W        W51582  43.066   6.508  10.434
83354W        W51583  17.544  15.768  14.369
83355W        W51584  44.465  43.599  10.792
83356W        W51585  29.525  42.272   0.843
83357W        W51586  24.076   8.267  12.014
83358W        W51587  18.065  40.983   3.872
83359W        W51588  15.380   6.682  14.980
83360W        W51589  39.473  24.619  11.528
83361W        W51590  11.296  30.646  14.631
83362W        W51591  28.233  39.931   4.145
83363W        W51592  20.294  32.029  10.813
83364W        W51593  32.103  33.273  13.889
83365W        W51594   9.424  29.475   1.658
83366W        W51595   9.240  20.897   3.740
83367W        W51596  21.261  35.349   4.680
83368W        W51597  11.920  27.677   0.390
83369W        W51598  40.866  44.844  13.911
83370W        W51599  42.016  26.522  11.560
83371W        W51600  15.311  29.374   2.234
83372W        W51601  25.637  26.755   2.483
83373W        W51602   1.520  24.747  13.250
83374W        W51603  17.787  37.801  12.887
83375W        W51604  41.345  16.575   3.573
83376W        W51605  31.168  36.186   1.340
83377W        W51606   3.668  43.993   2.283
83378W        W51607  23.127  39.562  11.126
83379W        W51608  38.858  36.089   0.906
83380W        W51609  31.067   8.736   1.789
83381W        W51610  21.289   4.646  11.526
83382W        W51611  33.541  12.299   3.905
83383W        W51612  29.675  13.537  10.717
83384W        W51613  14.121   1.747   0.088
83385W        W51614   0.800  31.005  10.700
83386W        W51615  35.385  39.099   3.832
83387W        W51616  10.188  32.381   3.677
83388W        W51617   6.652  38.346  12.576
83389W        W51618  17.885  16.139   4.572
83390W        W51619  14.812  24.734  11.164
83391W        W51620   7.730  14.829  12.517
83392W        W51621  39.894   5.417   2.182
83393W        W51622   5.435  37.372   4.127
83394W        W51623  34.904  26.486  14.375
83395W        W51624  39.887   8.428  12.370
83396W        W51625  34.510  13.255  13.893
83397W        W51626  37.493  38.358  14.015
83398W        W51627   0.774  19.760  13.557
83399W        W51628  18.718  25.920   3.640
83400W        W51629  21.238  13.329   4.326
83401W        W51630   1.747  33.434  13.442
83402W        W51631   7.315  43.085  11.135
83403W        W51632  14.345   1.350   1.421
83404W        W51633  25.160  35.856  11.589
83405W        W51634  29.899   8.249   1.838
83406W        W51635  29.816  41.078  11.005
83407W        W51636  42.238   7.453  12.031
83408W        W51637   2.395  17.527  12.394
83409W        W51638  34.242  26.118  14.625
83410W        W51639  38.096   0.891  13.044
83411W        W51640  23.969   7.300   4.102
83412W        W51641  37.848  30.579   1.770
83413W        W51642   6.639  15.759   1.241
83414W        W51643   8.290  40.472  13.327
83415W        W51644  39.296  17.134   2.230
83416W        W51645  12.117   7.697  11.656
83417W        W51646  22.188   6.027   4.527
83418W        W51647   1.823   4.313   0.999
83419W        W51648  30.349  16.645   1.720
83420W        W51649   6.741   6.379   1.486
83421W        W51650  26.546  34.999  11.211
83422W        W51651  38.450  33.422   2.659
83423W        W51652  20.288   8.777  14.418
83424W        W51653  15.205  35.530  12.605
83425W        W51654   1.854  34.792   4.103
83426W        W51655  16.420  15.767  13.444
83427W        W51656   2.941   0.882  11.378
83428W        W51657  42.826  25.146   0.972
83429W        W51658  21.785  25.612   2.502
83430W        W51659   7.789  33.651  13.465
83431W        W51660  26.055  37.072   3.362
83432W        W51661  13.701   8.908   2.688
83433W        W51662  42.961  12.667   4.554
83434W        W51663   2.886   8.705  14.660
83435W        W51664  42.508  34.225  14.468
83436W        W51665  27.883   2.038   0.990
83437W        W51666  24.167  28.193   0.847
83438W        W51667  21.800  33.126  11.058
83439W        W51668  22.723  11.899  14.944
83440W        W51669  16.043  18.913   2.689
83441W        W51670   2.902  16.621   3.338
83442W        W51671   1.427   7.706  14.964
83443W        W51672  33.991  13.830   4.737
83444W        W51673   6.175  30.902   3.169
83445W        W51674  41.871   5.221   3.540
83446W        W51675   2.276  12.614  14.998
83447W        W51676  31.874  28.656   1.104
83448W        W51677   8.263  34.585   3.217
83449W        W51678  31.643  37.739   0.840
83450W        W51679  32.049  15.307  10.902
83451W        W51680  43.335  16.803   1.894
83452W        W51681  26.171  34.676  13.116
83453W        W51682  31.297   7.988  12.523
83454W        W51683  22.506  10.750  10.580
83455W        W51684  38.910   0.790  10.660
83456W        W51685   9.695  29.762  13.587
83457W        W51686  21.934  20.519   2.143
83458W        W51687   9.910  16.620  12.188
83459W        W51688   4.750  41.397   4.183
83460W        W51689  25.630   9.995  14.348
83461W        W51690  36.046  12.374  12.362
83462W        W51691  32.488  33.168  12.314
83463W        W51692  28.488   4.346   3.687
83464W        W51693   6.094   0.848   4.170
83465W        W51694  44.222  44.179   4.190
83466W        W51695  24.788  29.405  14.802
83467W        W51696   7.402  39.021  12.640
83468W        W51697  44.479  19.291   0.247
83469W        W51698  38.564  21.138   3.715
83470W        W51699  14.838  20.307   2.745
83471W        W51700  14.807   2.125   4.692
83472W        W51701  24.168   3.640  11.172
83473W        W51702   6.742  35.348  13.053
83474W        W51703  20.195  28.492  12.911
83475W        W51704  24.499   8.967  13.186
83476W        W51705  22.538  35.099   3.550
83477W        W51706  30.466   4.295   4.195
83478W        W51707  30.059   9.480   4.534
83479W        W51708   4.706   9.643  11.676
83480W        W51709  40.563  26.520  13.850
83481W        W51710  25.219  26.691  14.037
83482W        W51711  40.181  24.594   3.654
83483W        W51712  15.820  28.230  10.869
83484W        W51713  21.049  33.452   4.702
83485W        W51714  17.744  26.618  13.311
83486W        W51715  15.141   7.386  11.665
83487W        W51716  10.242  35.468  12.416
83488W        W51717   9.177  37.006   1.813
83489W        W51718  25.653  19.109  12.535
83490W        W51719   4.904  22.987  12.936
83491W        W51720  40.416  12.594  11.981
83492W        W51721  27.014  44.247  12.225
83493W        W51722  29.040   2.788   2.636
83494W        W51723  27.051   0.508   3.158
83495W        W51724  28.265  32.868   4.265
83496W        W51725   7.098   6.243   3.357
83497W        W51726  21.210  28.637  12.986
83498W        W51727  26.665  34.570  14.453
83499W        W51728  44.305  44.805   1.231
83500W        W51729   9.261   7.431   4.883
83501W        W51730  36.405  17.778   3.529
83502W        W51731  38.820   0.759  12.572
83503W        W51732  17.069  14.876  11.526
83504W        W51733   8.378  15.705  14.891
83505W        W51734  40.084  16.586  13.407
83506W        W51735  34.644  17.743  11.544
83507W        W51736  34.946   8.825   1.738
83508W        W51737  30.124  22.003  14.369
83509W        W51738  15.603   7.335  13.023
83510W        W51739   2.800  41.799   3.761
83511W        W51740  44.414   7.489  11.135
83512W        W51741   0.249  10.651  13.261
83513W        W51742   0.897   9.848   1.738
83514W        W51743  39.282   7.882  10.016
83515W        W51744  25.258  27.554   0.009
83516W        W51745  24.748  22.957  13.098
83517W        W51746  35.635  18.532  12.850
83518W        W51747  21.579  12.305   3.205
83519W        W51748  16.607  19.654  13.994
83520W        W51749  27.057   3.776  12.271
83521W        W51750  17.057  19.798  13.505
83522W        W51751  32.771   7.148   3.620
83523W        W51752  17.747   5.912   4.319
83524W        W51753  16.767   3.699   2.582
83525W        W51754  20.773  19.579  12.828
83526W        W51755  13.152   0.782   1.343
83527W        W51756  11.868  39.837   1.802
83528W        W51757  19.262  32.822   2.704
83529W        W51758   7.593   3.881  11.622
83530W        W51759   0.794  22.864   1.336
83531W        W51760  42.039   2.702  13.430
83532W        W51761  20.786  18.294  14.054
83533W        W51762  29.273  11.414  11.160
83534W        W51763  36.141  10.195  12.884
83535W        W51764  17.190  36.649  13.123
83536W        W51765  23.962  26.453  11.747
83537W        W51766  13.974  34.572   4.084
83538W        W51767  38.803  34.539  12.942
83539W        W51768  44.953   4.280   2.886
83540W        W51769  41.317  30.404   2.791
83541W        W51770  34.618  40.637   1.157
83542W        W51771   4.774   0.917   2.744
83543W        W51772   0.899   6.224   2.652
83544W        W51773  33.568  16.326   0.815
83545W        W51774  34.056  14.286  13.813
83546W        W51775   0.330  17.698  11.669
83547W        W51776   1.973  27.232  14.340
83548W        W51777  42.262  42.395   1.260
83549W        W51778  14.795  33.883  11.162
83550W        W51779   0.069  17.496  10.992
83551W        W51780  30.907  30.520   4.602
83552W        W51781  37.646   9.764   0.035
83553W        W51782   4.587  25.172  12.437
83554W        W51783   1.308  33.673   2.125
83555W        W51784   7.827  44.743   3.806
83556W        W51785  36.159  27.099  12.115
83557W        W51786  12.227  19.174  11.691
83558W        W51787  23.038  39.716  12.097
83559W        W51788  10.088  11.346  12.733
83560W        W51789  32.226  39.900   4.615
83561W        W51790  44.169  32.969   3.122
83562W        W51791   9.418   0.261   0.900
83563W        W51792  19.637  23.985   5.407
83564W        W51793   4.199  34.150   2.821
83565W        W51794  35.398  24.655  13.907
83566W        W51795  21.842  13.541  14.437
83567W        W51796  39.623  42.906  12.137
83568W        W51797   3.991  27.332   3.151
83569W        W51798   3.508  13.550  13.753
83570W        W51799  20.837  40.239  13.487
83571W        W51800  34.451  16.566  13.241
83572W        W51801  21.062  39.357   3.441
83573W        W51802  19.980   8.417  13.269
83574W        W51803  44.330  13.273  12.025
83575W        W51804   0.006  31.518  11.507
83576W        W51805   7.686  33.585  12.146
83577W        W51806  41.399  12.314  14.216
83578W        W51807  38.568  10.620   1.907
83579W        W51808  44.398  28.640   5.301
83580W        W51809  20.081  39.894   0.664
83581W        W51810  33.417   8.072   4.238
83582W        W51811  37.997  34.907  11.702
83583W        W51812  41.862  40.021  13.032
83584W        W51813  33.112  23.571  11.622
83585W        W51814   7.348  15.303  11.465
83586W        W51815  12.711  18.929   0.209
83587W        W51816  40.401   3.145   0.719
83588W        W51817   2.775  41.404   2.080
83589W        W51818  37.308  31.412   4.046
83590W        W51819  43.488  43.848   3.286
83591W        W51820  12.116  23.184   3.666
83592W        W51821  27.993  44.294   0.739
83593W        W51822   1.298  15.781  11.669
83594W        W51823   7.748  28.565   0.834
83595W        W51824  38.904   8.403   0.919
83596W        W51825  26.478  26.581  14.532
83597W        W51826   2.889  39.564  10.970
83598W        W51827  16.730  29.452  11.473
83599W        W51828  19.140   2.796   3.475
83600W        W51829   7.359  29.519   3.691
83601W        W51830  27.120   8.171  14.449
83602W        W51831  22.670  10.663  11.049
83603W        W51832  35.342  42.434  12.086
83604W        W51833  11.864  28.111  12.875
83605W        W51834  20.559  14.259  12.000
83606W        W51835  40.749  24.655  14.363
83607W        W51836  42.804  16.864  12.999
83608W        W51837  20.251   8.373  10.314
83609W        W51838   7.883   4.870   3.417
83610W        W51839  36.866  34.124  12.064
83611W        W51840  26.939  38.181  12.560
83612W        W51841  27.142  32.457  14.365
83613W        W51842  42.777  36.056   0.784
83614W        W51843   0.446  24.028  12.491
83615W        W51844  39.836  24.841  12.129
83616W        W51845   8.969   9.314   4.897
83617W        W51846  25.573  37.849  10.261
83618W        W51847  28.944  35.858  12.469
83619W        W51848  40.062  27.098  10.930
83620W        W51849  22.838   6.339  14.287
83621W        W51850   0.196  26.709  13.971
83622W        W51851  44.911  33.893  13.430
83623W        W51852   9.957  33.506   4.128
83624W        W51853  27.065   0.130   0.297
83625W        W51854   4.689  42.583  12.054
83626W        W51855  16.022   5.299  12.510
83627W        W51856  20.754  31.041  14.802
83628W        W51857  32.379  16.328  13.632
83629W        W51858  10.109  22.407  11.037
83630W        W51859  39.914  12.400  13.846
83631W        W51860   7.215  37.150   2.412
83632W        W51861   7.734   4.979   3.890
83633W        W51862  38.759  25.422  14.959
83634W        W51863  43.174  14.589  14.821
83635W        W51864  16.325  12.941   2.805
83636W        W51865  32.099   3.181   2.502
83637W        W51866  21.651   6.372   3.675
83638W        W51867  31.488   2.825  13.537
83639W        W51868  43.607  14.927   4.097
83640W        W51869   7.199   4.987  13.783
83641W        W51870  17.037  10.206  11.896
83642W        W51871   6.427   6.314   4.612
83643W        W51872  24.718   8.774   0.964
83644W        W51873  25.623  23.030   1.453
83645W        W51874   1.032  42.242   1.689
83646W        W51875   5.487  44.416   0.886
83647W        W51876  20.566  35.913   4.535
83648W        W51877  42.689  21.301  11.829
83649W        W51878  36.872  16.807  12.506
83650W        W51879  40.009  22.258  11.717
83651W        W51880   4.913   4.405   2.222
83652W        W51881  19.097  10.782  11.574
83653W        W51882  30.569  18.602   2.646
83654W        W51883  20.000   5.495  13.892
83655W        W51884   4.698  32.166  13.825
83656W        W51885   1.452  44.104  13.988
83657W        W51886  20.545  14.157   1.449
83658W        W51887  31.437  17.271  12.491
83659W        W51888  13.458  36.265  14.456
83660W        W51889  41.575  17.609  12.083
83661W        W51890   3.386  44.946   1.883
83662W        W51891   2.891  20.325   2.827
83663W        W51892  32.477  40.101  12.809
83664W        W51893  28.646  11.207  13.436
83665W        W51894  20.337   7.033   4.162
83666W        W51895  36.799  23.477   2.241
83667W        W51896  19.318  13.337   4.696
83668W        W51897  34.332  40.376   2.232
83669W        W51898  27.259  14.214   1.396
83670W        W51899  40.762  10.739   1.226
83671W        W51900  15.790  43.837   2.616
83672W        W51901  30.023  36.506  13.786
83673W        W51902  32.612  37.904  11.649
83674W        W51903  28.985  12.094   1.355
83675W        W51904  18.325  13.928   1.613
83676W        W51905  34.759  12.085  11.478
83677W        W51906  12.641   6.365  14.470
83678W        W51907  17.599   5.174  12.574
83679W        W51908   0.349  30.631   3.497
83680W        W51909   5.197  33.199  14.699
83681W        W51910  23.099   2.884  14.094
83682W        W51911  19.156  18.428   1.288
83683W        W51912  39.955   7.191   3.344
83684W        W51913  20.978   8.714  11.473
83685W        W51914  21.203   3.443  14.398
83686W        W51915   4.359  31.629  10.418
83687W        W51916  42.848   0.310  11.497
83688W        W51917  37.891  21.996   1.276
83689W        W51918  40.503  15.225   3.766
83690W        W51919  39.425  25.762  13.917
83691W        W51920  21.771   9.296  10.454
83692W        W51921  20.077  12.399   2.184
83693W        W51922   1.996  15.825   3.727
83694W        W51923  44.701  32.515  12.390
83695W        W51924  35.573  16.203   4.221
83696W        W51925  44.266   3.356  12.504
83697W        W51926   1.784  30.659  10.698
83698W        W51927  14.518  42.691   9.866
83699W        W51928  44.692  41.763  12.527
83700W        W51929  17.019   9.452  12.590
83701W        W51930   4.975  10.684  11.659
83702W        W51931  38.941  27.548   3.074
83703W        W51932   9.248  37.475  14.493
83704W        W51933  24.705   4.326   0.375
83705W        W51934  17.460  22.187   1.806
83706W        W51935  27.154  34.379   1.275
83707W        W51936  27.230   3.263  10.234
83708W        W51937  35.969  26.796   0.430
83709W        W51938  15.284  15.036   2.433
83710W        W51939  36.216  33.016  11.232
83711W        W51940  29.477  15.640   2.338
83712W        W51941  39.942  33.039   4.620
83713W        W51942  26.648  31.525   1.366
83714W        W51943  23.238  22.342   3.282
83715W        W51944  19.157  20.187  14.735
83716W        W51945  23.258  34.373   2.764
83717W        W51946  32.627   2.448   4.351
83718W        W51947  28.878  10.832   3.351
83719W        W51948  29.054  16.113   3.628
83720W        W51949   3.798  17.910   1.147
83721W        W51950  40.873  37.530   4.873
83722W        W51951  19.135   7.238  14.360
83723W        W51952   2.716  16.645   4.283
83724W        W51953  43.952  19.629   0.649
83725W        W51954  41.924  38.984   3.856
83726W        W51955  21.980  22.014   0.921
83727W        W51956  39.811  35.503   0.692
83728W        W51957   8.171  31.535   4.616
83729W        W51958   9.228   6.260   1.206
83730W        W51959   7.150  21.337  13.479
83731W        W51960   0.955  35.319  14.386
83732W        W51961  11.604  12.141   0.041
83733W        W51962  20.676  17.608   4.591
83734W        W51963   8.939  32.958  13.994
83735W        W51964  14.884  11.909   3.304
83736W        W51965  41.693  26.792   2.481
83737W        W51966  20.129  31.618  14.894
83738W        W51967   0.338  29.959   4.885
83739W        W51968  16.084  34.486   3.995
83740W        W51969  33.820   2.194   0.342
83741W        W51970  21.307  11.285  14.526
83742W        W51971  43.875   7.314  14.896
83743W        W51972   9.106   4.949   1.672
83744W        W51973  21.482  37.105   0.280
83745W        W51974  33.494  35.591  14.439
83746W        W51975   1.758  12.610  14.932
83747W        W51976  10.127  30.148  10.717
83748W        W51977  26.742  40.829  11.034
83749W        W51978  22.195   5.894   3.647
83750W        W51979   0.734  41.616   2.434
83751W        W51980  23.653  31.112  14.864
83752W        W51981  31.118  21.535  11.611
83753W        W51982  22.726  38.811  11.175
83754W        W51983  34.389   4.798  13.365
83755W        W51984  20.750   4.944   4.264
83756W        W51985  39.202  15.901  14.808
83757W        W51986  22.693  35.236  12.037
83758W        W51987  11.831   4.658  14.664
83759W        W51988  39.239  30.088  10.888
83760W        W51989  10.542  30.454  11.555
83761W        W51990  10.294  21.712  10.625
83762W        W51991  31.071   9.392   3.946
83763W        W51992   9.465  41.518   4.253
83764W        W51993  18.560  12.834  14.027
83765W        W51994  32.522  10.478  13.868
83766W        W51995  22.599  23.485  11.626
83767W        W51996   3.923  21.239   4.335
83768W        W51997  22.027  14.099  13.685
83769W        W51998  38.652   6.185  12.929
83770W        W51999  13.299  37.162   1.406
83771W        W52000  34.501  15.478   4.138
83772W        W52001   7.741   0.693   3.745
83773W        W52002  23.187  29.465   2.386
83774W        W52003  27.180  38.991  13.411
83775W        W52004  24.297  36.621   4.094
83776W        W52005   4.192  30.524  13.797
83777W        W52006  16.775   8.308  12.433
83778W        W52007  10.672  30.036  14.464
83779W        W52008  31.168   8.877  12.091
83780W        W52009  39.915  12.995   3.176
83781W        W52010  31.655  28.544   0.160
83782W        W52011  14.133   9.726   3.834
83783W        W52012  37.764  36.565   0.470
83784W        W52013  14.682  39.236   3.820
83785W        W52014  39.768  19.261   3.185
83786W        W52015  19.692  10.604  11.613
83787W        W52016  26.908  34.469   3.645
83788W        W52017  28.711   0.007  13.397
83789W        W52018   1.963   3.201   2.583
83790W        W52019   3.263  34.150   0.465
83791W        W52020  29.088  17.869   9.937
83792W        W52021  30.711  43.369   4.415
83793W        W52022  43.873  12.227  13.999
83794W        W52023  38.844  26.207   0.324
83795W        W52024  38.756  10.121  14.496
83796W        W52025  29.939  17.853   0.767
83797W        W52026   6.324  11.155   1.297
83798W        W52027  30.258  39.775   1.264
83799W        W52028  34.884  35.677  11.631
83800W        W52029  15.122  19.311   0.354
83801W        W52030  10.950   2.416   1.482
83802W        W52031  25.908   9.777   2.227
83803W        W52032  22.564  32.130  14.227
83804W        W52033   5.643  42.049   3.379
83805W        W52034  43.767  12.465  11.191
83806W        W52035  37.436  28.650   1.288
83807W        W52036  43.271  19.638  11.198
83808W        W52037   0.328  34.000   1.643
83809W        W52038  43.407  21.248  13.892
83810W        W52039  42.080  25.552   0.360
83811W        W52040   4.852  37.450  11.956
83812W        W52041  14.822  18.153   1.752
83813W        W52042  38.052  19.068  11.188
83814W        W52043  14.376  37.829  14.768
83815W        W52044  33.524   6.563   2.800
83816W        W52045   4.349  34.166   3.673
83817W        W52046  17.170  21.004   3.208
83818W        W52047   2.456  40.972   2.864
83819W        W52048  40.720  24.943   4.593
83820W        W52049  26.700   7.196   4.345
83821W        W52050  40.039  33.930   1.604
83822W        W52051   0.167  14.249  13.388
83823W        W52052  28.469  14.022  13.487
83824W        W52053   4.874  25.057   4.046
83825W        W52054  42.046   8.294   3.101
83826W        W52055  44.446  22.844   2.891
83827W        W52056  32.431  24.611   3.680
83828W        W52057  43.393  32.513   2.343
83829W        W52058   6.798  20.563  12.670
83830W        W52059   3.530  18.590   0.692
83831W        W52060  24.731  16.063   2.293
83832W        W52061  36.407  18.914  14.313
83833W        W52062  33.610   9.321  12.892
83834W        W52063  20.811  32.194  10.754
83835W        W52064  31.050  37.582   0.253
83836W        W52065  18.700   6.948   4.069
83837W        W52066   7.364   6.280  12.131
83838W        W52067  25.394  21.163  12.091
83839W        W52068  13.642  39.015  11.150
83840W        W52069  31.387  27.510   3.682
83841W        W52070  43.788  40.006  13.826
83842W        W52071  37.612  35.674  11.777
83843W        W52072  20.260  43.388  10.559
83844W        W52073  31.537  44.973   3.068
83845W        W52074  20.720  37.345   4.510
83846W        W52075  40.856   0.020   3.729
83847W        W52076  23.998   7.993  11.543
83848W        W52077  16.512  37.485   3.016
83849W        W52078  10.737  43.103   1.758
83850W        W52079  26.510  12.865   0.341
83851W        W52080  26.275  31.201   5.001
83852W        W52081  40.700  39.223   3.304
83853W        W52082  43.784  35.868   1.697
83854W        W52083  19.750  38.096   4.116
83855W        W52084   3.247  44.043  13.159
83856W        W52085  22.457   1.009  13.415
83857W        W52086  11.229  17.017   2.723
83858W        W52087  15.557  32.444  11.049
83859W        W52088  13.325   1.300   4.424
83860W        W52089   1.945  30.203  14.758
83861W        W52090   6.415  33.301   3.045
83862W        W52091   5.204  18.267   2.497
83863W        W52092  21.759  15.138   2.044
83864W        W52093  11.235  17.573   2.812
83865W        W52094  31.058   4.711  10.051
83866W        W52095   1.493  44.463   4.146
83867W        W52096   4.398  12.198  12.196
83868W        W52097  42.447  22.760  13.553
83869W        W52098  43.497  34.143  12.943
83870W        W52099  29.069  20.744  13.779
83871W        W52100  44.261  34.912  11.181
83872W        W52101   1.878   6.366   1.558
83873W        W52102  11.294  36.868   4.628
83874W        W52103  38.651   8.296  12.931
83875W        W52104   3.785  17.540   0.123
83876W        W52105  29.983   4.270  10.705
83877W        W52106  17.281  19.989  12.533
83878W        W52107  37.031  11.177   0.458
83879W        W52108   5.173  41.312  13.876
83880W        W52109  40.392  40.509  10.593
83881W        W52110   4.405  36.849  13.011
83882W        W52111   9.670  41.246   0.411
83883W        W52112  15.952  35.043  12.340
83884W        W52113   9.324  44.712   4.812
83885W        W52114   6.435  44.769  12.139
83886W        W52115  41.841   4.862  12.604
83887W        W52116   4.379  31.870   1.336
83888W        W52117  35.121  21.435   4.013
83889W        W52118  11.633  40.877   2.394
83890W        W52119   7.543  10.907   2.822
83891W        W52120  22.509  37.753  11.194
83892W        W52121  34.863  30.601  11.511
83893W        W52122  20.217  13.317  12.475
83894W        W52123  16.598  44.760   3.865
83895W        W52124  19.345  39.904  11.241
83896W        W52125  43.806  26.254  10.753
83897W        W52126   3.957  36.982   2.744
83898W        W52127  24.082   8.817   4.641
83899W        W52128   1.892  18.240   1.327
83900W        W52129  27.233  34.447   2.568
83901W        W52130  10.776  29.006   3.543
83902W        W52131   7.337  33.487   4.393
83903W        W52132  25.057   1.187   2.320
83904W        W52133  18.163  26.989  10.733
83905W        W52134  23.615  23.624   2.419
83906W        W52135  21.252  44.227  11.613
83907W        W52136   3.859   5.510  12.958
83908W        W52137  26.560  41.328  12.114
83909W        W52138  23.617  18.696   1.653
83910W        W52139  38.737  35.323   4.201
83911W        W52140  15.904  17.086   0.401
83912W        W52141   7.583  34.660  10.677
83913W        W52142  21.212  31.306  12.332
83914W        W52143  34.114  39.709  11.893
83915W        W52144  26.554  38.618  11.714
83916W        W52145  13.101   2.774  12.049
83917W        W52146  13.784   0.284   2.893
83918W        W52147  40.383   7.494  11.905
83919W        W52148  14.235   6.784   2.218
83920W        W52149  10.867   3.266  11.565
83921W        W52150  40.286  18.324  11.390
83922W        W52151  41.989  19.899  12.921
83923W        W52152  38.338   7.893   0.488
83924W        W52153   8.146  15.220  11.025
83925W        W52154  20.017   1.734  14.408
83926W        W52155  37.289  22.739  11.295
83927W        W52156   5.868  23.499   1.389
83928W        W52157  41.340  38.785  12.959
83929W        W52158  19.144  27.742   3.603
83930W        W52159  12.115  24.201   2.290
83931W        W52160  22.748  26.659  14.348
83932W        W52161  12.276  41.883  10.662
83933W        W52162  13.815  40.339   4.461
83934W        W52163  36.076   2.304   0.760
83935W        W52164   0.168  24.065  14.815
83936W        W52165  17.921   3.200  12.473
83937W        W52166  25.878   7.238   1.299
83938W        W52167   4.266  15.669  14.220
83939W        W52168  11.102  43.041   4.080
83940W        W52169  37.600   5.278  10.813
83941W        W52170  21.337   0.431  14.478
83942W        W52171  43.530  17.214  14.879
83943W        W52172  23.202  29.037  11.412
83944W        W52173   6.626  22.679  13.345
83945W        W52174  41.992  18.695   3.227
83946W        W52175  31.625  18.675   1.675
83947W        W52176  32.098  37.010  12.423
83948W        W52177  12.162  33.480  13.874
83949W        W52178  14.738  39.981   3.279
83950W        W52179  18.636  16.295  13.884
83951W        W52180  23.398   4.272  12.495
83952W        W52181  15.758   7.195   0.364
83953W        W52182  31.895  10.065  13.042
83954W        W52183  32.342  38.271   1.227
83955W        W52184  30.610  44.268   2.245
83956W        W52185  31.665  25.965   1.434
83957W        W52186   6.181  10.619   3.354
83958W        W52187  26.375  12.257  11.455
83959W        W52188  19.631  23.509  14.766
83960W        W52189  43.545  13.058   2.146
83961W        W52190  32.055   3.433   4.665
83962W        W52191  26.928  44.325   1.285
83963W        W52192  17.840  40.279   1.355
83964W        W52193  37.555  20.978   2.850
83965W        W52194  20.765  18.316   0.778
83966W        W52195  33.175  35.840  14.051
83967W        W52196   4.276   8.929   3.107
83968W        W52197  13.913  41.092   1.474
83969W        W52198  44.621  23.079   3.699
83970W        W52199  30.805  28.692   4.209
83971W        W52200  25.264   3.323   2.216
83972W        W52201   0.933   1.341  13.760
83973W        W52202   1.260   0.873   4.629
83974W        W52203   2.021  17.188  14.206
83975W        W52204  25.089  40.104   0.703
83976W        W52205  36.306  21.170  14.326
83977W        W52206   3.472  24.602   2.828
83978W        W52207  13.685  37.463  11.098
83979W        W52208  44.789  20.818   2.544
83980W        W52209  29.720  32.871   2.771
83981W        W52210  25.657  36.772  13.501
83982W        W52211  28.708   4.360  11.581
83983W        W52212  25.649  34.377   0.570
83984W        W52213  19.775   0.457   4.475
83985W        W52214  33.641  44.297  13.048
83986W        W52215   2.811  28.504  10.818
83987W        W52216  24.148  20.707  14.535
83988W        W52217  28.171   7.856   3.501
83989W        W52218  35.107  34.036  14.165
83990W        W52219  37.835   0.432   3.703
83991W        W52220  39.327  28.868   3.299
83992W        W52221  29.436  20.020  12.645
83993W        W52222   6.287  28.080   0.687
83994W        W52223  33.156  33.538   5.163
83995W        W52224  23.160  11.102   2.745
83996W        W52225  41.853  16.977   3.645
83997W        W52226   2.440  22.764  14.587
83998W        W52227  26.586  20.050  13.850
83999W        W52228   6.485   8.131  13.439
84000W        W52229  44.004   0.326   3.639
84001W        W52230  21.442  43.555  11.161
84002W        W52231  20.079  22.737  14.394
84003W        W52232  20.155   5.120   2.737
84004W        W52233  41.596  40.462   4.223
84005W        W52234  26.035  16.739  12.999
84006W        W52235  27.958  35.920  10.639
84007W        W52236  21.791   6.884  14.915
84008W        W52237  27.139  12.348  13.360
84009W        W52238  21.241   1.598  14.516
84010W        W52239  11.184   8.954  10.231
84011W        W52240  30.136   4.462   2.131
84012W        W52241  11.252  31.115  12.499
84013W        W52242   8.387  19.641   1.436
84014W        W52243  37.454  22.262  13.370
84015W        W52244  36.161  27.591   3.791
84016W        W52245   7.300  38.875  11.603
84017W        W52246  12.657  26.274  14.649
84018W        W52247  11.464  16.157  13.970
84019W        W52248  37.028   0.718  12.360
84020W        W52249  33.540  18.993   3.207
84021W        W52250  12.238  42.862   1.739
84022W        W52251  23.285  26.730  14.446
84023W        W52252  23.240  30.567   0.321
84024W        W52253  32.445  25.625   3.848
84025W        W52254  20.897  21.660  13.908
84026W        W52255  13.143  34.008  10.683
84027W        W52256  22.318   7.250  12.807
84028W        W52257  38.845  27.475   4.049
84029W        W52258  33.821  34.523  13.815
84030W        W52259  35.480  15.663   4.686
84031W        W52260  20.276  34.324  11.542
84032W        W52261  16.710  28.145  12.091
84033W        W52262  44.332  26.878  14.860
84034W        W52263  14.118   1.464   0.953
84035W        W52264  12.299  28.553  12.499
84036W        W52265  24.768   8.622   2.269
84037W        W52266  44.899  36.744   2.678
84038W        W52267  26.560   0.817   0.578
84039W        W52268  40.880  36.475   3.448
84040W        W52269  32.905  15.581   2.352
84041W        W52270   5.462  17.165  11.134
84042W        W52271  27.179  15.137  12.183
84043W        W52272  27.759  34.107   2.762
84044W        W52273  36.303   8.634   3.847
84045W        W52274  31.543   3.992  11.445
84046W        W52275   9.479  12.391  14.057
84047W        W52276  26.620  44.368  11.865
84048W        W52277  27.585  34.751   0.281
84049W        W52278  33.652  17.763  11.381
84050W        W52279   2.572  27.653   3.195
84051W        W52280  33.818  14.135  11.491
84052W        W52281   9.601  20.842   0.753
84053W        W52282  34.034  24.146  13.438
84054W        W52283  24.687   9.407   2.673
84055W        W52284  35.962  42.327   2.983
84056W        W52285   1.380   1.986  11.995
84057W        W52286  36.795  40.679  12.891
84058W        W52287  23.835  13.942  12.856
84059W        W52288  22.648  32.094  11.990
84060W        W52289  18.300  41.559   1.053
84061W        W52290  31.957   0.513  11.912
84062W        W52291  39.616   2.823  10.719
84063W        W52292  35.105  23.808  10.677
84064W        W52293  44.389   9.708  10.859
84065W        W52294  38.965  22.249   1.069
84066W        W52295  42.018  42.781   1.888
84067W        W52296  39.918   4.880  11.623
84068W        W52297   6.369  30.506  12.467
84069W        W52298  29.564  27.868  12.981
84070W        W52299  16.195  32.189  11.202
84071W        W52300  16.263  25.687  14.231
84072W        W52301  13.185  34.053   0.809
84073W        W52302  22.462   5.399   4.122
84074W        W52303  15.897  22.538   0.482
84075W        W52304  43.347  27.947   0.289
84076W        W52305  33.815  28.215  11.740
84077W        W52306  19.810  10.586   4.007
84078W        W52307   0.688   4.666   1.387
84079W        W52308  11.287   8.142   2.568
84080W        W52309  19.701   7.137   1.602
84081W        W52310   3.455   3.687   1.019
84082W        W52311  27.974   5.788  11.169
84083W        W52312  12.822  21.820  11.018
84084W        W52313  35.201  40.792  11.450
84085W        W52314  33.123  42.788  14.424
84086W        W52315  22.577  12.272   5.522
84087W        W52316  26.591  31.925  12.631
84088W        W52317  25.562  18.783   1.758
84089W        W52318  26.903  15.092   3.327
84090W        W52319  28.037  17.685   0.557
84091W        W52320  15.556  41.728   0.887
84092W        W52321  15.291  26.320  13.398
84093W        W52322   4.730  31.418  11.719
84094W        W52323   1.324  10.868   4.338
84095W        W52324   2.011  28.785   0.276
84096W        W52325   1.774  34.453  10.625
84097W        W52326  44.366  42.114   1.286
84098W        W52327   5.809   4.976   9.833
84099W        W52328  25.640  34.555   4.206
84100W        W52329  36.906  39.156   0.326
84101W        W52330  31.988  19.228  10.766
84102W        W52331  30.606   8.962   0.513
84103W        W52332  13.598  40.091  12.925
84104W        W52333  33.536  19.642  11.561
84105W        W52334  19.679  16.808   0.270
84106W        W52335  15.578  29.989   0.142
84107W        W52336   9.345  21.675  14.865
84108W        W52337  36.264  19.559  10.741
84109W        W52338  33.576  42.704   2.218
84110W        W52339  38.908  29.603   3.178
84111W        W52340  21.273  44.946   0.043
84112W        W52341  11.663   4.239   0.924
84113W        W52342   4.957   6.729   2.781
84114W        W52343   4.775  40.839  12.866
84115W        W52344  21.194  32.422   0.357
84116W        W52345  33.003  43.781   1.381
84117W        W52346   4.578  36.268   4.254
84118W        W52347  15.535  33.599  10.872
84119W        W52348  43.389   2.147  11.544
84120W        W52349  21.915   6.754  13.489
84121W        W52350  16.060  30.496   4.211
84122W        W52351  10.436  44.816   2.509
84123W        W52352  38.141   4.294   0.713
84124W        W52353  43.669  11.291   3.623
84125W        W52354  39.086  35.519  11.901
84126W        W52355  10.268  18.135   2.798
84127W        W52356  36.600   8.058  14.981
84128W        W52357  31.443  43.692   2.431
84129W        W52358  42.334  37.431  14.806
84130W        W52359  28.172  30.096   0.787
84131W        W52360  26.537  44.387   2.207
84132W        W52361  19.584  30.681  14.632
84133W        W52362  10.148   6.102  12.565
84134W        W52363  19.843  40.934   4.556
84135W        W52364   6.109  17.799  13.391
84136W        W52365   7.176  34.002  14.563
84137W        W52366  40.579  42.874  12.169
84138W        W52367  25.641  32.154  11.401
84139W        W52368  34.387  23.597   3.686
84140W        W52369   2.240   2.796   2.167
84141W        W52370  30.051  22.524  14.019
84142W        W52371   6.485  42.638  13.818
84143W        W52372  33.543   9.181  14.498
84144W        W52373  44.729  10.702  11.398
84145W        W52374  39.525  11.154   0.037
84146W        W52375   7.353   8.368  11.695
84147W        W52376  13.669  23.201  11.025
84148W        W52377  34.099  43.929   2.854
84149W        W52378  35.389   1.804   0.795
84150W        W52379  33.991  36.063   1.375
84151W        W52380  23.908  17.935   4.343
84152W        W52381  14.278  13.872  10.926
84153W        W52382  14.320  17.046  12.854
84154W        W52383  26.062  33.193  14.577
84155W        W52384  15.190  10.592  14.578
84156W        W52385  21.245  27.607  14.074
84157W        W52386   1.824  16.148   1.384
84158W        W52387  25.177   5.258   0.336
84159W        W52388  44.912  44.721   9.966
84160W        W52389  30.508  32.057   0.021
84161W        W52390  19.094  13.132  13.331
84162W        W52391  14.059  44.203   3.630
84163W        W52392   6.853  36.599   4.937
84164W        W52393  28.984  27.407  13.549
84165W        W52394  11.933  13.708   4.669
84166W        W52395  10.810  39.643   1.580
84167W        W52396   2.246  40.461  12.858
84168W        W52397  30.428  43.367  14.346
84169W        W52398   6.706  17.306  14.139
84170W        W52399  26.252  11.106  10.967
84171W        W52400  35.665  31.514  10.168
84172W        W52401   8.603   4.271  12.206
84173W        W52402  28.950  35.977  10.765
84174W        W52403  41.892   5.499  13.995
84175W        W52404  30.382  28.837  13.216
84176W        W52405   2.626  21.072   4.564
84177W        W52406  31.054  14.180   4.576
84178W        W52407   4.665  19.564  12.135
84179W        W52408   5.724  36.521   4.600
84180W        W52409  30.400  17.124   4.135
84181W        W52410  37.101   9.883  14.880
84182W        W52411  24.393  34.927  14.429
84183W        W52412  10.701  24.986   4.278
84184W        W52413   7.817   2.764   0.907
84185W        W52414  42.476  30.862   2.199
84186W        W52415  23.690   1.532   0.446
84187W        W52416  21.741  22.316   4.124
84188W        W52417  37.933  24.774   3.779
84189W        W52418   5.526  37.328   9.620
84190W        W52419  28.124  21.260  13.531
84191W        W52420   0.142  32.927   3.385
84192W        W52421  27.089  35.968   1.703
84193W        W52422  39.303   4.166  13.496
84194W        W52423  35.976  28.880   1.278
84195W        W52424  25.010  22.011  12.994
84196W        W52425  40.299  13.683   0.849
84197W        W52426  36.968  26.581  10.955
84198W        W52427  20.147  35.375  11.964
84199W        W52428  44.775  19.619   1.636
84200W        W52429   4.780  24.928  12.887
84201W        W52430   5.535  35.703  11.199
84202W        W52431   9.977  21.310   3.314
84203W        W52432  13.466  16.399   2.850
84204W        W52433  20.362  19.254  10.799
84205W        W52434  42.724  31.625  11.189
84206W        W52435  27.529   0.287  12.991
84207W        W52436   7.673   6.621   1.477
84208W        W52437   7.789  16.425   2.836
84209W        W52438   3.949  41.080   3.733
84210W        W52439  14.495  30.104  11.622
84211W        W52440   5.875   6.423   0.534
84212W        W52441   6.667  26.072  12.876
84213W        W52442  14.830  26.957   3.819
84214W        W52443   1.586   9.243  11.669
84215W        W52444  12.309  20.001  11.961
84216W        W52445  36.268  10.620   2.185
84217W        W52446  44.581  41.460   2.424
84218W        W52447  42.564  19.969   1.914
84219W        W52448   6.837  16.140  11.943
84220W        W52449   9.945   6.344   1.796
84221W        W52450   3.712  22.091  11.969
84222W        W52451   2.060  12.243   4.717
84223W        W52452  11.330  32.437   2.763
84224W        W52453  14.086  36.694   1.641
84225W        W52454  25.936   3.859  14.842
84226W        W52455  18.374  39.734  13.499
84227W        W52456   4.733  13.667   2.243
84228W        W52457   5.768  20.917  14.509
84229W        W52458  37.109   5.359  12.079
84230W        W52459  26.556  28.185   1.889
84231W        W52460  29.435   6.928  13.018
84232W        W52461   9.624  23.588  14.223
84233W        W52462  27.831  26.717   1.322
84234W        W52463   2.458  38.077  10.435
84235W        W52464  11.695  17.529   2.214
84236W        W52465   2.467  12.096   0.165
84237W        W52466  13.318  27.927  14.617
84238W        W52467   5.989  36.760  12.506
84239W        W52468   4.549  22.092   2.544
84240W        W52469  16.351  29.955   1.215
84241W        W52470  27.767  44.783   1.468
84242W        W52471  10.305  22.622   0.890
84243W        W52472   2.077   0.455   0.714
84244W        W52473  26.221   9.322   3.038
84245W        W52474  11.194  17.284  13.126
84246W        W52475  32.902   9.667   4.832
84247W        W52476  14.969   2.408  13.762
84248W        W52477  35.030  18.280  10.698
84249W        W52478   7.421  26.997  12.189
84250W        W52479  32.403  34.194  12.422
84251W        W52480   5.203   6.990   2.275
84252W        W52481   4.723  33.010   3.021
84253W        W52482   0.589  27.999   2.332
84254W        W52483   1.008  17.329   2.707
84255W        W52484  19.274  12.666   4.386
84256W        W52485  43.072  19.539  13.344
84257W        W52486   9.190  18.180  13.952
84258W        W52487  40.568  32.825   0.864
84259W        W52488  34.381   9.516   0.323
84260W        W52489  42.877  22.683   4.146
84261W        W52490  11.438  44.502  11.060
84262W        W52491   0.154  43.204  13.520
84263W        W52492   6.906  11.720  14.400
84264W        W52493  17.944  18.473  14.307
84265W        W52494  24.542   1.465  11.724
84266W        W52495  19.727   6.027  13.461
84267W        W52496  12.621   7.591   1.284
84268W        W52497  28.898  23.674   2.669
84269W        W52498  22.185  30.381   1.705
84270W        W52499  19.194  33.329   2.826
84271W        W52500   2.644  27.668  14.807
84272W        W52501   5.080  20.521  14.901
84273W        W52502  41.523  14.117  14.871
84274W        W52503  10.286  15.761  14.296
84275W        W52504   1.760   4.939   2.745
84276W        W52505  21.664  33.791   5.428
84277W        W52506  10.630  19.319   2.348
84278W        W52507  21.995  39.863   1.022
84279W        W52508  35.584  39.299  12.482
84280W        W52509  32.314   3.596   5.079
84281W        W52510   1.010   0.885  10.390
84282W        W52511  15.790   0.057  12.916
84283W        W52512  14.750  14.425   3.111
84284W        W52513  41.942  15.841   1.333
84285W        W52514   9.189  30.264  12.540
84286W        W52515  34.091  41.640  14.676
84287W        W52516  12.719   8.681  13.472
84288W        W52517   0.333   6.824  14.037
84289W        W52518  23.296  21.479  12.465
84290W        W52519  18.202  25.008   3.229
84291W        W52520  28.136  30.903  12.897
84292W        W52521   8.105  32.443   4.607
84293W        W52522  30.240   8.856   0.899
84294W        W52523   2.923  19.669  12.401
84295W        W52524  25.248  19.836  14.875
84296W        W52525  31.924  29.656  14.820
84297W        W52526   4.314  20.528   1.675
84298W        W52527   6.162   7.667   4.251
84299W        W52528   6.921  42.713   3.622
84300W        W52529  29.464   4.284  10.680
84301W        W52530  10.342  10.130   0.766
84302W        W52531  43.321  44.926   1.426
84303W        W52532  26.000   4.743  12.385
84304W        W52533  31.090  26.891   0.716
84305W        W52534  27.033   1.553   3.945
84306W        W52535  10.880  17.280  12.324
84307W        W52536  16.356   5.299  10.791
84308W        W52537  42.619  17.941  11.415
84309W        W52538  22.627  30.086   0.975
84310W        W52539  31.122  44.879   0.356
84311W        W52540   9.447  10.659   1.417
84312W        W52541  13.426   4.708   0.340
84313W        W52542  36.111  31.523   0.449
84314W        W52543  30.010  15.632   2.349
84315W        W52544  39.098  14.134  13.933
84316W        W52545  25.325  27.474   4.678
84317W        W52546  22.136  42.416   4.515
84318W        W52547  41.566   9.164   3.223
84319W        W52548   0.870  23.008  13.034
84320W        W52549  40.872  36.919   2.681
84321W        W52550  28.104  16.162  12.985
84322W        W52551  41.292  25.136  12.913
84323W        W52552  31.567  39.497  14.772
84324W        W52553  33.009  33.112  14.944
84325W        W52554  28.414  24.221  11.200
84326W        W52555   9.145  44.640   3.880
84327W        W52556  34.889   2.871  12.985
84328W        W52557  32.638  31.331  13.474
84329W        W52558  42.058  29.382  12.991
84330W        W52559  24.167   9.334  11.602
84331W        W52560  10.645  32.883   1.765
84332W        W52561  17.239   2.931   1.464
84333W        W52562   6.286  29.152   2.111
84334W        W52563  25.358  19.223  13.371
84335W        W52564  12.895  15.825  11.031
84336W        W52565  26.036  16.147   2.685
84337W        W52566  28.323   9.575  11.977
84338W        W52567  20.358  11.176  13.872
84339W        W52568  28.898  36.250  11.446
84340W        W52569   1.386  39.317  14.804
84341W        W52570  26.166   5.858  12.975
84342W        W52571  29.996  17.662  11.393
84343W        W52572  23.202  40.999   3.074
84344W        W52573  20.547  12.693   2.134
84345W        W52574  17.302  31.926  11.619
84346W        W52575  41.965  19.290   0.264
84347W        W52576  42.723  21.110  10.971
84348W        W52577  44.020  44.308   0.403
84349W        W52578  43.405  28.200  11.530
84350W        W52579   4.292  14.254  11.191
84351W        W52580   2.753  13.826  12.622
84352W        W52581  31.901  35.063   1.764
84353W        W52582   5.986  21.063   1.983
84354W        W52583   5.395  25.100  11.920
84355W        W52584  14.778   6.035  10.213
84356W        W52585  41.785  39.505   3.183
84357W        W52586   7.403  40.895   3.675
84358W        W52587  33.825  20.669  12.564
84359W        W52588   8.615  39.122  13.276
84360W        W52589  18.231  26.763  13.514
84361W        W52590   9.282  36.538   4.485
84362W        W52591  42.042  29.569  11.652
84363W        W52592  35.826  32.116   9.660
84364W        W52593  31.391  22.394  14.260
84365W        W52594   0.801  42.845   3.371
84366W        W52595  27.051   6.970   4.011
84367W        W52596  38.310  31.047  14.893
84368W        W52597   2.301  30.869   1.402
84369W        W52598  10.288  37.908   4.307
84370W        W52599  18.728  23.747  11.105
84371W        W52600  16.655  33.474  11.859
84372W        W52601  33.096  31.544   3.640
84373W        W52602  38.457  31.441  11.096
84374W        W52603  30.651  34.060   0.415
84375W        W52604  36.172   9.758  13.498
84376W        W52605  32.866   8.725   2.715
84377W        W52606  13.836  17.263  12.769
84378W        W52607   8.917  25.573  12.689
84379W        W52608   7.275  26.064  10.774
84380W        W52609  27.058  25.230   4.592
84381W        W52610  36.601  34.103   0.243
84382W        W52611  17.021  37.087   1.902
84383W        W52612  38.107  39.464   0.852
84384W        W52613  22.660  18.186  11.135
84385W        W52614  24.188   2.632  11.207
84386W        W52615  15.267  12.745   4.667
84387W        W52616  29.490  15.299   2.773
84388W        W52617  40.459   8.242  13.571
84389W        W52618  39.075   6.219   3.848
84390W        W52619  22.724  10.515  12.046
84391W        W52620  23.638  36.341   1.303
84392W        W52621  33.924  25.784   3.606
84393W        W52622  31.919   3.444   3.840
84394W        W52623  42.031  33.167   1.837
84395W        W52624  29.953  23.410  13.900
84396W        W52625  39.390   3.724  11.465
84397W        W52626  44.504  19.254  10.907
84398W        W52627  21.080  29.170  14.430
84399W        W52628  10.976  11.838   3.354
84400W        W52629  19.016  42.739  10.809
84401W        W52630  42.528  12.708  13.621
84402W        W52631  11.363  15.838   3.586
84403W        W52632   6.454   7.383  11.733
84404W        W52633  40.785  35.050  12.567
84405W        W52634  33.405  11.467   4.422
84406W        W52635  12.787   6.725  12.703
84407W        W52636  12.226  22.012  13.526
84408W        W52637  19.886  19.658   1.198
84409W        W52638  13.557  13.756  14.899
84410W        W52639   0.612  44.714  10.672
84411W        W52640  35.984  40.566   1.609
84412W        W52641  30.658  14.371  13.476
84413W        W52642  27.040  23.644   0.249
84414W        W52643  34.931  40.428  11.180
84415W        W52644  44.977   1.881   3.691
84416W        W52645  39.918  26.349  14.534
84417W        W52646  14.589  14.674   0.840
84418W        W52647  21.210   8.858   3.745
84419W        W52648  27.061   7.582  11.709
84420W        W52649   6.868   6.838  12.642
84421W        W52650  17.790   6.140  11.740
84422W        W52651  17.597  13.865  11.589
84423W        W52652   3.863  12.620   5.134
84424W        W52653  14.998  14.411  12.991
84425W        W52654   1.243  26.408   0.826
84426W        W52655  27.434  20.747  13.404
84427W        W52656   7.825  36.873   4.079
84428W        W52657  27.207  37.862  14.968
84429W        W52658   0.696  27.909  10.857
84430W        W52659  44.281  30.702  11.463
84431W        W52660  25.071  26.770  14.561
84432W        W52661  17.751  31.389  12.850
84433W        W52662  25.599   7.041  13.889
84434W        W52663  24.261   7.873  13.869
84435W        W52664  17.226  27.698  10.704
84436W        W52665  21.775  43.895  13.896
84437W        W52666  23.458  14.989   4.991
84438W        W52667  32.712  39.976  11.853
84439W        W52668  43.304  30.179   1.781
84440W        W52669  44.158  35.339  12.994
84441W        W52670  15.043  22.311   0.352
84442W        W52671  35.362  28.142   4.109
84443W        W52672  11.797  32.487  14.334
84444W        W52673  35.769  28.987  10.278
84445W        W52674  38.608   1.449   4.011
84446W        W52675  33.738   2.957  12.582
84447W        W52676  10.172  20.481   2.935
84448W        W52677   8.222  39.013  14.077
84449W        W52678  30.094  27.754  12.923
84450W        W52679  37.490  12.678  13.097
84451W        W52680   4.815  25.550   2.399
84452W        W52681  16.295  24.880  11.156
84453W        W52682  14.378  39.118  12.445
84454W        W52683  36.532  16.743   4.331
84455W        W52684  43.738  31.439  12.019
84456W        W52685  28.541  36.103   4.088
84457W        W52686  42.777  32.154  13.560
84458W        W52687   4.326  37.898   2.134
84459W        W52688  14.872  14.138  13.871
84460W        W52689  33.876  11.193   0.483
84461W        W52690  33.837  11.208   1.799
84462W        W52691  38.129  41.196   1.904
84463W        W52692  31.924  33.985   2.769
84464W        W52693  28.212  33.382   2.379
84465W        W52694  21.166   6.519   3.763
84466W        W52695   5.280  34.817  13.069
84467W        W52696   1.747  17.024   0.700
84468W        W52697  17.004  43.110  14.717
84469W        W52698  10.823  42.510   2.865
84470W        W52699  27.415   4.177  12.991
84471W        W52700  15.688  35.885  11.915
84472W        W52701  43.955  16.469  13.617
84473W        W52702   6.850  18.676  11.153
84474W        W52703  26.686  14.805  13.395
84475W        W52704  41.702  12.260  11.744
84476W        W52705  35.359  25.467   4.555
84477W        W52706  13.338  15.599  14.209
84478W        W52707   1.403  29.061  13.448
84479W        W52708  42.760  35.841  13.747
84480W        W52709  27.083   9.733   3.360
84481W        W52710  31.134  14.296  13.278
84482W        W52711  10.326  19.859  14.792
84483W        W52712   0.727   1.466   4.075
84484W        W52713  18.158   0.750   4.052
84485W        W52714   1.325  32.825  13.836
84486W        W52715  26.601  20.002   1.479
84487W        W52716  25.549  43.527  11.210
84488W        W52717  14.185   3.736   0.023
84489W        W52718   1.224  13.740   2.720
84490W        W52719  40.269  38.356  11.648
84491W        W52720  29.027  35.087  10.579
84492W        W52721  39.672  32.202  13.503
84493W        W52722  14.540   3.633   3.698
84494W        W52723  32.437   1.848  10.982
84495W        W52724   3.854  25.413   3.108
84496W        W52725  33.933  19.798  12.201
84497W        W52726  41.350  41.232  11.666
84498W        W52727   3.756  33.899   2.762
84499W        W52728  38.537  15.330  14.093
84500W        W52729  34.127  24.415   3.288
84501W        W52730  33.166  18.626   3.187
84502W        W52731  19.198  18.693  14.882
84503W        W52732   3.951  20.671  13.940
84504W        W52733  32.513  28.750  11.608
84505W        W52734   0.392  24.810  12.067
84506W        W52735  26.182  31.043   0.779
84507W        W52736  15.435   1.080  11.852
84508W        W52737  27.566  42.063   0.405
84509W        W52738  38.820  35.256  11.309
84510W        W52739  31.958  14.960   9.534
84511W        W52740   7.145   2.008   4.184
84512W        W52741  23.748   0.653  12.345
84513W        W52742  28.481  23.953   2.542
84514W        W52743  33.517   6.046   2.824
84515W        W52744  27.578  42.355   3.693
84516W        W52745  22.710   5.299   1.263
84517W        W52746  23.118  22.486  14.916
84518W        W52747  29.992  32.595  13.096
84519W        W52748  15.192  17.701  12.033
84520W        W52749  18.231  28.701   2.194
84521W        W52750  28.013  31.880  14.117
84522W        W52751  32.074  22.775  10.638
84523W        W52752  16.807  22.742   2.807
84524W        W52753  35.264   0.781  11.115
84525W        W52754  34.357   9.869   3.660
84526W        W52755  28.218  12.900  14.052
84527W        W52756  25.948  14.850   4.052
84528W        W52757  23.184  17.196   3.171
84529W        W52758  13.160  19.793  10.460
84530W        W52759  22.692  41.486  10.689
84531W        W52760  37.725  30.141   0.877
84532W        W52761  40.170  16.028   4.104
84533W        W52762  25.704   2.893  14.850
84534W        W52763   9.368   2.022   1.436
84535W        W52764  22.523  44.683  11.293
84536W        W52765  26.438  40.328   0.847
84537W        W52766  32.228  10.936   2.918
84538W        W52767  32.496  41.290   4.469
84539W        W52768  43.739  40.931  11.142
84540W        W52769  22.782   0.579  10.058
84541W        W52770  40.893  22.647  14.235
84542W        W52771  14.838  43.520  12.924
84543W        W52772  33.695   8.465   0.724
84544W        W52773   4.195  27.484  12.819
84545W        W52774  20.491  36.538  11.173
84546W        W52775  17.580   5.937   0.764
84547W        W52776  30.110  12.294  11.704
84548W        W52777  13.613   3.042  13.823
84549W        W52778  38.587  22.501  12.863
84550W        W52779  11.068  33.200   1.712
84551W        W52780  16.454   0.227   0.239
84552W        W52781  13.085  18.300   0.856
84553W        W52782   4.356  21.283  13.374
84554W        W52783  34.872  31.971  11.135
84555W        W52784  19.676  30.177   3.895
84556W        W52785  22.353  12.364   2.626
84557W        W52786  20.273   6.927   1.350
84558W        W52787  30.968  37.368  13.339
84559W        W52788  42.890   7.388   3.819
84560W        W52789  25.599   2.829   1.812
84561W        W52790  22.559  33.198   1.400
84562W        W52791  19.126   4.195  12.096
84563W        W52792  30.850  11.998   3.377
84564W        W52793  24.022  22.915  11.173
84565W        W52794   7.242  10.833  14.289
84566W        W52795   7.660  28.658   3.854
84567W        W52796  12.409  24.226   4.154
84568W        W52797  16.342  41.821  11.636
84569W        W52798   3.697   9.758  12.451
84570W        W52799  39.036   9.245  13.039
84571W        W52800  34.959  12.231  13.829
84572W        W52801   0.761   5.785   2.230
84573W        W52802  20.585  44.335   1.701
84574W        W52803  27.232   8.516   4.034
84575W        W52804  36.822  36.785  14.047
84576W        W52805   1.164  33.915  12.043
84577W        W52806   2.853  13.228  10.984
84578W        W52807  11.864  14.015   4.258
84579W        W52808  18.634  29.873  12.415
84580W        W52809  21.882  16.767  12.345
84581W        W52810  37.432  42.917  11.235
84582W        W52811   9.601  14.126   1.316
84583W        W52812  31.631   9.786  13.467
84584W        W52813   2.438  43.862  13.947
84585W        W52814  13.315   6.191   1.380
84586W        W52815   3.929  19.187  14.996
84587W        W52816  32.978  39.044   2.376
84588W        W52817  18.493   2.023   3.311
84589W        W52818   8.644  28.117  10.757
84590W        W52819  12.148  12.149   1.837
84591W        W52820  24.450  21.096   1.659
84592W        W52821  11.799  28.438   4.835
84593W        W52822  43.809  41.924   4.453
84594W        W52823  17.651   0.025   1.262
84595W        W52824  22.228  15.274   2.775
84596W        W52825  13.291  24.876  13.697
84597W        W52826  23.904  36.387  11.488
84598W        W52827   9.091  17.552  10.753
84599W        W52828  20.464  23.101  11.112
84600W        W52829   1.280  25.972  14.926
84601W        W52830  27.011  16.012  13.395
84602W        W52831   9.894   1.258   0.351
84603W        W52832   7.993   1.673  10.757
84604W        W52833  21.680  10.183  12.976
84605W        W52834  11.611  28.154  11.002
84606W        W52835  43.068  30.473  10.734
84607W        W52836   4.227   3.420  10.691
84608W        W52837  37.213  40.885   1.575
84609W        W52838  36.089  22.017   1.909
84610W        W52839   6.710  37.844  13.926
84611W        W52840  12.746  21.149   4.246
84612W        W52841  33.504  41.197   4.041
84613W        W52842  21.726  33.476  13.114
84614W        W52843  39.068   7.495  14.883
84615W        W52844  30.543  16.429  12.897
84616W        W52845   6.730  39.612   3.178
84617W        W52846   8.177  38.489   0.972
84618W        W52847  37.093  44.001   2.640
84619W        W52848  32.566  35.041  12.787
84620W        W52849  44.019  13.862  11.111
84621W        W52850  34.562  10.168   1.108
84622W        W52851   3.469   6.825  12.902
84623W        W52852  14.206  30.545  10.995
84624W        W52853   6.941   9.628   2.203
84625W        W52854   0.449   4.948   1.006
84626W        W52855  18.457  40.498  11.942
84627W        W52856   9.068  27.290   0.442
84628W        W52857  41.322   1.050   0.321
84629W        W52858  44.311   4.285   2.149
84630W        W52859  43.232   6.794   4.922
84631W        W52860  10.889  29.355   0.284
84632W        W52861  18.444  12.868   0.626
84633W        W52862   2.971  38.123  11.109
84634W        W52863  36.367  38.007   0.695
84635W        W52864  25.068  12.070   2.558
84636W        W52865  43.722  28.753   0.184
84637W        W52866  19.804  19.288   0.407
84638W        W52867  41.490  43.781  10.713
84639W        W52868   5.899   2.470  10.859
84640W        W52869  44.270  25.768   2.720
84641W        W52870  34.889  22.742   2.641
84642W        W52871  37.994  18.134   0.356
84643W        W52872  30.618  37.957  10.674
84644W        W52873  20.584  13.681   1.712
84645W        W52874   9.946  44.899  13.427
84646W        W52875   5.207   6.385   3.142
84647W        W52876  21.187  16.563   0.862
84648W        W52877  27.522  18.534   0.116
84649W        W52878  20.784  38.908   4.157
84650W        W52879  25.907   9.744  13.497
84651W        W52880  19.018  24.027   2.150
84652W        W52881  25.997  42.862   1.588
84653W        W52882  16.327  35.840   3.611
84654W        W52883  29.001  33.227  10.504
84655W        W52884  24.327  19.282  12.090
84656W        W52885  17.611  26.694   3.646
84657W        W52886  35.325  43.298   0.769
84658W        W52887   7.278  38.590   2.160
84659W        W52888  12.532  10.206   1.222
84660W        W52889   2.399   7.241  12.440
84661W        W52890   1.293  44.369  11.942
84662W        W52891  29.654  11.258  11.973
84663W        W52892   1.950  33.230   4.054
84664W        W52893  39.061  28.925   2.345
84665W        W52894  15.135  34.082   0.820
84666W        W52895  16.351  13.688  13.136
84667W        W52896  21.418  29.686  10.753
84668W        W52897  34.958   6.378  14.875
84669W        W52898  24.254   8.379  14.072
84670W        W52899   6.756  41.875  13.092
84671W        W52900  29.645  18.082  12.521
84672W        W52901  29.259   4.370   3.252
84673W        W52902  44.901  41.971  10.609
84674W        W52903  25.303  15.073   0.202
84675W        W52904  35.075  10.656  11.400
84676W        W52905  27.348  24.851   2.357
84677W        W52906  31.166  31.074   4.056
84678W        W52907  30.038  26.636   1.697
84679W        W52908  19.625  37.574  13.312
84680W        W52909  19.156  17.555   0.846
84681W        W52910  38.796  23.200   0.834
84682W        W52911  38.987  37.744  13.470
84683W        W52912   8.376  32.661   1.911
84684W        W52913  27.183  34.963   2.275
84685W        W52914  33.222  31.675  12.944
84686W        W52915   3.931   5.645   1.855
84687W        W52916  20.480   1.004   3.683
84688W        W52917   9.621  14.049  12.967
84689W        W52918  28.889  36.244  13.062
84690W        W52919  18.338  31.633   3.703
84691W        W52920  17.833  43.042  12.608
84692W        W52921   5.327  24.651  13.419
84693W        W52922  32.672  40.047   1.614
84694W        W52923  28.825  44.393  12.941
84695W        W52924   9.406  10.346  14.505
84696W        W52925  33.114  38.610  10.733
84697W        W52926  25.681  16.083   1.334
84698W        W52927  18.772   3.313  11.026
84699W        W52928  32.690  42.897   0.416
84700W        W52929  32.535  11.639  12.599
84701W        W52930  37.558  25.154   3.049
84702W        W52931   1.446   1.346   4.523
84703W        W52932  26.923  40.253   3.195
84704W        W52933  23.950   2.002   0.422
84705W        W52934  27.555  39.394   3.169
84706W        W52935   7.927  27.694   3.187
84707W        W52936  24.181  17.638  11.654
84708W        W52937  14.783  25.856   0.601
84709W        W52938   2.227  38.721   1.690
84710W        W52939   4.300   0.459  13.554
84711W        W52940  42.637   6.313   0.818
84712W        W52941   6.279  42.801  12.093
84713W        W52942   5.594  10.687  12.478
84714W        W52943  30.465  19.419  13.906
84715W        W52944  20.360  21.463   4.595
84716W        W52945  39.989  11.382   0.443
84717W        W52946   7.792  32.765  10.770
84718W        W52947  18.430  14.923  11.218
84719W        W52948  24.716  32.384   1.860
84720W        W52949   9.592  43.435  14.787
84721W        W52950  20.837   6.199  14.517
84722W        W52951  32.189  24.674  14.501
84723W        W52952  42.700   5.836   1.852
84724W        W52953  44.816  43.773   0.810
84725W        W52954  29.154  11.356  14.346
84726W        W52955   9.216   6.948  12.991
84727W        W52956  25.030  22.614  10.844
84728W        W52957  12.908  34.149  13.034
84729W        W52958   5.855  25.481   1.932
84730W        W52959  16.092  38.259  10.899
84731W        W52960  16.285  23.576   2.193
84732W        W52961   7.750   9.162   1.047
84733W        W52962  12.968   2.806   1.933
84734W        W52963  12.395  31.467  12.041
84735W        W52964  21.250  40.506   1.560
84736W        W52965  42.906   0.967  13.394
84737W        W52966  18.230  13.856   4.548
84738W        W52967   2.922  38.034   3.735
84739W        W52968   0.835  35.433  12.375
84740W        W52969  29.741  44.580   4.685
84741W        W52970  39.491  21.223   1.691
84742W        W52971   9.277  17.696   3.597
84743W        W52972  23.460  38.630   3.773
84744W        W52973   9.738  11.991  13.324
84745W        W52974  15.643  11.087   4.223
84746W        W52975  36.132  32.350   0.839
84747W        W52976  42.750  42.776  13.052
84748W        W52977  20.155  40.745  11.674
84749W        W52978  18.047  20.988   3.723
84750W        W52979  21.239  32.060  14.528
84751W        W52980  10.385  36.353   4.588
84752W        W52981  24.234  35.536   3.130
84753W        W52982  27.715   8.774   2.190
84754W        W52983   2.842  43.559   0.324
84755W        W52984  22.601  38.162   1.720
84756W        W52985  15.813  30.353   0.457
84757W        W52986   3.753  42.399   4.319
84758W        W52987  29.145  26.092  14.431
84759W        W52988   2.226  39.942  11.979
84760W        W52989  16.875  34.346  13.812
84761W        W52990   8.714   7.949  11.623
84762W        W52991  35.706   3.740  12.702
84763W        W52992  40.727  18.494  11.142
84764W        W52993  15.266  40.461  13.515
84765W        W52994  36.302   5.500  12.388
84766W        W52995   2.497  33.812  10.794
84767W        W52996  23.065  41.759  13.926
84768W        W52997  36.204  11.298  13.948
84769W        W52998  13.870  42.263  11.054
84770W        W52999  40.777  23.671  11.116
84771W        W53000   2.344  19.543   3.836
84772W        W53001   4.392   4.814   0.445
84773W        W53002  40.314   2.642   0.721
84774W        W53003  21.793   3.436   0.743
84775W        W53004  37.567   9.940   5.034
84776W        W53005  10.638  30.043   2.359
84777W        W53006  28.045   9.425   4.756
84778W        W53007  32.956  38.599  11.211
84779W        W53008  42.615  23.031  13.983
84780W        W53009  34.319  32.658   4.103
84781W        W53010  44.813   1.591  10.726
84782W        W53011  27.612  43.295  11.776
84783W        W53012   2.236  21.675  13.028
84784W        W53013  36.168  35.910  11.526
84785W        W53014  42.417  11.787   4.524
84786W        W53015  23.118  37.020   4.456
84787W        W53016  14.212  23.020   3.690
84788W        W53017   1.796  26.189  11.264
84789W        W53018  30.951   1.858  12.444
84790W        W53019  33.051   0.025   1.368
84791W        W53020  44.791   7.612  14.078
84792W        W53021  43.750  12.362  14.509
84793W        W53022  11.906  32.813   0.674
84794W        W53023   0.256  27.678  11.332
84795W        W53024  15.048   0.936   4.536
84796W        W53025  18.141  27.874   2.706
84797W        W53026  20.584  30.848  11.180
84798W        W53027  30.226  26.541  11.443
84799W        W53028  24.505  14.723   3.269
84800W        W53029  12.525  42.576   5.089
84801W        W53030  10.702  35.920  13.531
84802W        W53031  16.308   9.633   4.585
84803W        W53032  13.624  10.584   4.718
84804W        W53033  10.923  16.952   0.054
84805W        W53034  36.180   5.786   2.701
84806W        W53035   4.429  11.720   2.111
84807W        W53036  37.803  34.561   3.761
84808W        W53037  23.199  24.563   2.367
84809W        W53038  41.348   0.799   2.313
84810W        W53039  24.228   9.340  12.937
84811W        W53040  27.546  27.915  12.445
84812W        W53041  36.335   9.734  12.081
84813W        W53042  15.341  11.405   1.858
84814W        W53043  11.137  12.115   1.855
84815W        W53044  32.990  32.081   3.360
84816W        W53045  43.386  31.566   0.439
84817W        W53046  14.425  39.864  12.646
84818W        W53047  33.207  40.133   4.951
84819W        W53048  17.705  21.076   2.308
84820W        W53049  41.917  11.272   4.248
84821W        W53050   0.889  16.508   1.714
84822W        W53051  32.386  16.095   0.473
84823W        W53052  15.687  26.630   4.542
84824W        W53053  16.178   9.610  14.495
84825W        W53054  32.113  29.368   0.278
84826W        W53055  17.558  13.342  11.452
84827W        W53056  39.401  33.171  13.845
84828W        W53057  12.348   7.761   3.187
84829W        W53058  35.859  11.198   1.241
84830W        W53059  30.128  44.545  11.985
84831W        W53060  40.933  24.754  12.858
84832W        W53061  16.528  11.828  10.661
84833W        W53062  13.249  29.483   3.444
84834W        W53063  42.907   8.895   3.796
84835W        W53064  12.360  40.593  12.536
84836W        W53065  44.885  29.197  11.064
84837W        W53066  30.224  41.405  10.911
84838W        W53067  32.609  21.746   3.802
84839W        W53068   2.854  31.819   2.816
84840W        W53069  30.960   4.878  14.600
84841W        W53070   9.155  32.993  14.532
84842W        W53071  43.792  30.655  14.410
84843W        W53072  34.430  35.607   1.596
84844W        W53073  44.228  13.696   4.696
84845W        W53074  25.701  42.497   1.392
84846W        W53075  27.532   3.787   4.219
84847W        W53076  32.112  25.770   0.313
84848W        W53077  39.052  36.981  11.464
84849W        W53078  13.832  36.410  11.473
84850W        W53079   2.737  35.963  12.821
84851W        W53080   7.520  20.170   2.745
84852W        W53081   6.219  35.674   2.728
84853W        W53082  43.739  20.671   4.341
84854W        W53083  34.589  41.155   1.039
84855W        W53084  33.888   6.331  11.058
84856W        W53085  19.446   8.386   4.579
84857W        W53086  15.162  42.718  11.660
84858W        W53087  26.127  13.646  11.513
84859W        W53088  41.335  34.095   3.706
84860W        W53089  16.644  39.082  11.614
84861W        W53090   1.542  19.846   1.754
84862W        W53091  40.304  26.447   3.092
84863W        W53092  11.926  42.511  14.381
84864W        W53093   5.252  25.208   2.754
84865W        W53094  24.948  42.998   4.618
84866W        W53095  11.785  33.634   2.226
84867W        W53096  15.337   0.590  11.147
84868W        W53097  41.340   8.538  11.459
84869W        W53098  29.925  19.079   1.363
84870W        W53099  19.033  29.134   2.632
84871W        W53100   2.395  29.902  12.363
84872W        W53101  29.654  31.412   0.516
84873W        W53102  15.167  23.242  14.418
84874W        W53103   1.983  43.753   0.305
84875W        W53104  39.407   1.317  12.449
84876W        W53105  44.737  31.725   2.903
84877W        W53106  41.954   9.774   4.218
84878W        W53107  15.110  24.088  10.872
84879W        W53108   2.821  18.272  12.296
84880W        W53109  35.430  36.814  10.810
84881W        W53110  24.987  19.712   0.321
84882W        W53111  20.763  32.663   9.817
84883W        W53112  33.432  38.107  14.027
84884W        W53113  31.195   8.213   2.228
84885W        W53114  20.118  23.980  13.915
84886W        W53115  28.994  15.223  13.696
84887W        W53116   0.327   4.989  13.077
84888W        W53117  34.894  29.801   0.613
84889W        W53118  12.913   9.850  13.082
84890W        W53119  15.763  27.510  12.811
84891W        W53120  13.237  17.771  10.315
84892W        W53121  44.337  36.888   4.437
84893W        W53122  26.835   9.414  13.790
84894W        W53123   3.116  19.978   4.035
84895W        W53124  35.941   4.280  14.897
84896W        W53125  25.731   2.289  14.320
84897W        W53126  25.521  26.686  13.550
84898W        W53127   8.755  40.611  13.498
84899W        W53128  34.387  24.658   1.965
84900W        W53129  41.470  21.833  11.139
84901W        W53130  30.374   9.918   2.331
84902W        W53131  34.189  28.297  11.044
84903W        W53132  24.991  29.577   4.540
84904W        W53133  19.172  17.731   1.380
84905W        W53134   6.770   5.327   1.589
84906W        W53135   7.155   6.152  13.467
84907W        W53136  25.184  35.337  14.277
84908W        W53137  23.609  24.626  11.928
84909W        W53138  27.659  21.955   1.757
84910W        W53139  44.046  35.393   2.425
84911W        W53140  43.709   1.697   0.488
84912W        W53141   5.381  44.375   4.375
84913W        W53142   4.379  37.955  13.797
84914W        W53143  26.722   4.162  12.446
84915W        W53144  32.594   3.684   3.293
84916W        W53145  31.952  44.473   2.382
84917W        W53146  20.610  23.775   0.240
84918W        W53147   4.989  17.836   2.716
84919W        W53148  25.473  39.571  11.208
84920W        W53149  24.436  40.548   2.289
84921W        W53150  23.609  33.355   4.103
84922W        W53151  22.074  20.339   1.169
84923W        W53152   4.342  21.174   9.889
84924W        W53153  37.605  42.433   0.507
84925W        W53154   9.765  18.797  12.022
84926W        W53155  24.241   6.484   0.365
84927W        W53156  41.526  15.796  11.203
84928W        W53157   8.946   6.195   4.989
84929W        W53158   9.917  22.698   1.748
84930W        W53159   6.067  11.489   3.992
84931W        W53160  17.758  30.830   4.688
84932W        W53161  22.340  37.976  10.453
84933W        W53162  40.668  27.923   3.363
84934W        W53163  42.526   7.171   1.427
84935W        W53164  34.396  18.350  11.191
84936W        W53165  15.296  28.420   3.743
84937W        W53166   5.231  39.125  12.950
84938W        W53167  12.147   8.915  10.190
84939W        W53168  31.830   3.285   2.953
84940W        W53169  10.815  14.667  11.776
84941W        W53170  12.493  10.561  11.191
84942W        W53171   0.987  30.380   1.639
84943W        W53172   5.333   5.788   4.370
84944W        W53173   5.852  30.872  14.212
84945W        W53174   6.290   6.271   3.633
84946W        W53175  33.859  22.631   1.807
84947W        W53176  25.732  37.377  10.079
84948W        W53177  42.915  38.046  13.285
84949W        W53178  40.524  39.260   0.422
84950W        W53179  29.645  15.802  10.255
84951W        W53180   8.829  28.896   2.408
84952W        W53181  42.954  28.873  13.052
84953W        W53182  28.672  34.534  14.452
84954W        W53183   1.928   1.313   3.257
84955W        W53184  19.970  41.910  14.403
84956W        W53185  25.205  19.358   3.771
84957W        W53186  16.305   3.767  11.564
84958W        W53187  25.871  37.920  11.228
84959W        W53188  43.081  17.548   4.562
84960W        W53189  42.004  25.636  12.349
84961W        W53190   9.266  39.309  12.345
84962W        W53191  21.240   2.150  13.885
84963W        W53192  32.946  22.120   4.167
84964W        W53193  10.149  12.224  13.582
84965W        W53194  31.474   4.228  11.918
84966W        W53195  29.652  37.525  13.879
84967W        W53196  15.925  35.460   3.682
84968W        W53197   9.584  43.349  10.626
84969W        W53198   7.725  19.366  11.597
84970W        W53199  42.177   6.517  13.974
84971W        W53200  21.335  32.123  10.729
84972W        W53201  10.383  41.839   3.504
84973W        W53202  44.917  38.238  10.930
84974W        W53203  39.032  19.158  13.853
84975W        W53204   8.951  42.287  14.061
84976W        W53205  34.142   1.496   4.280
84977W        W53206  44.323  27.042  12.674
84978W        W53207  35.798  11.230  14.797
84979W        W53208  32.056   3.601   0.892
84980W        W53209   2.747  44.869   3.715
84981W        W53210  38.083   6.956  13.199
84982W        W53211  36.550  14.384  10.550
84983W        W53212  35.808  30.580   1.921
84984W        W53213  20.166  30.568  11.037
84985W        W53214   2.705  38.573  11.133
84986W        W53215  24.192  39.078  10.997
84987W        W53216  40.589  24.518  13.158
84988W        W53217  27.420  39.509   2.174
84989W        W53218  12.359  12.247   2.828
84990W        W53219  21.542  38.343  13.591
84991W        W53220  20.754  40.097   2.340
84992W        W53221  11.760  18.158  13.035
84993W        W53222   0.300   4.244   3.589
84994W        W53223  32.095  25.498  13.919
84995W        W53224   2.207  39.277  10.708
84996W        W53225  38.259  15.089   0.296
84997W        W53226   1.644  42.952   4.402
84998W        W53227   9.378  16.629  13.990
84999W        W53228  37.303  29.007   4.177
85000W        W53229  19.750   1.439  10.779
85001W        W53230  44.233  13.288   4.146
85002W        W53231  21.257  20.669  14.006
85003W        W53232  30.533  10.747  14.363
85004W        W53233   5.039  23.909  10.050
85005W        W53234  10.815  30.859   2.150
85006W        W53235   1.165  30.039  12.979
85007W        W53236  11.445   2.638   1.614
85008W        W53237   3.811  40.817   3.247
85009W        W53238  35.100  16.216   4.391
85010W        W53239  33.177  36.043   3.214
85011W        W53240   7.960   6.231  12.063
85012W        W53241  12.404  40.268   4.755
85013W        W53242  31.638   1.286  12.271
85014W        W53243  41.555  42.980   1.837
85015W        W53244  30.454   8.260  11.082
85016W        W53245  10.548  18.058   2.360
85017W        W53246   3.501  22.530   4.570
85018W        W53247  42.786  39.786  11.620
85019W        W53248  23.823   5.750   2.238
85020W        W53249   3.141  24.609   4.055
85021W        W53250  13.183   9.848  10.390
85022W        W53251  26.453  40.341  10.324
85023W        W53252  16.886  11.567   4.073
85024W        W53253  44.298  21.478   0.056
85025W        W53254  36.002  41.453   4.580
85026W        W53255  22.125  36.561  14.812
85027W        W53256   8.393  11.267   4.512
85028W        W53257  34.395  19.320   3.960
85029W        W53258  22.759  13.670   4.651
85030W        W53259   8.636  18.126   1.670
85031W        W53260   6.441   5.167   1.216
85032W        W53261   0.835  11.355  11.003
85033W        W53262  42.821  17.978   1.931
85034W        W53263   1.288   7.264   0.248
85035W        W53264  13.607  41.956   1.670
85036W        W53265  14.606  20.512  13.005
85037W        W53266  25.086  35.433  12.848
85038W        W53267  10.266  26.791  13.899
85039W        W53268  33.525   3.678  13.900
85040W        W53269  32.705  35.711  11.146
85041W        W53270   0.861  20.594  11.413
85042W        W53271  29.960  29.024  13.436
85043W        W53272  17.194  32.303   4.586
85044W        W53273   1.762   2.700  12.039
85045W        W53274  39.860  42.422   1.951
85046W        W53275  17.881  25.700  12.439
85047W        W53276   2.657   7.812   0.320
85048W        W53277   6.810  35.915  11.167
85049W        W53278  42.979  18.295   0.437
85050W        W53279  26.714  27.216   0.785
85051W        W53280  33.592  39.960  12.578
85052W        W53281  39.413  44.583   4.723
85053W        W53282  33.141  41.832   1.385
85054W        W53283  36.847   9.556   1.755
85055W        W53284  34.435  34.766   2.844
85056W        W53285  14.362   1.890   3.827
85057W        W53286  24.233  38.477  14.865
85058W        W53287  28.001  21.542  10.578
85059W        W53288  44.786  29.642  12.928
85060W        W53289  39.979  37.216  12.013
85061W        W53290  14.632  30.661   1.114
85062W        W53291  18.098  24.229   2.289
85063W        W53292  11.588  22.582  11.526
85064W        W53293   2.796  30.208  12.134
85065W        W53294   7.393  40.012   3.146
85066W        W53295  15.654  24.758  12.911
85067W        W53296  42.054  17.151  11.427
85068W        W53297  11.946   5.753   1.472
85069W        W53298  36.109  39.757  11.653
85070W        W53299  35.803  35.538  11.615
85071W        W53300  12.345   4.787   0.772
85072W        W53301  21.969  35.434   0.655
85073W        W53302  32.054  30.930   2.297
85074W        W53303  15.388  27.748   1.404
85075W        W53304   0.339  24.293  12.075
85076W        W53305   2.396  40.202   4.229
85077W        W53306  39.606  42.703   4.122
85078W        W53307  17.706  15.188   4.547
85079W        W53308  33.601  19.803  10.631
85080W        W53309  24.818   9.282   0.891
85081W        W53310  32.869   5.820   3.594
85082W        W53311  17.654   9.776   4.240
85083W        W53312  16.184  15.733  11.247
85084W        W53313  38.307  16.037   1.414
85085W        W53314  36.490  20.705   1.141
85086W        W53315  26.599  13.561  10.196
85087W        W53316  28.672  13.839  13.949
85088W        W53317  37.975  17.304  14.696
85089W        W53318  21.528  11.140   1.772
85090W        W53319  11.173  39.673   2.802
85091W        W53320  14.143  17.320   1.031
85092W        W53321  20.625   0.988  13.600
85093W        W53322  10.711  23.295   3.057
85094W        W53323  39.242  44.852   1.200
85095W        W53324  18.954  32.915   3.140
85096W        W53325  41.347  33.917   0.782
85097W        W53326  16.774  31.582   5.245
85098W        W53327  31.236  26.769   4.477
85099W        W53328   7.626  39.935   1.180
85100W        W53329  38.597  43.709   1.909
85101W        W53330   4.896  38.534   3.912
85102W        W53331  22.066  41.955  11.553
85103W        W53332  12.024   6.746  11.448
85104W        W53333  43.747   7.348  12.176
85105W        W53334  27.096  14.733  11.103
85106W        W53335  21.050  40.548  11.888
85107W        W53336  12.932  31.918  11.596
85108W        W53337  26.710  37.522  11.078
85109W        W53338  11.435  19.489   4.292
85110W        W53339   3.207  39.819  13.479
85111W        W53340  12.692  15.319  11.690
85112W        W53341  25.695  23.164   4.324
85113W        W53342  30.362   6.712  10.976
85114W        W53343  16.597  27.515  13.478
85115W        W53344  15.120  15.570   2.644
85116W        W53345   7.221  33.744  10.569
85117W        W53346  15.316   2.911   1.385
85118W        W53347  10.755  41.128  14.041
85119W        W53348   4.066  19.931   0.391
85120W        W53349   3.355  24.995   0.526
85121W        W53350  17.328  37.069  13.422
85122W        W53351  10.983  10.767  11.324
85123W        W53352  33.323   4.596   3.682
85124W        W53353  23.028  26.872   3.799
85125W        W53354  34.473  12.564   3.638
85126W        W53355  11.746   5.812  13.947
85127W        W53356  24.007  23.097   4.016
85128W        W53357  44.528  35.398   4.829
85129W        W53358  34.033  37.936   2.838
85130W        W53359  29.234  29.629  14.734
85131W        W53360  23.738  16.561   2.193
85132W        W53361   0.137  15.118   3.824
85133W        W53362  18.913  44.900  11.580
85134W        W53363  19.459  21.832  14.172
85135W        W53364  30.797  17.050  11.700
85136W        W53365  33.735  35.457  11.926
85137W        W53366  28.944  22.831  10.596
85138W        W53367  33.517  17.358  13.657
85139W        W53368   7.792  42.903   0.198
85140W        W53369   5.677  26.943   0.235
85141W        W53370  15.808   1.129   1.827
85142W        W53371   4.241  36.141  14.319
85143W        W53372  38.861  38.993  13.114
85144W        W53373  13.735  44.995  12.566
85145W        W53374  35.017   8.829   5.050
85146W        W53375   7.457  16.277   0.714
85147W        W53376   3.837   3.581   4.496
85148W        W53377  34.390   3.671   0.621
85149W        W53378  37.326  37.972  13.538
85150W        W53379   8.121  20.995  11.926
85151W        W53380  17.090  40.032   1.856
85152W        W53381   1.751  38.534   3.770
85153W        W53382   5.839  26.391   4.527
85154W        W53383   5.342  21.239   3.191
85155W        W53384   0.985  37.348   2.277
85156W        W53385  42.734  28.592   4.130
85157W        W53386  40.873   4.634  10.776
85158W        W53387  11.445  37.563   2.848
85159W        W53388  32.106  41.983  11.164
85160W        W53389  35.692  14.835  12.079
85161W        W53390  25.571   3.264  13.005
85162W        W53391  42.863   2.941   1.307
85163W        W53392  31.048  10.517   0.382
85164W        W53393  10.222   5.114  12.443
85165W        W53394   7.328  19.535  14.464
85166W        W53395  11.079   3.461  14.439
85167W        W53396  27.546  26.086   4.278
85168W        W53397  36.967   6.906  14.814
85169W        W53398  20.723   5.600  11.571
85170W        W53399  14.557  35.508  13.575
85171W        W53400  12.738  11.107  14.502
85172W        W53401   2.375  18.789   2.144
85173W        W53402  14.293   1.438   4.854
85174W        W53403  12.668  19.152   2.170
85175W        W53404  42.429  42.299   0.070
85176W        W53405  23.000   9.695   4.108
85177W        W53406   2.053   1.917  14.425
85178W        W53407  12.751  37.793   2.781
85179W        W53408   2.437  43.551  13.019
85180W        W53409  26.982  28.541  10.555
85181W        W53410  35.360  43.362  13.479
85182W        W53411  43.424  24.182  14.304
85183W        W53412   2.191   2.779   0.204
85184W        W53413   1.377  24.660  10.669
85185W        W53414  10.771   8.345  10.798
85186W        W53415  29.907   9.615  12.798
85187W        W53416  24.016  41.475   0.945
85188W        W53417   3.971  24.970   4.955
85189W        W53418   5.252  39.516   1.285
85190W        W53419  13.323   8.755   1.701
85191W        W53420  38.230   0.948  11.577
85192W        W53421  23.450   7.295  14.739
85193W        W53422  30.722   4.401   2.817
85194W        W53423   4.872  43.935  12.835
85195W        W53424   2.843  36.471  13.985
85196W        W53425  28.636  19.982  11.439
85197W        W53426  44.884  25.210  13.287
85198W        W53427  22.656  18.227   4.537
85199W        W53428  20.317   7.903  13.455
85200W        W53429  33.957  40.606   3.638
85201W        W53430  25.994  21.089  14.543
85202W        W53431  41.447  27.083   1.902
85203W        W53432  17.211  22.293   3.758
85204W        W53433  40.000   7.427   0.942
85205W        W53434   5.772  11.710   3.648
85206W        W53435  14.747  24.696  13.103
85207W        W53436  10.669  44.867  10.657
85208W        W53437  41.861  38.096  12.057
85209W        W53438   6.010  25.189   3.263
85210W        W53439  34.063  14.609   4.267
85211W        W53440  31.999  33.117  14.941
85212W        W53441  17.645  36.581   4.220
85213W        W53442  19.949  32.998   3.182
85214W        W53443   2.602  26.545   5.132
85215W        W53444  44.526  44.703   3.315
85216W        W53445  21.628  43.303   2.974
85217W        W53446   9.200  41.500   0.302
85218W        W53447  20.682  42.109  11.505
85219W        W53448  16.170  31.998  10.336
85220W        W53449  36.351  33.361  13.467
85221W        W53450   8.371   0.268   0.567
85222W        W53451  34.291  16.312   9.836
85223W        W53452   9.704  42.689  14.429
85224W        W53453   3.931  32.559  11.658
85225W        W53454  17.160  43.095   3.136
85226W        W53455  35.400  37.653  10.239
85227W        W53456  38.823  15.049  14.437
85228W        W53457   7.710   2.717  13.001
85229W        W53458   3.536  21.832  10.760
85230W        W53459  24.059  17.835  12.538
85231W        W53460  23.850   4.406   1.893
85232W        W53461  18.191  15.862   4.246
85233W        W53462  20.239  31.126  14.277
85234W        W53463  29.434  21.786   1.641
85235W        W53464   9.849  42.486   2.435
85236W        W53465  31.019  35.847   2.822
85237W        W53466  35.248  11.228  14.803
85238W        W53467  41.604  18.769   0.226
85239W        W53468  11.808  14.734  12.672
85240W        W53469   0.859  28.891  10.721
85241W        W53470  35.523   2.948   0.350
85242W        W53471  34.242   8.637  10.804
85243W        W53472   7.870   7.563  12.519
85244W        W53473  12.866  18.697   2.336
85245W        W53474  17.248  29.555  14.399
85246W        W53475  38.238  30.100   0.900
85247W        W53476   5.626  37.047  11.674
85248W        W53477   8.342  22.642  11.025
85249W        W53478   8.432  27.653  10.641
85250W        W53479  22.733  32.035  10.749
85251W        W53480  22.116  22.205   2.849
85252W        W53481  11.300  24.967   4.123
85253W        W53482  13.652  12.817   1.208
85254W        W53483  41.225  29.152   3.279
85255W        W53484   0.705   0.210  12.047
85256W        W53485   5.527  16.150   4.536
85257W        W53486   5.482  33.680   3.698
85258W        W53487   1.351  21.746   2.787
85259W        W53488  25.721  19.787  11.967
85260W        W53489   4.839   1.957  11.453
85261W        W53490  35.057  34.403   0.416
85262W        W53491  35.513  25.234   1.914
85263W        W53492  40.831  35.099  14.571
85264W        W53493  31.377  13.300   3.653
85265W        W53494  12.388  32.916  13.075
85266W        W53495  12.753  38.854  11.666
85267W        W53496  38.456  12.336  14.099
85268W        W53497  35.081  43.785   4.346
85269W        W53498  24.014  36.409   2.871
85270W        W53499  41.282  23.522   2.230
85271W        W53500  24.282  16.765  14.506
85272W        W53501   8.595  44.958  10.922
85273W        W53502  23.654   0.833  13.795
85274W        W53503  36.645   8.763   1.253
85275W        W53504  26.198  37.584   0.145
85276W        W53505  44.470  25.038  12.988
85277W        W53506  24.482  16.152   0.425
85278W        W53507  27.465  31.805  12.031
85279W        W53508  36.834   8.697  13.974
85280W        W53509   6.001  42.486  13.986
85281W        W53510  38.636  12.133  14.545
85282W        W53511   4.501  33.398  13.709
85283W        W53512   2.923   1.811  12.443
85284W        W53513  24.302  29.171   1.028
85285W        W53514  13.592  21.958  14.430
85286W        W53515  35.189  13.338  13.445
85287W        W53516  29.635  24.545  12.938
85288W        W53517  38.256  10.402   2.275
85289W        W53518  31.237  11.778  14.947
85290W        W53519   4.263  12.086  12.902
85291W        W53520  17.677  41.426  10.641
85292W        W53521   7.239  28.134   5.005
85293W        W53522  34.478  11.833   0.991
85294W        W53523  12.643  32.075  13.617
85295W        W53524  21.766  32.457   2.214
85296W        W53525  28.871  11.819  14.358
85297W        W53526  29.992  22.270  10.738
85298W        W53527  40.441  32.350   0.656
85299W        W53528  24.606   8.893   2.677
85300W        W53529   6.973  33.451   3.694
85301W        W53530  11.222  40.878  13.994
85302W        W53531  25.198  41.066   3.365
85303W        W53532   5.259  31.906   0.322
85304W        W53533  22.271  43.225   4.139
85305W        W53534  40.510   8.756   3.564
85306W        W53535  27.414  25.927   1.221
85307W        W53536   9.398  18.148  12.660
85308W        W53537  30.486  26.257   0.848
85309W        W53538  31.594   9.099  12.924
85310W        W53539  15.389  25.135   2.882
85311W        W53540  22.980  30.726   2.592
85312W        W53541  25.501  43.278   0.733
85313W        W53542   5.064  22.719   4.499
85314W        W53543  39.337  18.079  10.893
85315W        W53544  17.491  10.577  14.503
85316W        W53545  22.165  13.735  14.050
85317W        W53546  32.944   2.512  14.001
85318W        W53547   6.319  16.323   3.663
85319W        W53548  28.893  36.411   3.610
85320W        W53549  12.459   9.209   0.964
85321W        W53550  42.118   0.542   4.836
85322W        W53551  18.347  38.098  12.501
85323W        W53552  43.950  15.495   1.705
85324W        W53553  11.399  41.364   4.000
85325W        W53554  29.926  33.191  13.560
85326W        W53555  24.063  16.520   1.796
85327W        W53556   5.116  25.142  12.405
85328W        W53557  29.176  21.740  11.992
85329W        W53558  18.990  10.109  14.291
85330W        W53559  43.194   4.835   2.705
85331W        W53560  38.907  20.675   2.157
85332W        W53561   9.276  36.044   1.850
85333W        W53562   2.637  25.084   3.864
85334W        W53563  39.600   6.562  11.245
85335W        W53564  39.365  26.232   0.391
85336W        W53565  40.418  29.109   3.731
85337W        W53566  39.886  37.905   1.246
85338W        W53567  41.393  36.416  14.946
85339W        W53568   8.971   2.166   5.017
85340W        W53569  23.626  43.170   3.753
85341W        W53570  19.784   5.440   0.733
85342W        W53571   7.591  22.084   1.239
85343W        W53572  23.775  16.809  14.499
85344W        W53573   5.294  41.304  14.382
85345W        W53574  44.277  12.338  12.020
85346W        W53575  22.646  14.781  11.171
85347W        W53576   8.366  43.609   0.243
85348W        W53577  33.461   6.966  14.110
85349W        W53578  40.002  10.273  14.842
85350W        W53579  22.043   8.300  13.133
85351W        W53580  39.374  42.012   0.224
85352W        W53581  39.314  24.873  11.107
85353W        W53582  32.197  35.319  13.075
85354W        W53583  14.972  22.595  10.459
85355W        W53584  18.763   3.453   0.746
85356W        W53585  33.415  14.382   0.131
85357W        W53586  22.774  17.626  13.078
85358W        W53587  39.300  13.148   4.394
85359W        W53588  26.756   4.490  13.970
85360W        W53589   9.386  17.686  13.869
85361W        W53590  13.359   0.175   0.639
85362W        W53591  21.630  15.353  13.363
85363W        W53592  39.496  26.165   4.519
85364W        W53593  21.835   9.179   0.881
85365W        W53594  36.602  11.171  14.279
85366W        W53595  39.093  16.778  13.206
85367W        W53596   1.926  33.348   2.888
85368W        W53597  14.336   8.333   0.926
85369W        W53598   1.148  30.520   2.877
85370W        W53599  13.598   0.846  11.137
85371W        W53600  37.985  42.295  12.127
85372W        W53601  25.295  13.091  11.199
85373W        W53602  22.188  36.025  11.588
85374W        W53603   6.575  37.328  10.180
85375W        W53604  43.793   9.991   2.765
85376W        W53605  36.954  17.479  10.631
85377W        W53606  34.086  18.770  10.522
85378W        W53607   2.323   5.932  14.356
85379W        W53608  29.291  13.942   0.695
85380W        W53609   0.702   1.245   1.218
85381W        W53610  23.383  12.150  14.437
85382W        W53611  12.715  18.054   4.559
85383W        W53612  38.999  18.435   0.452
85384W        W53613  12.798  42.392   0.760
85385W        W53614  37.128  23.414  10.793
85386W        W53615  33.612  44.209  10.731
85387W        W53616  14.124  37.542   4.685
85388W        W53617  15.933  41.994  10.791
85389W        W53618  22.044  12.126  14.367
85390W        W53619   8.171   6.360   0.391
85391W        W53620  40.147  23.285  10.591
85392W        W53621  17.126  37.068  13.900
85393W        W53622  20.222  31.250  12.555
85394W        W53623  25.922  39.588  13.399
85395W        W53624   5.651   7.191   0.850
85396W        W53625  44.396  29.353  11.198
85397W        W53626  14.652  42.445   0.236
85398W        W53627   4.069   4.357  14.807
85399W        W53628  28.726  31.652  11.696
85400W        W53629  23.479   6.790  11.518
85401W        W53630  22.091  33.407   0.400
85402W        W53631  10.761  31.483   4.363
85403W        W53632  18.652  29.030   2.286
85404W        W53633  20.510  24.224  11.603
85405W        W53634  14.384   4.701  13.164
85406W        W53635  16.585   4.648   1.060
85407W        W53636  42.368  35.616  14.026
85408W        W53637   8.304  21.952  11.719
85409W        W53638  35.199  25.623   2.623
85410W        W53639  12.324  11.112  13.974
85411W        W53640  22.267  44.262  11.151
85412W        W53641   5.372  14.906  14.761
85413W        W53642  40.994   7.742   4.039
85414W        W53643   3.895  18.022  12.909
85415W        W53644   9.370  28.937  11.602
85416W        W53645  37.605  23.023   1.685
85417W        W53646  17.656  37.288  10.208
85418W        W53647  32.973   1.992  13.957
85419W        W53648  25.443  26.195   0.382
85420W        W53649   1.001  19.645   0.894
85421W        W53650  41.543  20.801   3.196
85422W        W53651  17.069  31.089   3.666
85423W        W53652  17.386  15.802   2.162
85424W        W53653  42.929  16.690  11.663
85425W        W53654  19.413  16.620  11.048
85426W        W53655   2.516  43.460   2.057
85427W        W53656  15.817  13.410  11.886
85428W        W53657  23.024  35.408   0.605
85429W        W53658  22.410  18.512   4.199
85430W        W53659   7.527   5.749   0.547
85431W        W53660  21.642   0.452  10.613
85432W        W53661  38.316  32.060   1.049
85433W        W53662  19.922  28.288  11.575
85434W        W53663  30.682  43.466   5.107
85435W        W53664   9.450  16.790  12.277
85436W        W53665  40.940  14.830  14.910
85437W        W53666  25.438   5.859   2.157
85438W        W53667   7.984  20.293   2.991
85439W        W53668  25.290  12.079   4.480
85440W        W53669  44.744  18.253  13.980
85441W        W53670  41.301  19.692  11.904
85442W        W53671  18.386  17.238   1.227
85443W        W53672  44.270  42.509  14.498
85444W        W53673  41.498  33.009  13.398
85445W        W53674   2.707   7.301  12.858
85446W        W53675   6.518  35.484  11.186
85447W        W53676  23.552   5.643   4.484
85448W        W53677  26.358  24.594  12.529
85449W        W53678  40.640  34.367  11.575
85450W        W53679  13.355  12.866  14.693
85451W        W53680  42.718  24.699  13.436
85452W        W53681   6.968  26.457   1.318
85453W        W53682  28.964  37.596   1.787
85454W        W53683   8.836  28.428   4.648
85455W        W53684  43.346  43.400  13.623
85456W        W53685   1.682  34.806  12.359
85457W        W53686  23.497   9.741  13.008
85458W        W53687  20.618  29.866  13.172
85459W        W53688  11.645  29.191   0.987
85460W        W53689  27.620  31.540   4.479
85461W        W53690  16.809   6.427  12.553
85462W        W53691  15.105  12.251   4.604
85463W        W53692  26.920  18.649  14.073
85464W        W53693  36.552  14.587  11.207
85465W        W53694   3.168   5.232  11.323
85466W        W53695   0.398  44.744   2.414
85467W        W53696   5.449  40.281  14.938
85468W        W53697  40.444  15.963   3.667
85469W        W53698   3.942  42.328  13.997
85470W        W53699  16.632  27.925  11.605
85471W        W53700  16.504   7.375  11.952
85472W        W53701  36.374   6.664   4.985
85473W        W53702  23.697  20.738  14.801
85474W        W53703   9.288  24.271  10.917
85475W        W53704  38.459  42.904   3.636
85476W        W53705  25.508   3.171  10.819
85477W        W53706  19.025  25.606   3.382
85478W        W53707  31.696  13.351   2.625
85479W        W53708  24.780  12.820   3.970
85480W        W53709  30.799  22.228   1.163
85481W        W53710  27.422  33.887  13.580
85482W        W53711  39.839   0.919  12.560
85483W        W53712  35.734   5.759   0.293
85484W        W53713  35.087  41.419  10.144
85485W        W53714  40.407  38.089   1.614
85486W        W53715  34.188   1.463  11.061
85487W        W53716  39.368  23.625  12.588
85488W        W53717  42.391  23.430   0.779
85489W        W53718   8.284  16.570  14.775
85490W        W53719  15.179  26.606   4.460
85491W        W53720  27.709  38.395  12.928
85492W        W53721  37.617  34.433  10.727
85493W        W53722  33.433  44.810   3.136
85494W        W53723   8.705  34.027  11.453
85495W        W53724  36.392  34.793  11.117
85496W        W53725  36.609   5.316  10.649
85497W        W53726  32.378  25.616   2.904
85498W        W53727  11.583   0.214  11.648
85499W        W53728  21.032  31.732  10.847
85500W        W53729  22.888  30.577  13.091
85501W        W53730  28.676  36.792  12.463
85502W        W53731  30.128  22.010   3.533
85503W        W53732  24.237   8.389  12.543
85504W        W53733  33.666  42.079   3.708
85505W        W53734  35.106  33.527   2.699
85506W        W53735   0.458  20.195   4.655
85507W        W53736   8.269   1.236  10.691
85508W        W53737  15.818  18.036  12.212
85509W        W53738  33.378  26.843   1.768
85510W        W53739  20.515   1.781  10.928
85511W        W53740  35.482  16.323   3.353
85512W        W53741  36.426   4.337  13.471
85513W        W53742  42.935   7.461  12.472
85514W        W53743  41.121  14.601  14.482
85515W        W53744  40.111  30.919   3.771
85516W        W53745  38.920  19.359   4.241
85517W        W53746  17.909  37.765  11.956
85518W        W53747  16.890  22.954   0.379
85519W        W53748  28.879  41.038  10.568
85520W        W53749  37.039   2.717   4.260
85521W        W53750  35.487   8.001   1.713
85522W        W53751  30.342  21.981   1.181
85523W        W53752  23.449  26.033   0.983
85524W        W53753  35.341  29.551   0.551
85525W        W53754   7.554   7.192  13.729
85526W        W53755  44.497  40.405  11.080
85527W        W53756  32.592  25.694  11.863
85528W        W53757  28.427  21.150  10.233
85529W        W53758  22.692  31.360   0.505
85530W        W53759  42.871   5.428   1.585
85531W        W53760  23.143  12.766  12.521
85532W        W53761   7.566  15.724  12.123
85533W        W53762  44.845  22.574   4.652
85534W        W53763  23.791  41.695   3.652
85535W        W53764  23.740  31.811  10.011
85536W        W53765  16.265  24.852  11.978
85537W        W53766  29.789  22.090  12.582
85538W        W53767  25.518   3.863   0.364
85539W        W53768  38.859  41.894  12.502
85540W        W53769   9.913  18.203  12.610
85541W        W53770  12.652  34.925  12.444
85542W        W53771  43.749  31.592   2.856
85543W        W53772  30.374  27.124  12.511
85544W        W53773   4.850  28.962  13.524
85545W        W53774  38.934  21.462  11.116
85546W        W53775   0.940  40.516  10.523
85547W        W53776  36.071  39.546   2.406
85548W        W53777  27.994  28.268   3.098
85549W        W53778   5.880  40.476  14.658
85550W        W53779  11.001   4.977   3.682
85551W        W53780  42.074  19.924   3.041
85552W        W53781   4.409  12.313   1.242
85553W        W53782  23.518   7.821  11.741
85554W        W53783  16.338  26.925   2.895
85555W        W53784  21.188  13.237  11.102
85556W        W53785  33.997   7.235  10.575
85557W        W53786  40.767  21.471   1.950
85558W        W53787   2.391   2.889   2.666
85559W        W53788  32.922  38.226  13.837
85560W        W53789  36.822  32.823   1.526
85561W        W53790  41.797  29.602   3.703
85562W        W53791  22.309  23.986   4.149
85563W        W53792  12.554   4.244  11.949
85564W        W53793  25.409  18.572  10.435
85565W        W53794  43.296  10.224   3.577
85566W        W53795  37.805  14.308   1.753
85567W        W53796  22.739  25.202  11.231
85568W        W53797   2.012  27.022   4.057
85569W        W53798  25.993  32.100  12.070
85570W        W53799  26.901  14.852   0.770
85571W        W53800  36.936  27.213   1.216
85572W        W53801   5.889  41.244  14.841
85573W        W53802  13.403  36.029   0.445
85574W        W53803   7.841  24.767   3.289
85575W        W53804  30.994  21.368  13.546
85576W        W53805  32.255  21.557   1.246
85577W        W53806  10.534  30.012  11.810
85578W        W53807  31.233  30.579   3.272
85579W        W53808  31.865  25.051   2.451
85580W        W53809   0.871  11.238  14.348
85581W        W53810  39.970  35.896  12.163
85582W        W53811   5.763  13.821  12.937
85583W        W53812  20.260   4.889   4.114
85584W        W53813  37.374  27.461   1.246
85585W        W53814  12.552  13.747   0.856
85586W        W53815  18.620   5.719  13.062
85587W        W53816  10.771  10.334  14.879
85588W        W53817  19.247   5.192  13.497
85589W        W53818   0.360  44.743   3.424
85590W        W53819  27.054   3.800  11.768
85591W        W53820  44.492  11.774  12.799
85592W        W53821  10.152  15.967   1.248
85593W        W53822  25.177  36.883   0.818
85594W        W53823  14.836  27.169   2.467
85595W        W53824  33.564   3.288   3.267
85596W        W53825  32.150   3.762   0.005
85597W        W53826  41.969  44.954   1.918
85598W        W53827  22.515  28.004   0.959
85599W        W53828  26.196  31.865  11.058
85600W        W53829  24.029  32.117   1.366
85601W        W53830  26.688  34.984   2.408
85602W        W53831  31.036  27.532  10.367
85603W        W53832  10.808  28.466   1.929
85604W        W53833  44.543  41.012  13.088
85605W        W53834   4.711   3.857  11.418
85606W        W53835  30.949  15.880   0.224
85607W        W53836  43.523  40.057   1.892
85608W        W53837  10.735  33.997   3.237
85609W        W53838  39.414  20.801   0.793
85610W        W53839  29.353  12.343  13.748
85611W        W53840  44.796  14.314  11.044
85612W        W53841  24.095  44.563  12.875
85613W        W53842  27.210  32.329  12.738
85614W        W53843  41.915  16.696  10.680
85615W        W53844  26.179  42.772  14.096
85616W        W53845   6.333  11.604  11.644
85617W        W53846  18.375  30.223   1.366
85618W        W53847  16.830  19.094  11.447
85619W        W53848   5.480  29.981  11.622
85620W        W53849  22.793   0.330  14.576
85621W        W53850   3.406  11.254   9.963
85622W        W53851  43.133  36.662  11.155
85623W        W53852  24.089  26.621   2.657
85624W        W53853   0.322  36.863   0.745
85625W        W53854  40.087  11.700  12.470
85626W        W53855   7.200  26.572   2.219
85627W        W53856  42.652  37.832  13.681
85628W        W53857  23.627  10.162   4.603
85629W        W53858   9.059  33.585   1.183
85630W        W53859  42.490   5.482  14.433
85631W        W53860  36.204   0.847  10.322
85632W        W53861  26.447  41.812  11.938
85633W        W53862   2.293  24.205   1.895
85634W        W53863  27.605  16.177  11.357
85635W        W53864  17.307   6.793   2.681
85636W        W53865  32.004  22.739   2.028
85637W        W53866  14.118  25.072   2.447
85638W        W53867  21.606  16.083  13.968
85639W        W53868  26.759  28.117   3.811
85640W        W53869  33.022  43.791   2.809
85641W        W53870  13.734  33.705   4.145
85642W        W53871  13.534  18.473   1.054
85643W        W53872  16.467  35.691  12.559
85644W        W53873   9.480  40.799  11.031
85645W        W53874   0.866  15.826  14.693
85646W        W53875  40.122  18.559   4.200
85647W        W53876   6.397  44.716  14.864
85648W        W53877  39.477  22.175   0.353
85649W        W53878  27.063   3.355   4.662
85650W        W53879  26.351  10.178  11.074
85651W        W53880  28.057  18.896   4.104
85652W        W53881  39.277  18.070   4.277
85653W        W53882  16.001  43.274  14.837
85654W        W53883   0.716  23.140   3.184
85655W        W53884  32.162   6.473  13.501
85656W        W53885  13.867  21.695  14.044
85657W        W53886   8.570  35.339   2.849
85658W        W53887   8.414   0.773   0.831
85659W        W53888  22.232   1.812  14.707
85660W        W53889  11.371  31.862  12.773
85661W        W53890   8.861  18.006   3.786
85662W        W53891  21.022  15.494   1.754
85663W        W53892  28.975  16.737  13.721
85664W        W53893  14.564  30.868   2.336
85665W        W53894  30.318  30.065   4.085
85666W        W53895  35.953  26.474   4.548
85667W        W53896  13.846  21.815  13.543
85668W        W53897  43.614  41.815  14.763
85669W        W53898  14.587  13.805   4.029
85670W        W53899   6.179  14.410   0.081
85671W        W53900   8.129  31.430  12.102
85672W        W53901   5.346   0.875   3.268
85673W        W53902  35.384  42.444   2.352
85674W        W53903  28.672  25.863   2.549
85675W        W53904   3.811  31.402  14.971
85676W        W53905  39.462  18.771  11.513
85677W        W53906  36.084   1.172   3.332
85678W        W53907  28.131  29.725  12.320
85679W        W53908   6.895  26.086  11.130
85680W        W53909   9.790   1.855   3.848
85681W        W53910   3.032   8.899  11.578
85682W        W53911   3.432  33.849   1.777
85683W        W53912  10.450  31.396   1.280
85684W        W53913  40.576   9.151  10.358
85685W        W53914  25.087   6.191  10.646
85686W        W53915  38.813  36.906   2.918
85687W        W53916  37.823  32.467   1.378
85688W        W53917  15.213  44.046  13.463
85689W        W53918  39.553  28.004  12.463
85690W        W53919  26.762   1.830   3.271
85691W        W53920  30.647  12.868   4.067
85692W        W53921  41.700  16.295   2.409
85693W        W53922   1.946  32.466   2.003
85694W        W53923  37.576  22.840  12.995
85695W        W53924  31.875  36.403   4.186
85696W        W53925   4.458  25.955  13.941
85697W        W53926   0.228  18.611   1.214
85698W        W53927   6.372  32.187  10.229
85699W        W53928  32.027  26.469  12.095
85700W        W53929   0.930  40.865   2.971
85701W        W53930  23.031   0.951   1.271
85702W        W53931  39.688  24.073  12.720
85703W        W53932  10.265  25.828   0.285
85704W        W53933  16.347  10.648   3.925
85705W        W53934   1.961  23.745  14.387
85706W        W53935   4.408  44.806  12.058
85707W        W53936  19.835  20.131  11.486
85708W        W53937  32.919  19.795  14.318
85709W        W53938  27.479  40.498  13.488
85710W        W53939  39.658   9.165  12.010
85711W        W53940  35.600  23.759  13.822
85712W        W53941  36.966  26.721  10.453
85713W        W53942  22.515  34.063   0.872
85714W        W53943  42.324   7.681   2.219
85715W        W53944  38.528   0.586  12.116
85716W        W53945  33.267  30.828   4.083
85717W        W53946  23.972  27.207  12.253
85718W        W53947  10.605  16.168  14.387
85719W        W53948  16.526  39.398   0.793
85720W        W53949   6.870  16.619  12.870
85721W        W53950  30.480  13.454   0.723
85722W        W53951  37.638  20.978   9.981
85723W        W53952  20.847  21.776  14.400
85724W        W53953  34.682  11.489   0.656
85725W        W53954  36.832  12.862   3.736
85726W        W53955  16.197  34.271  14.268
85727W        W53956  14.662  35.613   2.556
85728W        W53957   6.201  19.216  11.467
85729W        W53958  24.270  37.549   3.971
85730W        W53959  38.300  34.595  14.804
85731W        W53960  17.055  23.225  10.693
85732W        W53961   7.347   3.177  10.707
85733W        W53962  35.552  43.889  13.409
85734W        W53963  17.498  20.119   3.595
85735W        W53964  20.123   6.289  14.988
85736W        W53965  13.074  34.912   0.960
85737W        W53966  14.350  23.007  12.461
85738W        W53967   0.742   0.857   0.447
85739W        W53968  11.171  20.457  13.311
85740W        W53969  23.981  43.729   2.256
85741W        W53970  43.276   5.744   4.558
85742W        W53971  39.952  38.723   4.210
85743W        W53972  14.067  41.790  11.049
85744W        W53973   4.338  15.805   2.157
85745W        W53974   2.397  43.530  12.479
85746W        W53975  27.844  36.937   1.287
85747W        W53976  34.900  28.981   3.713
85748W        W53977  37.587   6.260  12.022
85749W        W53978  21.546  15.607   2.966
85750W        W53979  36.543  27.497   0.532
85751W        W53980   5.237   3.721   0.331
85752W        W53981  22.538  14.825   1.961
85753W        W53982   9.097  10.749   0.520
85754W        W53983  42.719   7.039   4.164
85755W        W53984   3.216   3.751   0.558
85756W        W53985  12.147  40.487   1.735
85757W        W53986  11.889  19.640   4.102
85758W        W53987  27.091   0.946   0.749
85759W        W53988   9.158  33.978  12.651
85760W        W53989  28.619  43.787  11.090
85761W        W53990  21.731   5.667   2.760
85762W        W53991  20.613  27.890  10.924
85763W        W53992  40.293  32.640   2.933
85764W        W53993   1.980   7.663   3.632
85765W        W53994  28.073  44.015  11.147
85766W        W53995  22.805   8.743   5.195
85767W        W53996  25.518   7.859   0.787
85768W        W53997  41.581  10.186   4.184
85769W        W53998  10.679  29.107  11.887
85770W        W53999   3.098  41.310   1.234
85771W        W54000  29.455  24.322  11.189
85772W        W54001  35.880  30.055  14.981
85773W        W54002  35.079  27.990   4.872
85774W        W54003   3.937  11.687   3.727
85775W        W54004  30.501  35.888   0.319
85776W        W54005  23.260  12.414  13.330
85777W        W54006  15.588  11.165   2.242
85778W        W54007   4.904   8.229  12.002
85779W        W54008   9.368  33.934  12.198
85780W        W54009   7.243  19.619   0.738
85781W        W54010  31.249   2.440  10.721
85782W        W54011   6.343  31.606  11.620
85783W        W54012  20.526  43.045  13.930
85784W        W54013   6.490  11.092   4.509
85785W        W54014  13.711  21.420   3.438
85786W        W54015  16.812  31.948  14.402
85787W        W54016  40.886  11.063  14.489
85788W        W54017  39.199   0.615  11.623
85789W        W54018   1.951  21.124   2.228
85790W        W54019  11.744  23.682   1.739
85791W        W54020  35.983  27.607  14.839
85792W        W54021  39.892  20.071  10.705
85793W        W54022  15.782  28.739  10.915
85794W        W54023  30.996   2.426  14.993
85795W        W54024  11.251  20.402  11.400
85796W        W54025  30.516  15.085  11.494
85797W        W54026  12.994  41.430   2.726
85798W        W54027  22.723  31.734   3.220
85799W        W54028  21.569   5.273  10.390
85800W        W54029  39.891  21.767   2.413
85801W        W54030  37.282  35.004   4.588
85802W        W54031  40.888  44.931   2.674
85803W        W54032   6.186  27.006  13.567
85804W        W54033  10.373  28.196   0.821
85805W        W54034  28.816  41.988   0.903
85806W        W54035  13.785   3.799   4.280
85807W        W54036  30.043  13.665  14.410
85808W        W54037  21.724  37.659   0.723
85809W        W54038   8.929  12.229   4.043
85810W        W54039  24.025  41.508   1.466
85811W        W54040  14.553  33.365  14.361
85812W        W54041   4.779  40.020   1.865
85813W        W54042  18.376  34.090   4.628
85814W        W54043  34.044  43.583   4.193
85815W        W54044  26.023   9.950  13.946
85816W        W54045  15.683  19.896   2.933
85817W        W54046  23.234  27.274  11.900
85818W        W54047  32.873  23.549  13.007
85819W        W54048  30.750   6.300   2.864
85820W        W54049   0.300  31.068   0.746
85821W        W54050   6.932  31.959   2.562
85822W        W54051  34.794  17.388   2.780
85823W        W54052  43.931  33.490  12.001
85824W        W54053  42.970  16.183  10.963
85825W        W54054  32.439  24.156   0.996
85826W        W54055  24.067  10.591  12.885
85827W        W54056  39.431  26.669   0.796
85828W        W54057  28.405   4.697  13.923
85829W        W54058  40.682  35.300   1.552
85830W        W54059  28.947  31.032  14.469
85831W        W54060   3.353  39.819  12.991
85832W        W54061  14.671  19.732  14.030
85833W        W54062  11.204  41.807   1.685
85834W        W54063  15.575  37.907  14.014
85835W        W54064   8.301  16.492   0.829
85836W        W54065  25.773  37.080  10.508
85837W        W54066  18.798  13.605  13.462
85838W        W54067  42.611  40.800  14.978
85839W        W54068   7.928  26.726  10.667
85840W        W54069  27.765   8.722   3.067
85841W        W54070  38.447  18.258  11.070
85842W        W54071  36.737   1.387  14.249
85843W        W54072   0.935  43.345   1.860
85844W        W54073   0.391   4.514   2.158
85845W        W54074  17.788  31.516   3.430
85846W        W54075  30.381  11.783  10.413
85847W        W54076  12.322  25.649  13.786
85848W        W54077  24.110  24.620  14.773
85849W        W54078  14.440  44.431   0.236
85850W        W54079  16.759  24.636  11.207
85851W        W54080  22.186  17.748   1.216
85852W        W54081  38.852  20.988   0.777
85853W        W54082  24.667  14.292  14.246
85854W        W54083  16.290   9.407  11.561
85855W        W54084  29.689  18.019  11.179
85856W        W54085  36.919  26.686  13.072
85857W        W54086  30.373  31.624  12.372
85858W        W54087  24.618  36.771   2.514
85859W        W54088  33.903  27.803   2.798
85860W        W54089  12.764   9.199  14.724
85861W        W54090  36.433  25.459   0.240
85862W        W54091  41.769  14.834  11.435
85863W        W54092  14.685  22.818   4.827
85864W        W54093   2.739  17.874  11.159
85865W        W54094  12.324  25.688   2.835
85866W        W54095  34.627  19.063  11.996
85867W        W54096  21.286  23.157   0.386
85868W        W54097  34.449  22.728   3.092
85869W        W54098   4.959   3.840  10.038
85870W        W54099  20.719   9.360  14.223
85871W        W54100  24.740   2.449   2.749
85872W        W54101  10.345   6.835   0.490
85873W        W54102   1.514  29.444  14.553
85874W        W54103  32.498  31.825  12.487
85875W        W54104  34.045  18.029   2.382
85876W        W54105  40.092   0.273   3.510
85877W        W54106  33.045  17.226  12.862
85878W        W54107  11.126  17.408  13.999
85879W        W54108  22.367  22.911   4.790
85880W        W54109  11.369  36.811  14.156
85881W        W54110  36.279  17.088  13.074
85882W        W54111   0.399  18.154   2.546
85883W        W54112   3.346  15.955  12.645
85884W        W54113   7.268  15.523   4.302
85885W        W54114  24.457  22.071  12.290
85886W        W54115  17.211  14.665   1.474
85887W        W54116  12.454  32.533   3.382
85888W        W54117   3.254  30.721   0.884
85889W        W54118   4.492  38.024  14.716
85890W        W54119  42.286  37.014   3.807
85891W        W54120  40.014  14.372   4.754
85892W        W54121  42.101  34.589  14.474
85893W        W54122   9.236  22.003  13.614
85894W        W54123   1.996   4.399  12.998
85895W        W54124  20.573  21.971   0.649
85896W        W54125  27.098   3.616   3.959
85897W        W54126  28.089  16.694  12.611
85898W        W54127  31.883  33.683  12.529
85899W        W54128  33.616  10.913  12.806
85900W        W54129  14.118  40.736  11.627
85901W        W54130  15.723  13.328   1.749
85902W        W54131   7.955  29.042  11.575
85903W        W54132  27.659  42.940   1.664
85904W        W54133  25.766  29.033   3.126
85905W        W54134   7.873   8.492  13.444
85906W        W54135  12.727  40.961  13.499
85907W        W54136  30.587  18.719   0.620
85908W        W54137  14.327  18.524   2.902
85909W        W54138  40.688  11.585  14.418
85910W        W54139  12.600  32.995   2.819
85911W        W54140   2.911   3.373  12.812
85912W        W54141  43.793   2.742  12.969
85913W        W54142  14.544  24.628  11.612
85914W        W54143   0.441  10.426   0.415
85915W        W54144  34.386  40.745   3.028
85916W        W54145   9.231  34.506   0.178
85917W        W54146  31.943  21.999   3.034
85918W        W54147  19.909   6.943  11.716
85919W        W54148  31.794  38.261   4.103
85920W        W54149  34.931  29.937  11.909
85921W        W54150  34.379  22.731  11.156
85922W        W54151  24.213   6.551   1.285
85923W        W54152   8.865  44.968   3.580
85924W        W54153  28.566  28.330   2.138
85925W        W54154  25.275  11.597   3.735
85926W        W54155  18.018   1.668  14.789
85927W        W54156  36.049  11.732  12.755
85928W        W54157  44.989  27.647   2.650
85929W        W54158   7.946  38.256  13.990
85930W        W54159  14.257  34.165   1.001
85931W        W54160  13.158  23.221  14.542
85932W        W54161  36.341  38.633   3.600
85933W        W54162   5.753  40.084   1.774
85934W        W54163   1.448  31.450  11.507
85935W        W54164  13.338   2.379  11.794
85936W        W54165  44.269  25.254   2.670
85937W        W54166  25.552   1.032  13.670
85938W        W54167  16.552   6.795  14.515
85939W        W54168  28.182  30.428   4.177
85940W        W54169   4.748  21.680  14.487
85941W        W54170  28.181  30.543  14.434
85942W        W54171  31.744  37.650  11.260
85943W        W54172  35.601  13.602   1.348
85944W        W54173  37.538  37.879  12.427
85945W        W54174   9.684  19.075  13.912
85946W        W54175  16.697  34.355   0.279
85947W        W54176  33.460   5.518  12.339
85948W        W54177  41.881  11.155   0.311
85949W        W54178  13.834  30.162   1.610
85950W        W54179  44.043   2.262  12.116
85951W        W54180  13.685  16.666  14.464
85952W        W54181  43.736   4.839   4.574
85953W        W54182  15.495  32.501  10.104
85954W        W54183  40.314  26.295  11.193
85955W        W54184  33.915   5.202   3.122
85956W        W54185  13.770  21.505   3.944
85957W        W54186   2.627   6.804  12.629
85958W        W54187  12.441  44.981   0.464
85959W        W54188  23.683   3.607  11.388
85960W        W54189   4.364  44.039   1.802
85961W        W54190   2.906  27.599   4.157
85962W        W54191  14.470  37.894   2.378
85963W        W54192  28.763  22.075  11.973
85964W        W54193  35.415  20.647   4.184
85965W        W54194  29.699  16.440  13.415
85966W        W54195  37.865   6.772  11.144
85967W        W54196  29.944  18.218   2.470
85968W        W54197  11.371  39.895   3.768
85969W        W54198  12.175  12.833   1.221
85970W        W54199  15.718  23.131  12.991
85971W        W54200  37.004  14.198   1.366
85972W        W54201  25.957   4.939   3.764
85973W        W54202   1.756  13.160   4.708
85974W        W54203  29.668  38.098   0.930
85975W        W54204  33.067   4.405   4.637
85976W        W54205  35.994  32.320  10.564
85977W        W54206   7.055  34.875  12.571
85978W        W54207  15.777  30.255  10.434
85979W        W54208  19.627  34.038   4.122
85980W        W54209  33.791  44.739  12.856
85981W        W54210  34.333  41.406   2.466
85982W        W54211  38.707  34.015   1.944
85983W        W54212  31.337  25.541  11.603
85984W        W54213   4.874  35.109  12.025
85985W        W54214  27.766   0.271  13.865
85986W        W54215  32.137  39.293   1.710
85987W        W54216  40.413  42.027  13.625
85988W        W54217  31.540  41.366  11.430
85989W        W54218  21.207  20.826   3.303
85990W        W54219  18.758  22.931   4.561
85991W        W54220  12.144  11.031   2.577
85992W        W54221  25.991  30.361  12.935
85993W        W54222  36.667   2.776  14.346
85994W        W54223  41.790   9.649   3.237
85995W        W54224  28.639  23.971   0.884
85996W        W54225  11.588   2.781   3.726
85997W        W54226  18.039  35.535   3.249
85998W        W54227   4.651   1.685  12.374
85999W        W54228  26.935  13.667  12.133
86000W        W54229  42.394  43.807  10.722
86001W        W54230  38.783  13.737  13.894
86002W        W54231  43.722  41.546   3.653
86003W        W54232  31.930  17.014  12.471
86004W        W54233  26.423  16.965  11.086
86005W        W54234  27.174  31.590  13.963
86006W        W54235  10.107  13.453   3.346
86007W        W54236  21.758  27.983  12.072
86008W        W54237  17.646  24.559   1.890
86009W        W54238   2.304  29.547   3.363
86010W        W54239   4.283  27.508  10.830
86011W        W54240  42.797  22.164   1.038
86012W        W54241  40.002   6.902   2.430
86013W        W54242  43.494   7.370   3.161
86014W        W54243  12.105  31.416   3.843
86015W        W54244  18.174  34.941  10.141
86016W        W54245  32.970  17.637   1.636
86017W        W54246  41.881  20.531   3.641
86018W        W54247  20.815  22.327   4.503
86019W        W54248   5.879   7.364   0.392
86020W        W54249  40.367   4.115   2.820
86021W        W54250  24.118  25.034   3.728
86022W        W54251   6.801  23.742  10.389
86023W        W54252  16.653  16.246   2.934
86024W        W54253   6.175  21.727   3.953
86025W        W54254   8.622  17.624  14.346
86026W        W54255   1.160  12.308   2.506
86027W        W54256  19.732   4.882   4.211
86028W        W54257   6.062  14.195  14.622
86029W        W54258  41.073   9.098  14.511
86030W        W54259  30.946  14.657   2.739
86031W        W54260   6.295  38.707  14.284
86032W        W54261  18.775  28.199  11.126
86033W        W54262   3.986   1.275  12.803
86034W        W54263  13.138  42.270  11.568
86035W        W54264   9.375   8.877   1.418
86036W        W54265  18.338   2.881  11.995
86037W        W54266  26.437  16.367  12.395
86038W        W54267  11.860  23.957  14.987
86039W        W54268  33.328  10.675   4.182
86040W        W54269  40.761  20.538   0.913
86041W        W54270  17.290  31.745  14.458
86042W        W54271  11.840   8.787   4.006
86043W        W54272  28.602  22.820  12.367
86044W        W54273  26.469  24.805   2.410
86045W        W54274  12.229  40.876  11.450
86046W        W54275  28.732  30.558   1.195
86047W        W54276  26.089  15.797  13.389
86048W        W54277  24.642  18.805   4.172
86049W        W54278  36.120  20.561   3.729
86050W        W54279  15.786  36.801   2.725
86051W        W54280   2.213  32.473  12.596
86052W        W54281  39.952  38.714  13.367
86053W        W54282  41.002  34.621  13.345
86054W        W54283   3.197   7.877  12.590
86055W        W54284  31.968  37.123   3.203
86056W        W54285  11.720   0.214   0.953
86057W        W54286  13.855  24.568   2.247
86058W        W54287  27.374  17.308   2.121
86059W        W54288  44.533  42.964   4.509
86060W        W54289  14.509  38.020   0.685
86061W        W54290  20.128  30.580   3.194
86062W        W54291  17.252   1.671   2.760
86063W        W54292  31.092   0.835   4.844
86064W        W54293   6.968  19.761   4.580
86065W        W54294  38.716  17.273  12.990
86066W        W54295  10.603   2.833   0.707
86067W        W54296  19.036  13.543  10.785
86068W        W54297  38.313   0.728  12.611
86069W        W54298  37.407   0.251  13.076
86070W        W54299  39.899  24.011   3.279
86071W        W54300  30.433   0.869   2.861
86072W        W54301  23.362  43.637  11.503
86073W        W54302   1.738  22.463  12.950
86074W        W54303   6.752  40.913   1.715
86075W        W54304  21.737  12.897  10.546
86076W        W54305  24.132  18.217   4.744
86077W        W54306  18.793   6.110   1.240
86078W        W54307  30.748  36.290  11.676
86079W        W54308  30.550  13.749   2.233
86080W        W54309  44.093   9.121  12.965
86081W        W54310   2.223   6.727   3.234
86082W        W54311  34.326   1.718   3.269
86083W        W54312  29.882   7.355  12.076
86084W        W54313  35.460  23.178   3.346
86085W        W54314  36.971  38.887   2.655
86086W        W54315   8.340  17.852   0.358
86087W        W54316  13.545  17.050  10.737
86088W        W54317  15.994  10.673  12.512
86089W        W54318  30.118  11.587  13.965
86090W        W54319   2.347   3.952   2.670
86091W        W54320  16.189  38.529   4.323
86092W        W54321  40.724   0.995   3.080
86093W        W54322  12.671  38.971  12.162
86094W        W54323   6.282  37.381  12.132
86095W        W54324  39.319  35.626  11.443
86096W        W54325  10.352  43.024  10.033
86097W        W54326   7.228   8.276  13.988
86098W        W54327  12.854  13.020  11.428
86099W        W54328  40.561  32.176  12.441
86100W        W54329  31.911  31.892  11.880
86101W        W54330   8.775  32.743  12.480
86102W        W54331  18.582   8.566   0.400
86103W        W54332  30.429   0.300  12.182
86104W        W54333  10.126  16.719   2.341
86105W        W54334   6.421  26.518  10.548
86106W        W54335  26.742  32.238  11.158
86107W        W54336   4.596  35.840  10.244
86108W        W54337  22.585   0.346   1.053
86109W        W54338   9.233   3.820   0.860
86110W        W54339  32.698  41.847   4.663
86111W        W54340   5.375   5.824  13.023
86112W        W54341  30.512  11.398   4.556
86113W        W54342  44.032  15.799   3.082
86114W        W54343  32.336  30.534   4.923
86115W        W54344  44.241  23.936   1.439
86116W        W54345  14.176  14.927   1.008
86117W        W54346   4.818  33.620   1.751
86118W        W54347  20.354  13.666  12.109
86119W        W54348  21.609  26.642   3.239
86120W        W54349  26.077  16.274  13.204
86121W        W54350  11.276   5.881   4.665
86122W        W54351  31.589  42.399  12.550
86123W        W54352   6.517   7.762  13.073
86124W        W54353  26.868  38.044  11.098
86125W        W54354  29.333   3.350   1.287
86126W        W54355  37.625  33.546   4.987
86127W        W54356  27.215   9.100  11.394
86128W        W54357  14.473  25.506  11.543
86129W        W54358  21.575  34.072  13.369
86130W        W54359   7.953  41.927  14.520
86131W        W54360  30.448   8.389  12.478
86132W        W54361   2.677   9.259   3.711
86133W        W54362  14.957  24.991   2.333
86134W        W54363   9.141  11.150   4.688
86135W        W54364  32.550   2.096   0.136
86136W        W54365  22.019   5.299  11.246
86137W        W54366  41.904  43.693  11.005
86138W        W54367  20.613  24.428   2.871
86139W        W54368  15.523  30.571  14.224
86140W        W54369  32.150  27.130   2.651
86141W        W54370  18.607  22.151   5.045
86142W        W54371   4.001  14.523  11.585
86143W        W54372  42.013  40.993  12.130
86144W        W54373  32.533   2.708  14.301
86145W        W54374  31.505  43.940   1.419
86146W        W54375   6.743  30.046  13.753
86147W        W54376  15.396   9.447   3.720
86148W        W54377  38.893  22.816  12.355
86149W        W54378  29.601   7.772   3.627
86150W        W54379  26.979   4.937  13.016
86151W        W54380  21.299  38.790   2.406
86152W        W54381  14.799  33.394  12.926
86153W        W54382  40.299   0.762   0.831
86154W        W54383  44.876  24.117  12.031
86155W        W54384  25.051  30.193  11.181
86156W        W54385  26.259  23.533  12.424
86157W        W54386  30.552  21.556  12.143
86158W        W54387  17.977  37.311  12.781
86159W        W54388  36.448   8.730   2.823
86160W        W54389   4.327  42.774   2.807
86161W        W54390   9.607  44.813  12.508
86162W        W54391  17.298  15.336   4.181
86163W        W54392  26.206  38.644   0.753
86164W        W54393   4.843  22.873   3.500
86165W        W54394  38.597  17.218   1.728
86166W        W54395  36.805  23.659   0.436
86167W        W54396   5.547   2.274  11.226
86168W        W54397  30.266  22.996  14.020
86169W        W54398   6.148  31.230   0.649
86170W        W54399   4.871  35.516   4.684
86171W        W54400  43.288  16.306   4.596
86172W        W54401  10.662   8.083  14.536
86173W        W54402  44.100   4.665   3.717
86174W        W54403  39.273   2.324   0.519
86175W        W54404  40.464   9.776  12.573
86176W        W54405  32.519  27.245  12.162
86177W        W54406   8.903   1.909  11.577
86178W        W54407  29.511  14.390   0.425
86179W        W54408   3.798  21.720   4.061
86180W        W54409  25.156  26.023   2.377
86181W        W54410  35.196   2.247   0.519
86182W        W54411   5.442  26.595   0.553
86183W        W54412  16.665  28.340   0.054
86184W        W54413  34.974   6.180   4.519
86185W        W54414  39.046  19.030   1.710
86186W        W54415  25.021   2.903   2.731
86187W        W54416  15.297  16.484   3.198
86188W        W54417   2.092  29.967  10.794
86189W        W54418  23.512  37.141   3.483
86190W        W54419  20.994  32.585  13.987
86191W        W54420  18.722   8.379   3.954
86192W        W54421  29.437  21.014   2.324
86193W        W54422  43.828  21.050  12.979
86194W        W54423  16.801  30.041   3.378
86195W        W54424  17.652  32.241  12.003
86196W        W54425  31.627  25.695  13.792
86197W        W54426  41.774   7.135  14.255
86198W        W54427  33.430  14.841  11.971
86199W        W54428  21.572  18.959  12.870
86200W        W54429   5.529   9.730   1.877
86201W        W54430  13.061   2.133   1.413
86202W        W54431  10.883  12.986   4.652
86203W        W54432  22.572   0.428   1.932
86204W        W54433  31.095  30.684  13.913
86205W        W54434  12.727  28.668  12.090
86206W        W54435  28.718  32.924  12.988
86207W        W54436  25.899  40.506  12.996
86208W        W54437  13.828  13.636  12.112
86209W        W54438  23.041   4.376  11.092
86210W        W54439  42.199   5.651  12.933
86211W        W54440   5.773   7.286   1.854
86212W        W54441  18.171  23.870  11.620
86213W        W54442  40.482  25.911   0.056
86214W        W54443   2.159   6.894  12.821
86215W        W54444  30.100   3.003  14.422
86216W        W54445  35.052  41.625   1.257
86217W        W54446  11.108  37.421   4.274
86218W        W54447  11.718  41.785  10.701
86219W        W54448  22.195   1.555   4.149
86220W        W54449  11.294  17.110   4.178
86221W        W54450  34.186  39.640   3.761
86222W        W54451   2.752  31.836  11.936
86223W        W54452  26.348  28.458   1.468
86224W        W54453  16.996  38.998   0.538
86225W        W54454  12.636  41.396   3.104
86226W        W54455  27.951  39.744  11.184
86227W        W54456  39.671  12.359   2.392
86228W        W54457  21.593   2.194   4.059
86229W        W54458   5.969   4.357   1.145
86230W        W54459  36.500   9.873   1.977
86231W        W54460  21.262  27.277   4.054
86232W        W54461  40.574  41.497  10.450
86233W        W54462  39.063   9.269  13.983
86234W        W54463  25.087   1.728   1.046
86235W        W54464  15.028  30.877  10.763
86236W        W54465  19.201   7.240   2.840
86237W        W54466  18.845  34.368  12.880
86238W        W54467   5.457  14.767  12.855
86239W        W54468  39.797  14.881   3.525
86240W        W54469  26.488   8.450   1.728
86241W        W54470  39.863  34.894  13.510
86242W        W54471  19.272  41.311  11.503
86243W        W54472  30.650  37.997   4.543
86244W        W54473   3.254  44.681  12.379
86245W        W54474  29.331   2.300  13.952
86246W        W54475  21.811   5.364  12.187
86247W        W54476  26.767  31.572  14.920
86248W        W54477  11.266  17.883   1.463
86249W        W54478  42.568   7.338   1.917
86250W        W54479  32.047  14.239   3.095
86251W        W54480  15.081  10.236  13.393
86252W        W54481  11.753   2.346   0.821
86253W        W54482  25.007  11.188   3.533
86254W        W54483  43.334  19.673   0.843
86255W        W54484  31.679  20.239  13.808
86256W        W54485  33.235   9.905   0.792
86257W        W54486   2.931  16.823   1.467
86258W        W54487  37.787   2.247   3.210
86259W        W54488  41.888  34.919  10.538
86260W        W54489  19.134   7.498   0.837
86261W        W54490  11.120  36.108  11.421
86262W        W54491  40.395  35.907   0.798
86263W        W54492  16.878  31.897   3.194
86264W        W54493   4.467  20.506  12.290
86265W        W54494  19.230  19.582   3.415
86266W        W54495  39.012  28.020  14.059
86267W        W54496  41.387  44.368  14.944
86268W        W54497  32.455  14.177   1.648
86269W        W54498   8.157  24.645  11.942
86270W        W54499   1.457  40.621   4.252
86271W        W54500  40.538  29.417  10.236
86272W        W54501  33.150   1.253  13.448
86273W        W54502   0.095   3.389   4.635
86274W        W54503   9.895   0.815   2.794
86275W        W54504  22.129  31.667  13.414
86276W        W54505  32.153   8.390   1.876
86277W        W54506  15.517  17.624  13.941
86278W        W54507  31.513  32.400  11.285
86279W        W54508  43.089  37.172  14.911
86280W        W54509  26.516  24.252   3.804
86281W        W54510   0.455  20.944  12.463
86282W        W54511  34.836   1.031   4.516
86283W        W54512  18.774  10.463  14.919
86284W        W54513  29.246  17.332   4.539
86285W        W54514  39.710  14.850  11.650
86286W        W54515  27.755  12.696   4.974
86287W        W54516  12.748  24.096  13.118
86288W        W54517   8.133   9.680   3.439
86289W        W54518  28.525  29.995   4.413
86290W        W54519  19.626  23.579   1.171
86291W        W54520  24.833  41.283   1.182
86292W        W54521   2.909  10.398   2.481
86293W        W54522  17.905   5.161   3.158
86294W        W54523  21.140  40.331   3.169
86295W        W54524  29.880  22.426   4.287
86296W        W54525   9.230  35.831  13.431
86297W        W54526  31.762  31.042  11.866
86298W        W54527  28.448  19.160  11.144
86299W        W54528   1.744  43.757   2.648
86300W        W54529   4.276  23.048   2.315
86301W        W54530  25.879  30.662   1.728
86302W        W54531  31.832   1.337   4.661
86303W        W54532  22.182  24.882  13.530
86304W        W54533   4.282   3.007   4.211
86305W        W54534  24.585  10.132   1.254
86306W        W54535  35.295  27.279  11.541
86307W        W54536   8.207  16.864   3.583
86308W        W54537   0.106   9.540   4.174
86309W        W54538   9.107   4.916   3.822
86310W        W54539   9.649   2.534  11.023
86311W        W54540   0.102  28.193   3.734
86312W        W54541  39.031  20.940   3.806
86313W        W54542   5.439  27.176  13.080
86314W        W54543  29.374  43.418   2.490
86315W        W54544   4.490   8.003   3.674
86316W        W54545  41.989  16.756   4.782
86317W        W54546  21.202   5.837  14.511
86318W        W54547  36.783  28.490   2.406
86319W        W54548  14.612  31.949   3.138
86320W        W54549   7.908   7.208  12.941
86321W        W54550  38.453  44.943  13.998
86322W        W54551   8.005  34.304   1.472
86323W        W54552  14.252  44.870   4.402
86324W        W54553  27.140  22.045   2.633
86325W        W54554  25.035  26.469  12.501
86326W        W54555  39.918   7.390  12.159
86327W        W54556  20.681  40.995  13.515
86328W        W54557  11.879  23.438   0.042
86329W        W54558  20.514  44.433  13.321
86330W        W54559   6.218  22.528   1.161
86331W        W54560  42.108   7.378  13.369
86332W        W54561  20.977  27.648   2.756
86333W        W54562  26.629  36.830  10.140
86334W        W54563  41.534  25.762   3.674
86335W        W54564  32.166  15.267  12.983
86336W        W54565  18.829  21.723   3.851
86337W        W54566  16.253  20.333   4.945
86338W        W54567  34.615  30.054   2.315
86339W        W54568   7.543  44.499   2.088
86340W        W54569  42.813  29.333   1.764
86341W        W54570  41.468  14.283   4.724
86342W        W54571  42.053  15.385  12.486
86343W        W54572   6.772   9.205   1.869
86344W        W54573  28.560  37.076  12.937
86345W        W54574  14.666  44.528  12.453
86346W        W54575  39.056  35.346   1.370
86347W        W54576  30.574  19.191   4.448
86348W        W54577  38.084  13.795  13.157
86349W        W54578  29.206  28.888   0.008
86350W        W54579   0.956  22.088   4.764
86351W        W54580  28.311   6.616   0.302
86352W        W54581  17.659  21.943   1.362
86353W        W54582   1.957   9.687  14.446
86354W        W54583  30.581   4.752   3.396
86355W        W54584  28.048  41.635  14.371
86356W        W54585   1.792  18.655  10.574
86357W        W54586  25.339  39.375  13.790
86358W        W54587   1.750  41.347   0.370
86359W        W54588  32.089  11.400   4.187
86360W        W54589  16.267  22.083   5.143
86361W        W54590  23.076  21.254   0.252
86362W        W54591   6.645  42.368  12.896
86363W        W54592  43.462  10.715  11.897
86364W        W54593  17.587   3.093  11.643
86365W        W54594   8.818  37.768  14.519
86366W        W54595  41.630  16.222  10.688
86367W        W54596  10.998  31.974  12.348
86368W        W54597  32.898   3.778   3.712
86369W        W54598  42.597  11.042  14.112
86370W        W54599  43.439  31.914   2.233
86371W        W54600  33.178  38.735   3.837
86372W        W54601  15.118  13.627   9.937
86373W        W54602  12.676  43.942  14.501
86374W        W54603   7.064  26.013  13.202
86375W        W54604  20.816  36.985  13.419
86376W        W54605  13.387   5.253  13.834
86377W        W54606  39.583  29.536   0.956
86378W        W54607  27.979  11.548  10.651
86379W        W54608  24.059  36.379  12.796
86380W        W54609   9.221   1.292  13.991
86381W        W54610  13.804  40.397   2.474
86382W        W54611  27.937  13.672   1.449
86383W        W54612   8.724  40.762   4.480
86384W        W54613  21.047  19.331   0.388
86385W        W54614  44.331  27.239   3.210
86386W        W54615  10.297   4.461  11.697
86387W        W54616  35.289   4.256   0.493
86388W        W54617  30.499  40.079  11.623
86389W        W54618  25.666  27.080  11.400
86390W        W54619  13.600  36.185  10.548
86391W        W54620   6.383   5.517  12.454
86392W        W54621  24.203  40.836  13.828
86393W        W54622  29.952  16.218  10.297
86394W        W54623  19.101   4.222   3.362
86395W        W54624  24.737  40.458  13.363
86396W        W54625   5.743  13.067  12.583
86397W        W54626  17.470  28.889  11.692
86398W        W54627  12.670  14.187  12.179
86399W        W54628  31.502   1.807   0.960
86400W        W54629  35.931   4.781  14.761
86401W        W54630   5.500  43.511  12.648
86402W        W54631  18.689  24.454  13.429
86403W        W54632  41.761   7.860  12.474
86404W        W54633  31.016  30.707   0.796
86405W        W54634  24.424  38.437   0.336
86406W        W54635  27.544  13.631   0.210
86407W        W54636  38.374  10.873  13.208
86408W        W54637  44.091   0.359  10.916
86409W        W54638  40.960  21.547   3.367
86410W        W54639  16.135   8.499  13.471
86411W        W54640  29.915  12.303   4.565
86412W        W54641   5.125   3.559   4.187
86413W        W54642  44.293   5.712   3.697
86414W        W54643  11.342  29.754   1.872
86415W        W54644  21.701  42.405   0.144
86416W        W54645   0.836  14.311  11.172
86417W        W54646  14.283   3.157   0.568
86418W        W54647  40.903  19.508  13.111
86419W        W54648   2.327   9.796  14.805
86420W        W54649  44.319  37.878  12.509
86421W        W54650  14.945  34.641  13.947
86422W        W54651  18.500  15.120   2.325
86423W        W54652   6.654  19.089   1.413
86424W        W54653  35.122  30.229  12.552
86425W        W54654  31.643  33.647  12.048
86426W        W54655  14.243  42.811  11.933
86427W        W54656  33.393   4.861  14.460
86428W        W54657  10.800   1.949   1.732
86429W        W54658  42.042  35.524  11.723
86430W        W54659  38.783   1.766  10.588
86431W        W54660  35.603  38.625   2.276
86432W        W54661  35.791  24.536  10.391
86433W        W54662   3.279  20.819   2.204
86434W        W54663  41.497  22.708   2.207
86435W        W54664  25.561  43.280   3.677
86436W        W54665  26.711  18.156   2.003
86437W        W54666  26.551   0.414   3.150
86438W        W54667  35.919  22.386   3.254
86439W        W54668  27.189  19.826   3.099
86440W        W54669  31.027   4.929   1.729
86441W        W54670  25.121  35.513   1.169
86442W        W54671  12.181  41.289   3.357
86443W        W54672   8.768  11.240   4.151
86444W        W54673  42.463  33.319   0.812
86445W        W54674   4.762  25.222  13.599
86446W        W54675  32.770   3.609  11.725
86447W        W54676  38.285  33.820   2.315
86448W        W54677   8.127  33.049   3.260
86449W        W54678  31.601  31.549   0.925
86450W        W54679  24.300  25.722  12.100
86451W        W54680  42.206  24.793  13.484
86452W        W54681   7.894  40.078   2.923
86453W        W54682  21.234   8.566   4.200
86454W        W54683  25.471   7.131  14.803
86455W        W54684  31.324   1.027  13.582
86456W        W54685   9.818  33.879  11.980
86457W        W54686  36.076  10.864  10.764
86458W        W54687   0.212  27.688   0.962
86459W        W54688  43.459  23.813  11.598
86460W        W54689  35.456  41.574  12.921
86461W        W54690   8.340  33.550  12.928
86462W        W54691  15.048  25.766   4.524
86463W        W54692  12.919  16.377  13.898
86464W        W54693  26.156  27.919  13.397
86465W        W54694  11.585   4.361   2.349
86466W        W54695  12.290   8.875   0.489
86467W        W54696  19.253  24.535  11.040
86468W        W54697  31.278  21.469   1.271
86469W        W54698  11.213  11.667   0.764
86470W        W54699   9.726  24.081  10.633
86471W        W54700  13.881  18.021   4.525
86472W        W54701  36.855   5.837   1.850
86473W        W54702  10.388   2.555  11.557
86474W        W54703  16.777   4.382  12.147
86475W        W54704  22.669  25.790   1.373
86476W        W54705  37.805  40.900  13.033
86477W        W54706  36.750  44.409   2.465
86478W        W54707  16.848   8.426   4.111
86479W        W54708  37.540  26.667   3.565
86480W        W54709  21.781  35.348  12.908
86481W        W54710  41.491  16.935   3.240
86482W        W54711   9.736   0.488   4.605
86483W        W54712  43.319  12.050   4.173
86484W        W54713  31.506  11.360   2.714
86485W        W54714   7.659   2.932  12.527
86486W        W54715  37.810  16.064  12.067
86487W        W54716  28.685  15.848  12.558
86488W        W54717  22.248   9.704  14.967
86489W        W54718  27.279  14.210   2.955
86490W        W54719  22.965  35.339   3.741
86491W        W54720  36.419   5.165   4.518
86492W        W54721  33.670  17.837   1.017
86493W        W54722  39.373   7.335   9.879
86494W        W54723  42.929   6.558  11.439
86495W        W54724  37.114  38.683   3.931
86496W        W54725  32.844  15.694   0.530
86497W        W54726  44.321  36.459  13.898
86498W        W54727   3.878  12.692   2.761
86499W        W54728  24.203  17.100  14.081
86500W        W54729  26.384   5.905  12.031
86501W        W54730   5.775   0.552  14.899
86502W        W54731  29.783  28.797   4.143
86503W        W54732  42.800  23.028   0.074
86504W        W54733  13.435  17.287  10.240
86505W        W54734  12.264   9.243  14.529
86506W        W54735   2.252  22.704   2.395
86507W        W54736  41.523   3.846   2.804
86508W        W54737  29.667  39.068   1.294
86509W        W54738  27.656  24.122  10.716
86510W        W54739  26.621  35.347   3.330
86511W        W54740   1.802  26.207  13.477
86512W        W54741  12.217  10.782   9.907
86513W        W54742   4.773  13.181   3.173
86514W        W54743  12.702  15.695  13.929
86515W        W54744  13.241  19.653  10.958
86516W        W54745  29.164  36.352   4.620
86517W        W54746   0.338   9.681  12.233
86518W        W54747  39.463   9.437   2.799
86519W        W54748  38.036  31.001   3.686
86520W        W54749  11.754  26.214  13.510
86521W        W54750  18.311   4.312   2.254
86522W        W54751  20.839  43.626   2.752
86523W        W54752  12.572  13.148  14.493
86524W        W54753   0.071   6.873  10.716
86525W        W54754   3.835  13.135   0.259
86526W        W54755  39.693   2.927  12.437
86527W        W54756   7.337  38.862   1.713
86528W        W54757  11.260  22.752   2.155
86529W        W54758  24.183  43.711  12.527
86530W        W54759  38.772  26.227  12.215
86531W        W54760  44.072  13.254  13.529
86532W        W54761  23.096  33.651   0.287
86533W        W54762  44.138  26.588   2.164
86534W        W54763  26.518   2.709   0.728
86535W        W54764  16.766   0.238  13.438
86536W        W54765   6.930   7.706   4.571
86537W        W54766  29.546   0.544   1.940
86538W        W54767  10.644  21.216   3.607
86539W        W54768   2.227  39.581  11.540
86540W        W54769  27.225   7.763  14.762
86541W        W54770  26.945   8.567   3.173
86542W        W54771   9.908  32.529   0.787
86543W        W54772  28.511  17.119   3.225
86544W        W54773   9.807   2.988   4.230
86545W        W54774  14.300  42.585  14.465
86546W        W54775  13.647  19.055  11.553
86547W        W54776  36.984  38.347  11.704
86548W        W54777  21.649  13.804  13.884
86549W        W54778   0.832  31.003   0.968
86550W        W54779  24.691  20.149   1.413
86551W        W54780  40.825   6.317  12.948
86552W        W54781  35.597  17.061   0.940
86553W        W54782  43.438   2.014  14.735
86554W        W54783  36.854   4.249  14.740
86555W        W54784   2.738   5.335   3.268
86556W        W54785  40.024  22.766  10.692
86557W        W54786  24.051   3.814   0.908
86558W        W54787  32.463  11.241  13.551
86559W        W54788  37.456  17.849   0.375
86560W        W54789  22.300   3.235  12.934
86561W        W54790  33.649  44.248   4.640
86562W        W54791   2.045   5.734  11.483
86563W        W54792  41.493   2.843  10.557
86564W        W54793  32.962  43.693   0.869
86565W        W54794  24.170  34.753  12.976
86566W        W54795   5.125  30.626   1.985
86567W        W54796   3.525  20.360  13.861
86568W        W54797  29.196   2.431  11.607
86569W        W54798  39.919  13.221   3.638
86570W        W54799   7.826  21.582   2.757
86571W        W54800  22.658  36.114   1.674
86572W        W54801  36.962   1.115   0.562
86573W        W54802  39.955  27.089   4.441
86574W        W54803  35.769  22.112  14.443
86575W        W54804  41.771  33.472  11.548
86576W        W54805  42.431   1.276   0.853
86577W        W54806  21.644  35.148  11.089
86578W        W54807  23.483  23.600  12.079
86579W        W54808  44.804  39.899   4.191
86580W        W54809  17.221  21.538   0.125
86581W        W54810  40.628   2.981  14.348
86582W        W54811  22.985  34.874   1.825
86583W        W54812  43.444  34.544   0.038
86584W        W54813  29.744  22.931  13.979
86585W        W54814   1.884  35.407  11.182
86586W        W54815  37.423  30.659  12.413
86587W        W54816   4.594  19.197  13.816
86588W        W54817  36.437  17.245  11.199
86589W        W54818   4.691  34.013  11.593
86590W        W54819   5.514   1.610  13.949
86591W        W54820  18.139  34.940   2.047
86592W        W54821  40.756  18.404  11.631
86593W        W54822  13.563  26.469  13.122
86594W        W54823   9.648  21.186  12.102
86595W        W54824   9.145  26.570   4.916
86596W        W54825  15.289  15.175   2.920
86597W        W54826  23.129  10.711  11.252
86598W        W54827   7.153  21.480  14.561
86599W        W54828  26.417   6.007   0.288
86600W        W54829  36.107  39.276  12.501
86601W        W54830  28.945  16.860   3.193
86602W        W54831  20.039   6.389   3.242
86603W        W54832  12.592  38.897   3.082
86604W        W54833  25.574   0.849   0.718
86605W        W54834  42.469  32.687   2.402
86606W        W54835  31.384  11.341   0.888
86607W        W54836  36.672  43.612  13.054
86608W        W54837   9.414  18.641  13.953
86609W        W54838  22.276  20.471  14.245
86610W        W54839   4.450  25.926   2.243
86611W        W54840  43.176  27.620  10.271
86612W        W54841  42.303  19.107   3.331
86613W        W54842  29.683  12.888   1.903
86614W        W54843   9.455  10.236  12.830
86615W        W54844  33.696  37.636   1.785
86616W        W54845  29.005  38.890  10.978
86617W        W54846  10.086  13.822  13.861
86618W        W54847   8.808  39.352  11.013
86619W        W54848  41.978   5.259  13.535
86620W        W54849  11.322   9.834   5.441
86621W        W54850   6.349  40.429  13.339
86622W        W54851   2.465  30.602  11.119
86623W        W54852   2.744  44.333  13.918
86624W        W54853  30.203  34.147  11.168
86625W        W54854  11.336  39.317  10.353
86626W        W54855  12.660  41.717   0.499
86627W        W54856  10.113  11.446   1.280
86628W        W54857   1.321  32.687  10.595
86629W        W54858  26.472  25.091  13.234
86630W        W54859  10.031   6.214  13.486
86631W        W54860  32.635  28.737  12.173
86632W        W54861  19.137  10.839  14.826
86633W        W54862   5.811   6.243  13.438
86634W        W54863  31.754  24.650   3.136
86635W        W54864   5.992  15.680  14.679
86636W        W54865   7.253  33.414  13.322
86637W        W54866  15.575   1.855  13.906
86638W        W54867   2.904   4.083   3.660
86639W        W54868  20.299  12.522  10.332
86640W        W54869  34.962  38.874   4.104
86641W        W54870  15.564  22.771  11.321
86642W        W54871   1.040  12.703  12.646
86643W        W54872  11.887  35.489   2.577
86644W        W54873  31.173  18.692   2.285
86645W        W54874  33.387   2.445   0.254
86646W        W54875  17.794  40.883  12.769
86647W        W54876  28.819  39.724  13.823
86648W        W54877  42.978  34.627   2.392
86649W        W54878   4.916  43.585  10.826
86650W        W54879   5.715   5.004  11.985
86651W        W54880  29.294  39.906  14.034
86652W        W54881  17.518  17.706  14.322
86653W        W54882   2.424   3.400  13.026
86654W        W54883   0.888  33.912  11.614
86655W        W54884  39.883  36.900   0.990
86656W        W54885  20.438   9.262  13.264
86657W        W54886  29.778  10.661   2.380
86658W        W54887  17.806  26.537   4.648
86659W        W54888   7.613  30.166   3.595
86660W        W54889   1.289  29.512  12.118
86661W        W54890  14.123  25.502   2.731
86662W        W54891   9.009  28.704   4.221
86663W        W54892  16.662  16.239  13.294
86664W        W54893  15.594   9.193  13.441
86665W        W54894  18.770  10.859   1.358
86666W        W54895  42.774  35.156  14.823
86667W        W54896  27.796  42.683   3.338
86668W        W54897   6.302   6.311  10.586
86669W        W54898  34.007   0.457   3.622
86670W        W54899  14.555  37.159   4.092
86671W        W54900   2.332  34.190   2.911
86672W        W54901  11.565  24.696  13.167
86673W        W54902  27.234   6.747  11.260
86674W        W54903  29.626  26.927   1.575
86675W        W54904   8.239   5.146  11.609
86676W        W54905  39.072  20.356   4.386
86677W        W54906  44.526   1.378  12.122
86678W        W54907   1.262   9.649   4.298
86679W        W54908  31.509  14.166  12.602
86680W        W54909  40.935   5.440  14.029
86681W        W54910   7.220  20.979  10.864
86682W        W54911  18.694  18.293  12.828
86683W        W54912  24.141   0.085  12.798
86684W        W54913  20.664  36.467   4.610
86685W        W54914  13.825  31.449  12.532
86686W        W54915  10.704   0.851   0.410
86687W        W54916  19.147   8.088   4.111
86688W        W54917  37.806   2.201  11.614
86689W        W54918  25.728  11.146  13.369
86690W        W54919   9.765  37.010  13.139
86691W        W54920  31.684  28.934  12.907
86692W        W54921  29.064   8.679   3.569
86693W        W54922  32.012  33.022   1.894
86694W        W54923   4.949  27.024  12.961
86695W        W54924  21.159   7.389  12.686
86696W        W54925  19.306  32.413   2.364
86697W        W54926   2.417  14.635   0.751
86698W        W54927  35.158  25.424   0.273
86699W        W54928   8.564   3.052  11.164
86700W        W54929   5.120   4.361  10.612
86701W        W54930   4.730  28.647   0.869
86702W        W54931  22.551   0.279   2.841
86703W        W54932  18.689  44.685   3.543
86704W        W54933  15.808  18.997  12.017
86705W        W54934  35.483  16.781  13.330
86706W        W54935  26.732  20.013   4.206
86707W        W54936  44.239  35.851  13.052
86708W        W54937  40.263  35.095  12.509
86709W        W54938  43.292  26.130  14.298
86710W        W54939   4.508  41.621  11.103
86711W        W54940   2.335  10.793  10.485
86712W        W54941  25.488   8.382   1.662
86713W        W54942  28.117  26.057  12.040
86714W        W54943  17.296   9.803  13.244
86715W        W54944  32.404   3.890  11.998
86716W        W54945   7.886  13.329  12.846
86717W        W54946  33.570  13.892   0.217
86718W        W54947  36.554  21.649   1.478
86719W        W54948   7.126  10.098  11.953
86720W        W54949   3.996  27.001  12.797
86721W        W54950  28.677  39.968  11.546
86722W        W54951  35.337  13.867   1.709
86723W        W54952  27.497   9.116   2.800
86724W        W54953  31.619   0.288  10.671
86725W        W54954  37.648  30.527  12.911
86726W        W54955  43.724  12.554   0.783
86727W        W54956  37.997  33.865   1.472
86728W        W54957  36.431  29.879   2.194
86729W        W54958  15.640  32.034  10.314
86730W        W54959  19.991  22.168  14.854
86731W        W54960  18.381  35.521   1.263
86732W        W54961  27.130  36.880  14.049
86733W        W54962  20.568   0.917  12.193
86734W        W54963   7.627   8.860  14.747
86735W        W54964   0.327  43.972   4.662
86736W        W54965  10.548  39.999  14.292
86737W        W54966  34.909   1.615   0.692
86738W        W54967  10.910  44.952  13.056
86739W        W54968  29.159  20.117  13.082
86740W        W54969   4.451  37.128   5.279
86741W        W54970  31.975  25.870  10.864
86742W        W54971  28.072  31.813   1.855
86743W        W54972  25.171  39.025  14.527
86744W        W54973  21.237  13.589  12.435
86745W        W54974  30.647  11.300  12.665
86746W        W54975  41.373   9.680   4.110
86747W        W54976   2.448  41.721   2.365
86748W        W54977  41.345  26.998  10.893
86749W        W54978   3.108   2.298  12.419
86750W        W54979  38.336   4.679  12.406
86751W        W54980  37.556   8.745   3.678
86752W        W54981  25.957  32.074   4.223
86753W        W54982   1.348  34.388   0.838
86754W        W54983   7.356  20.148   0.894
86755W        W54984  23.051  43.317  12.127
86756W        W54985  18.589   2.084   0.939
86757W        W54986  24.170   1.855  11.637
86758W        W54987   9.369  20.273   0.764
86759W        W54988  44.605  18.151   4.325
86760W        W54989  23.114  16.176   2.105
86761W        W54990  29.707  19.964   3.212
86762W        W54991   9.647  36.460   0.771
86763W        W54992  32.580  41.636  11.664
86764W        W54993  21.267  28.495   1.234
86765W        W54994  43.472  20.341   0.330
86766W        W54995  28.277  37.689   4.768
86767W        W54996  39.771  11.716  13.395
86768W        W54997  17.533  40.876  10.733
86769W        W54998  39.751  15.122  10.697
86770W        W54999   7.658  14.250   2.207
86771W        W55000  44.559  13.464  11.591
86772W        W55001  44.701  43.938  13.615
86773W        W55002  15.825   0.605  12.909
86774W        W55003  28.510  32.131   0.375
86775W        W55004  33.981  11.637  13.246
86776W        W55005  33.787  37.679  10.561
86777W        W55006  28.719  42.517   3.432
86778W        W55007  13.303   0.781  12.400
86779W        W55008   3.763  12.612  10.928
86780W        W55009  31.998  19.980  14.135
86781W        W55010  30.604  18.406  14.070
86782W        W55011   4.841  31.338   2.657
86783W        W55012  38.436  32.124   4.628
86784W        W55013  21.646  12.309   1.337
86785W        W55014   2.864  15.842   4.950
86786W        W55015  14.442  42.255   2.729
86787W        W55016  44.914   9.760  10.933
86788W        W55017  26.982  33.567  11.170
86789W        W55018  31.453   1.858  10.612
86790W        W55019  16.279  35.966   2.658
86791W        W55020  18.995  33.645  14.757
86792W        W55021  33.522  32.586   4.460
86793W        W55022  21.168  35.308   2.349
86794W        W55023   6.913  35.502   3.661
86795W        W55024  37.447   8.400   0.269
86796W        W55025  33.913  22.609   0.280
86797W        W55026  14.265  16.339   0.812
86798W        W55027  35.613  37.547   1.803
86799W        W55028  39.880  18.070  11.159
86800W        W55029   6.386  37.131   0.303
86801W        W55030  42.542  19.780  10.752
86802W        W55031   4.277  39.352  14.860
86803W        W55032  16.328  10.748   3.355
86804W        W55033  14.303  43.472   5.031
86805W        W55034  16.730  30.827   0.917
86806W        W55035  13.536  38.962   4.543
86807W        W55036  27.479  20.234  12.641
86808W        W55037   7.139  15.377  10.454
86809W        W55038  30.544  38.986  11.697
86810W        W55039   4.905   2.486   3.712
86811W        W55040  40.724  28.614  14.955
86812W        W55041   8.885  12.526   0.365
86813W        W55042  35.476  41.220   0.429
86814W        W55043  16.990  24.003  14.244
86815W        W55044   1.262  18.790   4.229
86816W        W55045  41.057  23.934   2.762
86817W        W55046   5.456  22.664  12.990
86818W        W55047  10.300  40.703   0.767
86819W        W55048  21.678   3.402  11.985
86820W        W55049  12.355  12.208   1.337
86821W        W55050  41.871  28.262  10.464
86822W        W55051  13.679  42.654  13.707
86823W        W55052  37.526  14.591  11.106
86824W        W55053  14.185  16.545   2.172
86825W        W55054  17.114  32.778  11.454
86826W        W55055   3.835  18.669  14.260
86827W        W55056  30.576   3.072   0.386
86828W        W55057  26.945  29.110  12.176
86829W        W55058  18.731  28.472   2.269
86830W        W55059  29.407  39.784  14.849
86831W        W55060  27.564  20.301  14.420
86832W        W55061   9.874   9.721   2.391
86833W        W55062  26.909  12.304   2.610
86834W        W55063  18.127  37.288  11.994
86835W        W55064  15.809  25.635  12.131
86836W        W55065  38.023  37.354  14.335
86837W        W55066  10.949   4.062  13.419
86838W        W55067  14.660  33.116   3.699
86839W        W55068  14.620  26.688  13.839
86840W        W55069  31.978  37.272  12.959
86841W        W55070  13.182   1.479  10.815
86842W        W55071  35.568  34.780   2.190
86843W        W55072   9.645   2.797  12.850
86844W        W55073   6.648  32.168  12.998
86845W        W55074  31.845  30.324  11.093
86846W        W55075  18.208  19.616   4.008
86847W        W55076   8.227  41.817  13.870
86848W        W55077  42.592  27.696  11.958
86849W        W55078  18.684  36.809   2.263
86850W        W55079   2.438  19.782   3.316
86851W        W55080  27.478  37.971  11.800
86852W        W55081  12.697  21.619  12.822
86853W        W55082  35.819  18.210   1.306
86854W        W55083  27.389  30.770   0.456
86855W        W55084  41.494  34.995   4.485
86856W        W55085  14.122  39.921   4.357
86857W        W55086  11.674  39.697   2.776
86858W        W55087   5.800   3.349  10.416
86859W        W55088  32.089   9.141  13.035
86860W        W55089  39.802  16.610  11.608
86861W        W55090  37.433  27.779   0.812
86862W        W55091   2.363  20.976   0.875
86863W        W55092  21.916  14.896   2.544
86864W        W55093  41.022  31.382   3.628
86865W        W55094  18.738   7.961  13.531
86866W        W55095  11.634   3.833   2.476
86867W        W55096  30.690  34.164  13.501
86868W        W55097  12.195  27.500  12.454
86869W        W55098  21.435  44.830   3.003
86870W        W55099  18.189  37.924   3.213
86871W        W55100  20.161  37.465  12.101
86872W        W55101  25.921  43.219   1.229
86873W        W55102  15.249  12.691   3.693
86874W        W55103  40.810  25.574   2.413
86875W        W55104  16.089  10.257  12.153
86876W        W55105  13.482  42.314   0.067
86877W        W55106  17.539  28.218   3.706
86878W        W55107   1.778  34.978  14.264
86879W        W55108   8.704  11.690   3.128
86880W        W55109  37.528  15.060  14.753
86881W        W55110   8.295  22.245  10.689
86882W        W55111  36.070  42.512  14.914
86883W        W55112  21.168  31.220  10.795
86884W        W55113  28.433  29.613  11.913
86885W        W55114  13.246  22.794  13.026
86886W        W55115  41.013  23.279  10.839
86887W        W55116  37.276  31.473  12.929
86888W        W55117  37.281   5.445   0.638
86889W        W55118   1.854  29.843   0.259
86890W        W55119   1.206  30.040   4.816
86891W        W55120   8.758  25.178   3.369
86892W        W55121  38.086  26.527   3.595
86893W        W55122  10.301  23.993   1.172
86894W        W55123  21.870   7.704  11.055
86895W        W55124  40.546   1.104  13.089
86896W        W55125  26.436  29.471  13.439
86897W        W55126  40.872   3.110  10.857
86898W        W55127   3.900  26.486   1.711
86899W        W55128  42.043  28.827  11.756
86900W        W55129  30.075  42.630   3.722
86901W        W55130   6.479   1.003   0.281
86902W        W55131  10.223   1.834   3.292
86903W        W55132  41.399   0.759   3.832
86904W        W55133  14.507   0.965   2.983
86905W        W55134  31.913  14.712   5.050
86906W        W55135   5.708   7.304  13.520
86907W        W55136   4.796  15.534   1.416
86908W        W55137  19.990   0.954   0.401
86909W        W55138  43.333  34.209  14.627
86910W        W55139  15.118  25.706   1.360
86911W        W55140   1.856   0.125  14.649
86912W        W55141  41.836  15.768  12.235
86913W        W55142   4.899   2.788  12.907
86914W        W55143   0.587  26.270   4.600
86915W        W55144  16.979  32.336  10.005
86916W        W55145  27.980   9.636   3.292
86917W        W55146  29.890   0.756   1.568
86918W        W55147  20.835  36.946   3.226
86919W        W55148   3.344  30.166   2.780
86920W        W55149  33.431  27.163   0.249
86921W        W55150  42.882   1.233  10.697
86922W        W55151  31.024  13.778  14.051
86923W        W55152  22.785  35.815   4.192
86924W        W55153  16.318  31.949   2.379
86925W        W55154  36.095  32.920  14.894
86926W        W55155  36.414  41.051   2.868
86927W        W55156  35.106  37.823  10.947
86928W        W55157  36.899  10.721  13.997
86929W        W55158  15.798  27.364   1.205
86930W        W55159  35.844  42.043   0.725
86931W        W55160  44.276  32.722   2.418
86932W        W55161  28.420  22.123   3.197
86933W        W55162   0.951  27.491  10.697
86934W        W55163  36.568  16.175  13.780
86935W        W55164  29.139  28.457  10.718
86936W        W55165   8.754  34.670   3.905
86937W        W55166  38.996  30.626   1.317
86938W        W55167  34.444  20.866   3.804
86939W        W55168  17.296  19.668   3.890
86940W        W55169  40.602  18.035  13.249
86941W        W55170  30.332  20.207   4.686
86942W        W55171  25.115   9.882   5.389
86943W        W55172  22.027  10.081   0.928
86944W        W55173  27.239  41.960   3.687
86945W        W55174  38.096  12.393   2.181
86946W        W55175   0.398  36.584  11.058
86947W        W55176  41.480  19.293  12.180
86948W        W55177   6.858   0.196  13.152
86949W        W55178  40.588  41.657   1.868
86950W        W55179  43.779   0.015  13.550
86951W        W55180  40.884  38.393   1.701
86952W        W55181  37.685  29.680  13.319
86953W        W55182   8.898   2.495   0.487
86954W        W55183   1.308  11.783   1.794
86955W        W55184  19.817  26.100  12.848
86956W        W55185  36.450  22.608   2.419
86957W        W55186  38.329  35.648   4.289
86958W        W55187  41.809  20.374   3.134
86959W        W55188   9.439   9.394  14.579
86960W        W55189   4.451  18.132   4.458
86961W        W55190  30.105  15.087  14.663
86962W        W55191  20.275  25.777   1.316
86963W        W55192  42.293  26.342  12.120
86964W        W55193   2.400  36.330  14.931
86965W        W55194   0.376  37.014   0.237
86966W        W55195  26.167  12.001  13.363
86967W        W55196  10.813   9.909   0.834
86968W        W55197  19.590   0.849   4.205
86969W        W55198  38.920  16.311   3.214
86970W        W55199  11.770  16.294   1.946
86971W        W55200   0.843   0.827   0.958
86972W        W55201  27.954  42.253  11.580
86973W        W55202  11.545  13.404  13.398
86974W        W55203  44.339  44.684   4.214
86975W        W55204  41.877  15.019  12.804
86976W        W55205   1.786  34.588   1.048
86977W        W55206   8.595   1.282   0.918
86978W        W55207  16.722  38.904   0.976
86979W        W55208   0.392  25.319   0.352
86980W        W55209  26.123  18.343   0.461
86981W        W55210  15.862  40.001   4.975
86982W        W55211  43.913  31.178   0.951
86983W        W55212   3.207  27.186  11.133
86984W        W55213  35.882  36.957  13.928
86985W        W55214  33.884   2.509  12.340
86986W        W55215  39.590  38.051   3.825
86987W        W55216  42.047  10.906   2.866
86988W        W55217   4.333  18.049  10.517
86989W        W55218  32.383  38.337   0.638
86990W        W55219  26.076  39.915   0.981
86991W        W55220  41.279   9.386   4.543
86992W        W55221  12.410   3.437  11.002
86993W        W55222  28.495  20.524   0.453
86994W        W55223  16.914  18.700   0.071
86995W        W55224  20.517   3.226  12.598
86996W        W55225  21.894  16.115  14.401
86997W        W55226  37.791  31.477   1.110
86998W        W55227  24.434  43.399  12.149
86999W        W55228  42.900  24.808  10.200
87000W        W55229  39.497  31.880  14.785
87001W        W55230   8.377  41.013   3.730
87002W        W55231   9.796  21.268   2.785
87003W        W55232   0.189  23.550  13.857
87004W        W55233   5.921  30.445  14.489
87005W        W55234  11.211  31.469   4.083
87006W        W55235  17.602  35.429   0.820
87007W        W55236  21.233   1.230  14.144
87008W        W55237  37.400  20.274   0.889
87009W        W55238  36.472   2.474   3.278
87010W        W55239   8.715  15.469  13.606
87011W        W55240  26.976  15.903   3.627
87012W        W55241  20.798  39.599  10.706
87013W        W55242  31.431  30.613   0.458
87014W        W55243  37.024  16.799  13.425
87015W        W55244  16.165  13.213   4.425
87016W        W55245   8.401   9.838   3.837
87017W        W55246  12.700  17.092   2.827
87018W        W55247  10.041  37.839  13.989
87019W        W55248   1.366  32.682   0.691
87020W        W55249  42.565  32.281   3.345
87021W        W55250  12.646  14.090  14.931
87022W        W55251  26.697  22.475  10.816
87023W        W55252  29.870  20.494   4.574
87024W        W55253  19.664  22.832  10.619
87025W        W55254  40.956   1.018   3.899
87026W        W55255  25.192  32.693   2.780
87027W        W55256  23.986  19.281   2.363
87028W        W55257  35.147   2.894  11.096
87029W        W55258  32.911  13.092   0.333
87030W        W55259  43.008  15.598   2.315
87031W        W55260  18.932   5.088   3.765
87032W        W55261  21.216  26.116  12.552
87033W        W55262  37.330  10.171   3.795
87034W        W55263  21.837  36.863   2.849
87035W        W55264  30.254  29.031   0.478
87036W        W55265   4.816   6.154  11.252
87037W        W55266  33.397  28.694   0.942
87038W        W55267   3.409  13.343   2.444
87039W        W55268   6.375  29.962  12.126
87040W        W55269  11.808  44.306   0.626
87041W        W55270  32.192  41.043   0.715
87042W        W55271  40.075  18.762  12.984
87043W        W55272  19.374   0.032  13.832
87044W        W55273  10.225  16.864  10.497
87045W        W55274  23.762  24.307   2.923
87046W        W55275  30.125   6.290   4.337
87047W        W55276  34.264   3.234   4.212
87048W        W55277  10.559  42.330  11.436
87049W        W55278  42.459  37.874  13.149
87050W        W55279   0.677  42.736  12.361
87051W        W55280  42.420   0.329   2.910
87052W        W55281  13.223  19.190   0.058
87053W        W55282  36.729  30.916   4.525
87054W        W55283  37.841  38.562   2.666
87055W        W55284   7.653  41.036  13.426
87056W        W55285  15.693   0.071  11.604
87057W        W55286  39.784  28.993  10.621
87058W        W55287  33.472  16.128   3.516
87059W        W55288   8.750  11.233   1.328
87060W        W55289  28.970  12.690  13.537
87061W        W55290  41.412  20.427  12.377
87062W        W55291  13.362   9.202   3.817
87063W        W55292  25.384  37.688  14.533
87064W        W55293   5.734  16.653  13.673
87065W        W55294  38.533  44.944   4.155
87066W        W55295  31.114  30.862   2.151
87067W        W55296  28.552   5.217  10.988
87068W        W55297  38.903   9.838   4.405
87069W        W55298  43.313  27.704   2.422
87070W        W55299   0.850  42.753  10.661
87071W        W55300  30.314  27.115   2.388
87072W        W55301  30.628  11.208   2.658
87073W        W55302  37.708   5.377   1.908
87074W        W55303  28.407  38.964  13.200
87075W        W55304  14.207  43.253  12.339
87076W        W55305  11.268  17.067   1.874
87077W        W55306  40.180  14.554   3.367
87078W        W55307   0.961   9.910   4.676
87079W        W55308  26.717  13.078   0.771
87080W        W55309   0.269   6.959  13.541
87081W        W55310  34.925  38.099  13.898
87082W        W55311  35.362  21.747   3.230
87083W        W55312  27.168   5.431   0.016
87084W        W55313  29.689  17.027   9.858
87085W        W55314  19.513  34.042   3.224
87086W        W55315   9.651  43.827  12.083
87087W        W55316  33.836  33.480   3.798
87088W        W55317   7.818  17.954   0.535
87089W        W55318  18.485   2.295  13.718
87090W        W55319  43.013  17.090   0.708
87091W        W55320   7.890   1.001   1.608
87092W        W55321  18.736  35.417  11.125
87093W        W55322  37.365  34.919   2.395
87094W        W55323  27.960   6.994   0.348
87095W        W55324  20.310  40.774   4.396
87096W        W55325  38.083  18.482   3.239
87097W        W55326  44.291   6.196  11.231
87098W        W55327  37.329  27.498   4.515
87099W        W55328  31.965  27.482   2.184
87100W        W55329  24.587   7.784   4.284
87101W        W55330  39.617  34.190   1.761
87102W        W55331  18.703  40.377  12.362
87103W        W55332  21.496  32.951   4.092
87104W        W55333  43.040  44.467  13.390
87105W        W55334  31.506  23.530   4.533
87106W        W55335  28.437  23.770   0.376
87107W        W55336  10.583   5.413   4.512
87108W        W55337  40.104   8.871  11.962
87109W        W55338  25.565   9.706  13.917
87110W        W55339  26.457   6.753   4.475
87111W        W55340  16.542  27.724  14.022
87112W        W55341  20.676  12.339  12.168
87113W        W55342  40.059  35.089  13.951
87114W        W55343  15.825   8.832   3.257
87115W        W55344  20.804   4.026  11.983
87116W        W55345  43.398  13.533  13.045
87117W        W55346  10.170  16.709   0.784
87118W        W55347  25.997   6.992   3.323
87119W        W55348  29.340   3.318   3.968
87120W        W55349  28.961  11.749   2.318
87121W        W55350  22.430   0.381   5.223
87122W        W55351  19.628  38.546  11.687
87123W        W55352  23.718   4.440   0.546
87124W        W55353  14.098   9.438   1.903
87125W        W55354  35.668  34.820  12.130
87126W        W55355  20.589  39.655   3.224
87127W        W55356   0.012   8.263  13.005
87128W        W55357   1.829  43.749   4.881
87129W        W55358  19.031   2.141  12.400
87130W        W55359  43.606   3.918   1.708
87131W        W55360  21.139  16.769   1.327
87132W        W55361  43.297  35.735  10.891
87133W        W55362  20.947  11.852   1.244
87134W        W55363  30.376  17.689   0.522
87135W        W55364  43.455  31.187  12.835
87136W        W55365  38.414  27.083   1.252
87137W        W55366   0.430   3.337  12.286
87138W        W55367  22.263  38.756  11.480
87139W        W55368   5.367   9.077   0.475
87140W        W55369  21.046  31.010   2.613
87141W        W55370  36.126   0.341   3.057
87142W        W55371  22.474  25.122  12.329
87143W        W55372  25.574  13.177  13.330
87144W        W55373   8.368  13.142  12.873
87145W        W55374   6.001  24.218  12.260
87146W        W55375   9.655  19.571  14.323
87147W        W55376  43.389   2.531   0.525
87148W        W55377  36.960  26.687   0.347
87149W        W55378  43.362  18.795  11.979
87150W        W55379  11.780  10.383  13.855
87151W        W55380   3.854  18.598   3.783
87152W        W55381  14.853  23.739   1.818
87153W        W55382  29.461   3.891   3.273
87154W        W55383  44.228  12.245  11.128
87155W        W55384   7.821  34.540  11.444
87156W        W55385  22.635  23.934   1.973
87157W        W55386  25.240  20.699   2.836
87158W        W55387  30.175  15.971   3.088
87159W        W55388   6.418  27.123   4.304
87160W        W55389  38.525  39.474   4.405
87161W        W55390  38.751   0.587   3.676
87162W        W55391  34.990  42.306  14.360
87163W        W55392  20.173  39.780  13.243
87164W        W55393  38.991  19.872   4.190
87165W        W55394  13.093  39.942  12.859
87166W        W55395  36.175  19.225  11.121
87167W        W55396  35.962  20.034  10.800
87168W        W55397  12.919  28.232  13.821
87169W        W55398  32.232  41.834  12.984
87170W        W55399   3.194  39.532   4.450
87171W        W55400  35.533   8.435  11.254
87172W        W55401  10.720  32.241   0.485
87173W        W55402  26.939  14.603   2.707
87174W        W55403  20.794  32.547   4.494
87175W        W55404  39.235  20.595  12.867
87176W        W55405  17.812  36.077   1.787
87177W        W55406  25.968  29.893  12.642
87178W        W55407  33.064  17.549   0.675
87179W        W55408  37.756  36.809   4.744
87180W        W55409  26.191  33.018  13.568
87181W        W55410  14.197  28.240  11.962
87182W        W55411  24.437  40.298  11.303
87183W        W55412  39.496  38.588  13.792
87184W        W55413  25.933  42.379  10.777
87185W        W55414  14.859  17.040  11.147
87186W        W55415   6.690  44.727  10.749
87187W        W55416  35.048  18.741  10.092
87188W        W55417  16.180  38.105   1.015
87189W        W55418  29.051   8.484  13.174
87190W        W55419   9.230  38.284  14.979
87191W        W55420  29.996   8.128  12.509
87192W        W55421  27.432  12.106  13.708
87193W        W55422  13.142  19.059  11.240
87194W        W55423   2.963   2.977  11.555
87195W        W55424  22.040  15.360  11.603
87196W        W55425  29.313  36.205   2.526
87197W        W55426  43.740  41.357  14.995
87198W        W55427  42.013   7.179   0.161
87199W        W55428  27.547  12.582  12.365
87200W        W55429  27.284  41.408  11.704
87201W        W55430   7.031  12.538   2.126
87202W        W55431  32.511  15.308  10.696
87203W        W55432  40.926  16.745   4.044
87204W        W55433  22.785   6.279  13.314
87205W        W55434  41.405   9.419   0.286
87206W        W55435  22.660  16.356   2.909
87207W        W55436  13.712   9.582   1.368
87208W        W55437  25.166  22.135  13.476
87209W        W55438   9.655  21.329   3.744
87210W        W55439   2.336  22.949  13.572
87211W        W55440  36.417  32.935   2.289
87212W        W55441  27.884  19.835   0.963
87213W        W55442  35.464  22.460   1.212
87214W        W55443  35.391  18.219   2.262
87215W        W55444  10.158   6.587   3.823
87216W        W55445   5.220  15.999  14.414
87217W        W55446  43.727  43.711  14.945
87218W        W55447  10.380   2.837  14.363
87219W        W55448  25.251  41.899  14.242
87220W        W55449  19.028  36.739  11.033
87221W        W55450   6.694  31.924   0.625
87222W        W55451  16.048  43.853   3.531
87223W        W55452   8.466   0.998  12.339
87224W        W55453  29.923  26.235   2.066
87225W        W55454  43.087  16.466   2.866
87226W        W55455  40.088  32.769   0.632
87227W        W55456  14.622  40.886   1.123
87228W        W55457  31.621   8.236   3.228
87229W        W55458   7.163  40.905  13.393
87230W        W55459  21.970  26.653  11.492
87231W        W55460   4.805  13.789  14.559
87232W        W55461  44.361  41.078   2.121
87233W        W55462   0.842  20.129   0.739
87234W        W55463   4.255  39.359  13.887
87235W        W55464  27.544  23.238   3.464
87236W        W55465  25.381  21.589   4.030
87237W        W55466  15.572  12.245   3.690
87238W        W55467  29.125   0.786   0.752
87239W        W55468  14.715  31.835   2.286
87240W        W55469  11.092  24.027   1.208
87241W        W55470  21.414  24.761   4.941
87242W        W55471  33.124  22.585   5.069
87243W        W55472   1.923  28.232   2.903
87244W        W55473  32.161  14.760  13.852
87245W        W55474  43.702  18.274   3.376
87246W        W55475   2.228   3.971   1.140
87247W        W55476  27.430  23.449   1.969
87248W        W55477   8.789   1.808   2.156
87249W        W55478   7.247  15.040  13.396
87250W        W55479  15.100   0.299  12.405
87251W        W55480  31.424  16.485  14.040
87252W        W55481  43.034   9.550  14.191
87253W        W55482  29.268   5.250   4.839
87254W        W55483  13.865   7.417   0.969
87255W        W55484  28.229  27.990   4.326
87256W        W55485   5.323  37.005  14.396
87257W        W55486  22.476  36.780   0.507
87258W        W55487  42.045  42.298  11.761
87259W        W55488  34.214  20.970   0.677
87260W        W55489  16.907  20.525   3.307
87261W        W55490  36.119  41.004  13.557
87262W        W55491  24.646  16.183  14.017
87263W        W55492   2.530  19.202   1.212
87264W        W55493  36.956  35.025  11.911
87265W        W55494  10.165  38.885  10.643
87266W        W55495   0.511   0.267  13.450
87267W        W55496  21.282  29.833   1.935
87268W        W55497   3.015  40.386   2.283
87269W        W55498  41.776  20.629   0.893
87270W        W55499  37.467  34.456  13.341
87271W        W55500  10.961   1.225   2.085
87272W        W55501   6.184  12.392   2.136
87273W        W55502  13.027  44.446   3.699
87274W        W55503  13.878  17.679  11.554
87275W        W55504   9.334   4.081   3.571
87276W        W55505  32.919   2.301   0.408
87277W        W55506   6.264   7.158  10.279
87278W        W55507  30.921  30.453  14.370
87279W        W55508  42.155   6.693   4.546
87280W        W55509  42.964  30.034   3.862
87281W        W55510  28.566  22.510  10.738
87282W        W55511  41.493  25.181   2.440
87283W        W55512  32.991  32.458   2.977
87284W        W55513  31.982  41.558  12.628
87285W        W55514   7.269  37.527   4.670
87286W        W55515  15.252  28.252   1.953
87287W        W55516  16.878  37.338  10.593
87288W        W55517   5.892   2.352  13.544
87289W        W55518  11.273   9.912  14.530
87290W        W55519  30.944  25.200   2.690
87291W        W55520  29.714  39.022   3.293
87292W        W55521  21.796  19.762  11.598
87293W        W55522  39.497  10.905   1.577
87294W        W55523  20.958  38.029   1.133
87295W        W55524  19.629   7.658   3.252
87296W        W55525  26.101  10.306   1.451
87297W        W55526  32.348  20.058   0.400
87298W        W55527  40.762  11.058  11.602
87299W        W55528  44.165  21.374   5.019
87300W        W55529  18.857  14.078   5.117
87301W        W55530   0.292  12.832  14.822
87302W        W55531   2.824  14.114  12.093
87303W        W55532  43.019  44.879   1.873
87304W        W55533  30.080   9.710  11.758
87305W        W55534  23.457  21.759  12.909
87306W        W55535  35.907  33.625   2.559
87307W        W55536   5.715  26.624   3.865
87308W        W55537  12.397  23.000   4.095
87309W        W55538  21.735  28.696   4.071
87310W        W55539  24.378  25.585   2.364
87311W        W55540  30.044  11.885   4.245
87312W        W55541  15.101   3.518   2.819
87313W        W55542  40.427   6.722  13.927
87314W        W55543  10.913  35.833   3.556
87315W        W55544  19.152  30.912  11.288
87316W        W55545  12.698  31.006   2.432
87317W        W55546  16.014  28.616   0.484
87318W        W55547  25.219  34.568  14.267
87319W        W55548  16.756  42.792   3.114
87320W        W55549   5.895  18.926  12.713
87321W        W55550  43.549  15.159   1.831
87322W        W55551  25.893   1.026   3.636
87323W        W55552   8.305  38.914   1.774
87324W        W55553  44.862  20.197  14.399
87325W        W55554  34.417   7.020  13.383
87326W        W55555  19.810  37.429  10.315
87327W        W55556  38.347  17.960  10.662
87328W        W55557  13.308  21.230  10.707
87329W        W55558  18.629  28.418  11.567
87330W        W55559  30.869   4.517   0.451
87331W        W55560  20.017  25.869   4.933
87332W        W55561   4.707  19.865   1.105
87333W        W55562  20.489   6.264   1.306
87334W        W55563  34.331  14.644   0.931
87335W        W55564  18.498  41.151   4.132
87336W        W55565  11.243  24.137  14.239
87337W        W55566  44.051   1.171   1.334
87338W        W55567  18.344   3.430   1.681
87339W        W55568  23.433  14.754   1.489
87340W        W55569  39.032  21.600  13.847
87341W        W55570   7.238   6.257  14.882
87342W        W55571  36.789  35.330  11.552
87343W        W55572   4.728  21.608  13.493
87344W        W55573  12.758  43.542   1.937
87345W        W55574  18.610  24.210   3.215
87346W        W55575  33.337  44.658   4.684
87347W        W55576  11.444  18.028  13.449
87348W        W55577  11.323   3.630  12.565
87349W        W55578  29.607  32.939  12.498
87350W        W55579  24.895   3.484   3.163
87351W        W55580   5.344  10.883   2.846
87352W        W55581  11.354  41.945   3.146
87353W        W55582  23.286  21.067   4.589
87354W        W55583  38.992   0.899   5.376
87355W        W55584  18.572  36.525   3.752
87356W        W55585  26.386  13.820  11.121
87357W        W55586  25.040  13.621  14.741
87358W        W55587   8.848   4.710  10.842
87359W        W55588  39.976  17.702   4.114
87360W        W55589  17.329   6.789  13.043
87361W        W55590  23.181  15.988  14.353
87362W        W55591  17.669  17.569   1.174
87363W        W55592  15.494   4.390   1.697
87364W        W55593  43.076   4.343  13.225
87365W        W55594  43.287   9.774   4.594
87366W        W55595  41.507   5.182   4.287
87367W        W55596  15.695  23.688  10.859
87368W        W55597  21.440  14.124   1.814
87369W        W55598  38.026  20.780   2.947
87370W        W55599  16.134   4.969  14.738
87371W        W55600  37.328  43.549  12.471
87372W        W55601  33.623   2.351   0.799
87373W        W55602   3.574  36.018   4.128
87374W        W55603   2.895  23.658  14.597
87375W        W55604  27.928  13.440  14.806
87376W        W55605  43.475  28.021   4.567
87377W        W55606   5.912  27.894   3.321
87378W        W55607  20.168   0.664  13.541
87379W        W55608  35.150  31.083  14.556
87380W        W55609  29.606  23.200   1.836
87381W        W55610  36.308  44.018  10.869
87382W        W55611   9.863  20.003  14.068
87383W        W55612  28.099   7.709  12.078
87384W        W55613  28.048  39.522  13.297
87385W        W55614  19.063  24.442   9.720
87386W        W55615  39.515  42.875  14.954
87387W        W55616  27.950  33.805   0.393
87388W        W55617  33.154  10.582  14.494
87389W        W55618  42.817  18.835  13.077
87390W        W55619  41.850  16.492   3.789
87391W        W55620   1.623  33.212  11.658
87392W        W55621  23.056  28.431  14.424
87393W        W55622  40.524   7.280   2.682
87394W        W55623   4.771  34.521   4.542
87395W        W55624   6.352  43.572   2.727
87396W        W55625   2.054   0.438  13.787
87397W        W55626  19.259   7.974   0.741
87398W        W55627  27.273  24.040  14.991
87399W        W55628   2.132  40.801  14.294
87400W        W55629  10.841   3.262  13.924
87401W        W55630  14.698  12.308  10.606
87402W        W55631  10.546  40.955   3.734
87403W        W55632  33.585  23.071  12.001
87404W        W55633  34.357  19.529  12.010
87405W        W55634  44.710  15.008  13.406
87406W        W55635  32.414  28.040   0.524
87407W        W55636   7.626  27.652  11.062
87408W        W55637   6.275  44.467   2.660
87409W        W55638  37.756  18.620   1.048
87410W        W55639   2.688  43.785   0.798
87411W        W55640  44.483  10.273   2.222
87412W        W55641   8.799   7.616   4.195
87413W        W55642  42.935  20.814   2.181
87414W        W55643   4.335  19.177   1.207
87415W        W55644  35.414   5.209  13.385
87416W        W55645  24.566   2.978  11.115
87417W        W55646  35.593  18.696   2.907
87418W        W55647  21.548  32.611  13.107
87419W        W55648  44.342  31.518  12.492
87420W        W55649  20.804  26.116  13.349
87421W        W55650  16.878  10.919  11.604
87422W        W55651  24.537  34.449  13.195
87423W        W55652   6.915  40.434  10.799
87424W        W55653  34.181  20.778   3.353
87425W        W55654  33.440   5.700   3.645
87426W        W55655  14.299   8.411   4.644
87427W        W55656  23.643  16.306  14.440
87428W        W55657  15.828  39.019   0.697
87429W        W55658  41.444  15.810   2.544
87430W        W55659  32.729  37.434  12.238
87431W        W55660  11.120  39.551  14.839
87432W        W55661  34.770  43.298   2.496
87433W        W55662  21.944  19.280  13.003
87434W        W55663  15.921  26.443  11.028
87435W        W55664  38.353  30.698   3.411
87436W        W55665  13.329  32.906   2.198
87437W        W55666  35.587  32.076  13.365
87438W        W55667  30.235  11.324   3.448
87439W        W55668  28.669   8.582   3.890
87440W        W55669  26.235  10.668   2.439
87441W        W55670  38.557  37.157  11.384
87442W        W55671  40.403   0.308   1.529
87443W        W55672   5.760   9.268   0.901
87444W        W55673   7.176  42.295   1.894
87445W        W55674   9.115   4.393   2.610
87446W        W55675   0.341   3.004   4.936
87447W        W55676   8.397   1.422  11.156
87448W        W55677  31.028  10.202   4.593
87449W        W55678  33.388  40.256  14.727
87450W        W55679  38.040  21.660   4.759
87451W        W55680  38.926   4.655   0.859
87452W        W55681  32.649  21.573   2.233
87453W        W55682  38.817  28.504   3.093
87454W        W55683  24.374  11.311  12.326
87455W        W55684   8.780  18.828   5.143
87456W        W55685   5.627  26.677  10.895
87457W        W55686  34.800  18.491   2.593
87458W        W55687  19.135  25.591  11.917
87459W        W55688   2.038  31.224  12.515
87460W        W55689  11.749   9.110  14.408
87461W        W55690  26.427  28.396  11.804
87462W        W55691   8.032  20.075   1.962
87463W        W55692  31.912  33.446  13.402
87464W        W55693  25.904   3.483   1.575
87465W        W55694  27.442  21.524  10.582
87466W        W55695  12.671  19.008   4.366
87467W        W55696  14.709  28.432   4.675
87468W        W55697   3.528  19.704  14.308
87469W        W55698  25.994   3.741   2.316
87470W        W55699  38.357  27.062   0.309
87471W        W55700  28.356   7.618  10.879
87472W        W55701  12.192  13.674  10.162
87473W        W55702   7.356  37.397  13.332
87474W        W55703  18.058  11.670  13.951
87475W        W55704   9.891  34.392  12.988
87476W        W55705  15.751  37.144   1.708
87477W        W55706   0.248  22.518   3.210
87478W        W55707  28.014  15.793  10.233
87479W        W55708   3.692  27.643   4.667
87480W        W55709  22.102  35.236  14.671
87481W        W55710  17.134  22.334   2.189
87482W        W55711  14.058  14.194  14.306
87483W        W55712  18.410   6.360  10.614
87484W        W55713  19.128  11.880   2.003
87485W        W55714  17.826  29.955   4.916
87486W        W55715  38.105  11.372   0.885
87487W        W55716   8.804  17.167   2.921
87488W        W55717  41.195  14.636   2.185
87489W        W55718  22.212  16.780  12.807
87490W        W55719   4.452   9.182   0.396
87491W        W55720  17.659  24.227   2.999
87492W        W55721   0.167  15.242  13.335
87493W        W55722  16.826  44.059   2.931
87494W        W55723  18.539  40.111   4.079
87495W        W55724   5.677  26.461   0.978
87496W        W55725  22.798   2.728  13.345
87497W        W55726   0.722  19.549   2.843
87498W        W55727   4.321  31.589  10.919
87499W        W55728   5.895  35.558   4.210
87500W        W55729   9.286   0.732  14.871
87501W        W55730  20.565   4.350  10.896
87502W        W55731   2.037  43.328   1.937
87503W        W55732   7.846  29.694   3.700
87504W        W55733   3.816  39.961  12.233
87505W        W55734  42.802  39.097  14.937
87506W        W55735  22.924  17.515  11.149
87507W        W55736  12.871  40.076  12.350
87508W        W55737  12.257  29.311   1.846
87509W        W55738  36.784  33.118  11.219
87510W        W55739  20.514  33.758  14.920
87511W        W55740  33.859   9.824   2.749
87512W        W55741  31.084  10.919   2.605
87513W        W55742  19.849  31.689   1.359
87514W        W55743  17.306  44.855   3.313
87515W        W55744   9.442  43.550  14.313
87516W        W55745  21.376  29.958  11.184
87517W        W55746  14.587  15.510   4.501
87518W        W55747  28.096  34.433  11.333
87519W        W55748   7.153   6.538  11.695
87520W        W55749   5.124  17.055   2.430
87521W        W55750  26.987  34.036  12.706
87522W        W55751  29.613  42.834  10.911
87523W        W55752  13.251  33.027   4.595
87524W        W55753  13.292  14.614  10.614
87525W        W55754  17.308  16.208  10.680
87526W        W55755  25.058  30.164  13.116
87527W        W55756  38.996   7.904  10.852
87528W        W55757  19.983  17.295  14.312
87529W        W55758   7.204   8.548  14.813
87530W        W55759  14.087  19.034   3.710
87531W        W55760  18.938   1.841   4.534
87532W        W55761  42.162  14.218  12.123
87533W        W55762  40.384  22.474   0.791
87534W        W55763  18.151  17.158  14.681
87535W        W55764  26.615  24.308  11.265
87536W        W55765  23.513  12.837  14.176
87537W        W55766  39.538  24.393  11.059
87538W        W55767   7.721  29.925  12.163
87539W        W55768  28.990  27.710  12.562
87540W        W55769  21.586  41.207  12.441
87541W        W55770  14.696   4.583   0.894
87542W        W55771  26.735  19.638   4.597
87543W        W55772  43.450  12.899  11.203
87544W        W55773   9.378  36.491   2.760
87545W        W55774  23.775   5.343   4.060
87546W        W55775  14.229  38.924  10.407
87547W        W55776  10.954  17.249   1.018
87548W        W55777  32.119   0.034  11.122
87549W        W55778  27.050   0.935  14.931
87550W        W55779  39.937  13.671  11.245
87551W        W55780  18.787  20.686  11.111
87552W        W55781  27.815  43.305   4.957
87553W        W55782  27.636  31.633   2.183
87554W        W55783  19.037   2.669   4.960
87555W        W55784  35.319  24.139  11.955
87556W        W55785  34.038  26.663   2.278
87557W        W55786   2.254  34.574   2.370
87558W        W55787   3.432  25.951  14.031
87559W        W55788  42.795  44.771  13.765
87560W        W55789  34.154   5.791   3.924
87561W        W55790  20.137  23.323  10.704
87562W        W55791  27.694  21.254   4.920
87563W        W55792  40.985  25.656  12.182
87564W        W55793  21.536   2.988   0.782
87565W        W55794  44.572   6.157   2.929
87566W        W55795  34.449  38.265   3.730
87567W        W55796  32.581  29.777   1.837
87568W        W55797   5.960  19.117  13.545
87569W        W55798  22.810  20.298   0.004
87570W        W55799  30.057  29.638  14.321
87571W        W55800  41.863   4.387   4.992
87572W        W55801  22.235  34.546  12.116
87573W        W55802  29.442  27.613  13.449
87574W        W55803   4.457  43.071  13.888
87575W        W55804  13.071  14.912   3.365
87576W        W55805  35.121  29.238  13.861
87577W        W55806  18.149  16.681   4.588
87578W        W55807  28.585  15.604   3.373
87579W        W55808  41.604  33.996   4.140
87580W        W55809  44.658  40.863  11.287
87581W        W55810  44.177  17.341   3.394
87582W        W55811  35.818  37.293   1.379
87583W        W55812  33.111  31.905   2.334
87584W        W55813   1.088  35.459   4.065
87585W        W55814  20.695  37.923  11.264
87586W        W55815  26.232  37.301  12.356
87587W        W55816  28.086  17.906  10.926
87588W        W55817  13.711  24.498   0.306
87589W        W55818  18.803  44.531  13.033
87590W        W55819  29.342  22.026  13.939
87591W        W55820  39.189   1.790   2.848
87592W        W55821  40.011  41.059   1.415
87593W        W55822   8.845   9.760  11.330
87594W        W55823  15.728  33.869  13.021
87595W        W55824  28.648  35.111   0.433
87596W        W55825   6.838   9.102   4.580
87597W        W55826  42.534  15.362   2.350
87598W        W55827  30.562   8.173   0.917
87599W        W55828  10.799  37.089   0.857
87600W        W55829  36.844  16.638   3.024
87601W        W55830  12.252  13.514  12.658
87602W        W55831  39.916   9.889  14.500
87603W        W55832  23.951  19.903  12.877
87604W        W55833  30.285   2.598  12.482
87605W        W55834  20.262  11.285   4.218
87606W        W55835  35.225  39.165   0.781
87607W        W55836  32.247  31.550  13.187
87608W        W55837  13.412  22.827  14.813
87609W        W55838   8.630  33.898   4.192
87610W        W55839  12.764   0.891   4.285
87611W        W55840  26.878  40.967   4.109
87612W        W55841  27.612  31.031   3.747
87613W        W55842  42.384  27.629   2.244
87614W        W55843  41.297  18.672   0.625
87615W        W55844   5.251  12.348   4.609
87616W        W55845  12.727  41.094  12.062
87617W        W55846   8.251  26.962   2.828
87618W        W55847   5.145   3.278  12.111
87619W        W55848  26.469  27.774   0.778
87620W        W55849  18.211  16.342  12.719
87621W        W55850  37.518   2.043   0.139
87622W        W55851   9.926  39.351  13.051
87623W        W55852   9.121  30.425   5.044
87624W        W55853  33.124   6.358  13.312
87625W        W55854  19.300  30.092  11.195
87626W        W55855  40.216  26.709  11.677
87627W        W55856  33.584   0.188  13.059
87628W        W55857  28.998   3.365  14.681
87629W        W55858  23.568  34.687   3.641
87630W        W55859  24.934   1.343  12.061
87631W        W55860  18.046  41.375   2.790
87632W        W55861   2.435   8.841  12.175
87633W        W55862  36.093   5.533   1.508
87634W        W55863  27.166  16.411   2.921
87635W        W55864  13.172  31.064   2.183
87636W        W55865  13.255  44.800   0.980
87637W        W55866  15.628  17.721  11.255
87638W        W55867  22.029  42.889  13.947
87639W        W55868  39.820   9.543   4.986
87640W        W55869  19.359  35.213  14.951
87641W        W55870  22.297   0.798  12.468
87642W        W55871  42.352  23.119  10.726
87643W        W55872  12.367  35.368  10.761
87644W        W55873   5.200   4.799   2.413
87645W        W55874  32.338  10.698  14.767
87646W        W55875  13.305  38.909  12.865
87647W        W55876  24.083  33.233  10.401
87648W        W55877  36.420  30.515   4.639
87649W        W55878  39.799  44.438   2.252
87650W        W55879  15.503  38.055   3.203
87651W        W55880   8.679  42.915  14.695
87652W        W55881  17.479  27.658  12.539
87653W        W55882  22.147  28.664   1.399
87654W        W55883  21.185  18.625  14.023
87655W        W55884   8.870   6.882   2.266
87656W        W55885   1.760  27.530   0.804
87657W        W55886  26.192  44.862  13.462
87658W        W55887  22.410  37.305  12.792
87659W        W55888  40.608  31.030  11.453
87660W        W55889  38.522  13.008  13.478
87661W        W55890   5.654  30.757   2.880
87662W        W55891  24.435  42.003   1.509
87663W        W55892  34.853  26.123   0.867
87664W        W55893  33.980   2.001  13.399
87665W        W55894  36.665  40.007   4.764
87666W        W55895   6.679  38.129  14.382
87667W        W55896   8.078  39.037   2.212
87668W        W55897  44.830  16.598   1.860
87669W        W55898   1.337  39.987   1.161
87670W        W55899  22.745  24.252   3.275
87671W        W55900  42.920  24.310  14.310
87672W        W55901  39.829  34.942   4.065
87673W        W55902   0.814  30.990  11.978
87674W        W55903  38.849  24.708  13.230
87675W        W55904  21.081  38.939   5.117
87676W        W55905  37.800  26.774   3.997
87677W        W55906  43.915  20.582   0.488
87678W        W55907  41.247  11.050   3.642
87679W        W55908  17.404  13.368   2.784
87680W        W55909  34.445  28.157   4.266
87681W        W55910  43.789  23.625  14.990
87682W        W55911  34.398   2.911  13.105
87683W        W55912  42.204  15.783   0.875
87684W        W55913  30.574  42.215   3.072
87685W        W55914  15.256  32.961   0.962
87686W        W55915  39.574   9.477  14.480
87687W        W55916  21.285  42.906   2.374
87688W        W55917  32.113   2.933   0.470
87689W        W55918  16.574  19.706  11.225
87690W        W55919   7.289  13.623  11.793
87691W        W55920  31.912  36.477   3.583
87692W        W55921   8.085   9.355   1.611
87693W        W55922  23.152  35.469  10.307
87694W        W55923   3.210  38.872   4.936
87695W        W55924   2.659  23.041   4.702
87696W        W55925  41.775  44.396  11.096
87697W        W55926  35.512   7.508  12.919
87698W        W55927  26.925   6.483   4.152
87699W        W55928  13.187  40.926  10.560
87700W        W55929  22.721  34.151   3.199
87701W        W55930  37.990   6.877  13.722
87702W        W55931  20.810  27.767   0.142
87703W        W55932  39.773  25.427  14.825
87704W        W55933  26.258  41.432  11.675
87705W        W55934  24.772   3.133   2.222
87706W        W55935   8.626  32.977  11.744
87707W        W55936  27.425   2.342   3.249
87708W        W55937  11.708  16.621   3.693
87709W        W55938  37.288  38.432  14.868
87710W        W55939  40.882  20.963  11.246
87711W        W55940  34.102  44.234  11.578
87712W        W55941  31.675  38.064  12.550
87713W        W55942  33.042  24.641   2.201
87714W        W55943  21.085   0.746   2.688
87715W        W55944  44.042   0.445  10.416
87716W        W55945  22.138   4.414  11.533
87717W        W55946  33.522  29.450  11.140
87718W        W55947   5.480  29.431  12.459
87719W        W55948  14.206  14.623   0.510
87720W        W55949  34.518  25.310  11.696
87721W        W55950  10.593  15.319  14.371
87722W        W55951  15.810  36.536   0.757
87723W        W55952  44.466   2.753   3.741
87724W        W55953   3.834  40.622   2.341
87725W        W55954  10.097  34.638  12.555
87726W        W55955  23.756  11.834  12.009
87727W        W55956  20.907  39.382  13.381
87728W        W55957  31.459  23.172   2.742
87729W        W55958   0.874  23.290  13.523
87730W        W55959  10.118  20.080   2.623
87731W        W55960  37.091  18.079  13.379
87732W        W55961  26.308   0.706  14.014
87733W        W55962  22.739  31.569  12.887
87734W        W55963  12.436  35.608   1.343
87735W        W55964  11.304   8.684   4.085
87736W        W55965  10.604  18.299   3.646
87737W        W55966  23.741   6.110   1.868
87738W        W55967  32.207   6.941  14.326
87739W        W55968  26.251  28.384  12.348
87740W        W55969  36.572  20.401  12.040
87741W        W55970  43.443  35.043  12.218
87742W        W55971  20.327  40.236  13.445
87743W        W55972  21.653  41.776   3.888
87744W        W55973  11.575  14.809   3.267
87745W        W55974   0.389   2.833   3.836
87746W        W55975  21.181  26.611   2.156
87747W        W55976  43.643   6.499  10.336
87748W        W55977  36.951  25.971  12.457
87749W        W55978  38.840  24.674   3.589
87750W        W55979  11.197  24.734  11.120
87751W        W55980  14.282   5.644  12.998
87752W        W55981  39.517   4.690  14.418
87753W        W55982  34.115   9.335  12.916
87754W        W55983  23.224  34.037   2.307
87755W        W55984  30.034  29.106   1.507
87756W        W55985  26.059  28.887  12.470
87757W        W55986  25.514   5.329  13.561
87758W        W55987  16.822   2.625  14.570
87759W        W55988  15.741  39.897   1.882
87760W        W55989  16.917  20.201  11.176
87761W        W55990  16.030   9.775   3.309
87762W        W55991  35.459  32.991   3.732
87763W        W55992  13.793  26.584  14.834
87764W        W55993  40.815   4.672   1.528
87765W        W55994   6.894  27.183   1.729
87766W        W55995  32.529  11.253  11.080
87767W        W55996  12.640   8.551  12.962
87768W        W55997  29.708  20.093  11.804
87769W        W55998  35.489  28.177   0.922
87770W        W55999  27.346  39.251   0.956
87771W        W56000  43.955  34.512  14.909
87772W        W56001  22.747  38.305  12.034
87773W        W56002   2.570  10.159   2.168
87774W        W56003  34.396  23.778  11.123
87775W        W56004   9.118  33.907  11.735
87776W        W56005  38.345  43.231  10.751
87777W        W56006  15.771  40.412  11.553
87778W        W56007   7.811  29.481  11.892
87779W        W56008  43.813  36.842  12.478
87780W        W56009  26.060  42.465   4.591
87781W        W56010  32.946   1.184  14.281
87782W        W56011  25.749  42.004  14.376
87783W        W56012  42.505  38.298   3.727
87784W        W56013  10.153  14.707   0.784
87785W        W56014  44.718  44.929   1.536
87786W        W56015  30.953  34.902  14.511
87787W        W56016  20.096   1.666  12.651
87788W        W56017  36.675  34.573  11.959
87789W        W56018   5.711  35.378  11.590
87790W        W56019   5.730  41.101  12.559
87791W        W56020   2.259  27.409   0.732
87792W        W56021  25.133  29.221  12.465
87793W        W56022  44.273  24.923   4.593
87794W        W56023  40.332   5.868  13.562
87795W        W56024   8.129  15.108  13.531
87796W        W56025   8.702  19.583   4.625
87797W        W56026   0.329   7.413   2.270
87798W        W56027  18.380  25.518  12.603
87799W        W56028   1.173   0.288  11.825
87800W        W56029  14.201  12.342   4.495
87801W        W56030  24.605  30.486  11.186
87802W        W56031   6.443  36.953  12.355
87803W        W56032   9.374  39.229  13.752
87804W        W56033  44.880   6.870   1.677
87805W        W56034  10.746  19.110  12.336
87806W        W56035   2.986  43.220   4.608
87807W        W56036  44.798  40.576   3.700
87808W        W56037  14.070  18.230  12.525
87809W        W56038  36.043  39.499   1.361
87810W        W56039  32.791  10.357  10.629
87811W        W56040  11.238  15.645  13.339
87812W        W56041   9.864  32.212   4.863
87813W        W56042  39.285  17.195  11.177
87814W        W56043  28.834  16.096   0.834
87815W        W56044  24.060   2.768   3.887
87816W        W56045  44.906  29.047   2.635
87817W        W56046  32.878   1.817  12.864
87818W        W56047  27.852  13.642   4.158
87819W        W56048  35.558   6.253  10.406
87820W        W56049  34.265   6.245   1.162
87821W        W56050  18.500  29.361  13.052
87822W        W56051   6.071  43.564   3.551
87823W        W56052  21.650   7.162   0.883
87824W        W56053  30.123  18.220   1.764
87825W        W56054   9.203  27.043  13.062
87826W        W56055  42.919  32.434   3.686
87827W        W56056  17.415  30.160  12.003
87828W        W56057  11.916   7.705  11.191
87829W        W56058  19.363  29.867   1.447
87830W        W56059  12.637  44.818  10.651
87831W        W56060  40.847  26.502   2.341
87832W        W56061  18.540  27.685  13.847
87833W        W56062   1.909   8.729   1.834
87834W        W56063  23.906  12.685  12.050
87835W        W56064  35.872   9.977  13.884
87836W        W56065   0.375  12.680   0.737
87837W        W56066  10.053  27.926  11.851
87838W        W56067  10.835  41.598  13.049
87839W        W56068   0.364   0.335  12.943
87840W        W56069  25.372  23.263   0.058
87841W        W56070  31.935  35.778  14.003
87842W        W56071   2.408  16.030  14.017
87843W        W56072  34.600  31.451  13.779
87844W        W56073  39.401  23.866  11.092
87845W        W56074  20.812   2.780  11.664
87846W        W56075  39.381   3.316  12.554
87847W        W56076   3.210  20.764  13.835
87848W        W56077  38.577  17.524  10.759
87849W        W56078  22.725  16.298  14.356
87850W        W56079  39.736  14.160  10.495
87851W        W56080  12.140  20.271  12.395
87852W        W56081   9.756  36.874  11.204
87853W        W56082  16.370   5.790   1.924
87854W        W56083   5.247  18.190  12.959
87855W        W56084  14.803  13.148  13.945
87856W        W56085   6.004  35.497  11.145
87857W        W56086  11.849   8.471   1.366
87858W        W56087  31.293  36.550   1.709
87859W        W56088   4.220  13.742   2.157
87860W        W56089   5.470  24.016   3.245
87861W        W56090  27.754   5.416   0.863
87862W        W56091  43.290   7.609  14.474
87863W        W56092  34.118  27.191  13.256
87864W        W56093  17.083  19.021  10.677
87865W        W56094  21.332  22.195   3.260
87866W        W56095   0.890  44.246  10.952
87867W        W56096  44.925   9.702  11.937
87868W        W56097  21.074  22.784   3.893
87869W        W56098  43.513   7.176  11.111
87870W        W56099  23.277   0.794   1.689
87871W        W56100  12.378  26.726  14.814
87872W        W56101   2.338  36.454   4.191
87873W        W56102  32.236   0.422  12.368
87874W        W56103   4.791  42.226  11.117
87875W        W56104  43.577  43.967  12.495
87876W        W56105   8.290  11.391   0.306
87877W        W56106  19.965  27.038   2.100
87878W        W56107   5.303  18.804   1.401
87879W        W56108   8.345   5.497  13.529
87880W        W56109  31.933  25.263   1.786
87881W        W56110  27.071  42.031  10.589
87882W        W56111   1.479   4.873   0.424
87883W        W56112   0.438  27.942  12.621
87884W        W56113  14.751   1.931  10.753
87885W        W56114  33.001  39.522   2.191
87886W        W56115  44.025  36.076   3.063
87887W        W56116   3.745  16.222  12.515
87888W        W56117  31.678  35.868   2.188
87889W        W56118  13.362  23.460   4.533
87890W        W56119  25.185   7.441  14.470
87891W        W56120  22.524   7.378  14.920
87892W        W56121   9.229  21.653   0.445
87893W        W56122  18.223  23.685   1.087
87894W        W56123  11.750  19.069   4.085
87895W        W56124  19.034  34.548  14.489
87896W        W56125  44.004  41.087  11.970
87897W        W56126  44.853   2.826  13.759
87898W        W56127   7.250  25.462   4.676
87899W        W56128   0.261  17.496  12.659
87900W        W56129  26.109   0.991   0.786
87901W        W56130  17.243   7.759   3.175
87902W        W56131  14.839  30.888  12.042
87903W        W56132  12.809  18.532  14.391
87904W        W56133   7.292  11.360  12.423
87905W        W56134  13.437  32.939  13.859
87906W        W56135  40.820  37.808  11.128
87907W        W56136  41.336  26.593   0.327
87908W        W56137   8.668  29.494   1.800
87909W        W56138  13.411  17.177   3.377
87910W        W56139  10.667  35.762   2.958
87911W        W56140  27.118  43.404  12.464
87912W        W56141   5.741  36.309  12.487
87913W        W56142  43.943  29.263   2.159
87914W        W56143  22.718  16.689   4.464
87915W        W56144  23.222   4.603   4.130
87916W        W56145  44.756  44.888  14.545
87917W        W56146  33.362  31.137   2.809
87918W        W56147  22.348  34.313   0.070
87919W        W56148   6.055  24.431  11.776
87920W        W56149  18.794  37.988   2.725
87921W        W56150  18.122  40.971   4.418
87922W        W56151  24.102   6.880  14.393
87923W        W56152  43.571  10.848  12.456
87924W        W56153   5.771  38.606  13.520
87925W        W56154  32.118  31.572   0.965
87926W        W56155  33.822   8.438   4.634
87927W        W56156   3.469  43.856  13.964
87928W        W56157  28.745  24.209  13.491
87929W        W56158  38.885   5.517   1.411
87930W        W56159  25.475  29.382   4.491
87931W        W56160  40.003  19.594  10.867
87932W        W56161  32.882  35.096  13.209
87933W        W56162  13.294  31.410   0.105
87934W        W56163  42.390   0.001  10.980
87935W        W56164  17.868  21.178   4.561
87936W        W56165  26.572  21.805   2.355
87937W        W56166   1.552  13.013   0.229
87938W        W56167  17.124  11.119  13.946
87939W        W56168  25.077  33.208   2.732
87940W        W56169  40.871   6.708   1.891
87941W        W56170   7.504  21.527   4.194
87942W        W56171  13.575  17.174   1.793
87943W        W56172   7.407  21.783   1.806
87944W        W56173  44.909  37.516   2.417
87945W        W56174  12.306  30.568   2.809
87946W        W56175  12.132   0.818   1.484
87947W        W56176   3.114  28.565  12.475
87948W        W56177  27.393   8.783   1.212
87949W        W56178  23.426  41.603  12.688
87950W        W56179  37.339  29.158   1.334
87951W        W56180  38.386  36.680  11.509
87952W        W56181  27.982  42.353   0.723
87953W        W56182  29.194   5.687   1.538
87954W        W56183  35.116  31.866   2.107
87955W        W56184   8.571   9.394   0.611
87956W        W56185  40.954  13.204   2.456
87957W        W56186  40.854  31.418  13.166
87958W        W56187   3.409  19.994  11.626
87959W        W56188  13.265   1.406  13.055
87960W        W56189  10.736  15.799   2.458
87961W        W56190  25.059   6.334  14.871
87962W        W56191   7.466  10.904   1.642
87963W        W56192  43.805  35.421   1.968
87964W        W56193  13.986  17.807   9.904
87965W        W56194   3.640  23.094  11.115
87966W        W56195  33.723  43.986   3.285
87967W        W56196  21.742  41.943  14.933
87968W        W56197  24.783  12.214  10.708
87969W        W56198  23.588  41.277   2.793
87970W        W56199  19.157  36.779   4.327
87971W        W56200  33.998  25.166  11.046
87972W        W56201  29.922  23.780   3.675
87973W        W56202  41.895  31.553   4.790
87974W        W56203  10.791   4.369  13.031
87975W        W56204  30.166   7.456  12.998
87976W        W56205   0.521  17.607   0.054
87977W        W56206  43.468  13.681  11.969
87978W        W56207  25.519  32.680   1.897
87979W        W56208  27.163  11.904  11.584
87980W        W56209  12.740  23.456  14.746
87981W        W56210  28.851  35.343   2.228
87982W        W56211  15.564   4.939   3.156
87983W        W56212  30.309   7.656   1.923
87984W        W56213  38.496  14.709  13.426
87985W        W56214   1.498  41.495   4.531
87986W        W56215  20.669  22.313  12.578
87987W        W56216  22.899  42.097   2.662
87988W        W56217   0.324  17.653  14.578
87989W        W56218   6.797   8.960   4.070
87990W        W56219  20.392   8.679  12.522
87991W        W56220  44.261  12.392   4.237
87992W        W56221  18.060  33.177   2.450
87993W        W56222  42.963  31.907   3.770
87994W        W56223  10.866  38.574  12.003
87995W        W56224  13.728  34.126   0.934
87996W        W56225   0.451  29.079   4.107
87997W        W56226  36.963  35.849   2.291
87998W        W56227  41.496   2.002  13.480
87999W        W56228   1.312  44.307  10.614
88000W        W56229  43.740   0.718   3.901
88001W        W56230  36.856  36.526   0.500
88002W        W56231  36.614  42.972   0.853
88003W        W56232   0.704   2.372   3.527
88004W        W56233  15.720  28.232  12.373
88005W        W56234  14.168   1.220   3.331
88006W        W56235  42.706  44.919   3.690
88007W        W56236   6.912  38.468   1.767
88008W        W56237  25.853   0.233  13.557
88009W        W56238  24.935  20.192   0.111
88010W        W56239  20.572  22.997  14.997
88011W        W56240  22.269  10.289  10.691
88012W        W56241  28.921  42.004   2.896
88013W        W56242  35.504   7.431   4.047
88014W        W56243  24.311   0.158   2.336
88015W        W56244   8.384   6.379   4.467
88016W        W56245  34.086  42.857  12.968
88017W        W56246  17.978  25.028  13.051
88018W        W56247  36.450  35.863   2.397
88019W        W56248  33.166   7.159   1.244
88020W        W56249  36.926  31.871   1.268
88021W        W56250   9.164   4.565   3.446
88022W        W56251  18.085   0.167  11.968
88023W        W56252  39.941  32.183   2.332
88024W        W56253   5.371   0.390   4.906
88025W        W56254  35.469   0.098   1.352
88026W        W56255  43.662  40.283  10.444
88027W        W56256  35.888  25.179   3.125
88028W        W56257   2.740  18.988  14.974
88029W        W56258  22.222   8.081  11.926
88030W        W56259  24.575  33.853   1.716
88031W        W56260  13.222   6.422  14.035
88032W        W56261  39.337  20.120   1.729
88033W        W56262  33.879  17.166  11.611
88034W        W56263   5.226  13.616   2.430
88035W        W56264  12.381  35.450   3.560
88036W        W56265  29.628   1.712  12.846
88037W        W56266  39.436   9.777  11.130
88038W        W56267  27.542   5.420   0.386
88039W        W56268  36.439  29.937  13.697
88040W        W56269  23.921  36.483   3.784
88041W        W56270  36.152  39.900  11.152
88042W        W56271  36.940  16.963   3.406
88043W        W56272   0.912  29.158  13.607
88044W        W56273  17.708  23.024  13.814
88045W        W56274  36.680  41.351   5.111
88046W        W56275  39.985   1.967  12.464
88047W        W56276  41.812  34.743  11.005
88048W        W56277  33.248  10.371   3.222
88049W        W56278  18.680   7.002  14.411
88050W        W56279  18.258   6.320  11.910
88051W        W56280  34.904  25.528  12.099
88052W        W56281  18.141  30.672  10.699
88053W        W56282   8.450  39.775   0.790
88054W        W56283  19.374  39.534  11.583
88055W        W56284  43.340   9.401   0.310
88056W        W56285   0.443  20.430  12.528
88057W        W56286  30.174  19.400   9.560
88058W        W56287   9.807  37.264  11.525
88059W        W56288  44.983  41.074   2.804
88060W        W56289   9.646  36.799  11.737
88061W        W56290  16.569  16.605   3.675
88062W        W56291   3.711  15.708  14.337
88063W        W56292  16.826  12.608   1.089
88064W        W56293  10.661  42.696  11.044
88065W        W56294   5.047   4.911   3.312
88066W        W56295  15.364  23.781   1.709
88067W        W56296   9.923  31.484  13.514
88068W        W56297  13.562  23.063   2.271
88069W        W56298  37.969  40.744  11.264
88070W        W56299  42.375  25.333  12.081
88071W        W56300  32.676   8.785   4.147
88072W        W56301  40.575   7.769   3.710
88073W        W56302  43.549  22.743   0.011
88074W        W56303  10.231   4.005   1.906
88075W        W56304  13.224   8.820  14.233
88076W        W56305   4.109  19.643   2.768
88077W        W56306  30.635  40.885   3.706
88078W        W56307  29.009   5.675  14.793
88079W        W56308  32.940  28.397  14.929
88080W        W56309   9.743   3.389  11.452
88081W        W56310  22.532  22.413   4.725
88082W        W56311  27.983  38.843  12.918
88083W        W56312  23.995  26.152  12.158
88084W        W56313  33.561  43.464  13.615
88085W        W56314   2.240   4.164   0.266
88086W        W56315  28.606  44.062  11.551
88087W        W56316  27.176  31.597   1.408
88088W        W56317   3.470  17.890  10.732
88089W        W56318  27.726  17.800  11.266
88090W        W56319  15.557  12.634   1.396
88091W        W56320  41.931  37.015   4.183
88092W        W56321  40.356   0.822   5.075
88093W        W56322  27.061  10.724   0.515
88094W        W56323   2.849  40.441   3.560
88095W        W56324   8.259  19.169   0.725
88096W        W56325   9.086  24.642   1.304
88097W        W56326   9.301  42.521   2.275
88098W        W56327  14.335  43.217   3.668
88099W        W56328  23.883  37.419   3.682
88100W        W56329  28.827  43.582  13.043
88101W        W56330  38.974  40.300   2.838
88102W        W56331  43.772  16.553  11.843
88103W        W56332   0.317  25.616  12.507
88104W        W56333  35.941  37.795  11.468
88105W        W56334  25.371  18.507   5.004
88106W        W56335   4.422  42.472   0.857
88107W        W56336  31.049   5.206  12.487
88108W        W56337  39.023  22.896   2.721
88109W        W56338  11.642  37.680  10.980
88110W        W56339  36.664   9.884   4.137
88111W        W56340  38.779  40.404   0.814
88112W        W56341   8.988  12.746  12.397
88113W        W56342  39.910  23.504   2.049
88114W        W56343  40.420  21.793   1.323
88115W        W56344  13.742  42.788   2.066
88116W        W56345  22.731  19.093  11.050
88117W        W56346  25.219  10.981  14.007
88118W        W56347  13.048  24.503  13.414
88119W        W56348  14.754  37.532   2.122
88120W        W56349  18.039  25.269  13.519
88121W        W56350   0.830  20.111  10.763
88122W        W56351  27.649  21.994  10.617
88123W        W56352  21.073   5.763   3.259
88124W        W56353  27.693  23.044   0.291
88125W        W56354  27.095  28.614   3.755
88126W        W56355  33.295  28.582   3.642
88127W        W56356   1.504  14.497   0.443
88128W        W56357   2.408  28.400  10.514
88129W        W56358  42.311  29.970  14.208
88130W        W56359   6.278  30.919  12.033
88131W        W56360   6.117   9.251   3.820
88132W        W56361   0.271  11.728   0.902
88133W        W56362   8.192  30.033  11.862
88134W        W56363  25.895  27.387  14.152
88135W        W56364  39.287  17.238  11.933
88136W        W56365   6.233   7.296  11.278
88137W        W56366  17.812  37.034  10.997
88138W        W56367   8.112  20.640  13.164
88139W        W56368   6.530  39.306  11.857
88140W        W56369  24.400  21.679  14.554
88141W        W56370  15.658  21.985  12.538
88142W        W56371  21.611  34.664  11.268
88143W        W56372  41.441  12.461  10.831
88144W        W56373  37.312  34.725   1.843
88145W        W56374  27.807   6.477   0.334
88146W        W56375  25.994  30.167   3.300
88147W        W56376  43.404  32.825   1.302
88148W        W56377  39.910  39.116  10.653
88149W        W56378  28.524  23.595  12.033
88150W        W56379  20.713  10.857  11.338
88151W        W56380   2.236  23.284  11.247
88152W        W56381  11.856   1.898  14.998
88153W        W56382   3.378  44.434   3.156
88154W        W56383  29.384   8.664  13.984
88155W        W56384   2.923  16.776  12.119
88156W        W56385  17.641   0.208   0.474
88157W        W56386  44.126  38.875   5.068
88158W        W56387  17.059  39.562   4.912
88159W        W56388  17.496  19.762  10.435
88160W        W56389  11.351  36.149  12.970
88161W        W56390  15.540   4.492  10.717
88162W        W56391   1.322   7.715  11.640
88163W        W56392  44.928   9.735  13.994
88164W        W56393   6.143   3.911  14.481
88165W        W56394  33.877  31.720  11.570
88166W        W56395   3.460   1.412  10.773
88167W        W56396  36.863   1.505  12.882
88168W        W56397  20.514  24.433   0.857
88169W        W56398  10.878  20.487   4.626
88170W        W56399  30.321  41.459  14.333
88171W        W56400  36.921  43.526  11.525
88172W        W56401  41.731  16.663   0.715
88173W        W56402  39.984  27.593   2.173
88174W        W56403  11.322  43.953   4.087
88175W        W56404  13.169  20.134   1.532
88176W        W56405  29.880  10.215   2.791
88177W        W56406  38.997  35.745   4.072
88178W        W56407  23.761  14.071   2.813
88179W        W56408  10.335  42.784  11.538
88180W        W56409  13.388  21.675  13.862
88181W        W56410   2.733  34.599  13.885
88182W        W56411  13.825  18.857  12.031
88183W        W56412  14.625  44.174  13.965
88184W        W56413  24.685  33.532  13.799
88185W        W56414  28.706   3.223  14.259
88186W        W56415  26.992   1.211  11.966
88187W        W56416  40.477  31.322  12.818
88188W        W56417  23.879   1.233  13.551
88189W        W56418  43.838  33.031  14.912
88190W        W56419  35.683  39.870   2.358
88191W        W56420  18.663  33.167  12.521
88192W        W56421   4.897  37.120  10.216
88193W        W56422  18.247   2.713   3.959
88194W        W56423  16.793  38.551  11.641
88195W        W56424  12.125  34.157  13.350
88196W        W56425  26.606  11.775   1.310
88197W        W56426  36.575   0.176  14.477
88198W        W56427  44.260  41.612   5.286
88199W        W56428  44.459   1.467  10.314
88200W        W56429  31.022  34.128  12.762
88201W        W56430  16.125   9.663  12.004
88202W        W56431  29.808  27.536  13.866
88203W        W56432  35.938  21.007  13.968
88204W        W56433  39.914  20.023  14.846
88205W        W56434  40.455  44.263  12.605
88206W        W56435  13.766   1.042   2.139
88207W        W56436  39.254  32.475   0.912
88208W        W56437  11.101  10.812   4.962
88209W        W56438  37.540   5.030   0.462
88210W        W56439  12.692  30.548  12.356
88211W        W56440  32.277  43.788  12.012
88212W        W56441  43.147  11.192   3.650
88213W        W56442  14.833  12.135  13.855
88214W        W56443  21.828   2.712   2.251
88215W        W56444  15.143  26.611   3.187
88216W        W56445  16.349   5.876   3.713
88217W        W56446   9.724  42.800  11.187
88218W        W56447  29.390  29.559   4.188
88219W        W56448  30.817  32.533   2.148
88220W        W56449  28.656  25.211  11.948
88221W        W56450  43.687   3.955  14.540
88222W        W56451  22.197  38.595   4.088
88223W        W56452  38.991  10.553  10.271
88224W        W56453  12.627  34.285  13.434
88225W        W56454  34.048  26.138   4.254
88226W        W56455  18.416  23.441  13.459
88227W        W56456   6.754  19.366   4.870
88228W        W56457  22.693   5.946   3.215
88229W        W56458  33.978  38.619   3.794
88230W        W56459  35.777  25.599   3.396
88231W        W56460  23.726  19.738  14.838
88232W        W56461  16.369   5.389  13.820
88233W        W56462   8.926  34.392   2.078
88234W        W56463  40.084  23.746   2.877
88235W        W56464   4.463  22.520  12.870
88236W        W56465  26.705  43.261   2.877
88237W        W56466   0.982  22.684  10.667
88238W        W56467  40.731  30.937  13.992
88239W        W56468   0.421  23.248  12.072
88240W        W56469  20.148   2.653  12.435
88241W        W56470  35.563  41.851   1.256
88242W        W56471   7.018  39.873  12.447
88243W        W56472  14.533  13.420  14.304
88244W        W56473   6.532  22.505  14.827
88245W        W56474  27.957  28.924  14.476
88246W        W56475  35.528   9.719   4.587
88247W        W56476  20.270  43.072  12.510
88248W        W56477   7.454  40.018  14.202
88249W        W56478  24.197  30.019  13.351
88250W        W56479  29.725   8.495  14.351
88251W        W56480  43.420  37.448  13.840
88252W        W56481  23.264   5.663   0.518
88253W        W56482  24.683  13.248  14.795
88254W        W56483  16.578  28.696   3.813
88255W        W56484  44.903  40.381  11.420
88256W        W56485  17.171  13.815  12.962
88257W        W56486  24.124  36.349   1.818
88258W        W56487  24.969  27.787   2.749
88259W        W56488  40.494  30.480  13.020
88260W        W56489  43.756  35.685   2.815
88261W        W56490  39.943   9.025   4.965
88262W        W56491  20.178  11.190   0.306
88263W        W56492  24.038  21.633   4.729
88264W        W56493   9.971  20.018  11.028
88265W        W56494  42.389  24.511  13.086
88266W        W56495   2.396   2.323   0.295
88267W        W56496  15.545   6.661   1.375
88268W        W56497  10.657  41.579   0.384
88269W        W56498  28.427  41.722  11.124
88270W        W56499   9.218   7.079   3.128
88271W        W56500  29.915  27.275   1.272
88272W        W56501  25.091  38.265   3.292
88273W        W56502  11.207  29.968   1.426
88274W        W56503  42.609   4.154  13.390
88275W        W56504   1.820  31.996  12.929
88276W        W56505  24.227  43.774   4.177
88277W        W56506   7.348  13.288   2.360
88278W        W56507   4.766  10.817   3.040
88279W        W56508  44.979  33.841   2.106
88280W        W56509  36.371   2.365   1.933
88281W        W56510   4.861  24.580   1.188
88282W        W56511  21.892   7.609  14.427
88283W        W56512  39.979  18.474  14.475
88284W        W56513  22.078  23.061   0.813
88285W        W56514  39.755  12.642  12.401
88286W        W56515  21.151   2.468  14.290
88287W        W56516  27.589  20.482  13.918
88288W        W56517  15.963   4.288   0.302
88289W        W56518  23.582   7.774   4.426
88290W        W56519  15.082  31.161   1.757
88291W        W56520  30.484  21.101  10.932
88292W        W56521  17.599  38.596   4.205
88293W        W56522  29.375  26.238  14.931
88294W        W56523   3.558   2.310  12.649
88295W        W56524  41.439  41.889   4.790
88296W        W56525  21.111  26.487  10.133
88297W        W56526  31.506  13.620  11.307
88298W        W56527  18.466  39.026  12.150
88299W        W56528  19.818   2.657  12.884
88300W        W56529  10.826  18.066   4.531
88301W        W56530  17.774  19.758   0.560
88302W        W56531   6.164   1.359  13.221
88303W        W56532  25.727  19.224  14.349
88304W        W56533  11.090  16.887   4.598
88305W        W56534  38.884   0.259   3.198
88306W        W56535   9.012  21.194   1.126
88307W        W56536  10.464  30.462  14.237
88308W        W56537  15.627  13.440  12.386
88309W        W56538  39.946  28.874   3.715
88310W        W56539   3.899  40.432   0.009
88311W        W56540  25.400   0.933  11.156
88312W        W56541  16.050  32.741  12.322
88313W        W56542   6.225  32.485  10.623
88314W        W56543  12.860  10.738  13.057
88315W        W56544  15.515  22.191   0.751
88316W        W56545  41.952   5.185   2.533
88317W        W56546  17.071  35.922   3.207
88318W        W56547  37.901   7.056  11.573
88319W        W56548  43.227  23.744   3.586
88320W        W56549  12.688   2.349  10.609
88321W        W56550  15.772  29.912   4.778
88322W        W56551   8.823  16.794   1.924
88323W        W56552  10.480  44.333  13.009
88324W        W56553  35.026   9.658  12.619
88325W        W56554  36.211  18.212   3.672
88326W        W56555  33.656  37.815  14.445
88327W        W56556   8.346   0.839  11.369
88328W        W56557  17.660  17.141   1.472
88329W        W56558  32.074   8.431   3.682
88330W        W56559  36.327  41.882   4.514
88331W        W56560  26.985  40.773  12.536
88332W        W56561  22.100  40.303  10.869
88333W        W56562  15.852  29.689  12.409
88334W        W56563  38.951  18.027   2.085
88335W        W56564  40.924  11.103   4.055
88336W        W56565   0.493  38.455  13.621
88337W        W56566  14.256  10.641   4.019
88338W        W56567   0.380   5.213  12.080
88339W        W56568  36.906  18.373   4.541
88340W        W56569   4.872   8.738  12.074
88341W        W56570  27.286  42.253   2.755
88342W        W56571  17.828  14.383   1.995
88343W        W56572  41.499  17.489   1.767
88344W        W56573   7.255  18.789   3.180
88345W        W56574  11.407  12.239  14.586
88346W        W56575   2.440  19.043   3.820
88347W        W56576  14.164  14.680  10.092
88348W        W56577   1.740   7.333   1.660
88349W        W56578  27.043  23.728   1.752
88350W        W56579  30.396  21.714   1.680
88351W        W56580   8.260  22.069   4.317
88352W        W56581  38.802  24.830   3.103
88353W        W56582  27.912  43.408   1.694
88354W        W56583  38.838  33.538   1.665
88355W        W56584  22.777  25.623   0.511
88356W        W56585  18.313  14.145  14.296
88357W        W56586  21.173  19.264  12.877
88358W        W56587   4.674  35.139  13.852
88359W        W56588  20.200   1.365  11.886
88360W        W56589  33.406  41.698   4.122
88361W        W56590  34.625  15.402  12.609
88362W        W56591  10.195  15.910   4.716
88363W        W56592  39.624  14.079   0.800
88364W        W56593  12.162  20.725   2.365
88365W        W56594  35.229  44.894  13.408
88366W        W56595  27.267  42.796   3.378
88367W        W56596  26.911  36.193   3.784
88368W        W56597  37.107  28.583   1.701
88369W        W56598  16.054   0.897   4.448
88370W        W56599  34.549  36.227   4.994
88371W        W56600  19.715  22.144   4.513
88372W        W56601  35.589  11.649  12.094
88373W        W56602   0.750  17.592  12.785
88374W        W56603  24.900  24.332   1.343
88375W        W56604  26.940  35.799   2.895
88376W        W56605  14.707  42.500  12.894
88377W        W56606  20.809  36.454   1.830
88378W        W56607  19.359  19.003  11.581
88379W        W56608  37.144   9.596   3.330
88380W        W56609  37.611  14.298   2.258
88381W        W56610  13.637   6.730   0.558
88382W        W56611  14.863  10.566  12.098
88383W        W56612   5.759  18.301   0.424
88384W        W56613  43.335  37.874   4.812
88385W        W56614  10.138  23.543   1.394
88386W        W56615  30.204  28.645  12.501
88387W        W56616  10.171  19.785   1.659
88388W        W56617   1.773  32.124  10.178
88389W        W56618  29.066   1.734   3.845
88390W        W56619  44.070  23.165  11.962
88391W        W56620  20.159  30.902   1.679
88392W        W56621  39.978  35.951   1.998
88393W        W56622  22.742  23.270   4.923
88394W        W56623  44.067   0.329   2.116
88395W        W56624  23.466  18.711   2.778
88396W        W56625  29.089   8.218   4.598
88397W        W56626  12.512  11.719  14.940
88398W        W56627  27.624  16.113  12.804
88399W        W56628  25.185  40.541   4.687
88400W        W56629  31.562  37.805   0.340
88401W        W56630  27.029  31.910  12.973
88402W        W56631   4.803  18.969   1.356
88403W        W56632  27.295  35.514   1.402
88404W        W56633  38.892   7.155   3.777
88405W        W56634  19.760  37.066  12.949
88406W        W56635  12.861   4.672  11.988
88407W        W56636  21.980   6.201   4.087
88408W        W56637  42.603   3.293  11.214
88409W        W56638   1.273  42.032   3.773
88410W        W56639  38.156   9.767  11.688
88411W        W56640  29.499   2.945   0.378
88412W        W56641   8.757  13.026   4.588
88413W        W56642  24.725  22.993   1.439
88414W        W56643  11.371  33.618  12.091
88415W        W56644  44.867  42.079  13.843
88416W        W56645  22.793   7.995  14.567
88417W        W56646  27.164  33.070   1.731
88418W        W56647   1.990  18.948   4.125
88419W        W56648  40.522  23.537  13.992
88420W        W56649   5.759  37.263   4.953
88421W        W56650  11.207  15.226   4.585
88422W        W56651   3.710  13.395  14.819
88423W        W56652   3.890  20.227  11.481
88424W        W56653  29.142  34.950  13.807
88425W        W56654  27.344  11.659  14.428
88426W        W56655  44.553  15.239  10.591
88427W        W56656   0.823  27.961  14.761
88428W        W56657  16.465  16.198  11.433
88429W        W56658  10.604  34.293   1.370
88430W        W56659  31.571  43.863   4.380
88431W        W56660  24.244  16.338  12.488
88432W        W56661  43.500  38.275   2.858
88433W        W56662  38.349  11.440   0.120
88434W        W56663  44.463  29.476   9.875
88435W        W56664  28.634  33.386   1.000
88436W        W56665  31.375  21.123  13.981
88437W        W56666   9.890  42.376   2.939
88438W        W56667  43.467  11.584   1.440
88439W        W56668  16.831   9.898   2.159
88440W        W56669  14.364   1.962  14.455
88441W        W56670  23.625  17.785   1.707
88442W        W56671  42.267   8.673  14.944
88443W        W56672  30.430  44.020   2.725
88444W        W56673  19.152  19.767  11.988
88445W        W56674   0.837   0.423  10.552
88446W        W56675   2.107  37.388  11.143
88447W        W56676   4.496  14.757  12.984
88448W        W56677   2.857   1.446  14.384
88449W        W56678  27.907  13.626  11.089
88450W        W56679   6.028   4.914   4.091
88451W        W56680  22.249   1.923  13.752
88452W        W56681  26.694  16.865  12.321
88453W        W56682  31.536   8.857   2.009
88454W        W56683  18.868  41.976   4.207
88455W        W56684  21.666  16.194   3.796
88456W        W56685   2.500   8.290  12.036
88457W        W56686  10.158   6.860  13.069
88458W        W56687  44.065  31.511   1.838
88459W        W56688  26.923  34.888  12.513
88460W        W56689  44.381  29.505   0.375
88461W        W56690  34.890   9.339   5.065
88462W        W56691   9.663   1.454  10.452
88463W        W56692  19.179  33.307  11.592
88464W        W56693  13.572  25.565  11.732
88465W        W56694  43.302   0.436   3.148
88466W        W56695  29.113  43.894  11.649
88467W        W56696  41.713  27.375   2.883
88468W        W56697  42.992  11.469   4.589
88469W        W56698  31.962   3.907   3.601
88470W        W56699   9.787  27.638   3.223
88471W        W56700  33.001  31.437   4.776
88472W        W56701  21.433  43.068   1.626
88473W        W56702  35.932  27.984  11.843
88474W        W56703  20.641  24.746  12.881
88475W        W56704   0.460  27.920   4.042
88476W        W56705  25.782   6.329   3.816
88477W        W56706  30.959  28.618   3.720
88478W        W56707  31.715  27.373   2.792
88479W        W56708   9.183   5.157  11.578
88480W        W56709  20.504  29.695  11.809
88481W        W56710  32.423   8.937  11.571
88482W        W56711  39.016  29.731   4.978
88483W        W56712  38.797   4.208  13.168
88484W        W56713  36.703  31.177  13.404
88485W        W56714  30.582   1.299  13.089
88486W        W56715  36.336   0.942   0.378
88487W        W56716   3.908  12.693   0.929
88488W        W56717  17.841  28.117  14.138
88489W        W56718  27.196   0.316   4.500
88490W        W56719  12.482  30.483  13.267
88491W        W56720  11.466  35.475   1.696
88492W        W56721   0.481  19.889  11.307
88493W        W56722  11.328   9.686  13.853
88494W        W56723  11.121  21.292  11.236
88495W        W56724  38.332  43.494   2.375
88496W        W56725  35.883  29.343   3.844
88497W        W56726   2.495  12.408   4.991
88498W        W56727  26.702  29.201   0.886
88499W        W56728  17.201  12.383   0.824
88500W        W56729  33.196  21.790  12.487
88501W        W56730  16.202  36.167  14.850
88502W        W56731  41.043  28.490  10.800
88503W        W56732   1.886  15.160  12.114
88504W        W56733  44.032   8.158   1.729
88505W        W56734  12.171   6.354   2.272
88506W        W56735  40.843  21.656   1.064
88507W        W56736  42.010   8.464  14.043
88508W        W56737  30.401  16.616   3.910
88509W        W56738  28.684  21.951   3.601
88510W        W56739  18.004  15.650  11.247
88511W        W56740   7.451  33.531   0.289
88512W        W56741  15.530  36.114  10.775
88513W        W56742  26.065   9.764   2.825
88514W        W56743  27.973  30.421  11.497
88515W        W56744  20.903  30.567   4.803
88516W        W56745  34.401  41.364  13.360
88517W        W56746   8.336   4.224   3.692
88518W        W56747  29.379   6.816   0.401
88519W        W56748  27.086  23.105   4.570
88520W        W56749  27.348  16.666  14.010
88521W        W56750  11.405  39.644   4.891
88522W        W56751  43.405   1.702   0.928
88523W        W56752  44.280  42.970   0.086
88524W        W56753  32.664  15.559   1.009
88525W        W56754   3.441  11.639  10.314
88526W        W56755   0.690  41.561   5.161
88527W        W56756  22.116  12.110   4.043
88528W        W56757  23.761  28.038   1.662
88529W        W56758   0.823  16.600  11.670
88530W        W56759  19.124  43.552   3.779
88531W        W56760   7.869  15.021   1.294
88532W        W56761  44.529  28.014  14.005
88533W        W56762   1.740  37.954   1.740
88534W        W56763  18.472  30.727   0.287
88535W        W56764  35.944  13.372   2.311
88536W        W56765  38.486  43.294  14.600
88537W        W56766   1.848  25.672   3.855
88538W        W56767  21.410  26.602  10.569
88539W        W56768   2.376  12.648   1.922
88540W        W56769  20.687  14.654   0.737
88541W        W56770  41.286  18.336   0.231
88542W        W56771   7.677   6.282  13.534
88543W        W56772  12.339  17.587  12.006
88544W        W56773  28.694  21.682   4.207
88545W        W56774  39.239  13.805   3.763
88546W        W56775  14.810  44.288  11.122
88547W        W56776   1.372  26.966   1.750
88548W        W56777  20.779  39.569   0.684
88549W        W56778  10.087  43.945  11.146
88550W        W56779  28.546  41.330  14.241
88551W        W56780  20.007  16.633  10.668
88552W        W56781  44.251   4.814   0.472
88553W        W56782  20.183  23.163  12.420
88554W        W56783  22.750  15.135   2.771
88555W        W56784  44.155  18.237  12.354
88556W        W56785  12.563  13.172   1.385
88557W        W56786  20.648   2.874   0.751
88558W        W56787  40.845  25.159  12.037
88559W        W56788  38.167   1.860  11.524
88560W        W56789   6.256  17.235  13.327
88561W        W56790  21.580  35.878  10.728
88562W        W56791  42.950   8.495   0.290
88563W        W56792  20.391   3.403   3.324
88564W        W56793  30.737  36.968  12.225
88565W        W56794  22.258  44.761  14.053
88566W        W56795   9.245  25.101  11.113
88567W        W56796   5.714  13.588   2.649
88568W        W56797  10.308  27.222  12.964
88569W        W56798  16.497  38.318  11.224
88570W        W56799  38.263  31.951   5.109
88571W        W56800  42.618  29.373   3.304
88572W        W56801   6.039   3.944   1.890
88573W        W56802  21.701  35.623   4.618
88574W        W56803   7.982  39.773  13.800
88575W        W56804  37.881  13.817   4.455
88576W        W56805  23.104  37.486  10.599
88577W        W56806  35.901  15.944   2.178
88578W        W56807   1.692  38.057   2.275
88579W        W56808   2.534   8.979  11.633
88580W        W56809  12.523   7.356   3.706
88581W        W56810  11.692  26.003  12.068
88582W        W56811  41.812  27.085  14.784
88583W        W56812  23.635   1.586   4.343
88584W        W56813  13.759  24.414  14.386
88585W        W56814  37.201  42.545   3.708
88586W        W56815  10.387   1.385   0.358
88587W        W56816  30.137   5.348   2.209
88588W        W56817  32.087  16.727   4.017
88589W        W56818  11.160  10.429   4.582
88590W        W56819   8.775  41.792   0.401
88591W        W56820   8.777  11.236   2.714
88592W        W56821  44.634  29.742   3.151
88593W        W56822  38.923   4.388  12.700
88594W        W56823  41.043   5.436  14.549
88595W        W56824   0.740  15.611   0.680
88596W        W56825  43.729  20.247   3.613
88597W        W56826  18.711  23.134  12.998
88598W        W56827  40.363  43.578   0.446
88599W        W56828  20.473  32.918   3.317
88600W        W56829  43.052  39.878  12.031
88601W        W56830  27.055  41.823   2.653
88602W        W56831  35.076  34.093   4.164
88603W        W56832  36.569  38.865   2.285
88604W        W56833  12.750  15.698   4.852
88605W        W56834   4.377  38.102  10.738
88606W        W56835   3.549  12.790  13.855
88607W        W56836  14.162  23.098  11.101
88608W        W56837   1.249  18.327   0.713
88609W        W56838  38.541   3.528   3.185
88610W        W56839  22.663  22.166  11.385
88611W        W56840  16.219  20.214  12.516
88612W        W56841   6.716  34.994  11.241
88613W        W56842   7.199  42.985   0.223
88614W        W56843  27.831   1.464  11.990
88615W        W56844  18.274  18.775   2.897
88616W        W56845   1.956  24.461  13.152
88617W        W56846  28.807  37.998  13.532
88618W        W56847  28.193   9.718   0.698
88619W        W56848  39.327  25.671  13.400
88620W        W56849  37.457  25.161  13.141
88621W        W56850  24.699   8.045  12.994
88622W        W56851  10.008  20.635   4.684
88623W        W56852   3.101   2.826   1.289
88624W        W56853  17.029  38.821  12.847
88625W        W56854  34.152  37.941  14.433
88626W        W56855  14.102  15.313  14.963
88627W        W56856   2.120  37.846   3.270
88628W        W56857  23.428  38.232   0.172
88629W        W56858   6.732  20.152   2.223
88630W        W56859  24.607  14.363  14.747
88631W        W56860  13.220  41.013   4.110
88632W        W56861  23.256  41.360  13.589
88633W        W56862   0.047   4.190   2.365
88634W        W56863  38.523  36.881  11.963
88635W        W56864  44.046  35.593  11.624
88636W        W56865  43.242  10.848  13.324
88637W        W56866   2.846  31.134  11.521
88638W        W56867  30.813  37.908   2.125
88639W        W56868  20.644   4.844  11.040
88640W        W56869   8.674   0.936  14.017
88641W        W56870  37.932  14.818  11.528
88642W        W56871  17.021  30.532   2.313
88643W        W56872  20.070   7.346  11.208
88644W        W56873  12.066  40.947   4.570
88645W        W56874  20.764  13.899  11.258
88646W        W56875  10.994   7.097  12.152
88647W        W56876  31.955   8.350   4.755
88648W        W56877  24.925   6.433   0.872
88649W        W56878  27.685  26.611   4.079
88650W        W56879   4.064   2.847  13.647
88651W        W56880   4.891  31.839  11.485
88652W        W56881  28.500  34.026  12.409
88653W        W56882  15.554  39.554  14.010
88654W        W56883  25.941   4.833  13.828
88655W        W56884  43.554  27.686   3.426
88656W        W56885  39.360  17.068   1.352
88657W        W56886   5.746  43.925   3.807
88658W        W56887  28.396  19.093   2.239
88659W        W56888  40.459  29.008  12.419
88660W        W56889  28.290  32.123  11.212
88661W        W56890   4.405  12.795  11.598
88662W        W56891  35.560  11.866  12.571
88663W        W56892  28.801  11.657  10.548
88664W        W56893  29.976   6.342   2.393
88665W        W56894  31.510  13.759   0.333
88666W        W56895  43.912  25.088  12.116
88667W        W56896  18.628  34.367  11.988
88668W        W56897  19.613  15.945  12.534
88669W        W56898  44.375  21.997   3.180
88670W        W56899   7.084  19.691  12.841
88671W        W56900  42.810   5.574   1.095
88672W        W56901  41.421  44.822  13.913
88673W        W56902  26.918  22.543  10.330
88674W        W56903  29.513   0.696   3.324
88675W        W56904  29.039  26.145  11.595
88676W        W56905  10.198  26.550   1.793
88677W        W56906  35.795  41.906   1.722
88678W        W56907   8.768  36.845   4.146
88679W        W56908  17.357   6.842   3.653
88680W        W56909   4.087   3.868  14.965
88681W        W56910   9.389   9.846  14.323
88682W        W56911  30.638  33.578   4.125
88683W        W56912  20.519   6.082  11.499
88684W        W56913  36.966   6.968  12.035
88685W        W56914  17.705   0.492   1.508
88686W        W56915  21.301  35.927  11.192
88687W        W56916  36.825  35.390  12.930
88688W        W56917   9.749  12.055   1.764
88689W        W56918  16.313  38.878   4.672
88690W        W56919  16.154  40.906   4.834
88691W        W56920   9.601   4.138  12.393
88692W        W56921  36.329  38.324   4.060
88693W        W56922  18.643  24.102   4.139
88694W        W56923  26.284   3.019  13.853
88695W        W56924   5.042  36.670   1.265
88696W        W56925  12.872  36.468  14.897
88697W        W56926  11.701  22.315   1.382
88698W        W56927  42.074  35.893   1.345
88699W        W56928   1.351  37.885  12.823
88700W        W56929   1.423  24.233   2.757
88701W        W56930  43.505  22.078   4.145
88702W        W56931  25.395  40.536  14.852
88703W        W56932  39.390   8.668   0.706
88704W        W56933  31.019  14.255  12.788
88705W        W56934  13.154  27.151   0.769
88706W        W56935   7.063  42.819   1.843
88707W        W56936   9.238  10.259  10.536
88708W        W56937  35.951  20.077   3.615
88709W        W56938   9.405  33.969  14.913
88710W        W56939   6.115  14.975   0.190
88711W        W56940   1.971   9.692  12.890
88712W        W56941  28.997   6.265   4.186
88713W        W56942  20.566  36.511  11.722
88714W        W56943   3.723  27.482   3.778
88715W        W56944  18.752  22.140   4.152
88716W        W56945  17.086  19.730  11.185
88717W        W56946  12.259  26.010  13.388
88718W        W56947  43.499  44.952   4.076
88719W        W56948  13.086  36.931  10.670
88720W        W56949  19.900   5.802   4.061
88721W        W56950  29.331  12.719   4.115
88722W        W56951   7.449  32.174  14.893
88723W        W56952  33.919  41.569  13.417
88724W        W56953  16.880  18.212   1.264
88725W        W56954   4.460  38.261   1.798
88726W        W56955   6.680   0.909  12.644
88727W        W56956  14.691  26.267  11.007
88728W        W56957  35.994   5.202  12.107
88729W        W56958   1.093  25.124  11.382
88730W        W56959  21.238  34.324   4.617
88731W        W56960  13.144  25.019   4.105
88732W        W56961  40.342  12.496  10.916
88733W        W56962  21.005   5.899   4.163
88734W        W56963  14.861  18.835  10.274
88735W        W56964  22.914  14.805   4.175
88736W        W56965   1.854  23.526   2.545
88737W        W56966  22.095  22.530  14.320
88738W        W56967   2.928  12.960  14.364
88739W        W56968  29.047  38.976   4.226
88740W        W56969   9.225  31.193  13.328
88741W        W56970  36.015  13.359  11.183
88742W        W56971  12.745  27.117   2.701
88743W        W56972  21.979  31.634   2.798
88744W        W56973  44.212  40.579  12.033
88745W        W56974  29.654  27.987  12.084
88746W        W56975   6.431  29.115   4.569
88747W        W56976  20.362  30.085   2.411
88748W        W56977   2.487   9.220   2.621
88749W        W56978  28.004  22.151   4.667
88750W        W56979  13.072   1.728   4.680
88751W        W56980  34.995   0.961   5.023
88752W        W56981  31.107   7.711   2.114
88753W        W56982  33.502  18.973  11.161
88754W        W56983  10.986  35.793  13.065
88755W        W56984  37.139  16.196   0.349
88756W        W56985  42.861  27.622  14.377
88757W        W56986   6.215   5.890  13.372
88758W        W56987  37.480  37.459  12.109
88759W        W56988  42.173  33.122  14.262
88760W        W56989  29.387  14.830   0.693
88761W        W56990  11.046   2.405   4.306
88762W        W56991  44.222   1.458   2.920
88763W        W56992  19.154   3.349  13.929
88764W        W56993   0.011   1.390  11.974
88765W        W56994  42.057  37.019   0.028
88766W        W56995  33.627  42.586  13.022
88767W        W56996   2.764  44.486  12.565
88768W        W56997   4.918  35.897   4.368
88769W        W56998  36.999  37.454  11.950
88770W        W56999   9.363  14.740   3.597
88771W        W57000   9.185  29.654  11.904
88772W        W57001   7.741  36.504   1.220
88773W        W57002   7.873   1.933  12.094
88774W        W57003  26.646  14.098   3.786
88775W        W57004  38.707   9.749   1.320
88776W        W57005  20.638  23.723   4.339
88777W        W57006   4.179  43.006   0.935
88778W        W57007   2.534  23.371  10.299
88779W        W57008  19.216  27.056   0.250
88780W        W57009  26.259   3.923  11.071
88781W        W57010   8.641   7.951   0.821
88782W        W57011  23.967  36.006  14.247
88783W        W57012  17.547  19.615  13.838
88784W        W57013  13.782  29.185   1.427
88785W        W57014  17.622  42.177  12.551
88786W        W57015  21.635  34.937  12.065
88787W        W57016  34.937  34.346   1.856
88788W        W57017  36.927   6.810   3.104
88789W        W57018  21.655  37.148  14.415
88790W        W57019  27.939  21.891  10.177
88791W        W57020  15.862  20.670  12.568
88792W        W57021  10.130   6.252   4.237
88793W        W57022   8.804   7.466  13.444
88794W        W57023  41.874  36.329  14.822
88795W        W57024   7.349  41.388   2.830
88796W        W57025  16.751  38.813   1.885
88797W        W57026  44.994  27.668   3.677
88798W        W57027  41.995  36.697   0.714
88799W        W57028  15.285  24.709   1.736
88800W        W57029   8.488  10.571   2.736
88801W        W57030   9.411   9.600  10.929
88802W        W57031  29.144  29.187   1.959
88803W        W57032   9.203  32.159   5.005
88804W        W57033   8.632  37.389  12.873
88805W        W57034  29.781  30.250   0.068
88806W        W57035  40.509  11.477   0.429
88807W        W57036  32.612  40.783  13.511
88808W        W57037  41.031   4.954  14.280
88809W        W57038  26.517  42.837  12.782
88810W        W57039  25.254  11.604  12.265
88811W        W57040  27.285  21.780  13.050
88812W        W57041  34.496   2.999  10.591
88813W        W57042  31.483  41.428   0.011
88814W        W57043  23.507  37.451   4.915
88815W        W57044  39.994  17.608  11.351
88816W        W57045  37.553  23.746   1.415
88817W        W57046  15.053  14.252  14.529
88818W        W57047   7.417  22.766  14.030
88819W        W57048  23.208  24.248   0.668
88820W        W57049  36.924  40.334  10.590
88821W        W57050  28.174  13.134  11.041
88822W        W57051   4.812   7.431   1.614
88823W        W57052  12.175  12.227  14.124
88824W        W57053  30.188  36.201   3.001
88825W        W57054  15.674   6.419  13.587
88826W        W57055  13.158  28.221  11.050
88827W        W57056  42.865  33.801   0.434
88828W        W57057  10.902  32.931  12.715
88829W        W57058  30.155   4.298   0.766
88830W        W57059   4.870   7.988  12.824
88831W        W57060  32.085  17.639   4.595
88832W        W57061   7.649  42.134   3.300
88833W        W57062  12.112   8.708  11.862
88834W        W57063  22.768   9.219  13.952
88835W        W57064  22.441  22.633  11.372
88836W        W57065  35.648  26.196  10.622
88837W        W57066   2.059  38.279  10.191
88838W        W57067  42.857   1.443  13.726
88839W        W57068   5.342  41.333  10.636
88840W        W57069   7.052  44.574   2.238
88841W        W57070  40.467   6.156   2.322
88842W        W57071  28.278  18.825   1.780
88843W        W57072   7.763  28.983  14.606
88844W        W57073   4.821  22.881  10.650
88845W        W57074   6.288   3.043   1.863
88846W        W57075   9.684  19.271   4.064
88847W        W57076  16.885  37.939  12.956
88848W        W57077  23.518   3.717   2.290
88849W        W57078   5.880   6.925   2.736
88850W        W57079   4.397  30.625   3.102
88851W        W57080  32.471  29.154  14.958
88852W        W57081  27.851   8.625   5.048
88853W        W57082  11.880  15.117   0.347
88854W        W57083  39.769   5.435   0.347
88855W        W57084  34.150   3.257   1.430
88856W        W57085  34.960  15.544   1.242
88857W        W57086  37.586   7.254   2.794
88858W        W57087  11.906  31.621   4.724
88859W        W57088  25.179  29.135   4.833
88860W        W57089  12.231  14.380  14.283
88861W        W57090  14.199  17.976  12.092
88862W        W57091  36.122  28.667  14.428
88863W        W57092  35.039  18.672   5.085
88864W        W57093   0.428  38.953  13.440
88865W        W57094   3.323  16.072   4.736
88866W        W57095  31.449  30.471  12.992
88867W        W57096  38.363  28.815  13.172
88868W        W57097  22.472  23.103  11.109
88869W        W57098  37.603  44.530   3.587
88870W        W57099  43.245  43.300  10.683
88871W        W57100   7.771  20.208   1.230
88872W        W57101   6.892  26.505   0.474
88873W        W57102  31.636  18.180  10.861
88874W        W57103   3.645  11.784   1.230
88875W        W57104   8.351   1.101  14.458
88876W        W57105  28.910  37.276   2.206
88877W        W57106   9.381  27.931   2.708
88878W        W57107   5.177  23.562   0.851
88879W        W57108  43.101  42.287   2.714
88880W        W57109   3.749  18.299   5.088
88881W        W57110   9.427  17.674   2.575
88882W        W57111   6.948  21.216  13.977
88883W        W57112  40.045  28.731  13.462
88884W        W57113  24.628  37.482   3.235
88885W        W57114   0.294  42.496  11.663
88886W        W57115  34.798  12.962   1.707
88887W        W57116  19.942  35.545   4.201
88888W        W57117  35.847  14.255   2.673
88889W        W57118  34.368  13.565  14.330
88890W        W57119  23.933  44.449   1.331
88891W        W57120   0.318   1.001   1.823
88892W        W57121  29.632  40.263   4.149
88893W        W57122  33.699  10.916  11.523
88894W        W57123  23.772  13.152  11.960
88895W        W57124   0.810  39.884  11.668
88896W        W57125  44.297  42.273  13.526
88897W        W57126   5.969  26.880   2.545
88898W        W57127  32.669  20.668  14.754
88899W        W57128  14.751  38.467  13.866
88900W        W57129  29.684  10.215  10.556
88901W        W57130  32.986  18.345  11.192
88902W        W57131  41.374  15.321   2.750
88903W        W57132   7.623  37.826  14.080
88904W        W57133  38.321   8.285  14.737
88905W        W57134  44.850  16.607  14.557
88906W        W57135  20.677  43.416  12.335
88907W        W57136  15.058  43.878   0.279
88908W        W57137  21.248  44.287   2.228
88909W        W57138  40.289  16.265  12.060
88910W        W57139  27.418  22.804   3.214
88911W        W57140  23.500  17.837  13.439
88912W        W57141   1.374  17.185  13.763
88913W        W57142  21.039  35.459   0.871
88914W        W57143  28.571  21.892  14.591
88915W        W57144  26.068  15.116  11.086
88916W        W57145  16.067  31.965  12.737
88917W        W57146  21.551  38.262  10.778
88918W        W57147  40.311  33.369  11.453
88919W        W57148  26.127  22.049  12.529
88920W        W57149  22.241  16.465   4.516
88921W        W57150  34.633  33.010  11.232
88922W        W57151  37.276  42.769   0.759
88923W        W57152  16.040  20.311   5.422
88924W        W57153  22.168   7.874  14.952
88925W        W57154   5.414  15.668  11.049
88926W        W57155  30.291  35.886   1.328
88927W        W57156  11.305  38.162   4.204
88928W        W57157   0.887  15.164  12.677
88929W        W57158  26.457   9.246   4.531
88930W        W57159  33.668  35.029  10.628
88931W        W57160  22.503  27.550  11.501
88932W        W57161   3.238  19.094   1.831
88933W        W57162   7.882  35.044   3.059
88934W        W57163   6.210  33.840   2.345
88935W        W57164   3.303  27.214   0.647
88936W        W57165  31.667  28.711  13.371
88937W        W57166   2.548   2.357   2.372
88938W        W57167   6.838  30.600  14.470
88939W        W57168  34.135  20.150   0.754
88940W        W57169  32.069  21.130   3.428
88941W        W57170  27.561   9.161   0.912
88942W        W57171   1.944  41.068   3.014
88943W        W57172   6.330  30.267   4.129
88944W        W57173  23.000  22.568  11.479
88945W        W57174  43.317  12.865   3.518
88946W        W57175  35.107  10.761   1.804
88947W        W57176   7.730  39.874   4.878
88948W        W57177  29.111  20.815   4.389
88949W        W57178  26.301  37.517   3.432
88950W        W57179  10.749  31.076  12.350
88951W        W57180  39.923  16.181   0.966
88952W        W57181  37.981  41.028  12.577
88953W        W57182  31.906  12.957   2.374
88954W        W57183  28.230  13.084   0.092
88955W        W57184  20.623   8.437  14.089
88956W        W57185  31.880  34.190  14.249
88957W        W57186  26.858   3.181   4.172
88958W        W57187   1.355  10.929   0.876
88959W        W57188  31.958  34.006   3.751
88960W        W57189  39.407   3.888   1.295
88961W        W57190  33.710  16.539   1.263
88962W        W57191  31.055  24.641  14.781
88963W        W57192  17.406   5.598   0.334
88964W        W57193  12.533  15.148   1.898
88965W        W57194  11.180  16.164  13.497
88966W        W57195  19.546  30.630  13.078
88967W        W57196  17.203  30.562  11.219
88968W        W57197  39.298   4.211   1.738
88969W        W57198  21.814  11.337   2.200
88970W        W57199  16.835  20.798  12.881
88971W        W57200  24.488   4.378   0.913
88972W        W57201   2.374  26.075   1.353
88973W        W57202  14.539  18.822   5.076
88974W        W57203  33.518  28.144   2.685
88975W        W57204  17.755  29.805   4.429
88976W        W57205   0.871   0.027  13.717
88977W        W57206  15.321   6.047  14.590
88978W        W57207  35.254  27.698   1.293
88979W        W57208  39.116  25.052  12.485
88980W        W57209  12.251  18.226   4.420
88981W        W57210  37.501   6.740   4.887
88982W        W57211  14.740  34.136   3.773
88983W        W57212  28.186   9.234   0.430
88984W        W57213  32.546  27.530  11.323
88985W        W57214  30.519  38.278  12.125
88986W        W57215  19.062  40.780  13.482
88987W        W57216   9.202  31.597  12.998
88988W        W57217   2.094  30.643  14.510
88989W        W57218   6.268  15.067  12.490
88990W        W57219  32.521  19.849   4.557
88991W        W57220  34.486   0.902  12.383
88992W        W57221  40.682  25.738   4.223
88993W        W57222  14.128   7.586  11.010
88994W        W57223  33.367  23.698  12.981
88995W        W57224  40.865  26.332  14.980
88996W        W57225   6.995  11.215   4.618
88997W        W57226  23.486  21.182  10.680
88998W        W57227  18.964  27.903   1.766
88999W        W57228   3.301   5.944   3.839
89000W        W57229  43.470  35.087  11.694
89001W        W57230  42.937  29.042  10.700
89002W        W57231  17.100  25.801   5.049
89003W        W57232   3.316  35.876  14.392
89004W        W57233  16.818  36.377  14.898
89005W        W57234  30.905  30.580   2.881
89006W        W57235  42.124  13.618   4.006
89007W        W57236  38.417   9.975   4.551
89008W        W57237  23.483  38.787  13.895
89009W        W57238   4.928   7.407   4.015
89010W        W57239  17.002   9.975  12.839
89011W        W57240  23.254   1.966  13.670
89012W        W57241  38.331  28.156   0.243
89013W        W57242  11.902   0.890   2.548
89014W        W57243  39.231  19.957  14.868
89015W        W57244  44.231   7.869  13.357
89016W        W57245  14.256  35.937   3.801
89017W        W57246  22.077  24.480   0.421
89018W        W57247  15.127  18.983   3.226
89019W        W57248  35.339  16.205  14.470
89020W        W57249  26.682   4.956  10.547
89021W        W57250   8.480  15.052   2.671
89022W        W57251  30.592  12.300  11.505
89023W        W57252   3.861  25.543  14.656
89024W        W57253   2.852  32.933   0.639
89025W        W57254  25.513  40.851  14.066
89026W        W57255  12.159  22.023   2.419
89027W        W57256  30.491  33.053  10.668
89028W        W57257  21.021  33.069  10.644
89029W        W57258   0.483  38.449   3.278
89030W        W57259  42.921  43.293   4.429
89031W        W57260  20.654  32.695  12.525
89032W        W57261  37.646  24.219  12.402
89033W        W57262  33.803  12.185  11.592
89034W        W57263  13.527   6.992  13.334
89035W        W57264  28.479  12.784   3.133
89036W        W57265  30.658  32.546   2.637
89037W        W57266  37.507   0.511  10.611
89038W        W57267  36.779  34.854  13.869
89039W        W57268  22.269   6.965  14.778
89040W        W57269  21.543  36.871  12.503
89041W        W57270  39.020  15.817  12.679
89042W        W57271  22.555   8.287  12.882
89043W        W57272   9.214  25.776   2.259
89044W        W57273  28.204  33.598  12.466
89045W        W57274  14.113  44.885   2.966
89046W        W57275  40.640  19.740   1.978
89047W        W57276   3.871  29.211   4.751
89048W        W57277  18.645  17.717  13.035
89049W        W57278   3.981  12.715  10.471
89050W        W57279  15.052  44.539   1.398
89051W        W57280  26.973  10.202  12.047
89052W        W57281   8.662  43.497   3.963
89053W        W57282  13.974  26.079   0.866
89054W        W57283  43.325  25.911   3.717
89055W        W57284  16.885  35.377   2.415
89056W        W57285   0.175  35.494  12.979
89057W        W57286  41.370   1.832   4.366
89058W        W57287  36.789  19.474  12.959
89059W        W57288  11.442  42.946  10.645
89060W        W57289  32.811  30.118   4.187
89061W        W57290   8.222  23.423   4.785
89062W        W57291  38.603  13.319  12.616
89063W        W57292  33.890  16.314  11.875
89064W        W57293  44.357  33.272   3.504
89065W        W57294  37.729   6.561  11.598
89066W        W57295  13.915   2.949  13.406
89067W        W57296  26.185  12.380   0.429
89068W        W57297   4.742  39.097  13.862
89069W        W57298   6.832  20.155   3.784
89070W        W57299  35.993  42.229   4.004
89071W        W57300  44.792   8.327  12.000
89072W        W57301  32.926  34.511   4.558
89073W        W57302  33.737  27.534   0.436
89074W        W57303  19.194  39.039   3.112
89075W        W57304   4.734  36.775  14.522
89076W        W57305  10.800  25.926   0.543
89077W        W57306  11.211  33.987  11.150
89078W        W57307  33.012  15.076   2.334
89079W        W57308  40.417   6.657  12.089
89080W        W57309  24.414  15.604   1.126
89081W        W57310  21.158  15.276  11.665
89082W        W57311  39.998  30.377   2.683
89083W        W57312  42.478   2.268  13.012
89084W        W57313  23.107  13.694  14.732
89085W        W57314  35.589   9.209  12.000
89086W        W57315  40.025   7.374  12.678
89087W        W57316  28.561  25.649   3.553
89088W        W57317   0.319  13.892  14.054
89089W        W57318   6.909  41.471   3.097
89090W        W57319  28.969  22.083   3.993
89091W        W57320   3.291  38.398  14.033
89092W        W57321   1.214  17.323   0.958
89093W        W57322  43.790  36.357  13.778
89094W        W57323   1.454   2.250   0.327
89095W        W57324  19.353   9.979  11.056
89096W        W57325   4.665  25.906   1.735
89097W        W57326  13.068  11.125   0.375
89098W        W57327  36.066  37.894   3.209
89099W        W57328  43.611  15.750  14.937
89100W        W57329  34.997   0.452  13.094
89101W        W57330  43.262  21.025  12.549
89102W        W57331  20.473  21.051   3.732
89103W        W57332  41.825  34.162  12.082
89104W        W57333  24.691  37.932  10.652
89105W        W57334  18.317   9.537   0.884
89106W        W57335  18.243  29.324  12.034
89107W        W57336  31.708  12.286   3.604
89108W        W57337  23.504  39.424   2.213
89109W        W57338  16.269  40.835   2.585
89110W        W57339  25.559  19.563  10.542
89111W        W57340  21.825  35.853  12.981
89112W        W57341  43.960  16.003   1.707
89113W        W57342  41.350   5.640  14.969
89114W        W57343  16.180  21.828   1.174
89115W        W57344   7.994  21.413   0.934
89116W        W57345  33.299  18.228   4.543
89117W        W57346  39.389  41.534   2.218
89118W        W57347  30.493  37.266   5.194
89119W        W57348  29.246  18.704  11.141
89120W        W57349  17.214  31.026  10.696
89121W        W57350  13.134   0.749  10.437
89122W        W57351  12.041  40.497   3.776
89123W        W57352  17.503   8.634  11.886
89124W        W57353  38.743   9.468  12.651
89125W        W57354  18.892  32.031   4.512
89126W        W57355  34.287  10.452  12.478
89127W        W57356  33.956  43.878  10.521
89128W        W57357  44.455  37.675   0.229
89129W        W57358  33.010  44.083  10.714
89130W        W57359  23.154  29.013  10.890
89131W        W57360  40.940  13.624  14.507
89132W        W57361   4.644   0.542  10.407
89133W        W57362  42.092  21.257   2.917
89134W        W57363   5.671  36.119  14.349
89135W        W57364  23.032  34.049  11.873
89136W        W57365  16.260  27.499   4.760
89137W        W57366  29.498  12.338  11.954
89138W        W57367  40.272  40.574   0.908
89139W        W57368  21.651   5.225  10.890
89140W        W57369  42.307  39.517  14.252
89141W        W57370  11.536  33.055  13.452
89142W        W57371  42.679  43.484   2.385
89143W        W57372  41.486  31.524   1.885
89144W        W57373  18.458  41.505  11.906
89145W        W57374  15.535  34.079  12.567
89146W        W57375  21.453   1.864   2.276
89147W        W57376  31.003  36.615   2.448
89148W        W57377   5.312  26.928   3.937
89149W        W57378  21.610  17.262  12.095
89150W        W57379   1.982  31.182   2.747
89151W        W57380  11.658  42.258   1.387
89152W        W57381  14.757  17.653   9.623
89153W        W57382  20.774  31.135   2.187
89154W        W57383  35.847  14.152   3.323
89155W        W57384  11.931  41.688   5.127
89156W        W57385  35.589  44.313  13.112
89157W        W57386  36.854   2.286  14.453
89158W        W57387  15.318  20.503  12.532
89159W        W57388  23.587  19.874   1.382
89160W        W57389  28.898  30.486   4.957
89161W        W57390  30.794   0.685  14.333
89162W        W57391  32.377  17.346  13.451
89163W        W57392   6.587  37.297  13.971
89164W        W57393  34.012  23.389   3.359
89165W        W57394   9.476  16.171  13.752
89166W        W57395  34.086   1.255  10.463
89167W        W57396   8.956  23.339  13.709
89168W        W57397  34.127  36.344   4.037
89169W        W57398  23.824  33.147  11.229
89170W        W57399  44.761   8.776   4.804
89171W        W57400  19.817   2.746  13.743
89172W        W57401  20.994  42.622  14.925
89173W        W57402  22.465  40.345  12.668
89174W        W57403  28.784  15.639  14.344
89175W        W57404  24.144  25.151   2.765
89176W        W57405   2.855   1.779   3.905
89177W        W57406  40.760   4.936  12.577
89178W        W57407  43.909   6.242   4.535
89179W        W57408   9.235   2.846  11.120
89180W        W57409  37.115   6.080  12.601
89181W        W57410  20.806  16.327   3.606
89182W        W57411  21.033  37.127  12.492
89183W        W57412   2.747  41.917  11.104
89184W        W57413   2.345   5.169  12.474
89185W        W57414  29.951  17.869   2.869
89186W        W57415  43.404  42.469  13.592
89187W        W57416  11.949  18.307  14.415
89188W        W57417   6.503  11.629   1.338
89189W        W57418  10.419  43.415   0.832
89190W        W57419  19.603  17.203  12.981
89191W        W57420  42.484  19.869   2.719
89192W        W57421  43.851  40.805  12.394
89193W        W57422  44.905  18.525   0.780
89194W        W57423   3.873  34.393   3.643
89195W        W57424  40.041  18.102  14.860
89196W        W57425  13.995  17.178  11.486
89197W        W57426  28.064  23.423   0.116
89198W        W57427  36.375  36.597   0.245
89199W        W57428  12.648   0.434   0.857
89200W        W57429   9.091  44.917  11.064
89201W        W57430  33.105   2.195   1.373
89202W        W57431  26.484  41.453  14.430
89203W        W57432  37.600  15.658   1.669
89204W        W57433  21.102   0.482  13.431
89205W        W57434   3.041  17.954   3.769
89206W        W57435  22.827  29.069  13.472
89207W        W57436   2.352   1.697   0.916
89208W        W57437   7.730   0.728  10.580
89209W        W57438  37.475  12.085  14.784
89210W        W57439  42.966  18.533  13.478
89211W        W57440  43.507   9.848   0.044
89212W        W57441  20.113   7.272   3.723
89213W        W57442   3.196  26.628   1.291
89214W        W57443  43.276   0.735   4.507
89215W        W57444  23.242  36.196  13.100
89216W        W57445  18.182  37.105   4.064
89217W        W57446  20.200  35.218   3.898
89218W        W57447  17.569   3.754   2.150
89219W        W57448   7.987  44.422  10.437
89220W        W57449  14.755  12.504   1.385
89221W        W57450  24.139  26.948   3.055
89222W        W57451   7.788  28.960   4.317
89223W        W57452   7.323   2.727   1.685
89224W        W57453  22.518  14.603   0.391
89225W        W57454   8.846  25.690  14.079
89226W        W57455  20.946   2.891   0.275
89227W        W57456  20.294  43.402  11.535
89228W        W57457  32.778  21.193  13.214
89229W        W57458  37.268  10.763  14.372
89230W        W57459  27.577  31.721   3.119
89231W        W57460  24.508  36.655  13.898
89232W        W57461   5.275   6.592  13.427
89233W        W57462  12.331  15.625   3.885
89234W        W57463  42.527  15.696   3.158
89235W        W57464  19.161  36.738  10.354
89236W        W57465  12.684   5.842   1.086
89237W        W57466  40.116  10.676   2.131
89238W        W57467  38.130  29.420  12.402
89239W        W57468   0.726  13.672  12.746
89240W        W57469  26.946   3.361  13.040
89241W        W57470  20.304  31.910  12.889
89242W        W57471  36.117   0.828   0.844
89243W        W57472  19.791  39.453   0.458
89244W        W57473  14.366  14.200   3.357
89245W        W57474  38.233  43.653   4.595
89246W        W57475   8.928   9.036  13.273
89247W        W57476  11.576  18.684   2.866
89248W        W57477  37.093  42.767   4.616
89249W        W57478   0.323  23.761   4.506
89250W        W57479  17.711  41.041   0.926
89251W        W57480  19.531  37.722  14.207
89252W        W57481  31.390  32.590   4.518
89253W        W57482   3.472  28.591  12.828
89254W        W57483  39.009  34.359   3.881
89255W        W57484   0.967  30.911   1.548
89256W        W57485  26.152   7.786   3.661
89257W        W57486  10.277  20.659   0.211
89258W        W57487  20.334   7.043  12.953
89259W        W57488  34.249  18.676  11.568
89260W        W57489  16.968  17.210  11.103
89261W        W57490   0.996   6.718  10.725
89262W        W57491  31.545  29.010   1.319
89263W        W57492  37.041  13.555  11.964
89264W        W57493  21.567  29.439   2.167
89265W        W57494  16.697  21.560  14.454
89266W        W57495  41.022  35.484  13.337
89267W        W57496  27.897  19.020  12.984
89268W        W57497  31.242  16.171  10.788
89269W        W57498  38.820  41.381  13.177
89270W        W57499  38.904   2.862  12.903
89271W        W57500  26.903  33.634  14.962
89272W        W57501  24.145  39.435  12.129
89273W        W57502  43.235  32.060  13.361
89274W        W57503  38.076  34.531   4.990
89275W        W57504  14.840  11.471   1.315
89276W        W57505   6.456  38.969   3.739
89277W        W57506   5.799  19.610  13.463
89278W        W57507  19.546  20.510   2.138
89279W        W57508  21.301   6.671   4.639
89280W        W57509  32.543  34.107  13.515
89281W        W57510  41.577  37.817  13.322
89282W        W57511   8.697  40.373  13.028
89283W        W57512  35.696  33.910   0.353
89284W        W57513  20.681  38.865   3.645
89285W        W57514   7.340  43.056  13.793
89286W        W57515  19.636  23.109   1.905
89287W        W57516  15.589  31.123   1.810
89288W        W57517  33.237  27.492  11.191
89289W        W57518  20.453  12.865   0.708
89290W        W57519   5.753  44.085  14.874
89291W        W57520   2.898   6.663   2.651
89292W        W57521  23.592  34.511   0.531
89293W        W57522  35.587  25.817  10.957
89294W        W57523   8.684   8.474  11.582
89295W        W57524   3.353   3.004   1.736
89296W        W57525  23.165  25.254   1.898
89297W        W57526  34.467  11.406   0.209
89298W        W57527  42.522  40.119   2.177
89299W        W57528  27.921  14.397  13.512
89300W        W57529  37.109  24.876   3.734
89301W        W57530  27.220   6.348   2.052
89302W        W57531   5.908  21.765  10.681
89303W        W57532  13.094   2.105  10.408
89304W        W57533  44.024  37.949  12.109
89305W        W57534   9.416  18.182  14.421
89306W        W57535   2.257  30.435  10.652
89307W        W57536   7.402   8.558   5.277
89308W        W57537  21.481  10.286   1.487
89309W        W57538  13.797  12.785  14.432
89310W        W57539  18.429  20.249  10.253
89311W        W57540  16.841  10.715   3.123
89312W        W57541  40.723  25.979  11.205
89313W        W57542   4.957  10.335  13.056
89314W        W57543  28.190  13.699  14.407
89315W        W57544  17.273   1.913   2.265
89316W        W57545  23.613  18.201   0.039
89317W        W57546   3.332  33.143   0.722
89318W        W57547  39.017   0.639   1.816
89319W        W57548   6.581   9.977  11.134
89320W        W57549  18.881  41.424   0.731
89321W        W57550  12.762  38.682  12.573
89322W        W57551  15.784   6.252   0.484
89323W        W57552  39.546   2.321  11.495
89324W        W57553  38.998  22.651  13.606
89325W        W57554  33.669  15.246   1.762
89326W        W57555  18.839   0.802   2.081
89327W        W57556  19.666   4.198   1.709
89328W        W57557  38.603  21.733  13.397
89329W        W57558  33.218  33.423  12.879
89330W        W57559  31.188  15.168   3.344
89331W        W57560  22.110  20.397   3.299
89332W        W57561  40.539  43.369  14.990
89333W        W57562  28.187   7.239  11.358
89334W        W57563   7.564  31.152   3.190
89335W        W57564   4.932  20.533  12.527
89336W        W57565  43.341  23.039   2.352
89337W        W57566  16.901  14.469   3.729
89338W        W57567  17.114  43.352   2.688
89339W        W57568  38.108   2.755   0.398
89340W        W57569   1.732  27.169   2.750
89341W        W57570   6.514   5.001  10.725
89342W        W57571  28.663  33.036   1.733
89343W        W57572  39.444  30.289  12.356
89344W        W57573  36.488   1.534   1.233
89345W        W57574  28.317  33.886  10.118
89346W        W57575  13.571   3.716   2.635
89347W        W57576  42.502  40.115   3.267
89348W        W57577  33.347  13.751  10.362
89349W        W57578   6.409   2.431  11.034
89350W        W57579  20.779   2.854   1.660
89351W        W57580  43.886  23.368   4.211
89352W        W57581  38.960  34.779   3.527
89353W        W57582   5.922   7.786   2.485
89354W        W57583  39.059  14.563  14.418
89355W        W57584   4.211   6.199   3.460
89356W        W57585   8.659   0.970   3.666
89357W        W57586  14.718  14.641  14.872
89358W        W57587  17.637  20.626  13.397
89359W        W57588  38.818  26.048  11.705
89360W        W57589  40.535  32.938   5.510
89361W        W57590   1.842  29.897  11.241
89362W        W57591  30.037  24.550   1.488
89363W        W57592  44.384  16.385  12.381
89364W        W57593  15.266   2.678   4.134
89365W        W57594  38.457  28.738  10.633
89366W        W57595  21.236  41.396   2.440
89367W        W57596  16.045  42.174  11.321
89368W        W57597  38.577  41.463  14.891
89369W        W57598  15.392  33.454   0.400
89370W        W57599  30.894  29.678  13.980
89371W        W57600  39.112  36.994   1.954
89372W        W57601  34.762  36.672   2.628
89373W        W57602  11.553  30.138  11.589
89374W        W57603   1.741   4.779  11.927
89375W        W57604  35.647  36.051  12.821
89376W        W57605  41.312   3.366  13.112
89377W        W57606   1.477  13.978   0.422
89378W        W57607  28.159   0.768   2.709
89379W        W57608  41.684  36.203   1.291
89380W        W57609  29.042  38.057   4.072
89381W        W57610  27.669   1.887   3.220
89382W        W57611  19.713  27.491  10.621
89383W        W57612  34.155  19.037   2.115
89384W        W57613  37.255  23.993   3.897
89385W        W57614   2.531  17.369   4.601
89386W        W57615   3.922  29.423  14.542
89387W        W57616  16.765  20.110   4.344
89388W        W57617   5.455   0.290   3.228
89389W        W57618  16.189  44.792   0.238
89390W        W57619  38.088  43.930   2.568
89391W        W57620  21.601  19.032  14.261
89392W        W57621  22.846   8.898   0.830
89393W        W57622  33.914  29.411   4.748
89394W        W57623  33.576  21.026   1.345
89395W        W57624  34.064  27.884  11.420
89396W        W57625  38.509  34.548   0.280
89397W        W57626  29.414  21.029   3.213
89398W        W57627  33.626  15.643  13.045
89399W        W57628  32.846  43.222  12.427
89400W        W57629  33.831  11.683  12.766
89401W        W57630  36.377   9.377  13.790
89402W        W57631  15.047  12.569  10.155
89403W        W57632  32.460   9.834   3.438
89404W        W57633  35.658   5.641   2.606
89405W        W57634   9.420  15.103  13.865
89406W        W57635  30.377  12.189   3.189
89407W        W57636  32.853  20.295  14.391
89408W        W57637  19.673  25.699   2.859
89409W        W57638  26.226  26.669  12.934
89410W        W57639  19.757   9.826   1.303
89411W        W57640   3.505  33.999   0.879
89412W        W57641  10.205  12.818  14.345
89413W        W57642  27.776  37.897   3.092
89414W        W57643  28.553  19.814   1.423
89415W        W57644  38.324  25.423   2.344
89416W        W57645  31.127   4.175   1.274
89417W        W57646  30.372   4.268  12.914
89418W        W57647  39.518  17.186   0.279
89419W        W57648   4.718  17.801   2.272
89420W        W57649  43.984  38.394   0.245
89421W        W57650  34.322  12.516   4.107
89422W        W57651  37.806   2.414   2.715
89423W        W57652  25.098  32.883   0.015
89424W        W57653  35.113  29.961   4.638
89425W        W57654   5.999  10.305   2.918
89426W        W57655  28.950  26.039  13.938
89427W        W57656  16.254  36.589  11.483
89428W        W57657  18.338  31.394  11.171
89429W        W57658  28.434  42.470  11.551
89430W        W57659  10.398  11.007   1.394
89431W        W57660   2.209  20.096  14.370
89432W        W57661  39.331   1.834  14.823
89433W        W57662  27.539  25.688   4.656
89434W        W57663  32.456   6.126   1.705
89435W        W57664   2.326  42.013   3.673
89436W        W57665   0.337  38.553   0.333
89437W        W57666   1.698  25.551  14.012
89438W        W57667  44.009  18.737  12.513
89439W        W57668  22.238  44.949   3.597
89440W        W57669  27.580   2.365  10.565
89441W        W57670  10.644  12.670   2.123
89442W        W57671  23.414  12.963  10.674
89443W        W57672  28.481  11.720   2.598
89444W        W57673  10.067   7.197  13.904
89445W        W57674  26.462  17.767  14.824
89446W        W57675  42.953   9.338  14.690
89447W        W57676   1.461  11.940  11.683
89448W        W57677   2.319  25.717   1.958
89449W        W57678   9.743  10.891   2.818
89450W        W57679   2.368  23.670  14.718
89451W        W57680   9.828  14.271   3.032
89452W        W57681  11.458   8.470  12.482
89453W        W57682   3.704  40.520   2.831
89454W        W57683  14.758   6.751  11.590
89455W        W57684  34.247  43.259   2.362
89456W        W57685  17.829   6.898  14.880
89457W        W57686  26.127   2.556  13.996
89458W        W57687  10.413  10.702  10.575
89459W        W57688  30.390  20.665   4.419
89460W        W57689  31.551  34.444   0.921
89461W        W57690  34.087   0.256   4.581
89462W        W57691  31.934   3.456  14.326
89463W        W57692  33.621   5.352  13.409
89464W        W57693  28.960   1.489   1.290
89465W        W57694  28.006  36.584  11.851
89466W        W57695   1.043   8.507  12.921
89467W        W57696   1.549   5.721   3.538
89468W        W57697   6.958   7.306   4.201
89469W        W57698  43.220   2.381   4.958
89470W        W57699  43.855  13.777  14.779
89471W        W57700   9.987  40.701   1.230
89472W        W57701   4.362  40.306  10.605
89473W        W57702   8.442  15.313  11.524
89474W        W57703   4.586  40.090  12.317
89475W        W57704  26.468  11.918   0.358
89476W        W57705  39.833   9.027  14.427
89477W        W57706   6.007  38.367   3.328
89478W        W57707   0.944  11.868   2.210
89479W        W57708  18.733   0.628  10.762
89480W        W57709   3.252  26.207  11.580
89481W        W57710  40.865  32.905   4.569
89482W        W57711  34.931  41.744  13.608
89483W        W57712  19.820  26.674   0.385
89484W        W57713  27.476   8.634   2.632
89485W        W57714  20.775   8.785   3.997
89486W        W57715  21.637  17.069   0.166
89487W        W57716  12.889  24.966  11.246
89488W        W57717  25.607  33.800   2.166
89489W        W57718   7.155  15.824  13.915
89490W        W57719  36.282  43.905   1.786
89491W        W57720  42.627  27.944   1.896
89492W        W57721  18.828  32.869   4.456
89493W        W57722  42.391  38.363   0.284
89494W        W57723  33.938  22.692  11.908
89495W        W57724  28.476  30.523  11.693
89496W        W57725  27.957   8.026  13.713
89497W        W57726  19.298  34.782   5.342
89498W        W57727   3.885  42.569  14.474
89499W        W57728  15.512   5.195  13.550
89500W        W57729  40.838  10.353  13.933
89501W        W57730   7.981  42.819  13.188
89502W        W57731   1.217  39.835   3.675
89503W        W57732   0.725  26.429   0.762
89504W        W57733  33.054  42.098  13.586
89505W        W57734  12.254   7.184   0.722
89506W        W57735  34.446  25.260   4.197
89507W        W57736  21.555  25.128   0.110
89508W        W57737  36.958  31.021   4.071
89509W        W57738  21.692  14.860   3.401
89510W        W57739   6.862  19.201   2.383
89511W        W57740   1.740  41.605   1.646
89512W        W57741  28.440  21.226  11.058
89513W        W57742  30.431   0.900   1.855
89514W        W57743   3.153  25.485  11.096
89515W        W57744  39.042  43.117   2.841
89516W        W57745  10.371   9.706  14.293
89517W        W57746  12.665  11.146   0.840
89518W        W57747  44.887  38.204   1.234
89519W        W57748  37.581  19.440   3.333
89520W        W57749  13.582  21.445  14.398
89521W        W57750  31.500  43.524   2.916
89522W        W57751  10.830  34.578  10.592
89523W        W57752  35.880   4.242   2.374
89524W        W57753  39.335  22.582  12.552
89525W        W57754  18.143  32.934  12.409
89526W        W57755  36.026  41.573   1.417
89527W        W57756  39.876  32.964  13.798
89528W        W57757  17.631  18.740   1.646
89529W        W57758  11.261  39.388  12.781
89530W        W57759  13.322  11.710  11.362
89531W        W57760  21.249   9.264   1.849
89532W        W57761   7.659   7.895   2.913
89533W        W57762  19.268   0.466   2.110
89534W        W57763   8.158  41.509   3.810
89535W        W57764  18.941  16.365   1.384
89536W        W57765  22.619  35.421  10.324
89537W        W57766  16.947  17.736  11.565
89538W        W57767  41.170  25.563   0.167
89539W        W57768  18.244   3.639  14.404
89540W        W57769  18.691  44.131  12.558
89541W        W57770  23.930  23.122   4.531
89542W        W57771  27.713  18.545  12.927
89543W        W57772  27.135   5.668  12.437
89544W        W57773  23.209   3.279   3.662
89545W        W57774   2.366  14.313  10.803
89546W        W57775  18.126  30.882  11.182
89547W        W57776  25.815   9.817  12.299
89548W        W57777  38.148  24.508  14.485
89549W        W57778  14.820   5.721   3.581
89550W        W57779   4.372  13.741  11.118
89551W        W57780  11.044   6.899  11.690
89552W        W57781   9.913  31.328   4.337
89553W        W57782  16.175  13.220   0.838
89554W        W57783   0.957  34.324  12.794
89555W        W57784  28.496  14.467  12.918
89556W        W57785  30.666  28.415  13.366
89557W        W57786  21.228  28.268   3.224
89558W        W57787  22.682   4.855  12.537
89559W        W57788   0.468  38.955  12.471
89560W        W57789   6.940  13.809  12.724
89561W        W57790  33.198  40.844   4.268
89562W        W57791  30.356   7.331   2.371
89563W        W57792   3.827  30.910  13.816
89564W        W57793   9.695  13.555   3.717
89565W        W57794  17.656  14.400   2.927
89566W        W57795   0.698  25.277  14.914
89567W        W57796   7.661  12.399  13.559
89568W        W57797  42.686  33.067  14.340
89569W        W57798  42.014  41.050   9.908
89570W        W57799  11.779  44.938  12.054
89571W        W57800  16.563  34.483   4.175
89572W        W57801  39.514   9.500  10.686
89573W        W57802  20.616  15.766   5.059
89574W        W57803  10.960  36.533  13.944
89575W        W57804  23.240   6.478  12.547
89576W        W57805  30.368  14.065   1.374
89577W        W57806  27.740  27.027  14.397
89578W        W57807  25.057  25.152   2.649
89579W        W57808  37.460  22.180   2.180
89580W        W57809  33.341  10.874   3.680
89581W        W57810  15.191  23.663   4.118
89582W        W57811  15.583  17.079   3.170
89583W        W57812  29.179  11.583  14.922
89584W        W57813  18.532  10.275   4.274
89585W        W57814   5.137   5.951  13.954
89586W        W57815  36.169  11.990   1.227
89587W        W57816  16.064  32.829  13.689
89588W        W57817  34.942  36.553  10.735
89589W        W57818  17.640  40.551   4.417
89590W        W57819  43.609  25.979  11.154
89591W        W57820  22.559  42.182   4.858
89592W        W57821   2.305  29.112   2.234
89593W        W57822  30.359  34.884   0.824
89594W        W57823   4.635  41.484   5.016
89595W        W57824  40.390  34.864   0.719
89596W        W57825  13.763   0.700  10.666
89597W        W57826   8.711   2.637   3.762
89598W        W57827  21.466  39.965  12.993
89599W        W57828  41.745  36.440   2.791
89600W        W57829  35.632  42.793  10.665
89601W        W57830  30.469  37.525  13.275
89602W        W57831  24.043  25.389   1.481
89603W        W57832   5.701   2.664   3.150
89604W        W57833  33.575  22.667  11.530
89605W        W57834   7.864  14.291  10.930
89606W        W57835  23.909  24.185  11.712
89607W        W57836  28.320  29.008   4.807
89608W        W57837  11.957  33.129   1.995
89609W        W57838  11.610  42.950   3.373
89610W        W57839  39.405  39.051   0.867
89611W        W57840  28.585  15.296   2.917
89612W        W57841  17.616  15.176   1.675
89613W        W57842   0.745   4.369   3.363
89614W        W57843   7.444   1.716  14.828
89615W        W57844  14.038   5.503   0.267
89616W        W57845   0.832  25.489   2.999
89617W        W57846   5.436   6.609   0.328
89618W        W57847   6.467  35.054   1.319
89619W        W57848  20.166   5.757  13.478
89620W        W57849  21.360  41.257   2.904
89621W        W57850  15.601  19.048   0.333
89622W        W57851  11.718  42.729  11.988
89623W        W57852   4.184  27.518   0.199
89624W        W57853  38.021   2.976   2.130
89625W        W57854  27.161  40.975  13.519
89626W        W57855  31.908  29.106  11.593
89627W        W57856  24.205   8.656   0.455
89628W        W57857  18.790   3.165   5.302
89629W        W57858   6.391  40.454   0.321
89630W        W57859  19.332  30.217   3.185
89631W        W57860   1.375  39.282   3.175
89632W        W57861  22.238  32.264   4.812
89633W        W57862  29.464  10.240  13.937
89634W        W57863  21.036  36.941   4.581
89635W        W57864  28.201  22.600   3.271
89636W        W57865   8.858  16.838   3.325
89637W        W57866  28.277  35.395   2.831
89638W        W57867  26.090  41.477   4.252
89639W        W57868  11.007  19.467   5.010
89640W        W57869  30.735  41.499   1.239
89641W        W57870  22.568  25.656  13.601
89642W        W57871  11.101   5.714   1.800
89643W        W57872  42.410   5.071   3.904
89644W        W57873  42.367   8.373  13.246
89645W        W57874  17.382  19.658   3.395
89646W        W57875  16.207  42.240   0.880
89647W        W57876  32.695  44.166  12.051
89648W        W57877  25.418  16.393   4.553
89649W        W57878  15.342  30.940   3.971
89650W        W57879  17.730   9.736   2.021
89651W        W57880  43.296  18.117   2.207
89652W        W57881   9.698   0.278  11.727
89653W        W57882  20.597  43.276   0.881
89654W        W57883  15.708  35.067  13.829
89655W        W57884  10.111  17.142   3.505
89656W        W57885  19.596  10.864  12.981
89657W        W57886  43.282  26.350  11.044
89658W        W57887  41.434  40.473  14.588
89659W        W57888  20.143  40.784  14.020
89660W        W57889   7.287   6.306   0.833
89661W        W57890  13.950  30.122  10.755
89662W        W57891   1.289  17.094   0.468
89663W        W57892  16.697   4.063   4.041
89664W        W57893   3.233  16.454   1.830
89665W        W57894  31.651  36.123  12.176
89666W        W57895  14.188  25.339   9.852
89667W        W57896  41.550  13.062   2.662
89668W        W57897   1.314  20.947  13.609
89669W        W57898  20.039  32.078  13.312
89670W        W57899  38.308  15.960  11.980
89671W        W57900  24.703   1.461   1.972
89672W        W57901  10.247   7.420   4.115
89673W        W57902  22.253  23.999   0.895
89674W        W57903   9.806   2.932   0.333
89675W        W57904  26.149  39.731  11.160
89676W        W57905   7.257  28.768   0.808
89677W        W57906  30.399  11.141  14.029
89678W        W57907  27.954   2.669   3.639
89679W        W57908  12.724  21.083   0.118
89680W        W57909   3.217  20.075  12.565
89681W        W57910  33.255  36.320  13.786
89682W        W57911  20.509   4.425   2.241
89683W        W57912  12.828   6.261   1.823
89684W        W57913  17.741  17.506   3.658
89685W        W57914  16.883  28.471   2.335
89686W        W57915  18.878  14.588  13.590
89687W        W57916  15.779   9.613  13.230
89688W        W57917  24.294  28.732  13.903
89689W        W57918  43.782  34.637   3.749
89690W        W57919  44.724  23.795  14.920
89691W        W57920  13.084   6.731   0.835
89692W        W57921   6.283   2.206   0.053
89693W        W57922  37.452   7.389   4.026
89694W        W57923  16.591  20.560  11.627
89695W        W57924  27.595  12.885  14.851
89696W        W57925  10.946  13.179   3.341
89697W        W57926  18.233  14.448  11.177
89698W        W57927  23.083  13.164  12.834
89699W        W57928   0.284   7.743  14.143
89700W        W57929  18.153  20.292   4.751
89701W        W57930   1.809   8.440   3.178
89702W        W57931  17.478  17.161  11.080
89703W        W57932  32.253  10.405  10.776
89704W        W57933  35.557  33.500   3.938
89705W        W57934  15.587  39.314   3.528
89706W        W57935  34.078   3.917  12.021
89707W        W57936  37.581  41.405   2.774
89708W        W57937  35.577  31.532  14.005
89709W        W57938  12.941   4.454   1.348
89710W        W57939  26.490  24.621   1.918
89711W        W57940   0.499  40.328  12.186
89712W        W57941  26.489   0.755   2.751
89713W        W57942  12.720  14.696   1.760
89714W        W57943  33.152  11.201   2.554
89715W        W57944  44.506   3.186   1.847
89716W        W57945  12.298  29.925   0.192
89717W        W57946  10.571  43.388   1.352
89718W        W57947  34.633  23.096   0.329
89719W        W57948  35.969   8.365  13.839
89720W        W57949  38.951  30.366  13.947
89721W        W57950  30.329  19.777  10.604
89722W        W57951  26.537  18.503   1.335
89723W        W57952   9.907  28.283  13.558
89724W        W57953  30.172  44.834  13.926
89725W        W57954  18.526  23.041   1.359
89726W        W57955  35.624  31.589  11.022
89727W        W57956  11.407  38.596  13.381
89728W        W57957   1.573  31.468  12.797
89729W        W57958  43.954  36.426  14.272
89730W        W57959  20.495  15.074   0.971
89731W        W57960  41.037  20.014   3.688
89732W        W57961   3.205  38.706  11.218
89733W        W57962  23.845  40.693  13.482
89734W        W57963  11.297  14.660  12.782
89735W        W57964   9.205  14.100  13.934
89736W        W57965   4.907  25.713  12.374
89737W        W57966  21.616  41.324  11.893
89738W        W57967  34.540   0.733   2.298
89739W        W57968  37.838  29.215  12.000
89740W        W57969  19.716  43.759  14.399
89741W        W57970  26.450  11.255   0.263
89742W        W57971  25.935  44.849  12.166
89743W        W57972   5.287  14.118  11.656
89744W        W57973   2.778   3.683  14.858
89745W        W57974   6.431   1.821   0.359
89746W        W57975  21.130   0.868  13.797
89747W        W57976  40.500  34.037  14.418
89748W        W57977  24.887  41.032   2.340
89749W        W57978  19.623  32.492   0.925
89750W        W57979  39.497   0.343  14.814
89751W        W57980  23.587  16.399  11.158
89752W        W57981  21.688  29.081   1.807
89753W        W57982   7.870  16.563   3.832
89754W        W57983  28.302   2.248  14.235
89755W        W57984  29.087  13.079  14.481
89756W        W57985   5.643  24.735  11.608
89757W        W57986   0.198  37.104   4.444
89758W        W57987  32.990  27.484  10.467
89759W        W57988  42.022   4.516   0.316
89760W        W57989   8.785  11.665  12.741
89761W        W57990  33.961   6.677  10.653
89762W        W57991  41.039  29.451  12.912
89763W        W57992  22.605  27.928  11.177
89764W        W57993  35.969   6.761  13.798
89765W        W57994   3.814   3.670  13.075
89766W        W57995   7.349   0.367  10.676
89767W        W57996  11.806  26.808   4.140
89768W        W57997  24.673  13.168  12.838
89769W        W57998   6.839  39.066  13.455
89770W        W57999  38.054  40.879  14.429
89771W        W58000   1.813  36.415   3.457
89772W        W58001   3.997  19.017  12.003
89773W        W58002  28.704  20.478  11.539
89774W        W58003   0.434  21.997   1.226
89775W        W58004  11.843  36.883  11.949
89776W        W58005  27.518  13.630   3.169
89777W        W58006  35.685  16.165  11.151
89778W        W58007  37.995  26.033   3.460
89779W        W58008  41.970  41.804   3.492
89780W        W58009  20.183  40.231  11.757
89781W        W58010  12.668  28.945   4.572
89782W        W58011  10.801   6.478  13.871
89783W        W58012  44.346  19.127  13.906
89784W        W58013  14.837  39.282  13.525
89785W        W58014  13.403  35.611  14.688
89786W        W58015  38.915  12.876   2.195
89787W        W58016  16.736  27.535  14.488
89788W        W58017  33.507  29.007  14.345
89789W        W58018  39.906  10.775  12.945
89790W        W58019  12.172  39.860  11.999
89791W        W58020  42.352  32.964  11.918
89792W        W58021  26.881  43.955  10.614
89793W        W58022  12.549   5.776   4.284
89794W        W58023  22.148  22.443  12.051
89795W        W58024  33.299  44.699  13.774
89796W        W58025   2.279   0.987  10.683
89797W        W58026  38.813  19.108  14.868
89798W        W58027  41.993  21.597  11.029
89799W        W58028  42.771  32.167  10.537
89800W        W58029  30.333  39.895  11.194
89801W        W58030   6.228   3.523  11.549
89802W        W58031  27.011   2.604  14.260
89803W        W58032  31.976  14.143  13.488
89804W        W58033  26.291  37.988   4.514
89805W        W58034  11.832  30.741  11.144
89806W        W58035  35.051  19.106  12.461
89807W        W58036  23.687  43.000   1.115
89808W        W58037  16.693  42.482   2.659
89809W        W58038  21.953  11.830   1.398
89810W        W58039  22.591  43.151  12.369
89811W        W58040  40.910  17.099   3.669
89812W        W58041  27.324  14.383   9.460
89813W        W58042   1.494  34.746   3.733
89814W        W58043  43.727  27.818  14.281
89815W        W58044   2.516   7.800  13.878
89816W        W58045  27.157  29.073  14.583
89817W        W58046  37.480  43.427  10.536
89818W        W58047  10.139   9.360  11.186
89819W        W58048  44.930  32.977  12.555
89820W        W58049  44.404  17.842   3.028
89821W        W58050   6.458  31.521   5.044
89822W        W58051  26.216   5.410   2.267
89823W        W58052  20.029  42.522   4.033
89824W        W58053  29.930  38.002   4.087
89825W        W58054   8.816  33.624   0.141
89826W        W58055   9.775  19.307  12.055
89827W        W58056  10.897  16.880   3.303
89828W        W58057  23.262   8.683  13.589
89829W        W58058  41.838  39.312  10.700
89830W        W58059  21.815  21.753   1.882
89831W        W58060  28.999  16.024   1.360
89832W        W58061  17.644  37.583  12.435
89833W        W58062   5.624   0.795  13.431
89834W        W58063   7.768  20.684  13.947
89835W        W58064  24.682   9.091  13.675
89836W        W58065  33.593  37.312  14.417
89837W        W58066  34.962   8.879  13.921
89838W        W58067  24.169  33.670   1.401
89839W        W58068  32.577  28.578   2.668
89840W        W58069  28.793  20.680  13.335
89841W        W58070  27.601  44.640  11.612
89842W        W58071   0.872  38.692   5.041
89843W        W58072  43.577  37.084   0.098
89844W        W58073  37.019  12.785  13.319
89845W        W58074  22.999  34.477  11.584
89846W        W58075  12.315  19.666  11.560
89847W        W58076   9.644  44.684   2.642
89848W        W58077  27.298  16.163   3.968
89849W        W58078   4.167   7.818   1.067
89850W        W58079  20.014  14.595  14.426
89851W        W58080   4.849  19.047  14.855
89852W        W58081  11.089  42.923   3.197
89853W        W58082   6.902  43.302   2.011
89854W        W58083  39.610   1.201  12.920
89855W        W58084  40.328   5.780  10.713
89856W        W58085   1.747  31.686   4.226
89857W        W58086   7.025  33.922  12.788
89858W        W58087  30.318   3.433   4.127
89859W        W58088  38.223  28.177  12.857
89860W        W58089  11.278  20.065  14.320
89861W        W58090   2.390  33.155   2.797
89862W        W58091  38.740   9.717  13.803
89863W        W58092  29.117   9.945  11.587
89864W        W58093  31.445   5.734   4.721
89865W        W58094   9.304  12.710   2.141
89866W        W58095  19.537  12.261   3.605
89867W        W58096  32.358  18.087   0.750
89868W        W58097  20.355  28.984   2.260
89869W        W58098  44.093  44.859   1.902
89870W        W58099  25.088  35.737   4.908
89871W        W58100  13.552  28.547  13.992
89872W        W58101   5.192  31.474   0.005
89873W        W58102  26.411  10.296   0.675
89874W        W58103  16.148  28.862  10.100
89875W        W58104  22.223   9.557   0.881
89876W        W58105   5.043  36.680  14.092
89877W        W58106   5.306  44.894   0.769
89878W        W58107  23.598  10.500  11.981
89879W        W58108  18.322   3.768   0.386
89880W        W58109  19.439  40.531  14.589
89881W        W58110  41.403  37.547  14.863
89882W        W58111  14.095  30.085   0.623
89883W        W58112  18.581  24.950  14.335
89884W        W58113  24.516  34.877  12.045
89885W        W58114   3.801  21.222   9.879
89886W        W58115  13.837  35.045   2.938
89887W        W58116  28.587  13.537  11.977
89888W        W58117   9.028  14.948  11.030
89889W        W58118  28.283  40.989   2.227
89890W        W58119  23.958   8.958  11.337
89891W        W58120   7.470  29.132  13.478
89892W        W58121  29.594  12.609  12.412
89893W        W58122   3.796  44.298   4.497
89894W        W58123  43.758  36.684   1.784
89895W        W58124  16.411   1.018   3.562
89896W        W58125  38.289   6.993   2.739
89897W        W58126  41.151  33.200   4.268
89898W        W58127  24.779   7.324  10.732
89899W        W58128  28.522  42.667   1.337
89900W        W58129   6.597  13.108  14.184
89901W        W58130   4.749  26.609   1.291
89902W        W58131  36.173  36.557   3.773
89903W        W58132   7.155   3.991   4.463
89904W        W58133  29.616  36.940  11.677
89905W        W58134  24.187  31.964  11.217
89906W        W58135  30.045  13.840   2.323
89907W        W58136  13.196  32.448  13.762
89908W        W58137  11.952  18.300   0.546
89909W        W58138  43.734  11.217  12.980
89910W        W58139  37.786  23.074   2.167
89911W        W58140  17.828  22.529  13.096
89912W        W58141   4.737   7.881  14.794
89913W        W58142  15.348  19.613  13.194
89914W        W58143  25.372  12.355   2.211
89915W        W58144  33.793  38.347   4.214
89916W        W58145  29.172  16.743   2.281
89917W        W58146   3.957  19.665   2.206
89918W        W58147  25.632  41.104  11.149
89919W        W58148  18.809  13.786  11.214
89920W        W58149  29.354  34.079  10.827
89921W        W58150  17.783  36.768  14.911
89922W        W58151  34.200   2.378   1.915
89923W        W58152  41.429  26.941   1.394
89924W        W58153  41.882  42.965   3.716
89925W        W58154  14.336   7.923  13.760
89926W        W58155   0.221  10.844   2.113
89927W        W58156  32.018  18.062  11.511
89928W        W58157   5.807   5.436   2.350
89929W        W58158  33.087   2.935  14.282
89930W        W58159   6.206   3.470   2.742
89931W        W58160  32.842  25.952   0.689
89932W        W58161  19.615  39.952   0.404
89933W        W58162  35.877   3.809   1.463
89934W        W58163   5.412  31.107   1.934
89935W        W58164  12.175   3.678  11.593
89936W        W58165  25.145  15.901  10.969
89937W        W58166  20.137  25.756   0.802
89938W        W58167   8.165  14.153   3.127
89939W        W58168  23.708  30.491  10.729
89940W        W58169  19.050   0.034  14.230
89941W        W58170  14.572  16.848  14.375
89942W        W58171   0.398  13.709   2.336
89943W        W58172   3.568  43.375  11.920
89944W        W58173   1.140  28.064   0.998
89945W        W58174  10.090  21.075  13.866
89946W        W58175  10.930  33.925   2.757
89947W        W58176   0.677  41.785  11.940
89948W        W58177  39.397  27.572  10.680
89949W        W58178  11.313  28.979  13.086
89950W        W58179  36.573  41.863   5.039
89951W        W58180  12.655  36.856   0.819
89952W        W58181  40.733   7.631   3.131
89953W        W58182  24.938   8.815  14.461
89954W        W58183  11.401   0.255  13.868
89955W        W58184  35.996  33.144  14.381
89956W        W58185  26.134  15.235  10.077
89957W        W58186  30.427  41.408   0.358
89958W        W58187  29.054  43.924   4.002
89959W        W58188  19.577  33.606  11.550
89960W        W58189  27.295  17.639  10.547
89961W        W58190  26.484  29.308  12.089
89962W        W58191   3.406  13.197   3.906
89963W        W58192  40.432  25.108  10.289
89964W        W58193  32.988  21.646  13.933
89965W        W58194  11.240  31.368  12.972
89966W        W58195   3.159  41.646   0.324
89967W        W58196  26.685  15.117  12.403
89968W        W58197   3.214   2.546  11.843
89969W        W58198   7.374  19.679   4.900
89970W        W58199   5.592  19.095  14.073
89971W        W58200   9.275  41.762   0.778
89972W        W58201  39.360  14.290   2.776
89973W        W58202  34.846  27.254  14.825
89974W        W58203   2.791  18.557   2.365
89975W        W58204   6.661  25.026  11.564
89976W        W58205   6.114   6.882   0.754
89977W        W58206  43.939   8.957  11.089
89978W        W58207  13.651  15.342  13.641
89979W        W58208  18.083   8.441   4.953
89980W        W58209   0.502   8.158   1.841
89981W        W58210  32.984  23.430   0.878
89982W        W58211  36.212  22.232   2.807
89983W        W58212  27.959  27.501  14.410
89984W        W58213  30.073  14.854  11.556
89985W        W58214  24.655  21.258  14.803
89986W        W58215  32.213  30.487   1.509
89987W        W58216  31.273  43.591  13.855
89988W        W58217  11.849  39.384   1.046
89989W        W58218  34.845  15.073   1.443
89990W        W58219  35.375  28.665   1.126
89991W        W58220  19.100  21.191   2.347
89992W        W58221  19.212   3.704  14.372
89993W        W58222  15.223  34.404  13.581
89994W        W58223  42.068  30.463  10.651
89995W        W58224  28.156  13.815  10.648
89996W        W58225  12.811  44.935  12.429
89997W        W58226  22.000   2.319  13.460
89998W        W58227  15.629  25.933   3.339
89999W        W58228  32.952  38.006   3.142
90000W        W58229  27.391   9.831   0.427
90001W        W58230   0.400  15.645  14.809
90002W        W58231   0.449  22.755   0.973
90003W        W58232   6.485   4.955   3.782
90004W        W58233   6.795  28.938   4.234
90005W        W58234  31.066  32.849   2.746
90006W        W58235   4.076  44.576   4.118
90007W        W58236  14.769  35.095  13.806
90008W        W58237  37.899   1.290  13.957
90009W        W58238   9.288  30.584  12.118
90010W        W58239  41.967  36.890  12.459
90011W        W58240   9.162  42.294   1.818
90012W        W58241  14.314  39.466  14.319
90013W        W58242  21.450   4.799   2.558
90014W        W58243   2.145  39.460  12.845
90015W        W58244  42.385   4.117   1.243
90016W        W58245  42.203  22.096  13.889
90017W        W58246  10.936  26.501  14.870
90018W        W58247  13.341   9.204   5.512
90019W        W58248  27.349  15.438   0.233
90020W        W58249   8.959  27.045   0.884
90021W        W58250  34.907  24.658  14.085
90022W        W58251  11.284  11.659   1.665
90023W        W58252   5.919  42.930  11.131
90024W        W58253  22.016  11.754   0.381
90025W        W58254  21.511   3.258  13.509
90026W        W58255  37.441  26.913   0.347
90027W        W58256   1.736  19.683   0.325
90028W        W58257   8.358  25.970  14.105
90029W        W58258  11.396  29.522  10.469
90030W        W58259  17.709  20.144  10.735
90031W        W58260  12.684  21.079   1.024
90032W        W58261  24.120  36.119  13.286
90033W        W58262  14.074  17.503  12.280
90034W        W58263  10.637  32.020  11.992
90035W        W58264   2.821  31.630   3.824
90036W        W58265  30.041   8.761  11.562
90037W        W58266  23.927   9.796   3.147
90038W        W58267  15.943  11.686  11.409
90039W        W58268  41.471  18.290  14.335
90040W        W58269  33.342   9.978   4.660
90041W        W58270  36.790  42.699   4.040
90042W        W58271  41.326  10.774  13.769
90043W        W58272   4.475   8.002  13.857
90044W        W58273   1.320  17.134  11.112
90045W        W58274  40.893  39.593  14.251
90046W        W58275  30.034   1.233   3.930
90047W        W58276  24.641  32.330   4.648
90048W        W58277   7.211  23.025  11.685
90049W        W58278  35.742  41.420   1.852
90050W        W58279  15.951  26.197   0.093
90051W        W58280  11.814  37.298   0.222
90052W        W58281  38.751  36.824  13.875
90053W        W58282  32.383  34.563  13.802
90054W        W58283  16.252  25.770  14.862
90055W        W58284   2.253  13.095   0.808
90056W        W58285  38.530  24.625   4.585
90057W        W58286  27.290  37.328  13.842
90058W        W58287  13.644  40.848  10.776
90059W        W58288  37.095  29.641  11.718
90060W        W58289   0.808  37.311  12.079
90061W        W58290  20.905  20.733   2.334
90062W        W58291  38.254  26.317  12.858
90063W        W58292  15.691  43.922   9.673
90064W        W58293  25.818  20.937   4.593
90065W        W58294  24.706  39.431   4.122
90066W        W58295  23.925  41.897  11.530
90067W        W58296   0.887  11.758  12.825
90068W        W58297  25.374  28.763   1.317
90069W        W58298   0.778  19.771   2.325
90070W        W58299  29.069  30.518   0.746
90071W        W58300  23.015  36.507  12.662
90072W        W58301  12.797   7.442  14.967
90073W        W58302  16.725   7.742   3.262
90074W        W58303  18.198   8.263  11.884
90075W        W58304   5.424  38.816  11.582
90076W        W58305  10.738  29.728  14.051
90077W        W58306  33.972  33.550  12.223
90078W        W58307  29.027  30.764   2.799
90079W        W58308   4.076  33.371   3.563
90080W        W58309   0.818  26.579  14.511
90081W        W58310  23.366  28.891   0.692
90082W        W58311  30.327  12.638   1.228
90083W        W58312  28.687   4.922  13.072
90084W        W58313  25.487  17.588  11.176
90085W        W58314   7.324  33.066   2.087
90086W        W58315  35.002  33.593   1.390
90087W        W58316  35.624  19.130   2.367
90088W        W58317   8.698  20.419   1.532
90089W        W58318   0.489   3.017   0.881
90090W        W58319  14.670  25.754  11.067
90091W        W58320  10.179  30.948   4.586
90092W        W58321  32.160  15.137  14.625
90093W        W58322  10.742   0.488  10.674
90094W        W58323  38.407  16.528   0.066
90095W        W58324   2.382  41.640  11.556
90096W        W58325  29.139  33.106  10.994
90097W        W58326   8.255  29.049  10.685
90098W        W58327   2.963   7.730   0.970
90099W        W58328  16.274  31.579   9.973
90100W        W58329   0.719  24.158  14.385
90101W        W58330  33.008  44.857   3.724
90102W        W58331  28.179  36.840  10.505
90103W        W58332  41.958   9.642   0.206
90104W        W58333   8.886  41.187  10.892
90105W        W58334  44.908  20.525   3.517
90106W        W58335  44.244  27.126   1.429
90107W        W58336  21.192  35.849   0.500
90108W        W58337  38.969  27.624  14.935
90109W        W58338  21.469  41.461  13.579
90110W        W58339  18.971  38.298   4.068
90111W        W58340  20.845  29.477   2.702
90112W        W58341  31.690  27.191  14.833
90113W        W58342   2.466  11.485  11.179
90114W        W58343   8.617  26.951   0.509
90115W        W58344   2.491  31.473   4.688
90116W        W58345   0.866   8.423  12.444
90117W        W58346  20.297  41.895   3.273
90118W        W58347  12.031  31.005  14.893
90119W        W58348  31.585  26.926  14.412
90120W        W58349   9.683  14.780  14.462
90121W        W58350  15.579  10.110  13.361
90122W        W58351  38.826   7.519   3.423
90123W        W58352  15.259  34.399  10.523
90124W        W58353   6.409  27.804   4.495
90125W        W58354   0.628  28.171   1.012
90126W        W58355  22.606  21.462  14.209
90127W        W58356  16.575   1.501   0.457
90128W        W58357  41.085  31.875  13.138
90129W        W58358  20.260  13.045   2.860
90130W        W58359  23.701  43.798   1.799
90131W        W58360   8.553  15.629  11.965
90132W        W58361   2.076   6.701   0.432
90133W        W58362   1.749   8.708   4.479
90134W        W58363  20.159  22.468   4.058
90135W        W58364  28.398  26.931  11.786
90136W        W58365  37.344  16.869  13.889
90137W        W58366  14.293  29.224  11.199
90138W        W58367  35.512   6.388   5.177
90139W        W58368  14.703  10.421  14.452
90140W        W58369  10.340  24.109  11.829
90141W        W58370  42.912  26.114   3.976
90142W        W58371  24.605  20.571   0.379
90143W        W58372  39.132   6.463   5.382
90144W        W58373  18.159   1.231  11.122
90145W        W58374  41.041   2.690  12.573
90146W        W58375  26.952  16.419  12.326
90147W        W58376  13.522  26.694  13.808
90148W        W58377  33.829  22.976   3.124
90149W        W58378   8.833  25.864   1.295
90150W        W58379  39.494  30.532  12.807
90151W        W58380  25.694  38.597   0.811
90152W        W58381   4.260  37.020   3.239
90153W        W58382  32.724   9.132  13.835
90154W        W58383  39.078  19.736   0.339
90155W        W58384   5.189  24.175  11.290
90156W        W58385  32.898  38.589  14.201
90157W        W58386   2.113  32.666  11.235
90158W        W58387  15.839  25.105   1.198
90159W        W58388   3.351  13.599   5.029
90160W        W58389  42.061  38.396  11.679
90161W        W58390  44.814  24.431  11.037
90162W        W58391  26.180   7.317   0.316
90163W        W58392   1.371  19.881  11.537
90164W        W58393  35.612  26.549  12.256
90165W        W58394  28.848  20.564   1.402
90166W        W58395  10.638  42.246   3.772
90167W        W58396   0.334   7.731  13.592
90168W        W58397  22.710  29.641   3.190
90169W        W58398  20.576  36.505   3.532
90170W        W58399  12.157   6.326   3.277
90171W        W58400  17.756   9.156  11.186
90172W        W58401  33.641  34.107   2.197
90173W        W58402  25.338  13.643  11.692
90174W        W58403  32.903  11.369  12.306
90175W        W58404  22.224  29.614  13.966
90176W        W58405  18.823  11.884  11.583
90177W        W58406  41.007  19.265   0.711
90178W        W58407  33.717  25.901  11.552
90179W        W58408  19.262  31.179   3.176
90180W        W58409   0.626  13.932  13.612
90181W        W58410   9.809   1.227   4.078
90182W        W58411  35.396  34.946   3.145
90183W        W58412  19.698  38.595  12.521
90184W        W58413  39.674   1.425   1.309
90185W        W58414   5.247  23.938   3.701
90186W        W58415  12.860  44.976   3.298
90187W        W58416  18.051  23.650   2.967
90188W        W58417  11.896   0.451   2.887
90189W        W58418  14.191  11.699  13.965
90190W        W58419  38.677   7.805   4.210
90191W        W58420   9.282  37.271  13.987
90192W        W58421  38.840   6.891  12.050
90193W        W58422  36.790  33.655  13.413
90194W        W58423  37.695  44.268  12.930
90195W        W58424  36.129  34.021   3.933
90196W        W58425  31.580  35.492  14.269
90197W        W58426  13.066  37.355   3.708
90198W        W58427  14.877  21.089   0.386
90199W        W58428  19.105  41.649  12.623
90200W        W58429  38.027  21.789  13.964
90201W        W58430   1.829  18.346  12.433
90202W        W58431  41.137  39.770  12.016
90203W        W58432   1.406  23.001   1.900
90204W        W58433  16.787  33.596   1.825
90205W        W58434  35.545  16.349   2.080
90206W        W58435  42.857  22.845  12.285
90207W        W58436   9.964  17.723   2.626
90208W        W58437  19.221  22.034   4.340
90209W        W58438  40.981  28.998   2.804
90210W        W58439  13.537  14.556   4.953
90211W        W58440  36.176  35.598   0.705
90212W        W58441  16.855   3.281  14.695
90213W        W58442  29.851  16.749   1.673
90214W        W58443  34.292  44.749   0.846
90215W        W58444  17.755   4.846  11.102
90216W        W58445  13.213  32.042   1.299
90217W        W58446  40.547   3.645  13.982
90218W        W58447   0.874  26.102  11.939
90219W        W58448  41.771  44.494   3.690
90220W        W58449  21.208   0.159  10.581
90221W        W58450  27.147  35.006   1.308
90222W        W58451  43.892   0.221  11.423
90223W        W58452  38.049  27.496  11.583
90224W        W58453   4.566  19.008  13.343
90225W        W58454  31.527  10.270   4.803
90226W        W58455   5.978  38.684   3.744
90227W        W58456  16.518  15.088   0.814
90228W        W58457  40.761  21.681   2.409
90229W        W58458  35.152  42.232   0.182
90230W        W58459   0.460  13.290  14.941
90231W        W58460  15.236  12.358  11.954
90232W        W58461   1.078  18.559  14.856
90233W        W58462  11.610  18.299   2.185
90234W        W58463   6.345  28.376  11.103
90235W        W58464  17.969  13.968  11.963
90236W        W58465   8.045   4.189  11.611
90237W        W58466  39.858  30.067   2.278
90238W        W58467  38.206   8.770  12.084
90239W        W58468  14.846  25.533   2.166
90240W        W58469   2.359  44.300  14.247
90241W        W58470  20.671  15.992  12.461
90242W        W58471  26.697  20.802  11.509
90243W        W58472   5.157  25.081   5.374
90244W        W58473  33.472   8.330   3.786
90245W        W58474   6.324   6.379   0.770
90246W        W58475  42.774  16.157   3.141
90247W        W58476   3.650  32.195  11.890
90248W        W58477  40.963  41.913  10.679
90249W        W58478   9.532  26.177  13.540
90250W        W58479  12.844  36.030   3.846
90251W        W58480  29.137  10.228  10.718
90252W        W58481  43.491  43.143   2.721
90253W        W58482  30.237  39.283  13.551
90254W        W58483  24.575  19.601  13.325
90255W        W58484   3.853   7.183   3.012
90256W        W58485  10.328  14.080  10.121
90257W        W58486  37.520  16.313  11.587
90258W        W58487  38.619   7.256  14.005
90259W        W58488  19.446  23.160   1.437
90260W        W58489  14.770  29.881  13.474
90261W        W58490  23.695   1.905  11.878
90262W        W58491  26.427  44.808  11.165
90263W        W58492   9.458   3.538   1.271
90264W        W58493   9.729  26.414  11.278
90265W        W58494  22.784  22.118   3.409
90266W        W58495  34.825  32.157  10.185
90267W        W58496   2.618  27.791   0.851
90268W        W58497  12.906  37.387   3.171
90269W        W58498  21.326   5.974  11.078
90270W        W58499   5.696  26.646  13.431
90271W        W58500  19.519   2.896   4.701
90272W        W58501  30.873  38.870  10.182
90273W        W58502  23.428  44.386   1.392
90274W        W58503  30.097  13.724   0.430
90275W        W58504  12.274   8.904  12.841
90276W        W58505   9.714   3.032  11.089
90277W        W58506  14.630  27.262   1.200
90278W        W58507   4.672  34.039   4.378
90279W        W58508   8.495  34.627  13.469
90280W        W58509  31.386  17.078   2.775
90281W        W58510   6.932   8.738   1.616
90282W        W58511  33.646  38.574   3.234
90283W        W58512   9.699  24.586   4.221
90284W        W58513  32.133  29.042   3.313
90285W        W58514  35.131  36.260   4.224
90286W        W58515  44.433   3.836  12.466
90287W        W58516  14.759  43.921   3.578
90288W        W58517  13.227   8.253   1.252
90289W        W58518  44.963  34.406  11.593
90290W        W58519  24.962   7.387   2.349
90291W        W58520  13.245  29.004   2.123
90292W        W58521  23.731  27.570  10.712
90293W        W58522  13.710  43.911  14.415
90294W        W58523   6.015   3.348  13.395
90295W        W58524   0.041  13.560  14.379
90296W        W58525  19.185  30.074  13.200
90297W        W58526  28.258  24.005   5.005
90298W        W58527   6.830  37.037  14.386
90299W        W58528  29.592  40.714   0.654
90300W        W58529  40.676  11.891  12.959
90301W        W58530  27.427   4.111  14.908
90302W        W58531   3.462  33.622   4.121
90303W        W58532  29.060  42.428   0.956
90304W        W58533  37.768   9.229   3.664
90305W        W58534  44.345  41.335  14.962
90306W        W58535   6.849  13.426  11.074
90307W        W58536   4.837  17.100   2.005
90308W        W58537   8.698   3.383  13.354
90309W        W58538  16.269  41.321   4.573
90310W        W58539  10.692   0.912   1.748
90311W        W58540  12.696  44.278  10.699
90312W        W58541  17.528  30.500   2.220
90313W        W58542  35.255  19.118   3.368
90314W        W58543   9.603   6.286  14.290
90315W        W58544  23.630  25.700   4.733
90316W        W58545   0.169  27.147  12.199
90317W        W58546  11.085  32.160  11.089
90318W        W58547  19.773  39.156   1.684
90319W        W58548  34.647  25.542   0.363
90320W        W58549  28.709  17.338   0.956
90321W        W58550  37.907  32.518  11.599
90322W        W58551  41.150  31.929   2.010
90323W        W58552  18.239  19.106   4.779
90324W        W58553  31.560   7.153  13.467
90325W        W58554  17.566   2.723   3.319
90326W        W58555  21.734   1.762  14.701
90327W        W58556  39.100   9.174   0.382
90328W        W58557  35.042  35.301   4.176
90329W        W58558   4.364  19.336   3.651
90330W        W58559  39.123  25.647   1.910
90331W        W58560  30.057   7.841  12.084
90332W        W58561   1.530  19.114  10.925
90333W        W58562  24.771  28.713   3.606
90334W        W58563  28.046  24.684   2.730
90335W        W58564  19.078  29.975  12.691
90336W        W58565   4.170   8.452  10.729
90337W        W58566  37.415  16.939   1.000
90338W        W58567  19.594  39.014   4.187
90339W        W58568  29.091  44.000  11.137
90340W        W58569   8.672  36.885   1.908
90341W        W58570   2.202  25.336   3.674
90342W        W58571   6.226  11.374  11.207
90343W        W58572  28.416  25.032  11.539
90344W        W58573  10.422  30.082  14.950
90345W        W58574   2.003  41.983   2.317
90346W        W58575   8.073  41.527   4.505
90347W        W58576  38.195   9.718  13.809
90348W        W58577  43.578   8.148  13.041
90349W        W58578  36.907   9.652  12.132
90350W        W58579  42.670   2.299  14.878
90351W        W58580  18.679  10.855  14.564
90352W        W58581  32.760   4.131  11.731
90353W        W58582  32.282  26.528   3.538
90354W        W58583   6.245   8.641  14.379
90355W        W58584   6.025   2.985   1.400
90356W        W58585  30.005  16.262   1.736
90357W        W58586   2.793  13.084   1.359
90358W        W58587  30.339  12.659  14.812
90359W        W58588  22.975   1.759   3.102
90360W        W58589  24.286  38.466  14.062
90361W        W58590   4.007  25.579   2.659
90362W        W58591  20.981  38.421  11.382
90363W        W58592  19.943  20.341   4.139
90364W        W58593  11.689  24.299  13.511
90365W        W58594   5.682  41.496  13.876
90366W        W58595  39.434  32.917   3.287
90367W        W58596  35.481  40.558   1.815
90368W        W58597  31.875  13.619   0.952
90369W        W58598  27.668  23.255  12.587
90370W        W58599  35.923  43.885   3.348
90371W        W58600  34.046  42.948   2.804
90372W        W58601   5.923  33.434   1.110
90373W        W58602  24.661  24.188  13.846
90374W        W58603  23.375  25.808  11.121
90375W        W58604  32.407   3.921   2.628
90376W        W58605  32.962  15.562  14.140
90377W        W58606  14.328  24.985  14.827
90378W        W58607  36.138   5.772  13.447
90379W        W58608  40.365  27.450  12.625
90380W        W58609  15.365  28.482  10.755
90381W        W58610   9.608  22.211  13.929
90382W        W58611  24.986  27.095  11.675
90383W        W58612  38.449  21.992   4.714
90384W        W58613  44.941  44.318  10.918
90385W        W58614  28.896  23.528  13.938
90386W        W58615  41.002   1.252  11.595
90387W        W58616  37.598  10.039  13.302
90388W        W58617  18.037  19.449  12.710
90389W        W58618  44.286  43.125   1.141
90390W        W58619  39.967  35.892   2.920
90391W        W58620  27.714  32.915  11.069
90392W        W58621  24.557  11.189   3.765
90393W        W58622  18.949  16.967   4.085
90394W        W58623   0.908   6.205   3.659
90395W        W58624  39.754  44.908   0.821
90396W        W58625  11.244  22.723  11.874
90397W        W58626  31.441  17.742  13.521
90398W        W58627  31.844   0.978  11.098
90399W        W58628  10.348  43.396  14.377
90400W        W58629  18.119   8.796  10.477
90401W        W58630  23.405  14.278   3.202
90402W        W58631   4.709  29.607   1.712
90403W        W58632   8.211  29.937  12.350
90404W        W58633  37.109  19.083   0.855
90405W        W58634  10.126  14.810  12.471
90406W        W58635  16.083   7.270  13.245
90407W        W58636  18.591  21.531  13.439
90408W        W58637  24.030  30.711   3.659
90409W        W58638   7.289  36.865   3.384
90410W        W58639  33.520  32.866  13.139
90411W        W58640  44.475  41.293  11.077
90412W        W58641  17.353  23.112   1.041
90413W        W58642  43.689  42.824   4.423
90414W        W58643  17.975   0.872  14.388
90415W        W58644  37.354   3.095  12.507
90416W        W58645   0.142  16.494  14.976
90417W        W58646  31.919  25.686   3.205
90418W        W58647  28.940  39.815  12.842
90419W        W58648  16.035  11.104  10.162
90420W        W58649  24.166   1.043  13.950
90421W        W58650  33.951  26.160  13.612
90422W        W58651  31.370  11.628  11.306
90423W        W58652  21.195  44.284   5.098
90424W        W58653  10.519  37.324   5.023
90425W        W58654  33.039  12.604   1.964
90426W        W58655  17.860  30.392  11.017
90427W        W58656   8.556  42.345   4.833
90428W        W58657  18.625  20.985  11.953
90429W        W58658   4.269  10.289  12.352
90430W        W58659  22.772  33.113  10.927
90431W        W58660   0.817  36.828   1.381
90432W        W58661  38.528   2.860   4.631
90433W        W58662   6.537  43.308   0.686
90434W        W58663  20.526  10.537   4.607
90435W        W58664  36.929  26.117   2.458
90436W        W58665  17.673  14.969  10.694
90437W        W58666  19.612   8.649  10.909
90438W        W58667  23.987  25.614   1.944
90439W        W58668  13.187  13.175  13.102
90440W        W58669  22.996  40.701   1.199
90441W        W58670   9.433  32.496   3.222
90442W        W58671  41.040  25.092  14.243
90443W        W58672   3.606  29.457   0.896
90444W        W58673   8.771  22.006   3.076
90445W        W58674  16.097  26.636   4.871
90446W        W58675  10.230   9.168  14.226
90447W        W58676   3.856   8.169   3.305
90448W        W58677  32.497  17.647   1.886
90449W        W58678   8.326   9.812  11.526
90450W        W58679  23.676  31.715   2.216
90451W        W58680  18.572  29.574   3.247
90452W        W58681  20.781  19.984  12.457
90453W        W58682  39.075  13.419   0.068
90454W        W58683  40.950  35.094   3.350
90455W        W58684  43.197  44.780   3.680
90456W        W58685  43.428  25.208  12.287
90457W        W58686  22.161  14.169   1.426
90458W        W58687  33.794   0.540   1.836
90459W        W58688  35.499   4.105   1.823
90460W        W58689  42.297  39.370   1.723
90461W        W58690  13.056  30.954  12.355
90462W        W58691  29.639  13.161   4.601
90463W        W58692   1.965  30.384  11.114
90464W        W58693  22.726  15.084  12.561
90465W        W58694  44.469  27.482   2.680
90466W        W58695  35.383   6.205  13.116
90467W        W58696  15.055  10.108   1.207
90468W        W58697  41.330  32.141  11.321
90469W        W58698  26.229  30.944  10.877
90470W        W58699   1.773   9.321   2.845
90471W        W58700  18.039  29.058   2.821
90472W        W58701  20.695  13.400  11.235
90473W        W58702  43.258  34.503   0.527
90474W        W58703  15.312  11.731   3.758
90475W        W58704   8.589  27.543  11.977
90476W        W58705  26.470  36.854  13.604
90477W        W58706   1.356   0.050  14.832
90478W        W58707  13.358  29.444   2.946
90479W        W58708   6.796  18.114  12.379
90480W        W58709  20.991  42.480   4.586
90481W        W58710  44.899  33.892  10.986
90482W        W58711   6.364  20.970   3.295
90483W        W58712  28.096  30.698  11.062
90484W        W58713  27.089  41.756  11.325
90485W        W58714  21.054  15.806  10.205
90486W        W58715  26.419   9.622  14.030
90487W        W58716  30.900  24.755  11.096
90488W        W58717  43.375  39.846   4.195
90489W        W58718  17.234  35.130   1.693
90490W        W58719  35.889  36.236   3.501
90491W        W58720  12.242  29.450  12.489
90492W        W58721  28.036  38.323  14.823
90493W        W58722  27.111  29.456  14.994
90494W        W58723   1.229  33.665  13.345
90495W        W58724  17.219  39.534  10.997
90496W        W58725   6.139  31.470   2.685
90497W        W58726  40.846  35.170  10.507
90498W        W58727  28.765  33.574  12.484
90499W        W58728  14.648  17.647  11.194
90500W        W58729  26.722  17.240   1.514
90501W        W58730  35.866   3.687  11.797
90502W        W58731  43.043  44.327  10.702
90503W        W58732  37.081  36.989   1.931
90504W        W58733  40.986  24.125  14.527
90505W        W58734   0.921  38.244  13.447
90506W        W58735  41.790   9.357  11.055
90507W        W58736  26.146  11.287  14.408
90508W        W58737   2.455  41.529  13.588
90509W        W58738  38.639   7.636  12.546
90510W        W58739  30.956   2.455   0.848
90511W        W58740  25.713   5.605  12.775
90512W        W58741  44.758  25.518   3.572
90513W        W58742   5.676  27.492  11.219
90514W        W58743  34.400  13.330   0.539
90515W        W58744  22.919  21.249   4.932
90516W        W58745   1.885  18.293   2.727
90517W        W58746  11.638   8.894   0.431
90518W        W58747  34.747  22.264  14.502
90519W        W58748  24.577  24.529   0.050
90520W        W58749  21.534  11.611   3.670
90521W        W58750   1.312  13.590  14.028
90522W        W58751  34.881  26.573   4.014
90523W        W58752  41.974  43.745   4.682
90524W        W58753  29.492  44.497  12.229
90525W        W58754  37.420  12.807  12.138
90526W        W58755  27.170  33.250   2.700
90527W        W58756  43.826  17.824  12.453
90528W        W58757  33.690  19.266   2.153
90529W        W58758  43.543   1.330  11.252
90530W        W58759  36.814  43.993   3.610
90531W        W58760  24.980  25.326   3.696
90532W        W58761   0.015  12.195   4.869
90533W        W58762  27.952  10.559   0.078
90534W        W58763  13.670   6.634   4.212
90535W        W58764  19.276  26.326   0.947
90536W        W58765  22.152  26.193   4.474
90537W        W58766   0.471   4.298  12.063
90538W        W58767   0.311  40.813  12.075
90539W        W58768  33.798  32.610  14.139
90540W        W58769  30.081  27.624   4.770
90541W        W58770  41.530  29.897  10.718
90542W        W58771  44.731  11.646  14.059
90543W        W58772  42.424  16.648  10.882
90544W        W58773  33.174  17.101   2.029
90545W        W58774  12.083   5.258   4.509
90546W        W58775  22.470  25.542  12.626
90547W        W58776  37.098   0.661  13.813
90548W        W58777  30.228  18.534  14.403
90549W        W58778  20.565   4.452   4.127
90550W        W58779  18.821  22.936  10.367
90551W        W58780   4.150   7.008   1.287
90552W        W58781   3.250  28.501   0.936
90553W        W58782  44.394   2.731   0.527
90554W        W58783  19.311  26.945  12.458
90555W        W58784  15.350  36.727   4.260
90556W        W58785  19.632  19.723   1.628
90557W        W58786  27.810  24.993   2.107
90558W        W58787  21.463  13.270   3.136
90559W        W58788  42.758  41.748  11.396
90560W        W58789  29.899   0.261  10.481
90561W        W58790   1.398  38.779  11.096
90562W        W58791  11.333  39.286  10.879
90563W        W58792  25.626  26.035  13.145
90564W        W58793  29.527  14.255   4.129
90565W        W58794  26.194  18.256  12.006
90566W        W58795  43.210  12.666   2.191
90567W        W58796  43.468  10.425   4.022
90568W        W58797  35.211  41.399  13.861
90569W        W58798  14.289  19.196   2.196
90570W        W58799  33.438  24.545   4.586
90571W        W58800   0.410   3.011   1.439
90572W        W58801  36.115  27.841   2.173
90573W        W58802  31.436  42.729  13.478
90574W        W58803  31.583  19.482   1.344
90575W        W58804   1.341  38.482  13.646
90576W        W58805   5.216   7.630   4.870
90577W        W58806  19.260   7.864  14.166
90578W        W58807  44.981  39.517  11.232
90579W        W58808  15.744  32.817   2.234
90580W        W58809   4.439  38.785  13.223
90581W        W58810  30.111  40.330  14.346
90582W        W58811  19.315  24.074  12.481
90583W        W58812  33.667  40.984   1.813
90584W        W58813  26.623   9.972   3.289
90585W        W58814  38.351  31.635  13.727
90586W        W58815  27.369  17.720   2.742
90587W        W58816  19.360  31.883  14.453
90588W        W58817  27.010  29.065   4.998
90589W        W58818  17.762  40.891  13.780
90590W        W58819  32.227  42.533   2.142
90591W        W58820  32.344   7.615   2.561
90592W        W58821  20.493  32.947  12.098
90593W        W58822  41.399  33.128  11.398
90594W        W58823  16.658  40.289   0.383
90595W        W58824  42.420  16.792   1.282
90596W        W58825  39.895   4.886   2.221
90597W        W58826  43.667  12.420   2.165
90598W        W58827   2.030  36.215  13.974
90599W        W58828  21.351  30.752  11.587
90600W        W58829  10.837  10.659  10.302
90601W        W58830  41.694  43.288  10.739
90602W        W58831   9.601  30.546  10.563
90603W        W58832   2.624  32.670  12.913
90604W        W58833  42.901  25.127   3.005
90605W        W58834  29.192  37.898   4.526
90606W        W58835  10.045  26.092   1.952
90607W        W58836  21.745   4.330   2.730
90608W        W58837  18.444  25.040   0.314
90609W        W58838  25.545  16.077  14.471
90610W        W58839  30.556  44.213   1.320
90611W        W58840  26.455  11.233   1.308
90612W        W58841  34.951  38.506  13.527
90613W        W58842  44.227  39.287   4.714
90614W        W58843  14.740  42.174   1.446
90615W        W58844  37.949  41.444   4.035
90616W        W58845   3.523  35.832   3.620
90617W        W58846  15.115  26.203   4.764
90618W        W58847  25.737   7.505   1.777
90619W        W58848  41.462  30.628   3.798
90620W        W58849   3.848   6.403   0.659
90621W        W58850   6.197  38.136   3.787
90622W        W58851  20.852   2.541   2.957
90623W        W58852  42.961  24.516  11.938
90624W        W58853  29.862  42.224  14.123
90625W        W58854  31.556  38.395  14.502
90626W        W58855  43.874  19.701  13.600
90627W        W58856  16.482  13.237  12.877
90628W        W58857  20.041   0.446  11.564
90629W        W58858  28.888  12.803  14.993
90630W        W58859  35.624  29.223   2.204
90631W        W58860  14.480   6.482  12.003
90632W        W58861  29.950   2.669  13.474
90633W        W58862  25.265   6.782   1.772
90634W        W58863   9.190  17.704  14.357
90635W        W58864  14.094   8.684   1.212
90636W        W58865  44.444  14.528   2.449
90637W        W58866  16.038  12.737  13.820
90638W        W58867  36.076   4.253  11.606
90639W        W58868  13.913  44.578   1.782
90640W        W58869   0.490  22.091  14.811
90641W        W58870  15.653  28.223  14.372
90642W        W58871   2.925  16.221   4.093
90643W        W58872  38.398   3.815  13.874
90644W        W58873  35.373   9.351  13.374
90645W        W58874  10.980   0.378  12.560
90646W        W58875  19.856   7.995   2.895
90647W        W58876  24.436  23.278   1.004
90648W        W58877  34.021  36.274   1.850
90649W        W58878  14.559   6.346  10.586
90650W        W58879  26.633  14.855   0.302
90651W        W58880  33.475  24.736  14.996
90652W        W58881  42.340  34.492   2.461
90653W        W58882   6.915   3.284  11.314
90654W        W58883   5.439   2.167   1.444
90655W        W58884  38.787  18.228  14.028
90656W        W58885  32.788  19.749   0.813
90657W        W58886  12.022  36.443  13.485
90658W        W58887  36.310  36.269  10.195
90659W        W58888  44.880   5.208   2.454
90660W        W58889  18.562   8.618  10.764
90661W        W58890   4.918  33.598   0.001
90662W        W58891  20.829   1.822  12.383
90663W        W58892  29.296  16.563   2.765
90664W        W58893  25.592  42.306   3.674
90665W        W58894  33.743   4.337   3.537
90666W        W58895  30.046  15.283  12.520
90667W        W58896  36.537  15.344   0.343
90668W        W58897  37.762  36.633   1.435
90669W        W58898  32.376   1.043  12.343
90670W        W58899   2.233   7.468   4.103
90671W        W58900   1.022  42.350  12.351
90672W        W58901   3.270  27.979  10.714
90673W        W58902   0.071  13.316   2.398
90674W        W58903  41.828  13.634  10.901
90675W        W58904   5.822   3.457   1.209
90676W        W58905   8.874  16.800  13.058
90677W        W58906  14.783  36.631  10.651
90678W        W58907   7.289  14.683   3.848
90679W        W58908  28.072  11.853   1.813
90680W        W58909   3.792  18.303  13.329
90681W        W58910  34.862  38.356   1.856
90682W        W58911  44.721  39.380   2.314
90683W        W58912  11.396  13.731  11.175
90684W        W58913  38.307  41.311   4.404
90685W        W58914  15.043   6.713  12.743
90686W        W58915  33.934   1.370   2.242
90687W        W58916   2.938  10.286   1.798
90688W        W58917   9.853  29.648   1.406
90689W        W58918  10.121  28.432   1.209
90690W        W58919  10.301  42.131   1.196
90691W        W58920  20.995   4.225   2.155
90692W        W58921  30.658  32.547  14.773
90693W        W58922  22.380  23.630  11.182
90694W        W58923  44.391  21.627  10.907
90695W        W58924   2.016  19.305  12.197
90696W        W58925  38.495  14.118   4.577
90697W        W58926  10.656  24.311   1.337
90698W        W58927  44.959  40.101   0.055
90699W        W58928  40.902  44.029  11.492
90700W        W58929  20.205  28.071  14.474
90701W        W58930  35.065  30.679  13.282
90702W        W58931  44.537  22.186  13.359
90703W        W58932  11.160  25.166  14.423
90704W        W58933   0.742  10.775   2.219
90705W        W58934  35.416  36.648   0.108
90706W        W58935  10.212  41.971   3.971
90707W        W58936  10.933  24.665   3.930
90708W        W58937  37.762   4.400   0.376
90709W        W58938  36.104  16.629  14.321
90710W        W58939  18.326  25.090  10.104
90711W        W58940  25.951  40.305   4.189
90712W        W58941  30.200  24.679   2.497
90713W        W58942  20.269   2.414  14.803
90714W        W58943  24.285   9.239  10.610
90715W        W58944  26.918   2.261  11.029
90716W        W58945  16.904  40.838  12.306
90717W        W58946  44.781  26.352  12.453
90718W        W58947  43.584   8.921   0.309
90719W        W58948  39.853   6.511  14.705
90720W        W58949  28.135  41.500  14.911
90721W        W58950  24.676  16.560   3.582
90722W        W58951  19.176  36.265  14.445
90723W        W58952   5.221  43.206   1.143
90724W        W58953  34.570   9.196  14.469
90725W        W58954  14.173   6.496   0.430
90726W        W58955  24.699  31.491   2.259
90727W        W58956   0.864  10.256   2.256
90728W        W58957  10.746   8.348  13.398
90729W        W58958   6.917  15.922  14.349
90730W        W58959   3.485  24.489  14.409
90731W        W58960  24.040  44.245   4.171
90732W        W58961   5.679  41.313  11.557
90733W        W58962   0.325   1.397   4.399
90734W        W58963  26.958  10.675   4.560
90735W        W58964  22.977  40.542  12.863
90736W        W58965  28.971  40.710  14.068
90737W        W58966  20.044  14.187  10.808
90738W        W58967   6.607  21.032  12.579
90739W        W58968  24.834  10.221  11.098
90740W        W58969  17.013  22.705  11.971
90741W        W58970   2.939  41.591  14.517
90742W        W58971  12.021  20.192   0.171
90743W        W58972  31.687  42.379   4.125
90744W        W58973  13.552  10.150  14.463
90745W        W58974  16.181  37.100  14.916
90746W        W58975  29.948   1.856   2.690
90747W        W58976  30.238  36.024   3.584
90748W        W58977   8.296  32.502  12.525
90749W        W58978  14.191  22.602   3.210
90750W        W58979  20.386  14.241   0.762
90751W        W58980  27.362  35.471   2.351
90752W        W58981   1.439  39.348   3.708
90753W        W58982  32.123  38.490  11.170
90754W        W58983  27.666  30.436   4.508
90755W        W58984  14.051  27.978   0.173
90756W        W58985  12.337   9.278   0.043
90757W        W58986  19.180  41.495  13.122
90758W        W58987   2.719  42.685   9.561
90759W        W58988  23.733  27.507   2.233
90760W        W58989  11.636  35.562   4.317
90761W        W58990  14.613   3.216   3.388
90762W        W58991   0.497  34.794   5.469
90763W        W58992  25.915  26.420   0.427
90764W        W58993  40.401  28.595   2.915
90765W        W58994  12.235  13.972  14.594
90766W        W58995  34.975   0.707   3.679
90767W        W58996  36.087  34.287   0.401
90768W        W58997  16.829  10.209  13.995
90769W        W58998  38.342  24.707   3.303
90770W        W58999  13.952   9.992   3.417
90771W        W59000  21.257  36.244  13.768
90772W        W59001   8.209  31.490  14.912
90773W        W59002  25.044   5.682   3.095
90774W        W59003  27.593  17.996  10.807
90775W        W59004  33.938  43.046   0.687
90776W        W59005  37.921  17.530  13.381
90777W        W59006  20.652  21.592   1.436
90778W        W59007  23.085  35.658   9.824
90779W        W59008  37.197  32.946   1.866
90780W        W59009  12.346   9.945   4.015
90781W        W59010  28.904  21.927   3.127
90782W        W59011  34.213  30.963   0.977
90783W        W59012   7.933   5.376  12.302
90784W        W59013   5.374  11.094  13.481
90785W        W59014  19.780  18.374  10.095
90786W        W59015  25.710   9.239   3.185
90787W        W59016  17.696  36.941   2.392
90788W        W59017   2.172  35.878   2.669
90789W        W59018  41.351  24.473  14.913
90790W        W59019  16.708  22.542   4.607
90791W        W59020  21.070   1.960  11.166
90792W        W59021  38.880  27.403   1.777
90793W        W59022  27.232  40.913  11.017
90794W        W59023  19.612  37.334   0.165
90795W        W59024   2.442  16.149   2.261
90796W        W59025  41.967   4.341   3.403
90797W        W59026  34.042  19.730   1.483
90798W        W59027  43.540   3.418  13.737
90799W        W59028  18.787  11.670   1.628
90800W        W59029  32.163  29.101  13.800
90801W        W59030  39.039  36.480   1.873
90802W        W59031  13.339  21.833  14.867
90803W        W59032  30.499  24.694  13.505
90804W        W59033  10.913  33.003   2.222
90805W        W59034  35.574  18.750   1.130
90806W        W59035  14.282   4.254   4.889
90807W        W59036  34.169  13.733   1.423
90808W        W59037  14.202  17.493  13.063
90809W        W59038  27.049  12.892   2.361
90810W        W59039  31.279  20.294   4.434
90811W        W59040   7.319  21.723   3.260
90812W        W59041  38.990  24.541  14.150
90813W        W59042  35.922  12.639   3.618
90814W        W59043   3.849  28.993  10.822
90815W        W59044  15.652  22.001  12.020
90816W        W59045   0.945  21.616  12.164
90817W        W59046  34.991   8.430  14.877
90818W        W59047  14.530   6.174  14.210
90819W        W59048  34.412  26.432   1.922
90820W        W59049   6.036  41.843   2.395
90821W        W59050   1.732  27.313  12.532
90822W        W59051  29.059  32.590  14.720
90823W        W59052  25.954  32.385  13.536
90824W        W59053  31.436  30.564   4.599
90825W        W59054  30.445  29.054  12.237
90826W        W59055  26.263  28.906  11.105
90827W        W59056  38.855  25.125  12.919
90828W        W59057  23.524  24.702  13.441
90829W        W59058   6.587   6.874  13.515
90830W        W59059  39.946  43.514   3.180
90831W        W59060  26.542  23.447   1.171
90832W        W59061  24.410  39.264   4.512
90833W        W59062  19.510  37.426  13.786
90834W        W59063  37.752  22.261   2.594
90835W        W59064   9.664  13.664  14.257
90836W        W59065  11.874  38.481   3.439
90837W        W59066  38.427   1.536  14.965
90838W        W59067  14.951  36.404   4.277
90839W        W59068  32.044  36.255  13.067
90840W        W59069  18.607  22.050   3.078
90841W        W59070  42.066   7.304   1.669
90842W        W59071  40.951  31.403  14.072
90843W        W59072  22.460  42.376   1.731
90844W        W59073  27.177  38.182   3.631
90845W        W59074  37.624   9.133  13.994
90846W        W59075  38.109  38.424   3.078
90847W        W59076  26.623  27.518   1.202
90848W        W59077  24.147  30.604   0.358
90849W        W59078  32.305  38.976  14.104
90850W        W59079   7.873   5.239  12.794
90851W        W59080   1.568   7.006   2.145
90852W        W59081  15.182  41.913   3.653
90853W        W59082  14.303  35.180  12.083
90854W        W59083  26.998  39.479  13.494
90855W        W59084  44.603   2.242   0.574
90856W        W59085  25.175  11.157  12.528
90857W        W59086  41.263   3.484  12.186
90858W        W59087  22.521  43.330  12.848
90859W        W59088  23.104  15.438   0.535
90860W        W59089  36.650   6.809   5.421
90861W        W59090  17.088  31.889  10.284
90862W        W59091  20.531  41.027  10.722
90863W        W59092  41.526   5.772   0.430
90864W        W59093  34.689  20.067  14.941
90865W        W59094  34.611  14.291  11.536
90866W        W59095  36.296  16.994   5.163
90867W        W59096  44.101  44.933  14.375
90868W        W59097  29.470  31.563   1.849
90869W        W59098  44.388  20.119  10.400
90870W        W59099  33.002  43.195   0.739
90871W        W59100   0.918   5.170   0.097
90872W        W59101  18.811   2.461   3.249
90873W        W59102   6.256  35.596  11.609
90874W        W59103   0.040   8.709  12.651
90875W        W59104  31.335   0.293   0.612
90876W        W59105  27.635   7.169  14.974
90877W        W59106  39.374  40.497  12.542
90878W        W59107  15.179  33.103   3.923
90879W        W59108  20.775  38.581   4.816
90880W        W59109  35.114  28.363   0.336
90881W        W59110  40.535   4.282   4.135
90882W        W59111  15.791   3.650  14.451
90883W        W59112  10.464  22.031  10.995
90884W        W59113  37.748  30.097  14.938
90885W        W59114  29.389  42.579   0.418
90886W        W59115  18.258   8.297  10.469
90887W        W59116  17.498  42.964  10.559
90888W        W59117  14.704  14.289   4.153
90889W        W59118   3.758  15.187  12.559
90890W        W59119   9.724  31.008  14.278
90891W        W59120  26.588  37.217  12.758
90892W        W59121  42.505   1.373   3.787
90893W        W59122  42.821  17.694   4.119
90894W        W59123  14.079   2.889   4.876
90895W        W59124  17.244  19.473  12.509
90896W        W59125  12.624  32.918  13.554
90897W        W59126   4.920  30.442   1.233
90898W        W59127  18.769  15.952   0.454
90899W        W59128  27.263  34.941  12.011
90900W        W59129  13.833  44.392  11.908
90901W        W59130  36.769   7.356   1.121
90902W        W59131  10.118  26.665   3.690
90903W        W59132  32.557  39.288  14.873
90904W        W59133  29.502   4.765   0.924
90905W        W59134  38.271  10.485   4.504
90906W        W59135  19.507  34.378  14.452
90907W        W59136  12.817  37.369  10.631
90908W        W59137  10.355  25.156  13.273
90909W        W59138  31.610  35.037   0.321
90910W        W59139   5.345  33.605  14.419
90911W        W59140  22.088   5.836   0.782
90912W        W59141  33.063   0.175  14.782
90913W        W59142   0.368  11.314   4.410
90914W        W59143   2.035  40.162  13.832
90915W        W59144  17.172  29.106   0.150
90916W        W59145   7.212  27.168   0.824
90917W        W59146   9.963  19.093   1.270
90918W        W59147  43.642  39.183  11.039
90919W        W59148  22.792   7.392  12.282
90920W        W59149  32.070  20.627  10.606
90921W        W59150   3.346  24.721   0.978
90922W        W59151  18.530  29.588  11.507
90923W        W59152  40.282  41.821   4.468
90924W        W59153  27.396  13.799  13.018
90925W        W59154  38.862  38.529   3.563
90926W        W59155  17.045  34.108   3.583
90927W        W59156  24.412   1.453   2.728
90928W        W59157  21.688  10.599   0.879
90929W        W59158  15.090   9.224  13.288
90930W        W59159  34.321  17.347   0.391
90931W        W59160  36.382  23.588  10.133
90932W        W59161  38.046  21.722  11.131
90933W        W59162  13.021  13.721  14.912
90934W        W59163  20.633  18.476  11.460
90935W        W59164  44.001  26.007  12.079
90936W        W59165  22.033  39.463   0.275
90937W        W59166   5.554  34.602   3.869
90938W        W59167  18.605  27.613   2.842
90939W        W59168  33.933  31.770   3.347
90940W        W59169  33.072   9.698   4.327
90941W        W59170  12.701   7.162  12.058
90942W        W59171  15.372  20.263   4.883
90943W        W59172  29.466   0.264  10.152
90944W        W59173  24.519  18.052  12.664
90945W        W59174  27.790  35.662   1.297
90946W        W59175  40.974  25.893  11.639
90947W        W59176  32.973  14.236  12.464
90948W        W59177  29.160   1.343  11.544
90949W        W59178  43.006   5.665  13.091
90950W        W59179   6.424  30.987  10.585
90951W        W59180  31.407   5.817  14.456
90952W        W59181   5.894  40.525  10.739
90953W        W59182  15.894  30.008  11.985
90954W        W59183  34.104  28.418  12.659
90955W        W59184  30.146   2.955  13.894
90956W        W59185  24.496  37.774  14.393
90957W        W59186  21.196   3.214  12.025
90958W        W59187  27.582  26.747   2.697
90959W        W59188  11.411   5.875  14.340
90960W        W59189   2.776  29.624  10.816
90961W        W59190  31.756  35.873   9.769
90962W        W59191  19.598  18.203   3.001
90963W        W59192  35.111  14.842  14.305
90964W        W59193  14.104   6.324   2.497
90965W        W59194   4.772   0.295   1.799
90966W        W59195   3.934   4.316   1.184
90967W        W59196  20.279  36.805   2.304
90968W        W59197   9.428  14.862  13.154
90969W        W59198  12.813   9.563  10.141
90970W        W59199  34.250  16.311   2.845
90971W        W59200  21.713  19.547  14.071
90972W        W59201  25.048  20.578  13.120
90973W        W59202   9.087  31.207  14.983
90974W        W59203  42.279   0.777   0.790
90975W        W59204   1.303   2.773  14.743
90976W        W59205  18.690  37.994   0.939
90977W        W59206  31.154  19.502  10.811
90978W        W59207  28.902  12.811  12.423
90979W        W59208  39.064  32.801  12.537
90980W        W59209  31.941  34.506  10.703
90981W        W59210   0.633  24.993   1.781
90982W        W59211   6.840  13.820   4.512
90983W        W59212  42.289  27.991   4.549
90984W        W59213  23.648  38.106   1.687
90985W        W59214  44.099  10.971   4.313
90986W        W59215  20.393  42.357   1.516
90987W        W59216  23.091   9.764   0.857
90988W        W59217  40.411  32.138   0.181
90989W        W59218  22.976  43.352  13.109
90990W        W59219  14.241  26.940  14.941
90991W        W59220   4.400  28.536  13.145
90992W        W59221  11.515  20.080   0.052
90993W        W59222  12.336  22.264  10.597
90994W        W59223  13.654  24.973  12.505
90995W        W59224  30.346  43.832  10.697
90996W        W59225  11.325  29.386   3.657
90997W        W59226   8.778  24.202  12.466
90998W        W59227   3.397  22.735  12.078
90999W        W59228  39.109  38.830   1.554
91000W        W59229  14.559  40.029  10.549
91001W        W59230  28.176  21.124   2.779
91002W        W59231  17.144  33.637   5.767
91003W        W59232  27.102  12.177  12.409
91004W        W59233  12.667  37.659  13.426
91005W        W59234   5.175  13.765   1.947
91006W        W59235   1.744  10.897   0.336
91007W        W59236   3.399  44.691  11.031
91008W        W59237  38.851  35.071  11.822
91009W        W59238   9.256  21.090  10.738
91010W        W59239  19.291  11.836   3.750
91011W        W59240   4.289  41.864   1.679
91012W        W59241  33.591  18.503  11.965
91013W        W59242  19.419  18.731  10.235
91014W        W59243  20.361   9.633   3.655
91015W        W59244  27.301   7.654   3.119
91016W        W59245   3.939   5.922  14.862
91017W        W59246  16.776  36.411  12.881
91018W        W59247   6.445  35.615   2.230
91019W        W59248   6.307  39.647   1.256
91020W        W59249   4.431  31.179   3.427
91021W        W59250  29.823  10.235  11.049
91022W        W59251  24.411  41.488   9.860
91023W        W59252  15.735  11.775  12.333
91024W        W59253  39.883  33.594  10.475
91025W        W59254  39.081   4.432   5.042
91026W        W59255   9.485   0.340   1.411
91027W        W59256  15.241   5.860  13.154
91028W        W59257  17.307  26.879  10.938
91029W        W59258   9.379  44.541  11.656
91030W        W59259   1.316  32.974   4.722
91031W        W59260  29.481  20.853   0.271
91032W        W59261   7.321  12.744  14.314
91033W        W59262  26.005  25.633  10.415
91034W        W59263  13.546  19.208   2.797
91035W        W59264   1.941   6.084  12.430
91036W        W59265  20.140  29.635   4.288
91037W        W59266  38.482   4.903   0.373
91038W        W59267  20.207  10.901   3.203
91039W        W59268  14.352  25.067  11.861
91040W        W59269  23.545   2.903   3.843
91041W        W59270  36.600  38.292   2.219
91042W        W59271  37.013  30.445  12.112
91043W        W59272   6.183   2.382  14.062
91044W        W59273   5.150   6.087  11.677
91045W        W59274  10.464  17.691  12.940
91046W        W59275  11.378  37.375  12.619
91047W        W59276  19.555  42.531  13.973
91048W        W59277   1.331   1.385  12.121
91049W        W59278  18.901  36.073   9.848
91050W        W59279  10.389  22.897   3.223
91051W        W59280  17.754  21.154  11.899
91052W        W59281  32.384   3.003  12.892
91053W        W59282  23.458  30.144   4.159
91054W        W59283  10.287   5.895  12.024
91055W        W59284  41.589  30.505  13.957
91056W        W59285  27.936   1.887   4.928
91057W        W59286  26.398   3.924  11.553
91058W        W59287  26.977  29.128   3.777
91059W        W59288  10.018  16.694  14.915
91060W        W59289  28.574   1.270   1.583
91061W        W59290   1.539  11.909  14.425
91062W        W59291  25.137  21.464  14.773
91063W        W59292  41.883   4.919   2.111
91064W        W59293  20.237  34.478   3.343
91065W        W59294  17.661  24.520  12.971
91066W        W59295  36.858  35.788  14.824
91067W        W59296  12.648  28.539   3.152
91068W        W59297  18.437  13.869  14.748
91069W        W59298  43.260  37.512  14.324
91070W        W59299  34.522  27.515  10.598
91071W        W59300   6.953  12.686   2.840
91072W        W59301  41.303  36.121   4.302
91073W        W59302  26.864  10.894   0.960
91074W        W59303  36.944  14.039   4.388
91075W        W59304  41.464  36.733   1.920
91076W        W59305  13.659   1.538   4.102
91077W        W59306  41.438  39.784  12.863
91078W        W59307  19.545   9.632   4.275
91079W        W59308   3.450  30.449  14.536
91080W        W59309   8.733  40.957  11.933
91081W        W59310   6.036  10.183   3.667
91082W        W59311  28.168   4.482   2.669
91083W        W59312  23.645  41.033  14.924
91084W        W59313   6.472  27.891  14.771
91085W        W59314  19.887  41.995  12.832
91086W        W59315  40.551  34.945  12.099
91087W        W59316  35.828  13.989   4.699
91088W        W59317  10.689  37.890  12.557
91089W        W59318  22.507  16.097   0.407
91090W        W59319  39.709   2.489  13.710
91091W        W59320  17.608  41.359  12.605
91092W        W59321  15.829  18.884  11.142
91093W        W59322  36.667  15.090   3.639
91094W        W59323  32.584  24.125   2.325
91095W        W59324  16.645  43.007  12.935
91096W        W59325  18.223  22.703  14.406
91097W        W59326  28.663  20.133  11.946
91098W        W59327  30.158  21.524  10.179
91099W        W59328   1.508  16.715  13.538
91100W        W59329  35.076  24.559  13.447
91101W        W59330   6.652  20.694   0.923
91102W        W59331  26.429  26.105   1.778
91103W        W59332  43.089  40.300  13.404
91104W        W59333  39.023  40.351   1.348
91105W        W59334  19.390  42.453  14.854
91106W        W59335  43.709  38.004  14.816
91107W        W59336  35.388  38.419   1.829
91108W        W59337  21.137  27.596   3.623
91109W        W59338  29.195  31.015  13.888
91110W        W59339   8.338  32.944   2.674
91111W        W59340  25.429  43.821   1.927
91112W        W59341  36.384  40.302   3.581
91113W        W59342   6.182  35.994  10.970
91114W        W59343   1.585  39.904  10.659
91115W        W59344   9.331  26.152   1.313
91116W        W59345  22.168  15.328   2.270
91117W        W59346  42.911  15.171  13.667
91118W        W59347  23.502  32.100  12.396
91119W        W59348   3.355  43.880   3.205
91120W        W59349  43.943  14.199   3.052
91121W        W59350  31.007  21.339  12.635
91122W        W59351  26.584  26.490  11.753
91123W        W59352  42.803  13.113  14.849
91124W        W59353  44.898  18.995   1.314
91125W        W59354   3.588  26.751  14.897
91126W        W59355  44.260  42.483  10.851
91127W        W59356  35.533  31.014   1.041
91128W        W59357  28.610  39.205   4.725
91129W        W59358  14.851  11.846   2.407
91130W        W59359  26.630  30.958  10.564
91131W        W59360  32.504  43.971   1.515
91132W        W59361  37.606  44.536   4.101
91133W        W59362  27.718  27.321  13.972
91134W        W59363  34.599  33.188   0.310
91135W        W59364  29.862   0.900  14.247
91136W        W59365  39.252  33.662  13.602
91137W        W59366  35.967  31.491   1.901
91138W        W59367  10.202  23.545  13.576
91139W        W59368  16.986  44.742   2.908
91140W        W59369   8.142  17.171  11.074
91141W        W59370  22.262  31.347  13.007
91142W        W59371   9.949  19.518  13.870
91143W        W59372  12.382   6.408  12.626
91144W        W59373  10.858  12.229   2.692
91145W        W59374   7.387  20.223  14.873
91146W        W59375   8.348   0.498  12.200
91147W        W59376   4.772  22.425  10.397
91148W        W59377  40.945   0.463  10.450
91149W        W59378  37.070  12.420  11.378
91150W        W59379  30.489  29.444  11.558
91151W        W59380  30.650  20.587  12.345
91152W        W59381  29.099  31.369   0.355
91153W        W59382  27.088   9.791  13.141
91154W        W59383  37.494  28.186   3.157
91155W        W59384  13.131  44.733   2.906
91156W        W59385  23.801  13.660   3.999
91157W        W59386  19.176  29.467  14.002
91158W        W59387  12.444  39.186  14.755
91159W        W59388  24.415  35.485  12.412
91160W        W59389  38.902  40.920  12.954
91161W        W59390  34.729  27.942  14.413
91162W        W59391  40.436  10.080   3.274
91163W        W59392  44.900  37.213   0.965
91164W        W59393  11.317  27.250   1.810
91165W        W59394  32.472  15.722  13.978
91166W        W59395  34.851  11.620   1.532
91167W        W59396  19.694   5.501  13.451
91168W        W59397  32.573   2.821   2.269
91169W        W59398  22.319  14.129  14.951
91170W        W59399  26.627  15.022  12.920
91171W        W59400  24.475   2.049   0.466
91172W        W59401  32.504  37.406  11.591
91173W        W59402   8.727  42.590   1.521
91174W        W59403   0.756  10.135   0.771
91175W        W59404   1.689  30.497   2.194
91176W        W59405  25.003  31.533  11.005
91177W        W59406  42.567  27.536   3.242
91178W        W59407   7.279  34.905   0.889
91179W        W59408  20.654  34.375  12.866
91180W        W59409  42.497  41.493  12.692
91181W        W59410  21.787  21.296  11.613
91182W        W59411  15.873   3.457  11.569
91183W        W59412  41.807  23.295  14.510
91184W        W59413  24.524  31.999   1.493
91185W        W59414  44.836  28.137  10.563
91186W        W59415   9.537  19.400  14.795
91187W        W59416  23.589   7.233   0.953
91188W        W59417  19.049  32.064  12.110
91189W        W59418  35.325  35.143  12.460
91190W        W59419  14.329  24.570  11.110
91191W        W59420   0.088  28.741  12.604
91192W        W59421   3.775  15.270   2.277
91193W        W59422  38.362  32.394   0.647
91194W        W59423  17.836   6.861  11.111
91195W        W59424  41.716   7.318  14.757
91196W        W59425  24.586  35.159  13.965
91197W        W59426  32.510  12.661  10.985
91198W        W59427  37.240  11.175  12.487
91199W        W59428  38.086  14.190  12.488
91200W        W59429   9.848  31.772   2.863
91201W        W59430  41.261  13.820   1.518
91202W        W59431  32.495  27.642  10.340
91203W        W59432  37.998  24.956  10.426
91204W        W59433  31.543  17.202   0.346
91205W        W59434   6.372  20.876   0.469
91206W        W59435  30.116  43.850   3.123
91207W        W59436  31.759  15.485   1.743
91208W        W59437  43.771  44.839  12.539
91209W        W59438  23.979  40.898  12.601
91210W        W59439  23.101  39.549  14.332
91211W        W59440  41.929  38.872  13.995
91212W        W59441   7.300  42.744  14.777
91213W        W59442  34.863  28.899   1.950
91214W        W59443  38.539  14.253   2.285
91215W        W59444  12.801  13.041   4.007
91216W        W59445  15.174  42.369  13.962
91217W        W59446  28.419  42.482  10.704
91218W        W59447  21.113  23.686   0.160
91219W        W59448  34.620   7.356  13.017
91220W        W59449  31.466  36.563   3.817
91221W        W59450  42.384   9.199  14.946
91222W        W59451  19.177  23.085  12.203
91223W        W59452  36.586  37.651  13.126
91224W        W59453  38.650  30.060  12.474
91225W        W59454  12.669   9.362   1.855
91226W        W59455  38.982  10.909   0.828
91227W        W59456  30.677  40.530   2.400
91228W        W59457  13.608  22.442  10.792
91229W        W59458  19.659  22.315   2.751
91230W        W59459  39.280  39.181   2.823
91231W        W59460   1.694  30.037   3.694
91232W        W59461  37.626  33.033   4.787
91233W        W59462  24.981  41.556  10.644
91234W        W59463  21.649   9.061  14.399
91235W        W59464   1.344  34.203  12.447
91236W        W59465  21.329  24.993  11.588
91237W        W59466  42.372  34.618   0.432
91238W        W59467  37.973  10.870   0.874
91239W        W59468  11.185  30.684   0.917
91240W        W59469  23.911  42.289   3.352
91241W        W59470  16.014   4.325  10.814
91242W        W59471   4.595  30.561  14.130
91243W        W59472  25.410  10.455  14.248
91244W        W59473  42.489   2.007   1.376
91245W        W59474   5.341  35.855   4.096
91246W        W59475  44.869   5.994  14.984
91247W        W59476  11.742   5.616   4.684
91248W        W59477   3.427   1.810   3.301
91249W        W59478   0.589  21.835  11.053
91250W        W59479  13.442  17.552   0.514
91251W        W59480  41.253   8.749  14.877
91252W        W59481   9.183  43.391   3.794
91253W        W59482  44.525  10.324   1.724
91254W        W59483  19.069  25.688   1.815
91255W        W59484  34.451  24.754   4.272
91256W        W59485  23.475  42.388  10.766
91257W        W59486   5.777   3.517   3.654
91258W        W59487  36.523  17.871   3.036
91259W        W59488  24.847  15.699   2.702
91260W        W59489  22.687  41.973   3.367
91261W        W59490  33.490  10.941   0.776
91262W        W59491  42.979  12.584  14.869
91263W        W59492  12.608  11.409   0.382
91264W        W59493  14.720  44.994  10.895
91265W        W59494  26.896  11.859   3.385
91266W        W59495  27.607   0.148  14.984
91267W        W59496  21.927   4.713   3.980
91268W        W59497  27.700  34.441  12.634
91269W        W59498   5.324   9.653  12.408
91270W        W59499   0.517  39.041   3.234
91271W        W59500  19.127   3.849   0.739
91272W        W59501  18.788  32.620   1.489
91273W        W59502   4.855   9.369  13.882
91274W        W59503  42.437  33.390   4.136
91275W        W59504  42.782  31.524   2.925
91276W        W59505  25.014   0.030   3.802
91277W        W59506  10.174  32.170  11.290
91278W        W59507  38.489  16.286  12.522
91279W        W59508  37.231   5.820  14.502
91280W        W59509  33.387  20.187  10.213
91281W        W59510  18.680  20.032  13.820
91282W        W59511  13.695   4.837  14.539
91283W        W59512  34.903  31.027  12.062
91284W        W59513   1.724  39.486  11.570
91285W        W59514  23.703  40.027   3.319
91286W        W59515  14.347   0.732  10.612
91287W        W59516  42.897  37.934   4.563
91288W        W59517  10.540  33.353  14.406
91289W        W59518  31.125   7.131  11.526
91290W        W59519  12.388  32.673  12.264
91291W        W59520  27.663  35.378  12.548
91292W        W59521  17.707   3.857  14.049
91293W        W59522  44.536   2.145  12.091
91294W        W59523  13.342  19.770  14.000
91295W        W59524  38.341  33.990   4.992
91296W        W59525  12.293  21.368   1.768
91297W        W59526  36.598  20.466   3.143
91298W        W59527   7.879  22.285   4.590
91299W        W59528  15.810  16.061   4.632
91300W        W59529   5.251  15.633  14.018
91301W        W59530  34.737  36.680  11.607
91302W        W59531  34.917  10.283  11.689
91303W        W59532  23.526  23.070  11.094
91304W        W59533  18.706   1.362  12.447
91305W        W59534  35.057   7.708   4.662
91306W        W59535  26.697  44.869   0.032
91307W        W59536  11.526   5.740   4.210
91308W        W59537  41.228  42.323   1.550
91309W        W59538  33.312   7.573   4.208
91310W        W59539  31.453  40.963  11.721
91311W        W59540  37.779  39.026  13.916
91312W        W59541  14.873  44.931  11.969
91313W        W59542  42.066  39.238   0.922
91314W        W59543   4.949  22.329   2.280
91315W        W59544  15.345  44.024  11.983
91316W        W59545  23.835   9.782  13.844
91317W        W59546  36.099  43.361  12.084
91318W        W59547  17.681   1.939   0.560
91319W        W59548  29.279  27.463   2.212
91320W        W59549  26.536  24.973  14.744
91321W        W59550  30.053  37.354   1.287
91322W        W59551  37.895  19.736   3.604
91323W        W59552  17.116  19.697  14.915
91324W        W59553  31.500  34.233   3.686
91325W        W59554  21.201  43.001   3.356
91326W        W59555  12.114  40.836  14.577
91327W        W59556  14.171  39.350   3.688
91328W        W59557  25.735  26.507  12.987
91329W        W59558  41.525  16.067   4.857
91330W        W59559  31.920  35.673  12.259
91331W        W59560  26.122  12.660   3.597
91332W        W59561  11.720  43.823   0.429
91333W        W59562  26.068  23.105   2.664
91334W        W59563   1.533   1.410   2.892
91335W        W59564   8.600   5.619  10.786
91336W        W59565  38.117  29.740   2.681
91337W        W59566   0.848  40.774  14.225
91338W        W59567  32.000  24.229   0.424
91339W        W59568  15.171  12.642   0.379
91340W        W59569  41.085  25.543  11.235
91341W        W59570  28.129  14.131  13.095
91342W        W59571  38.908  30.137   3.162
91343W        W59572   3.870  26.830   3.112
91344W        W59573   3.976  36.525   1.401
91345W        W59574   4.630  41.485   1.670
91346W        W59575  29.804  27.260  13.363
91347W        W59576  10.824  27.200  11.309
91348W        W59577   1.360   6.354   2.883
91349W        W59578  16.202  28.526   1.806
91350W        W59579  15.753   4.185   1.316
91351W        W59580   4.300   6.320  11.884
91352W        W59581  33.905  11.787  14.735
91353W        W59582  42.917  34.134   4.380
91354W        W59583   8.118  37.068  11.969
91355W        W59584  22.535  26.675   3.791
91356W        W59585   6.121  44.986   1.943
91357W        W59586   5.783  35.980   2.778
91358W        W59587  19.973  26.484   5.356
91359W        W59588   7.384   4.787   3.573
91360W        W59589  10.394  13.381  10.680
91361W        W59590   0.418   5.557  10.830
91362W        W59591  29.114  31.546  10.620
91363W        W59592  30.541  13.805  14.273
91364W        W59593  35.882   1.752  10.593
91365W        W59594  32.454   3.261   1.791
91366W        W59595  19.672  20.060   2.383
91367W        W59596  32.244   6.890   4.250
91368W        W59597  21.608  21.464   3.770
91369W        W59598  36.342   1.010  12.523
91370W        W59599  21.338  36.859  10.809
91371W        W59600  13.127  28.721  13.783
91372W        W59601  12.860  26.079   0.477
91373W        W59602  42.446  21.996  11.505
91374W        W59603  17.018  37.049  14.494
91375W        W59604   2.222  21.608  14.811
91376W        W59605  33.250  20.190  10.703
91377W        W59606  38.755   3.348   1.912
91378W        W59607  35.955  19.161  14.304
91379W        W59608  26.385  36.607  14.050
91380W        W59609  28.559  26.002   0.694
91381W        W59610   0.247  42.542   1.318
91382W        W59611  30.826  30.922   5.366
91383W        W59612  15.735  21.035   1.684
91384W        W59613  38.312  11.758  14.331
91385W        W59614  40.005  44.818  11.066
91386W        W59615   8.845   1.697  14.755
91387W        W59616  24.028  12.949   2.344
91388W        W59617   3.733  34.155   3.208
91389W        W59618   4.001  24.592   2.762
91390W        W59619  18.752   1.784   3.687
91391W        W59620  30.927  24.222   1.806
91392W        W59621  29.197  14.653   1.895
91393W        W59622  44.144  16.477  11.474
91394W        W59623   2.485  21.166  14.766
91395W        W59624  43.266  15.235  11.097
91396W        W59625  31.336  32.244   1.869
91397W        W59626  30.622  12.408   2.206
91398W        W59627  22.750  12.880   1.404
91399W        W59628  11.498  24.817   1.655
91400W        W59629  12.081  37.143   2.293
91401W        W59630  33.143  20.144   5.490
91402W        W59631   3.242  14.840  10.743
91403W        W59632  29.253  12.798  11.997
91404W        W59633  36.415  20.773  13.953
91405W        W59634  29.995  30.470  10.519
91406W        W59635   4.202  24.530  13.939
91407W        W59636  23.018  42.094  14.523
91408W        W59637  23.677  37.131   0.875
91409W        W59638  36.394  14.205   4.475
91410W        W59639  42.128   0.825  11.706
91411W        W59640  33.908   6.353   0.388
91412W        W59641  43.871  40.813   4.692
91413W        W59642   8.073   3.035   4.600
91414W        W59643  34.604  19.374   0.447
91415W        W59644  34.347  11.113   1.831
91416W        W59645   8.255   8.172  11.604
91417W        W59646   2.734  10.493  13.063
91418W        W59647  21.255  40.073  11.896
91419W        W59648  26.550  22.178   2.756
91420W        W59649  44.689  35.839   2.889
91421W        W59650  18.734  28.960  14.940
91422W        W59651  42.284  20.323   3.360
91423W        W59652  12.295  27.235  14.879
91424W        W59653  36.703  23.011   0.320
91425W        W59654   5.904  26.910  11.758
91426W        W59655  14.228  16.006  14.345
91427W        W59656  31.492  12.872   2.716
91428W        W59657   6.133   5.452   4.745
91429W        W59658  11.912   3.422  13.988
91430W        W59659  11.638  28.867  13.526
91431W        W59660  44.805  12.621  13.969
91432W        W59661  30.640  23.863  11.078
91433W        W59662   8.271  39.277   3.274
91434W        W59663  23.404  13.392  13.687
91435W        W59664  23.972  35.806   0.867
91436W        W59665   1.465  21.068  11.262
91437W        W59666  14.860  26.356  10.181
91438W        W59667   1.519  35.250   3.824
91439W        W59668  24.122  35.809   1.837
91440W        W59669  21.078  15.896   4.843
91441W        W59670  16.654  17.537   4.030
91442W        W59671  37.000  13.039  11.981
91443W        W59672  15.627   1.030  12.564
91444W        W59673  14.536  32.120  13.731
91445W        W59674  32.448  42.306  14.778
91446W        W59675  14.767  14.945   1.235
91447W        W59676   7.655  43.233  13.301
91448W        W59677  41.138  11.008   4.546
91449W        W59678  12.361  14.394  11.525
91450W        W59679   9.415  31.042  10.472
91451W        W59680   8.193  44.318   2.289
91452W        W59681  43.238  32.327   1.353
91453W        W59682  29.116  44.795  14.030
91454W        W59683   7.369  22.297   1.768
91455W        W59684   7.605  20.224   3.313
91456W        W59685  41.893  38.032  12.959
91457W        W59686   1.556  30.647   0.492
91458W        W59687   4.398  25.605  12.223
91459W        W59688   0.766  41.912   4.263
91460W        W59689  39.742  10.702  11.508
91461W        W59690  16.559  35.918   4.073
91462W        W59691  29.637  14.135   5.060
91463W        W59692   2.791  15.106  10.676
91464W        W59693  24.806  29.152   2.807
91465W        W59694   0.930  36.029   0.879
91466W        W59695   5.878  18.030  12.948
91467W        W59696  27.098   7.407  13.880
91468W        W59697  21.828   7.921   1.454
91469W        W59698   4.885   1.215  12.447
91470W        W59699  43.813  11.895   3.983
91471W        W59700   0.734  27.957  10.349
91472W        W59701  28.997   8.856  12.309
91473W        W59702   5.324   4.707  12.196
91474W        W59703  18.295   7.766   0.013
91475W        W59704   9.792  15.371  14.833
91476W        W59705   7.706  28.212   1.247
91477W        W59706  23.806  35.445  14.963
91478W        W59707  21.176  43.381  12.497
91479W        W59708  44.936  10.169   2.447
91480W        W59709  27.291  10.394  14.715
91481W        W59710  22.925  22.976  12.073
91482W        W59711  21.272  41.312  12.973
91483W        W59712   0.424   3.481  11.300
91484W        W59713  34.889  40.469   2.134
91485W        W59714  25.500  16.105   0.359
91486W        W59715   3.446  36.588  12.610
91487W        W59716  14.987   1.263  10.577
91488W        W59717  18.005  24.917   1.121
91489W        W59718  25.717  35.693   5.010
91490W        W59719  18.671  10.429  12.996
91491W        W59720  21.207  43.714  11.623
91492W        W59721  40.506  26.961  10.706
91493W        W59722  13.195  19.127   1.480
91494W        W59723   4.955   3.673  12.397
91495W        W59724  39.621  14.178  14.834
91496W        W59725   0.469  32.093  13.366
91497W        W59726  35.585  37.314  12.526
91498W        W59727  16.575   7.308   0.978
91499W        W59728  25.596  37.922  14.000
91500W        W59729  31.308  27.999  11.140
91501W        W59730   7.873  31.877  14.877
91502W        W59731  31.566  42.503   1.400
91503W        W59732  11.432  26.624   3.749
91504W        W59733   2.410  14.011  11.218
91505W        W59734  29.503  26.392  14.206
91506W        W59735  20.545  12.877  13.026
91507W        W59736  30.342  15.162   3.762
91508W        W59737  41.042  28.179  14.985
91509W        W59738  42.817  34.047  13.464
91510W        W59739  15.254   2.399  11.164
91511W        W59740  34.110  17.791  14.940
91512W        W59741  28.099  20.353   3.403
91513W        W59742  33.380  32.970   0.798
91514W        W59743  23.378   5.005  14.968
91515W        W59744  24.676   0.011  10.744
91516W        W59745  30.560  28.982   1.318
91517W        W59746  44.475  39.109   0.390
91518W        W59747  44.420  39.545  10.560
91519W        W59748  42.136  29.466  14.350
91520W        W59749   8.728  44.742  14.441
91521W        W59750  35.450  29.111   0.313
91522W        W59751  28.720   2.977   3.241
91523W        W59752  32.100   9.447   3.565
91524W        W59753  11.679  41.356  10.375
91525W        W59754   8.757  44.871  10.435
91526W        W59755   7.325  34.838  12.076
91527W        W59756   1.864  23.955   2.866
91528W        W59757  12.883  20.620   0.908
91529W        W59758   0.716   3.330  14.297
91530W        W59759  17.043  28.562   1.364
91531W        W59760   6.002  11.623  13.607
91532W        W59761  14.430  27.694   1.417
91533W        W59762  41.941  33.673   1.851
91534W        W59763   7.300  16.585   2.103
91535W        W59764  24.294  44.718  13.721
91536W        W59765   3.340   6.308   5.055
91537W        W59766  36.258  42.381   2.216
91538W        W59767  30.630  41.585   2.351
91539W        W59768  12.636  42.748   0.323
91540W        W59769  14.695  11.352   5.012
91541W        W59770  10.076   0.856   4.518
91542W        W59771  17.804  10.443   0.856
91543W        W59772  16.775  31.136  13.521
91544W        W59773  20.181   7.646   2.221
91545W        W59774   8.086  15.677  12.189
91546W        W59775  36.032  14.331  13.405
91547W        W59776  13.128  14.212  14.747
91548W        W59777  34.440  29.187   3.793
91549W        W59778  24.813  40.306  10.963
91550W        W59779  20.736  24.354  12.415
91551W        W59780  40.146  35.980   1.362
91552W        W59781  26.997  37.252   1.734
91553W        W59782  14.167   6.338  11.509
91554W        W59783  16.112  39.320   2.334
91555W        W59784  37.167  33.762   4.975
91556W        W59785   1.384  19.969  14.900
91557W        W59786  21.543  24.081   1.279
91558W        W59787  41.646  22.382  14.059
91559W        W59788  18.664  39.162  14.844
91560W        W59789  41.651  14.125   0.782
91561W        W59790  19.315   3.445   1.977
91562W        W59791  10.172  38.018  11.680
91563W        W59792   2.777  43.684   4.501
91564W        W59793  43.536  32.888  10.287
91565W        W59794   4.976  34.120  12.011
91566W        W59795   3.777  35.664  14.317
91567W        W59796  13.613  42.004  14.436
91568W        W59797  30.467  24.149   4.688
91569W        W59798  44.436   0.686   1.704
91570W        W59799  23.308  16.291  11.577
91571W        W59800   2.620   0.746   1.813
91572W        W59801  19.735   0.104  12.145
91573W        W59802  10.714  38.591   1.722
91574W        W59803   3.284  14.645   1.658
91575W        W59804  26.962  21.655  10.735
91576W        W59805  39.722  17.568  13.368
91577W        W59806  24.735  41.549  12.602
91578W        W59807  42.094  14.632   1.839
91579W        W59808  41.608   5.355  12.395
91580W        W59809  41.943  15.932  12.707
91581W        W59810   0.901  10.873  11.220
91582W        W59811  26.954   4.870   4.227
91583W        W59812  40.073  26.982   1.437
91584W        W59813   4.857  17.344   2.821
91585W        W59814   3.358  14.038  11.161
91586W        W59815  28.545  39.684   0.949
91587W        W59816  41.619   8.934   4.591
91588W        W59817  40.009  29.350  14.547
91589W        W59818  14.834   3.136  12.940
91590W        W59819  10.133  44.057   3.191
91591W        W59820  21.211   8.802  14.768
91592W        W59821  27.147  41.766   3.198
91593W        W59822  39.141   6.884   9.736
91594W        W59823  14.680  34.316  14.235
91595W        W59824  39.380  32.123  10.207
91596W        W59825  39.950  17.087   0.523
91597W        W59826  36.519   3.286  14.419
91598W        W59827  15.105  44.843   0.160
91599W        W59828  35.136  32.406  11.155
91600W        W59829  38.847  43.912  11.078
91601W        W59830  33.855   5.185  12.432
91602W        W59831   7.710  16.265  10.843
91603W        W59832  42.773   8.621   1.354
91604W        W59833  35.876  22.871   1.735
91605W        W59834  24.089   2.832  14.408
91606W        W59835   5.236  13.262  13.543
91607W        W59836  10.700  31.559   2.847
91608W        W59837   2.736  15.823  10.131
91609W        W59838   0.230  18.780  12.990
91610W        W59839  29.159  17.316  14.918
91611W        W59840   9.820  43.314  11.074
91612W        W59841  44.731  16.307  11.528
91613W        W59842  30.702  17.876  14.139
91614W        W59843  36.878  34.835   3.270
91615W        W59844  29.205  38.786  13.033
91616W        W59845  15.639  41.866  14.529
91617W        W59846   6.457  14.064   1.903
91618W        W59847  20.446   5.883   2.164
91619W        W59848   7.361  41.226  14.872
91620W        W59849  29.129  12.865   1.803
91621W        W59850   0.916  36.579   3.378
91622W        W59851  35.588  34.046   3.204
91623W        W59852  38.356   6.960  11.072
91624W        W59853   9.017   9.569   1.908
91625W        W59854  19.446  13.999   0.913
91626W        W59855  39.350  32.655  11.614
91627W        W59856  44.651  40.925   0.845
91628W        W59857  16.023  10.128  14.495
91629W        W59858  35.122  27.165   0.671
91630W        W59859  12.635  30.465  11.526
91631W        W59860  41.744  40.902  11.700
91632W        W59861  37.011  31.346  13.825
91633W        W59862  31.951  15.064   1.396
91634W        W59863  39.613   1.493   4.048
91635W        W59864  35.453  28.477  11.124
91636W        W59865  32.846  16.285   1.347
91637W        W59866  15.723  40.212   3.132
91638W        W59867  39.769  24.882   3.708
91639W        W59868  30.056   7.296   4.458
91640W        W59869  36.417  24.249  14.915
91641W        W59870   2.063  22.626  13.293
91642W        W59871  27.929  22.483   1.537
91643W        W59872  25.940   3.885  13.932
91644W        W59873  38.541  16.712   1.862
91645W        W59874  34.403  14.638  12.180
91646W        W59875  14.833  36.300   3.311
91647W        W59876  39.483  27.549   5.487
91648W        W59877   6.950  44.330   3.915
91649W        W59878  11.162  31.016   2.540
91650W        W59879  30.765  13.827  12.977
91651W        W59880   3.397  13.653  11.560
91652W        W59881  31.098  44.201   4.608
91653W        W59882   5.947  13.583  11.150
91654W        W59883  16.230  36.546   4.207
91655W        W59884   0.381  32.671  10.654
91656W        W59885  43.453  42.920   3.173
91657W        W59886   4.813  28.161   0.676
91658W        W59887  15.785  21.019   2.199
91659W        W59888  30.179   9.308  13.120
91660W        W59889  25.745  27.565  11.682
91661W        W59890  13.067  27.530   4.772
91662W        W59891  35.402  16.188   1.051
91663W        W59892  32.400  22.505   0.380
91664W        W59893  12.161  10.543   2.852
91665W        W59894  43.389   1.391  10.769
91666W        W59895  22.953  11.361  10.157
91667W        W59896   2.569  18.156  10.753
91668W        W59897  31.140  17.078   1.848
91669W        W59898   5.834   0.306  13.865
91670W        W59899  34.542  23.465  10.721
91671W        W59900  32.642  26.491  13.303
91672W        W59901  30.715  14.703   0.871
91673W        W59902   6.713  36.641  13.456
91674W        W59903   6.437  26.920  14.821
91675W        W59904  31.004  38.073   1.159
91676W        W59905  16.986  14.954   2.371
91677W        W59906  11.065  12.139   0.963
91678W        W59907  44.924   6.637  13.765
91679W        W59908  14.109  19.944   2.929
91680W        W59909  26.903  40.745   3.292
91681W        W59910  37.791  23.172  13.797
91682W        W59911   1.517  34.261   3.585
91683W        W59912  18.371  28.014  12.835
91684W        W59913  37.824  41.322   3.223
91685W        W59914  43.089  33.402  10.968
91686W        W59915   2.147  43.358  10.670
91687W        W59916   6.834   3.706   4.733
91688W        W59917  11.150  35.872   3.080
91689W        W59918  40.105  33.034   2.096
91690W        W59919  22.116  19.397  10.559
91691W        W59920  24.293  21.685  12.618
91692W        W59921  23.264  24.099  12.936
91693W        W59922   1.713  40.633  14.001
91694W        W59923   9.240  19.533   2.261
91695W        W59924  28.673   4.938   0.826
91696W        W59925  17.076   4.963   1.809
91697W        W59926   9.394   3.877  13.954
91698W        W59927  24.165  12.496  12.438
91699W        W59928  14.919  16.268   4.651
91700W        W59929  27.652  23.042   3.913
91701W        W59930  17.756  32.821   0.157
91702W        W59931  36.350  43.201   4.710
91703W        W59932  15.581  38.561   0.762
91704W        W59933  11.148  36.261   0.457
91705W        W59934  12.250  23.231  13.437
91706W        W59935   2.713  15.719   1.374
91707W        W59936  43.558  16.876   0.521
91708W        W59937  21.458  17.085  13.081
91709W        W59938  17.107  33.859  11.505
91710W        W59939  11.789  17.024   4.041
91711W        W59940   7.445   9.991  12.628
91712W        W59941  30.710  28.110  14.890
91713W        W59942  19.809  25.059   1.946
91714W        W59943  27.182  39.677   0.185
91715W        W59944  31.373   7.291  14.246
91716W        W59945  41.370  42.094  12.407
91717W        W59946  18.617   9.993   0.080
91718W        W59947  28.594  14.356   1.705
91719W        W59948  37.774  34.955   3.147
91720W        W59949   5.681  12.108  10.690
91721W        W59950  27.018   2.784   1.765
91722W        W59951  15.555   0.920   4.442
91723W        W59952  25.523  40.596   1.171
91724W        W59953  28.461  36.467   2.787
91725W        W59954  44.887  18.280   2.460
91726W        W59955  28.464  31.104  13.528
91727W        W59956  20.288  31.889   2.895
91728W        W59957  39.836  14.200  14.328
91729W        W59958  13.029  18.087   4.968
91730W        W59959  13.077  12.645   3.775
91731W        W59960   0.886  36.738   5.223
91732W        W59961  11.726  29.473  12.696
91733W        W59962   8.257  22.537  12.469
91734W        W59963   6.322  21.527   1.169
91735W        W59964  21.628  34.105  12.560
91736W        W59965  30.383   7.315   3.744
91737W        W59966   0.704  37.223   5.098
91738W        W59967  23.281  18.205  13.730
91739W        W59968  40.775  17.220   4.193
91740W        W59969  23.510  44.053   4.130
91741W        W59970  19.226  43.863  14.545
91742W        W59971  29.643  28.708   0.867
91743W        W59972  19.903  40.505   1.250
91744W        W59973  42.636   4.700  13.856
91745W        W59974  11.591  33.447   4.198
91746W        W59975  39.656   5.856   3.180
91747W        W59976   3.848  25.856   0.509
91748W        W59977   3.473  34.918  11.063
91749W        W59978  22.148  11.118  10.587
91750W        W59979   3.800  43.382   0.778
91751W        W59980   5.282   1.058   2.790
91752W        W59981   9.916  31.822   4.522
91753W        W59982  14.674  11.032  12.149
91754W        W59983  12.893  30.096  12.495
91755W        W59984  13.826  27.601   3.279
91756W        W59985  12.250  33.045  12.585
91757W        W59986   6.452  22.040   1.033
91758W        W59987  24.527  11.063  13.425
91759W        W59988  42.064  22.801  11.526
91760W        W59989  43.926  34.209   4.726
91761W        W59990  44.669  38.459   0.841
91762W        W59991   0.590  12.157   0.757
91763W        W59992  44.266  41.828   0.867
91764W        W59993  21.136  18.810   2.339
91765W        W59994  21.053  20.330   3.303
91766W        W59995  24.114  11.644   0.423
91767W        W59996  43.087   7.452  11.567
91768W        W59997  44.929   4.858  11.411
91769W        W59998   9.166  11.950   3.150
91770W        W59999   2.545  25.350  10.504
91771W        W60000  43.418  28.144   3.168
91772W        W60001  41.936   8.787   4.182
91773W        W60002  12.432   3.462  12.393
91774W        W60003  20.547  34.922   5.071
91775W        W60004  32.062  31.553   0.058
91776W        W60005   9.154   8.205  11.599
91777W        W60006  34.385   9.685  14.820
91778W        W60007  20.121  18.674   1.501
91779W        W60008  29.430   0.067   0.387
91780W        W60009  21.277  33.733  11.510
91781W        W60010  28.924   6.803   2.700
91782W        W60011  39.879  31.551  13.993
91783W        W60012  17.115  27.531  11.592
91784W        W60013  23.413   7.261  11.144
91785W        W60014  22.099  35.115  12.303
91786W        W60015   0.351  11.949  12.535
91787W        W60016  20.701  44.808   0.860
91788W        W60017   8.693  38.371  12.879
91789W        W60018  24.252  11.970  12.419
91790W        W60019  21.639  41.685  12.281
91791W        W60020   5.257   7.328  11.997
91792W        W60021  16.077   6.528  11.421
91793W        W60022   9.271   7.384   1.136
91794W        W60023   0.230  14.978   0.338
91795W        W60024  33.014  29.282   0.493
91796W        W60025  12.702  39.239   1.017
91797W        W60026  11.765  26.954  11.892
91798W        W60027  37.442  17.110  10.435
91799W        W60028  33.932   6.278   2.637
91800W        W60029  14.624  35.529   0.352
91801W        W60030   4.968  23.067  14.653
91802W        W60031  44.397  16.689   0.026
91803W        W60032  14.442   5.226  11.479
91804W        W60033  18.133  12.257   1.173
91805W        W60034   4.602  22.691   2.130
91806W        W60035  30.232  11.792  12.139
91807W        W60036  29.419   4.733  14.828
91808W        W60037  35.584  27.110  12.834
91809W        W60038  37.828  14.831   0.095
91810W        W60039   8.191   7.678   0.830
91811W        W60040  21.026  35.995   1.801
91812W        W60041  23.034  35.738   2.412
91813W        W60042  39.051   7.484   1.431
91814W        W60043   6.016  16.234   3.247
91815W        W60044  40.831  31.707   2.356
91816W        W60045  20.777  19.308   0.953
91817W        W60046  22.062   8.113   3.837
91818W        W60047  41.805  17.128   1.511
91819W        W60048   1.476  29.156   1.175
91820W        W60049  14.344  15.764   1.391
91821W        W60050  44.551   9.310   2.234
91822W        W60051  34.970  39.495   4.750
91823W        W60052  17.637  22.893  12.765
91824W        W60053  35.533  36.839   0.578
91825W        W60054  32.801  28.261  10.946
91826W        W60055  32.483  29.531  11.122
91827W        W60056  14.913  22.736  11.916
91828W        W60057  39.061  22.044  12.039
91829W        W60058  10.389  43.884   3.599
91830W        W60059  41.278  10.304   0.570
91831W        W60060  19.295  31.492   2.112
91832W        W60061  25.629  36.135  10.629
91833W        W60062  38.927  39.483   3.059
91834W        W60063  14.648  38.185  10.714
91835W        W60064   4.468   8.009  10.807
91836W        W60065  32.658   5.704  13.560
91837W        W60066  31.700  37.471   3.560
91838W        W60067  35.758  42.553   0.654
91839W        W60068  12.674   1.467   1.858
91840W        W60069  18.658  38.798  13.948
91841W        W60070  37.014  24.982  14.936
91842W        W60071  39.479   7.801   0.356
91843W        W60072   1.320  25.086  12.325
91844W        W60073  21.078  36.460  11.863
91845W        W60074  25.176   9.759  14.519
91846W        W60075  23.507  23.613  12.949
91847W        W60076  40.036  18.726  10.690
91848W        W60077   6.178  31.817  12.895
91849W        W60078  20.648   2.698  12.577
91850W        W60079  23.025  42.510   4.129
91851W        W60080  26.674   0.833  10.725
91852W        W60081  44.826  38.753   1.361
91853W        W60082  26.709  30.292  12.441
91854W        W60083  13.391  14.929   1.472
91855W        W60084  17.806   3.717   0.381
91856W        W60085   7.395  39.814  10.996
91857W        W60086  10.088  13.148  10.313
91858W        W60087  12.035   3.740   2.140
91859W        W60088  25.176  33.394  14.071
91860W        W60089  29.589   4.912  10.263
91861W        W60090  39.275  24.986   3.640
91862W        W60091  16.811   9.078  12.940
91863W        W60092  14.867   0.329   0.411
91864W        W60093  24.323   1.274  14.823
91865W        W60094  11.292  40.393  12.835
91866W        W60095  38.932  26.965  13.672
91867W        W60096   5.774  39.917  11.674
91868W        W60097  21.079  30.942  11.210
91869W        W60098  10.631  40.247   4.991
91870W        W60099  33.248  17.912  11.090
91871W        W60100   2.883  19.115   4.408
91872W        W60101  25.996  24.627   2.303
91873W        W60102   0.503  16.860  10.621
91874W        W60103  15.361  19.609   4.085
91875W        W60104  18.662  26.413   0.426
91876W        W60105  14.254  12.221  13.137
91877W        W60106  16.586  24.069   0.864
91878W        W60107   5.010  43.663  13.521
91879W        W60108  16.563   6.877   1.303
91880W        W60109  37.527   1.929   0.654
91881W        W60110  28.249  11.863  12.800
91882W        W60111  43.443   4.654  11.018
91883W        W60112  11.691  24.622  14.726
91884W        W60113   0.898  33.926   1.914
91885W        W60114  37.904  11.122   1.402
91886W        W60115  38.308  10.071  11.082
91887W        W60116  22.262  34.831  11.369
91888W        W60117   4.333  31.020   4.653
91889W        W60118  42.197  44.087  11.160
91890W        W60119  41.990   5.903   0.281
91891W        W60120  32.413  44.585  13.585
91892W        W60121   5.798  30.638  13.620
91893W        W60122   8.780  29.070   1.408
91894W        W60123   5.304   8.357   2.136
91895W        W60124  32.935  35.238  11.093
91896W        W60125  19.338  35.766  12.905
91897W        W60126   6.423  44.323   4.099
91898W        W60127  36.953   5.122  10.287
91899W        W60128  14.167  21.684   0.319
91900W        W60129  21.195  32.879   9.619
91901W        W60130   1.442  30.459   4.582
91902W        W60131  20.660   8.380  14.605
91903W        W60132  34.409  30.671   1.596
91904W        W60133   4.858  40.418  10.708
91905W        W60134  12.671  21.993   4.650
91906W        W60135   2.005   1.223   2.354
91907W        W60136  30.048  19.433  13.550
91908W        W60137   6.129   9.269  12.361
91909W        W60138  16.267  22.429  10.672
91910W        W60139  27.287  41.040  14.704
91911W        W60140  37.002   5.866   4.932
91912W        W60141  24.072  10.150   4.888
91913W        W60142   7.781  27.957  13.513
91914W        W60143  40.008   9.815   0.449
91915W        W60144  22.011  30.678   2.664
91916W        W60145  21.958  37.634  12.315
91917W        W60146  32.273  32.561  11.677
91918W        W60147  30.530  15.866  14.903
91919W        W60148   3.393  35.334  11.869
91920W        W60149  21.147  25.738  13.438
91921W        W60150   8.357   2.414   3.215
91922W        W60151   3.155  38.877   3.073
91923W        W60152   6.308  27.588   3.549
91924W        W60153  24.035  18.695   0.575
91925W        W60154  12.847  34.463  10.594
91926W        W60155  44.084  19.356  11.472
91927W        W60156  34.278  44.702  13.654
91928W        W60157   1.781  28.274  12.202
91929W        W60158  22.551  20.194  13.848
91930W        W60159   2.402  41.379   0.656
91931W        W60160  16.926  25.524  11.393
91932W        W60161  39.141  41.746  12.059
91933W        W60162  13.371  38.185  12.080
91934W        W60163   1.719   0.599   0.289
91935W        W60164  34.474  26.586  11.956
91936W        W60165   3.826   5.901   0.873
91937W        W60166  13.251  36.130   2.339
91938W        W60167  20.665  37.029   4.951
91939W        W60168  24.931  42.384   3.250
91940W        W60169  36.298   5.491  13.850
91941W        W60170   2.277  36.385   3.698
91942W        W60171  12.501  33.529   2.894
91943W        W60172  33.490  29.836   4.148
91944W        W60173  38.011  11.348  14.219
91945W        W60174  26.493  16.732  12.771
91946W        W60175  37.374   3.556  11.647
91947W        W60176  28.169  29.599   9.944
91948W        W60177  11.631  29.378  13.763
91949W        W60178  11.843  18.815  14.340
91950W        W60179   7.901  22.712   0.979
91951W        W60180  19.040   9.705  14.942
91952W        W60181  20.092  14.857  12.614
91953W        W60182  24.960  26.199   1.950
91954W        W60183  42.021  26.021  13.060
91955W        W60184  43.945   4.796  13.409
91956W        W60185  39.511  19.214  11.732
91957W        W60186  35.094  34.102   4.776
91958W        W60187  26.806  23.787   3.958
91959W        W60188  10.678   5.368   0.327
91960W        W60189  29.608  28.657  13.421
91961W        W60190  27.525   7.236   1.370
91962W        W60191  26.450  35.824  13.337
91963W        W60192  10.181  36.596   4.182
91964W        W60193  41.765  33.965  13.381
91965W        W60194   7.750  39.902   1.670
91966W        W60195  27.805  43.573  13.371
91967W        W60196  14.225  23.152  10.134
91968W        W60197   5.314   7.151   2.753
91969W        W60198  43.547  18.702  10.965
91970W        W60199  18.603  30.567   2.519
91971W        W60200  39.398   5.132   3.852
91972W        W60201   7.869   6.569  11.209
91973W        W60202   4.775  38.367  11.645
91974W        W60203  24.543  28.748   1.217
91975W        W60204  34.856  32.656   1.471
91976W        W60205  18.492  31.806  10.505
91977W        W60206  43.226   6.208  11.203
91978W        W60207  35.997  31.460   4.827
91979W        W60208  12.168  36.386  10.768
91980W        W60209  21.438  26.975   2.464
91981W        W60210  43.782  24.254   0.780
91982W        W60211  12.483  33.006  10.773
91983W        W60212  14.016  24.091  10.509
91984W        W60213  21.660  24.549  13.754
91985W        W60214  43.022  17.338  13.013
91986W        W60215  37.545   9.700   3.676
91987W        W60216  29.227  40.486   0.945
91988W        W60217  37.945  12.544   4.158
91989W        W60218   0.497  31.377  12.913
91990W        W60219  23.497  36.321   2.847
91991W        W60220  10.999  40.425   1.117
91992W        W60221  12.104  42.294   2.203
91993W        W60222  32.007  39.772   0.406
91994W        W60223  31.087  40.862   1.892
91995W        W60224  38.467  39.047   4.714
91996W        W60225  27.923  41.564  13.457
91997W        W60226  31.057   1.497   4.256
91998W        W60227   8.976   9.814  11.834
91999W        W60228   7.850  19.345  14.328
92000W        W60229   0.905  44.738  11.918
92001W        W60230  43.966  13.354   2.132
92002W        W60231  43.288  29.015  13.966
92003W        W60232   8.844  16.305  10.703
92004W        W60233  36.234  14.121   3.750
92005W        W60234  19.208  31.899   0.320
92006W        W60235  40.039  35.606   3.386
92007W        W60236  43.296  39.923  12.478
92008W        W60237  42.434  30.351   4.166
92009W        W60238   6.004  12.512   2.613
92010W        W60239  36.996  27.140   3.790
92011W        W60240  24.779  19.616   2.685
92012W        W60241  13.687  31.987   2.204
92013W        W60242  19.679  41.220   2.869
92014W        W60243  22.443  10.895   4.574
92015W        W60244  36.070  30.673  12.883
92016W        W60245  10.800  27.746   2.618
92017W        W60246  23.585  19.684   4.547
92018W        W60247  17.228  37.135   0.918
92019W        W60248  40.378  16.300   0.580
92020W        W60249   5.244   8.660  12.433
92021W        W60250  30.872  20.539   4.204
92022W        W60251  17.284  34.134  11.104
92023W        W60252  26.422  16.593  13.800
92024W        W60253  15.945   1.925  11.574
92025W        W60254  23.619  39.849  12.988
92026W        W60255  39.374  40.012   4.187
92027W        W60256  28.558  37.126   0.868
92028W        W60257  20.839   8.653   2.199
92029W        W60258  38.771  42.968  13.312
92030W        W60259   2.549  25.036  14.589
92031W        W60260   4.115  13.442  12.611
92032W        W60261  44.989  44.506   3.132
92033W        W60262  42.003  35.034  12.634
92034W        W60263   0.751  40.260   4.648
92035W        W60264   3.448   8.912   0.747
92036W        W60265  42.856  44.023   4.037
92037W        W60266   0.154   7.937   2.716
92038W        W60267  38.972  21.342  13.389
92039W        W60268  30.383  11.819  14.352
92040W        W60269  41.452  17.548  13.883
92041W        W60270  41.562  42.221   0.669
92042W        W60271   3.290  28.495   4.247
92043W        W60272  16.771  15.491   1.254
92044W        W60273  17.125  22.823   2.391
92045W        W60274   3.922  12.209  10.630
92046W        W60275  41.431  18.433   4.689
92047W        W60276  41.898  43.358   0.456
92048W        W60277  44.491   8.306  13.471
92049W        W60278  23.737  36.307   3.318
92050W        W60279  40.023  34.038  10.730
92051W        W60280  25.800  17.711  11.590
92052W        W60281  18.643  39.807   4.505
92053W        W60282  32.586   7.958   2.257
92054W        W60283   7.677  14.699   0.934
92055W        W60284  32.536  22.289  12.335
92056W        W60285  16.527  41.484  13.636
92057W        W60286  20.857  21.455  11.629
92058W        W60287  18.261  14.143  11.578
92059W        W60288  28.432  22.346   1.433
92060W        W60289  15.626  35.828   2.397
92061W        W60290  13.652   9.818  10.641
92062W        W60291  12.345  39.040   0.265
92063W        W60292  32.892   8.927  14.764
92064W        W60293  29.124  17.530  12.936
92065W        W60294  27.945   4.580  13.719
92066W        W60295   7.746  10.690   4.642
92067W        W60296   8.249   8.413   3.695
92068W        W60297   3.854   3.285   1.986
92069W        W60298  25.202  38.881   2.813
92070W        W60299  11.293   9.835  11.508
92071W        W60300  40.657  15.226   4.824
92072W        W60301  17.308  11.909   2.290
92073W        W60302  31.114  27.690   4.133
92074W        W60303  15.823  22.631  10.877
92075W        W60304  12.646  19.910  12.919
92076W        W60305  31.791  43.547  12.345
92077W        W60306  37.911  18.480   1.673
92078W        W60307  43.099   2.633   0.956
92079W        W60308  42.596  11.237  10.651
92080W        W60309   7.690   4.354  12.525
92081W        W60310  20.058  31.541  10.693
92082W        W60311  18.469  21.730  13.940
92083W        W60312  22.703  19.288  13.517
92084W        W60313   7.792   1.682   2.307
92085W        W60314  15.082  23.215  13.555
92086W        W60315  31.776  16.102  10.763
92087W        W60316  23.656  20.294  12.964
92088W        W60317  44.720  24.232   3.089
92089W        W60318   0.426  40.327  11.186
92090W        W60319   9.479   5.852   3.654
92091W        W60320  44.200  37.931  11.586
92092W        W60321  17.528  27.925   4.147
92093W        W60322  43.259  18.347   0.887
92094W        W60323  33.948  17.174  13.386
92095W        W60324  36.977  23.419   0.878
92096W        W60325  42.173  20.732  13.373
92097W        W60326  25.660  39.877   4.034
92098W        W60327  20.298  14.740  14.839
92099W        W60328  10.196   3.217  10.207
92100W        W60329  43.529  32.864  13.573
92101W        W60330  43.468  14.836   2.263
92102W        W60331  24.766  43.918   2.516
92103W        W60332   5.992   5.245  11.077
92104W        W60333  25.497  42.727   2.723
92105W        W60334  18.288  43.382  11.987
92106W        W60335  31.863  33.692  14.412
92107W        W60336   7.143  15.177   0.204
92108W        W60337  21.268  10.196   1.946
92109W        W60338   7.451  40.368   1.863
92110W        W60339  32.058  20.670   3.128
92111W        W60340  13.159  10.306  13.090
92112W        W60341  38.837  24.166   3.686
92113W        W60342  42.169   2.486   2.584
92114W        W60343   8.819  22.573   4.949
92115W        W60344  39.638  32.121  10.995
92116W        W60345  43.057   6.067  11.658
92117W        W60346  28.630  19.204  13.321
92118W        W60347  37.106  24.735  14.491
92119W        W60348  42.096  22.467  14.863
92120W        W60349  35.025   0.967  12.914
92121W        W60350  17.488  38.747  12.043
92122W        W60351  12.145  12.845   0.576
92123W        W60352  16.176  12.657   0.645
92124W        W60353  19.660  10.675   3.205
92125W        W60354  18.554  23.957   3.661
92126W        W60355  22.222   7.156  13.372
92127W        W60356  41.560  30.668  14.863
92128W        W60357   6.168   7.261  10.777
92129W        W60358   1.369  36.804  14.103
92130W        W60359   5.369   1.232  12.611
92131W        W60360  14.359   4.233   1.981
92132W        W60361   5.959   9.140   1.459
92133W        W60362  27.048  27.683  13.440
92134W        W60363  30.940  29.110   2.672
92135W        W60364  35.921   7.937   1.994
92136W        W60365  17.705  17.581  12.562
92137W        W60366  33.929   8.215   2.242
92138W        W60367  40.752  16.705  14.300
92139W        W60368   9.206   8.226  13.341
92140W        W60369   2.429  33.013   3.667
92141W        W60370  41.577  31.313   0.214
92142W        W60371   1.397   8.548  13.313
92143W        W60372  35.677  30.471  14.706
92144W        W60373  21.656  18.554   4.527
92145W        W60374  22.157  16.200   3.178
92146W        W60375  24.302   8.216   4.129
92147W        W60376  39.273  27.310  10.253
92148W        W60377  15.981  32.627   3.938
92149W        W60378  36.444   4.843   2.812
92150W        W60379  39.178  31.907  11.146
92151W        W60380  10.167  14.295   0.286
92152W        W60381  27.804  28.665   1.284
92153W        W60382  10.572  21.661   2.297
92154W        W60383  23.739  14.186  14.336
92155W        W60384  18.628  31.369  10.722
92156W        W60385   0.953  23.171   2.157
92157W        W60386  39.652  11.630  14.891
92158W        W60387  28.486  33.040  10.386
92159W        W60388  14.117  31.627   4.172
92160W        W60389  14.610  14.420   2.280
92161W        W60390   3.841  32.961  14.812
92162W        W60391  36.923  23.892   3.512
92163W        W60392  34.389  22.640   2.576
92164W        W60393  17.251   1.499   4.142
92165W        W60394  14.811  19.747   1.072
92166W        W60395  10.074  30.070  13.450
92167W        W60396  30.057   8.195  11.591
92168W        W60397  25.367   8.334  11.604
92169W        W60398   9.156  39.114  10.690
92170W        W60399  18.252  18.682  14.693
92171W        W60400  17.205  38.064  14.820
92172W        W60401  33.036   9.927  13.419
92173W        W60402   1.203  35.065  14.827
92174W        W60403  30.559  28.729   4.655
92175W        W60404  16.586  43.840  11.023
92176W        W60405   8.262  36.074  11.006
92177W        W60406   5.800  41.642  10.636
92178W        W60407  15.278  38.012  11.982
92179W        W60408  18.246  21.716   1.790
92180W        W60409  27.343  34.635  11.137
92181W        W60410  44.685   5.807   1.351
92182W        W60411   5.421  23.070  12.360
92183W        W60412  11.610  28.657   0.895
92184W        W60413  43.928  25.733  12.791
92185W        W60414   9.151  31.055   3.220
92186W        W60415  28.526  14.851   3.842
92187W        W60416  13.182   8.755   3.609
92188W        W60417  22.224  25.949   0.467
92189W        W60418  38.162   9.227   3.152
92190W        W60419  28.134  33.431   5.201
92191W        W60420  29.356  20.499   4.717
92192W        W60421   0.770  41.561  13.801
92193W        W60422  18.762  41.924   3.202
92194W        W60423  21.376  35.028   1.692
92195W        W60424   8.225  26.974  13.864
92196W        W60425  35.342  41.342   2.170
92197W        W60426  39.234  21.868   0.850
92198W        W60427  40.474   0.780   1.308
92199W        W60428   1.631  35.579  12.088
92200W        W60429   7.616  11.649  12.030
92201W        W60430   2.816   3.913  14.395
92202W        W60431  15.588  38.100  11.563
92203W        W60432  31.552  30.364  11.578
92204W        W60433  30.476  33.560   1.306
92205W        W60434  35.189   2.004  11.071
92206W        W60435  44.938   3.308   5.096
92207W        W60436  43.546  44.898   0.945
92208W        W60437   1.469  23.741   1.315
92209W        W60438  22.453  10.600   1.376
92210W        W60439   8.327  16.099   3.791
92211W        W60440  17.594  22.008   0.438
92212W        W60441  43.164  13.088  12.926
92213W        W60442  11.390  29.727   0.983
92214W        W60443  21.593   5.822   0.998
92215W        W60444  22.081  26.943  13.194
92216W        W60445  28.716  26.546  11.665
92217W        W60446  32.852   0.863  11.037
92218W        W60447  17.324   7.245  12.367
92219W        W60448  43.786   0.735  10.759
92220W        W60449  13.879  22.800   0.751
92221W        W60450   1.689  21.122  10.415
92222W        W60451  11.236  15.367  11.409
92223W        W60452  42.401  10.263  10.236
92224W        W60453  20.649  24.250   4.194
92225W        W60454   4.698   9.898   4.628
92226W        W60455  11.800   3.269  11.600
92227W        W60456  19.674   2.845   2.734
92228W        W60457   3.844   5.387   4.215
92229W        W60458  26.248  38.484   2.214
92230W        W60459  33.933  21.175  12.490
92231W        W60460  44.329  32.316  12.994
92232W        W60461   9.841   8.237   4.363
92233W        W60462  37.447  28.219  12.486
92234W        W60463   6.832  11.140  13.033
92235W        W60464  41.487  30.211  13.536
92236W        W60465   9.858   2.843  13.490
92237W        W60466  27.415  23.086  13.901
92238W        W60467  28.330  35.284   2.319
92239W        W60468  10.885  32.034  12.844
92240W        W60469   9.734  14.215  13.900
92241W        W60470  34.644   3.264   1.591
92242W        W60471  28.580   2.682   2.847
92243W        W60472  29.050  38.730  10.494
92244W        W60473  25.781  38.648  14.851
92245W        W60474  20.191  24.783  11.134
92246W        W60475   6.859  19.221   3.861
92247W        W60476   6.781  25.076   3.778
92248W        W60477  18.267  31.102  14.136
92249W        W60478  44.963   5.416   0.115
92250W        W60479  37.591   0.311  12.063
92251W        W60480  41.815  27.744  13.930
92252W        W60481  10.653  26.624  14.256
92253W        W60482  30.578  34.439   4.295
92254W        W60483  18.036  34.230   3.469
92255W        W60484   2.270  39.407  14.263
92256W        W60485  11.707  15.393   0.766
92257W        W60486   8.736   6.696  14.939
92258W        W60487  33.411  24.022   4.612
92259W        W60488   1.788  42.857   0.038
92260W        W60489  35.766   0.382   1.683
92261W        W60490  17.783  28.627   0.788
92262W        W60491  35.906  18.775  13.477
92263W        W60492  13.834  21.860   2.883
92264W        W60493  43.735  17.527  12.044
92265W        W60494  21.865   7.900   0.393
92266W        W60495  34.811  37.622   1.225
92267W        W60496  19.707  35.959   0.256
92268W        W60497  43.028  20.170   1.848
92269W        W60498  33.049  28.249  12.438
92270W        W60499   1.844  43.291   2.454
92271W        W60500  43.003  38.370   3.642
92272W        W60501  31.159   7.379  13.740
92273W        W60502  36.642  22.099   0.311
92274W        W60503  20.227  17.577  13.956
92275W        W60504   3.772  10.633  12.299
92276W        W60505  21.487  18.187   2.276
92277W        W60506   8.297   5.212  13.098
92278W        W60507  18.789   2.737  13.674
92279W        W60508  17.089  13.641  10.686
92280W        W60509  17.238  11.876  13.611
92281W        W60510  32.478   7.368  11.606
92282W        W60511  40.065  16.751  11.191
92283W        W60512  42.483  41.303  11.326
92284W        W60513  26.957  14.666  14.922
92285W        W60514  26.502  37.517   4.566
92286W        W60515  34.822   5.231  14.362
92287W        W60516   7.647  30.635   2.909
92288W        W60517   8.385  21.994  13.481
92289W        W60518  16.917  30.669   9.892
92290W        W60519  19.745   2.033  11.483
92291W        W60520   6.757  28.389   3.280
92292W        W60521  43.399  30.859  10.661
92293W        W60522   3.829  19.992   3.829
92294W        W60523   3.186  36.577  12.153
92295W        W60524  24.504  14.821  14.990
92296W        W60525  24.120   7.466  11.535
92297W        W60526  35.461  33.603   1.692
92298W        W60527  11.268  12.751   3.361
92299W        W60528  25.382  30.073  12.598
92300W        W60529  29.954  21.601  12.483
92301W        W60530  42.662   8.559  11.731
92302W        W60531   6.307  14.261   4.608
92303W        W60532   7.605  41.687  10.354
92304W        W60533  38.621  42.862  14.263
92305W        W60534  19.081   9.841  12.376
92306W        W60535  37.941  35.807  13.389
92307W        W60536  10.713  42.270  14.797
92308W        W60537  13.801  21.450   1.444
92309W        W60538  10.841  34.216   4.782
92310W        W60539  28.173  26.595   1.708
92311W        W60540  20.939  35.447   4.274
92312W        W60541  42.510  39.022   3.179
92313W        W60542  18.365  30.220   4.530
92314W        W60543  43.884  14.073  13.846
92315W        W60544  10.764   5.423   3.505
92316W        W60545  11.754  41.758   1.515
92317W        W60546  42.791   8.671   0.799
92318W        W60547  14.177   0.961   1.140
92319W        W60548   9.785  19.608  10.782
92320W        W60549  11.276   7.980  12.467
92321W        W60550   6.997  13.964  13.545
92322W        W60551  13.702  20.260   2.863
92323W        W60552  19.665  30.325   2.295
92324W        W60553  30.543   8.675   1.851
92325W        W60554  34.394   4.001   1.668
92326W        W60555  34.579  16.730  12.781
92327W        W60556  15.066  39.530   3.318
92328W        W60557   3.559  35.718  13.093
92329W        W60558  42.342   9.414   0.437
92330W        W60559  40.391  38.582   1.887
92331W        W60560  29.155  38.947   2.709
92332W        W60561  29.318  34.619  10.605
92333W        W60562  23.572  43.122  11.986
92334W        W60563   7.507  30.604  14.328
92335W        W60564   6.018  25.540  13.029
92336W        W60565   0.801  12.189  14.389
92337W        W60566  33.015  19.691   3.773
92338W        W60567  34.176  34.607  13.472
92339W        W60568   2.874   3.347  12.314
92340W        W60569   6.813  39.609   0.471
92341W        W60570  13.235  17.276   2.898
92342W        W60571  14.061  24.218   1.711
92343W        W60572  13.902  40.416   0.790
92344W        W60573  42.750  34.768  11.040
92345W        W60574   3.730   6.126   3.620
92346W        W60575  33.435   3.126   0.952
92347W        W60576  28.692  35.621   4.194
92348W        W60577   5.978  33.587   4.809
92349W        W60578  25.026  39.129   2.383
92350W        W60579  16.631  20.313  10.313
92351W        W60580  38.874  40.097  14.256
92352W        W60581  25.486  43.050   1.498
92353W        W60582   2.143  18.392  10.901
92354W        W60583   1.436  30.449   3.349
92355W        W60584  25.207   3.401   0.350
92356W        W60585  23.051  14.828   9.609
92357W        W60586  39.888  32.706   4.222
92358W        W60587  29.004   7.541  14.043
92359W        W60588  30.956  31.574   2.360
92360W        W60589  24.661  14.678   4.272
92361W        W60590  24.189  17.307  13.510
92362W        W60591  26.080  43.893  11.598
92363W        W60592  25.177  20.665   0.137
92364W        W60593  28.132   1.283   1.862
92365W        W60594  38.852  44.369   2.229
92366W        W60595  31.537   4.455  11.019
92367W        W60596  15.401  27.547  11.965
92368W        W60597   0.265  10.814   3.698
92369W        W60598  37.629  29.546   1.513
92370W        W60599  20.591  38.849  10.715
92371W        W60600  41.011   3.379   3.272
92372W        W60601  44.264  29.926  14.977
92373W        W60602   2.915  25.959   0.527
92374W        W60603  44.246   9.038  12.059
92375W        W60604  42.008  40.852  14.422
92376W        W60605  32.592  32.386  13.412
92377W        W60606  42.911   7.890   3.747
92378W        W60607  15.663  28.514  12.944
92379W        W60608  28.101  34.147  12.821
92380W        W60609  24.998  39.766  13.605
92381W        W60610   9.875  13.936   9.829
92382W        W60611   9.410  33.026   4.623
92383W        W60612   4.858  13.909   2.697
92384W        W60613  30.970  39.356  11.704
92385W        W60614   7.198   8.057   0.353
92386W        W60615   6.907   5.749   2.792
92387W        W60616  44.409  43.999   3.736
92388W        W60617  37.613  16.284   2.882
92389W        W60618  11.087  37.787   1.983
92390W        W60619  25.158  29.378  13.779
92391W        W60620  26.132  25.711  11.416
92392W        W60621  35.871  28.201   2.457
92393W        W60622  32.666  23.129   2.146
92394W        W60623   9.022  25.636   4.579
92395W        W60624  27.895  19.547   0.513
92396W        W60625  20.061  11.692   0.373
92397W        W60626  37.042  43.118   1.102
92398W        W60627  43.811  17.029  10.747
92399W        W60628  38.550  35.476   2.932
92400W        W60629  13.756   1.828   0.474
92401W        W60630  37.357   3.039  11.717
92402W        W60631   2.546   7.870   4.132
92403W        W60632  22.664  17.305   0.382
92404W        W60633  28.187  27.696  12.041
92405W        W60634   7.752  40.015  11.937
92406W        W60635  17.578  44.299  12.553
92407W        W60636  23.297  33.288  10.707
92408W        W60637  43.437  22.471  12.524
92409W        W60638   8.361  13.672   1.835
92410W        W60639  38.983   6.028   1.211
92411W        W60640  43.768  17.009  13.514
92412W        W60641  10.681  39.558  14.571
92413W        W60642  27.931  24.997  13.010
92414W        W60643  30.325  40.474   2.781
92415W        W60644   8.574   7.998   4.677
92416W        W60645  43.498  25.801  13.462
92417W        W60646  18.406  34.599   3.641
92418W        W60647  23.224  43.281   0.956
92419W        W60648   4.656  35.826   0.344
92420W        W60649  33.879   4.835  13.469
92421W        W60650  39.930   6.132  14.356
92422W        W60651  12.270  18.354   3.925
92423W        W60652  22.149  32.899  14.669
92424W        W60653  22.309  11.776   3.262
92425W        W60654  41.886  29.445  14.826
92426W        W60655  41.784  17.493   1.142
92427W        W60656  30.134  18.570   1.390
92428W        W60657   8.729  24.216   3.159
92429W        W60658  20.153  21.299  13.355
92430W        W60659  35.004  25.077  12.976
92431W        W60660  40.038  14.594  13.399
92432W        W60661  42.928  19.674  14.822
92433W        W60662  27.136  21.279   4.146
92434W        W60663  15.118  37.710   1.786
92435W        W60664  39.582  21.080   1.202
92436W        W60665  22.314  42.073  12.938
92437W        W60666  13.363   1.954   1.861
92438W        W60667  18.339  25.694   3.892
92439W        W60668  14.107  37.805   0.250
92440W        W60669  15.051  38.791   1.035
92441W        W60670   9.330  28.109   1.323
92442W        W60671   7.706  37.522   1.312
92443W        W60672  23.433  13.491  10.731
92444W        W60673  19.143  18.261  14.141
92445W        W60674  40.849   5.910   0.799
92446W        W60675   0.782  11.403  11.913
92447W        W60676  12.770  39.134  10.607
92448W        W60677  35.883   5.295  13.587
92449W        W60678  27.230  38.204   1.631
92450W        W60679  43.355  23.879   0.926
92451W        W60680  13.874  20.467  13.464
92452W        W60681  17.347  28.672   2.276
92453W        W60682  29.100  14.025   2.715
92454W        W60683  13.327   1.847  12.108
92455W        W60684  14.515   4.855   2.865
92456W        W60685  31.892  12.355   0.021
92457W        W60686   9.568   1.018   3.172
92458W        W60687  32.607  31.938   2.286
92459W        W60688  14.621  41.245  12.440
92460W        W60689   0.334  43.742  12.929
92461W        W60690  16.763   4.665  13.448
92462W        W60691  14.034  28.221  10.487
92463W        W60692  13.892   7.708  11.704
92464W        W60693  29.981  32.735   1.501
92465W        W60694  26.068  21.592   2.391
92466W        W60695   7.024   3.019   1.320
92467W        W60696  17.187   9.573  12.107
92468W        W60697   2.721  18.070  14.644
92469W        W60698  21.346  13.949  12.860
92470W        W60699  40.083  27.566  11.776
92471W        W60700  40.101  22.963   0.796
92472W        W60701  23.765  12.054   3.072
92473W        W60702  35.058  13.202  12.379
92474W        W60703   3.310  41.668  13.445
92475W        W60704  32.985  41.387   3.640
92476W        W60705   0.132  25.800  13.795
92477W        W60706  40.930  41.028  14.936
92478W        W60707  33.075  15.544  14.655
92479W        W60708  15.716   3.691   1.271
92480W        W60709  31.982   4.962   0.357
92481W        W60710   1.297  20.790   3.863
92482W        W60711   9.663  21.950   4.568
92483W        W60712  40.518  27.642  14.421
92484W        W60713  28.955   9.098  11.632
92485W        W60714   3.722  30.769   3.218
92486W        W60715   6.370  32.216   3.907
92487W        W60716  23.664  40.523   0.918
92488W        W60717  32.643  15.824   3.185
92489W        W60718   0.459  19.235  13.001
92490W        W60719  34.907  31.555  14.400
92491W        W60720  31.062   1.948   4.538
92492W        W60721  41.992  29.982  10.855
92493W        W60722  10.214  32.526  12.126
92494W        W60723  16.717  12.158   0.837
92495W        W60724   5.796  11.274  13.935
92496W        W60725  39.633  42.601  10.812
92497W        W60726  14.599  44.440   3.574
92498W        W60727  41.410  12.349   1.287
92499W        W60728  41.832  41.514   0.001
92500W        W60729   2.889  10.562  11.864
92501W        W60730   9.249   6.476  11.225
92502W        W60731  38.069  32.161  11.939
92503W        W60732   1.268   0.042   2.298
92504W        W60733   9.422   0.232  14.849
92505W        W60734  29.123   6.987  12.591
92506W        W60735  10.850  43.462   2.387
92507W        W60736  18.592   0.436  11.220
92508W        W60737  44.081  33.063  10.258
92509W        W60738  25.912  32.126   5.762
92510W        W60739  14.316  34.308   2.780
92511W        W60740   1.250   7.201   1.785
92512W        W60741  11.291   3.479   2.289
92513W        W60742  24.081  36.616  11.053
92514W        W60743   8.987  13.045  11.964
92515W        W60744  22.965  26.085  10.830
92516W        W60745  38.865  39.067   1.938
92517W        W60746  43.797   0.276   1.677
92518W        W60747  21.143  36.494   4.835
92519W        W60748  19.374  16.705   4.884
92520W        W60749  36.093  23.983  13.673
92521W        W60750  19.544  38.334   0.802
92522W        W60751  19.457  23.932   3.078
92523W        W60752  14.614   2.935   2.099
92524W        W60753  11.052  19.266   3.732
92525W        W60754  21.644  16.588   2.793
92526W        W60755  20.721  39.842   4.684
92527W        W60756  43.486   7.531   0.858
92528W        W60757  23.355   8.710   0.641
92529W        W60758  11.661   9.448   1.180
92530W        W60759   0.809  27.903  11.347
92531W        W60760   0.451  29.491  14.324
92532W        W60761  13.874   1.817  14.514
92533W        W60762  17.891   1.564  12.846
92534W        W60763   4.005  44.756   4.644
92535W        W60764  11.076  22.452  11.464
92536W        W60765  12.365   1.849   0.470
92537W        W60766   9.745  43.947   4.763
92538W        W60767  21.602  39.594   1.225
92539W        W60768   7.720  25.530  14.945
92540W        W60769  38.420   2.109   3.274
92541W        W60770  19.646  11.217   0.995
92542W        W60771  13.852  33.397  12.551
92543W        W60772   0.812  30.087  12.613
92544W        W60773  29.435  17.139  12.705
92545W        W60774  36.267  21.208  10.442
92546W        W60775  32.114  36.996  11.068
92547W        W60776   0.405  17.547  13.159
92548W        W60777  42.849   5.374   4.618
92549W        W60778  40.787   6.367   1.031
92550W        W60779  44.693   7.658   1.347
92551W        W60780  43.840  30.149   1.835
92552W        W60781  17.545  37.295   1.327
92553W        W60782  17.650  33.852  14.895
92554W        W60783  18.786  29.252   1.827
92555W        W60784  24.474  19.245   4.347
92556W        W60785   8.411   4.566  14.811
92557W        W60786  17.178   4.767  13.746
92558W        W60787  18.562  25.914   0.328
92559W        W60788  41.729  23.208  12.675
92560W        W60789  32.333  20.104  13.172
92561W        W60790  29.423  25.960  11.849
92562W        W60791  15.201  20.003   3.157
92563W        W60792  33.895  21.207   0.319
92564W        W60793   5.800  43.460  14.273
92565W        W60794   0.006  28.924   2.085
92566W        W60795  32.859  22.236   1.270
92567W        W60796  42.441  10.295  13.763
92568W        W60797  34.836  18.786   0.525
92569W        W60798  43.420   5.540  14.822
92570W        W60799   9.684  13.063   2.024
92571W        W60800   6.181  26.091  12.012
92572W        W60801   1.957  27.974   4.468
92573W        W60802   3.008  16.014   3.090
92574W        W60803  42.010  37.913   4.605
92575W        W60804  39.370  21.571   1.265
92576W        W60805  38.518  35.004   0.027
92577W        W60806   4.031  22.789   2.822
92578W        W60807   0.250  14.160  11.936
92579W        W60808  21.526  31.096   1.741
92580W        W60809   8.185  22.859   3.345
92581W        W60810  34.687  20.609   3.374
92582W        W60811  27.236  15.759  14.035
92583W        W60812  35.872  39.580  12.115
92584W        W60813  43.124   8.447  11.489
92585W        W60814  28.125   2.819  12.093
92586W        W60815   8.753  31.991  11.977
92587W        W60816   4.908   3.875   1.582
92588W        W60817  12.648   9.884   1.719
92589W        W60818   5.899   8.320   0.982
92590W        W60819  23.796  43.290  10.722
92591W        W60820  21.639  13.058  14.312
92592W        W60821  18.514   8.538  14.557
92593W        W60822  29.985   9.590   2.355
92594W        W60823  17.452  14.736   3.794
92595W        W60824  19.145  44.720  12.006
92596W        W60825   9.785  15.093   3.740
92597W        W60826  35.982  31.645  14.326
92598W        W60827  42.843   5.062   4.211
92599W        W60828   0.494  22.185   2.226
92600W        W60829  38.976   4.794  10.587
92601W        W60830  19.203  20.471   3.443
92602W        W60831  24.081  10.221  13.758
92603W        W60832  12.987  21.179  12.875
92604W        W60833   7.187  26.233   1.743
92605W        W60834  41.689   4.912   0.292
92606W        W60835  33.998  21.519  10.563
92607W        W60836  10.928   1.394   1.591
92608W        W60837  23.317  31.895   2.898
92609W        W60838  21.539  20.812  10.685
92610W        W60839   1.377  17.593  10.779
92611W        W60840   9.757   8.569  14.417
92612W        W60841   7.450  18.062   2.376
92613W        W60842  28.226  19.045   0.505
92614W        W60843  43.384   4.572   4.904
92615W        W60844  40.851  43.959  13.710
92616W        W60845  41.316  41.732  11.603
92617W        W60846  12.259  25.534  11.610
92618W        W60847  26.165  33.541  11.791
92619W        W60848  13.182  32.480   0.967
92620W        W60849   4.639  32.332   1.315
92621W        W60850   1.716   6.719   3.266
92622W        W60851  37.761  41.882   4.291
92623W        W60852  35.401  26.830  14.389
92624W        W60853  34.123   6.227   1.641
92625W        W60854   7.546   1.563   5.017
92626W        W60855  43.278  11.596  12.933
92627W        W60856  40.398  30.214  14.409
92628W        W60857   9.235  26.500  14.838
92629W        W60858  29.655  44.051  13.486
92630W        W60859  39.305  28.440   4.987
92631W        W60860   9.654   3.999   1.125
92632W        W60861  12.807   5.465   1.417
92633W        W60862   8.128  33.500  14.389
92634W        W60863  17.360  25.705  12.571
92635W        W60864   0.199   3.915  13.795
92636W        W60865   3.808  36.895   0.246
92637W        W60866  28.954  24.188  12.576
92638W        W60867   4.914  15.308   0.814
92639W        W60868  29.141  24.464   4.626
92640W        W60869  43.192  41.286  12.084
92641W        W60870  24.028  22.695   2.357
92642W        W60871  16.113  25.421  11.152
92643W        W60872  12.602  28.982   0.920
92644W        W60873  31.355  11.858   0.734
92645W        W60874  43.987  34.095  11.414
92646W        W60875   3.470  13.125  13.150
92647W        W60876   1.868   8.642  13.028
92648W        W60877  35.999  37.052   0.938
92649W        W60878  27.897  41.029   0.821
92650W        W60879  11.942  38.850   4.602
92651W        W60880   8.612  30.379   5.135
92652W        W60881  11.474  40.025  11.496
92653W        W60882  33.319  13.110  10.816
92654W        W60883  28.415  14.363  10.728
92655W        W60884   1.392   0.526  14.606
92656W        W60885   1.971  18.519   0.884
92657W        W60886   2.616   8.821   5.128
92658W        W60887   0.482  33.900   4.203
92659W        W60888   0.795  33.907  11.111
92660W        W60889  42.720   4.660   3.900
92661W        W60890  43.361  40.541  11.623
92662W        W60891   1.001  24.807  13.393
92663W        W60892  20.224  15.870   3.701
92664W        W60893  17.709   0.472   3.369
92665W        W60894  23.238  29.906  11.421
92666W        W60895  36.516  21.228   0.401
92667W        W60896   0.574   4.041   2.014
92668W        W60897  41.457  33.026   0.749
92669W        W60898  18.155  14.868   4.535
92670W        W60899  23.192  13.080  13.323
92671W        W60900  19.585  36.352   3.059
92672W        W60901  25.063   9.732  12.130
92673W        W60902   8.420  33.076   1.609
92674W        W60903  42.513   4.240  10.691
92675W        W60904  21.035  40.736  13.778
92676W        W60905   9.196   4.566  13.386
92677W        W60906  21.820   9.137  12.539
92678W        W60907   3.871   1.221   0.238
92679W        W60908  21.732  16.614  14.467
92680W        W60909  21.607  23.477  10.810
92681W        W60910  41.882  23.595   4.647
92682W        W60911  12.113  27.613   1.406
92683W        W60912  32.954   0.474   1.130
92684W        W60913  11.021   4.410   1.287
92685W        W60914   4.938  18.275   4.234
92686W        W60915   6.911  29.463   1.588
92687W        W60916  25.681  28.832  10.976
92688W        W60917  33.806   4.853  11.194
92689W        W60918   8.883   2.644   2.832
92690W        W60919  32.683  17.825   0.423
92691W        W60920  43.954  42.344   4.207
92692W        W60921  33.534  30.121   0.209
92693W        W60922  28.369  18.159   9.970
92694W        W60923  43.842  41.368   0.533
92695W        W60924  19.132  30.456   2.364
92696W        W60925  12.129  25.892   0.935
92697W        W60926  33.041  20.547   4.726
92698W        W60927  39.125   0.763  11.134
92699W        W60928   5.919  37.655   2.008
92700W        W60929   8.730   8.831   4.186
92701W        W60930  24.669  40.261  11.772
92702W        W60931  33.825  22.047   2.462
92703W        W60932  14.045  26.575   4.755
92704W        W60933  34.309  20.149  11.395
92705W        W60934  26.375  43.203   0.985
92706W        W60935  35.373  26.041  13.559
92707W        W60936  44.065  38.633   4.187
92708W        W60937   0.809  15.650  11.603
92709W        W60938  13.559   9.071  12.231
92710W        W60939   7.303  17.716  10.371
92711W        W60940  20.599  22.046   1.189
92712W        W60941  28.895  35.200   4.394
92713W        W60942  16.789  28.470   0.919
92714W        W60943  38.815  12.613  12.910
92715W        W60944  21.618   0.024  14.665
92716W        W60945   2.537  29.399  14.552
92717W        W60946  43.712  24.367   4.139
92718W        W60947  33.137  26.409   1.910
92719W        W60948  23.572  10.147   3.201
92720W        W60949   6.342  23.130  14.104
92721W        W60950  12.992  18.828   1.845
92722W        W60951  16.303   4.438  11.226
92723W        W60952  29.614   0.440  13.501
92724W        W60953  34.075  22.965  12.313
92725W        W60954   3.669   6.148   1.606
92726W        W60955  42.403   0.080   0.502
92727W        W60956  28.134   1.986   2.487
92728W        W60957  19.187   6.742  14.480
92729W        W60958  14.814   2.224   1.342
92730W        W60959  27.081   0.309  14.397
92731W        W60960  24.127  26.641   0.920
92732W        W60961   6.269  28.656   3.413
92733W        W60962  13.263   8.849   4.621
92734W        W60963  34.006  36.596  10.524
92735W        W60964  22.015   1.280  12.561
92736W        W60965   0.302   4.582   3.170
92737W        W60966  21.209  17.016   1.774
92738W        W60967  15.714  28.009   1.742
92739W        W60968   5.882   5.975  12.978
92740W        W60969  34.398   9.656  10.708
92741W        W60970  19.252  14.204   3.192
92742W        W60971  36.045  18.808  12.633
92743W        W60972  17.044   2.537  13.017
92744W        W60973  12.364  44.979   1.454
92745W        W60974  15.930   0.315   0.214
92746W        W60975  36.086  27.813   0.340
92747W        W60976  10.819   7.839   0.859
92748W        W60977  14.069   1.921  12.818
92749W        W60978  32.476  12.880   1.498
92750W        W60979  17.622  10.268   2.855
92751W        W60980  17.738  24.148  11.232
92752W        W60981  43.276  23.751  14.991
92753W        W60982   9.295   3.382  13.957
92754W        W60983  11.086  16.541  10.877
92755W        W60984  31.908  15.742  12.997
92756W        W60985   6.527  30.296  11.079
92757W        W60986  37.512   2.377   0.927
92758W        W60987  40.799  27.513   3.670
92759W        W60988   0.739  30.073   4.557
92760W        W60989  26.597  25.075   4.386
92761W        W60990   5.784  36.050  14.865
92762W        W60991  23.112   5.191   0.384
92763W        W60992  33.974  35.416  14.240
92764W        W60993  35.152  12.223   2.345
92765W        W60994  41.896  15.498   3.649
92766W        W60995  27.520  25.302   3.805
92767W        W60996  32.909  30.694   0.829
92768W        W60997  11.102  37.524   0.872
92769W        W60998  39.072  28.969  12.417
92770W        W60999  44.828  31.336   3.769
92771W        W61000  18.174   9.747   4.162
92772W        W61001  25.288   0.772  12.578
92773W        W61002  24.132  15.053  14.212
92774W        W61003  28.458  37.638  10.645
92775W        W61004   6.799  43.905  10.391
92776W        W61005   2.817  38.407  10.641
92777W        W61006  25.008  21.998   1.914
92778W        W61007   8.224   8.067  13.923
92779W        W61008  16.796  31.861   0.775
92780W        W61009  33.483  28.027  14.276
92781W        W61010  36.861   3.910   1.056
92782W        W61011  26.435  29.606  12.918
92783W        W61012  32.764  13.123  10.912
92784W        W61013  13.837  41.645  11.473
92785W        W61014  26.989  12.354   3.221
92786W        W61015   2.081  41.344  14.424
92787W        W61016  15.258  18.289  12.900
92788W        W61017  18.584  22.977   3.537
92789W        W61018  17.657   6.425   2.818
92790W        W61019  39.431  10.663   0.745
92791W        W61020  28.070  17.381   3.197
92792W        W61021  24.177   1.915   3.711
92793W        W61022  31.616  10.232  10.322
92794W        W61023  25.083  41.298  11.959
92795W        W61024  32.548   5.082  11.475
92796W        W61025   1.920  33.382  12.610
92797W        W61026  15.556  24.030  13.443
92798W        W61027  39.838  35.170   2.411
92799W        W61028  29.884  20.255  13.764
92800W        W61029  25.330  10.624  11.570
92801W        W61030  20.033  23.312  13.291
92802W        W61031  35.920   5.374   1.046
92803W        W61032  11.872  24.904   2.929
92804W        W61033  23.456  20.893   1.522
92805W        W61034  11.570  39.225  13.170
92806W        W61035  10.646   0.759  12.668
92807W        W61036  31.113  37.055   1.651
92808W        W61037  35.975  23.687   0.915
92809W        W61038  10.063   9.744  14.867
92810W        W61039   6.422  42.614   3.681
92811W        W61040  25.233  29.930   3.694
92812W        W61041  24.466   2.234  10.447
92813W        W61042   0.339   6.882   0.410
92814W        W61043  41.657  23.136   3.941
92815W        W61044  39.927  23.724   4.747
92816W        W61045  34.425   8.742   3.425
92817W        W61046  29.522   6.650   2.402
92818W        W61047  11.707  36.857   3.689
92819W        W61048  40.018   0.324  14.776
92820W        W61049   9.805  21.281  13.447
92821W        W61050  38.281  13.511   3.698
92822W        W61051  31.990  36.284   2.229
92823W        W61052  28.190  32.840  12.913
92824W        W61053  33.814   9.772  13.058
92825W        W61054  39.126  12.374   2.279
92826W        W61055  42.683  10.357  10.660
92827W        W61056  29.855   8.898   3.158
92828W        W61057  36.989  36.678  13.568
92829W        W61058  22.190  12.178   9.714
92830W        W61059  24.653   3.810  12.923
92831W        W61060  18.488  11.817  12.045
92832W        W61061  34.431  21.736  11.970
92833W        W61062  24.889  31.061   1.344
92834W        W61063  31.082  41.110  10.955
92835W        W61064  37.327  15.474   3.329
92836W        W61065  14.098  24.166   3.382
92837W        W61066  10.426  39.298  10.830
92838W        W61067  32.981  19.669   3.204
92839W        W61068  29.166   3.021   1.675
92840W        W61069  28.179  25.024   5.010
92841W        W61070  39.429  25.705   1.029
92842W        W61071  13.595  13.548   0.736
92843W        W61072  43.264  33.039   3.107
92844W        W61073  16.558  21.239   5.025
92845W        W61074   7.848   8.977  13.535
92846W        W61075   2.041   7.083  13.398
92847W        W61076  16.077  10.839   1.970
92848W        W61077  39.034  36.271   4.137
92849W        W61078  38.532  13.052   3.703
92850W        W61079  41.584  15.975   1.964
92851W        W61080   1.888  14.821   1.667
92852W        W61081  30.824  16.309   3.941
92853W        W61082  10.829  21.702   2.747
92854W        W61083  20.111  20.708   0.249
92855W        W61084  40.651   8.112   0.482
92856W        W61085   9.340  18.807   4.597
92857W        W61086  12.384  32.799  11.756
92858W        W61087  24.600   6.327   2.374
92859W        W61088  40.062  43.555   0.022
92860W        W61089  37.833  19.232   1.282
92861W        W61090  10.109   4.318  10.722
92862W        W61091  15.693  21.268   3.960
92863W        W61092  18.842  37.206   0.557
92864W        W61093   2.920  19.072   0.889
92865W        W61094   8.840  12.901   2.308
92866W        W61095  19.736  24.221  10.960
92867W        W61096  38.897  44.514   3.689
92868W        W61097   6.223  22.898  14.941
92869W        W61098  38.060  19.314  14.225
92870W        W61099  43.279  43.814   2.329
92871W        W61100  42.790  23.545  13.861
92872W        W61101  42.442   1.496   3.291
92873W        W61102   3.212  39.540   0.716
92874W        W61103  40.540   1.806   4.714
92875W        W61104   4.197  16.853  12.484
92876W        W61105  40.387  20.092  11.460
92877W        W61106  32.923   6.275   1.518
92878W        W61107   0.978  13.835   1.820
92879W        W61108  12.087  18.461  14.880
92880W        W61109  38.529  21.694   2.332
92881W        W61110  19.065   3.183  11.440
92882W        W61111  21.364   3.521   4.039
92883W        W61112  12.380  35.853   0.477
92884W        W61113  41.494  27.194   0.837
92885W        W61114   7.399   0.888   2.943
92886W        W61115  18.772   6.348  11.965
92887W        W61116  36.855  38.286   4.138
92888W        W61117  35.106  44.807  11.918
92889W        W61118  33.070  13.558  14.094
92890W        W61119  24.253  26.953  11.175
92891W        W61120  22.658  27.477  14.891
92892W        W61121   6.433   6.839  10.677
92893W        W61122  44.116  18.945   5.130
92894W        W61123  23.373  17.548  12.049
92895W        W61124  30.555  10.304   0.489
92896W        W61125   0.889  21.996  13.115
92897W        W61126  30.116  12.533   2.834
92898W        W61127  20.621  39.267   1.839
92899W        W61128  11.179  31.890  14.847
92900W        W61129  40.164  41.451  12.231
92901W        W61130   0.193  24.907   2.668
92902W        W61131  15.205   1.468   0.290
92903W        W61132   1.412  30.164   1.885
92904W        W61133  13.712   4.214   3.586
92905W        W61134   1.905  29.877  12.048
92906W        W61135  22.323   9.024   0.790
92907W        W61136  30.155  31.390  11.938
92908W        W61137  33.264   1.410  12.479
92909W        W61138  20.285   0.332  14.453
92910W        W61139  38.096  21.906   0.288
92911W        W61140  22.771   7.759   4.110
92912W        W61141   9.264   5.706   0.953
92913W        W61142   4.403  34.552   5.015
92914W        W61143  20.705   5.461  13.561
92915W        W61144  42.519  40.533  11.676
92916W        W61145  35.963  32.986  13.458
92917W        W61146  43.185  14.393   4.165
92918W        W61147  10.601   2.514   3.840
92919W        W61148   9.267  30.163  10.415
92920W        W61149  33.594  22.522   3.642
92921W        W61150  32.013  16.726  11.174
92922W        W61151  32.474  10.979  13.992
92923W        W61152  12.043  36.590   0.780
92924W        W61153  33.646  29.384   3.121
92925W        W61154  10.505  19.534   4.076
92926W        W61155  35.851  22.379   3.841
92927W        W61156   4.975  38.292  12.155
92928W        W61157  28.465  37.473   4.311
92929W        W61158   2.538   5.959  11.605
92930W        W61159  27.083  31.605  12.563
92931W        W61160  32.425  30.303   3.892
92932W        W61161  32.611  28.231  12.133
92933W        W61162  35.881  34.595   0.825
92934W        W61163  32.145   6.774   3.453
92935W        W61164   6.868  24.279  14.535
92936W        W61165   3.235  40.367   3.876
92937W        W61166  18.172  14.452  11.981
92938W        W61167  15.168  36.002   1.321
92939W        W61168  35.532  20.779   2.245
92940W        W61169  11.436  39.009   2.250
92941W        W61170  28.161  10.399  14.195
92942W        W61171  19.220  16.625  14.348
92943W        W61172  23.099  15.870  10.693
92944W        W61173  31.879  15.288   0.920
92945W        W61174  33.479   1.857  10.688
92946W        W61175  39.897  40.475  14.211
92947W        W61176  12.830  17.696  11.666
92948W        W61177  21.542  42.818   2.837
92949W        W61178  39.011  21.042   1.739
92950W        W61179   1.233  11.680   3.245
92951W        W61180  22.994  35.683  13.366
92952W        W61181  10.276   0.481  12.896
92953W        W61182   6.758  31.669  10.770
92954W        W61183  20.068   5.885   0.678
92955W        W61184  24.876   9.743  13.456
92956W        W61185  35.348  42.156  12.518
92957W        W61186  26.036  28.184   1.797
92958W        W61187  42.198  17.678   3.501
92959W        W61188  33.186  26.715   0.257
92960W        W61189  18.290  44.397   2.596
92961W        W61190  33.602  20.275  12.338
92962W        W61191   8.951  27.004  14.600
92963W        W61192  12.652  16.152  13.506
92964W        W61193  17.511   2.858   1.033
92965W        W61194   3.783   7.699   2.897
92966W        W61195  30.712  24.008  11.996
92967W        W61196  10.354  14.666  13.829
92968W        W61197  35.596   1.990  14.395
92969W        W61198  19.812  41.538   1.237
92970W        W61199  40.847  27.039   4.559
92971W        W61200  43.068  29.670   3.268
92972W        W61201   1.273  12.366   0.092
92973W        W61202  10.592   5.670   1.672
92974W        W61203  14.342   2.528   4.516
92975W        W61204  20.635  37.367   1.647
92976W        W61205  20.403  27.619   0.750
92977W        W61206  41.474  27.061  14.372
92978W        W61207  23.069  28.622  11.664
92979W        W61208  23.199   8.732   3.625
92980W        W61209  37.575  29.195   2.822
92981W        W61210  42.842  36.886   1.613
92982W        W61211   3.371  29.218  11.024
92983W        W61212  17.936  29.865   9.449
92984W        W61213   7.976  38.285   3.253
92985W        W61214  31.312  11.487   4.619
92986W        W61215  27.203  15.557  13.546
92987W        W61216   3.567  25.052   1.696
92988W        W61217  38.349  44.699   1.385
92989W        W61218  41.508  42.046   4.286
92990W        W61219  19.057  17.247  13.704
92991W        W61220  17.530  37.131   0.469
92992W        W61221  29.317  14.348   2.392
92993W        W61222   1.423  26.725   4.350
92994W        W61223   1.989   0.420   3.563
92995W        W61224  35.907  20.763  12.539
92996W        W61225   2.020  23.638  11.519
92997W        W61226  38.394  33.100  10.295
92998W        W61227  13.677  41.394  11.054
92999W        W61228   4.412  42.324   2.273
93000W        W61229  14.896   5.238   2.816
93001W        W61230  37.527  28.994   2.272
93002W        W61231  27.493  15.251   2.477
93003W        W61232   2.442  35.016  12.799
93004W        W61233  11.380  38.639  12.021
93005W        W61234   9.421   6.806   2.353
93006W        W61235  15.856  14.375   0.832
93007W        W61236  16.618  10.780   1.139
93008W        W61237   3.891  11.094   0.272
93009W        W61238  22.697   8.771  12.724
93010W        W61239  42.192  32.417   0.388
93011W        W61240  37.172   1.698   0.325
93012W        W61241  42.983  15.687  11.167
93013W        W61242   7.852   1.209   0.313
93014W        W61243   1.765  39.326  13.997
93015W        W61244  18.034  12.790   0.336
93016W        W61245  22.446  10.542  14.267
93017W        W61246   7.176  32.001   0.769
93018W        W61247   8.169  36.909  14.752
93019W        W61248  39.349  12.845   2.578
93020W        W61249  11.694  25.705   0.449
93021W        W61250  35.225   3.767  11.589
93022W        W61251  34.115  29.498  11.341
93023W        W61252   9.298  12.364   1.709
93024W        W61253  23.298  34.455  12.059
93025W        W61254  34.010  31.123  12.109
93026W        W61255  38.386  21.237  11.033
93027W        W61256   0.328  30.219  12.462
93028W        W61257  23.808  28.566  10.483
93029W        W61258  38.170  16.431  12.140
93030W        W61259  26.738  13.196  13.346
93031W        W61260  26.626  40.336   4.626
93032W        W61261   5.719  22.151  12.001
93033W        W61262   4.347  31.841   4.529
93034W        W61263  10.147  28.106  12.304
93035W        W61264  41.284   6.085  14.703
93036W        W61265  44.908  17.429   0.002
93037W        W61266  19.963  11.147  13.513
93038W        W61267  38.419   2.185  11.111
93039W        W61268  41.702  12.131   4.221
93040W        W61269  13.645   6.225   2.290
93041W        W61270   4.212  16.738  14.768
93042W        W61271  39.269  11.721  12.770
93043W        W61272  28.613  27.713  13.351
93044W        W61273  40.866  33.644  13.182
93045W        W61274  16.087  17.043  14.357
93046W        W61275   5.185  24.134   4.600
93047W        W61276   4.997   5.132   1.155
93048W        W61277  11.053   7.958   3.582
93049W        W61278  24.605  34.362   3.886
93050W        W61279  17.292  31.460   5.099
93051W        W61280  12.314  22.720   1.734
93052W        W61281  15.535  25.226  10.370
93053W        W61282  29.937  33.401  14.506
93054W        W61283  24.014  37.635  13.348
93055W        W61284  28.551  34.389  10.247
93056W        W61285  39.503  10.904  11.928
93057W        W61286  32.186  10.248  12.242
93058W        W61287   0.200  34.622  13.446
93059W        W61288  40.329  22.014   2.257
93060W        W61289  13.608  15.505  10.674
93061W        W61290  16.426  37.816   5.079
93062W        W61291  19.751  26.959  13.513
93063W        W61292  21.206   6.004   3.695
93064W        W61293   2.335   2.646   1.676
93065W        W61294  32.489   1.743  13.718
93066W        W61295  36.840   7.395   2.318
93067W        W61296  20.568  28.960   4.596
93068W        W61297  10.317  34.545  10.534
93069W        W61298  17.610  32.382   0.734
93070W        W61299  11.679  28.619   4.377
93071W        W61300  12.332  35.307   2.325
93072W        W61301   8.714  33.154   0.477
93073W        W61302  21.773   3.959   4.741
93074W        W61303  18.442  41.193  10.234
93075W        W61304  23.314  32.123  13.951
93076W        W61305  12.716  16.715  13.581
93077W        W61306  36.009   3.648  10.539
93078W        W61307  17.315  30.149  13.885
93079W        W61308  30.461  25.731  11.158
93080W        W61309  30.178  39.557   4.131
93081W        W61310   0.446  37.452   4.720
93082W        W61311  10.201   5.635   4.938
93083W        W61312  40.787  25.464   4.667
93084W        W61313  11.678  20.422  13.050
93085W        W61314  16.590  33.510   9.874
93086W        W61315   4.872  39.049   0.780
93087W        W61316   2.307   2.162   1.914
93088W        W61317  11.474  43.966  13.591
93089W        W61318   8.230  21.956   4.847
93090W        W61319  22.599  30.739   3.298
93091W        W61320  28.081   9.365   1.970
93092W        W61321  18.306  35.982  11.240
93093W        W61322  44.011  42.393   2.762
93094W        W61323  40.799  26.664   0.935
93095W        W61324  21.096  41.220   1.397
93096W        W61325   8.313  16.050  14.467
93097W        W61326  34.393  32.581   3.189
93098W        W61327  22.218  35.822   2.341
93099W        W61328  35.514  33.006  11.632
93100W        W61329  21.014  35.139   5.079
93101W        W61330  19.150  35.472  10.720
93102W        W61331  22.988  17.338   3.622
93103W        W61332   9.026  41.077   1.203
93104W        W61333  32.920   5.909   4.513
93105W        W61334  15.573  13.140   5.002
93106W        W61335  34.986   5.898   4.076
93107W        W61336  42.893  15.029  14.168
93108W        W61337  13.193   8.364   0.210
93109W        W61338   7.968  15.743   4.775
93110W        W61339  29.805   3.533   4.049
93111W        W61340  40.066   0.395   4.007
93112W        W61341   6.405  38.436  10.732
93113W        W61342   5.285   9.753   1.161
93114W        W61343  23.271  33.314  12.005
93115W        W61344  27.459   1.435   3.321
93116W        W61345   9.767  43.294   0.253
93117W        W61346   8.756  37.620  13.299
93118W        W61347  25.632  39.370   1.661
93119W        W61348  35.398  44.449  12.163
93120W        W61349  32.140  33.122   3.261
93121W        W61350  30.217  24.181  12.885
93122W        W61351  29.085  43.519  11.301
93123W        W61352  20.986  10.473   3.206
93124W        W61353  23.028  44.424   1.049
93125W        W61354   5.355  33.941  13.553
93126W        W61355  15.594  34.153   4.586
93127W        W61356  15.318  36.138   4.585
93128W        W61357  14.795  35.882  12.124
93129W        W61358  34.640  21.395   3.852
93130W        W61359  31.900  38.577  11.666
93131W        W61360  42.861  44.726  12.384
93132W        W61361   6.741  31.067   1.043
93133W        W61362  24.945  11.820   1.591
93134W        W61363  33.915  29.187   1.826
93135W        W61364   6.546  13.246   0.519
93136W        W61365   0.455  12.654  11.928
93137W        W61366  25.531   5.685  12.286
93138W        W61367  18.346  29.120   3.253
93139W        W61368  12.825  39.603   2.328
93140W        W61369  24.959  43.427   3.206
93141W        W61370  29.500  26.134   3.660
93142W        W61371   8.385  31.976   0.078
93143W        W61372  22.962  27.887   4.643
93144W        W61373  31.950  21.283  14.716
93145W        W61374  32.218  28.397   2.293
93146W        W61375  30.604  36.672  13.372
93147W        W61376  19.627  33.982   0.369
93148W        W61377  33.173  37.607  14.510
93149W        W61378  36.381  38.404   2.670
93150W        W61379  12.961   5.341  11.609
93151W        W61380   5.826  36.921   3.154
93152W        W61381  43.297   8.679   1.181
93153W        W61382  16.298  38.594  12.518
93154W        W61383  40.983   9.355   0.931
93155W        W61384  10.914   3.785   3.173
93156W        W61385  37.812   3.872  12.887
93157W        W61386   1.841  36.470   3.994
93158W        W61387  39.679   3.175   4.719
93159W        W61388  41.857  35.599  13.534
93160W        W61389  31.857  24.538  10.908
93161W        W61390  15.500  34.779   2.335
93162W        W61391   3.079  18.290   2.016
93163W        W61392  32.405  21.977   2.032
93164W        W61393  26.211  44.261   1.796
93165W        W61394  25.161  44.817   2.264
93166W        W61395  29.850  16.569  10.653
93167W        W61396   2.541  11.795  14.327
93168W        W61397  30.830   1.651  11.983
93169W        W61398  20.100  23.616   1.414
93170W        W61399  40.608  26.811   3.740
93171W        W61400  15.087  12.647  12.918
93172W        W61401  29.571  32.017  10.738
93173W        W61402  42.891  18.546  12.638
93174W        W61403  30.607  35.001  10.801
93175W        W61404  42.042  17.578  13.264
93176W        W61405  33.870  28.573  10.752
93177W        W61406  43.886  12.157   0.477
93178W        W61407   9.249  11.035  11.169
93179W        W61408  29.877  36.037   1.040
93180W        W61409   9.119   7.978  14.468
93181W        W61410   6.884  36.360   1.301
93182W        W61411  42.037  17.053   0.963
93183W        W61412   9.894   4.220   1.535
93184W        W61413  29.685  13.203  11.144
93185W        W61414  20.553  37.070  14.409
93186W        W61415  29.715  30.439  11.316
93187W        W61416  32.659  16.426   3.083
93188W        W61417   4.113   5.363  14.364
93189W        W61418  37.071  26.282   4.182
93190W        W61419  34.085  18.655  13.946
93191W        W61420  40.035  14.902  12.061
93192W        W61421  38.540   7.146   3.195
93193W        W61422  14.677  30.396   2.078
93194W        W61423  33.790  21.103   2.701
93195W        W61424  34.040   5.766   1.217
93196W        W61425  43.786  28.488   1.400
93197W        W61426  11.213  25.879   4.151
93198W        W61427  31.452  43.185   0.906
93199W        W61428  19.702   3.354  13.101
93200W        W61429   2.417  35.556  13.038
93201W        W61430  15.402  13.666   4.345
93202W        W61431   8.304  33.798  13.414
93203W        W61432  26.699  19.122  12.129
93204W        W61433  39.423   8.661   4.787
93205W        W61434  18.591  28.410   0.949
93206W        W61435   2.137  28.154   2.412
93207W        W61436  12.831  17.651  13.574
93208W        W61437   1.866  10.209  12.957
93209W        W61438   9.460  23.301  13.816
93210W        W61439  33.169  25.559   3.283
93211W        W61440  30.361  20.102   2.309
93212W        W61441  19.859  21.603   4.622
93213W        W61442   5.392  14.235   4.526
93214W        W61443  28.076  19.347   5.082
93215W        W61444  29.531  42.803   1.753
93216W        W61445  27.878   9.712   0.290
93217W        W61446  24.101  29.572  10.157
93218W        W61447  18.642   9.839  14.599
93219W        W61448  18.760  21.565   1.767
93220W        W61449  26.197  42.114   2.333
93221W        W61450  19.846  29.460   2.766
93222W        W61451  16.197  28.198   3.386
93223W        W61452  10.955  22.182  11.056
93224W        W61453   0.826   1.326  14.257
93225W        W61454  42.925  40.892   0.395
93226W        W61455  20.271  38.998  14.484
93227W        W61456   7.041  39.579  13.548
93228W        W61457  30.581  10.875   1.321
93229W        W61458  32.700  11.267   1.021
93230W        W61459  32.482  18.996  12.370
93231W        W61460  24.966   0.683   2.309
93232W        W61461  11.894  19.697  11.851
93233W        W61462  25.441  11.753  14.353
93234W        W61463  23.735  15.773   0.322
93235W        W61464   7.831  32.899   4.590
93236W        W61465  11.243  14.359   4.956
93237W        W61466  42.173   7.828   3.284
93238W        W61467   9.958   8.179   0.218
93239W        W61468  36.894  12.363   1.762
93240W        W61469  21.075  17.355  14.769
93241W        W61470  21.129  40.262   4.083
93242W        W61471  15.228  10.421  11.651
93243W        W61472   7.627  26.541   1.791
93244W        W61473  21.495   8.774   0.204
93245W        W61474   9.780   6.728  14.502
93246W        W61475  32.511   2.028  12.396
93247W        W61476  10.282   0.899  11.961
93248W        W61477  18.892   6.712   3.647
93249W        W61478   9.925  12.573   0.325
93250W        W61479  24.202  12.225  12.873
93251W        W61480  16.610  34.593  14.230
93252W        W61481  20.672  26.149  10.266
93253W        W61482  23.533   8.606   3.983
93254W        W61483  44.544   5.876  10.303
93255W        W61484  39.286  37.400  12.558
93256W        W61485  43.339  21.036   4.168
93257W        W61486  11.335   8.260  11.479
93258W        W61487  31.329  44.400  12.921
93259W        W61488  16.730  41.061  10.999
93260W        W61489  11.291  19.249  13.955
93261W        W61490  39.726  44.408  13.525
93262W        W61491  25.749  31.047  13.091
93263W        W61492  44.386  10.562  11.022
93264W        W61493   5.176  11.298   4.142
93265W        W61494  34.772  12.735  13.040
93266W        W61495  39.836  16.657  10.730
93267W        W61496   0.653  17.843  12.082
93268W        W61497  20.479   1.198   1.929
93269W        W61498  12.218   8.610   2.710
93270W        W61499  17.786  36.557  14.385
93271W        W61500   0.937  11.647  13.384
93272W        W61501  25.215  26.972   4.715
93273W        W61502   1.588   1.044   4.105
93274W        W61503   7.733  17.841   1.735
93275W        W61504  23.665   9.153   4.633
93276W        W61505   6.657   3.304   1.576
93277W        W61506  28.966  30.985   1.364
93278W        W61507  34.914  30.644  14.404
93279W        W61508  19.522  17.061  14.362
93280W        W61509  22.420  12.884  14.888
93281W        W61510  16.563  33.933  11.616
93282W        W61511  38.932   9.549   4.839
93283W        W61512  16.573   5.153   0.910
93284W        W61513  40.562  22.291   1.258
93285W        W61514  42.257  17.340   1.326
93286W        W61515  18.333  11.365  14.826
93287W        W61516  15.798  27.952  11.922
93288W        W61517  14.131   4.725   4.184
93289W        W61518  20.212  43.054   4.523
93290W        W61519   1.387  29.298   4.187
93291W        W61520  31.813  44.223  12.852
93292W        W61521  10.936  14.268  13.487
93293W        W61522  20.714  23.234  11.542
93294W        W61523  41.865  13.329   2.974
93295W        W61524   3.412   2.711  14.226
93296W        W61525  27.069  25.059   4.082
93297W        W61526  22.040  14.550   4.462
93298W        W61527   8.675  15.578   0.875
93299W        W61528  17.764  25.568   3.191
93300W        W61529  20.072  12.333   4.170
93301W        W61530  27.243  30.875  12.864
93302W        W61531   9.153  21.965  10.730
93303W        W61532  10.763  42.601   1.882
93304W        W61533  15.249  21.222   4.708
93305W        W61534  21.149  27.506  13.057
93306W        W61535  30.351   6.763   3.131
93307W        W61536   0.909   8.021  11.527
93308W        W61537  37.464  27.546   2.454
93309W        W61538  18.581  12.601   2.288
93310W        W61539  31.946  20.975  13.522
93311W        W61540  14.377   1.973   1.102
93312W        W61541   1.988  28.065   4.976
93313W        W61542  40.217  35.983  11.245
93314W        W61543  41.897  27.655   4.559
93315W        W61544  15.749  27.201   2.215
93316W        W61545  20.644   7.663  11.687
93317W        W61546  30.194  25.685  13.876
93318W        W61547   0.016  26.688  11.014
93319W        W61548  35.471   7.476   2.672
93320W        W61549   8.873  36.028   2.361
93321W        W61550  22.599  21.601  13.200
93322W        W61551  33.909   2.325  11.445
93323W        W61552  23.085  37.977   1.784
93324W        W61553  10.125  44.326   3.633
93325W        W61554   2.609  20.251   1.199
93326W        W61555  24.681  16.862   4.012
93327W        W61556  15.014  32.523   0.286
93328W        W61557  13.344   5.903   2.009
93329W        W61558  38.602   7.272  14.909
93330W        W61559  27.448  40.432  10.860
93331W        W61560  18.822  34.748   9.851
93332W        W61561   0.793  20.791   1.284
93333W        W61562  42.058  34.362  11.254
93334W        W61563   3.955  42.469  11.300
93335W        W61564   4.795  38.545   2.075
93336W        W61565  28.601  39.185   4.035
93337W        W61566   3.816  23.500  11.874
93338W        W61567  26.556  12.652   3.292
93339W        W61568  40.319  35.515   3.852
93340W        W61569   1.789  19.490  13.874
93341W        W61570  34.295   0.436   1.810
93342W        W61571  21.782  40.950  14.417
93343W        W61572   1.458  17.620   2.676
93344W        W61573  12.374  35.470  13.990
93345W        W61574   1.656  24.896   3.127
93346W        W61575  42.347  31.737  13.901
93347W        W61576  28.175  25.274  13.531
93348W        W61577  22.547  30.269   2.400
93349W        W61578   5.133   4.784  13.127
93350W        W61579  44.094  24.947  14.553
93351W        W61580  36.423  12.771   3.417
93352W        W61581  44.455   8.275   0.305
93353W        W61582  18.020  34.092  12.870
93354W        W61583  25.503  16.674  13.533
93355W        W61584  34.798  18.070   2.872
93356W        W61585  35.185  25.050  11.974
93357W        W61586   6.881  43.053   1.013
93358W        W61587  13.814   7.126   2.058
93359W        W61588   1.781  24.205   3.744
93360W        W61589   7.742  34.121  12.211
93361W        W61590  29.223  26.027  10.582
93362W        W61591  43.909  37.577  13.005
93363W        W61592  29.486   1.711  11.385
93364W        W61593  33.050  38.184  11.588
93365W        W61594  24.161  41.822   3.252
93366W        W61595   9.322  34.579   1.741
93367W        W61596  25.225  32.169   2.688
93368W        W61597  23.570  39.406  13.444
93369W        W61598  20.085  43.252   3.562
93370W        W61599  40.447   3.624   0.888
93371W        W61600  34.498  25.024   1.140
93372W        W61601  35.821   5.360  14.106
93373W        W61602  26.541  32.632   3.733
93374W        W61603  12.217  28.337   1.741
93375W        W61604  41.728   7.929  14.868
93376W        W61605   4.292  20.537   2.188
93377W        W61606  34.381  36.835   0.085
93378W        W61607  29.436  36.061  12.479
93379W        W61608   7.729  27.553  14.564
93380W        W61609  35.619   6.730  10.231
93381W        W61610  12.859  32.317  10.756
93382W        W61611  29.703   2.983   1.325
93383W        W61612  10.236  37.927  10.763
93384W        W61613  10.691   6.303   3.444
93385W        W61614   9.767  36.475   1.353
93386W        W61615  17.790  22.491   0.440
93387W        W61616  35.508  18.491   9.970
93388W        W61617  28.591   3.122  12.992
93389W        W61618  31.162  33.341   4.903
93390W        W61619  11.388  19.718  11.841
93391W        W61620   2.877  37.895   4.666
93392W        W61621  21.467  36.146   4.555
93393W        W61622  25.029  38.534  14.428
93394W        W61623   3.851   8.208   2.793
93395W        W61624  23.244  21.014  14.821
93396W        W61625  27.889  20.985   1.224
93397W        W61626   0.015   2.959   3.040
93398W        W61627  30.819  12.814  14.004
93399W        W61628  18.401  11.300   2.883
93400W        W61629  34.417   9.266   0.995
93401W        W61630  26.987  13.289   1.844
93402W        W61631   5.338  20.709   1.728
93403W        W61632   6.119  28.539   2.742
93404W        W61633   8.970   8.117   1.208
93405W        W61634  41.158  37.213   5.206
93406W        W61635   1.799   2.925   0.491
93407W        W61636  35.570  35.674  13.752
93408W        W61637  38.850  32.652  11.703
93409W        W61638   3.120  39.360   2.181
93410W        W61639   6.854  21.068   1.818
93411W        W61640  14.297  24.029  11.955
93412W        W61641   2.216   6.799  14.036
93413W        W61642  12.921  39.408  14.710
93414W        W61643  39.086  14.587   3.116
93415W        W61644  10.370  20.400  13.252
93416W        W61645  34.842  19.138   1.301
93417W        W61646  28.895  41.212   3.314
93418W        W61647   5.793  16.327  12.676
93419W        W61648   1.043  44.456   1.304
93420W        W61649  26.819  11.652  10.272
93421W        W61650   6.937  25.185  14.737
93422W        W61651  36.647  33.896   0.720
93423W        W61652  15.223  36.503  12.630
93424W        W61653   3.414  22.622  11.255
93425W        W61654   9.802  10.354   3.181
93426W        W61655  20.782  43.067  14.435
93427W        W61656  16.334  32.640   0.417
93428W        W61657   0.866  18.110   3.838
93429W        W61658  21.581  17.584  14.068
93430W        W61659   0.427  37.527   0.299
93431W        W61660   7.639  20.732   2.143
93432W        W61661  33.619   9.566   2.355
93433W        W61662  12.793  13.746  12.475
93434W        W61663   3.616  37.334  11.068
93435W        W61664  27.195  29.215   1.012
93436W        W61665  35.440  24.317  14.785
93437W        W61666  28.480  26.574   3.120
93438W        W61667   7.116  25.612   2.935
93439W        W61668  20.252  30.346   0.786
93440W        W61669  16.149  25.946  13.225
93441W        W61670  17.588   1.821   4.575
93442W        W61671  30.931   2.502   3.885
93443W        W61672  14.277  27.597  14.487
93444W        W61673  16.840  13.228  13.825
93445W        W61674  24.129  33.583  11.216
93446W        W61675   0.488  25.593   4.108
93447W        W61676  21.115  31.644  14.241
93448W        W61677  34.451  10.201  14.702
93449W        W61678  30.459  22.459  13.455
93450W        W61679   0.210   5.659  12.497
93451W        W61680  14.664  29.236   1.211
93452W        W61681   5.580  40.820  14.895
93453W        W61682   8.949   3.486   1.186
93454W        W61683  30.615   6.624  11.996
93455W        W61684  10.307  24.939   0.737
93456W        W61685  30.998  42.437   1.332
93457W        W61686  17.192  32.699   2.788
93458W        W61687  29.128  35.186   2.705
93459W        W61688  25.388  12.145   1.715
93460W        W61689  38.377  21.637  11.856
93461W        W61690   3.633  29.149   0.367
93462W        W61691  18.199  12.082   2.661
93463W        W61692  18.761  17.651   2.728
93464W        W61693  20.237  15.685  11.292
93465W        W61694  41.853  16.245   1.029
93466W        W61695  20.768  23.458  14.866
93467W        W61696  36.051  13.866   1.254
93468W        W61697  15.267  33.515   3.094
93469W        W61698  16.359  32.482   2.546
93470W        W61699  30.663  40.632   4.623
93471W        W61700  30.575  14.349   4.745
93472W        W61701   6.515  32.080   2.170
93473W        W61702  30.589  22.079   3.289
93474W        W61703  39.868  36.425   0.301
93475W        W61704  36.554  37.021  11.310
93476W        W61705  40.995  24.431   0.893
93477W        W61706  19.175  27.407   1.345
93478W        W61707  41.916  13.064   2.273
93479W        W61708  25.728  20.813  12.378
93480W        W61709  40.892  21.028   3.572
93481W        W61710  16.197  12.559   2.079
93482W        W61711  10.880  10.058   0.329
93483W        W61712  28.076  34.082  10.527
93484W        W61713  30.793   7.394   1.293
93485W        W61714  38.113  34.312  13.521
93486W        W61715  36.239  30.534  11.118
93487W        W61716  31.343  24.435  13.590
93488W        W61717  17.090   6.703   0.405
93489W        W61718   7.286  43.309   4.117
93490W        W61719  37.530   0.475  14.992
93491W        W61720  42.256  15.571  12.926
93492W        W61721  16.779   1.505   1.838
93493W        W61722  43.997   3.443   1.724
93494W        W61723  31.443  11.286  14.945
93495W        W61724   4.442   5.235   0.781
93496W        W61725  40.560  36.774   2.301
93497W        W61726  37.996  25.715  13.832
93498W        W61727  33.497  35.926  13.057
93499W        W61728  17.492  16.711  14.803
93500W        W61729  18.828  14.621   3.383
93501W        W61730  37.073  13.845   3.534
93502W        W61731   7.710  25.717   4.621
93503W        W61732  39.102  22.606   3.133
93504W        W61733  28.632  15.010   2.466
93505W        W61734  44.292  12.778   4.674
93506W        W61735  43.556   1.892   1.412
93507W        W61736  24.453  39.966   4.157
93508W        W61737  26.893   8.394  11.858
93509W        W61738  30.088  27.950   4.363
93510W        W61739  17.064  42.372   2.993
93511W        W61740  41.906  31.042   4.628
93512W        W61741  26.440  41.563   4.623
93513W        W61742  31.231  12.779  10.850
93514W        W61743  35.177  43.980   4.812
93515W        W61744   9.899  24.292  12.046
93516W        W61745  26.310   5.278   4.670
93517W        W61746   8.238  13.328  11.566
93518W        W61747   1.436  31.038  14.717
93519W        W61748  40.515  28.594   3.694
93520W        W61749  13.666  44.441   0.907
93521W        W61750  38.790  11.340  10.183
93522W        W61751  14.507  25.196  10.262
93523W        W61752   4.361  39.054   1.401
93524W        W61753   6.628  13.663   2.704
93525W        W61754  20.667  12.766  10.614
93526W        W61755  18.588  15.759   4.588
93527W        W61756  30.648  40.460  10.777
93528W        W61757  36.912   9.359   2.291
93529W        W61758  17.147   0.022   0.397
93530W        W61759   5.946   3.525   3.165
93531W        W61760   0.401  14.364  13.835
93532W        W61761   6.952  29.540   0.463
93533W        W61762  21.942  15.444   4.507
93534W        W61763  20.723  15.087   4.271
93535W        W61764  12.237  10.150   1.899
93536W        W61765  18.118  40.808   2.198
93537W        W61766  17.083   4.911   2.329
93538W        W61767  27.820  16.041   4.082
93539W        W61768  35.483   2.466   0.134
93540W        W61769  14.074   3.751  14.481
93541W        W61770  29.003  25.439   3.868
93542W        W61771  31.709   5.741   1.464
93543W        W61772  37.590   2.803  12.138
93544W        W61773  42.950   1.379   4.033
93545W        W61774  38.123   6.350   2.781
93546W        W61775  11.387   8.707   1.327
93547W        W61776  16.725  24.492   1.886
93548W        W61777  30.060  15.948  14.652
93549W        W61778  23.631  30.204  12.048
93550W        W61779  18.788  38.905   1.817
93551W        W61780  13.505  13.939   3.329
93552W        W61781  44.532  15.121  12.561
93553W        W61782  14.697   5.854   4.558
93554W        W61783  31.849  24.081  10.580
93555W        W61784  44.719   1.887  11.142
93556W        W61785  28.709  43.884  12.560
93557W        W61786  40.838  32.191   3.275
93558W        W61787  40.886  40.827   3.754
93559W        W61788  32.320  22.567  11.958
93560W        W61789  38.000  43.741  14.739
93561W        W61790  23.601  24.752   4.188
93562W        W61791  41.054  25.540   1.334
93563W        W61792  41.738  34.335   1.239
93564W        W61793   3.543  18.422  11.627
93565W        W61794  18.840  25.802  12.571
93566W        W61795  12.714  20.222   1.228
93567W        W61796  23.179  14.957   0.272
93568W        W61797  37.956  12.183   2.636
93569W        W61798  17.849  32.759   2.244
93570W        W61799   0.788  21.134  12.058
93571W        W61800   0.952  38.105  10.686
93572W        W61801  14.908  23.630   4.618
93573W        W61802  13.522   7.273  10.507
93574W        W61803  43.252   7.978  11.590
93575W        W61804  37.516  25.057   2.556
93576W        W61805  42.051  27.787  12.946
93577W        W61806  33.015  13.087   1.200
93578W        W61807  16.281  40.274  13.958
93579W        W61808  16.129  26.253   2.088
93580W        W61809   2.994  17.288   1.224
93581W        W61810  32.551   6.148   2.681
93582W        W61811  13.304  38.639  14.452
93583W        W61812  22.697   4.882   0.352
93584W        W61813   1.954  36.212   0.724
93585W        W61814  35.432  37.154   3.469
93586W        W61815  22.479   0.888  10.747
93587W        W61816  32.817   9.137  12.441
93588W        W61817  43.860  23.141  12.887
93589W        W61818  17.617  42.417  11.594
93590W        W61819  30.883  44.973  14.861
93591W        W61820   0.396  30.674   1.615
93592W        W61821  32.004  44.037  11.636
93593W        W61822  22.686  22.314  10.534
93594W        W61823  28.499   8.845   2.640
93595W        W61824   1.014  38.937   3.134
93596W        W61825  33.003   1.864  10.410
93597W        W61826  21.796  19.901   0.390
93598W        W61827  10.490  34.101  14.039
93599W        W61828  41.595  10.619  12.332
93600W        W61829  38.317  41.408  12.913
93601W        W61830   7.919  40.132  13.431
93602W        W61831  26.778  30.465   2.904
93603W        W61832  14.189  28.791  14.503
93604W        W61833  33.541   0.972  14.976
93605W        W61834  25.684  14.229   2.840
93606W        W61835  22.750  31.392  11.524
93607W        W61836   3.447  14.686  13.912
93608W        W61837   4.204  40.789  10.695
93609W        W61838  22.713  29.060  11.145
93610W        W61839  35.985  29.506  12.164
93611W        W61840  24.085  38.454   1.199
93612W        W61841  30.604  10.702   2.766
93613W        W61842  19.649  23.714  11.106
93614W        W61843  27.580  13.891   1.162
93615W        W61844   1.328  21.779  10.616
93616W        W61845   1.455  37.043  13.368
93617W        W61846   9.824  35.109  14.411
93618W        W61847  13.105  42.993   0.435
93619W        W61848  16.124  29.380   2.842
93620W        W61849  33.654  27.209  12.964
93621W        W61850  24.525  21.909  13.671
93622W        W61851  34.087   1.417   3.779
93623W        W61852  28.098  30.185  11.072
93624W        W61853  19.287  24.786  11.510
93625W        W61854   1.463  19.404   3.575
93626W        W61855   4.773  16.386  14.913
93627W        W61856  25.047  39.306  13.354
93628W        W61857  27.512  25.736  10.661
93629W        W61858  14.165  38.792  11.917
93630W        W61859   8.667   6.680   4.094
93631W        W61860  14.103  23.664   9.885
93632W        W61861  14.315  10.667  13.808
93633W        W61862   2.492  20.778  11.971
93634W        W61863   9.784  37.127  12.596
93635W        W61864  10.220  25.293  12.788
93636W        W61865  23.299  26.453   1.301
93637W        W61866  36.411   3.844   3.782
93638W        W61867  15.738  16.769  14.043
93639W        W61868  14.838  15.453   1.272
93640W        W61869  13.621  14.255  12.937
93641W        W61870  11.434  38.953   4.494
93642W        W61871  18.218  32.351   2.300
93643W        W61872  39.016  16.849  10.319
93644W        W61873  17.238   4.818  11.021
93645W        W61874  20.637  34.531  13.371
93646W        W61875  19.479  21.620  13.687
93647W        W61876   7.268  22.645   3.539
93648W        W61877  20.462  36.422  14.454
93649W        W61878   6.408  28.091  11.570
93650W        W61879  43.746  31.319   3.335
93651W        W61880  29.005  30.164  12.356
93652W        W61881  25.218  15.102  14.681
93653W        W61882  34.045  39.879  12.355
93654W        W61883  19.141   3.169   1.529
93655W        W61884  21.527  30.677  11.077
93656W        W61885  29.874  12.356  13.645
93657W        W61886  19.207  11.903  12.541
93658W        W61887  13.245   0.426  11.076
93659W        W61888  13.657  31.969  11.088
93660W        W61889  14.870  25.835   5.079
93661W        W61890  33.804   0.045   3.420
93662W        W61891  16.354  15.701   4.084
93663W        W61892  29.902   2.255   3.934
93664W        W61893  13.832  36.851   2.691
93665W        W61894  30.147  37.985   2.711
93666W        W61895   6.349   8.610  13.541
93667W        W61896  41.536   0.905  10.028
93668W        W61897  42.776   7.324   2.881
93669W        W61898   9.240   5.079  13.373
93670W        W61899  39.419  25.280   4.997
93671W        W61900   4.838  33.372  10.537
93672W        W61901  30.482  14.108  12.521
93673W        W61902  23.665  23.226  13.794
93674W        W61903  29.498   6.145   2.331
93675W        W61904   5.096  42.008   3.277
93676W        W61905  29.742  30.048  13.014
93677W        W61906  30.156  32.463  14.581
93678W        W61907  12.611  28.490   2.134
93679W        W61908  12.142  20.161  11.439
93680W        W61909  10.071  22.199   4.358
93681W        W61910  14.267  28.919   1.359
93682W        W61911  21.647  42.076   1.930
93683W        W61912  14.346  36.364  10.813
93684W        W61913  44.950  13.159  11.518
93685W        W61914   0.401   4.380  13.808
93686W        W61915  10.308  41.564   1.214
93687W        W61916  11.828  22.704   3.621
93688W        W61917  36.070  24.163  13.190
93689W        W61918  12.257  35.931  12.113
93690W        W61919   7.365   8.904   0.192
93691W        W61920  16.076  31.391  10.988
93692W        W61921   2.326  36.653  12.023
93693W        W61922  37.499  11.386   2.658
93694W        W61923  42.313   9.952  12.018
93695W        W61924   7.161  44.106   1.274
93696W        W61925  21.153  21.809   3.569
93697W        W61926  42.985  21.706   4.504
93698W        W61927  13.111  39.560   4.059
93699W        W61928   7.729  36.341   4.798
93700W        W61929  23.262   9.319  10.696
93701W        W61930  26.157  37.526  10.998
93702W        W61931  24.438  20.753   2.298
93703W        W61932  38.369  34.177   3.222
93704W        W61933  37.632  37.549   2.001
93705W        W61934  30.852  37.132   3.730
93706W        W61935  18.206  13.734   3.659
93707W        W61936  36.724  13.751  14.279
93708W        W61937  28.932  32.623   3.061
93709W        W61938  20.764   2.359   3.425
93710W        W61939  13.098  27.636  13.450
93711W        W61940  12.743  11.313   3.863
93712W        W61941  29.411  39.928   1.795
93713W        W61942  37.845  17.222   0.218
93714W        W61943  10.689  20.605   3.138
93715W        W61944  26.688  30.517   3.772
93716W        W61945   8.854   2.922  12.398
93717W        W61946  15.403  16.683   4.094
93718W        W61947  42.113  34.999   2.391
93719W        W61948  33.484  39.139  14.147
93720W        W61949   8.168  29.297  14.772
93721W        W61950  22.454  44.997  14.849
93722W        W61951  28.189  32.526  11.562
93723W        W61952  31.775  41.636  13.375
93724W        W61953  19.521  24.716   1.696
93725W        W61954   0.942   2.738   3.794
93726W        W61955  43.337  43.580   0.696
93727W        W61956  14.294  13.234  13.866
93728W        W61957  22.127  27.691   2.368
93729W        W61958   9.687  12.531   5.006
93730W        W61959  32.834  18.386   0.915
93731W        W61960  37.471  44.923   1.392
93732W        W61961  36.705  32.141   2.241
93733W        W61962  14.030  42.894   3.939
93734W        W61963  41.239  38.412   3.074
93735W        W61964   7.063  43.447  10.361
93736W        W61965   0.799  39.902  14.570
93737W        W61966  40.489  40.487   0.452
93738W        W61967  17.318  39.076   4.884
93739W        W61968   3.237  40.979  14.971
93740W        W61969  37.529  13.739  11.779
93741W        W61970  13.718  27.572   0.169
93742W        W61971  31.977  44.068  11.120
93743W        W61972  38.986  34.558  13.426
93744W        W61973  23.457  13.513   4.787
93745W        W61974   6.378  14.783   2.796
93746W        W61975   3.160   9.336   0.860
93747W        W61976  16.202   7.784   3.309
93748W        W61977  11.631  35.308  12.433
93749W        W61978  14.580  12.670  13.917
93750W        W61979  19.465   9.935   3.828
93751W        W61980  14.498  18.979  13.006
93752W        W61981   8.856  33.278   5.165
93753W        W61982  21.748   6.681  11.159
93754W        W61983  37.796  37.990  12.006
93755W        W61984  37.934  11.568   0.416
93756W        W61985  40.802  23.446   0.822
93757W        W61986  17.240  40.345   2.235
93758W        W61987   6.829  36.346   0.371
93759W        W61988  28.535  10.533   1.662
93760W        W61989  40.839  13.383  14.067
93761W        W61990  43.759  20.867   2.045
93762W        W61991  28.618  31.604   0.309
93763W        W61992   1.434   2.280   1.756
93764W        W61993  35.581  36.561   4.160
93765W        W61994  26.940  24.712  11.149
93766W        W61995  42.836  42.691  12.502
93767W        W61996   3.683  44.994  12.440
93768W        W61997  15.170   1.504  11.410
93769W        W61998  30.667   5.764   0.307
93770W        W61999   7.694  16.133   0.294
93771W        W62000  22.385  12.249   4.517
93772W        W62001  31.270  41.496  10.125
93773W        W62002   8.328   6.074   2.804
93774W        W62003   3.115  42.533   2.930
93775W        W62004   3.484   1.295   3.282
93776W        W62005   5.260   2.490  12.572
93777W        W62006   7.940  32.897  13.131
93778W        W62007  32.630  10.845   3.745
93779W        W62008  17.953  42.573   0.771
93780W        W62009  41.603  36.614   1.011
93781W        W62010   7.877   3.451  10.985
93782W        W62011  36.517  44.405  11.136
93783W        W62012   9.810  23.016   0.357
93784W        W62013  25.240  31.071  11.196
93785W        W62014  19.027  20.493   0.166
93786W        W62015   8.150  19.569  11.222
93787W        W62016   5.264  29.226  14.283
93788W        W62017   5.414   6.660  14.428
93789W        W62018   7.848  16.317  13.640
93790W        W62019  31.459  28.188   4.852
93791W        W62020  39.355  27.022  11.645
93792W        W62021  29.200  20.335  14.977
93793W        W62022   8.599  26.873  10.252
93794W        W62023   2.868  42.433  12.390
93795W        W62024   6.965   4.765  10.861
93796W        W62025  11.210   1.468  11.421
93797W        W62026  16.905  25.498   3.763
93798W        W62027   2.700  23.504  13.169
93799W        W62028  38.871  25.165   0.956
93800W        W62029  39.498  36.070   3.729
93801W        W62030  30.061   4.249   0.265
93802W        W62031  30.608  34.997   2.767
93803W        W62032   9.890  42.539   1.918
93804W        W62033  23.682  18.160  12.610
93805W        W62034  10.860  31.469  14.927
93806W        W62035  20.152  30.406   1.612
93807W        W62036   6.466   6.504  12.540
93808W        W62037   7.442  31.813  14.547
93809W        W62038  43.006   8.067  14.537
93810W        W62039  17.129  37.467   2.236
93811W        W62040  34.839  28.444  14.367
93812W        W62041  17.087   0.971  14.959
93813W        W62042  15.894  18.590   0.398
93814W        W62043   2.756  14.143   3.194
93815W        W62044  15.655  24.336   0.513
93816W        W62045  15.677  24.239  14.345
93817W        W62046  44.820   1.130  11.577
93818W        W62047   7.867  42.906   4.139
93819W        W62048  19.336   2.281  11.272
93820W        W62049  44.538  40.749  13.523
93821W        W62050  35.968  31.843   4.446
93822W        W62051   7.372  19.042  14.344
93823W        W62052   4.700  23.648  12.274
93824W        W62053   5.754  41.044   3.407
93825W        W62054  29.127  31.858  13.388
93826W        W62055  30.800   1.913   2.624
93827W        W62056  41.580  24.028   4.039
93828W        W62057   4.410  32.890   2.103
93829W        W62058  26.633  39.362   3.164
93830W        W62059  41.220   1.631  11.956
93831W        W62060  20.224  24.537   3.708
93832W        W62061  25.251  34.195   0.315
93833W        W62062  19.664   3.384   1.301
93834W        W62063   0.217   7.220   3.785
93835W        W62064  29.634   4.418  13.476
93836W        W62065   1.528  37.650  14.006
93837W        W62066  23.682  17.546   1.242
93838W        W62067  17.068  42.382  13.429
93839W        W62068  42.546  10.825   1.164
93840W        W62069   5.353  20.442  10.740
93841W        W62070  39.508  36.424   3.337
93842W        W62071   4.954   3.794   3.308
93843W        W62072  19.323  36.419  10.727
93844W        W62073  37.335  29.196   3.267
93845W        W62074   4.425  16.747   2.265
93846W        W62075  23.377  25.626  13.084
93847W        W62076  23.067  17.798   2.878
93848W        W62077  24.910  25.110  14.582
93849W        W62078  34.385  10.741   3.977
93850W        W62079  40.098  37.830  13.520
93851W        W62080  30.438  21.152   0.758
93852W        W62081   2.521  17.715   4.200
93853W        W62082  13.414  17.057   2.333
93854W        W62083  28.418  19.729  10.671
93855W        W62084  10.689  33.657  14.809
93856W        W62085  32.626  26.474  12.408
93857W        W62086  28.585   3.879  12.345
93858W        W62087  34.712  44.834  13.323
93859W        W62088  23.025  15.641   3.299
93860W        W62089  12.800  42.978  14.466
93861W        W62090  26.978  10.876  11.492
93862W        W62091  21.969   4.920  10.504
93863W        W62092  22.757  26.298   1.385
93864W        W62093   9.105  18.740  11.567
93865W        W62094  23.766  42.126   2.176
93866W        W62095  29.674  13.175  14.169
93867W        W62096   8.776  25.716  10.544
93868W        W62097  38.305  14.086  12.015
93869W        W62098  33.332  28.024  11.120
93870W        W62099  10.484  26.015   2.327
93871W        W62100   6.813  36.573   4.407
93872W        W62101  10.343  43.472  13.761
93873W        W62102  19.565   0.825   2.337
93874W        W62103  15.698  28.278   2.219
93875W        W62104  24.241  17.682   0.459
93876W        W62105  16.586  35.571  13.407
93877W        W62106  31.468  33.901   0.003
93878W        W62107  30.683  26.168  10.523
93879W        W62108  11.257  16.617  13.269
93880W        W62109  43.919  33.452   0.867
93881W        W62110  28.990  41.588  11.947
93882W        W62111  10.763  33.885   3.750
93883W        W62112  15.794  39.677  13.558
93884W        W62113  20.548   7.079  14.368
93885W        W62114  10.108  19.436   4.890
93886W        W62115  25.326  36.000  14.829
93887W        W62116  27.225   5.649   3.771
93888W        W62117  36.035   9.164   2.674
93889W        W62118  22.671  23.594  14.573
93890W        W62119  15.257  15.295  10.625
93891W        W62120   6.337  34.910  13.531
93892W        W62121  17.160  17.066   1.663
93893W        W62122  16.756   0.325   1.121
93894W        W62123   8.372  35.589  11.169
93895W        W62124   0.824  40.126  13.165
93896W        W62125  14.359  28.547  12.623
93897W        W62126   2.782  20.517  10.416
93898W        W62127  31.863  26.840   1.669
93899W        W62128  25.238  29.798   1.808
93900W        W62129   5.105   9.713   2.154
93901W        W62130  33.943  15.300  13.311
93902W        W62131  42.801  40.908  11.481
93903W        W62132  42.221  21.827  11.928
93904W        W62133  32.582  37.159  13.976
93905W        W62134  15.073  29.247   1.801
93906W        W62135  38.355  17.096   1.294
93907W        W62136  41.461  30.160  12.172
93908W        W62137  19.728  43.447  14.898
93909W        W62138  17.212  42.936   4.396
93910W        W62139  19.840   3.294  14.968
93911W        W62140  29.535   3.159   0.859
93912W        W62141  24.488  33.932   0.469
93913W        W62142   0.407  20.984   1.579
93914W        W62143   4.283  13.425   0.361
93915W        W62144   6.004  44.539   0.833
93916W        W62145  22.229  12.581  13.589
93917W        W62146  32.716  38.374  13.353
93918W        W62147  37.834  18.380  13.044
93919W        W62148  29.654   7.776  10.913
93920W        W62149  35.975  30.665   4.942
93921W        W62150  26.211  38.555  12.075
93922W        W62151  26.074  16.564  10.652
93923W        W62152   2.241   8.994   3.597
93924W        W62153  37.049  17.216   2.403
93925W        W62154  19.327  25.219   1.755
93926W        W62155  10.364   4.027  13.923
93927W        W62156   7.356  12.785  13.787
93928W        W62157  11.292  37.326   3.749
93929W        W62158   7.271  34.492  13.447
93930W        W62159  15.764  40.228  12.692
93931W        W62160   3.218  19.807  10.750
93932W        W62161  44.254  19.811   2.779
93933W        W62162  37.078  37.891  11.496
93934W        W62163  43.912  23.870  12.595
93935W        W62164   4.225   0.606  11.604
93936W        W62165  28.416  17.783   1.207
93937W        W62166  29.863  24.742   3.933
93938W        W62167  39.567  39.510  13.567
93939W        W62168  39.371  36.992   0.726
93940W        W62169   7.974  13.242  14.200
93941W        W62170  13.369   2.266   4.726
93942W        W62171   7.783  16.618   4.834
93943W        W62172  26.672   9.655   2.889
93944W        W62173  29.139   6.370  11.285
93945W        W62174  34.914   9.669   2.796
93946W        W62175  15.721  35.132  10.289
93947W        W62176  25.590  38.771  11.592
93948W        W62177  24.022  22.602   3.794
93949W        W62178  24.917  44.691  14.584
93950W        W62179  33.360  18.525   1.401
93951W        W62180  38.003  25.036   2.260
93952W        W62181  14.750  18.731   1.695
93953W        W62182   8.360  33.474   4.099
93954W        W62183  22.015  22.632   3.345
93955W        W62184  38.820  14.308  10.748
93956W        W62185   2.848  17.529  14.580
93957W        W62186   5.374  13.222  14.594
93958W        W62187  28.946  38.357   0.403
93959W        W62188   5.949  19.715  12.032
93960W        W62189  25.076   3.769   3.844
93961W        W62190  31.481  38.880  11.596
93962W        W62191  18.422  19.162   3.276
93963W        W62192  39.820   8.623   2.569
93964W        W62193  35.825  22.013  13.936
93965W        W62194  17.321  36.465  11.738
93966W        W62195   6.185   0.782  12.539
93967W        W62196  40.498  11.823   1.429
93968W        W62197   8.958  11.081  13.889
93969W        W62198  31.607  13.167   4.107
93970W        W62199  22.090  29.222   4.852
93971W        W62200   3.962  15.672  14.811
93972W        W62201  32.991  25.066  10.980
93973W        W62202  40.241   6.747  12.606
93974W        W62203   6.206  39.801   3.249
93975W        W62204   0.273  10.698  14.651
93976W        W62205   8.882  21.664  13.970
93977W        W62206  34.361  32.259  10.934
93978W        W62207   3.682  22.170  13.994
93979W        W62208  12.666  28.547   4.224
93980W        W62209  28.085  20.752   2.071
93981W        W62210   8.727  36.481   0.292
93982W        W62211  43.507   6.785   0.002
93983W        W62212   3.727  36.834  10.985
93984W        W62213  36.474  18.809   1.012
93985W        W62214  12.214  11.383  12.510
93986W        W62215   5.398  40.369   3.824
93987W        W62216  33.361  28.638   1.454
93988W        W62217   7.127  21.046  12.569
93989W        W62218  41.061  20.599   0.455
93990W        W62219  10.455  20.737   4.427
93991W        W62220  18.730  34.589  10.676
93992W        W62221   9.751  44.973   4.629
93993W        W62222  19.584  28.272   3.633
93994W        W62223  22.408   6.367   2.324
93995W        W62224  37.462  11.273   2.141
93996W        W62225  35.789  16.754  13.916
93997W        W62226  28.982  36.429  14.565
93998W        W62227  40.458   0.836   4.056
93999W        W62228  23.640  35.334   1.372
94000W        W62229   4.648   4.789  11.403
94001W        W62230  16.499  10.790  13.358
94002W        W62231  33.481  13.061   0.452
94003W        W62232  17.524  39.324   3.087
94004W        W62233  44.310  14.775  10.762
94005W        W62234  28.042  37.328  10.717
94006W        W62235  20.648   7.900  14.885
94007W        W62236   3.092   9.684   0.488
94008W        W62237   3.709  31.163  13.362
94009W        W62238  10.798  44.299   1.272
94010W        W62239  35.133  18.591   0.161
94011W        W62240  26.932  36.025  13.326
94012W        W62241  21.082  31.613   2.312
94013W        W62242  23.295  27.250   1.009
94014W        W62243   2.824  17.217  12.416
94015W        W62244   3.736   4.060   0.768
94016W        W62245   5.455  43.771   3.395
94017W        W62246  43.622  43.404   2.211
94018W        W62247  12.098   4.873   4.126
94019W        W62248  13.332  23.707  13.097
94020W        W62249  37.041   5.234   3.206
94021W        W62250   4.749   1.302   1.953
94022W        W62251  31.922  24.961  14.874
94023W        W62252   8.368  24.113   3.626
94024W        W62253  12.600  12.582  12.097
94025W        W62254  40.951  32.434   1.861
94026W        W62255  19.110  23.354  10.263
94027W        W62256  11.360  24.754   0.713
94028W        W62257  23.911  37.124  12.447
94029W        W62258  30.992  36.766  14.893
94030W        W62259  44.814  37.943   2.090
94031W        W62260   5.467  37.554   1.329
94032W        W62261   1.356  35.524  13.533
94033W        W62262  35.323  12.735   2.240
94034W        W62263   4.731  34.604  12.004
94035W        W62264   5.868   8.934   0.494
94036W        W62265   4.879  40.535   1.825
94037W        W62266   1.324   8.874  13.998
94038W        W62267  10.801  37.181   3.623
94039W        W62268   7.640  23.183  14.307
94040W        W62269   2.205  28.079  12.439
94041W        W62270  16.724  41.916  11.315
94042W        W62271  18.080  31.213   2.641
94043W        W62272  16.738  13.633  13.504
94044W        W62273  32.032  21.665  12.464
94045W        W62274  31.856  42.329   5.121
94046W        W62275  12.004  22.122  13.038
94047W        W62276  17.808  22.107  12.337
94048W        W62277  42.828  36.664  12.626
94049W        W62278  18.511  36.152   1.337
94050W        W62279  35.155  10.030   0.865
94051W        W62280   0.707  34.385   4.084
94052W        W62281   2.622  16.566   3.772
94053W        W62282  19.954  14.449  13.119
94054W        W62283  36.997  27.691  10.514
94055W        W62284  42.327  38.480   4.175
94056W        W62285  16.188   8.850   2.076
94057W        W62286   6.848  40.354   0.079
94058W        W62287  30.626   5.744  13.793
94059W        W62288  27.935   2.425   4.949
94060W        W62289  35.169  33.663  11.609
94061W        W62290  34.903   7.213  13.432
94062W        W62291   0.382  35.032  11.077
94063W        W62292   3.058  21.153   3.638
94064W        W62293   0.026   3.242   0.856
94065W        W62294  34.539  38.877  12.068
94066W        W62295  31.902  13.340   2.011
94067W        W62296   8.712  30.079   0.386
94068W        W62297  10.902   5.950   0.255
94069W        W62298  29.833  38.246  11.683
94070W        W62299  19.799  21.009   3.138
94071W        W62300  22.521  25.019  14.306
94072W        W62301  32.358  41.152  11.549
94073W        W62302  11.634  26.456   4.507
94074W        W62303  21.116  16.540  10.691
94075W        W62304   4.165  16.283   2.292
94076W        W62305  37.538  14.845   1.098
94077W        W62306  27.616  10.181   2.163
94078W        W62307  37.355  12.653  12.610
94079W        W62308  31.668  19.675   3.618
94080W        W62309  19.736  38.428  10.885
94081W        W62310  25.500  26.161  11.176
94082W        W62311   2.303   2.222  14.788
94083W        W62312  17.719  19.312   5.057
94084W        W62313  43.878  43.385  12.853
94085W        W62314   9.136  28.116  10.944
94086W        W62315  34.587  26.060  14.241
94087W        W62316  31.679  19.992  12.341
94088W        W62317  26.902  12.101   0.013
94089W        W62318  10.626   8.737   0.758
94090W        W62319  27.944  29.436  13.067
94091W        W62320  28.983  42.944  13.130
94092W        W62321  20.438  28.476   3.718
94093W        W62322  30.663  18.719   2.135
94094W        W62323  34.657  42.748  13.426
94095W        W62324  10.188  22.486   1.363
94096W        W62325  40.039  14.763  14.715
94097W        W62326   6.482  16.434  14.344
94098W        W62327  28.284  27.917  14.409
94099W        W62328  34.628  35.618   3.285
94100W        W62329  19.958  43.017  11.607
94101W        W62330   6.806  37.634   1.771
94102W        W62331  41.979   7.462  10.358
94103W        W62332  39.558  14.184  12.549
94104W        W62333  17.062   1.879  11.224
94105W        W62334  34.377  15.374  10.619
94106W        W62335  30.631  20.753  14.802
94107W        W62336  44.253  44.505   3.733
94108W        W62337  44.536   6.313   1.207
94109W        W62338   2.767  44.257  12.092
94110W        W62339  30.397  20.231   1.815
94111W        W62340  28.846  37.095  11.148
94112W        W62341  32.126  19.709  12.397
94113W        W62342  22.444  42.430  10.444
94114W        W62343   7.649  23.165   0.191
94115W        W62344  25.115  40.498   1.510
94116W        W62345  32.103  23.954  14.970
94117W        W62346  28.150  14.380   4.611
94118W        W62347  30.416  39.329   0.314
94119W        W62348  37.751  14.365   4.991
94120W        W62349  25.896  11.933  12.894
94121W        W62350  16.673  10.248   3.920
94122W        W62351  17.229  23.188   3.355
94123W        W62352  33.190  22.944  13.988
94124W        W62353   3.782  40.096   0.963
94125W        W62354  31.371  30.852  11.584
94126W        W62355   1.717  17.475   3.157
94127W        W62356   9.006  29.069   0.297
94128W        W62357   2.867   8.924   1.862
94129W        W62358  37.966   7.550  10.683
94130W        W62359  11.552   1.708   2.718
94131W        W62360  35.567  38.394  12.268
94132W        W62361  31.686  15.831   0.928
94133W        W62362  37.105  22.613  12.198
94134W        W62363   8.141  44.966   0.936
94135W        W62364  17.383  19.061   4.143
94136W        W62365   5.634  19.708   1.442
94137W        W62366  29.713  33.637  12.084
94138W        W62367  22.046  42.808  14.935
94139W        W62368  37.472  33.150  10.158
94140W        W62369  25.250  29.525   4.048
94141W        W62370  42.855   9.913  11.373
94142W        W62371  26.064  26.929   2.245
94143W        W62372  33.588  25.537   2.300
94144W        W62373  22.123  34.013  13.966
94145W        W62374  15.554  32.893   1.429
94146W        W62375  26.068   2.501  14.887
94147W        W62376   9.259   4.818  13.837
94148W        W62377  39.715  31.559   0.935
94149W        W62378   9.785  17.636   3.796
94150W        W62379   4.370  10.255  11.075
94151W        W62380   7.021  39.085  14.378
94152W        W62381  13.562   5.352   4.541
94153W        W62382  37.535  16.860  14.375
94154W        W62383  11.593  13.621   0.850
94155W        W62384  44.492  40.995  11.835
94156W        W62385  38.868  11.179   3.742
94157W        W62386  22.438  31.640   3.683
94158W        W62387   0.186   6.484  13.351
94159W        W62388  22.705  40.918   4.698
94160W        W62389  34.081  26.118  14.114
94161W        W62390  39.540  29.534  11.662
94162W        W62391  20.838  30.920   1.327
94163W        W62392  30.977  21.156   2.241
94164W        W62393  21.896   2.202   2.248
94165W        W62394   0.798   1.726   0.208
94166W        W62395  38.539  13.190   0.962
94167W        W62396  18.766  41.554   1.283
94168W        W62397  21.459  15.843   1.693
94169W        W62398  16.348  26.422   2.865
94170W        W62399  17.049   6.218   0.944
94171W        W62400  21.068   4.176   0.821
94172W        W62401  42.881   4.663  14.712
94173W        W62402  17.751   6.195  14.537
94174W        W62403  25.653  41.002  12.813
94175W        W62404  38.858  14.752  14.871
94176W        W62405   3.849  16.650  11.604
94177W        W62406  23.043  27.450  13.348
94178W        W62407  32.457   0.853   0.803
94179W        W62408   8.715  13.850  13.904
94180W        W62409  10.744  11.900   0.248
94181W        W62410  36.777   0.267   0.905
94182W        W62411  24.124  27.285   4.074
94183W        W62412  11.202  26.964  13.126
94184W        W62413   3.412  37.983  12.428
94185W        W62414   7.344   4.696  14.162
94186W        W62415  33.558  22.161  13.645
94187W        W62416  29.326  24.561   4.143
94188W        W62417  34.934  13.696   3.771
94189W        W62418  24.423  41.604  14.355
94190W        W62419  39.319   9.415   2.326
94191W        W62420   7.759  29.901   1.738
94192W        W62421  44.297  44.419   0.833
94193W        W62422   9.238   7.742  13.489
94194W        W62423  22.465  22.119   1.044
94195W        W62424  27.680  39.829  11.598
94196W        W62425  10.565  25.220  11.551
94197W        W62426  22.104  18.271  12.990
94198W        W62427  18.715  27.628   1.359
94199W        W62428  14.228  18.019  12.996
94200W        W62429   9.727  13.710   4.928
94201W        W62430  24.176  15.687  10.264
94202W        W62431  22.660  29.005  12.156
94203W        W62432  13.633  15.014  11.700
94204W        W62433   2.760   2.318   1.492
94205W        W62434  29.514  40.943  11.812
94206W        W62435  34.533  36.090   1.381
94207W        W62436  12.259  27.673  14.566
94208W        W62437  22.925  24.741   0.032
94209W        W62438  33.478   4.324  12.820
94210W        W62439  23.732  13.156   3.851
94211W        W62440  18.790  14.625  12.654
94212W        W62441  29.933  38.830   2.343
94213W        W62442   9.961   0.502   5.143
94214W        W62443  35.530   4.889   4.623
94215W        W62444  32.118   2.966   2.026
94216W        W62445  14.261  13.814   4.900
94217W        W62446  37.389  41.501   4.168
94218W        W62447   1.234   4.805  11.031
94219W        W62448  14.149  17.515  11.142
94220W        W62449  38.393  40.453   3.362
94221W        W62450   6.922  10.344  13.578
94222W        W62451   2.932  35.596   1.035
94223W        W62452  12.662  42.882   0.832
94224W        W62453  19.839  28.474   0.459
94225W        W62454  21.742  12.342  13.422
94226W        W62455  36.942  36.007   1.315
94227W        W62456  39.184  17.456  13.054
94228W        W62457  32.924  35.000  12.322
94229W        W62458  11.844  31.967  12.497
94230W        W62459  40.967  32.858  11.434
94231W        W62460  10.722   5.905   4.674
94232W        W62461  21.823  41.640   4.940
94233W        W62462  40.288  29.477  12.209
94234W        W62463   9.554   1.275   2.729
94235W        W62464  39.449  21.488  13.538
94236W        W62465  31.467  20.010  12.808
94237W        W62466  30.588  37.826  13.867
94238W        W62467  21.346  28.272   0.253
94239W        W62468   2.521  40.424  11.065
94240W        W62469  10.165  26.214  10.753
94241W        W62470  35.516  12.920  13.802
94242W        W62471  20.031  24.590   1.710
94243W        W62472  21.640  33.002   0.948
94244W        W62473  28.855  27.838   4.145
94245W        W62474  15.315  32.358  10.578
94246W        W62475  22.374  28.121   2.310
94247W        W62476  37.622   4.790   4.578
94248W        W62477  43.469  10.324   0.227
94249W        W62478  43.977   8.819  10.523
94250W        W62479   3.694  15.088  10.789
94251W        W62480   0.318  29.440   4.902
94252W        W62481  40.399  26.446   4.031
94253W        W62482  25.204  38.184  12.503
94254W        W62483   1.256  39.785   3.108
94255W        W62484  25.801   6.562  13.928
94256W        W62485  22.241  12.745   1.346
94257W        W62486   4.820  43.804   1.694
94258W        W62487  28.078  13.133   4.118
94259W        W62488  11.695   1.065   3.687
94260W        W62489  31.122  32.353   2.761
94261W        W62490  38.508   3.249   4.974
94262W        W62491  18.755   3.679   2.810
94263W        W62492   8.786  41.953   0.917
94264W        W62493  34.001  27.410  14.138
94265W        W62494  28.492  41.329  13.351
94266W        W62495   4.611  29.533   0.726
94267W        W62496  35.947  32.716  11.547
94268W        W62497  11.114  39.255   0.312
94269W        W62498  22.790  44.623  10.627
94270W        W62499  11.483  21.643   2.668
94271W        W62500  43.596  36.160   2.090
94272W        W62501  38.559  26.481   1.911
94273W        W62502  19.468  24.736  14.507
94274W        W62503  13.811  26.744   3.627
94275W        W62504   2.506  40.909  12.908
94276W        W62505  23.499   4.642   0.969
94277W        W62506  43.675  15.460  13.578
94278W        W62507  18.495  17.261   4.063
94279W        W62508   7.661  26.778   3.317
94280W        W62509  21.927  22.458  12.999
94281W        W62510  39.548  13.778   4.190
94282W        W62511  31.038  24.194   4.019
94283W        W62512  36.000  21.598   4.465
94284W        W62513  23.637  28.824  13.073
94285W        W62514  29.749  44.901  14.852
94286W        W62515  37.379  32.149  10.567
94287W        W62516  21.124   3.814   4.357
94288W        W62517  32.349  19.037  13.986
94289W        W62518  43.570   5.856   2.760
94290W        W62519   4.125  12.217  14.839
94291W        W62520   4.857  17.154  13.444
94292W        W62521  25.570   8.141   4.905
94293W        W62522  25.063  11.394   0.723
94294W        W62523  20.141  31.347   0.380
94295W        W62524  26.539  37.132   3.757
94296W        W62525  31.792   1.497   3.361
94297W        W62526   3.253  25.481   2.291
94298W        W62527   2.658  13.339   0.410
94299W        W62528  42.790  44.358   3.645
94300W        W62529  22.323  24.717   2.727
94301W        W62530  38.385  44.618   2.904
94302W        W62531  40.762  14.428   1.870
94303W        W62532  12.406  26.332   1.016
94304W        W62533  22.966  23.681  12.964
94305W        W62534   3.316   9.839   1.709
94306W        W62535  10.347   7.288  11.408
94307W        W62536  10.290  11.702   0.119
94308W        W62537  32.658  11.529  14.922
94309W        W62538  35.585  44.854  10.692
94310W        W62539  36.235  13.050  11.701
94311W        W62540  36.905  31.377   2.066
94312W        W62541  41.806  39.851  13.566
94313W        W62542  44.778  30.140  12.066
94314W        W62543  11.655   0.966  12.816
94315W        W62544  15.804  41.461  10.897
94316W        W62545  39.441  38.050   1.886
94317W        W62546   8.632   2.279  13.503
94318W        W62547   2.491  35.549  13.575
94319W        W62548  38.375   1.365   4.475
94320W        W62549   9.749  19.825  12.160
94321W        W62550  30.845  30.601  13.015
94322W        W62551  42.185  15.743  14.964
94323W        W62552   3.699   9.432  11.651
94324W        W62553  23.245   9.789   4.586
94325W        W62554  32.348  42.535   3.956
94326W        W62555  40.467  29.949   0.869
94327W        W62556  39.001   2.704   4.493
94328W        W62557  39.549  31.340   0.240
94329W        W62558  21.522  38.169   3.051
94330W        W62559  26.527  13.970  12.123
94331W        W62560   9.500  25.200   1.048
94332W        W62561  20.145  43.020   0.713
94333W        W62562  43.887   4.946  12.391
94334W        W62563  29.028  42.028   1.842
94335W        W62564  19.424   8.310   2.781
94336W        W62565  18.753   4.992   3.302
94337W        W62566  40.938  21.013   0.910
94338W        W62567  12.545  10.046  11.472
94339W        W62568  10.905   6.744   1.975
94340W        W62569  30.421   5.795  10.882
94341W        W62570  41.810  27.615   2.006
94342W        W62571  14.754   9.740   2.709
94343W        W62572  16.515  38.532   2.745
94344W        W62573  39.601  44.794   1.754
94345W        W62574   3.078  34.983  13.927
94346W        W62575  33.496  13.156   3.683
94347W        W62576  41.901  38.620  12.124
94348W        W62577  30.014  21.461   4.205
94349W        W62578   7.412   6.727  13.510
94350W        W62579  34.415  24.293   1.126
94351W        W62580   0.539  41.565  14.579
94352W        W62581  27.992  30.042  14.485
94353W        W62582  23.477  39.789   4.344
94354W        W62583  19.840  10.802  12.092
94355W        W62584  22.434  43.743   4.131
94356W        W62585   2.761  19.714   1.482
94357W        W62586  31.891  10.055   0.377
94358W        W62587  29.543  20.483   3.239
94359W        W62588  21.205  16.665  14.455
94360W        W62589  20.867   6.718   3.005
94361W        W62590  26.081   3.880  12.913
94362W        W62591  40.562   1.554  12.791
94363W        W62592  18.490  31.131  12.395
94364W        W62593   7.249  37.805   0.224
94365W        W62594  40.948   6.831  12.926
94366W        W62595  12.376  19.536  13.174
94367W        W62596   9.321  23.668  11.991
94368W        W62597  37.579  36.468  10.686
94369W        W62598  24.020   9.584  12.025
94370W        W62599  38.799  31.013  10.265
94371W        W62600  31.483  28.480  13.784
94372W        W62601  40.981  41.208   4.290
94373W        W62602  39.669   1.168   1.755
94374W        W62603   6.878  30.900  13.948
94375W        W62604  37.695  18.770   5.114
94376W        W62605  18.881  42.394   0.787
94377W        W62606  38.011  41.035  11.707
94378W        W62607  34.167  41.424  13.885
94379W        W62608  27.560   1.248  14.327
94380W        W62609  24.751  28.188   3.545
94381W        W62610  27.262  33.418   0.343
94382W        W62611  21.463  22.589   4.691
94383W        W62612  44.391  24.451   2.234
94384W        W62613  29.550  16.869   0.020
94385W        W62614  30.627   9.700  11.138
94386W        W62615  29.072   3.402  11.597
94387W        W62616  35.386  33.883   1.182
94388W        W62617  29.067  34.005   1.020
94389W        W62618  27.329  11.853  13.252
94390W        W62619  17.607  13.100  11.892
94391W        W62620  20.271  37.098   4.515
94392W        W62621  24.484   2.648   4.168
94393W        W62622   0.558  23.427   1.503
94394W        W62623  27.357  44.389   3.782
94395W        W62624   5.319  38.562  14.404
94396W        W62625  24.619   0.294  12.873
94397W        W62626  11.149  31.359   0.348
94398W        W62627  31.524  18.352  10.382
94399W        W62628  21.372   1.838  11.565
94400W        W62629   0.034   0.325   3.616
94401W        W62630  17.683   3.647   3.264
94402W        W62631  10.604  25.542   2.649
94403W        W62632  43.123  35.882  11.517
94404W        W62633  21.161  33.968  11.083
94405W        W62634  39.075  35.993   2.769
94406W        W62635  42.250  23.120  14.353
94407W        W62636   6.574  26.238  11.518
94408W        W62637  12.664  36.191   4.686
94409W        W62638  41.879   3.402   2.166
94410W        W62639   2.835  41.341   3.551
94411W        W62640  27.166   0.430  11.485
94412W        W62641  33.600  43.448   3.992
94413W        W62642  44.380  30.168  12.432
94414W        W62643  38.950  43.995   4.508
94415W        W62644   0.603  23.217   3.698
94416W        W62645  34.089   2.275  10.424
94417W        W62646  35.864  39.067   2.273
94418W        W62647  20.020  21.415   4.149
94419W        W62648  25.975  20.263  10.626
94420W        W62649   3.453   6.198  11.857
94421W        W62650  44.286  15.851  14.298
94422W        W62651  33.418  15.053  10.686
94423W        W62652  20.905  27.324  14.891
94424W        W62653   4.733  20.820   3.810
94425W        W62654   1.487  32.229   0.935
94426W        W62655  36.613  31.046   3.677
94427W        W62656  37.128  22.803   1.869
94428W        W62657  29.544  44.539  13.569
94429W        W62658   0.345   7.281   3.300
94430W        W62659  40.124  20.789   0.308
94431W        W62660   4.964   7.819  13.849
94432W        W62661   1.565  35.076  13.397
94433W        W62662  41.476  31.931  12.797
94434W        W62663   6.010   3.030  14.908
94435W        W62664  31.436  19.144  14.460
94436W        W62665  22.481  40.916   2.036
94437W        W62666  43.338  28.452  11.984
94438W        W62667  13.060  33.229  13.467
94439W        W62668  39.934  17.658   2.317
94440W        W62669   8.256  44.718   4.605
94441W        W62670   6.537   4.037   1.911
94442W        W62671  24.972  20.220   1.859
94443W        W62672  23.117   4.774  12.267
94444W        W62673  10.815  14.802   9.603
94445W        W62674  15.714  38.667  13.536
94446W        W62675  43.228  37.765  12.619
94447W        W62676  44.698  19.200  14.799
94448W        W62677  19.242  29.914  14.862
94449W        W62678  40.090  28.212  12.572
94450W        W62679  34.238  27.580  11.037
94451W        W62680   2.470  44.963  13.110
94452W        W62681  31.320  14.583  14.065
94453W        W62682  21.055  33.270  11.531
94454W        W62683  43.803  44.711  13.986
94455W        W62684  23.162  10.202   2.495
94456W        W62685   9.932   8.229   3.291
94457W        W62686  38.399  32.392  14.269
94458W        W62687  20.553   5.953   0.827
94459W        W62688   1.082  14.856  11.115
94460W        W62689  22.019   5.200  11.742
94461W        W62690   5.465   5.910  10.735
94462W        W62691  21.778  15.292  14.241
94463W        W62692  13.171  39.149   1.225
94464W        W62693  11.105   6.868  14.031
94465W        W62694  33.619  34.575  13.352
94466W        W62695  22.048  14.011  11.156
94467W        W62696  43.280  41.487   1.860
94468W        W62697  20.637   8.955  11.070
94469W        W62698  22.787  35.108   1.393
94470W        W62699   0.009   8.293  11.073
94471W        W62700  20.104  23.499  12.813
94472W        W62701  24.721  21.967   1.482
94473W        W62702  29.044  18.378  14.610
94474W        W62703  36.334  20.026  13.561
94475W        W62704  22.042  40.975  11.466
94476W        W62705  40.720  41.747  11.102
94477W        W62706   8.753  13.334  13.790
94478W        W62707  14.162  41.822   1.992
94479W        W62708  19.186  12.423  14.939
94480W        W62709   6.876  15.321  11.708
94481W        W62710  11.302   7.252  11.424
94482W        W62711  18.095  25.254   2.226
94483W        W62712  37.969   4.434  12.116
94484W        W62713  22.496  22.025   3.859
94485W        W62714   1.064  24.121   2.208
94486W        W62715  14.967  37.825   0.781
94487W        W62716   5.221  27.726  13.924
94488W        W62717  15.535   4.593   4.012
94489W        W62718  32.065  13.073  11.811
94490W        W62719   9.723   4.979   2.635
94491W        W62720  14.657  36.640  11.147
94492W        W62721  22.180  27.136   2.407
94493W        W62722  25.134  32.191  13.599
94494W        W62723  20.147  36.275  11.463
94495W        W62724  26.382  25.104  12.723
94496W        W62725  28.030  21.810   3.468
94497W        W62726  13.571   2.859   4.745
94498W        W62727  16.350  21.529   2.937
94499W        W62728  19.319  11.126   2.726
94500W        W62729  28.438  30.048  11.447
94501W        W62730  39.161  43.434  11.501
94502W        W62731   2.310  34.680  13.613
94503W        W62732  23.715  34.496  13.060
94504W        W62733   8.771  14.054   4.447
94505W        W62734  32.444  22.603   1.243
94506W        W62735  37.566  44.823  13.946
94507W        W62736  27.197   9.843  10.269
94508W        W62737  29.669  29.655  10.268
94509W        W62738  42.056  24.157   4.250
94510W        W62739   2.348  12.830  11.986
94511W        W62740   1.358  36.586   2.685
94512W        W62741  23.844  23.126  10.687
94513W        W62742  25.670  40.401   0.262
94514W        W62743  15.495  25.463   4.547
94515W        W62744  10.617  20.688   1.226
94516W        W62745  23.519  33.089   4.544
94517W        W62746  22.612  41.515  14.032
94518W        W62747  21.957  32.452  14.926
94519W        W62748  26.036   1.957  12.849
94520W        W62749  37.097  24.802   2.828
94521W        W62750  10.409  34.097  14.881
94522W        W62751  15.689  16.696  10.994
94523W        W62752  40.401   7.065  14.305
94524W        W62753  34.701   8.545  13.271
94525W        W62754  11.424   1.390   2.289
94526W        W62755  13.725  32.149  12.868
94527W        W62756   8.614   9.290  13.591
94528W        W62757   5.211   8.481  10.714
94529W        W62758  42.568  10.901   0.288
94530W        W62759  39.857  31.066  14.292
94531W        W62760  21.001  20.048   5.082
94532W        W62761  39.045   7.889  12.340
94533W        W62762  21.194  16.085   3.403
94534W        W62763  13.381  12.217   1.296
94535W        W62764  38.872   1.341  13.298
94536W        W62765   5.736  28.493   4.258
94537W        W62766  10.754  38.300  14.381
94538W        W62767  23.932  15.192   4.091
94539W        W62768   1.506   7.269  11.155
94540W        W62769  39.675   2.857   3.771
94541W        W62770  32.370   2.864  10.659
94542W        W62771  13.395  25.432   1.328
94543W        W62772  26.631   3.439  12.279
94544W        W62773  27.194  16.144   0.191
94545W        W62774  28.186  32.663  14.537
94546W        W62775  15.262   9.909  11.594
94547W        W62776  32.379  40.446   0.886
94548W        W62777  12.454  42.315  14.435
94549W        W62778   4.299   6.377  13.959
94550W        W62779   0.834  11.705  10.550
94551W        W62780  18.451  22.989  11.578
94552W        W62781  40.497  44.614  12.997
94553W        W62782  29.676  19.098   4.965
94554W        W62783  12.185   8.200   2.354
94555W        W62784  25.806   5.817  14.811
94556W        W62785  36.553  16.793  10.950
94557W        W62786  24.371  24.561   3.726
94558W        W62787  40.446  30.132   2.805
94559W        W62788  29.996  30.761   3.658
94560W        W62789  44.394  42.830   2.634
94561W        W62790  22.513  44.638   1.738
94562W        W62791  25.384   5.653  13.172
94563W        W62792   2.845  43.072   2.257
94564W        W62793   5.935  18.201   1.323
94565W        W62794   4.812  14.394   1.850
94566W        W62795  44.988  43.845  10.650
94567W        W62796   9.127  44.853   4.356
94568W        W62797  26.968   2.731  12.066
94569W        W62798  37.983  12.468  10.629
94570W        W62799  23.156  44.937  12.444
94571W        W62800  27.091  32.666   0.653
94572W        W62801  41.942  33.118   0.951
94573W        W62802  25.581   3.758  12.884
94574W        W62803  38.213   2.570   3.306
94575W        W62804  34.514  35.113   1.708
94576W        W62805  16.768  16.868   0.392
94577W        W62806  17.048  29.626   2.417
94578W        W62807  19.965  31.086   4.784
94579W        W62808   4.979  12.093  14.450
94580W        W62809  17.155   1.140   2.801
94581W        W62810   2.059  34.888   4.945
94582W        W62811  15.633  16.300  14.312
94583W        W62812  28.529  28.504   2.970
94584W        W62813   4.156  34.382  11.172
94585W        W62814  13.838   0.070   4.180
94586W        W62815  12.081  43.248  13.379
94587W        W62816   7.424  20.616  10.537
94588W        W62817  30.472  16.507  12.369
94589W        W62818  20.617  44.767   4.527
94590W        W62819  29.746  26.720  11.567
94591W        W62820  24.148  21.749   0.419
94592W        W62821  15.295  38.472   4.457
94593W        W62822  27.679   9.021   4.754
94594W        W62823   4.878  15.845   3.702
94595W        W62824  12.150  11.540   4.468
94596W        W62825   7.390  19.150  10.785
94597W        W62826  41.084  14.809   0.877
94598W        W62827   7.645   5.331   2.720
94599W        W62828  42.811  32.041  12.110
94600W        W62829  24.780  34.352   0.479
94601W        W62830  41.541   4.966   9.959
94602W        W62831  30.186  23.342  14.386
94603W        W62832   9.668  28.376   0.931
94604W        W62833  10.395  38.060  11.228
94605W        W62834  41.373  38.532  10.863
94606W        W62835  12.168   8.118  11.349
94607W        W62836  37.883  42.082  12.586
94608W        W62837   4.025  30.594   4.736
94609W        W62838  24.236  14.137  14.477
94610W        W62839  39.054  31.717   3.102
94611W        W62840  38.609  24.795  14.439
94612W        W62841  44.818  22.567  10.227
94613W        W62842   6.838  25.913  12.429
94614W        W62843  15.353  39.285  10.969
94615W        W62844  31.905  41.000  11.372
94616W        W62845  42.965  12.099   3.789
94617W        W62846  15.338  29.295   3.157
94618W        W62847  23.107  35.859   1.910
94619W        W62848  15.298  32.939   0.408
94620W        W62849  27.500  21.111   3.269
94621W        W62850  39.553  16.764  11.162
94622W        W62851  32.949  23.215   3.067
94623W        W62852  41.524  32.906   4.103
94624W        W62853  27.402   9.747   2.349
94625W        W62854   0.082  38.379   4.268
94626W        W62855  23.743  35.347   4.026
94627W        W62856  21.717  15.630  12.913
94628W        W62857  22.758  27.210  12.118
94629W        W62858  33.471  43.421   0.086
94630W        W62859  34.086  21.591  12.944
94631W        W62860  27.970  28.124   2.137
94632W        W62861  16.356  13.190  14.001
94633W        W62862   5.750   0.391   3.636
94634W        W62863  20.280   1.762   2.708
94635W        W62864   0.939   1.682   4.673
94636W        W62865  40.173   4.858  10.684
94637W        W62866  39.441   1.947   3.830
94638W        W62867  24.530  39.470  13.513
94639W        W62868  24.185  10.567   1.839
94640W        W62869  27.989   0.510  12.891
94641W        W62870  27.459  14.687   2.707
94642W        W62871  15.872  37.940   2.468
94643W        W62872  20.708  31.313   2.861
94644W        W62873  35.383  35.121   1.840
94645W        W62874  10.744  29.396  13.647
94646W        W62875   0.377  27.964   3.359
94647W        W62876   2.567   7.505   3.701
94648W        W62877  21.731  31.096  14.724
94649W        W62878  32.383  21.979   1.520
94650W        W62879  32.935  27.970   3.274
94651W        W62880   4.435  30.426  13.352
94652W        W62881   6.206  12.151  10.587
94653W        W62882  34.989  28.125  13.981
94654W        W62883  30.126  12.812  11.560
94655W        W62884   8.281   7.689   4.345
94656W        W62885  21.723  31.498   1.471
94657W        W62886  10.228   6.125   4.762
94658W        W62887  33.386  37.062   3.226
94659W        W62888  25.217  42.046  11.432
94660W        W62889  42.395  13.339  12.484
94661W        W62890  14.768  31.184   2.722
94662W        W62891   2.256  33.818  10.309
94663W        W62892  13.424  34.041  13.060
94664W        W62893  27.123  27.334   4.079
94665W        W62894  38.442   3.021   3.186
94666W        W62895   7.570  22.611   2.646
94667W        W62896   4.139  31.449   2.138
94668W        W62897  29.932  42.226  13.550
94669W        W62898  44.886  41.915   0.537
94670W        W62899  22.687   3.260  14.784
94671W        W62900  19.609  24.400  13.486
94672W        W62901  23.295  40.132   2.369
94673W        W62902  41.080  18.165   2.617
94674W        W62903   1.316  12.821  14.786
94675W        W62904  29.291  33.639  11.802
94676W        W62905  39.821  36.874   4.653
94677W        W62906  43.808   6.478   3.574
94678W        W62907  24.535   7.626   2.178
94679W        W62908   0.360   0.205  10.617
94680W        W62909  30.457  20.068  11.035
94681W        W62910  19.949  11.264  12.880
94682W        W62911  30.113  26.073  13.544
94683W        W62912  13.320  18.739   3.224
94684W        W62913  39.208  10.427  14.394
94685W        W62914  43.337  40.752   3.810
94686W        W62915   2.644  34.120   2.147
94687W        W62916  41.533  13.325   4.623
94688W        W62917  28.773  28.946   4.575
94689W        W62918  27.496  31.878  14.670
94690W        W62919  24.921  39.596  12.434
94691W        W62920   3.660  22.200  11.101
94692W        W62921   3.811  27.422  11.921
94693W        W62922  27.467   4.836  11.035
94694W        W62923  33.838  41.137  11.203
94695W        W62924   6.709  26.445   1.882
94696W        W62925  20.586   6.596  10.740
94697W        W62926  23.576   5.837  14.425
94698W        W62927  39.565  14.106   2.338
94699W        W62928   7.781  35.824   4.926
94700W        W62929  25.232   9.562  10.734
94701W        W62930  28.362   4.271   1.367
94702W        W62931  19.966   1.776   4.531
94703W        W62932   9.958  38.497   0.351
94704W        W62933  25.740  12.636  14.829
94705W        W62934  24.606   1.084   4.053
94706W        W62935  13.750  23.164   3.885
94707W        W62936  20.959  37.417   4.054
94708W        W62937  13.212  21.795  11.601
94709W        W62938  20.019  17.545  10.612
94710W        W62939  18.060  21.344   4.092
94711W        W62940  16.397  22.216   1.738
94712W        W62941   9.732  32.900   1.825
94713W        W62942  33.091  17.106  11.192
94714W        W62943  32.907  31.822  12.170
94715W        W62944  36.247  27.270  14.036
94716W        W62945  29.407  17.758  14.655
94717W        W62946  32.008  24.212  13.569
94718W        W62947  20.464  44.093  12.153
94719W        W62948  15.316   7.654  12.094
94720W        W62949  44.232  19.635  13.978
94721W        W62950   4.947  20.757  14.054
94722W        W62951   0.272  22.072   4.134
94723W        W62952   5.701  10.395   3.318
94724W        W62953  19.472  29.091  13.031
94725W        W62954  13.008   9.170  13.847
94726W        W62955  29.110  17.207  12.309
94727W        W62956  15.149   4.841  11.831
94728W        W62957  32.343   9.038  12.595
94729W        W62958  14.329  34.403  12.824
94730W        W62959  13.229  16.204  10.632
94731W        W62960  22.193  29.704  12.120
94732W        W62961  25.566  19.258   4.146
94733W        W62962  21.323   6.977  11.177
94734W        W62963  35.639  41.076  11.621
94735W        W62964  26.970   0.720  11.122
94736W        W62965  43.704   7.595   4.912
94737W        W62966   2.561   1.837  14.543
94738W        W62967   0.525   9.560   3.431
94739W        W62968  42.325   6.743   0.779
94740W        W62969  22.493  18.168  10.514
94741W        W62970   0.537  13.083  10.679
94742W        W62971   3.271  35.588  11.438
94743W        W62972  36.525  11.154  12.842
94744W        W62973  20.245  23.001  11.587
94745W        W62974  29.179  25.041   0.251
94746W        W62975  41.138  12.310  11.236
94747W        W62976  11.919  10.259   3.244
94748W        W62977  11.097  36.804   1.946
94749W        W62978  15.064  17.295   0.631
94750W        W62979   3.377  29.007   0.839
94751W        W62980   2.490  37.080   4.572
94752W        W62981  36.396  29.630   3.145
94753W        W62982  31.088  39.888   2.595
94754W        W62983  10.105   7.383  14.774
94755W        W62984  37.141  21.165  12.521
94756W        W62985  30.100  26.022  12.614
94757W        W62986  33.976  44.361  10.323
94758W        W62987  35.311  31.624  13.257
94759W        W62988  22.239   6.427  11.215
94760W        W62989   2.760  26.428   0.364
94761W        W62990  37.926   3.363   3.685
94762W        W62991  36.517  30.927   2.739
94763W        W62992  37.361  22.948   3.265
94764W        W62993  37.137  30.500  13.813
94765W        W62994  17.260  22.437  10.633
94766W        W62995  21.303  27.180  12.619
94767W        W62996  11.804  38.909  12.154
94768W        W62997  12.194  36.324   0.354
94769W        W62998  37.849  35.502   3.660
94770W        W62999  11.139   7.265   4.144
94771W        W63000   6.262  30.452   2.732
94772W        W63001  44.399  18.651   0.784
94773W        W63002   8.854   8.213  12.046
94774W        W63003  41.529   9.510  12.895
94775W        W63004  21.920  13.784  14.926
94776W        W63005  19.703  39.375   4.661
94777W        W63006  18.319  24.059  12.996
94778W        W63007  41.337  16.661  10.648
94779W        W63008  26.034  15.350   3.123
94780W        W63009   7.632  37.300  11.110
94781W        W63010  24.637  15.977   1.411
94782W        W63011  13.673  33.120  11.041
94783W        W63012   3.138  34.092  11.535
94784W        W63013  10.817  24.754  14.612
94785W        W63014   7.348  29.414  13.039
94786W        W63015  42.899  41.486  10.151
94787W        W63016   9.263  26.613   2.099
94788W        W63017  25.291   8.711  14.939
94789W        W63018   2.408   6.658   2.329
94790W        W63019  43.445  42.486  13.071
94791W        W63020  18.985   8.274   1.282
94792W        W63021  29.515   2.792  10.685
94793W        W63022   9.207  22.192   4.400
94794W        W63023  32.243  42.593   1.607
94795W        W63024  11.600   7.809  12.109
94796W        W63025  25.178  32.940  12.634
94797W        W63026  25.586  40.172  13.298
94798W        W63027  37.919  43.466   2.733
94799W        W63028   6.630   2.027   0.814
94800W        W63029  39.045  38.822   4.290
94801W        W63030  22.695   6.704   4.757
94802W        W63031  20.157  37.543   2.928
94803W        W63032  39.951  16.580  14.274
94804W        W63033  33.557  41.463  10.056
94805W        W63034  37.344  11.202   0.033
94806W        W63035  18.632  21.238  12.439
94807W        W63036  36.016  38.930   1.287
94808W        W63037  42.832  27.409  13.864
94809W        W63038  16.353  29.605  12.655
94810W        W63039   5.285  32.510  10.429
94811W        W63040  36.221   9.577   4.199
94812W        W63041  15.360  30.836   0.786
94813W        W63042  21.039   4.833   2.887
94814W        W63043   1.476  33.582   3.039
94815W        W63044  21.488  22.229  13.681
94816W        W63045  25.932  32.113   9.726
94817W        W63046   1.400  43.804   4.573
94818W        W63047  12.723  25.744  14.527
94819W        W63048  34.488  26.028  10.766
94820W        W63049  14.848   4.265  14.410
94821W        W63050  28.607  13.752  12.444
94822W        W63051  15.619  26.170  12.646
94823W        W63052  39.256  42.750   0.736
94824W        W63053  14.749  29.441   4.502
94825W        W63054  11.287  30.577  12.503
94826W        W63055   5.801  27.869   2.339
94827W        W63056  23.001  35.134  12.454
94828W        W63057   3.396  35.386  14.586
94829W        W63058  44.297  26.004  10.701
94830W        W63059  25.912  35.533   2.833
94831W        W63060  16.546  17.773  14.120
94832W        W63061  15.727  20.686  11.501
94833W        W63062  43.851  33.877  12.694
94834W        W63063  28.837  30.071  11.007
94835W        W63064  32.221   5.337  11.126
94836W        W63065   4.321  42.404  12.658
94837W        W63066   9.731  24.600  10.759
94838W        W63067  15.006  29.063  13.283
94839W        W63068  31.239   1.934   2.911
94840W        W63069   3.162  24.593   2.404
94841W        W63070   8.689  32.656  11.022
94842W        W63071   3.907   9.505   1.231
94843W        W63072   4.321   9.472   3.574
94844W        W63073   1.164  14.441  13.346
94845W        W63074  36.989  40.497  12.441
94846W        W63075  29.968  16.879  10.267
94847W        W63076  40.001  39.933  12.953
94848W        W63077   2.094   8.674  12.551
94849W        W63078  17.038   5.335   1.021
94850W        W63079  40.992  39.057   0.293
94851W        W63080  26.588  42.496  14.420
94852W        W63081   1.020  38.380   1.436
94853W        W63082  31.446  41.676   1.998
94854W        W63083  36.105   4.317   3.669
94855W        W63084  14.061  24.613  12.507
94856W        W63085  31.826  36.942  10.648
94857W        W63086   3.105  13.126  11.842
94858W        W63087  22.080  22.194   1.906
94859W        W63088  10.820  28.790   2.947
94860W        W63089  16.151   4.153   2.216
94861W        W63090  20.711   5.393   4.547
94862W        W63091  21.857  26.754   1.178
94863W        W63092  25.635  21.844   0.007
94864W        W63093  12.381   7.182  14.747
94865W        W63094  42.108  41.033   2.312
94866W        W63095  11.214  15.134   1.432
94867W        W63096  14.008  33.461  14.350
94868W        W63097  25.797  19.626  14.027
94869W        W63098  37.625  25.898   0.797
94870W        W63099  28.045  16.780   4.287
94871W        W63100  27.538  31.449  13.394
94872W        W63101   6.688  17.179   2.573
94873W        W63102   1.221  16.667   4.346
94874W        W63103  34.868   2.771   1.703
94875W        W63104  41.319  12.637   3.321
94876W        W63105   4.285   6.161   0.793
94877W        W63106  38.118   7.340  13.916
94878W        W63107  41.955  44.002  13.442
94879W        W63108  44.550  39.221   1.823
94880W        W63109  12.041  44.976  14.512
94881W        W63110   0.414  17.855   3.738
94882W        W63111  34.848  29.458   1.488
94883W        W63112  20.045  25.689   3.239
94884W        W63113  13.119  11.715   3.590
94885W        W63114  38.309  26.952   2.765
94886W        W63115   9.345  40.903   1.729
94887W        W63116  41.803  34.156  14.302
94888W        W63117  13.347  26.879   2.723
94889W        W63118   5.652   6.230   3.473
94890W        W63119   1.993   6.157  10.517
94891W        W63120  26.984   6.771   4.577
94892W        W63121  25.125   8.912  13.908
94893W        W63122  29.486  43.764  13.980
94894W        W63123   2.993   1.247   2.605
94895W        W63124  34.768   4.535  12.089
94896W        W63125  43.844  22.192   1.971
94897W        W63126   4.131  13.736   1.230
94898W        W63127  34.825   6.496   4.148
94899W        W63128  21.238  36.358   2.135
94900W        W63129   7.798  27.591   0.415
94901W        W63130  32.249  24.495   3.211
94902W        W63131  35.893  19.253   4.148
94903W        W63132  33.535  28.372   3.148
94904W        W63133  31.464  37.031  14.883
94905W        W63134  25.142  33.155  14.531
94906W        W63135   6.445  28.159   4.126
94907W        W63136  14.472   3.713   1.022
94908W        W63137  10.848  34.903   0.437
94909W        W63138  20.613   2.803  14.876
94910W        W63139  30.570   8.087   4.467
94911W        W63140  41.383  27.965   2.755
94912W        W63141  20.460   9.205   1.180
94913W        W63142  36.991   2.226  12.501
94914W        W63143  33.631  15.543  14.744
94915W        W63144  36.607   9.280  11.908
94916W        W63145   8.982  30.470   4.103
94917W        W63146  14.580  25.253   2.568
94918W        W63147  13.550  44.912  14.429
94919W        W63148  33.935   5.444  14.800
94920W        W63149  41.580  24.708   3.200
94921W        W63150  33.528  10.454   4.629
94922W        W63151  30.598   0.777   0.510
94923W        W63152  29.852   5.382   0.393
94924W        W63153   9.858  18.326   2.555
94925W        W63154  22.883   5.143  14.904
94926W        W63155   0.703  30.939   3.729
94927W        W63156  37.087   8.205  12.790
94928W        W63157  14.593  16.437  12.326
94929W        W63158  14.637  15.672   4.009
94930W        W63159   0.983  34.369   2.813
94931W        W63160   5.269  17.711  14.548
94932W        W63161  31.194  42.265  13.491
94933W        W63162   2.234  32.794  13.246
94934W        W63163  21.438   2.717   1.427
94935W        W63164  15.801  12.186  12.684
94936W        W63165   1.838  32.489   0.566
94937W        W63166  35.759  29.626  13.005
94938W        W63167  14.215  17.313  14.524
94939W        W63168  27.380  15.575  10.191
94940W        W63169  34.555  19.251  14.312
94941W        W63170  22.692   4.894  12.014
94942W        W63171  41.189  17.806  12.708
94943W        W63172  39.427   3.923   3.305
94944W        W63173  41.421  12.392   0.759
94945W        W63174  20.988  18.721  10.935
94946W        W63175  20.180  18.350  14.500
94947W        W63176  34.582   9.667   3.214
94948W        W63177  33.051  24.453  14.992
94949W        W63178  18.489  29.063   1.440
94950W        W63179  11.372  41.842  13.486
94951W        W63180  30.651  30.799  12.219
94952W        W63181  41.915  42.225  13.903
94953W        W63182  37.804  24.663  12.641
94954W        W63183  11.664  17.903   1.838
94955W        W63184   0.981  31.476  10.787
94956W        W63185   3.743  14.075  10.593
94957W        W63186   7.704  43.216  12.176
94958W        W63187  11.125  32.417  13.580
94959W        W63188   0.536  11.285  10.561
94960W        W63189  37.879  16.895   1.270
94961W        W63190  14.420  40.507  11.973
94962W        W63191   3.302  40.942   1.792
94963W        W63192  34.085   7.666  10.281
94964W        W63193   1.524   0.483   4.877
94965W        W63194  31.546  44.451  13.851
94966W        W63195  12.631  23.056   1.967
94967W        W63196   9.668  15.127   0.291
94968W        W63197  40.394  12.614  10.425
94969W        W63198  33.090   6.511  14.973
94970W        W63199  37.370   7.436  12.603
94971W        W63200  15.394  39.132   1.615
94972W        W63201  34.317  24.767  11.931
94973W        W63202  25.902  25.710  13.420
94974W        W63203   6.240  27.960  13.452
94975W        W63204  22.619  44.291  11.601
94976W        W63205  22.768  28.649  13.013
94977W        W63206  42.086  11.106   1.180
94978W        W63207   8.268  10.785   4.678
94979W        W63208   4.038  28.626   1.364
94980W        W63209   4.687   6.946  13.903
94981W        W63210  40.792  43.387   4.490
94982W        W63211  33.399  34.638   3.189
94983W        W63212  15.104  41.985   2.109
94984W        W63213  34.846  27.471  11.863
94985W        W63214   3.194  28.820   1.848
94986W        W63215   8.039  40.312   4.189
94987W        W63216  25.168  36.614   4.022
94988W        W63217  23.308   5.487  14.748
94989W        W63218  17.378  31.386   1.833
94990W        W63219  28.877   6.604   1.700
94991W        W63220  24.614   8.998   0.484
94992W        W63221  15.097   7.608   4.601
94993W        W63222  42.978  41.413   0.450
94994W        W63223   0.597  23.919   2.276
94995W        W63224  29.003  12.880   0.887
94996W        W63225  32.165  19.552  13.419
94997W        W63226  14.332  43.094  14.313
94998W        W63227  35.919  18.315  12.476
94999W        W63228  25.773  18.307   1.736
95000W        W63229  22.013  23.888   1.357
95001W        W63230  41.602  22.148   1.204
95002W        W63231   3.774  21.702   1.033
95003W        W63232  15.311  31.375   2.688
95004W        W63233  32.177  11.292   0.859
95005W        W63234  27.951   8.775   0.659
95006W        W63235  32.118  37.073   2.668
95007W        W63236   6.683  21.828  11.025
95008W        W63237   3.697  24.486   3.283
95009W        W63238   1.156  25.751   2.575
95010W        W63239  39.087  35.432  13.357
95011W        W63240  20.263  40.046   4.870
95012W        W63241  35.829  34.079   0.936
95013W        W63242  22.505  20.656  12.050
95014W        W63243   7.476  33.900  11.793
95015W        W63244  35.757   5.918  11.660
95016W        W63245  23.983   0.991  11.982
95017W        W63246  23.212  41.796  14.898
95018W        W63247   5.893  16.094  12.218
95019W        W63248  35.063  22.132  13.500
95020W        W63249  12.271   1.578   4.448
95021W        W63250  10.295   9.488   4.110
95022W        W63251  43.552   7.244   1.305
95023W        W63252  26.935  36.412  11.533
95024W        W63253  29.722  19.142   3.941
95025W        W63254   1.989  15.584   0.922
95026W        W63255   0.869  34.916  10.660
95027W        W63256   2.594  26.785   0.017
95028W        W63257  17.189  18.282   3.764
95029W        W63258  29.680  41.863  14.898
95030W        W63259  42.370  32.112  11.860
95031W        W63260  33.534  24.937  12.844
95032W        W63261   2.512  26.761  10.306
95033W        W63262  42.150  27.486  10.837
95034W        W63263  33.732   8.732   0.281
95035W        W63264   7.277   0.892  10.769
95036W        W63265   3.621  43.760  14.834
95037W        W63266   4.925  12.495  12.569
95038W        W63267  17.633   3.928   2.627
95039W        W63268  33.273   2.765  14.796
95040W        W63269   6.990  19.657  12.066
95041W        W63270  43.068   0.456  14.833
95042W        W63271   1.728   9.734  11.669
95043W        W63272  23.519  25.219   1.318
95044W        W63273   2.422  12.258   4.354
95045W        W63274  44.640  20.386  11.336
95046W        W63275  41.844   1.031   2.697
95047W        W63276  25.897  40.743  14.882
95048W        W63277   2.775  43.246   0.757
95049W        W63278  25.155  40.972   4.363
95050W        W63279  17.165  35.950   1.009
95051W        W63280   0.094   5.305  11.621
95052W        W63281  38.706  23.521  13.990
95053W        W63282   6.344  15.109  11.100
95054W        W63283  24.131  27.676   0.889
95055W        W63284  39.857   6.893   0.834
95056W        W63285  43.221  22.438   0.926
95057W        W63286  14.597  24.689   2.683
95058W        W63287  18.808  11.345   1.189
95059W        W63288  41.886  27.048   1.179
95060W        W63289  24.211  26.130  12.616
95061W        W63290  17.993   2.491  13.890
95062W        W63291  39.370   1.467  14.453
95063W        W63292  24.995  12.669  12.485
95064W        W63293  35.680  44.499   0.676
95065W        W63294  30.978  33.960  11.766
95066W        W63295  40.323   1.319   4.623
95067W        W63296  14.346   7.142   1.314
95068W        W63297   9.922   9.766   1.357
95069W        W63298  16.225  30.414  10.672
95070W        W63299  11.874  36.294   3.514
95071W        W63300   5.053  38.061  14.734
95072W        W63301  27.622  44.677   0.965
95073W        W63302  33.010   1.569   3.283
95074W        W63303   5.711  23.061   3.679
95075W        W63304  15.351  26.152   4.265
95076W        W63305  31.145  30.094   1.640
95077W        W63306  39.851  11.425   3.688
95078W        W63307   3.922   9.588  14.367
95079W        W63308   4.803  15.099   2.325
95080W        W63309  16.545  13.742  10.679
95081W        W63310  22.056  29.194   1.448
95082W        W63311   5.053   9.750   1.640
95083W        W63312  43.875  17.159   2.688
95084W        W63313  12.315  33.548  12.433
95085W        W63314  26.325  10.304  10.359
95086W        W63315  23.161   7.436   1.199
95087W        W63316  35.258  18.735   2.501
95088W        W63317  30.469   5.918   4.567
95089W        W63318  15.019  10.492   3.667
95090W        W63319  31.428  26.644  13.228
95091W        W63320  20.093   4.709  14.422
95092W        W63321  21.897   9.313  11.146
95093W        W63322  39.911  27.928   4.699
95094W        W63323   5.629  16.109  13.136
95095W        W63324  31.479  27.604   2.265
95096W        W63325   6.885  19.253  14.391
95097W        W63326  16.458  22.100   3.623
95098W        W63327  16.375  44.809   1.730
95099W        W63328  20.068   4.993   0.837
95100W        W63329  39.784  19.476  14.066
95101W        W63330  32.702  25.097  12.435
95102W        W63331  22.675  38.875   4.132
95103W        W63332  16.796   2.849   0.031
95104W        W63333  34.324  36.272  13.759
95105W        W63334  10.285   2.189   2.318
95106W        W63335   9.472   7.718  12.499
95107W        W63336  15.286  34.392   3.114
95108W        W63337   5.321  19.539  14.249
95109W        W63338  39.032  20.801  12.421
95110W        W63339   9.677  11.937  13.861
95111W        W63340   2.691  14.949   4.160
95112W        W63341  20.246  23.474   2.936
95113W        W63342  42.357  39.361   4.602
95114W        W63343  44.910   4.262  13.015
95115W        W63344  25.756  37.579  12.944
95116W        W63345   6.367  27.380   4.781
95117W        W63346  11.666  40.279   1.644
95118W        W63347  37.960  19.516  14.698
95119W        W63348  31.940  37.240  11.503
95120W        W63349  38.147  23.908   1.097
95121W        W63350  44.366  44.496  14.473
95122W        W63351  25.732   7.121  10.188
95123W        W63352  18.121  25.698  14.825
95124W        W63353  14.779  33.326  12.024
95125W        W63354  44.412  38.910   0.872
95126W        W63355  27.002   4.633  10.235
95127W        W63356   0.786   8.872  14.429
95128W        W63357  18.494  40.643   4.095
95129W        W63358  18.185  26.466  13.082
95130W        W63359  41.244  30.727  10.888
95131W        W63360   5.769  17.108  14.904
95132W        W63361  35.477  24.623  11.177
95133W        W63362  33.191  40.846  11.541
95134W        W63363  34.999  30.010   1.670
95135W        W63364  36.956  23.645  12.212
95136W        W63365  10.766  14.850   1.462
95137W        W63366   9.613  26.624  14.510
95138W        W63367  37.348   2.252   2.418
95139W        W63368  43.643  19.019  14.401
95140W        W63369  23.447  11.274   1.863
95141W        W63370  18.089  28.522  11.611
95142W        W63371  16.147  18.079  14.353
95143W        W63372   1.678  36.677   2.273
95144W        W63373  40.332  29.724  13.470
95145W        W63374  21.082  26.632   0.829
95146W        W63375  32.716  27.853   0.901
95147W        W63376  36.870  18.795  12.411
95148W        W63377   7.130  18.097   4.798
95149W        W63378  13.588  40.735  11.648
95150W        W63379  12.996  10.911   2.793
95151W        W63380  28.379  28.348  12.942
95152W        W63381   8.443   4.332   0.374
95153W        W63382  28.482   6.706  10.626
95154W        W63383  43.934  17.607  11.585
95155W        W63384  34.989  23.944   1.805
95156W        W63385   9.659  22.567   1.309
95157W        W63386  19.945  21.692  13.969
95158W        W63387  16.042  14.743   2.850
95159W        W63388   6.901  17.216  13.231
95160W        W63389  14.553   2.774  14.176
95161W        W63390   0.238  37.937   2.408
95162W        W63391  22.228  33.681  11.984
95163W        W63392   5.897  32.290   4.703
95164W        W63393  28.575   3.373   0.725
95165W        W63394  16.788  14.104  13.747
95166W        W63395  42.518  43.720   0.893
95167W        W63396   8.948  22.470  11.638
95168W        W63397  18.809  20.001  13.333
95169W        W63398   8.451   0.382  11.716
95170W        W63399   5.801   6.106  14.835
95171W        W63400  19.599  25.505   0.015
95172W        W63401  15.570  35.066   1.888
95173W        W63402  25.461  38.106   0.869
95174W        W63403  43.649  42.896   4.924
95175W        W63404  34.085  14.456  13.328
95176W        W63405  10.657   5.454  12.083
95177W        W63406  25.887   6.873  14.616
95178W        W63407  33.142  41.266  14.827
95179W        W63408   0.710  32.098   4.322
95180W        W63409  23.627  32.152   1.698
95181W        W63410  30.483   1.315   1.191
95182W        W63411  25.464  30.523  11.135
95183W        W63412  26.987  38.884   0.842
95184W        W63413  25.337  15.633  12.152
95185W        W63414  41.056  20.632   3.267
95186W        W63415   7.931   3.883  12.445
95187W        W63416  31.450  23.956   0.922
95188W        W63417  37.040   0.438  14.422
95189W        W63418  20.674  34.750   0.328
95190W        W63419  19.383  37.282   2.420
95191W        W63420   5.593  32.488   3.854
95192W        W63421   6.786  14.844  13.532
95193W        W63422  31.769  21.833   1.312
95194W        W63423  39.256  26.143  13.593
95195W        W63424  44.558   0.907   3.985
95196W        W63425   0.008  38.323   2.911
95197W        W63426  24.973  28.194  10.951
95198W        W63427  19.727  21.094   0.324
95199W        W63428  28.217   6.373   3.786
95200W        W63429  26.795   8.097  12.617
95201W        W63430   8.187  19.596   4.548
95202W        W63431  38.662  26.451  11.414
95203W        W63432  10.099  33.988  10.473
95204W        W63433   0.850   3.167   4.984
95205W        W63434  19.620  19.963  12.786
95206W        W63435  23.382  18.526   3.361
95207W        W63436   0.315  20.007  13.444
95208W        W63437  37.945  44.980   1.166
95209W        W63438  22.072  17.079  11.945
95210W        W63439  17.663  18.127  14.563
95211W        W63440  32.894  16.479  14.298
95212W        W63441   4.751   6.367  13.149
95213W        W63442   1.313   2.529  11.849
95214W        W63443  40.284  36.467  13.677
95215W        W63444  40.796  31.498   0.628
95216W        W63445  34.339  35.417  10.598
95217W        W63446   9.214  39.466  11.319
95218W        W63447  30.963  40.965   0.493
95219W        W63448  44.373  22.102   1.797
95220W        W63449  28.579  23.267   0.324
95221W        W63450  19.950  18.151  13.431
95222W        W63451  24.935  22.142  12.484
95223W        W63452  25.447  18.888  14.957
95224W        W63453  32.850  23.942  10.682
95225W        W63454  35.474   8.949  11.171
95226W        W63455  26.056  41.241   0.255
95227W        W63456  10.584  14.422  14.471
95228W        W63457  37.652  20.338  11.583
95229W        W63458  12.885   5.957  14.797
95230W        W63459   7.124  41.109  12.623
95231W        W63460  23.445  26.541   3.783
95232W        W63461  39.843  38.585  11.468
95233W        W63462  39.973  34.379   2.740
95234W        W63463  28.550   7.106   3.794
95235W        W63464  29.084   0.678   2.172
95236W        W63465  14.377  27.992  14.802
95237W        W63466  38.033  18.981   1.688
95238W        W63467  30.949  42.423   3.385
95239W        W63468   7.525  11.254   4.646
95240W        W63469  18.676  27.237  10.792
95241W        W63470  43.303  23.573  12.013
95242W        W63471  37.928  39.439   2.126
95243W        W63472  23.817   0.788   1.699
95244W        W63473  12.759  39.873  11.099
95245W        W63474  14.176  24.265  11.507
95246W        W63475  29.375   9.360  10.741
95247W        W63476   7.554   9.362  14.520
95248W        W63477  17.959   6.271   2.419
95249W        W63478  11.275  25.096  12.993
95250W        W63479  36.058  33.502   3.061
95251W        W63480  13.059  40.598  10.949
95252W        W63481  30.181   7.620   0.242
95253W        W63482  30.376  18.145   4.209
95254W        W63483  25.729  16.299   2.275
95255W        W63484  26.735   7.354  10.560
95256W        W63485  33.433  18.358  14.448
95257W        W63486   9.954   1.343   1.916
95258W        W63487   3.761  33.099   3.237
95259W        W63488  28.545  30.059   3.902
95260W        W63489  44.588  28.699   1.792
95261W        W63490  10.649  27.382  10.364
95262W        W63491  14.782  21.193   3.644
95263W        W63492  29.789  11.349   3.164
95264W        W63493  20.182  10.140   1.492
95265W        W63494   3.842  37.157  11.591
95266W        W63495   4.130  13.224  10.433
95267W        W63496  42.143  15.660   4.093
95268W        W63497  25.965   8.806  11.133
95269W        W63498  24.640  16.001  13.546
95270W        W63499  19.575   0.373   1.258
95271W        W63500  15.049  16.693  13.092
95272W        W63501  38.480  15.282   0.837
95273W        W63502  23.626  21.337  11.563
95274W        W63503   4.801  17.172   1.175
95275W        W63504  13.529   4.217  11.561
95276W        W63505   2.474  28.511   3.711
95277W        W63506  44.988   4.933   3.419
95278W        W63507  30.891  11.403  14.907
95279W        W63508  33.038  16.133   3.242
95280W        W63509  34.997  14.402  10.705
95281W        W63510  43.033   1.884   2.717
95282W        W63511  21.949  35.010   1.699
95283W        W63512  20.225  42.063   4.220
95284W        W63513  18.764   7.490   0.369
95285W        W63514  35.153  16.162   2.383
95286W        W63515  13.635  41.226   3.280
95287W        W63516  23.202  43.797   0.530
95288W        W63517  37.849  13.868   0.810
95289W        W63518  11.169   3.576   1.157
95290W        W63519  37.875  32.898   1.015
95291W        W63520  39.337  31.398  10.841
95292W        W63521  16.497   2.982  13.321
95293W        W63522  14.616   8.773   3.130
95294W        W63523  11.163  33.865  10.645
95295W        W63524  34.440  21.317   2.367
95296W        W63525  11.381  31.728   4.604
95297W        W63526  10.340  10.923  12.480
95298W        W63527  22.631  11.799  13.402
95299W        W63528  17.518   0.193   3.749
95300W        W63529  37.392  30.134  11.192
95301W        W63530  39.533  28.671  14.366
95302W        W63531   8.198  14.994  14.311
95303W        W63532  16.078  27.528  13.297
95304W        W63533   1.404  23.711   2.780
95305W        W63534  42.446   5.298   2.396
95306W        W63535  12.531  33.912   4.213
95307W        W63536  43.582  21.595   1.338
95308W        W63537  30.421  31.175  14.890
95309W        W63538  21.279   6.819   0.942
95310W        W63539  16.926   6.347  11.566
95311W        W63540  29.858  38.489   0.227
95312W        W63541   2.142  33.578  11.085
95313W        W63542  35.079  23.224   1.178
95314W        W63543  11.330  23.697   3.773
95315W        W63544  39.844   7.388   4.624
95316W        W63545   9.791  44.290  11.818
95317W        W63546   8.282  43.285   1.416
95318W        W63547  33.540  21.151  11.587
95319W        W63548   3.398  33.226  14.801
95320W        W63549   8.222  13.664  14.352
95321W        W63550  17.903  38.727  12.909
95322W        W63551  43.306  31.448   3.653
95323W        W63552  17.178  27.341  14.329
95324W        W63553  30.563  34.006  13.009
95325W        W63554  41.786   8.315  12.168
95326W        W63555  41.057  11.232  14.961
95327W        W63556  21.029  23.633   4.001
95328W        W63557  38.445  27.763  13.380
95329W        W63558   3.124  18.757  10.996
95330W        W63559   4.132   5.232  11.572
95331W        W63560  40.409  40.354   2.628
95332W        W63561  32.727   8.905   1.385
95333W        W63562  24.605   4.607   4.167
95334W        W63563  10.151  11.083   0.912
95335W        W63564  23.674   9.642   4.868
95336W        W63565  24.480  10.059   4.029
95337W        W63566  36.855  34.040   4.666
95338W        W63567  39.261  17.742   3.588
95339W        W63568  11.105   7.683   2.751
95340W        W63569  16.517  19.211   9.940
95341W        W63570   6.283  32.033   0.927
95342W        W63571  37.004  34.556   0.227
95343W        W63572   6.375  24.138   0.812
95344W        W63573   5.491  23.469  13.549
95345W        W63574   1.732  39.898  12.095
95346W        W63575   0.788  27.656   3.124
95347W        W63576  38.546   9.148   4.122
95348W        W63577  33.836  15.012  11.039
95349W        W63578  37.798  19.249  12.951
95350W        W63579   9.511  11.263   3.673
95351W        W63580  18.349  11.808  14.388
95352W        W63581  40.498  26.337  13.353
95353W        W63582  12.661  18.501   4.272
95354W        W63583  20.743  37.980  14.837
95355W        W63584   4.389  29.370   3.662
95356W        W63585   5.680  31.630   0.011
95357W        W63586  39.435  35.910   2.337
95358W        W63587   7.034   6.602  14.515
95359W        W63588  36.634  37.130  11.789
95360W        W63589  13.037   1.350  12.117
95361W        W63590  25.430   1.334  11.890
95362W        W63591  42.373   7.633   2.752
95363W        W63592  19.187  11.406  12.375
95364W        W63593  42.727  13.632  13.815
95365W        W63594  29.726  16.390  14.881
95366W        W63595  42.920  43.611  12.865
95367W        W63596  39.735  21.965   0.771
95368W        W63597  14.400  37.894  12.961
95369W        W63598  12.167  23.464   4.084
95370W        W63599  10.880   5.769  12.919
95371W        W63600  12.826  40.579   2.197
95372W        W63601  15.774  31.450  14.948
95373W        W63602  22.710  22.211  14.520
95374W        W63603  33.802   1.829   4.490
95375W        W63604  10.752  36.244  14.334
95376W        W63605   8.087   0.820  10.934
95377W        W63606  32.142  28.011  12.979
95378W        W63607  43.476  31.749  12.565
95379W        W63608  30.002   9.819  10.772
95380W        W63609  24.206  33.355   2.712
95381W        W63610  34.188  19.774   0.382
95382W        W63611  41.066  36.369  14.058
95383W        W63612  42.786  42.514   1.333
95384W        W63613  28.944  14.279  14.769
95385W        W63614  14.742   5.707   1.433
95386W        W63615  35.501  37.529  12.080
95387W        W63616   5.869  24.419  13.478
95388W        W63617   6.251  43.940  13.973
95389W        W63618  31.432  35.367  10.803
95390W        W63619  38.745  23.274  11.580
95391W        W63620   7.753  36.938  12.882
95392W        W63621   3.213  36.249   3.496
95393W        W63622  22.598  13.896   1.523
95394W        W63623  13.698   8.396   1.422
95395W        W63624  27.624  14.794  10.393
95396W        W63625  41.740   8.543  14.974
95397W        W63626  17.208  10.420  13.004
95398W        W63627  19.829  44.733  12.528
95399W        W63628   2.586  22.121   1.247
95400W        W63629  38.776   9.700   1.839
95401W        W63630  28.992  17.808   0.457
95402W        W63631   9.278  16.557   3.203
95403W        W63632  39.885  26.701   2.320
95404W        W63633  22.146  28.185   4.925
95405W        W63634  15.875  30.602  12.418
95406W        W63635  37.908  34.464   3.239
95407W        W63636  18.586   4.218   3.650
95408W        W63637  25.577  39.751   4.510
95409W        W63638  17.062   2.960  13.372
95410W        W63639  15.082   7.316  13.566
95411W        W63640  24.581  27.189   3.168
95412W        W63641   6.659  38.821  13.919
95413W        W63642  13.563  15.757   3.232
95414W        W63643   0.576  42.022  14.326
95415W        W63644   0.911  15.317   4.143
95416W        W63645  24.386  10.267  11.342
95417W        W63646  24.694  18.384   2.663
95418W        W63647  39.488  43.049   2.129
95419W        W63648  15.285   3.593   4.091
95420W        W63649  10.337  38.810  13.910
95421W        W63650  31.128  34.504  14.795
95422W        W63651   7.024  27.484   3.498
95423W        W63652  40.327   8.715   5.156
95424W        W63653   2.657  18.477   0.030
95425W        W63654  44.244  34.107  13.559
95426W        W63655  31.941  21.281   0.209
95427W        W63656  19.995  44.894  14.516
95428W        W63657  11.943  44.121   0.057
95429W        W63658  29.219  28.930  12.024
95430W        W63659  42.043  24.706   1.476
95431W        W63660   9.325  10.484   3.889
95432W        W63661   7.672  34.205  14.561
95433W        W63662  20.384  14.638   4.375
95434W        W63663   4.388  34.622  14.282
95435W        W63664  19.726  41.675  10.732
95436W        W63665  16.823  17.483  14.908
95437W        W63666  12.186  17.674   2.276
95438W        W63667   8.412  14.129   2.660
95439W        W63668   1.946  38.401   0.935
95440W        W63669   7.892  28.019  12.539
95441W        W63670  19.031   8.433   4.907
95442W        W63671  12.643  20.478   2.977
95443W        W63672  40.219  12.888  11.195
95444W        W63673  38.267  27.583  11.119
95445W        W63674  31.514  22.289  10.645
95446W        W63675  39.494   6.197   4.163
95447W        W63676   2.248  42.462  10.709
95448W        W63677  10.711  37.388  11.273
95449W        W63678  44.165  29.990   2.790
95450W        W63679   6.212  37.690  10.017
95451W        W63680  11.767  29.464   1.752
95452W        W63681   4.172   0.736   4.704
95453W        W63682  35.600  43.825   0.168
95454W        W63683  14.170  38.363  10.957
95455W        W63684   8.652  35.886   2.821
95456W        W63685   6.211   9.412   2.649
95457W        W63686  17.674  26.771   1.391
95458W        W63687  11.246  10.288  10.596
95459W        W63688  26.263  12.629  13.982
95460W        W63689  30.149  31.172  14.278
95461W        W63690  41.084  23.420   2.906
95462W        W63691   1.705   2.375  11.546
95463W        W63692  38.000  14.595  12.170
95464W        W63693   8.811  13.557   4.574
95465W        W63694  20.355  28.433   0.476
95466W        W63695  33.621  19.300   0.256
95467W        W63696  34.921   3.455   3.035
95468W        W63697  44.219  23.640   5.242
95469W        W63698  24.143  37.637   3.290
95470W        W63699  40.650  31.159   1.498
95471W        W63700   5.468  17.483  10.701
95472W        W63701  18.270  38.825   4.603
95473W        W63702   6.128   6.652  13.440
95474W        W63703  10.860  39.460  11.084
95475W        W63704  38.375  37.064  12.428
95476W        W63705  17.693   6.663   3.282
95477W        W63706   0.689  31.590  12.460
95478W        W63707  34.001  31.023   2.841
95479W        W63708   2.770  20.682   1.437
95480W        W63709  15.468  26.023  12.126
95481W        W63710   8.184  13.283  13.344
95482W        W63711   6.492  31.484   1.806
95483W        W63712   2.218   4.868  13.809
95484W        W63713  18.774   3.290  13.595
95485W        W63714  29.578  39.976  11.601
95486W        W63715  17.854  21.761  13.032
95487W        W63716   6.741   2.444   2.971
95488W        W63717  13.856  12.138  12.048
95489W        W63718   7.921  10.451  13.573
95490W        W63719  16.394  24.587   2.290
95491W        W63720  12.934  21.665   4.934
95492W        W63721  37.325  12.410  11.822
95493W        W63722  25.473  29.970  14.721
95494W        W63723   5.456  39.470   0.793
95495W        W63724  17.887   6.908   4.351
95496W        W63725  13.641  15.533   2.759
95497W        W63726   3.892  10.884   0.765
95498W        W63727  27.968  36.890  10.989
95499W        W63728  29.614  43.013  12.636
95500W        W63729  41.018  40.242   2.199
95501W        W63730  16.007  27.932   4.831
95502W        W63731  29.946   5.877   1.230
95503W        W63732  39.251  17.573   0.544
95504W        W63733  22.992  37.690  11.066
95505W        W63734   3.924  21.838   3.461
95506W        W63735  43.334  44.597  14.504
95507W        W63736  18.234  20.093  10.699
95508W        W63737   9.742  19.765   3.742
95509W        W63738   3.968   8.185  13.927
95510W        W63739  27.439  20.630   1.238
95511W        W63740  14.655  43.250   1.042
95512W        W63741  30.604  24.543   2.169
95513W        W63742  14.702  39.959   4.645
95514W        W63743  27.896  27.614   1.902
95515W        W63744   2.880  44.332  14.961
95516W        W63745   7.298  16.840  14.813
95517W        W63746  18.229  33.428  12.669
95518W        W63747   0.294  12.159  14.386
95519W        W63748  30.592  13.088  14.718
95520W        W63749  14.067  21.743  11.114
95521W        W63750   6.355   0.409   0.957
95522W        W63751  19.182  21.019   4.611
95523W        W63752  40.060  28.578  11.724
95524W        W63753  34.368  43.495  14.797
95525W        W63754  40.851  24.037   4.600
95526W        W63755  44.829   9.834   1.544
95527W        W63756  24.132  28.252  10.726
95528W        W63757  20.276  28.156   4.121
95529W        W63758  10.014  40.712   4.230
95530W        W63759  13.358  40.440  10.562
95531W        W63760  31.968   3.530  12.986
95532W        W63761  37.979  17.710   0.016
95533W        W63762  19.502   9.246  13.603
95534W        W63763   4.134  23.888  12.950
95535W        W63764  11.750  31.441  14.085
95536W        W63765  42.869  30.007  10.719
95537W        W63766   9.184  16.037   3.180
95538W        W63767   5.247   5.201  12.137
95539W        W63768  33.462  32.459  11.943
95540W        W63769  15.868   8.385   4.470
95541W        W63770   3.429  16.922  11.631
95542W        W63771  24.327  35.401   4.522
95543W        W63772  11.147  29.085  12.138
95544W        W63773  13.133  10.543   4.842
95545W        W63774  36.163  15.034   3.815
95546W        W63775  37.623   6.251   2.792
95547W        W63776  25.934  18.828   2.460
95548W        W63777  17.254  15.242   4.814
95549W        W63778   9.732  16.865   3.246
95550W        W63779  38.461  26.143  14.456
95551W        W63780  19.875  26.918   4.658
95552W        W63781  17.559  20.191  12.099
95553W        W63782  41.455  42.075  10.684
95554W        W63783  20.272  16.010  14.942
95555W        W63784  12.003  38.633  13.615
95556W        W63785  41.595   0.252  14.804
95557W        W63786   0.800  30.935  12.974
95558W        W63787  38.756  41.160   4.694
95559W        W63788  18.674  25.601   4.317
95560W        W63789  42.537  13.335   2.171
95561W        W63790   6.534   2.717   2.212
95562W        W63791  27.520  30.170  10.694
95563W        W63792  42.446  15.200  13.942
95564W        W63793  18.663  14.306   1.476
95565W        W63794   1.209  37.986  13.780
95566W        W63795   4.469  42.392   3.700
95567W        W63796  19.289  12.354   3.159
95568W        W63797  28.631   6.137  10.677
95569W        W63798  13.208  19.435  13.586
95570W        W63799  38.582  15.792   4.626
95571W        W63800  22.641  21.115  11.159
95572W        W63801   3.472  41.597  12.029
95573W        W63802   0.303  19.949  14.501
95574W        W63803  12.274  27.510   1.943
95575W        W63804  31.065  37.971   2.668
95576W        W63805  19.744  16.189   2.876
95577W        W63806  23.954  11.560  14.621
95578W        W63807  38.270  12.676  12.129
95579W        W63808  15.636  35.825  12.423
95580W        W63809  28.324  31.954  12.971
95581W        W63810  35.603   4.397   0.895
95582W        W63811  15.750  42.801   4.123
95583W        W63812   7.151  24.741  14.926
95584W        W63813  40.195   2.893  11.554
95585W        W63814  11.231  43.903  12.119
95586W        W63815  43.282   0.869  10.687
95587W        W63816  18.086  26.133   3.968
95588W        W63817  11.431  12.870  12.556
95589W        W63818  30.674  28.206   0.797
95590W        W63819  39.853  11.905   0.810
95591W        W63820  29.962  18.926  13.613
95592W        W63821  18.749  38.238   3.555
95593W        W63822  43.567   0.283   2.238
95594W        W63823  12.363   3.396   0.989
95595W        W63824  10.893  40.281  12.514
95596W        W63825  36.877   4.004   1.665
95597W        W63826  15.579  36.440  13.570
95598W        W63827  38.787  12.559  13.424
95599W        W63828  14.731   4.760  11.527
95600W        W63829  31.279  28.890  11.965
95601W        W63830  22.955  17.342   1.387
95602W        W63831  41.725   2.448  13.756
95603W        W63832  10.077  29.301   2.338
95604W        W63833  29.990  24.458  10.543
95605W        W63834  35.157  32.634  14.119
95606W        W63835  30.903  16.724  12.543
95607W        W63836  28.864  42.594   0.520
95608W        W63837  40.742  42.851   0.791
95609W        W63838  38.329  38.720   2.688
95610W        W63839   2.749  19.581   2.389
95611W        W63840  18.010  26.033  14.016
95612W        W63841  24.647  37.391  13.453
95613W        W63842  15.796   8.899   4.539
95614W        W63843  11.262  38.410  14.260
95615W        W63844   5.211  31.487   2.267
95616W        W63845   1.484  30.651  11.128
95617W        W63846  41.436  42.701   0.804
95618W        W63847  35.023   3.158   0.851
95619W        W63848  14.220  13.307   4.809
95620W        W63849  31.817   4.511   4.899
95621W        W63850  12.801   8.846  11.567
95622W        W63851  31.445   0.869  12.017
95623W        W63852   9.811   3.493   5.088
95624W        W63853  42.563  34.540   4.830
95625W        W63854  13.309   7.695   2.636
95626W        W63855  41.785  18.982   1.280
95627W        W63856   3.101   9.840   4.281
95628W        W63857   8.179  41.476   1.748
95629W        W63858  43.306  26.418   3.604
95630W        W63859   7.544   2.359   4.144
95631W        W63860  34.404  36.971   0.625
95632W        W63861   3.685  13.139  12.663
95633W        W63862  24.514  23.979  10.681
95634W        W63863  29.480  34.926   0.227
95635W        W63864   0.005  32.375  13.285
95636W        W63865  33.416  12.859  11.702
95637W        W63866  24.659   0.030  13.886
95638W        W63867  11.347  36.380   1.812
95639W        W63868  42.453  13.274   4.230
95640W        W63869  41.088  18.777  14.945
95641W        W63870  41.323  23.856  13.984
95642W        W63871  21.574  17.358   1.826
95643W        W63872  25.213  19.586  14.046
95644W        W63873  32.181  37.508  12.537
95645W        W63874  24.188  41.560   1.952
95646W        W63875  22.986   7.965  13.030
95647W        W63876  39.512  29.880   0.477
95648W        W63877  36.115  41.109  12.206
95649W        W63878  17.541  35.117   0.405
95650W        W63879  14.731  16.275  13.284
95651W        W63880  41.846   7.408  13.810
95652W        W63881  16.621  10.316   1.923
95653W        W63882  10.283  39.259   2.930
95654W        W63883   3.850  40.699  13.615
95655W        W63884  20.739  33.937   1.410
95656W        W63885  40.819  20.894  14.364
95657W        W63886  41.441   4.245   3.629
95658W        W63887  26.732  24.038   2.931
95659W        W63888   0.190  40.542   0.422
95660W        W63889  41.321  39.955  14.394
95661W        W63890   4.376   6.694  13.545
95662W        W63891  35.575  27.642  10.723
95663W        W63892   5.304  14.679   4.292
95664W        W63893  38.352  10.906  11.467
95665W        W63894  18.244  20.766  14.329
95666W        W63895  33.880  19.243   4.176
95667W        W63896  24.985  17.691  13.841
95668W        W63897  30.601  11.335  12.167
95669W        W63898  34.825  19.174   3.123
95670W        W63899  32.160  43.007   2.335
95671W        W63900   1.319  37.460  12.042
95672W        W63901   1.337  17.819  14.417
95673W        W63902   1.165  42.926   4.584
95674W        W63903  36.082  28.394  10.980
95675W        W63904  38.893  36.969   1.210
95676W        W63905  32.977  37.909  12.946
95677W        W63906  11.733  33.890   4.577
95678W        W63907  36.447   3.325  13.517
95679W        W63908  17.077  26.172  12.480
95680W        W63909  14.343  15.644  12.099
95681W        W63910  34.314  44.796  14.938
95682W        W63911   6.160  36.413  14.089
95683W        W63912   8.751  27.599  13.355
95684W        W63913  16.587  44.246   3.906
95685W        W63914  17.995   0.047  13.779
95686W        W63915  40.002  18.855   3.367
95687W        W63916  35.105  29.764  12.356
95688W        W63917   3.182  33.165  11.365
95689W        W63918  24.773   8.396  12.549
95690W        W63919  42.947   8.694   3.287
95691W        W63920  16.615  34.386  12.912
95692W        W63921  26.520  40.969   2.633
95693W        W63922  29.588  26.643   2.983
95694W        W63923  27.459  11.586  11.195
95695W        W63924  20.681  36.077  11.491
95696W        W63925  11.733  10.569   9.924
95697W        W63926  42.265  42.868  14.395
95698W        W63927   5.218  43.965  11.053
95699W        W63928  21.979   7.964  11.478
95700W        W63929   6.737  39.827   2.334
95701W        W63930   1.910  12.444  12.272
95702W        W63931  22.668  36.617  14.929
95703W        W63932  23.989  27.586   2.723
95704W        W63933  14.325  42.494   2.307
95705W        W63934   4.261  15.304  12.539
95706W        W63935   9.407  43.365  11.998
95707W        W63936   4.435  17.150  12.142
95708W        W63937  27.493   0.952  13.581
95709W        W63938   7.382  31.980   3.705
95710W        W63939  22.555   0.709  11.214
95711W        W63940  41.978  30.767   5.499
95712W        W63941  38.524  19.656  13.516
95713W        W63942  30.127  11.822  14.809
95714W        W63943  17.622  44.224  10.689
95715W        W63944  17.144   1.666  12.470
95716W        W63945  29.992  31.519  13.163
95717W        W63946   9.464  23.791  10.972
95718W        W63947  42.037  24.204  14.210
95719W        W63948  30.351  11.858  11.486
95720W        W63949  39.946  28.814   2.858
95721W        W63950  14.326  19.450  11.556
95722W        W63951  37.521  34.440   0.468
95723W        W63952  11.737  27.534   0.847
95724W        W63953  30.834  16.787   3.167
95725W        W63954  15.425   0.051  13.319
95726W        W63955  18.879  34.892  13.724
95727W        W63956  31.158  26.776   2.222
95728W        W63957  21.629  36.565   2.468
95729W        W63958  35.627   2.536   0.642
95730W        W63959  13.328   9.223   2.508
95731W        W63960  41.396  20.057   1.894
95732W        W63961  43.730  13.338   0.041
95733W        W63962   1.328   0.754   3.601
95734W        W63963  25.546  17.350  12.017
95735W        W63964   9.701   6.505   1.361
95736W        W63965  35.000  38.121   0.389
95737W        W63966  22.562  30.804  12.320
95738W        W63967  22.963  21.241  13.399
95739W        W63968  30.670   3.927  14.933
95740W        W63969  35.533   3.225  12.493
95741W        W63970  15.525  26.932  14.398
95742W        W63971   5.391  29.132   4.247
95743W        W63972  27.188  14.680   3.163
95744W        W63973  44.296  20.697  12.995
95745W        W63974   7.302  28.478   1.739
95746W        W63975  42.289  19.129   4.065
95747W        W63976   1.750  18.880  12.403
95748W        W63977  41.258  36.877   3.641
95749W        W63978   6.853  12.412  12.958
95750W        W63979   8.156  25.492  13.537
95751W        W63980  43.316   8.186   3.810
95752W        W63981   8.976  32.651  10.578
95753W        W63982  39.575  44.937  13.401
95754W        W63983  13.219  29.931  14.301
95755W        W63984  43.857  34.425   1.823
95756W        W63985  44.214  35.445  13.870
95757W        W63986  44.313  15.206  11.066
95758W        W63987  10.428  13.288   0.786
95759W        W63988  29.033   8.486  12.660
95760W        W63989   6.860  19.025  13.301
95761W        W63990   6.720   0.985   0.831
95762W        W63991  31.657  30.026   1.722
95763W        W63992  34.462   8.126   4.104
95764W        W63993   1.617  36.351  14.252
95765W        W63994  38.249  17.067  12.946
95766W        W63995  10.302  13.787  11.989
95767W        W63996   4.530  29.503   4.515
95768W        W63997   0.700  43.386  12.177
95769W        W63998  25.997  31.961   3.290
95770W        W63999   0.350   4.388   1.666
95771W        W64000  21.965  23.320  11.158
95772W        W64001  27.663  15.066   0.982
95773W        W64002  16.107  29.663   4.433
95774W        W64003   2.892  37.496   1.233
95775W        W64004  37.616  22.996   0.308
95776W        W64005  31.156  18.433   1.806
95777W        W64006   0.259  32.376  14.718
95778W        W64007  30.460   9.376   2.244
95779W        W64008  39.570  43.240  13.141
95780W        W64009  23.657  13.346  14.179
95781W        W64010  29.263  24.016  14.764
95782W        W64011  29.011  34.322   3.270
95783W        W64012  10.546  24.765   1.152
95784W        W64013  29.598  22.017  14.389
95785W        W64014  23.108   2.947   0.533
95786W        W64015  25.620  37.416  10.923
95787W        W64016  31.864  38.962  11.094
95788W        W64017  24.869  13.694   3.788
95789W        W64018   8.680  20.296  11.006
95790W        W64019  38.260  43.292   1.379
95791W        W64020   0.480  35.381  13.472
95792W        W64021  32.509   4.300   1.856
95793W        W64022   9.594  38.136   0.325
95794W        W64023  37.527  16.371  14.058
95795W        W64024   3.396  12.865   2.687
95796W        W64025  12.668  43.514   2.444
95797W        W64026  34.511  25.168  13.055
95798W        W64027  12.165  37.832  12.535
95799W        W64028  41.447  41.888   3.406
95800W        W64029  30.409  32.893   0.833
95801W        W64030  25.518   6.924   0.822
95802W        W64031  22.120  31.034   0.889
95803W        W64032  15.543  39.492  13.076
95804W        W64033  20.707  14.076  13.496
95805W        W64034  27.525  41.743  12.019
95806W        W64035   1.075  19.094  11.712
95807W        W64036  26.725   3.702  11.048
95808W        W64037   2.582  37.587  12.005
95809W        W64038  15.511  20.680   4.556
95810W        W64039  30.061  43.515   1.201
95811W        W64040  20.366  39.228  11.539
95812W        W64041   7.637  37.205  12.174
95813W        W64042  39.819  37.074  10.755
95814W        W64043   1.891   1.715   1.182
95815W        W64044   1.894   8.283   1.500
95816W        W64045  30.424  28.734  14.882
95817W        W64046  30.486  32.540  13.757
95818W        W64047  13.176  26.375  11.461
95819W        W64048  34.060  24.541  14.108
95820W        W64049  31.821  38.354   1.275
95821W        W64050  23.098  23.279   1.644
95822W        W64051  37.248  28.098  11.623
95823W        W64052  29.558  23.783   3.301
95824W        W64053  23.750  12.944   1.703
95825W        W64054   3.771   8.009   0.782
95826W        W64055  16.107  19.047   2.177
95827W        W64056  13.821  11.785  11.510
95828W        W64057   0.132  13.761  13.570
95829W        W64058  40.373  26.942  12.526
95830W        W64059  32.058  38.364   1.778
95831W        W64060   2.111  20.584  12.732
95832W        W64061  27.502  27.947   2.235
95833W        W64062  14.580   6.821   0.465
95834W        W64063   7.547  16.171   4.075
95835W        W64064   4.374  18.929   0.215
95836W        W64065   0.341  12.268   3.900
95837W        W64066  14.785  20.108  14.831
95838W        W64067  33.176   7.697  12.968
95839W        W64068  25.260  43.758   4.187
95840W        W64069  22.271  13.399  14.762
95841W        W64070  43.384   1.629  11.623
95842W        W64071  24.762  43.841  11.470
95843W        W64072  40.916  14.173  13.520
95844W        W64073  40.955  17.021   3.148
95845W        W64074  43.285  30.126   0.874
95846W        W64075  20.332   1.244   2.830
95847W        W64076  44.030   8.603   0.237
95848W        W64077   1.940  11.300   1.204
95849W        W64078  36.010  19.939  12.999
95850W        W64079  28.081  11.566   2.257
95851W        W64080   2.401  13.593  14.889
95852W        W64081  16.370  28.239   2.494
95853W        W64082  44.881   5.306  12.292
95854W        W64083  25.826   8.947  13.243
95855W        W64084  26.641  37.955  14.943
95856W        W64085  22.353  36.330   0.773
95857W        W64086  26.622   2.288   1.043
95858W        W64087  31.253  19.997   3.619
95859W        W64088   6.369  43.435   0.203
95860W        W64089   5.899  10.396  14.391
95861W        W64090   6.053   3.913   4.419
95862W        W64091  34.229  40.764  11.142
95863W        W64092   0.386   7.899   0.908
95864W        W64093   5.660  40.266   1.269
95865W        W64094   9.106  35.443   0.494
95866W        W64095   3.054   9.360  12.644
95867W        W64096  28.563  11.543   1.581
95868W        W64097  31.518  27.424   1.433
95869W        W64098  37.462  42.249   1.480
95870W        W64099  30.667  30.676   2.405
95871W        W64100  16.473  36.093   3.170
95872W        W64101  29.349  35.412   3.570
95873W        W64102  34.351   7.255  14.908
95874W        W64103  37.488   8.725  14.876
95875W        W64104  10.013   4.806  14.413
95876W        W64105  43.451  41.795   1.481
95877W        W64106  23.301   5.155   4.140
95878W        W64107  32.023  26.475   4.235
95879W        W64108   8.840   5.398   0.886
95880W        W64109  34.875  17.212  13.325
95881W        W64110   6.526   2.614   4.091
95882W        W64111  42.839   0.908  14.932
95883W        W64112  21.336   9.955  14.037
95884W        W64113  43.730  12.371   4.177
95885W        W64114  11.039  18.984  11.941
95886W        W64115  20.089  32.738   3.605
95887W        W64116   5.910  30.505   2.317
95888W        W64117  29.708  37.019   4.425
95889W        W64118  13.975   6.488  11.969
95890W        W64119   6.724  11.786  14.903
95891W        W64120  14.292  20.941   1.876
95892W        W64121  25.987  27.286   3.218
95893W        W64122  15.406   9.842   0.938
95894W        W64123  32.493  14.507   2.724
95895W        W64124   2.703  26.575   3.757
95896W        W64125   9.670  24.365   3.761
95897W        W64126  29.682  28.370  14.421
95898W        W64127  14.582  21.017  11.555
95899W        W64128  35.834   4.422   3.234
95900W        W64129  37.736   8.346  11.164
95901W        W64130  39.882   2.384   1.716
95902W        W64131  13.159  15.516  12.870
95903W        W64132  44.096  26.182  11.198
95904W        W64133  24.606  27.160  13.526
95905W        W64134   4.864  14.820   4.675
95906W        W64135  18.722  34.100   2.787
95907W        W64136   4.822  36.667  10.488
95908W        W64137   9.925  41.563   0.826
95909W        W64138  38.852  36.929   0.702
95910W        W64139  28.412  28.645  10.399
95911W        W64140   9.143   2.211   2.791
95912W        W64141  43.232   3.273  12.054
95913W        W64142  15.873  43.536  13.873
95914W        W64143   3.706  29.210  11.824
95915W        W64144  40.521  34.669   1.772
95916W        W64145  32.479  21.593  13.226
95917W        W64146  23.670   6.182  10.789
95918W        W64147   7.189  19.729   1.821
95919W        W64148  33.911  42.458  10.894
95920W        W64149  30.467  31.655   2.144
95921W        W64150  25.896  18.689  12.055
95922W        W64151  29.587  18.182   0.996
95923W        W64152  37.804  25.512   5.406
95924W        W64153  17.603   5.898  12.183
95925W        W64154  40.426   0.081   2.859
95926W        W64155  13.677  14.533   3.632
95927W        W64156  44.879  41.606   1.564
95928W        W64157  33.511   4.025   2.243
95929W        W64158  44.920  23.066  11.418
95930W        W64159  35.181  29.359   4.879
95931W        W64160  36.283  32.497  11.861
95932W        W64161   8.440  44.828   1.825
95933W        W64162  34.935   7.158   4.719
95934W        W64163  21.697  17.563   0.288
95935W        W64164  16.038  39.823  11.649
95936W        W64165  34.954  14.176   3.587
95937W        W64166  44.525  11.346  14.878
95938W        W64167  28.577  30.192  14.416
95939W        W64168   0.979  21.474   4.338
95940W        W64169  37.509  35.358   1.306
95941W        W64170  36.449  20.533   0.249
95942W        W64171  26.361  44.530  14.791
95943W        W64172   6.752  23.540   3.381
95944W        W64173  36.306  40.449   0.292
95945W        W64174  12.588  15.761  11.434
95946W        W64175  17.344  19.568   0.977
95947W        W64176  36.406  35.921  12.350
95948W        W64177   7.111  36.374  11.100
95949W        W64178  43.336  42.163   0.494
95950W        W64179  38.371  43.762  14.345
95951W        W64180  15.823   1.354   4.241
95952W        W64181  14.361  16.768   2.648
95953W        W64182  11.247  35.559   2.179
95954W        W64183   8.353   3.176   0.454
95955W        W64184  25.628  10.784  12.985
95956W        W64185   0.324  38.592   1.477
95957W        W64186  40.544  34.375  14.814
95958W        W64187  28.593  15.138   0.435
95959W        W64188  24.876  13.814  13.745
95960W        W64189   4.354  23.216  13.935
95961W        W64190   2.711  27.560   3.679
95962W        W64191  25.017  14.822  13.405
95963W        W64192  15.292  28.084  12.679
95964W        W64193  43.464  30.362  14.839
95965W        W64194  10.065  26.329  13.954
95966W        W64195   1.839   0.900   3.686
95967W        W64196  24.395   5.177  11.665
95968W        W64197  35.082  32.878  13.608
95969W        W64198  22.082  38.933  12.730
95970W        W64199  38.841  38.001  13.034
95971W        W64200  21.229  20.072   0.943
95972W        W64201  15.030   6.724   4.624
95973W        W64202  10.645  12.847  11.876
95974W        W64203  32.496  37.422   4.669
95975W        W64204  13.425  34.177   3.942
95976W        W64205  43.344   9.097  14.417
95977W        W64206   5.934  34.830  14.902
95978W        W64207  16.121  43.168  11.168
95979W        W64208   3.726  38.018  12.003
95980W        W64209  36.565  33.624  14.966
95981W        W64210  37.882   7.239   4.295
95982W        W64211  41.709   6.366  13.809
95983W        W64212  17.844  15.161  11.419
95984W        W64213  26.829  20.214  11.182
95985W        W64214  12.715  21.695   4.192
95986W        W64215   6.884  28.874   3.394
95987W        W64216  33.927   0.857   3.046
95988W        W64217  44.285  28.459  13.922
95989W        W64218  30.046   0.876  14.715
95990W        W64219  34.097   0.919   2.051
95991W        W64220  30.986  12.608   0.919
95992W        W64221  43.102   2.404   2.709
95993W        W64222  25.132  11.570   2.705
95994W        W64223  19.028  10.185   3.717
95995W        W64224  43.517  19.796  12.023
95996W        W64225   2.992   7.685  13.059
95997W        W64226  37.438  16.793  13.137
95998W        W64227  15.760  18.856  12.681
95999W        W64228   5.869   2.670  11.334
96000W        W64229  26.637  24.851   4.856
96001W        W64230  23.556   3.190   2.360
96002W        W64231  27.679  23.058  14.365
96003W        W64232  31.922   0.399   4.581
96004W        W64233  44.894  34.567  13.851
96005W        W64234   5.741  18.583   1.942
96006W        W64235  38.092  19.498   1.707
96007W        W64236  31.150  15.655  10.653
96008W        W64237   5.922   7.429  11.685
96009W        W64238  41.257   7.782   3.042
96010W        W64239  42.435  34.058   4.651
96011W        W64240  32.921  11.578  11.821
96012W        W64241  19.190  35.405  12.481
96013W        W64242  41.866  39.267   2.261
96014W        W64243  38.894  42.710  12.024
96015W        W64244  33.531   4.806  13.045
96016W        W64245  17.867   5.506   3.555
96017W        W64246  36.045   5.813  10.881
96018W        W64247  44.095  17.264   4.518
96019W        W64248  24.534   2.351  13.201
96020W        W64249  12.439   3.235  11.473
96021W        W64250  19.626  10.572  14.826
96022W        W64251  12.336  13.646   1.326
96023W        W64252  40.108  11.988   3.180
96024W        W64253  26.951  24.687   4.445
96025W        W64254  17.638  24.070   3.533
96026W        W64255  12.052   2.366  11.620
96027W        W64256  36.616   6.041  10.063
96028W        W64257  29.693  35.054   2.250
96029W        W64258  41.465  34.568  11.975
96030W        W64259  39.097   8.943   2.281
96031W        W64260   2.773   5.156   1.378
96032W        W64261   4.785   4.616  12.737
96033W        W64262  40.569   5.714  14.482
96034W        W64263  40.633  38.960   2.697
96035W        W64264   8.929  44.546  10.784
96036W        W64265  25.833  23.622   3.725
96037W        W64266  26.260  39.912   1.459
96038W        W64267  41.364  31.771   9.955
96039W        W64268  15.343  29.681   3.497
96040W        W64269   0.934  25.454   0.924
96041W        W64270  30.188  13.844  13.786
96042W        W64271  39.520  24.986  14.835
96043W        W64272  10.482  32.129  14.309
96044W        W64273  12.611   7.283   1.713
96045W        W64274  28.753  35.497  10.758
96046W        W64275  21.562  39.064   3.392
96047W        W64276  29.188  34.929   2.224
96048W        W64277  24.669  13.579   2.491
96049W        W64278  33.850  25.450  13.038
96050W        W64279  14.131   9.491   3.319
96051W        W64280  18.541  13.492  10.838
96052W        W64281  15.803   3.982   3.205
96053W        W64282  30.978  40.103   0.791
96054W        W64283   8.744  14.300   2.284
96055W        W64284  16.096  29.990   1.687
96056W        W64285  28.949  27.741  13.987
96057W        W64286  44.323  31.121   4.495
96058W        W64287   6.874   7.166  11.526
96059W        W64288   5.211  12.686   2.324
96060W        W64289   4.628   8.391   4.834
96061W        W64290  32.024  18.583  13.302
96062W        W64291  15.226  42.067   1.623
96063W        W64292  16.157   3.964  12.022
96064W        W64293  31.425  14.289   0.424
96065W        W64294   0.873  13.106  14.689
96066W        W64295  10.385  12.781  12.327
96067W        W64296   7.628   8.884   4.602
96068W        W64297  17.208  27.691   4.487
96069W        W64298  41.396  16.503  12.953
96070W        W64299  44.496  32.012  12.572
96071W        W64300  34.532  18.026   0.871
96072W        W64301  21.759  30.448   4.230
96073W        W64302  40.482  31.910  10.453
96074W        W64303  37.014  33.406  13.912
96075W        W64304  42.778  23.263  12.613
96076W        W64305  25.000   5.169  10.997
96077W        W64306   2.551  37.819  14.412
96078W        W64307  44.998  12.689  11.699
96079W        W64308  43.326  15.556  12.098
96080W        W64309  26.570  37.296  13.287
96081W        W64310  30.380  13.077  13.804
96082W        W64311   3.301  32.642   2.765
96083W        W64312  17.624  43.443   1.331
96084W        W64313  20.052  25.005   4.480
96085W        W64314  33.079   7.332   2.653
96086W        W64315  33.672  26.745  10.076
96087W        W64316   3.430  34.494   9.812
96088W        W64317  13.740  14.892   0.747
96089W        W64318  44.047  36.098  11.573
96090W        W64319  35.822  11.147   3.723
96091W        W64320  13.419  15.260   3.200
96092W        W64321   5.949   9.498   4.253
96093W        W64322  30.261  35.184  11.137
96094W        W64323  14.019   7.838  12.203
96095W        W64324  26.844  37.180   2.778
96096W        W64325  17.723  27.047   1.837
96097W        W64326   7.789   1.024  13.401
96098W        W64327  15.058  22.521   2.794
96099W        W64328  32.965  12.668   1.467
96100W        W64329  26.495  24.480  14.509
96101W        W64330  11.381  21.716  11.057
96102W        W64331  13.161  26.920  11.562
96103W        W64332  17.892  10.981   0.910
96104W        W64333   5.454  34.051   2.854
96105W        W64334  39.950  35.940   4.405
96106W        W64335  29.109  23.076   1.189
96107W        W64336   2.780   2.829   3.256
96108W        W64337  43.806  23.545   1.832
96109W        W64338  32.187   6.448   4.595
96110W        W64339  37.389   1.679   4.098
96111W        W64340  31.629  25.579   4.545
96112W        W64341  44.319  27.746  14.447
96113W        W64342  15.167  13.621  12.567
96114W        W64343  16.111  25.108  11.571
96115W        W64344  28.093  43.046   1.987
96116W        W64345   1.989  14.014  11.588
96117W        W64346  25.018  37.334   1.962
96118W        W64347  25.975   2.445   4.955
96119W        W64348  30.413  11.864   1.026
96120W        W64349   3.990  41.035  14.443
96121W        W64350  29.412  39.934   2.359
96122W        W64351  36.460  11.613  13.053
96123W        W64352   2.262  26.452   0.246
96124W        W64353  25.367  18.918   4.604
96125W        W64354  43.026  20.190  12.529
96126W        W64355  38.482  36.307   4.636
96127W        W64356  10.584   9.830  14.946
96128W        W64357  12.104   7.059   3.847
96129W        W64358  40.067  21.472  10.998
96130W        W64359   6.390  41.481   0.810
96131W        W64360  28.407  36.555   0.460
96132W        W64361  35.633   5.843  11.176
96133W        W64362  17.515  34.489   4.682
96134W        W64363  12.897  15.114   1.491
96135W        W64364   2.856  39.242  14.736
96136W        W64365  29.079  27.038   4.650
96137W        W64366  28.966  11.827  11.015
96138W        W64367   9.425  23.628   5.103
96139W        W64368   4.826  24.762   3.643
96140W        W64369  43.433  20.587   3.364
96141W        W64370  40.733  36.922  12.785
96142W        W64371  13.506  18.040   0.704
96143W        W64372  14.338  41.116  10.381
96144W        W64373  26.757  36.386  12.410
96145W        W64374  31.127  32.802   1.826
96146W        W64375   8.632  20.767  12.405
96147W        W64376  11.710  11.228  14.704
96148W        W64377  21.562   4.033  14.827
96149W        W64378  26.910  13.652   3.748
96150W        W64379  15.583  35.048  11.563
96151W        W64380   2.876   6.259  10.632
96152W        W64381  22.667  35.368   0.963
96153W        W64382   6.800  17.183   0.531
96154W        W64383  42.681  16.971  13.503
96155W        W64384   9.143  27.930  11.420
96156W        W64385  12.360  31.883  14.910
96157W        W64386  31.139  32.427   1.236
96158W        W64387  21.271  24.137  12.389
96159W        W64388  39.586  36.847  12.061
96160W        W64389   7.806   6.643  10.238
96161W        W64390   1.956  35.477   1.870
96162W        W64391  30.993  30.181  13.942
96163W        W64392  32.951  43.005   1.890
96164W        W64393  19.136  24.291  11.474
96165W        W64394  23.258   4.462  10.621
96166W        W64395  26.650  42.856   1.987
96167W        W64396  26.702  14.733  11.434
96168W        W64397   3.416  17.260  12.909
96169W        W64398  11.408  36.263  13.946
96170W        W64399   8.910  18.263   4.222
96171W        W64400  18.818   4.499   4.489
96172W        W64401   5.972  13.950   3.874
96173W        W64402  27.105  14.403   0.933
96174W        W64403  35.682  40.390  13.430
96175W        W64404  34.681   2.793  14.420
96176W        W64405  12.796  39.911   4.735
96177W        W64406  26.361  18.553  10.698
96178W        W64407  33.905  15.090  14.771
96179W        W64408  24.927  26.493   2.394
96180W        W64409  21.050  21.246   2.413
96181W        W64410  11.048   1.787   2.696
96182W        W64411  29.156  34.094  13.756
96183W        W64412  18.722  32.956  14.035
96184W        W64413  26.033  21.657  11.861
96185W        W64414  33.201  21.712   4.645
96186W        W64415   3.960  35.971   2.879
96187W        W64416  12.677  37.485  12.032
96188W        W64417  42.645   0.775  11.653
96189W        W64418   2.710   0.676  14.931
96190W        W64419   9.099   3.635  13.551
96191W        W64420  27.151   0.233   1.695
96192W        W64421   7.482  11.171  11.159
96193W        W64422  24.954   6.140   2.771
96194W        W64423  14.608  37.332  14.673
96195W        W64424  18.251  29.764   1.148
96196W        W64425  38.589   5.969  14.522
96197W        W64426  20.794  42.820  13.566
96198W        W64427  30.903  27.724   3.642
96199W        W64428   4.694  34.498   1.773
96200W        W64429  21.735  31.686   0.584
96201W        W64430   9.400  35.930   4.387
96202W        W64431  19.608  26.587  11.073
96203W        W64432   7.171   9.934  10.398
96204W        W64433  42.893  22.607  14.316
96205W        W64434  34.729  44.445   1.712
96206W        W64435  38.279  36.523   1.395
96207W        W64436  13.226  44.875  13.978
96208W        W64437   7.994   1.622   3.784
96209W        W64438  42.515  13.070   0.999
96210W        W64439   5.849   9.650   1.290
96211W        W64440  38.413  40.522  14.407
96212W        W64441  30.543  26.892   4.079
96213W        W64442  37.986  26.110   4.290
96214W        W64443  44.191  26.111   2.364
96215W        W64444  37.701  12.653   4.606
96216W        W64445  19.437  40.740   4.259
96217W        W64446  30.034   5.366  13.121
96218W        W64447  37.747  10.378   2.728
96219W        W64448  42.802  32.155   1.097
96220W        W64449   6.653  31.593   2.797
96221W        W64450   9.227  22.108   3.332
96222W        W64451  12.858  25.449  11.116
96223W        W64452   0.883  21.572   2.908
96224W        W64453  37.839  16.790  12.831
96225W        W64454  39.386  22.166  12.984
96226W        W64455  16.174  10.853   4.372
96227W        W64456   4.192  42.522   3.255
96228W        W64457  25.026   8.651   0.411
96229W        W64458  15.630  23.156   2.154
96230W        W64459  31.494  15.953  10.348
96231W        W64460   1.658   0.962   2.056
96232W        W64461   7.799  18.482   0.462
96233W        W64462  15.177   1.946   1.032
96234W        W64463  13.657  25.032   4.156
96235W        W64464  13.186   5.704   1.175
96236W        W64465  14.697  10.641   3.287
96237W        W64466   6.280  21.482  12.934
96238W        W64467  41.072   6.212   5.196
96239W        W64468  22.799   3.715   1.556
96240W        W64469  37.988  41.501  10.795
96241W        W64470  18.039   2.488   3.554
96242W        W64471  28.023  37.358   3.743
96243W        W64472   1.972  31.492   0.855
96244W        W64473  28.996  20.539  11.994
96245W        W64474  11.294   2.294   4.759
96246W        W64475  28.131   9.353  11.136
96247W        W64476  42.778  28.028  10.561
96248W        W64477  21.253  34.675   3.843
96249W        W64478  41.926  35.411   3.720
96250W        W64479  24.962  12.694  14.355
96251W        W64480  34.959  24.439  14.947
96252W        W64481  30.064  26.898  14.908
96253W        W64482  40.444  31.646   0.284
96254W        W64483   1.737   3.278   1.351
96255W        W64484  33.359  43.479   2.543
96256W        W64485  25.641  13.893   9.756
96257W        W64486   8.382   5.272   3.193
96258W        W64487   2.259  10.317   0.723
96259W        W64488   5.469   9.294   4.255
96260W        W64489  23.554  33.290   3.603
96261W        W64490  38.912  13.715  11.940
96262W        W64491  14.616  33.900   4.224
96263W        W64492  16.239  36.350  10.630
96264W        W64493  16.334   5.326  12.114
96265W        W64494   0.454  31.400  12.017
96266W        W64495   4.184   6.996  13.914
96267W        W64496   4.292  19.814  11.527
96268W        W64497   8.007  17.007   4.094
96269W        W64498   6.332  39.401  13.769
96270W        W64499  21.979  27.425   2.784
96271W        W64500  42.842  38.855  11.190
96272W        W64501  32.498  34.453   0.868
96273W        W64502  23.153  15.082  12.891
96274W        W64503   6.256  44.320   4.579
96275W        W64504  17.031  19.287   0.691
96276W        W64505   9.377   7.324  14.191
96277W        W64506   3.549   2.946  13.772
96278W        W64507  25.191   2.492   0.528
96279W        W64508   9.218  28.472  14.435
96280W        W64509  30.125  29.294  11.902
96281W        W64510  35.553  35.302   2.330
96282W        W64511  26.207  14.407  12.154
96283W        W64512  28.796   6.112  11.977
96284W        W64513  32.008  15.591   2.683
96285W        W64514  31.815  22.287   2.635
96286W        W64515  38.042   9.291  11.483
96287W        W64516  23.607  34.026  14.499
96288W        W64517  44.748  31.004   4.828
96289W        W64518  18.811  21.715   0.864
96290W        W64519  28.498  19.519   3.846
96291W        W64520  37.657   4.818  12.937
96292W        W64521  17.177  12.605   0.361
96293W        W64522  32.376  21.156   3.848
96294W        W64523  44.637   5.359   3.419
96295W        W64524  34.583   2.249  14.771
96296W        W64525  42.089  20.645  14.472
96297W        W64526  28.635  36.279  12.607
96298W        W64527  24.518   3.049  12.546
96299W        W64528   1.388  16.591   0.372
96300W        W64529  23.302   7.545  12.992
96301W        W64530  27.688  32.750  12.831
96302W        W64531  12.819  22.094  14.988
96303W        W64532  11.407  30.550   4.117
96304W        W64533   6.455  34.954  11.963
96305W        W64534  29.590  34.426  12.436
96306W        W64535   6.385  12.589  12.878
96307W        W64536  13.918  31.033   3.628
96308W        W64537  24.913  22.962   0.110
96309W        W64538  39.826  18.604  11.142
96310W        W64539   7.852   2.179   2.331
96311W        W64540  28.616  17.107  12.411
96312W        W64541  32.750  26.098   4.005
96313W        W64542   2.394  30.085   4.486
96314W        W64543  37.387  40.527  11.188
96315W        W64544  44.063  32.203   4.555
96316W        W64545   3.518   4.420  10.777
96317W        W64546  17.221  30.903  13.371
96318W        W64547  23.702  15.852  11.166
96319W        W64548  32.128  27.681   2.637
96320W        W64549   8.946  40.938  14.342
96321W        W64550   3.476  15.986  12.140
96322W        W64551  17.346  40.899   0.075
96323W        W64552   7.058  37.269  13.742
96324W        W64553   0.909  34.495  14.306
96325W        W64554   7.775  13.636   0.379
96326W        W64555  13.454  11.654  13.252
96327W        W64556  38.911  37.558   0.213
96328W        W64557  37.047   4.286  12.850
96329W        W64558   6.168  11.095  14.931
96330W        W64559   6.427  13.766   1.456
96331W        W64560   3.454  14.334   0.846
96332W        W64561  12.979  13.911   3.254
96333W        W64562   9.111  21.622   3.190
96334W        W64563  33.617  14.849   0.187
96335W        W64564   3.899  14.209   1.122
96336W        W64565  43.803  24.965   1.827
96337W        W64566  41.595  29.101   2.435
96338W        W64567  15.813  44.841  14.050
96339W        W64568  13.614  31.298  11.673
96340W        W64569  17.330   1.572   0.791
96341W        W64570  21.920  31.423  14.357
96342W        W64571  11.661  19.993   0.542
96343W        W64572  27.586   8.419   3.448
96344W        W64573  31.634   7.723  11.156
96345W        W64574   8.394  14.162   0.740
96346W        W64575  27.378  44.302  14.713
96347W        W64576  35.473  44.465  11.651
96348W        W64577  22.661   5.464  11.862
96349W        W64578  17.304  42.200  12.990
96350W        W64579   1.266   0.626   4.154
96351W        W64580   7.862  35.698   9.890
96352W        W64581  19.291  33.444   1.043
96353W        W64582  44.594  30.052   3.678
96354W        W64583  25.144  40.936  12.809
96355W        W64584  35.949  15.245   0.395
96356W        W64585  43.979   2.707  13.842
96357W        W64586   7.656   6.340  10.740
96358W        W64587  15.463  37.952   0.726
96359W        W64588  23.187  20.820   4.141
96360W        W64589  42.190   4.258   0.793
96361W        W64590  21.509  13.342  10.704
96362W        W64591   4.920  37.035   4.534
96363W        W64592  39.036  10.561   0.433
96364W        W64593  18.676  36.904  10.447
96365W        W64594   8.203   5.192   3.676
96366W        W64595   9.434  12.853   1.582
96367W        W64596   1.358  24.549   1.669
96368W        W64597  37.288  10.381   2.973
96369W        W64598  18.573  34.276   5.437
96370W        W64599  33.495   0.431  14.982
96371W        W64600  19.194  26.827   2.732
96372W        W64601  27.219   5.411   1.324
96373W        W64602  33.185  37.480   0.503
96374W        W64603   7.806  27.282   4.660
96375W        W64604   3.514  22.706   2.789
96376W        W64605  14.353  35.559   0.820
96377W        W64606  20.758  17.122   1.474
96378W        W64607  33.889  43.183  12.454
96379W        W64608  17.260  26.679   5.274
96380W        W64609  24.885  16.262   4.549
96381W        W64610  37.282  37.770   0.840
96382W        W64611  25.471  16.822  14.895
96383W        W64612  30.501  25.672   4.651
96384W        W64613  22.646  33.878  13.878
96385W        W64614  24.330  23.173  10.819
96386W        W64615  19.153  10.895  12.407
96387W        W64616  30.582  29.926   3.639
96388W        W64617  40.253  28.321   3.322
96389W        W64618  22.298   9.873   1.325
96390W        W64619  35.895  24.559  12.916
96391W        W64620  13.593  33.538  13.005
96392W        W64621  18.854  12.406   4.538
96393W        W64622   4.728   2.464  11.558
96394W        W64623   9.196  14.691  14.585
96395W        W64624  37.808   6.153   0.492
96396W        W64625   6.748   0.277   2.749
96397W        W64626  31.022  41.349   4.317
96398W        W64627  13.805  31.638  12.042
96399W        W64628   2.685  25.007  11.733
96400W        W64629  32.627  19.824  13.516
96401W        W64630  12.255   5.792   3.152
96402W        W64631  32.045   4.910   3.568
96403W        W64632  11.307  15.287   3.325
96404W        W64633  29.213   7.914  14.970
96405W        W64634  17.304  42.109  12.069
96406W        W64635   5.649  18.060  11.058
96407W        W64636  15.361   6.320  12.575
96408W        W64637  44.211  33.904  14.833
96409W        W64638  30.238  24.145   0.113
96410W        W64639   6.939   3.660   2.463
96411W        W64640  10.294  30.453  12.004
96412W        W64641   3.467  15.169  13.735
96413W        W64642  19.852  23.376   0.228
96414W        W64643  23.137  10.663   3.765
96415W        W64644   6.563  21.706   0.176
96416W        W64645  40.445  33.802  12.933
96417W        W64646  43.353   5.112  14.351
96418W        W64647  29.220  24.128  11.610
96419W        W64648  10.755  19.763   3.129
96420W        W64649   3.376  34.480  12.437
96421W        W64650  39.842  18.327   2.820
96422W        W64651  40.811  34.349   4.396
96423W        W64652  20.925  42.288  14.502
96424W        W64653  37.516  19.087  12.532
96425W        W64654  34.956  31.727   1.111
96426W        W64655  33.591  25.309   0.852
96427W        W64656  21.310   5.447  12.024
96428W        W64657  25.402  25.330   4.943
96429W        W64658  33.913   0.216  14.352
96430W        W64659  23.479  19.147   0.765
96431W        W64660  32.646  18.756  14.419
96432W        W64661   7.441  21.786  13.415
96433W        W64662  14.538   1.359   2.347
96434W        W64663  21.294  24.540   3.641
96435W        W64664  42.271  34.102   0.388
96436W        W64665  11.989  35.686  12.491
96437W        W64666  21.271   5.472   3.661
96438W        W64667  40.359  38.924  14.012
96439W        W64668  29.969  24.903  10.832
96440W        W64669  13.650  28.868   0.036
96441W        W64670  30.833  22.734  11.061
96442W        W64671  44.324  44.622  12.918
96443W        W64672  16.148  15.119  10.582
96444W        W64673  27.974  13.310  13.782
96445W        W64674  36.358  15.135  13.345
96446W        W64675  32.676  36.322  12.459
96447W        W64676  12.998  17.486   3.477
96448W        W64677  12.656  22.662   0.838
96449W        W64678  21.996  26.141   1.791
96450W        W64679  35.653  22.067  14.987
96451W        W64680  44.531  41.961   3.149
96452W        W64681  17.169   7.656  12.078
96453W        W64682  27.014  39.108  11.978
96454W        W64683   9.091  43.639  14.708
96455W        W64684  17.069  44.435   0.467
96456W        W64685  15.130   6.388  11.587
96457W        W64686  15.595   2.755   0.941
96458W        W64687  39.717  11.632  14.263
96459W        W64688  44.680  10.876   3.744
96460W        W64689  42.369   5.803   2.313
96461W        W64690  42.352  32.099  11.345
96462W        W64691  10.771  11.400   0.540
96463W        W64692  16.088   0.941  14.013
96464W        W64693  36.998  14.742  14.454
96465W        W64694   8.969  27.953  13.709
96466W        W64695  16.699  35.104   0.611
96467W        W64696  34.960  13.878  10.732
96468W        W64697  15.378  39.364   2.937
96469W        W64698  17.059  41.454  13.534
96470W        W64699  41.608  28.956  10.965
96471W        W64700   6.871  21.136  14.910
96472W        W64701  24.631  22.493  12.053
96473W        W64702  20.992   5.281  13.986
96474W        W64703   2.670  29.569   2.314
96475W        W64704  33.008  37.413   2.785
96476W        W64705  39.785  37.989  13.950
96477W        W64706  39.895  15.966   4.527
96478W        W64707  27.390  30.672   4.133
96479W        W64708  39.016   5.795   0.319
96480W        W64709  23.442  18.196  11.601
96481W        W64710  43.546  28.524   2.796
96482W        W64711  19.182   4.811   4.725
96483W        W64712  40.782  26.492  11.164
96484W        W64713  11.901  35.800   0.313
96485W        W64714  31.117  25.008   3.130
96486W        W64715  44.393  25.398   1.217
96487W        W64716   4.905  16.283   1.009
96488W        W64717   0.336  29.120  10.687
96489W        W64718  34.993   7.727  12.929
96490W        W64719   2.036   6.635  11.551
96491W        W64720  10.868  19.962   4.716
96492W        W64721  34.901  18.839  14.730
96493W        W64722  23.133  39.788   3.726
96494W        W64723   3.861   0.369   1.381
96495W        W64724  31.039  39.620   0.620
96496W        W64725   5.834  23.525   0.335
96497W        W64726   7.730   7.982  10.833
96498W        W64727   5.274  42.608   0.348
96499W        W64728  38.951  16.013  10.612
96500W        W64729  10.598  24.417  13.611
96501W        W64730   1.672   8.079   0.503
96502W        W64731  26.078  28.684  11.545
96503W        W64732   2.262   1.816  12.639
96504W        W64733  31.180   8.475   1.315
96505W        W64734  36.643  41.456   3.750
96506W        W64735  14.362  25.066  11.244
96507W        W64736  22.990  16.174  13.406
96508W        W64737  34.374  19.071  13.854
96509W        W64738  10.378  20.292  10.796
96510W        W64739   9.758  19.494   1.857
96511W        W64740  17.998  17.990   3.475
96512W        W64741  38.824  36.392  13.559
96513W        W64742  28.508  12.739   0.779
96514W        W64743   4.508  40.977   2.665
96515W        W64744  42.135  17.656  11.479
96516W        W64745   0.943   9.813   3.686
96517W        W64746  42.757  44.298   0.772
96518W        W64747  30.667  16.304   0.279
96519W        W64748  41.550  17.805  13.424
96520W        W64749  15.842  22.128  11.529
96521W        W64750  36.292   4.867  12.444
96522W        W64751  11.918  22.152   0.453
96523W        W64752  32.139  14.725  12.467
96524W        W64753  39.982  18.644   0.992
96525W        W64754  29.610  22.517  12.315
96526W        W64755  12.731  23.170   1.126
96527W        W64756  17.764  16.083  11.571
96528W        W64757  13.809  41.537   3.656
96529W        W64758   9.715   5.211  11.702
96530W        W64759  22.568  14.325  12.295
96531W        W64760  15.558  30.212  11.574
96532W        W64761   1.236   3.853  12.847
96533W        W64762  38.765  31.457  14.000
96534W        W64763   6.921  10.133   4.794
96535W        W64764  30.081  25.481   1.402
96536W        W64765  36.702   1.160   2.035
96537W        W64766  18.404  24.803  11.648
96538W        W64767   9.779  12.275  12.358
96539W        W64768  24.233  43.987   4.669
96540W        W64769   9.187  10.273  11.861
96541W        W64770  22.662  27.266  12.651
96542W        W64771  16.755  40.558   4.233
96543W        W64772  28.705   3.315   0.193
96544W        W64773  41.830  18.342  13.931
96545W        W64774   2.765  20.023  10.599
96546W        W64775  38.841  30.663   3.078
96547W        W64776  30.503  44.453  13.290
96548W        W64777  12.672  18.276  13.980
96549W        W64778   0.814  29.154  13.113
96550W        W64779  32.529  16.244  10.546
96551W        W64780   8.936  15.179   3.403
96552W        W64781  28.610  26.935  13.891
96553W        W64782  18.181  26.283   4.443
96554W        W64783  24.582  15.210   4.354
96555W        W64784  17.550   4.876   4.395
96556W        W64785  16.505  29.103  12.425
96557W        W64786  36.343  26.562   0.746
96558W        W64787  39.907  29.163   4.125
96559W        W64788   0.972   7.372   4.430
96560W        W64789  30.674  21.656  13.927
96561W        W64790   8.619   4.490   0.860
96562W        W64791  19.233   8.638   2.366
96563W        W64792  27.527   8.734  11.160
96564W        W64793  26.410  24.926   1.486
96565W        W64794  13.372  15.811   3.755
96566W        W64795  27.199  34.079   2.919
96567W        W64796  33.886  15.230   2.340
96568W        W64797  14.728  14.013   9.806
96569W        W64798  44.925   8.274   4.646
96570W        W64799  17.615  34.689   1.759
96571W        W64800  33.893  18.914   4.578
96572W        W64801   9.270  15.534   1.315
96573W        W64802   6.867  22.066   1.864
96574W        W64803  14.267   3.843   4.073
96575W        W64804   2.419  39.509   4.715
96576W        W64805  38.540  34.317   2.346
96577W        W64806  37.559  37.488   3.742
96578W        W64807  16.705   9.665   0.629
96579W        W64808  40.420   2.297   3.121
96580W        W64809  42.119  13.224   0.663
96581W        W64810  22.622  36.705  12.011
96582W        W64811   0.677  19.833  12.149
96583W        W64812   5.711   4.789  12.564
96584W        W64813  17.047  20.317  12.882
96585W        W64814  36.391  34.791   0.963
96586W        W64815  36.081  42.028   5.185
96587W        W64816  22.151  31.006  12.590
96588W        W64817  13.685   0.835  13.462
96589W        W64818  34.157  21.634  12.418
96590W        W64819  30.636  29.996   1.885
96591W        W64820   7.055  20.159   4.239
96592W        W64821  28.452  23.566   4.792
96593W        W64822  41.427  23.632  14.453
96594W        W64823  20.301  26.299   2.123
96595W        W64824  37.640  11.711   0.830
96596W        W64825   0.017  10.856   4.549
96597W        W64826   5.326   2.466  14.485
96598W        W64827  36.908  30.023   1.435
96599W        W64828  35.793   9.131   0.368
96600W        W64829  30.623  18.201   0.313
96601W        W64830  38.438  22.994   1.465
96602W        W64831  34.489  32.278   1.369
96603W        W64832  22.296  20.103   0.300
96604W        W64833  31.361   7.635  13.326
96605W        W64834   5.374   4.653  11.684
96606W        W64835   7.454  24.725  12.485
96607W        W64836  17.165  11.118  12.320
96608W        W64837   2.224  17.396  11.161
96609W        W64838  12.407  43.005   2.653
96610W        W64839   3.235  42.787   2.051
96611W        W64840  16.837  21.667   3.738
96612W        W64841  20.105  14.442   1.631
96613W        W64842  30.855   8.108  12.743
96614W        W64843  29.718  10.429   0.161
96615W        W64844  37.045  12.281  14.044
96616W        W64845   9.350   4.733  10.750
96617W        W64846  18.501  27.636   0.488
96618W        W64847  33.816   3.285   4.879
96619W        W64848  10.890   5.239   1.816
96620W        W64849  20.669  33.672   9.815
96621W        W64850  13.538  27.523  12.557
96622W        W64851   0.240  44.519  14.829
96623W        W64852  32.829  39.957  11.327
96624W        W64853  39.350  10.224   0.991
96625W        W64854   0.924  17.468  12.326
96626W        W64855  44.346  39.257   3.775
96627W        W64856  39.104  11.228  11.056
96628W        W64857  30.444  11.160   1.761
96629W        W64858   8.247  16.194  13.339
96630W        W64859  26.791  15.313   0.503
96631W        W64860  20.782  41.357   0.289
96632W        W64861  40.338  35.382  10.424
96633W        W64862  29.106   9.414  14.330
96634W        W64863   4.713  12.267  14.036
96635W        W64864   4.946  32.632   0.911
96636W        W64865  35.927  43.382  14.916
96637W        W64866  11.538  32.550  13.289
96638W        W64867  25.683  32.403   0.250
96639W        W64868  12.341   3.693   3.682
96640W        W64869  41.436  37.060   4.366
96641W        W64870  29.039  39.444   3.906
96642W        W64871   7.983   2.728  14.802
96643W        W64872  21.723  12.331  11.076
96644W        W64873  19.058  39.545   1.742
96645W        W64874  30.378  11.372   2.232
96646W        W64875  15.346  27.177  13.962
96647W        W64876  43.000  32.001   3.251
96648W        W64877  43.074  18.599   4.896
96649W        W64878  33.278  16.445  10.568
96650W        W64879  24.670  25.862  11.780
96651W        W64880   9.742  29.253  10.882
96652W        W64881  39.523  40.996  12.507
96653W        W64882  14.618  14.618   3.600
96654W        W64883  32.542  18.549  11.026
96655W        W64884  24.594  35.818   4.279
96656W        W64885  39.294  22.318  11.056
96657W        W64886  38.042  32.077   3.278
96658W        W64887  16.540   8.212   1.584
96659W        W64888  42.319  33.339  12.862
96660W        W64889  44.814  16.626   2.823
96661W        W64890  22.211   3.148   1.405
96662W        W64891   9.249   6.135  12.548
96663W        W64892  39.986  44.007  10.911
96664W        W64893  13.257  24.285   0.463
96665W        W64894  13.080  14.237   2.840
96666W        W64895  32.546  33.573   3.305
96667W        W64896  20.235  21.169  10.536
96668W        W64897  22.311   5.205  12.158
96669W        W64898  15.273  27.254  12.367
96670W        W64899  14.981  25.954   1.853
96671W        W64900  19.506   1.657   1.024
96672W        W64901   2.867  22.622  12.116
96673W        W64902  34.487  31.948  10.535
96674W        W64903  41.387  26.364  14.854
96675W        W64904   3.687  11.544  13.490
96676W        W64905  22.466  22.475   3.135
96677W        W64906   4.061   6.854  12.146
96678W        W64907  44.512   5.598   2.814
96679W        W64908  15.696  21.026   4.952
96680W        W64909   4.301  32.665  12.522
96681W        W64910  12.824  35.253   3.382
96682W        W64911  36.102   9.732  12.573
96683W        W64912  10.644  31.834   2.400
96684W        W64913  22.716  15.296  11.072
96685W        W64914  27.404  24.978  14.193
96686W        W64915  42.139  36.966  11.115
96687W        W64916  29.725  43.580   0.432
96688W        W64917   2.865  19.531  10.425
96689W        W64918  13.844   4.851   2.350
96690W        W64919  15.303  31.366   0.850
96691W        W64920  38.352  20.530   2.630
96692W        W64921  40.150  26.420   3.585
96693W        W64922  39.511  27.703   2.319
96694W        W64923  28.249  16.319   4.187
96695W        W64924   8.808  36.591   2.340
96696W        W64925  12.777  15.365   3.107
96697W        W64926   0.480  19.595  11.717
96698W        W64927  14.190  20.774   0.329
96699W        W64928   6.913  23.899   3.752
96700W        W64929   0.484  17.774  11.151
96701W        W64930  17.895  42.008  14.309
96702W        W64931  24.531   6.925  12.330
96703W        W64932  35.642   3.104  11.128
96704W        W64933  22.047  33.873   4.652
96705W        W64934  35.137  32.930  11.189
96706W        W64935   7.371  34.502   4.441
96707W        W64936  38.567  14.680   3.145
96708W        W64937   7.216  23.801  12.302
96709W        W64938  20.039  10.767  12.606
96710W        W64939  14.726   3.202  12.098
96711W        W64940   5.772  34.370  12.575
96712W        W64941   3.839  35.393  13.893
96713W        W64942  22.561  42.962  13.774
96714W        W64943  42.995  10.793   1.430
96715W        W64944  15.742  34.830  14.899
96716W        W64945   6.897  13.419  13.076
96717W        W64946  14.161  22.194   0.397
96718W        W64947  42.832  31.088  13.862
96719W        W64948  15.666   2.458  14.952
96720W        W64949  19.986  33.659  14.817
96721W        W64950  15.576   8.316  11.625
96722W        W64951  36.521  19.677  14.936
96723W        W64952  37.010  13.374   1.669
96724W        W64953  20.737  23.732  11.697
96725W        W64954   4.767  13.413   1.782
96726W        W64955  17.166  22.793   4.596
96727W        W64956  37.686  11.264   4.765
96728W        W64957   5.876  17.680  14.049
96729W        W64958  42.189  31.882   2.217
96730W        W64959  23.224  21.187  12.956
96731W        W64960  24.604   8.331   1.856
96732W        W64961  12.612   8.620  12.019
96733W        W64962  29.458  11.555   2.255
96734W        W64963  33.505  10.369   3.711
96735W        W64964  28.054   4.807   0.204
96736W        W64965  38.275  24.543  10.606
96737W        W64966  34.268  43.373   1.403
96738W        W64967   5.144  36.856   5.475
96739W        W64968   2.814  43.099  14.378
96740W        W64969  32.341  12.785  13.364
96741W        W64970  19.238  22.628  12.448
96742W        W64971  11.400  21.165  10.774
96743W        W64972  25.282  19.452  12.016
96744W        W64973  18.261   2.847   2.397
96745W        W64974  25.738  40.014  11.110
96746W        W64975  24.011   1.569   4.721
96747W        W64976  20.735  15.017   3.757
96748W        W64977  19.116  35.776  14.277
96749W        W64978  23.480  11.892  10.699
96750W        W64979  43.245   5.313   1.244
96751W        W64980  32.922  36.314  11.117
96752W        W64981   6.623  44.845   3.458
96753W        W64982  42.690   6.743  12.689
96754W        W64983   0.522  12.603   3.297
96755W        W64984  41.051   9.635  12.149
96756W        W64985   3.033  43.851  10.637
96757W        W64986   0.808  19.642  10.998
96758W        W64987  40.791  43.108  13.046
96759W        W64988  27.638  25.542   0.916
96760W        W64989  26.233   2.980  12.458
96761W        W64990  25.131  14.641  10.173
96762W        W64991   7.466  40.080   2.631
96763W        W64992   5.257  17.246  14.835
96764W        W64993  32.083  40.475  14.896
96765W        W64994  22.512  37.571   3.799
96766W        W64995  23.524  22.642  14.504
96767W        W64996  25.257  32.889  14.050
96768W        W64997  18.182  22.532   0.806
96769W        W64998  13.854  25.167  12.971
96770W        W64999  19.047  30.372  10.428
96771W        W65000  34.240  11.969  12.647
96772W        W65001   9.012   5.712   0.501
96773W        W65002   4.714   8.742   2.515
96774W        W65003  25.507   2.453  11.241
96775W        W65004   8.387  12.104  11.043
96776W        W65005  11.172  27.501  10.515
96777W        W65006  14.238  17.117  14.025
96778W        W65007  29.035  16.557   4.164
96779W        W65008  10.339  38.450   3.522
96780W        W65009  26.583  28.650  14.690
96781W        W65010  20.672   1.715   0.797
96782W        W65011   7.865  20.406  14.366
96783W        W65012  16.027  30.436   2.217
96784W        W65013  36.302  20.021   3.172
96785W        W65014  36.431   2.655   2.777
96786W        W65015  42.904  26.051   3.418
96787W        W65016  14.107   5.887  12.541
96788W        W65017  39.921  43.071  14.312
96789W        W65018  11.642  32.635   1.870
96790W        W65019   3.341  32.375   2.311
96791W        W65020  29.695  26.515   2.464
96792W        W65021  11.877  27.127   4.555
96793W        W65022  31.968   1.657   0.765
96794W        W65023  30.417  35.214  12.746
96795W        W65024  33.597  28.872   3.179
96796W        W65025  15.226  16.063  14.049
96797W        W65026   7.745  24.301  12.463
96798W        W65027  37.446   0.772  13.029
96799W        W65028   7.394  42.792   2.812
96800W        W65029  21.099  44.944  14.564
96801W        W65030   1.217   5.009  12.923
96802W        W65031  38.955  10.899  12.478
96803W        W65032  44.326  34.130  10.690
96804W        W65033  30.216  23.544   1.401
96805W        W65034  19.577   2.789  14.937
96806W        W65035   4.815  22.327  12.469
96807W        W65036  18.738  38.965  11.120
96808W        W65037  18.797  19.131  13.315
96809W        W65038  33.007   6.815   4.779
96810W        W65039  34.060  43.850   1.490
96811W        W65040  43.121  32.936  13.916
96812W        W65041  19.292  20.092  12.413
96813W        W65042  13.624  29.901  13.312
96814W        W65043   6.924  35.595  10.738
96815W        W65044  29.511  13.821   1.683
96816W        W65045  35.845  23.030   2.238
96817W        W65046  34.943  26.930  13.410
96818W        W65047  28.367  19.974   3.655
96819W        W65048  36.582  17.146  14.892
96820W        W65049  33.999   1.338   3.247
96821W        W65050   6.872  44.913  14.952
96822W        W65051  12.199  20.323   2.728
96823W        W65052  42.609  43.819   3.568
96824W        W65053   8.764  44.696  11.800
96825W        W65054  42.773  34.976   1.185
96826W        W65055   4.996  11.848  13.906
96827W        W65056   7.785  26.210  13.991
96828W        W65057   2.303  38.363  12.122
96829W        W65058  39.907  29.853  12.114
96830W        W65059  29.495  15.589   0.315
96831W        W65060  36.875  20.615   4.132
96832W        W65061  14.176  13.718   2.616
96833W        W65062  22.474  14.356   0.830
96834W        W65063   8.742   1.419  13.828
96835W        W65064   4.809   3.313   1.765
96836W        W65065  13.396   4.910   0.830
96837W        W65066   5.866   8.353  14.576
96838W        W65067  12.738  17.927  14.821
96839W        W65068  19.978   0.795   1.299
96840W        W65069   0.242  31.976   0.192
96841W        W65070  16.339  32.906   0.934
96842W        W65071   8.626  11.373  13.128
96843W        W65072  41.299  19.243   3.242
96844W        W65073  33.659  30.626   0.301
96845W        W65074  37.445  32.560  13.310
96846W        W65075  19.059   9.318  13.324
96847W        W65076  23.413  23.592  11.182
96848W        W65077  30.324  40.008  13.102
96849W        W65078  11.322  36.514  11.672
96850W        W65079  37.445  25.642  10.806
96851W        W65080  26.433  33.474  13.345
96852W        W65081  27.458   8.512   4.746
96853W        W65082  12.725  17.197  11.384
96854W        W65083  22.673  11.623  10.886
96855W        W65084  30.016   2.361   2.395
96856W        W65085  31.822  13.654   4.170
96857W        W65086  40.217  38.163  12.145
96858W        W65087  13.407  25.940   4.123
96859W        W65088  11.218  35.346  13.229
96860W        W65089  15.442  33.365   1.668
96861W        W65090  24.240  15.081   2.257
96862W        W65091   2.585   7.780   3.254
96863W        W65092  11.128  34.660   4.082
96864W        W65093  41.402   2.455  12.325
96865W        W65094  23.316   8.756   4.933
96866W        W65095  36.582  18.598   1.465
96867W        W65096  10.995   1.392  12.723
96868W        W65097  31.794   7.558   3.782
96869W        W65098  31.455  32.004  12.914
96870W        W65099  16.222  16.768   5.211
96871W        W65100  18.210  20.056  14.969
96872W        W65101  30.453  34.516   4.847
96873W        W65102   2.993  23.868  11.514
96874W        W65103  17.608  22.578  11.526
96875W        W65104  18.315   8.651  12.860
96876W        W65105  30.157   2.229  13.319
96877W        W65106  29.423  19.515   3.110
96878W        W65107   7.204  21.721   3.788
96879W        W65108  23.322  12.175   1.781
96880W        W65109  39.586  18.769  12.019
96881W        W65110  37.511  22.283   4.469
96882W        W65111  44.187  40.305  13.565
96883W        W65112  34.183  20.120  14.849
96884W        W65113  34.093  30.008   2.482
96885W        W65114  11.656  37.939   3.142
96886W        W65115  40.160  17.549  11.818
96887W        W65116  27.673  31.207  12.943
96888W        W65117  36.090   7.331  12.001
96889W        W65118  41.587  33.866   1.384
96890W        W65119  23.404   1.597  11.030
96891W        W65120  38.483  28.879   3.658
96892W        W65121   4.347  29.727  14.423
96893W        W65122  14.509   7.741   3.578
96894W        W65123  20.340  16.948   0.914
96895W        W65124  43.643  14.077   4.115
96896W        W65125  13.638  37.333   0.598
96897W        W65126   0.952  11.433   3.600
96898W        W65127  39.234   2.328  13.610
96899W        W65128  14.093  37.290   0.934
96900W        W65129   3.973  22.499  12.117
96901W        W65130  28.004  36.338  12.446
96902W        W65131  11.743  23.271  12.389
96903W        W65132   0.532  18.020  12.993
96904W        W65133  28.060  28.640   2.725
96905W        W65134   5.273  16.247  14.873
96906W        W65135  28.276  37.474   2.822
96907W        W65136  39.961  44.007  13.790
96908W        W65137  28.284   6.288  11.882
96909W        W65138   3.424  12.705  14.338
96910W        W65139  14.694   5.692  14.190
96911W        W65140  11.261  32.884  13.884
96912W        W65141  34.554  11.174   3.284
96913W        W65142  18.633  28.761   1.844
96914W        W65143   7.166  12.760  12.025
96915W        W65144  12.748  44.205  11.204
96916W        W65145  14.330   8.972  10.709
96917W        W65146   4.945  10.432   9.834
96918W        W65147   1.422   4.952   2.205
96919W        W65148  43.795   5.609   3.201
96920W        W65149  11.383  25.685  13.790
96921W        W65150  21.766   7.816   4.547
96922W        W65151  24.651   0.246   4.829
96923W        W65152  31.496   5.234   4.266
96924W        W65153  41.090  29.052   2.156
96925W        W65154   7.020   8.255  11.153
96926W        W65155   4.403  21.205  10.715
96927W        W65156  18.398   9.742   4.952
96928W        W65157  24.105  15.942  11.551
96929W        W65158  20.664   4.885  14.087
96930W        W65159  19.526  20.720  10.387
96931W        W65160   9.751  36.970   2.058
96932W        W65161   7.884  19.666  13.874
96933W        W65162  29.402  36.136  11.583
96934W        W65163   6.361  17.081   4.111
96935W        W65164  39.080  39.524  13.960
96936W        W65165  37.359  14.084  14.955
96937W        W65166  44.769  23.740  11.477
96938W        W65167  10.788  43.332   3.347
96939W        W65168   1.419  40.348  10.433
96940W        W65169   7.210  44.080   2.138
96941W        W65170  30.941  36.434  13.054
96942W        W65171  27.754  11.393   4.516
96943W        W65172   1.865  34.283  12.386
96944W        W65173  24.205  25.699  10.720
96945W        W65174  30.040  43.057  13.822
96946W        W65175   5.701  25.436  14.316
96947W        W65176  36.816  43.388  11.048
96948W        W65177  26.351  20.759   3.699
96949W        W65178  27.680  13.725  11.542
96950W        W65179   2.986  39.768   0.299
96951W        W65180  44.534  10.029  11.920
96952W        W65181  24.916  30.930   3.612
96953W        W65182   7.059  10.812   2.884
96954W        W65183   7.143   1.355   3.722
96955W        W65184  18.398  16.228   4.544
96956W        W65185  35.410  21.065  12.427
96957W        W65186  36.926  44.351   4.843
96958W        W65187  33.243  23.740   4.211
96959W        W65188  38.325   6.895  11.970
96960W        W65189  22.742  42.574   1.317
96961W        W65190   3.327  42.746  12.549
96962W        W65191  29.501  33.606   4.581
96963W        W65192  32.725  43.305   3.754
96964W        W65193  39.622  26.669   4.584
96965W        W65194  25.434   2.253  11.773
96966W        W65195  13.074   9.875   0.201
96967W        W65196  30.249  17.521  14.285
96968W        W65197  24.590  38.458   3.313
96969W        W65198  38.947  30.898   0.869
96970W        W65199   3.656  15.052   2.858
96971W        W65200  20.651  18.877  10.582
96972W        W65201   5.324  44.867   4.688
96973W        W65202  37.433  30.134  13.444
96974W        W65203   4.748  23.749   3.665
96975W        W65204   5.598  29.500  10.791
96976W        W65205   2.409  18.140   1.347
96977W        W65206  29.343  23.634   2.421
96978W        W65207  35.045  24.482  11.383
96979W        W65208  29.622   8.873   4.228
96980W        W65209  28.238  34.534  13.472
96981W        W65210  14.822  29.537   3.088
96982W        W65211  18.523  42.890  14.038
96983W        W65212  18.857  11.101   4.686
96984W        W65213  14.111  18.134  11.619
96985W        W65214  19.566   2.316   2.381
96986W        W65215  19.092   3.398  10.544
96987W        W65216  20.765  14.408   3.221
96988W        W65217   3.876  26.143  13.122
96989W        W65218  35.166  35.981  12.654
96990W        W65219  29.629  11.712   4.477
96991W        W65220  43.365   2.885   1.405
96992W        W65221  10.158  23.934  12.814
96993W        W65222  15.702  31.958   0.013
96994W        W65223  20.868   7.762   4.031
96995W        W65224  37.484   5.190   5.116
96996W        W65225   2.283  31.969  10.231
96997W        W65226  41.773  26.882   4.154
96998W        W65227  23.650  33.624   0.804
96999W        W65228  12.829  38.916  13.046
97000W        W65229   6.916   4.889   4.423
97001W        W65230   1.382   8.340   1.350
97002W        W65231  11.758  34.477  13.528
97003W        W65232  14.859  27.752   0.264
97004W        W65233   5.598   7.944  12.525
97005W        W65234  27.198  44.131   1.938
97006W        W65235  20.789   8.869  14.415
97007W        W65236  35.588  30.105  11.155
97008W        W65237  18.855  29.498  12.702
97009W        W65238   1.316   4.445  14.786
97010W        W65239  16.015  11.351  13.953
97011W        W65240  30.358  41.574   4.823
97012W        W65241  12.352  32.371  13.253
97013W        W65242  12.380  43.291  14.939
97014W        W65243  39.492   5.791  11.987
97015W        W65244   5.201  35.927  14.193
97016W        W65245  27.671  35.442   1.763
97017W        W65246  37.121  16.497  14.349
97018W        W65247  40.295   6.780  14.855
97019W        W65248  35.561   8.323  14.156
97020W        W65249  14.154   6.147  12.994
97021W        W65250  16.105  12.782  10.720
97022W        W65251   1.518  41.031  12.542
97023W        W65252  21.193  44.487   2.693
97024W        W65253  26.001  23.156  13.630
97025W        W65254  21.074  21.466  11.066
97026W        W65255  15.520  10.682   3.130
97027W        W65256  30.057  21.974   4.047
97028W        W65257  22.789  24.485   2.821
97029W        W65258  37.377  29.708   3.192
97030W        W65259  41.428  32.008  10.841
97031W        W65260  13.498  10.275  10.445
97032W        W65261  16.077  36.010   1.187
97033W        W65262  27.502  11.298  14.812
97034W        W65263  39.799   1.952  13.903
97035W        W65264  13.214  31.995  12.816
97036W        W65265  37.575  40.966   0.393
97037W        W65266   7.743  39.254   3.264
97038W        W65267  31.744  31.057  11.309
97039W        W65268  35.827  18.979  14.846
97040W        W65269   3.765  17.735  11.158
97041W        W65270  13.086  34.592  13.375
97042W        W65271  12.900  10.873  14.957
97043W        W65272  41.442  17.784   2.201
97044W        W65273  43.775  42.792  10.489
97045W        W65274  32.455  17.744  14.394
97046W        W65275  30.518   2.727   2.909
97047W        W65276  43.108  35.442  14.398
97048W        W65277  26.199  14.182  11.475
97049W        W65278  40.908   8.341   4.777
97050W        W65279   6.008  15.580  10.724
97051W        W65280   5.229  26.036  11.004
97052W        W65281  27.003  36.355   1.329
97053W        W65282  43.780  21.646  13.508
97054W        W65283  19.316   2.342   3.305
97055W        W65284  42.470   9.394  14.484
97056W        W65285  10.139  37.751   2.579
97057W        W65286   6.552   0.893   2.841
97058W        W65287  38.032  21.442  13.563
97059W        W65288   5.491  20.756   3.278
97060W        W65289  36.610  38.748   4.042
97061W        W65290  10.316   4.175   3.702
97062W        W65291  30.413  10.403   1.478
97063W        W65292  34.099  33.415  14.120
97064W        W65293  38.603   9.955  11.506
97065W        W65294  29.518  24.101   2.328
97066W        W65295  23.232  23.704   4.088
97067W        W65296   8.802   3.140   2.764
97068W        W65297   5.825  34.226   3.648
97069W        W65298  14.854  24.144  12.680
97070W        W65299  10.592   3.921  10.559
97071W        W65300  21.693  44.916  11.438
97072W        W65301  14.104  19.838  11.798
97073W        W65302  29.037  20.981  12.597
97074W        W65303   7.356  31.550  11.623
97075W        W65304  36.146  34.743   3.694
97076W        W65305   3.692  24.523  13.945
97077W        W65306  42.544   3.878   1.718
97078W        W65307  42.276  38.791  11.090
97079W        W65308  42.964  10.803   2.883
97080W        W65309  16.744  23.919   4.118
97081W        W65310  29.729  20.736  12.478
97082W        W65311  17.183  11.830   3.209
97083W        W65312  18.660  36.190  12.395
97084W        W65313   5.198   7.165   1.366
97085W        W65314  40.761   3.764   3.612
97086W        W65315  26.170  28.559  12.845
97087W        W65316  30.815   9.042   4.213
97088W        W65317  44.439  24.070  11.762
97089W        W65318   9.196  14.669  12.440
97090W        W65319  26.730  37.610   3.713
97091W        W65320  44.131  41.169   5.042
97092W        W65321  43.520  38.627  11.616
97093W        W65322   1.272  12.341  14.577
97094W        W65323  43.609  23.691  10.725
97095W        W65324  26.166   5.666  10.606
97096W        W65325  43.808  22.302   0.801
97097W        W65326  32.591  32.908   4.099
97098W        W65327  33.363   8.850  11.606
97099W        W65328  37.250  21.096   3.258
97100W        W65329  26.082  32.396   2.468
97101W        W65330  28.684   7.374  14.889
97102W        W65331  33.602  31.399  11.859
97103W        W65332  10.881  44.311  14.788
97104W        W65333   6.143  34.291   1.894
97105W        W65334  22.140  20.115   2.374
97106W        W65335  20.316  24.234   3.266
97107W        W65336  30.062  17.017   3.763
97108W        W65337  40.558  11.239  10.615
97109W        W65338   5.201  18.652   2.845
97110W        W65339  29.928  21.302  11.669
97111W        W65340  38.099  22.724  13.788
97112W        W65341   2.793  20.545  14.993
97113W        W65342  38.003  44.297   3.892
97114W        W65343  13.313   1.277   1.242
97115W        W65344  16.725  44.748  13.600
97116W        W65345  28.037   8.339  14.459
97117W        W65346  24.637   6.714  14.190
97118W        W65347   1.837  19.688  14.789
97119W        W65348  26.502  38.443   4.755
97120W        W65349   9.745   5.685  14.886
97121W        W65350  35.164  35.192  12.997
97122W        W65351  33.909  44.037   0.995
97123W        W65352  30.555  23.809   0.527
97124W        W65353  33.305  13.385  12.991
97125W        W65354   2.666   5.224  12.065
97126W        W65355  15.216  11.194   2.774
97127W        W65356  41.248  18.375  11.114
97128W        W65357   6.683  22.742   1.170
97129W        W65358  28.661  34.089   0.694
97130W        W65359   2.454  25.107   0.095
97131W        W65360  20.241   7.854   4.847
97132W        W65361   5.658  21.971   1.365
97133W        W65362  44.326   9.180   0.865
97134W        W65363  10.499  12.382   0.833
97135W        W65364  11.678   5.353   2.272
97136W        W65365  33.355  16.252  11.056
97137W        W65366   4.815  28.535  12.859
97138W        W65367  35.000  38.603  10.533
97139W        W65368  29.849  18.771   0.500
97140W        W65369  42.964  17.564   1.453
97141W        W65370   3.309  27.678  14.268
97142W        W65371  27.214  15.361  11.723
97143W        W65372  20.066  12.258   3.626
97144W        W65373  29.412  37.874   1.774
97145W        W65374  35.878   6.435  12.045
97146W        W65375  12.844  44.427  14.616
97147W        W65376  24.763  17.622  12.933
97148W        W65377   9.162  41.787   3.941
97149W        W65378  16.088  30.231  11.541
97150W        W65379  38.300   9.931  14.715
97151W        W65380  16.080  28.223   4.373
97152W        W65381  38.392  13.325   4.167
97153W        W65382  39.720  27.149  10.544
97154W        W65383  20.059   5.390   3.235
97155W        W65384  20.654  26.740  10.227
97156W        W65385  17.763  17.885  13.002
97157W        W65386   0.945  24.452   4.899
97158W        W65387  30.060   5.711  10.536
97159W        W65388  30.180   3.889  11.693
97160W        W65389  33.554  34.957  14.002
97161W        W65390  37.441  12.418   2.702
97162W        W65391  33.407  19.291  12.574
97163W        W65392  44.010   6.769   3.967
97164W        W65393  15.117   0.310  10.761
97165W        W65394  39.146  36.485   2.969
97166W        W65395  26.995  10.698   0.005
97167W        W65396  13.753   4.892   4.741
97168W        W65397   3.990  28.831  13.012
97169W        W65398   4.445  27.945  11.564
97170W        W65399  28.114  17.665   4.236
97171W        W65400   6.438  25.060   4.266
97172W        W65401  11.582  34.452   4.214
97173W        W65402   8.458  16.825   0.459
97174W        W65403  29.051  15.310   2.310
97175W        W65404  37.541   4.732  14.456
97176W        W65405  24.618  26.434   0.948
97177W        W65406  10.298   7.855   0.910
97178W        W65407  39.763  15.188  13.390
97179W        W65408  38.913  37.144   2.410
97180W        W65409  18.265   1.742   1.199
97181W        W65410  18.956  12.685   0.754
97182W        W65411  42.007  15.762   3.176
97183W        W65412  37.119  31.612  12.465
97184W        W65413  13.812  36.948   1.249
97185W        W65414  37.283  31.566  14.246
97186W        W65415  44.946  10.339  10.431
97187W        W65416  37.753  33.424   4.047
97188W        W65417  24.319   8.840  11.668
97189W        W65418  31.280  31.714  13.553
97190W        W65419   2.645  28.122   2.444
97191W        W65420  39.467  32.826   4.598
97192W        W65421  17.196  13.400  13.448
97193W        W65422  11.524  36.561   0.722
97194W        W65423  16.541  23.976  14.545
97195W        W65424  30.804   5.398   2.798
97196W        W65425  27.869  35.086   4.518
97197W        W65426  37.150  18.286  10.822
97198W        W65427  41.455  38.266   1.765
97199W        W65428  21.051  41.146   3.309
97200W        W65429   9.111   4.328   0.945
97201W        W65430   4.345  38.907  10.439
97202W        W65431  13.876   9.068  11.013
97203W        W65432  20.075  28.294   0.034
97204W        W65433  22.522  26.007  11.097
97205W        W65434  29.818  20.655  14.307
97206W        W65435   0.210   7.815  11.158
97207W        W65436  35.322  43.339   2.507
97208W        W65437   3.923  13.129   3.151
97209W        W65438  20.245  22.799  13.341
97210W        W65439  26.155  33.419   3.599
97211W        W65440  23.603  34.493  14.678
97212W        W65441   5.229  19.704  12.782
97213W        W65442  14.643   4.195  13.055
97214W        W65443  20.747  25.576   0.091
97215W        W65444  28.510  36.327  14.746
97216W        W65445  27.393  31.056  14.349
97217W        W65446   1.132  16.623  14.822
97218W        W65447  31.963  31.981  13.084
97219W        W65448  33.269   8.923   4.937
97220W        W65449   3.855  19.202   4.436
97221W        W65450  17.770  35.979  12.625
97222W        W65451   7.958  21.082  14.986
97223W        W65452  21.419  23.174  14.547
97224W        W65453   9.471  14.167  13.448
97225W        W65454  42.773  36.422   3.365
97226W        W65455   5.394  35.327   0.807
97227W        W65456  43.349  19.481  10.276
97228W        W65457  23.735  12.028  14.036
97229W        W65458  38.644  44.472  13.084
97230W        W65459  14.144   9.127   2.917
97231W        W65460  20.978  20.258  14.765
97232W        W65461  32.682  39.828  10.842
97233W        W65462  31.600  25.014   0.296
97234W        W65463   2.339   2.210   0.816
97235W        W65464  43.848  21.637   4.703
97236W        W65465  34.367  40.410  14.456
97237W        W65466  35.626   1.698  11.052
97238W        W65467  28.913  16.216  13.880
97239W        W65468  18.657   6.818  10.654
97240W        W65469  35.640   6.762   4.483
97241W        W65470  16.063  14.306   4.516
97242W        W65471  24.611  26.251   4.599
97243W        W65472  19.955   9.263   4.283
97244W        W65473   7.212  16.809   0.750
97245W        W65474  11.192  39.432   3.619
97246W        W65475  25.182  32.535  10.541
97247W        W65476  37.864   1.748   3.278
97248W        W65477  16.095   0.410   4.130
97249W        W65478  14.255  24.284   4.172
97250W        W65479   3.391  24.209  11.539
97251W        W65480   1.480  19.345   1.791
97252W        W65481  24.717  14.925  12.530
97253W        W65482  12.110  18.391  11.446
97254W        W65483  35.963  19.994  13.910
97255W        W65484  34.573  15.877   5.104
97256W        W65485  26.495  21.996   1.796
97257W        W65486  36.789  29.707   3.724
97258W        W65487  15.775  27.661   3.629
97259W        W65488  38.008  44.560  11.241
97260W        W65489  34.598  21.938  11.518
97261W        W65490   7.361  21.815   2.724
97262W        W65491  32.083  17.259   2.882
97263W        W65492  43.888  23.010  11.506
97264W        W65493  33.980   8.515   3.592
97265W        W65494   6.681  26.602  10.994
97266W        W65495  24.739  24.126   3.830
97267W        W65496   1.524   2.315  10.584
97268W        W65497  44.876  33.184  14.963
97269W        W65498  25.797  20.748   0.895
97270W        W65499  43.546   6.944   2.843
97271W        W65500  35.957   0.892  14.069
97272W        W65501  17.261   1.277   3.683
97273W        W65502  15.226  44.005  11.177
97274W        W65503  26.082  24.541   3.869
97275W        W65504   8.860  20.047   3.883
97276W        W65505  28.964  17.815  14.938
97277W        W65506   2.730  39.998   1.702
97278W        W65507  10.192  39.994  10.586
97279W        W65508  41.811  29.032  14.514
97280W        W65509   5.025  28.779   1.287
97281W        W65510  13.415  31.550   2.114
97282W        W65511  24.225  14.785   4.050
97283W        W65512  41.077  36.457  11.712
97284W        W65513   0.474  23.425   4.146
97285W        W65514  19.499  11.281  13.720
97286W        W65515  12.741   2.990  12.386
97287W        W65516  37.060  11.207  14.550
97288W        W65517  20.933  37.500   1.229
97289W        W65518  37.878  29.478  10.027
97290W        W65519   5.228  31.038   2.789
97291W        W65520  24.387  37.426   2.788
97292W        W65521  19.183  23.465  11.118
97293W        W65522  18.401  20.762   3.422
97294W        W65523  30.318  26.940   1.321
97295W        W65524  25.731   7.601   2.822
97296W        W65525   8.125  42.355  12.978
97297W        W65526  43.522   0.401  13.330
97298W        W65527   1.987   4.099   3.733
97299W        W65528   0.630  31.121   3.191
97300W        W65529   7.611   1.325  12.937
97301W        W65530  33.639  32.243   1.342
97302W        W65531  30.086  12.844   4.647
97303W        W65532  19.157  15.971   1.662
97304W        W65533  30.360  33.407  13.757
97305W        W65534   9.663   9.926  10.614
97306W        W65535  39.942  18.113   1.420
97307W        W65536  14.275  35.234   1.715
97308W        W65537  37.341  30.529   1.908
97309W        W65538  35.777  33.115  12.963
97310W        W65539  18.636  11.436   3.739
97311W        W65540  19.356  40.109  14.972
97312W        W65541  27.151  34.353   4.091
97313W        W65542  18.568  38.047  11.470
97314W        W65543  10.542  42.907   3.175
97315W        W65544  40.900  10.234  13.142
97316W        W65545  28.486  30.554  12.700
97317W        W65546  19.611  15.646   0.935
97318W        W65547  32.937  19.524  13.857
97319W        W65548  22.809   0.619   4.819
97320W        W65549  16.306  21.509  10.765
97321W        W65550   0.749  20.488   1.702
97322W        W65551   9.155  24.201   9.840
97323W        W65552  16.605  15.459   2.781
97324W        W65553  27.801  43.402   4.474
97325W        W65554  22.355   4.783   4.240
97326W        W65555  22.002   5.682   4.114
97327W        W65556  16.479  20.549   0.230
97328W        W65557  41.949  41.317  10.558
97329W        W65558  27.573   9.709   3.617
97330W        W65559  18.681  23.002  13.516
97331W        W65560  39.873  31.152   3.362
97332W        W65561  37.168  22.731  13.307
97333W        W65562  27.905  25.158  10.308
97334W        W65563  31.115  15.192   2.840
97335W        W65564  23.346  26.984  11.495
97336W        W65565  12.768  12.340  11.200
97337W        W65566  12.806  20.174   0.658
97338W        W65567  38.503   4.724  11.411
97339W        W65568   9.407  17.744   4.934
97340W        W65569  28.098  44.332  11.935
97341W        W65570  26.493   7.244  13.035
97342W        W65571  11.958  15.649   2.308
97343W        W65572  36.373  38.529  14.322
97344W        W65573   7.255  42.842   0.719
97345W        W65574  34.040  30.676  11.326
97346W        W65575   6.432  22.078  11.413
97347W        W65576  31.968  36.584   3.084
97348W        W65577  14.532   9.624   2.251
97349W        W65578  12.132  10.790   3.848
97350W        W65579  19.799  36.145  13.114
97351W        W65580  39.793  29.466   0.443
97352W        W65581  39.906  42.890   0.301
97353W        W65582  18.625  32.679   0.907
97354W        W65583  29.590  22.765   1.415
97355W        W65584  40.761  24.043  11.487
97356W        W65585  22.660   2.948   0.254
97357W        W65586  42.598  33.113   4.599
97358W        W65587  42.345  38.768  11.892
97359W        W65588  22.912  33.600   3.137
97360W        W65589  20.511   0.962  11.026
97361W        W65590  25.103  12.610   2.584
97362W        W65591  14.514  28.490  11.169
97363W        W65592  32.545  21.668  11.685
97364W        W65593  10.685   3.866  13.027
97365W        W65594   4.976  27.768   1.047
97366W        W65595  31.091  44.320  13.436
97367W        W65596  19.328  34.489  12.995
97368W        W65597  19.662  25.203  12.810
97369W        W65598   1.757  24.212  13.564
97370W        W65599  38.341   6.272   3.228
97371W        W65600   9.289   2.277   4.593
97372W        W65601  22.642  12.407  14.745
97373W        W65602  21.138  28.731   2.940
97374W        W65603   3.514  29.554  12.737
97375W        W65604   0.793  41.280  14.229
97376W        W65605  28.166  32.942  13.432
97377W        W65606  34.851  28.061   3.946
97378W        W65607   7.808  22.235   0.249
97379W        W65608  40.543  36.141  13.975
97380W        W65609  34.589  21.232  13.436
97381W        W65610   7.889   0.292   0.223
97382W        W65611  34.844  43.327   4.382
97383W        W65612   4.357  10.855   4.756
97384W        W65613  27.697  33.720  10.642
97385W        W65614   2.930   7.401  12.413
97386W        W65615  36.651  29.481   0.799
97387W        W65616  26.495  27.478   2.355
97388W        W65617   6.329  23.146  13.103
97389W        W65618  10.940  29.737   3.124
97390W        W65619  13.873  16.723  13.955
97391W        W65620  15.395  25.713  12.550
97392W        W65621  10.866  25.138   1.381
97393W        W65622  40.873  23.469   3.873
97394W        W65623  20.138  43.288  12.026
97395W        W65624  18.298   8.121   2.598
97396W        W65625  43.544  40.029  12.909
97397W        W65626  23.770  13.246  10.427
97398W        W65627  17.725  40.680   3.325
97399W        W65628  14.858  27.779   4.002
97400W        W65629   5.501  35.101  14.959
97401W        W65630  30.514  29.564  12.077
97402W        W65631   7.191  12.631   4.560
97403W        W65632  11.402   5.813  12.912
97404W        W65633  16.370   9.105  14.622
97405W        W65634  20.806   1.074  11.489
97406W        W65635  16.234  40.347  10.525
97407W        W65636   9.028  25.134   0.837
97408W        W65637  12.543  25.162   1.834
97409W        W65638  20.159   7.833  11.011
97410W        W65639  33.292  41.050   3.237
97411W        W65640   7.203   9.554  14.884
97412W        W65641  38.309  17.136  10.988
97413W        W65642  21.781   0.807  12.520
97414W        W65643  10.610  43.840   1.096
97415W        W65644  27.769  39.087   3.580
97416W        W65645  15.234  12.334   3.242
97417W        W65646   4.629  24.624  11.496
97418W        W65647  27.664  14.851  13.836
97419W        W65648  36.905  40.947   2.966
97420W        W65649   1.668   5.716   2.323
97421W        W65650   0.201  34.700  12.409
97422W        W65651  40.335  44.278   1.547
97423W        W65652  18.096  29.388  13.358
97424W        W65653  13.368  18.185   4.582
97425W        W65654  24.628  35.776  10.251
97426W        W65655  19.980  11.230   4.684
97427W        W65656  17.294  21.476   2.806
97428W        W65657   8.386  22.246   1.703
97429W        W65658   9.639  17.180  12.014
97430W        W65659   6.091  36.487   3.323
97431W        W65660  26.416  24.080   1.165
97432W        W65661  40.727   4.681   3.593
97433W        W65662  36.918  34.839  10.423
97434W        W65663  21.120  28.103  11.265
97435W        W65664  27.082  21.125  13.522
97436W        W65665   4.139  10.205   2.422
97437W        W65666  42.290  19.527  14.772
97438W        W65667  43.526  12.052  11.361
97439W        W65668   9.415  27.506   3.550
97440W        W65669   7.196  41.470   0.361
97441W        W65670  15.686  34.575   2.827
97442W        W65671   9.632  28.032  11.570
97443W        W65672  24.272  32.183   5.021
97444W        W65673  31.038  27.490   0.743
97445W        W65674  16.036  32.507  14.906
97446W        W65675  42.309  38.517   2.380
97447W        W65676  20.342  41.180   4.717
97448W        W65677   4.216  12.318   2.662
97449W        W65678  10.324  28.378  11.021
97450W        W65679  27.485  32.040   0.169
97451W        W65680  21.520   0.435   1.927
97452W        W65681  29.464  10.806  13.506
97453W        W65682   4.431   6.305  12.382
97454W        W65683  16.283   1.896  12.450
97455W        W65684  28.531  24.604   3.865
97456W        W65685  19.265  14.333  13.820
97457W        W65686  24.260  42.675   0.270
97458W        W65687  22.629  31.517   4.543
97459W        W65688  33.186  43.022   2.367
97460W        W65689   1.883  37.515  10.676
97461W        W65690  44.818  20.917   5.299
97462W        W65691  18.294   6.086   2.817
97463W        W65692  32.151  26.087   2.691
97464W        W65693  34.691  20.249  12.350
97465W        W65694  24.191  32.774  11.226
97466W        W65695  10.143  41.456  11.432
97467W        W65696  39.514  24.049   0.255
97468W        W65697  35.009  37.851  14.366
97469W        W65698  36.974  37.754  14.348
97470W        W65699  40.962   4.376  11.516
97471W        W65700  21.784  13.529   3.710
97472W        W65701  18.324  42.354   4.647
97473W        W65702  18.043  27.645  14.040
97474W        W65703  44.253  15.589  11.882
97475W        W65704   8.381   3.449   4.653
97476W        W65705  20.562   2.099   3.017
97477W        W65706  31.952  14.765   0.951
97478W        W65707  17.213  24.231  12.397
97479W        W65708  20.313  36.422   1.933
97480W        W65709  38.907  32.156  14.346
97481W        W65710  20.140  35.101   1.167
97482W        W65711   5.766  17.574  11.155
97483W        W65712  39.382  28.081   2.675
97484W        W65713  42.251  20.149   5.102
97485W        W65714  29.633   4.472   4.469
97486W        W65715  36.446  29.548  14.021
97487W        W65716  41.516  31.175  13.552
97488W        W65717  34.517  22.749   4.165
97489W        W65718  25.609  28.533  13.611
97490W        W65719  24.935  22.589   1.802
97491W        W65720  19.056  22.253   2.333
97492W        W65721  29.911  42.305  14.638
97493W        W65722  24.710  30.020  13.510
97494W        W65723  10.707  12.824   0.664
97495W        W65724  36.651  41.005  10.444
97496W        W65725   1.706  19.433   4.175
97497W        W65726  23.910  14.335   3.228
97498W        W65727   3.304   8.463  12.309
97499W        W65728  11.820  23.686  12.930
97500W        W65729  28.435  40.365   1.495
97501W        W65730  10.664  27.330   2.926
97502W        W65731  38.986   7.705  11.863
97503W        W65732   7.472  35.331  12.065
97504W        W65733   6.595  36.370  11.067
97505W        W65734  38.352  37.044   0.894
97506W        W65735  17.671  39.602   4.242
97507W        W65736  44.099  31.097  14.357
97508W        W65737  32.463  44.020  13.574
97509W        W65738  12.838  43.349   0.914
97510W        W65739  41.332  43.477   3.085
97511W        W65740  34.064  33.848   4.168
97512W        W65741  41.439  28.685   3.382
97513W        W65742   4.860  31.083   3.138
97514W        W65743  36.387  30.407   2.586
97515W        W65744  42.993   7.694   0.953
97516W        W65745   2.477  16.522  13.488
97517W        W65746  23.098  42.470  11.121
97518W        W65747  37.442  28.208   0.487
97519W        W65748  43.734   9.459  13.093
97520W        W65749  38.470  30.226  13.785
97521W        W65750  28.281  29.090  11.094
97522W        W65751  28.033  43.458  12.002
97523W        W65752  40.876   2.492  14.313
97524W        W65753  40.486   0.353   4.886
97525W        W65754  21.521  34.406  14.462
97526W        W65755   6.219   2.781   0.934
97527W        W65756  31.401  25.063  14.816
97528W        W65757  17.479  43.419  12.668
97529W        W65758   6.247  14.567   1.797
97530W        W65759  36.927  20.727  11.182
97531W        W65760  38.475  21.562   4.427
97532W        W65761   8.408  21.048  11.466
97533W        W65762  25.174   1.285  10.553
97534W        W65763  42.013  19.811   2.536
97535W        W65764  15.746  40.093   4.477
97536W        W65765  32.123  37.895   2.006
97537W        W65766  10.169  13.816   0.465
97538W        W65767  40.627  19.426  14.457
97539W        W65768   9.544  21.001   0.269
97540W        W65769  38.724   0.043   3.668
97541W        W65770  35.563   1.148   3.255
97542W        W65771  21.373  32.107   4.988
97543W        W65772  27.484  30.789  12.019
97544W        W65773   4.651  11.652  10.777
97545W        W65774  24.279   4.524  13.493
97546W        W65775  33.084  40.930  10.601
97547W        W65776   2.743  42.547  10.603
97548W        W65777  36.474  38.717  14.804
97549W        W65778   4.292  27.419   2.290
97550W        W65779  12.272  13.921  12.347
97551W        W65780  19.181   3.606  13.442
97552W        W65781   5.227  12.349   0.553
97553W        W65782  37.324  19.688  11.644
97554W        W65783  17.462  24.233  14.287
97555W        W65784  20.077  37.062  10.692
97556W        W65785  40.541   2.898   3.396
97557W        W65786  30.419  29.213  13.573
97558W        W65787  35.205   0.314  12.189
97559W        W65788  40.766   2.888   1.583
97560W        W65789  21.868  33.010  12.397
97561W        W65790   8.389  14.576   4.962
97562W        W65791  21.169  28.001   3.938
97563W        W65792  40.348  12.289   1.167
97564W        W65793  38.097  40.815   1.250
97565W        W65794  28.529  44.823  14.795
97566W        W65795  35.415  38.628   3.614
97567W        W65796  18.658  44.256   3.817
97568W        W65797  38.876  21.551   3.642
97569W        W65798  32.416  44.943  13.035
97570W        W65799   2.400  27.312  12.906
97571W        W65800   0.021  41.869  13.393
97572W        W65801  33.531  13.431   3.245
97573W        W65802   4.169  39.098  10.878
97574W        W65803  26.627  13.659   1.741
97575W        W65804  34.712  31.881   4.093
97576W        W65805  32.927  18.131   0.037
97577W        W65806  30.925  35.475  10.791
97578W        W65807  12.663  38.429  13.018
97579W        W65808  37.514  12.259  10.543
97580W        W65809  31.526  26.145  11.055
97581W        W65810  23.641  30.537   3.227
97582W        W65811  43.089  43.272  14.416
97583W        W65812  22.154  24.895   1.364
97584W        W65813  24.979  33.761   0.348
97585W        W65814  41.380  33.762   2.253
97586W        W65815  40.263   8.706  13.704
97587W        W65816   4.326  33.536  10.593
97588W        W65817   5.489  37.213  12.589
97589W        W65818  39.655   9.756   3.715
97590W        W65819  43.127  36.415  11.605
97591W        W65820  12.375   9.429   3.763
97592W        W65821  39.480  21.328  11.080
97593W        W65822  35.009  13.631  12.036
97594W        W65823  16.676  28.934  11.450
97595W        W65824  33.154  17.695  11.587
97596W        W65825  40.303  21.583   1.761
97597W        W65826   6.384   4.655   1.174
97598W        W65827  31.931  42.911   1.856
97599W        W65828   1.025  33.024   0.901
97600W        W65829   6.700  10.479  10.134
97601W        W65830   4.366  14.072  14.552
97602W        W65831  24.596  16.527  13.485
97603W        W65832  23.165  25.439  13.951
97604W        W65833   7.730  27.145  10.459
97605W        W65834  13.855  28.558  13.573
97606W        W65835  25.756  34.806  14.433
97607W        W65836  13.022  30.425   0.244
97608W        W65837  20.957  35.279   2.837
97609W        W65838  27.238  16.224   0.748
97610W        W65839  20.116  35.609   0.269
97611W        W65840  44.329  16.126   4.832
97612W        W65841  12.487  21.703   0.237
97613W        W65842  36.107  40.854  11.495
97614W        W65843   5.682  26.990  12.195
97615W        W65844  20.582  40.906   2.897
97616W        W65845  26.597  37.524   2.453
97617W        W65846  32.362  21.143  12.333
97618W        W65847  14.805  19.259   0.820
97619W        W65848  13.652  11.781   1.297
97620W        W65849  27.631  16.803   3.642
97621W        W65850  40.030  43.524  11.153
97622W        W65851  23.751  31.548  11.738
97623W        W65852  33.625   8.937   4.590
97624W        W65853  16.514   9.972  14.333
97625W        W65854   3.945  25.472   4.830
97626W        W65855  35.532  16.540  12.381
97627W        W65856  23.092  19.474   4.360
97628W        W65857  24.242  39.531  10.703
97629W        W65858  23.248   0.357  14.873
97630W        W65859  34.029  43.960  12.028
97631W        W65860   7.356   6.680   3.208
97632W        W65861  10.409   9.197  11.626
97633W        W65862  12.995  43.304  11.024
97634W        W65863   9.289   4.086  12.799
97635W        W65864   0.925  23.666  14.356
97636W        W65865  18.165  36.755   2.474
97637W        W65866  42.015   3.704  12.363
97638W        W65867  15.666  10.440  14.251
97639W        W65868  42.923  26.974  11.257
97640W        W65869  29.957  15.986   1.308
97641W        W65870  27.589   0.233  10.644
97642W        W65871   0.886  38.904  14.417
97643W        W65872   7.763  19.703  10.901
97644W        W65873  12.879  14.838   0.302
97645W        W65874  23.499   8.935  14.248
97646W        W65875  14.658   7.581  10.530
97647W        W65876  23.187  25.933   0.553
97648W        W65877  26.604  24.819   0.469
97649W        W65878   2.347  44.120   4.126
97650W        W65879  33.433  27.756   1.277
97651W        W65880  25.950   0.319  14.066
97652W        W65881  14.238   1.413   2.851
97653W        W65882  21.965   8.814  13.047
97654W        W65883  37.073  34.187   1.343
97655W        W65884  20.653  40.046  13.966
97656W        W65885  44.229  42.712  12.487
97657W        W65886  37.574   7.800   0.913
97658W        W65887   6.230  38.726   4.531
97659W        W65888  12.011   4.999  14.287
97660W        W65889   9.104  23.510   3.621
97661W        W65890  21.728  27.367   2.303
97662W        W65891  16.650  22.058  12.359
97663W        W65892  39.436   2.637   1.833
97664W        W65893  44.756   1.649  11.592
97665W        W65894  32.374  20.631  11.595
97666W        W65895  15.272   9.710  13.456
97667W        W65896  25.009   5.317  13.455
97668W        W65897  43.815  34.784  11.977
97669W        W65898  44.857  17.146   2.829
97670W        W65899   5.769  33.311   3.896
97671W        W65900  31.022  15.804   4.838
97672W        W65901   3.175   0.852  13.611
97673W        W65902   0.799  29.641   4.826
97674W        W65903  43.406  41.293   1.301
97675W        W65904  18.605  16.637   4.325
97676W        W65905  27.779  22.537  14.539
97677W        W65906  31.137  44.727  11.607
97678W        W65907  23.166  43.972   2.684
97679W        W65908  44.831  40.562   4.686
97680W        W65909   9.769  22.700   4.539
97681W        W65910  44.730  15.716  14.021
97682W        W65911   8.460  24.608  12.365
97683W        W65912  39.309  41.084   2.463
97684W        W65913   9.492  13.220   5.009
97685W        W65914  38.513  42.292  12.510
97686W        W65915   6.939  29.583  13.959
97687W        W65916  34.245  33.549  12.671
97688W        W65917   6.234  21.048   2.431
97689W        W65918  15.533  21.217   3.221
97690W        W65919   2.529  12.807   0.441
97691W        W65920  29.649  36.615  11.079
97692W        W65921  12.159  32.819   3.736
97693W        W65922  30.575  20.003  13.755
97694W        W65923  41.325  14.960  12.688
97695W        W65924  37.416  38.745   1.169
97696W        W65925  22.076  39.474   4.516
97697W        W65926  42.693  19.606  12.467
97698W        W65927  40.484  27.409  14.887
97699W        W65928  18.708  19.238  10.433
97700W        W65929  16.120  19.072   0.296
97701W        W65930  14.932  28.000   2.756
97702W        W65931   0.165   3.888  14.396
97703W        W65932  28.036  31.238  12.507
97704W        W65933  27.107  35.488   3.291
97705W        W65934  24.693  32.072  11.354
97706W        W65935   3.490  14.311  14.256
97707W        W65936  31.227   8.700   0.788
97708W        W65937  26.061  43.591  11.180
97709W        W65938  31.461  15.783   2.702
97710W        W65939  25.235  23.135  12.028
97711W        W65940   5.385  12.853  12.939
97712W        W65941  19.596  43.360   3.688
97713W        W65942   1.502  31.017   2.887
97714W        W65943   5.557  26.791   4.356
97715W        W65944  44.786  21.730   3.366
97716W        W65945  20.717  26.140   2.377
97717W        W65946  28.193  23.024  14.337
97718W        W65947  19.354  26.145  13.102
97719W        W65948   1.776  18.050  14.239
97720W        W65949  27.727  13.151  10.172
97721W        W65950  41.992  32.848   1.435
97722W        W65951  18.686  35.017   4.326
97723W        W65952   7.336  21.225   5.019
97724W        W65953  35.414  37.845   0.600
97725W        W65954  20.743  33.663  10.632
97726W        W65955  12.503   7.882  14.957
97727W        W65956  31.407  12.560  14.360
97728W        W65957  44.923  32.960  10.972
97729W        W65958   1.973   3.684  13.433
97730W        W65959  44.829   0.103  10.489
97731W        W65960   7.532  29.781   3.271
97732W        W65961  31.139   0.257  14.285
97733W        W65962  13.015  41.806   1.487
97734W        W65963  20.179   5.430   1.707
97735W        W65964  36.953   4.361  11.864
97736W        W65965   1.817  22.085   4.216
97737W        W65966  40.284  18.003   1.825
97738W        W65967  15.168  44.311   3.148
97739W        W65968  42.565  30.464  10.757
97740W        W65969  28.954   6.551  13.942
97741W        W65970  23.279  10.926  12.227
97742W        W65971  24.161  43.300   0.882
97743W        W65972  19.311  12.091  14.298
97744W        W65973   4.761  28.739  14.928
97745W        W65974   9.443  36.361  10.605
97746W        W65975   0.310   2.811  12.476
97747W        W65976  44.396   2.907  10.731
97748W        W65977  11.243   4.731   4.520
97749W        W65978  35.453   9.984   2.960
97750W        W65979   3.244  39.985   4.721
97751W        W65980  18.156  31.525   9.846
97752W        W65981  10.286   8.426  12.920
97753W        W65982  38.377  35.009   4.360
97754W        W65983  30.312   2.836  13.151
97755W        W65984  39.647  17.756   4.530
97756W        W65985   5.770  37.735   0.249
97757W        W65986   6.915   1.528   1.314
97758W        W65987  18.242  22.247   0.348
97759W        W65988  23.054   4.865   0.795
97760W        W65989  23.482  30.834   1.397
97761W        W65990  20.305  27.185   4.519
97762W        W65991   4.409  12.169   3.535
97763W        W65992   5.491  12.275   2.593
97764W        W65993  26.978  11.747  14.039
97765W        W65994  23.670   1.263  11.670
97766W        W65995  42.886  43.533  11.127
97767W        W65996  22.210  15.049  11.997
97768W        W65997  23.385  12.228   2.729
97769W        W65998   7.141  12.307   4.126
97770W        W65999  15.271  26.776  10.286
97771W        W66000  12.723  25.246   0.805
97772W        W66001  31.471  36.436   0.709
97773W        W66002  32.211  32.174  14.363
97774W        W66003  39.579  34.050  11.639
97775W        W66004  22.761   6.862  13.895
97776W        W66005  35.714   9.656  11.662
97777W        W66006  38.549  38.157  11.713
97778W        W66007  32.314  12.515  14.788
97779W        W66008  39.635   8.656  11.974
97780W        W66009  12.145  16.026  14.778
97781W        W66010  42.538   6.878  11.211
97782W        W66011  39.360  23.101  12.430
97783W        W66012  15.967  37.902   1.943
97784W        W66013   2.171   3.422   3.321
97785W        W66014  25.228  31.535  11.491
97786W        W66015  24.577  17.261  14.433
97787W        W66016   1.318  42.430   4.521
97788W        W66017  27.963  22.013  12.990
97789W        W66018  42.532   6.202   2.634
97790W        W66019  15.716   8.190   1.001
97791W        W66020  20.139  10.062   0.985
97792W        W66021  16.682   8.632  11.515
97793W        W66022   9.221  20.794  14.887
97794W        W66023  29.658  39.007  13.063
97795W        W66024   6.607  29.186  13.789
97796W        W66025  18.989   0.960   2.967
97797W        W66026   6.746  32.849  11.714
97798W        W66027  13.923  18.828  12.898
97799W        W66028  38.622  17.210   3.098
97800W        W66029  31.136  18.195   0.318
97801W        W66030  26.727  26.567   1.864
97802W        W66031  33.047   6.242   2.851
97803W        W66032  42.680  10.722  11.409
97804W        W66033  16.436  16.672  10.692
97805W        W66034   2.442  35.844  12.425
97806W        W66035  37.281  37.918  11.965
97807W        W66036  16.097   7.316   1.148
97808W        W66037   9.881  12.231   2.729
97809W        W66038  19.275   5.613   2.815
97810W        W66039  31.127  44.509  14.948
97811W        W66040  12.310  20.126   3.651
97812W        W66041  26.514  37.782  13.442
97813W        W66042  17.262  26.149  11.616
97814W        W66043   2.475  38.901  13.593
97815W        W66044  21.670  35.913  14.342
97816W        W66045   6.627  20.616   0.002
97817W        W66046  23.269  14.160  14.552
97818W        W66047  26.945  37.935  13.078
97819W        W66048  36.000  18.747  11.078
97820W        W66049  26.664   7.710  12.287
97821W        W66050   1.909   0.926  12.953
97822W        W66051  27.250  11.538   4.472
97823W        W66052   2.256   4.988   1.219
97824W        W66053  31.386  23.625   3.232
97825W        W66054  35.665  30.274  11.673
97826W        W66055  23.211  36.661   4.090
97827W        W66056  30.615   7.425   0.493
97828W        W66057   7.429  30.037   2.257
97829W        W66058  17.278  39.899   0.901
97830W        W66059   3.261  36.064  13.354
97831W        W66060  27.124  44.867  11.519
97832W        W66061  23.642  11.153  14.486
97833W        W66062   9.960  26.942   0.994
97834W        W66063  17.063  11.787  10.644
97835W        W66064   4.303  24.697   4.664
97836W        W66065  15.698   9.147   4.086
97837W        W66066  31.996  21.882   0.840
97838W        W66067  39.550  30.405  14.973
97839W        W66068  18.460  11.551  10.253
97840W        W66069  37.071  13.260   2.763
97841W        W66070  43.951   4.990  12.912
97842W        W66071  38.826  14.070   4.156
97843W        W66072  33.004  29.633  13.408
97844W        W66073  24.960  38.274   1.958
97845W        W66074  26.987  27.723   2.133
97846W        W66075  44.069  15.114  11.521
97847W        W66076  12.113  16.640   0.276
97848W        W66077  27.980  40.029   3.691
97849W        W66078   5.815  37.421   4.453
97850W        W66079   9.412  10.867  14.576
97851W        W66080  16.284  38.249   4.778
97852W        W66081  16.675  40.325   1.717
97853W        W66082  19.290   2.866  13.735
97854W        W66083  44.248  41.458  11.687
97855W        W66084   7.378  27.611   2.225
97856W        W66085  28.715  36.964   2.881
97857W        W66086  17.273  14.878   4.431
97858W        W66087  39.518  15.297  11.488
97859W        W66088   5.675  20.057  13.806
97860W        W66089  11.011  19.688   4.044
97861W        W66090  15.597  42.901  14.815
97862W        W66091  40.007   5.903   0.332
97863W        W66092  33.423  28.074   4.487
97864W        W66093   0.772  11.890  13.906
97865W        W66094  15.368   5.482   4.264
97866W        W66095  38.358  19.361   0.012
97867W        W66096  25.994  30.912  14.331
97868W        W66097  11.601  34.366  11.147
97869W        W66098  26.695  29.191  13.062
97870W        W66099  10.811  17.618   2.410
97871W        W66100  17.674  34.998   4.633
97872W        W66101  30.171  29.902   4.861
97873W        W66102   0.188  42.880   1.885
97874W        W66103  39.644   4.276   4.241
97875W        W66104  14.409   4.481   1.509
97876W        W66105   7.269  37.705   1.523
97877W        W66106  40.893   8.201   3.788
97878W        W66107   6.756  30.581   4.159
97879W        W66108  17.658  24.481  13.869
97880W        W66109  40.525  28.666  14.449
97881W        W66110  15.799  23.177  10.661
97882W        W66111  38.622  43.381  13.580
97883W        W66112  18.127   5.031   1.793
97884W        W66113  16.151  33.030  12.751
97885W        W66114  34.648  18.617  12.799
97886W        W66115  44.232   6.841   3.385
97887W        W66116  33.381  34.560   2.273
97888W        W66117  23.172  42.971  10.283
97889W        W66118   6.757  28.489  11.450
97890W        W66119  38.907  18.540  14.517
97891W        W66120   1.769  17.989  14.878
97892W        W66121   9.299  15.297   0.838
97893W        W66122  23.075   6.923   1.250
97894W        W66123  24.937  10.193  14.307
97895W        W66124  37.880  40.446   3.082
97896W        W66125  42.784  34.300   0.378
97897W        W66126  20.098  20.658   4.815
97898W        W66127  24.604  17.622   2.190
97899W        W66128  39.895  35.004  14.470
97900W        W66129  24.641  21.745  11.196
97901W        W66130  38.903  35.993   1.801
97902W        W66131  30.239  12.717  12.312
97903W        W66132  28.708  32.692  13.467
97904W        W66133  43.222   4.225  14.826
97905W        W66134  43.547   3.351  10.746
97906W        W66135  12.131   8.295   0.688
97907W        W66136  26.435  44.837   3.771
97908W        W66137  11.419   1.964  14.718
97909W        W66138  38.286   9.783   1.966
97910W        W66139  32.451   5.623   1.800
97911W        W66140   3.314  11.283   1.914
97912W        W66141  15.088   0.721   2.235
97913W        W66142   3.454  34.149  10.642
97914W        W66143  26.527   9.351  10.679
97915W        W66144  14.048  40.506  12.929
97916W        W66145   4.246  40.519  11.118
97917W        W66146  13.391  21.184   1.991
97918W        W66147  24.669  38.209  13.025
97919W        W66148  30.537  25.539   1.672
97920W        W66149   8.680  31.023  11.100
97921W        W66150  25.022  26.050   0.940
97922W        W66151  17.371   9.098  12.046
97923W        W66152  30.114  34.067   0.417
97924W        W66153  17.252   6.229  12.379
97925W        W66154  10.874  13.283   0.497
97926W        W66155   4.562  44.365   0.989
97927W        W66156   2.706  31.625  11.478
97928W        W66157   7.156  24.942   4.736
97929W        W66158  14.136  28.015   1.164
97930W        W66159  36.215  41.774   0.419
97931W        W66160  29.267  20.985  12.134
97932W        W66161  21.381  16.845  12.325
97933W        W66162  27.754  26.566   0.522
97934W        W66163  21.353  27.426  10.725
97935W        W66164   5.446  35.630   4.564
97936W        W66165   4.342  36.443  13.597
97937W        W66166  10.356  18.300  13.877
97938W        W66167  24.182  35.630  11.147
97939W        W66168  34.453   1.939   0.787
97940W        W66169  17.448  13.536  12.505
97941W        W66170  14.709  35.205   9.975
97942W        W66171   3.983  33.543   4.053
97943W        W66172  19.345  25.928   2.195
97944W        W66173  14.838  43.926  12.100
97945W        W66174   9.917   0.421   0.924
97946W        W66175  33.495  44.493  12.504
97947W        W66176  23.000  18.368  12.917
97948W        W66177  16.869  23.427  11.155
97949W        W66178  29.006  33.496   4.757
97950W        W66179   0.844  42.811   2.852
97951W        W66180  23.114  12.295  12.307
97952W        W66181  27.598  28.237  14.871
97953W        W66182  37.544  44.676   0.925
97954W        W66183   3.052   5.563   2.184
97955W        W66184  32.634  19.360   4.642
97956W        W66185  32.655  36.885   1.257
97957W        W66186  18.495  11.656   3.283
97958W        W66187  11.359  33.996   0.248
97959W        W66188  43.567  42.789  12.037
97960W        W66189  18.649  35.923   4.567
97961W        W66190  31.387  10.706  10.431
97962W        W66191  41.081   1.283   2.298
97963W        W66192   9.846  37.331  11.009
97964W        W66193  27.971  35.922   5.032
97965W        W66194   1.867   3.473  13.918
97966W        W66195  32.035   3.087   0.998
97967W        W66196  37.153  26.852   2.164
97968W        W66197   9.369  16.725   1.869
97969W        W66198  27.918   7.407  14.276
97970W        W66199   3.305  40.774   4.187
97971W        W66200  17.530   5.971  10.380
97972W        W66201  24.693  28.917  13.081
97973W        W66202  39.486  10.925   4.221
97974W        W66203  31.934  25.600   4.081
97975W        W66204  28.928   7.805  11.547
97976W        W66205  31.824   4.726   1.280
97977W        W66206  42.294   4.031  11.490
97978W        W66207  33.926  25.205   0.444
97979W        W66208  12.080  14.838   3.320
97980W        W66209  28.670   4.814  12.237
97981W        W66210   2.043  43.785  12.785
97982W        W66211  25.148  12.305  12.821
97983W        W66212   6.023  36.946   4.561
97984W        W66213  33.058  28.115  12.950
97985W        W66214  20.622  35.495  12.509
97986W        W66215  25.079   3.722  11.693
97987W        W66216  12.338  12.901   1.770
97988W        W66217  12.900  29.469   2.639
97989W        W66218   8.399  26.887   4.422
97990W        W66219  36.961  28.997   5.105
97991W        W66220   8.432   4.787   1.661
97992W        W66221  42.485  22.516  11.520
97993W        W66222  15.681   6.703  11.935
97994W        W66223   1.706  33.537  10.158
97995W        W66224  15.494  14.457  12.321
97996W        W66225  24.280  33.982   3.386
97997W        W66226   8.835  21.972   1.781
97998W        W66227   1.724   7.329   3.932
97999W        W66228  44.414  24.188  10.765
98000W        W66229   9.812  38.082   1.790
98001W        W66230  11.293   5.212   0.616
98002W        W66231  10.783  40.002   2.838
98003W        W66232  23.010  32.439   0.980
98004W        W66233  26.673  30.023   3.621
98005W        W66234  31.644   8.387  14.364
98006W        W66235   6.275  11.265  12.551
98007W        W66236  27.211  12.241   0.401
98008W        W66237  12.235  40.231   3.365
98009W        W66238   7.879  16.317  14.475
98010W        W66239   1.123  40.575  10.000
98011W        W66240  19.683  39.003  12.875
98012W        W66241  14.178  24.244   0.331
98013W        W66242  25.115   0.849   1.520
98014W        W66243  26.490  20.210   1.016
98015W        W66244  10.267  16.186  14.848
98016W        W66245  30.828  42.657   0.389
98017W        W66246  42.514  34.779  12.016
98018W        W66247   8.305  40.426  11.335
98019W        W66248  28.316  41.342   2.655
98020W        W66249  15.173  34.161   4.909
98021W        W66250  14.393  14.237  14.904
98022W        W66251  31.298   0.798   3.488
98023W        W66252  16.716  30.424  14.088
98024W        W66253  12.623  39.451   0.168
98025W        W66254  33.614  18.275  12.904
98026W        W66255  28.049  14.884   4.524
98027W        W66256  20.974  32.927   1.702
98028W        W66257  33.331  27.158  10.796
98029W        W66258  25.005  44.997  13.053
98030W        W66259  23.235  19.970   0.078
98031W        W66260   1.955  14.298  11.156
98032W        W66261  32.753   2.024   3.182
98033W        W66262  43.200  25.715   4.193
98034W        W66263   0.417  35.516  11.250
98035W        W66264  11.126  10.113  11.934
98036W        W66265  43.506  37.350   3.643
98037W        W66266  13.794  43.176   1.285
98038W        W66267  41.035  23.262  12.232
98039W        W66268   1.845  31.639  10.939
98040W        W66269  13.266   4.435   0.937
98041W        W66270  34.558   3.252   3.342
98042W        W66271  25.090  15.933  11.483
98043W        W66272   2.291  15.797  14.450
98044W        W66273   1.022  38.451   3.252
98045W        W66274  11.827  38.843  10.278
98046W        W66275  19.371  41.025  14.845
98047W        W66276  12.551  21.802   1.549
98048W        W66277  39.902   0.763  12.067
98049W        W66278  34.190  15.997  11.082
98050W        W66279   1.235  13.574  12.623
98051W        W66280  38.454  17.143   2.605
98052W        W66281  14.754  38.736  13.425
98053W        W66282  25.009  14.067   0.463
98054W        W66283  15.078  18.465  14.786
98055W        W66284   9.875  13.556  12.164
98056W        W66285   2.568  19.336   2.907
98057W        W66286  19.337  30.967   2.296
98058W        W66287  42.038  21.645   2.588
98059W        W66288  17.984  20.095   2.847
98060W        W66289  30.427  32.110   1.900
98061W        W66290  16.756  10.238   0.903
98062W        W66291  34.531   4.581   4.173
98063W        W66292  15.264   7.678   2.783
98064W        W66293  19.586   6.116   3.186
98065W        W66294  11.539  15.761   3.114
98066W        W66295   6.352   6.785  12.100
98067W        W66296   3.295  10.142  13.327
98068W        W66297  28.538  43.451   0.895
98069W        W66298  19.672   8.276   0.822
98070W        W66299  35.141  22.159   4.507
98071W        W66300   8.063   6.298   4.069
98072W        W66301   6.403  30.448   3.226
98073W        W66302   9.892  36.456   2.812
98074W        W66303  33.967  44.733  14.532
98075W        W66304  29.406  37.349   0.786
98076W        W66305  18.514   1.656   2.952
98077W        W66306   9.626  28.637   1.380
98078W        W66307  27.145   6.235  13.255
98079W        W66308  10.730  32.568  14.351
98080W        W66309  15.099  24.253  13.528
98081W        W66310  38.094  39.506   4.678
98082W        W66311  44.752  13.990  14.361
98083W        W66312  29.424  41.526  14.323
98084W        W66313  12.369  15.069  13.377
98085W        W66314  26.659   3.488   2.294
98086W        W66315   1.272   4.696  13.371
98087W        W66316  40.761  37.288  11.075
98088W        W66317  33.531  10.087  13.384
98089W        W66318   3.283  20.592   4.725
98090W        W66319  13.185   0.414   3.668
98091W        W66320  38.343  33.253  11.148
98092W        W66321  38.544  27.397  12.979
98093W        W66322   7.246  17.097  14.333
98094W        W66323  36.952  13.781  14.955
98095W        W66324  34.590  37.504  12.267
98096W        W66325  35.877  36.071  11.918
98097W        W66326   9.375   3.727   3.197
98098W        W66327  43.816   8.774   1.177
98099W        W66328  13.827  32.534   2.993
98100W        W66329   4.731  35.525  14.743
98101W        W66330   3.625   4.565   0.808
98102W        W66331  34.651  29.585  11.194
98103W        W66332  24.616  43.014   0.893
98104W        W66333  40.633  17.056  10.384
98105W        W66334  11.713   0.775  14.373
98106W        W66335  20.898  35.086   1.948
98107W        W66336  35.376  13.409   3.807
98108W        W66337  13.063  20.695   3.208
98109W        W66338   7.965   6.265  13.978
98110W        W66339  13.382  10.597   1.995
98111W        W66340   7.244  26.823   4.886
98112W        W66341  32.043   7.406   1.939
98113W        W66342  13.611   8.595  14.527
98114W        W66343   9.280  12.901  14.543
98115W        W66344  25.062  31.576   4.783
98116W        W66345  23.451  13.373   1.818
98117W        W66346  19.870   5.298  14.824
98118W        W66347  21.159   4.178  10.789
98119W        W66348  27.394  36.048   2.975
98120W        W66349  13.849  23.640  13.823
98121W        W66350  27.896  26.922  11.872
98122W        W66351  38.381  35.820  11.204
98123W        W66352  26.127  24.553   2.869
98124W        W66353  26.215  42.668   0.481
98125W        W66354  34.025   7.713  10.834
98126W        W66355   0.334  44.996   3.892
98127W        W66356  19.315  43.464  12.499
98128W        W66357  38.829  13.823  11.453
98129W        W66358   6.696  27.725   3.842
98130W        W66359  20.595  15.767   1.134
98131W        W66360   9.740  40.512  13.165
98132W        W66361  40.533  43.529  13.194
98133W        W66362  23.212   4.496   1.369
98134W        W66363  11.953  37.926  14.447
98135W        W66364   7.828  17.018   1.454
98136W        W66365  26.426  27.498  14.282
98137W        W66366  26.640   1.824  11.713
98138W        W66367  14.695  43.771   4.327
98139W        W66368  25.823  41.591  11.029
98140W        W66369  18.819  25.193  10.241
98141W        W66370  19.268  20.982   3.273
98142W        W66371  36.812   6.473  11.275
98143W        W66372  22.545  16.684   1.007
98144W        W66373  34.692  41.342  11.492
98145W        W66374  44.098  15.025   1.626
98146W        W66375  24.039  38.167   2.424
98147W        W66376  19.496  22.253   3.476
98148W        W66377  20.025  27.323  10.204
98149W        W66378  13.023  34.602   2.177
98150W        W66379  10.603   3.342   3.211
98151W        W66380  18.756   9.083  11.741
98152W        W66381  44.871  44.921   4.734
98153W        W66382  40.920   4.468  13.972
98154W        W66383  20.702   0.718  14.032
98155W        W66384  11.656   3.894  13.936
98156W        W66385  13.530  12.737   4.021
98157W        W66386  11.270   7.443  12.475
98158W        W66387  41.273  27.179  13.904
98159W        W66388  15.217  13.752   0.758
98160W        W66389  24.990  44.475   4.181
98161W        W66390  28.089  12.190  10.151
98162W        W66391   1.473  43.399   4.244
98163W        W66392  23.583  39.346  11.303
98164W        W66393  44.533  34.033   0.393
98165W        W66394  30.607  39.913  10.772
98166W        W66395  23.569  31.881   3.367
98167W        W66396   6.826   1.489  14.530
98168W        W66397  20.799  22.220  10.724
98169W        W66398  33.155  30.672   2.980
98170W        W66399   5.672  21.124   2.443
98171W        W66400  29.045  35.831   2.254
98172W        W66401  37.549   9.413   0.418
98173W        W66402  35.639  42.555   3.755
98174W        W66403  30.406  20.693   2.873
98175W        W66404   1.233  32.081   3.718
98176W        W66405  42.745  24.820  14.340
98177W        W66406   0.164  42.351  14.191
98178W        W66407   1.946  41.858  14.473
98179W        W66408  26.914  30.918   2.411
98180W        W66409   8.275  24.463   3.149
98181W        W66410   7.232   1.338  10.513
98182W        W66411   1.159  15.790  10.175
98183W        W66412  17.534   4.213   0.328
98184W        W66413   3.723  40.296   0.477
98185W        W66414  38.785   0.882   0.657
98186W        W66415   9.271  10.673  14.109
98187W        W66416  30.876  23.550   3.174
98188W        W66417  15.073   7.019   0.489
98189W        W66418  10.624  37.639  13.420
98190W        W66419  43.164  39.006  12.428
98191W        W66420  15.165  22.694  14.450
98192W        W66421  21.569   0.573  14.031
98193W        W66422  34.075  33.606  10.697
98194W        W66423  14.211   4.791   0.740
98195W        W66424  34.487  31.085   3.064
98196W        W66425   5.919   3.423   0.687
98197W        W66426  12.228  33.323   3.800
98198W        W66427  12.602  22.092   3.268
98199W        W66428  16.174  17.469  12.857
98200W        W66429   2.531   5.997   2.824
98201W        W66430  34.164  30.548  13.946
98202W        W66431  43.771   6.312   4.051
98203W        W66432  44.672  36.754  11.538
98204W        W66433  11.962   3.874  13.343
98205W        W66434   1.979  42.407  14.855
98206W        W66435  16.046   9.711   2.434
98207W        W66436  27.230  43.029   2.051
98208W        W66437  29.061  41.700   3.870
98209W        W66438   1.484  38.309   2.714
98210W        W66439  44.099  36.675  12.886
98211W        W66440  24.959   0.480  12.002
98212W        W66441   8.293  37.353   1.011
98213W        W66442  34.066  31.503  14.937
98214W        W66443  40.446  35.146   0.274
98215W        W66444  12.752  29.934  13.543
98216W        W66445  16.533  26.359  11.921
98217W        W66446  19.191  33.363   1.545
98218W        W66447  22.674  19.362  11.740
98219W        W66448  40.429  13.838   1.353
98220W        W66449   1.008   3.750  10.709
98221W        W66450  31.632  39.410   1.797
98222W        W66451   0.469  30.989   2.663
98223W        W66452  39.476  33.955  12.913
98224W        W66453   7.484   6.613   0.461
98225W        W66454  34.012  34.961   3.113
98226W        W66455  19.450   6.278  10.659
98227W        W66456  32.131  22.586   3.598
98228W        W66457  33.902  30.918  13.548
98229W        W66458  24.602  25.615   3.294
98230W        W66459   9.538  19.292   3.581
98231W        W66460  22.211   2.362   4.728
98232W        W66461  15.345  25.504  14.716
98233W        W66462  44.789  16.062  13.342
98234W        W66463  21.744  14.159   4.157
98235W        W66464   5.240  22.289   1.326
98236W        W66465  40.372  23.652   1.040
98237W        W66466   1.227   5.967   2.343
98238W        W66467  21.115  14.619  12.528
98239W        W66468  13.152  38.624   4.655
98240W        W66469  17.558  12.730  10.710
98241W        W66470   8.739   0.139  12.090
98242W        W66471  39.489  12.231  13.594
98243W        W66472  31.378  24.689   3.496
98244W        W66473  11.900   7.350   2.692
98245W        W66474   0.075  44.322   0.311
98246W        W66475  30.245  44.959   1.517
98247W        W66476   7.272  28.929  12.118
98248W        W66477  10.517  42.350  14.315
98249W        W66478  22.736  15.608   4.110
98250W        W66479  18.001   8.608  11.424
98251W        W66480  20.636  37.086  10.638
98252W        W66481   7.679  32.943   1.426
98253W        W66482  31.489  29.358   2.662
98254W        W66483  29.647  44.798  13.996
98255W        W66484   7.862   3.037  13.404
98256W        W66485  23.520  13.852  14.005
98257W        W66486  13.898  23.015  14.855
98258W        W66487  25.058  28.238  12.538
98259W        W66488  33.935   4.346  14.114
98260W        W66489  25.707  22.822  14.315
98261W        W66490  41.105  33.616  13.973
98262W        W66491   2.670  17.168  10.680
98263W        W66492   4.373  34.049  10.721
98264W        W66493  15.127  10.922   3.383
98265W        W66494  21.605   8.310  13.889
98266W        W66495   3.802   7.032  11.500
98267W        W66496   7.643  28.429   4.753
98268W        W66497   2.392  22.888  10.525
98269W        W66498  22.482  17.357  14.894
98270W        W66499  13.365  31.524   1.507
98271W        W66500   2.960   3.850   3.207
98272W        W66501  20.162  29.637  14.773
98273W        W66502  10.008  24.951   1.807
98274W        W66503   5.782  34.570   4.628
98275W        W66504  35.074  13.576   1.344
98276W        W66505  17.596   0.957   0.060
98277W        W66506  42.309   4.279  12.007
98278W        W66507   0.779  33.566   0.962
98279W        W66508  34.934   4.865   1.813
98280W        W66509  42.360  43.228   3.696
98281W        W66510  25.793  26.586  11.206
98282W        W66511  30.527   8.851   4.659
98283W        W66512  12.239  27.069  13.417
98284W        W66513  30.072  12.010   2.798
98285W        W66514  11.414  33.880   2.931
98286W        W66515   9.232  27.771   5.063
98287W        W66516  27.349   7.786   3.700
98288W        W66517  44.779   7.605   2.921
98289W        W66518  44.284   0.873  10.898
98290W        W66519  26.606  21.115   1.767
98291W        W66520  33.081  30.176   2.222
98292W        W66521  21.961  37.141   4.301
98293W        W66522  29.985  11.710   2.247
98294W        W66523   0.017  40.773   4.126
98295W        W66524  23.017  42.789  13.937
98296W        W66525  18.503  20.229  14.555
98297W        W66526  35.096  36.432  14.768
98298W        W66527  23.578  29.353   3.701
98299W        W66528  17.763   3.869   3.754
98300W        W66529  43.741  42.386   4.692
98301W        W66530  36.491  21.542  11.217
98302W        W66531  41.491   4.938   0.785
98303W        W66532  41.353   7.427  14.380
98304W        W66533  28.202  37.321  14.951
98305W        W66534  37.610  30.055   1.816
98306W        W66535  38.074  12.256  13.019
98307W        W66536   4.993  36.062   2.073
98308W        W66537  28.697  11.790  14.844
98309W        W66538  26.134  38.022  10.682
98310W        W66539  28.578  19.174   0.891
98311W        W66540   5.790   9.649  14.922
98312W        W66541  29.537  43.925   2.400
98313W        W66542   1.933  25.205   0.233
98314W        W66543  20.017  42.033   1.296
98315W        W66544  27.290   8.018  12.635
98316W        W66545  32.048  13.168   5.062
98317W        W66546   5.580   8.886  11.433
98318W        W66547   7.351  43.345  12.511
98319W        W66548  22.159  14.685  12.403
98320W        W66549  20.661  16.812   3.655
98321W        W66550   1.642  23.126   0.839
98322W        W66551   9.714   8.391   2.791
98323W        W66552   8.184  19.566   1.937
98324W        W66553  21.060  17.721  13.063
98325W        W66554  16.178   5.557  13.370
98326W        W66555   8.215  32.952  11.051
98327W        W66556   7.798  43.738  13.397
98328W        W66557  29.938  40.224  13.373
98329W        W66558  31.699  44.435   1.383
98330W        W66559  34.991   4.152  12.366
98331W        W66560  13.410  18.650   1.550
98332W        W66561  36.152  34.339  13.276
98333W        W66562  41.012   2.781   2.119
98334W        W66563  39.583  30.388  13.293
98335W        W66564  34.381   4.475  13.796
98336W        W66565  39.349   6.703  12.530
98337W        W66566   4.119  13.214  11.747
98338W        W66567  12.181   9.584  13.451
98339W        W66568  37.974  40.044   0.377
98340W        W66569  30.117   7.182   1.934
98341W        W66570  38.772  10.309   2.434
98342W        W66571  41.348  43.851  14.883
98343W        W66572   5.392  13.371  13.030
98344W        W66573  19.089  25.413  13.357
98345W        W66574   2.321   5.350   3.587
98346W        W66575  17.716  20.646  11.126
98347W        W66576  12.612  10.865   3.629
98348W        W66577  38.557  32.023   2.377
98349W        W66578   9.845   9.784  11.150
98350W        W66579  11.894  40.797  13.013
98351W        W66580   0.901  29.087  12.109
98352W        W66581   7.462  40.002   3.644
98353W        W66582  10.093  42.831  12.956
98354W        W66583  42.754   4.262  12.292
98355W        W66584  33.417  20.064   1.232
98356W        W66585  30.654  44.492   4.665
98357W        W66586  22.071  15.193  13.823
98358W        W66587  30.731  27.691   1.639
98359W        W66588  41.330  42.706   2.633
98360W        W66589   8.751   3.201  11.946
98361W        W66590  27.650   6.686  14.034
98362W        W66591  20.505   9.654  12.863
98363W        W66592  12.105  44.992   2.751
98364W        W66593   2.090  41.746   0.418
98365W        W66594  24.203  20.640  10.386
98366W        W66595  22.925   3.279   5.008
98367W        W66596   5.691  20.965  12.286
98368W        W66597  37.878  15.115  12.407
98369W        W66598   2.876  35.384  11.721
98370W        W66599  11.810  12.377  13.136
98371W        W66600  11.775  32.130  13.009
98372W        W66601  36.997  31.751  10.875
98373W        W66602   6.700  11.785   0.865
98374W        W66603  13.224  11.211   3.681
98375W        W66604  17.701  38.758   3.701
98376W        W66605  22.716   1.693   4.092
98377W        W66606  32.612  13.837  10.482
98378W        W66607  17.307  35.371   4.658
98379W        W66608   5.937  19.956  14.756
98380W        W66609  31.362  37.896  14.467
98381W        W66610  17.143   6.292   2.769
98382W        W66611  20.588  21.663   3.180
98383W        W66612   7.668  36.986  13.438
98384W        W66613  38.351  13.614   4.612
98385W        W66614  18.630  16.597  12.879
98386W        W66615  14.627   9.730   4.588
98387W        W66616  27.334  36.470   3.611
98388W        W66617  29.614   5.568  10.291
98389W        W66618  41.306  34.499   2.679
98390W        W66619  23.164  11.791   5.405
98391W        W66620  12.700  40.292  12.798
98392W        W66621  15.128  23.217  11.233
98393W        W66622  22.002  36.880  13.044
98394W        W66623  36.684  13.216  12.671
98395W        W66624  30.584   8.697   2.901
98396W        W66625  13.692  26.072  11.926
98397W        W66626   6.394  43.301  12.883
98398W        W66627  22.496  36.976  14.072
98399W        W66628  24.042   4.730  14.776
98400W        W66629  40.948  13.946   4.074
98401W        W66630  25.170  27.622  10.634
98402W        W66631  33.046  32.471   3.715
98403W        W66632  16.094  11.096  13.506
98404W        W66633   4.020  32.873  12.903
98405W        W66634   9.331   6.177  11.649
98406W        W66635  41.602  16.865   0.214
98407W        W66636  29.016   4.350   3.708
98408W        W66637  35.204  33.478  14.811
98409W        W66638  31.128   1.454  10.730
98410W        W66639  38.949   1.926  13.393
98411W        W66640  31.480  27.087  11.127
98412W        W66641   6.094  32.740   4.564
98413W        W66642  10.809  42.187  11.007
98414W        W66643  16.159  18.529  12.796
98415W        W66644  35.328  21.896   4.097
98416W        W66645   4.834  40.321   2.322
98417W        W66646  34.048  23.742   4.509
98418W        W66647  16.279  10.112   2.245
98419W        W66648  33.090  14.155  13.424
98420W        W66649  15.079  36.288  11.004
98421W        W66650   8.548  34.419   0.784
98422W        W66651  39.356  29.541  11.150
98423W        W66652  42.414  24.410  11.022
98424W        W66653  23.718   3.866  10.966
98425W        W66654   2.994  25.651  14.147
98426W        W66655  19.351  17.587   4.340
98427W        W66656  40.986  21.189   4.554
98428W        W66657  38.458  17.440  14.034
98429W        W66658  38.657  41.884   1.765
98430W        W66659   3.871  15.196   0.209
98431W        W66660   5.917  30.087   0.743
98432W        W66661  29.942  11.050  11.490
98433W        W66662  44.161  25.906  13.997
98434W        W66663  22.150   5.334  10.755
98435W        W66664  18.555   2.985   1.444
98436W        W66665  26.978  13.898   2.467
98437W        W66666  29.934  19.709  10.913
98438W        W66667  17.522  19.681  13.333
98439W        W66668  40.537  30.456  14.867
98440W        W66669   2.886  13.430   2.274
98441W        W66670   6.137  28.029   0.167
98442W        W66671   6.173  36.850  13.339
98443W        W66672  19.418   6.736  14.958
98444W        W66673  39.131  41.070  14.445
98445W        W66674  35.780   7.878  13.984
98446W        W66675  18.986  38.984  12.102
98447W        W66676  19.205  19.654   4.431
98448W        W66677  40.996  20.152   1.176
98449W        W66678   8.291  32.939   0.215
98450W        W66679  39.449  25.718   3.751
98451W        W66680   1.169  32.139   2.426
98452W        W66681   2.001  32.011  12.435
98453W        W66682  28.824  24.229   1.745
98454W        W66683  33.222  29.173   4.055
98455W        W66684  18.711  20.603   2.672
98456W        W66685  41.652   1.841   3.576
98457W        W66686  26.543  38.939  10.606
98458W        W66687   3.974   5.292  12.470
98459W        W66688   1.817  11.989   3.845
98460W        W66689  19.150  39.878  14.547
98461W        W66690  21.057  29.238   0.439
98462W        W66691  32.570  18.858   5.352
98463W        W66692  44.449  24.722  12.553
98464W        W66693  12.739  34.579   2.833
98465W        W66694  15.603  30.437  12.019
98466W        W66695  39.479  31.891   2.238
98467W        W66696   5.500  39.773   4.259
98468W        W66697   6.938   7.603   0.358
98469W        W66698  33.404   0.046   2.678
98470W        W66699  23.143  33.725  13.703
98471W        W66700   1.320  30.614   0.033
98472W        W66701  20.979  20.909   5.054
98473W        W66702  16.972  15.800   0.820
98474W        W66703  33.542  14.893   2.143
98475W        W66704  37.349  24.016  13.847
98476W        W66705  30.408   8.266  13.002
98477W        W66706  21.565  25.453   2.943
98478W        W66707  12.512  38.207  12.575
98479W        W66708  18.523  42.894   5.019
98480W        W66709  30.602  32.471   1.252
98481W        W66710  30.872  11.701   4.789
98482W        W66711  12.024  23.003   3.197
98483W        W66712  10.335   2.008  14.929
98484W        W66713   0.555  35.532   0.327
98485W        W66714  14.176  30.070  11.209
98486W        W66715   4.105  42.901  10.094
98487W        W66716   6.489  10.281  13.268
98488W        W66717  21.071   7.277  10.781
98489W        W66718   5.407   6.401  13.915
98490W        W66719  20.837   8.248   4.255
98491W        W66720  28.192   8.863  14.788
98492W        W66721   7.689  41.602   0.328
98493W        W66722  10.897   9.650   4.184
98494W        W66723  18.191  37.422  13.274
98495W        W66724  25.522  26.779   1.290
98496W        W66725   3.262  30.998  13.097
98497W        W66726  12.297  34.875   2.711
98498W        W66727   1.203  17.636   1.681
98499W        W66728  21.720  36.076   2.338
98500W        W66729  21.818  19.099  11.234
98501W        W66730  28.048   2.527   1.073
98502W        W66731  13.056  10.543  13.759
98503W        W66732  12.718   2.444   1.144
98504W        W66733  19.043  39.529  14.091
98505W        W66734  12.809  37.412  14.877
98506W        W66735   4.671   8.138   1.887
98507W        W66736  28.416  20.078   2.224
98508W        W66737   8.966  25.435   0.407
98509W        W66738  17.443  33.024   3.178
98510W        W66739  42.246  37.470  12.403
98511W        W66740  21.280  23.201   4.120
98512W        W66741  16.553  20.012   0.385
98513W        W66742  26.793  41.271  12.571
98514W        W66743  32.514  38.385   3.669
98515W        W66744  39.849  27.298   2.870
98516W        W66745  24.549  39.412   3.465
98517W        W66746  17.267  30.007   0.232
98518W        W66747  33.516  29.239  10.656
98519W        W66748  41.595  18.741  13.092
98520W        W66749  43.909  43.005   2.418
98521W        W66750   1.892  40.373  11.973
98522W        W66751  32.216   1.181   3.311
98523W        W66752  38.847  20.446   3.939
98524W        W66753  29.335   0.867  14.292
98525W        W66754  15.017  12.842   3.264
98526W        W66755  35.692  24.523   2.237
98527W        W66756  37.801  42.068  14.072
98528W        W66757   4.812   3.968   2.844
98529W        W66758   2.954  35.093   3.431
98530W        W66759   0.416  12.937  12.531
98531W        W66760  35.886  27.865   3.426
98532W        W66761  39.990  37.234   2.389
98533W        W66762  16.693  15.974   5.252
98534W        W66763  23.133   3.345  12.617
98535W        W66764  39.827  26.949  13.885
98536W        W66765  29.561  27.771   2.489
98537W        W66766   4.600   1.216   4.100
98538W        W66767  38.492  34.639   4.693
98539W        W66768  42.590  28.076   4.141
98540W        W66769   2.212  21.047   5.118
98541W        W66770  34.293  11.167   2.839
98542W        W66771   8.852   5.424  13.495
98543W        W66772  26.724  27.562  13.846
98544W        W66773  22.503  12.992   3.738
98545W        W66774   0.786  34.887  14.580
98546W        W66775  34.936  26.093   2.571
98547W        W66776  17.198  21.569   3.348
98548W        W66777  16.542   0.591  12.514
98549W        W66778   5.098  30.831   0.961
98550W        W66779  19.964  23.834   5.000
98551W        W66780  42.344  31.366   3.178
98552W        W66781  18.893  42.683  12.615
98553W        W66782  35.259   5.806  11.656
98554W        W66783  12.756   8.425   2.468
98555W        W66784   0.891  13.901   2.332
98556W        W66785  31.628  39.930   1.833
98557W        W66786  37.839  38.124  11.120
98558W        W66787  40.875  16.394  14.775
98559W        W66788  22.289  36.500   4.577
98560W        W66789  14.956  14.891  10.568
98561W        W66790  25.001  30.636  10.401
98562W        W66791   6.673  12.360   4.355
98563W        W66792   7.787  19.858  11.410
98564W        W66793  15.160   5.235   1.813
98565W        W66794  42.056  22.282   3.835
98566W        W66795  10.527  24.972   3.793
98567W        W66796  40.248  16.453  12.524
98568W        W66797  23.069  44.605  14.423
98569W        W66798  13.788  33.223   0.820
98570W        W66799  24.050  17.883   1.428
98571W        W66800  27.629   5.709   1.246
98572W        W66801  40.802  18.198  10.744
98573W        W66802  41.802  21.995  14.792
98574W        W66803   7.154  30.678   1.805
98575W        W66804  21.471  15.518   4.794
98576W        W66805  18.552   7.322  14.817
98577W        W66806  10.280  21.172   4.687
98578W        W66807  18.351  14.827   1.432
98579W        W66808   3.903  39.300   4.606
98580W        W66809  24.233  22.047  11.697
98581W        W66810  33.518   7.935   2.353
98582W        W66811  11.233   5.809   0.817
98583W        W66812  32.109  41.046  12.673
98584W        W66813  29.216  18.398   3.318
98585W        W66814   0.352  19.761  13.899
98586W        W66815   5.005  35.120  14.864
98587W        W66816   5.830  42.762   0.011
98588W        W66817  10.830   7.628   3.206
98589W        W66818   0.207   7.040  11.177
98590W        W66819  17.816  13.583   4.651
98591W        W66820  14.812  33.607  11.592
98592W        W66821  16.081  16.588  12.980
98593W        W66822  44.348  15.097   0.397
98594W        W66823  25.997  11.584  13.648
98595W        W66824  41.625  30.620   2.236
98596W        W66825  17.577  10.078  12.901
98597W        W66826  22.405   0.439   3.737
98598W        W66827  40.069  31.264   0.242
98599W        W66828   8.697  37.601   1.208
98600W        W66829  28.081  11.323   2.701
98601W        W66830   4.363  19.294   3.102
98602W        W66831  13.787  24.614   0.814
98603W        W66832  39.774  40.323   0.898
98604W        W66833  22.527  19.614  10.257
98605W        W66834  17.165  18.930   4.582
98606W        W66835  41.922  44.252   4.565
98607W        W66836  29.076   2.263   3.843
98608W        W66837  13.103  28.595   2.894
98609W        W66838  14.144  31.113   4.083
98610W        W66839   6.376  36.069  11.428
98611W        W66840  20.569  26.966   2.737
98612W        W66841  43.994  36.293  11.107
98613W        W66842   8.770  10.421  10.706
98614W        W66843  40.035   3.921   0.611
98615W        W66844  17.600   1.047   1.474
98616W        W66845  29.213  35.886  12.909
98617W        W66846  17.188  25.563  10.398
98618W        W66847  18.848  41.030   2.731
98619W        W66848  40.368  27.175   2.841
98620W        W66849  38.414   5.273   2.693
98621W        W66850  41.048   5.106  10.684
98622W        W66851  36.813   7.254  13.475
98623W        W66852   3.455  35.471  13.542
98624W        W66853  30.856  43.835  10.666
98625W        W66854   7.019   5.373   4.923
98626W        W66855  30.408  17.756   3.042
98627W        W66856  14.645  42.678   1.132
98628W        W66857  18.848  22.037  10.529
98629W        W66858  40.269   5.799  11.553
98630W        W66859  32.774  44.369  11.123
98631W        W66860  28.033   1.911  11.866
98632W        W66861   3.308  17.312   2.478
98633W        W66862  34.896  41.992   4.239
98634W        W66863  25.718  26.436  10.730
98635W        W66864  16.765  26.610   5.017
98636W        W66865  39.135  42.948  14.226
98637W        W66866  29.063  39.978  14.511
98638W        W66867  41.098  16.452  13.413
98639W        W66868  16.554  22.009  10.131
98640W        W66869  13.007   5.251   0.772
98641W        W66870  34.293  14.473   2.844
98642W        W66871  22.169  41.901   4.642
98643W        W66872  23.567  37.247  10.608
98644W        W66873  26.493  38.091  12.891
98645W        W66874  35.976  32.014  10.153
98646W        W66875  38.938  26.584   0.684
98647W        W66876  24.965   2.339   3.752
98648W        W66877  29.172  22.790  12.226
98649W        W66878  17.241  42.903  11.671
98650W        W66879  18.042  18.684  12.619
98651W        W66880   8.846  14.739   3.668
98652W        W66881  26.630  13.745  12.604
98653W        W66882  28.907   5.808   3.662
98654W        W66883  36.651  40.836   0.371
98655W        W66884   9.241  25.422   3.228
98656W        W66885  13.354  30.637   1.433
98657W        W66886   3.881  19.104   3.929
98658W        W66887  27.546  39.284   0.080
98659W        W66888  15.719  40.503  13.145
98660W        W66889  44.537  14.870   2.888
98661W        W66890  33.474  34.886   0.040
98662W        W66891  13.818  23.087   1.357
98663W        W66892  16.100   5.355   3.773
98664W        W66893  23.613   0.216   3.721
98665W        W66894   2.700   8.783  11.160
98666W        W66895  39.839  19.503  11.391
98667W        W66896  35.687  24.998  11.957
98668W        W66897  14.465  29.230  11.671
98669W        W66898  18.589   1.505  11.087
98670W        W66899  39.839  12.300   4.709
98671W        W66900   4.235   8.092   4.617
98672W        W66901  29.766  22.369   5.077
98673W        W66902   2.386  16.651   1.618
98674W        W66903  17.260  18.860   2.401
98675W        W66904  11.589  23.153   3.717
98676W        W66905  14.717  38.056   1.185
98677W        W66906   7.721  14.640  14.349
98678W        W66907   4.037  29.521   0.030
98679W        W66908   8.642  32.023  13.253
98680W        W66909  25.525  32.469  14.276
98681W        W66910   7.705  28.045   2.116
98682W        W66911  40.519  21.997  14.093
98683W        W66912  11.281  44.063  12.609
98684W        W66913   7.133  15.326   3.250
98685W        W66914  43.949  38.104  14.321
98686W        W66915   4.820  16.590   3.127
98687W        W66916   4.717  14.056   3.747
98688W        W66917   8.105  21.018   3.625
98689W        W66918   8.396  14.591   3.889
98690W        W66919  19.258  30.892   0.222
98691W        W66920   5.063  31.040   4.110
98692W        W66921  24.138  29.005  11.868
98693W        W66922  10.835  22.501   1.926
98694W        W66923  11.438   6.789   3.336
98695W        W66924  15.049  34.164  12.406
98696W        W66925  13.802  31.085   4.543
98697W        W66926  36.965  32.573  13.492
98698W        W66927  42.971   9.769   3.333
98699W        W66928  40.355  35.899  10.308
98700W        W66929  30.622  20.958  13.542
98701W        W66930  30.630   4.711  11.860
98702W        W66931  24.453  16.627  14.983
98703W        W66932  15.587  18.652   2.716
98704W        W66933  36.744  27.271  13.161
98705W        W66934  22.930  12.852  14.978
98706W        W66935   6.060  29.711   1.435
98707W        W66936  16.754   2.414   2.985
98708W        W66937  19.323   2.257   0.778
98709W        W66938  19.504  28.953  11.136
98710W        W66939  21.800  16.308  11.528
98711W        W66940  17.179  34.608  12.083
98712W        W66941  24.205  37.870   4.711
98713W        W66942   5.136  27.104  13.494
98714W        W66943  18.285  11.780   4.205
98715W        W66944   9.144  44.575  12.983
98716W        W66945  18.446  43.985   0.937
98717W        W66946   3.707  40.879  14.826
98718W        W66947   4.453  15.411   1.032
98719W        W66948  18.870   9.978   4.981
98720W        W66949   4.339  24.736  12.679
98721W        W66950  44.833   0.908   1.970
98722W        W66951  36.004  31.708  11.367
98723W        W66952   1.477  17.197   2.403
98724W        W66953   1.832  40.601  12.511
98725W        W66954  11.518   2.138  11.065
98726W        W66955  33.423  42.159  10.045
98727W        W66956  10.359  28.174  10.544
98728W        W66957  15.581  25.688  10.596
98729W        W66958  40.856  20.216   2.136
98730W        W66959  33.582  22.205   1.493
98731W        W66960  12.349  37.847  11.644
98732W        W66961  10.215  41.581  10.944
98733W        W66962   3.959  17.715  10.668
98734W        W66963  13.553  16.318  11.960
98735W        W66964  31.105  38.350  14.256
98736W        W66965  28.875  29.236   4.160
98737W        W66966  18.185  35.953   0.443
98738W        W66967  29.896  14.197   1.181
98739W        W66968  44.472  36.330   0.746
98740W        W66969  44.291  27.888  11.184
98741W        W66970   1.051   2.912  14.299
98742W        W66971  10.943  14.766  13.180
98743W        W66972  40.270  24.063  11.385
98744W        W66973  36.017  39.679   1.891
98745W        W66974  22.470  41.855  11.211
98746W        W66975   4.982  10.161   5.192
98747W        W66976  19.796  41.950   3.199
98748W        W66977  33.213   2.842  11.907
98749W        W66978  40.931  18.568   2.343
98750W        W66979  35.116  20.162  14.701
98751W        W66980  39.340   5.837  10.678
98752W        W66981  43.596  21.356  11.076
98753W        W66982  44.052  11.315  13.430
98754W        W66983  42.461  28.000  14.134
98755W        W66984   7.728  18.009  12.962
98756W        W66985   1.522  34.171   3.054
98757W        W66986   2.874  16.687  10.689
98758W        W66987  19.374  39.217  12.474
98759W        W66988  42.375  42.011  12.607
98760W        W66989  15.881   9.213  11.812
98761W        W66990   0.844  29.375  10.900
98762W        W66991  43.902  41.998  11.862
98763W        W66992  11.224  26.498  10.384
98764W        W66993  12.932  31.275  10.686
98765W        W66994  23.223   8.607   2.681
98766W        W66995   7.294   2.291  11.131
98767W        W66996  40.434  16.528   0.028
98768W        W66997   3.631  31.422   2.320
98769W        W66998  44.485  24.207   3.555
98770W        W66999  25.904  31.066   3.452
98771W        W67000  31.954   8.660   3.229
98772W        W67001  12.879  15.542  10.182
98773W        W67002  27.157  30.493  11.089
98774W        W67003  19.802  23.705  10.622
98775W        W67004  32.324  38.328  11.914
98776W        W67005  15.281  20.512   3.107
98777W        W67006   3.938  34.870  13.044
98778W        W67007  41.905  24.622   0.979
98779W        W67008  38.792  15.197  10.327
98780W        W67009  25.074   1.174   4.762
98781W        W67010  19.886  13.358  13.936
98782W        W67011  30.267  44.957   2.020
98783W        W67012  25.576  24.520  14.488
98784W        W67013  42.076   6.293  14.445
98785W        W67014  23.091  40.294   3.870
98786W        W67015  36.709   1.913   0.274
98787W        W67016  34.325  26.115   4.711
98788W        W67017   5.961   5.212  12.450
98789W        W67018   5.898  30.012  10.746
98790W        W67019   3.602  13.187  11.716
98791W        W67020   7.567  33.373   1.694
98792W        W67021  32.010  24.115  13.044
98793W        W67022  18.101  35.638   0.842
98794W        W67023  23.252  31.062   2.904
98795W        W67024  29.960   8.452  11.153
98796W        W67025  18.780  38.908  13.460
98797W        W67026  23.291  35.607   4.046
98798W        W67027  38.083  10.771   1.789
98799W        W67028  33.577  27.208  14.739
98800W        W67029  42.396  36.029  11.470
98801W        W67030  14.004  19.572  14.837
98802W        W67031  42.065   1.493   2.673
98803W        W67032   1.487  23.804   2.243
98804W        W67033  33.586   7.069   1.846
98805W        W67034   0.754  29.244   0.864
98806W        W67035  21.619  26.538   4.092
98807W        W67036   4.437  35.652   3.625
98808W        W67037   1.013  12.247  12.969
98809W        W67038  40.908  41.802  13.500
98810W        W67039  26.080  19.750  10.657
98811W        W67040  25.097  34.689  11.243
98812W        W67041  30.122  37.245  13.019
98813W        W67042   2.197  39.453   0.554
98814W        W67043  36.128  13.054   2.684
98815W        W67044  26.002   8.379  13.849
98816W        W67045  22.689  20.596   2.826
98817W        W67046   4.349  11.264   1.767
98818W        W67047  42.463  29.063  11.893
98819W        W67048  10.496   8.768   3.671
98820W        W67049   0.363   2.819   4.376
98821W        W67050  37.944  27.424   1.766
98822W        W67051  40.001  24.250  13.471
98823W        W67052  14.059  21.926   1.738
98824W        W67053  33.533  42.039   0.457
98825W        W67054  14.588  40.479  14.303
98826W        W67055   3.945  25.047  14.779
98827W        W67056  22.995  20.147  12.627
98828W        W67057  15.647  32.144   0.940
98829W        W67058  43.801   5.162   2.305
98830W        W67059  40.521   4.010  14.970
98831W        W67060  12.569  44.004  12.157
98832W        W67061   1.313   4.230  14.325
98833W        W67062  37.514   5.684   4.948
98834W        W67063  12.560   0.934   4.823
98835W        W67064  43.290  24.344  12.467
98836W        W67065   4.368  26.163  12.323
98837W        W67066   2.306  18.871  12.228
98838W        W67067  16.194  38.420  13.550
98839W        W67068  20.276  19.779   3.255
98840W        W67069   5.029  24.018  14.902
98841W        W67070  43.102  11.299  10.726
98842W        W67071  26.569  39.440   0.043
98843W        W67072  18.969   5.746   1.865
98844W        W67073  43.467  25.999  12.936
98845W        W67074  35.856  12.716  12.859
98846W        W67075  34.709  18.983   9.799
98847W        W67076   1.636  37.568  12.550
98848W        W67077   4.367  17.844  12.506
98849W        W67078   4.466  15.458   3.668
98850W        W67079  17.028   6.585  13.401
98851W        W67080  30.667  10.690   1.834
98852W        W67081  29.850  16.662  13.994
98853W        W67082  28.768  30.727  13.728
98854W        W67083  38.556  21.961   3.583
98855W        W67084  32.350   1.787  12.821
98856W        W67085  20.363  17.891  11.510
98857W        W67086  13.445  17.582  12.922
98858W        W67087   8.205  37.444   2.521
98859W        W67088  21.280  21.086  12.703
98860W        W67089  30.388   1.787   0.422
98861W        W67090  43.266  44.451   1.699
98862W        W67091  25.518  20.957   2.268
98863W        W67092  34.087  19.041  13.407
98864W        W67093  29.071  15.841   3.197
98865W        W67094  22.800  35.307   4.226
98866W        W67095   0.367  18.975  13.447
98867W        W67096  22.149  40.559   4.038
98868W        W67097  26.468  11.883  12.928
98869W        W67098  25.599   9.248   1.498
98870W        W67099  14.188  31.889  14.044
98871W        W67100  10.896  21.210  10.776
98872W        W67101  14.636  24.405  12.105
98873W        W67102  21.874  35.416  10.718
98874W        W67103   9.593  23.038  11.455
98875W        W67104   6.899  21.235  12.124
98876W        W67105  41.476   3.288   4.131
98877W        W67106  40.639  32.973  13.430
98878W        W67107  39.086  18.657  14.974
98879W        W67108   1.220   5.949   3.228
98880W        W67109   0.990   5.719   2.811
98881W        W67110   9.605  33.363  11.006
98882W        W67111  18.699  15.922  13.531
98883W        W67112  19.317  10.626   2.791
98884W        W67113   0.192  33.661  10.007
98885W        W67114  26.963   3.927  14.785
98886W        W67115  13.589  36.919  12.665
98887W        W67116   1.233  38.981  12.937
98888W        W67117  11.354  16.633  14.803
98889W        W67118  28.150  27.135  13.776
98890W        W67119  11.975  16.147   5.079
98891W        W67120  13.960  23.579  11.256
98892W        W67121  39.580  38.916   1.344
98893W        W67122  35.367   8.218   0.703
98894W        W67123  40.900  31.982   2.802
98895W        W67124  30.921  30.402   2.021
98896W        W67125  18.720  23.851   0.861
98897W        W67126  43.246  21.234   2.694
98898W        W67127  10.312  18.331  10.875
98899W        W67128  18.076  22.459   2.241
98900W        W67129  33.953   2.872   1.792
98901W        W67130   9.742  42.799   0.402
98902W        W67131  32.843  23.149  11.474
98903W        W67132   8.964  41.909  14.440
98904W        W67133   3.650  10.668  10.523
98905W        W67134  32.490  38.613  12.933
98906W        W67135  28.513   3.533  14.660
98907W        W67136   2.803  32.950  12.018
98908W        W67137  42.355  21.492   3.762
98909W        W67138   3.441  30.396  11.687
98910W        W67139  33.682  35.008   2.207
98911W        W67140  37.450   0.524   2.732
98912W        W67141   9.997  38.907  14.805
98913W        W67142   2.919  38.019   2.799
98914W        W67143  16.732   7.249   1.971
98915W        W67144  13.316   8.413  11.354
98916W        W67145  10.588  11.764   3.864
98917W        W67146  37.166  29.658   1.680
98918W        W67147  30.913  11.609   4.289
98919W        W67148  33.451  11.899  14.505
98920W        W67149  28.486  24.676  14.434
98921W        W67150   6.448  19.254   1.863
98922W        W67151  39.546  40.467   2.271
98923W        W67152  33.170  19.300   2.253
98924W        W67153  29.057   2.122   2.482
98925W        W67154  22.107  18.575   1.977
98926W        W67155  26.510  28.820   2.676
98927W        W67156   0.520  40.709  10.789
98928W        W67157  31.025   1.740   9.755
98929W        W67158  20.912  24.933  11.867
98930W        W67159  20.211  18.616   2.004
98931W        W67160   9.232  40.330  12.954
98932W        W67161  38.105  21.268  12.603
98933W        W67162   7.640  13.353   1.934
98934W        W67163  34.665  38.454  13.094
98935W        W67164  39.950  38.204   4.188
98936W        W67165  30.496  29.690  13.387
98937W        W67166  35.413  24.992   3.282
98938W        W67167  31.605   6.008  12.651
98939W        W67168  13.121  15.801  11.535
98940W        W67169  23.891   0.363   1.424
98941W        W67170   4.884   8.314  14.019
98942W        W67171  36.000  11.868  10.956
98943W        W67172  29.992  40.560   3.187
98944W        W67173   6.816   3.252  12.764
98945W        W67174   4.304  39.408   3.642
98946W        W67175  42.307  40.464  14.273
98947W        W67176  18.988  14.189  12.885
98948W        W67177   1.760  28.210  11.678
98949W        W67178  26.392  40.585   4.144
98950W        W67179  38.761  41.421  12.157
98951W        W67180  38.421  33.487   0.806
98952W        W67181  37.934  30.697  12.214
98953W        W67182  42.928  11.975  14.681
98954W        W67183  33.607  29.490  14.544
98955W        W67184  15.743  40.138   2.374
98956W        W67185   5.211  35.576  14.981
98957W        W67186   3.711  35.599   1.656
98958W        W67187  42.909  13.159   0.651
98959W        W67188  40.752   8.852  14.917
98960W        W67189  34.379  25.536  12.124
98961W        W67190  29.648  42.491   3.186
98962W        W67191  37.660  12.917  14.038
98963W        W67192  28.585   0.543   4.405
98964W        W67193  17.530  33.017   1.404
98965W        W67194  24.342   9.785  14.934
98966W        W67195  44.241  25.394  13.939
98967W        W67196  14.242  34.492  14.952
98968W        W67197  15.182  27.027   4.166
98969W        W67198   2.969  21.314   3.163
98970W        W67199   3.837   8.831  14.984
98971W        W67200  16.305   3.019  12.833
98972W        W67201  22.834  31.207   1.873
98973W        W67202  30.589  26.685   4.548
98974W        W67203  24.182  12.444  14.696
98975W        W67204  15.546  40.640   1.314
98976W        W67205  37.874   3.600  13.328
98977W        W67206  25.006   9.812   4.146
98978W        W67207   0.675  12.724   1.152
98979W        W67208  34.388   1.238   0.025
98980W        W67209  16.212  20.643  10.221
98981W        W67210  18.992  38.499  10.975
98982W        W67211  15.827  39.614   4.290
98983W        W67212  17.203  29.633  11.600
98984W        W67213   4.639  24.617   4.125
98985W        W67214  29.740  26.834  13.071
98986W        W67215  15.001  29.568  14.009
98987W        W67216  13.437   5.838  10.991
98988W        W67217   1.212  39.503  10.637
98989W        W67218  17.257  33.227   2.736
98990W        W67219  24.778  36.583   4.838
98991W        W67220  39.390  20.296   0.444
98992W        W67221   9.899  32.165  13.046
98993W        W67222   9.790   9.099   3.695
98994W        W67223  11.376  37.554  14.026
98995W        W67224   8.868  30.779  13.748
98996W        W67225  12.551  18.990   0.741
98997W        W67226  27.750  24.813   3.669
98998W        W67227  12.406  28.943  14.265
98999W        W67228  40.846  21.742   2.903
99000W        W67229   7.216  25.718  13.592
99001W        W67230  40.564  17.680  12.120
99002W        W67231  32.473  32.141  13.891
99003W        W67232  19.251  18.240  10.222
99004W        W67233   3.270   3.701   0.014
99005W        W67234  42.743  15.195   3.195
99006W        W67235  43.917   3.997  12.752
99007W        W67236  23.449   8.844  12.087
99008W        W67237  12.985  23.706  13.891
99009W        W67238  33.885  38.414  11.188
99010W        W67239  36.400  36.156  11.891
99011W        W67240  11.792  28.862  14.976
99012W        W67241  44.048   3.328  11.588
99013W        W67242  29.095  29.793  13.881
99014W        W67243  20.868  31.625  13.276
99015W        W67244  37.349  18.644   0.700
99016W        W67245  42.562   6.645   1.486
99017W        W67246   7.470  28.000   1.663
99018W        W67247  25.447  19.814   5.052
99019W        W67248  28.577   1.266  12.381
99020W        W67249   2.112  36.691   0.749
99021W        W67250  12.260  34.464   3.006
99022W        W67251  39.984  30.495  12.967
99023W        W67252  40.553  34.605   0.292
99024W        W67253  26.724  42.375  12.659
99025W        W67254   7.715  15.570  11.092
99026W        W67255   6.890  27.918   4.266
99027W        W67256  33.915  29.034   0.354
99028W        W67257  16.427  31.095  11.216
99029W        W67258  22.168  17.391  10.861
99030W        W67259  34.511  36.488  12.149
99031W        W67260  23.028  40.251  13.843
99032W        W67261   0.412   7.774  11.629
99033W        W67262  20.121  39.423   3.305
99034W        W67263  39.804  13.768   2.026
99035W        W67264  34.894  42.279  10.659
99036W        W67265   0.230   7.478   0.416
99037W        W67266   4.214   7.760   4.171
99038W        W67267  39.391   6.073  13.192
99039W        W67268  22.160  10.744  10.968
99040W        W67269  34.627   8.685   4.760
99041W        W67270   6.702  35.874   2.790
99042W        W67271  16.279  26.184  10.753
99043W        W67272  43.554   1.870   1.949
99044W        W67273  41.242  39.518   4.097
99045W        W67274  26.572  43.055  14.354
99046W        W67275  43.784  13.295  12.065
99047W        W67276  32.914  12.207   0.187
99048W        W67277  15.067   6.171   3.662
99049W        W67278  20.794  40.056  12.093
99050W        W67279  18.688  42.731   4.026
99051W        W67280   4.597   8.681  11.590
99052W        W67281   9.686  21.502   0.232
99053W        W67282   4.430  27.202   1.849
99054W        W67283   1.378  27.568  13.437
99055W        W67284  19.451  35.358  13.179
99056W        W67285  32.239  37.236   0.243
99057W        W67286  28.271   5.428   2.236
99058W        W67287   2.642  44.970   3.153
99059W        W67288  14.633  20.019   2.288
99060W        W67289  20.240  13.958  11.697
99061W        W67290  42.421  19.003  11.613
99062W        W67291  23.781  12.140  12.542
99063W        W67292  30.394  23.439   0.906
99064W        W67293  13.656  17.160   0.851
99065W        W67294  18.668  34.174  14.518
99066W        W67295  20.291  21.229   1.326
99067W        W67296  17.459   7.033   4.129
99068W        W67297  30.468   7.166  10.762
99069W        W67298  21.829  22.163   3.275
99070W        W67299  18.330  24.543   1.314
99071W        W67300  16.190   3.453  11.960
99072W        W67301   7.883  33.668  11.263
99073W        W67302  33.920  12.784   2.510
99074W        W67303  22.818  24.178   2.405
99075W        W67304   2.437  18.613  13.775
99076W        W67305  37.794   6.741   4.462
99077W        W67306  32.030  26.980   2.153
99078W        W67307  18.629  34.596  14.178
99079W        W67308  38.916  26.397  10.755
99080W        W67309  42.424  25.236  14.403
99081W        W67310  21.934  39.948   0.476
99082W        W67311  16.477  32.035   0.366
99083W        W67312  17.797   5.478   1.754
99084W        W67313  34.629  38.997   0.770
99085W        W67314   1.946  13.504  10.681
99086W        W67315  14.865   0.351  14.477
99087W        W67316   4.479  28.958  12.860
99088W        W67317   0.795  16.696  13.004
99089W        W67318  32.620  10.684   2.112
99090W        W67319   1.167   1.058  11.649
99091W        W67320   9.289  17.918   4.057
99092W        W67321   1.020  42.385  14.939
99093W        W67322  37.322   9.069   3.254
99094W        W67323  40.690  31.586  10.801
99095W        W67324  12.624   0.728   1.384
99096W        W67325  19.517  39.035  11.594
99097W        W67326  44.205  17.797  12.060
99098W        W67327  16.531  28.475   1.384
99099W        W67328  10.904  26.926   0.927
99100W        W67329  36.138  13.020  13.569
99101W        W67330  36.471   0.210  13.544
99102W        W67331  10.324  32.616  11.593
99103W        W67332  32.361  29.582  13.999
99104W        W67333  30.898   0.725   3.150
99105W        W67334  42.316   0.368  14.521
99106W        W67335  27.973   0.600  12.389
99107W        W67336  38.493  44.681  11.193
99108W        W67337   9.593   1.997   0.944
99109W        W67338  11.034  23.764   2.963
99110W        W67339  13.250  36.553  14.027
99111W        W67340   0.598   3.487   2.717
99112W        W67341  15.811  38.630  11.543
99113W        W67342  29.064  26.587   0.153
99114W        W67343  31.700  28.504   3.614
99115W        W67344   4.219  29.740   0.461
99116W        W67345  39.418  32.584  11.110
99117W        W67346   6.027  35.786   1.354
99118W        W67347  13.326  34.150   1.309
99119W        W67348   0.983  30.011  14.024
99120W        W67349  43.845  15.635  12.198
99121W        W67350  27.148  31.812   0.504
99122W        W67351  29.194  19.796  14.871
99123W        W67352  25.570  36.193   3.625
99124W        W67353  27.701  27.876  11.933
99125W        W67354   9.164   0.754   5.010
99126W        W67355  19.328   8.617   4.123
99127W        W67356  18.314  15.371   1.885
99128W        W67357  26.547  18.590   0.040
99129W        W67358  25.661  24.767   4.148
99130W        W67359   8.305  11.478   1.272
99131W        W67360   8.215  13.036  11.150
99132W        W67361   3.435   2.911  10.682
99133W        W67362  28.699  20.996  10.666
99134W        W67363  36.805  37.159   1.513
99135W        W67364   6.511   9.872  11.646
99136W        W67365  40.941  21.956  11.145
99137W        W67366   0.655  20.571  10.525
99138W        W67367  22.508   9.855   1.821
99139W        W67368  26.107  11.152  10.483
99140W        W67369  41.666   8.020   4.589
99141W        W67370  43.041  41.259  14.423
99142W        W67371  30.028  40.405   4.530
99143W        W67372  40.634  12.798  13.412
99144W        W67373   3.330  32.580  10.459
99145W        W67374   3.811   3.705  14.478
99146W        W67375   9.589  31.894  10.727
99147W        W67376  43.541  37.282  12.521
99148W        W67377  29.602  29.197  13.112
99149W        W67378  40.828  28.398   2.177
99150W        W67379  24.196   0.005   4.682
99151W        W67380  12.353  39.820   1.624
99152W        W67381  41.731   4.426  12.897
99153W        W67382  22.032  20.940  14.377
99154W        W67383   5.679  21.626  11.152
99155W        W67384  10.715  18.243   5.117
99156W        W67385  15.914   9.233   1.296
99157W        W67386   1.926   5.991  11.025
99158W        W67387  20.214  14.762   4.876
99159W        W67388  37.040  42.394  13.613
99160W        W67389  21.685  34.488   2.842
99161W        W67390  25.597   9.346  11.065
99162W        W67391  36.572  33.468   4.148
99163W        W67392  25.724  37.976   4.891
99164W        W67393  44.418  11.885   1.221
99165W        W67394  10.705  27.663   4.244
99166W        W67395  25.769  41.244  11.659
99167W        W67396  13.595  24.961   1.227
99168W        W67397  16.757  14.107   4.073
99169W        W67398  21.026   9.244  10.914
99170W        W67399  37.041  23.633   1.369
99171W        W67400  17.392   4.962   2.732
99172W        W67401  32.237  19.563  11.069
99173W        W67402  25.100   8.191   4.639
99174W        W67403  21.168  25.541   0.426
99175W        W67404  17.643  19.716   4.731
99176W        W67405  21.081  25.493  10.669
99177W        W67406   5.612  13.792   1.646
99178W        W67407   0.625   9.760  13.496
99179W        W67408  24.202  33.666  10.680
99180W        W67409   4.838  34.363  14.188
99181W        W67410  28.898   1.232  11.981
99182W        W67411  31.485  25.133   2.792
99183W        W67412  33.233  34.002  10.751
99184W        W67413  23.692  38.464  11.407
99185W        W67414  40.400   1.914   2.350
99186W        W67415  31.094  37.525   1.887
99187W        W67416  19.579   5.218  13.923
99188W        W67417   7.817  27.896   4.272
99189W        W67418  20.608  39.398   4.925
99190W        W67419  15.018  10.985   4.202
99191W        W67420   8.358  17.781  12.976
99192W        W67421  16.294  29.693  11.630
99193W        W67422  30.158   4.776  10.632
99194W        W67423  21.195  12.937  10.581
99195W        W67424  20.574  41.107   2.412
99196W        W67425  20.878  40.533  14.258
99197W        W67426  11.154  33.843  12.485
99198W        W67427  42.752  25.063  10.641
99199W        W67428  20.192  34.268  13.078
99200W        W67429  20.749  33.977  10.213
99201W        W67430  32.109  29.899   0.285
99202W        W67431  38.226  15.033  12.007
99203W        W67432  43.739  43.924  11.153
99204W        W67433  10.727   6.335   1.279
99205W        W67434  34.547   7.517   2.507
99206W        W67435  20.275  26.069  12.071
99207W        W67436  19.204  13.888   1.944
99208W        W67437  25.130  35.856   4.357
99209W        W67438  30.950  14.290  12.291
99210W        W67439  37.749  38.045   0.818
99211W        W67440   2.355   6.459   1.343
99212W        W67441  24.043  13.011  12.439
99213W        W67442  32.826  20.823   0.533
99214W        W67443  40.583  28.206   0.275
99215W        W67444   6.297  37.388  12.644
99216W        W67445  41.948  44.727  14.131
99217W        W67446  30.658  23.654  11.529
99218W        W67447  16.284  18.216  12.379
99219W        W67448   2.466  31.992  12.649
99220W        W67449  39.568  26.387  14.939
99221W        W67450  11.589  31.953   0.705
99222W        W67451  13.176  44.562   0.396
99223W        W67452   0.219  26.680   3.316
99224W        W67453  25.717  41.403   0.934
99225W        W67454  33.128  21.518   0.933
99226W        W67455   7.883   5.297   2.233
99227W        W67456  24.286  27.787   4.129
99228W        W67457  24.464  44.204  14.421
99229W        W67458  10.905  33.426  11.305
99230W        W67459  21.776  17.199   2.291
99231W        W67460   3.367   1.311  13.482
99232W        W67461  13.591  30.620  11.590
99233W        W67462   7.482   4.825  12.034
99234W        W67463  35.361   9.726  13.031
99235W        W67464  20.602  24.799  11.450
99236W        W67465  37.245  29.153   1.857
99237W        W67466   3.856   0.732  12.023
99238W        W67467  41.006  37.476  11.941
99239W        W67468  20.448  29.412   3.606
99240W        W67469  25.071  16.466   0.857
99241W        W67470  12.899  34.588  14.691
99242W        W67471  28.757   1.690   4.554
99243W        W67472  40.882  35.607   3.673
99244W        W67473  38.380  35.966   1.554
99245W        W67474  36.895  26.178   0.366
99246W        W67475  33.455   7.234  11.342
99247W        W67476  14.796  33.669  13.356
99248W        W67477   5.788  22.998   0.260
99249W        W67478  41.972  35.885  10.712
99250W        W67479  17.002  34.615   3.820
99251W        W67480  15.733   6.887  13.887
99252W        W67481   8.559  13.108  10.753
99253W        W67482   7.759  29.097  10.787
99254W        W67483   3.661  27.533   0.905
99255W        W67484  16.137  44.185  10.996
99256W        W67485   4.361  30.237  14.472
99257W        W67486  44.805  25.541  14.730
99258W        W67487   7.944  19.839   0.222
99259W        W67488  26.442  32.018   0.811
99260W        W67489  14.302  30.146   3.694
99261W        W67490  36.592  12.358   2.593
99262W        W67491  38.419   2.268   1.014
99263W        W67492  27.703  41.844   3.906
99264W        W67493   5.175  38.786  14.839
99265W        W67494  28.444  28.778   1.847
99266W        W67495  13.832  43.527   0.893
99267W        W67496  35.129  20.226  11.019
99268W        W67497  35.858  37.665   5.076
99269W        W67498  13.527  10.343   2.656
99270W        W67499  28.847  22.027   1.375
99271W        W67500  14.285  14.725  13.558
99272W        W67501  22.970   3.371  13.922
99273W        W67502  23.618  41.886   3.217
99274W        W67503   3.909  29.901  13.554
99275W        W67504  41.745  44.751  14.971
99276W        W67505  44.356  38.107   0.515
99277W        W67506  31.620  22.479   3.698
99278W        W67507   5.667  13.820   4.715
99279W        W67508  31.307   4.697   1.322
99280W        W67509  42.791  44.226   3.137
99281W        W67510  30.045   5.025  11.074
99282W        W67511  26.412  15.093   3.486
99283W        W67512  22.239  24.843   4.431
99284W        W67513  25.781  13.834   0.252
99285W        W67514  14.840  32.334  12.060
99286W        W67515  10.735  34.071   0.925
99287W        W67516  37.135  22.205   4.136
99288W        W67517  25.991  38.025   1.343
99289W        W67518  42.113  26.370   0.714
99290W        W67519  33.807  24.686  11.113
99291W        W67520  27.592   6.856   3.361
99292W        W67521  11.316   0.929  13.521
99293W        W67522   6.998  25.864  11.582
99294W        W67523  25.947  20.300  14.430
99295W        W67524  17.928  26.119  11.008
99296W        W67525  13.483  33.585  10.323
99297W        W67526   4.580  10.663  12.472
99298W        W67527  19.770  40.703   2.686
99299W        W67528  24.982  13.312   2.048
99300W        W67529  12.527  33.169  12.125
99301W        W67530  15.513   8.903   3.659
99302W        W67531   9.216   6.662   4.113
99303W        W67532   9.161   6.184   0.665
99304W        W67533   5.616   4.409   2.704
99305W        W67534  43.983  40.821   3.288
99306W        W67535  35.250  44.632   1.485
99307W        W67536  25.113  44.124   4.525
99308W        W67537   6.903  14.912  14.716
99309W        W67538  25.766  18.392   0.833
99310W        W67539  16.361  39.022  14.971
99311W        W67540  24.405  29.525  12.027
99312W        W67541   2.669  37.109   1.963
99313W        W67542  37.840  31.669  11.969
99314W        W67543  40.820  39.654  11.566
99315W        W67544  43.481   9.945   3.179
99316W        W67545  12.157   9.783   9.815
99317W        W67546  21.605  35.883   2.805
99318W        W67547  34.223  44.066   4.213
99319W        W67548  33.318  33.441   4.629
99320W        W67549   6.809  36.851   3.601
99321W        W67550  25.598  18.893  13.009
99322W        W67551  30.569  39.910   4.093
99323W        W67552   4.677  19.540   4.095
99324W        W67553  28.744  16.705  13.237
99325W        W67554  25.923  44.354   1.360
99326W        W67555  40.778   6.725  14.419
99327W        W67556  44.728  29.230   0.737
99328W        W67557  13.669  10.897  11.472
99329W        W67558  28.238  41.441  11.596
99330W        W67559  21.678   1.253   3.241
99331W        W67560  16.584  29.182  11.914
99332W        W67561  41.574  41.910  11.987
99333W        W67562  39.523  23.742   4.159
99334W        W67563  25.059  17.719  14.868
99335W        W67564   5.551  33.368   0.753
99336W        W67565  32.368  29.492  12.629
99337W        W67566  27.536  29.100  11.525
99338W        W67567   3.984   6.678  14.271
99339W        W67568  38.654  24.006   1.229
99340W        W67569   2.805  38.120  13.201
99341W        W67570  27.970  22.616   0.589
99342W        W67571  39.240  31.397  14.814
99343W        W67572  44.375  10.376  12.545
99344W        W67573  28.542  11.004   1.895
99345W        W67574  20.600  18.041   2.186
99346W        W67575  13.156  20.744   4.632
99347W        W67576  23.447  25.844   2.630
99348W        W67577   8.158   3.683   1.579
99349W        W67578  23.375  37.268   3.973
99350W        W67579  36.697  28.298  11.641
99351W        W67580   2.330   5.367   4.106
99352W        W67581  40.032  25.829  11.944
99353W        W67582   6.261  41.353  10.532
99354W        W67583  41.470   5.397  10.695
99355W        W67584  29.154  28.947  10.547
99356W        W67585  29.437  35.157   3.127
99357W        W67586  14.289  25.843   4.279
99358W        W67587  37.432  16.647  10.678
99359W        W67588  20.517  30.456   4.457
99360W        W67589  29.946   4.138  12.091
99361W        W67590   3.164  36.276   1.652
99362W        W67591  16.117   0.476  10.737
99363W        W67592   9.608  43.115   0.832
99364W        W67593  37.052  35.084   0.331
99365W        W67594  41.043   0.377  11.469
99366W        W67595  21.264  27.195  11.650
99367W        W67596  44.305  18.152   4.758
99368W        W67597  28.214  17.383   1.896
99369W        W67598  11.960  19.796  12.360
99370W        W67599  22.199  18.565   2.470
99371W        W67600  11.165  26.034  11.161
99372W        W67601  39.051  29.190  14.751
99373W        W67602  24.608   7.971  14.842
99374W        W67603  29.858  18.758  14.973
99375W        W67604  21.750  35.180  10.185
99376W        W67605  27.971   1.518   0.981
99377W        W67606  41.076  17.650  12.213
99378W        W67607  15.956  13.692   4.365
99379W        W67608  24.996  44.964  11.152
99380W        W67609   8.863   6.729   3.227
99381W        W67610  38.826  13.746   2.317
99382W        W67611   9.792  25.025   0.536
99383W        W67612  22.298  32.359  12.864
99384W        W67613  37.972  25.520   4.808
99385W        W67614   8.378  21.453   3.685
99386W        W67615  12.560  13.801   3.577
99387W        W67616  44.838   0.807  13.362
99388W        W67617  33.895   6.933   2.805
99389W        W67618  24.527  16.983  10.722
99390W        W67619   0.807  15.269   2.668
99391W        W67620  10.695  31.974   3.236
99392W        W67621  27.724  35.288  13.856
99393W        W67622  29.606   2.182  13.040
99394W        W67623  17.560  40.348   1.801
99395W        W67624  37.011  29.140  11.411
99396W        W67625  40.091  24.901   2.267
99397W        W67626  41.333   1.321  13.839
99398W        W67627  31.017  30.636  14.830
99399W        W67628  16.943  16.272  11.191
99400W        W67629   5.328   3.923  10.898
99401W        W67630  10.827   6.731   0.307
99402W        W67631  44.323  10.176   0.769
99403W        W67632  20.609  26.449   2.809
99404W        W67633  13.876   9.817  14.858
99405W        W67634  30.136  25.526  12.918
99406W        W67635   1.176   4.359   3.640
99407W        W67636  29.079   3.358  12.401
99408W        W67637  35.688  29.530   1.775
99409W        W67638   7.866  29.615  12.937
99410W        W67639   9.330  40.031   4.185
99411W        W67640  10.354  26.134   1.479
99412W        W67641   0.043  12.754   0.326
99413W        W67642  14.133  42.021  14.456
99414W        W67643  37.614  23.699   3.275
99415W        W67644  38.102  24.961   1.321
99416W        W67645  35.468  31.912  11.821
99417W        W67646  19.807  20.417  10.709
99418W        W67647  26.276   4.923  11.616
99419W        W67648  40.269  34.607  10.752
99420W        W67649  10.155  36.953  10.379
99421W        W67650  39.194  41.273   1.403
99422W        W67651   3.903  10.915   1.316
99423W        W67652  16.748  13.399   1.931
99424W        W67653  28.464  33.684   3.358
99425W        W67654   6.342  31.364  13.610
99426W        W67655  33.287  28.214  10.640
99427W        W67656  32.693  29.161   2.317
99428W        W67657  23.076  12.588   0.448
99429W        W67658   2.709  20.061  13.483
99430W        W67659  43.328  15.279   4.390
99431W        W67660   8.496  10.360  14.520
99432W        W67661  27.020  42.544  10.682
99433W        W67662   7.850   3.423   1.270
99434W        W67663  25.637  42.836  13.382
99435W        W67664  20.033  30.601   4.568
99436W        W67665   3.166  30.934   1.356
99437W        W67666  27.996  43.262  12.974
99438W        W67667   5.991  27.495  13.438
99439W        W67668  18.688   4.146  14.903
99440W        W67669  23.744  44.776   4.625
99441W        W67670   7.874   4.327  14.848
99442W        W67671  11.891  23.378  11.019
99443W        W67672  33.962  15.311  12.772
99444W        W67673  39.262  15.251  13.507
99445W        W67674  18.618  15.750   3.620
99446W        W67675  32.847  13.390  12.727
99447W        W67676  29.459  25.487   0.687
99448W        W67677   4.911  34.867  10.267
99449W        W67678  21.437   7.662  12.348
99450W        W67679  26.438   7.672  13.766
99451W        W67680  19.705  35.652   1.757
99452W        W67681   8.471  20.616   4.840
99453W        W67682  18.576   5.919  12.175
99454W        W67683  28.110   7.485   1.324
99455W        W67684   7.926  32.669  13.862
99456W        W67685   1.884  25.801   4.508
99457W        W67686  40.689  27.588   2.748
99458W        W67687   6.198   9.695   3.542
99459W        W67688  34.792  14.254   5.124
99460W        W67689  32.953   5.392  12.361
99461W        W67690   5.798  26.704  12.594
99462W        W67691  35.943  24.449  13.869
99463W        W67692  12.649  43.252   0.422
99464W        W67693  16.863   1.833  11.742
99465W        W67694   0.407   7.801  10.678
99466W        W67695  33.363   4.349  14.330
99467W        W67696  34.442  13.822   0.738
99468W        W67697  10.944  31.531  12.595
99469W        W67698  35.676  15.199   3.924
99470W        W67699  12.721   0.203  12.901
99471W        W67700  28.117   9.029  11.743
99472W        W67701  38.256  40.332  11.324
99473W        W67702   3.186  17.047  13.368
99474W        W67703  32.028  26.158  14.385
99475W        W67704  10.859  27.948   1.810
99476W        W67705  15.554  27.725  12.409
99477W        W67706   5.690  16.966   2.872
99478W        W67707  33.237   6.380   4.596
99479W        W67708  21.138   5.166  10.665
99480W        W67709  13.165  40.928  12.437
99481W        W67710   1.941  19.249   3.723
99482W        W67711  18.632   7.432   1.656
99483W        W67712  36.279  21.975  12.039
99484W        W67713  38.610  23.638   4.178
99485W        W67714  28.057  20.609  12.870
99486W        W67715  21.554  27.825   1.309
99487W        W67716   2.455  40.579   1.135
99488W        W67717  28.179  28.050  13.336
99489W        W67718  42.500   8.444   4.125
99490W        W67719   0.593   8.402  14.485
99491W        W67720  12.334  10.663  12.974
99492W        W67721   3.449   6.494  12.436
99493W        W67722  44.937  23.121  11.910
99494W        W67723  10.771  32.712  13.830
99495W        W67724  17.055  24.636   1.413
99496W        W67725  33.358  27.777   4.932
99497W        W67726   0.337  41.427  13.569
99498W        W67727   1.317  20.192   4.522
99499W        W67728  12.839   1.854  10.804
99500W        W67729  21.080  43.462  13.936
99501W        W67730  36.373  20.310  13.119
99502W        W67731  12.609  23.574   1.939
99503W        W67732  39.680  40.646   0.471
99504W        W67733  43.841  43.372   0.794
99505W        W67734   0.347  28.047   0.607
99506W        W67735  29.863  10.148  14.729
99507W        W67736  36.424   8.776  11.042
99508W        W67737  32.333  42.305   3.500
99509W        W67738  26.169   0.245  11.216
99510W        W67739   6.322  31.337  13.091
99511W        W67740  34.963  36.870  13.835
99512W        W67741  21.069  30.670  10.775
99513W        W67742   7.749  34.564  11.949
99514W        W67743  16.222  32.988   2.338
99515W        W67744  31.489  39.790   4.045
99516W        W67745  39.377   2.417  10.517
99517W        W67746  28.120   1.908   2.981
99518W        W67747  16.717  26.114   9.820
99519W        W67748   6.479  28.011  13.932
99520W        W67749  26.748   8.646  14.827
99521W        W67750  15.245  29.083  11.539
99522W        W67751  29.476  32.840   1.329
99523W        W67752  32.565  13.462   3.599
99524W        W67753  22.367   7.763   0.455
99525W        W67754   0.489   3.529   0.792
99526W        W67755  41.854   0.957  12.998
99527W        W67756   8.393   7.418  12.057
99528W        W67757  36.528   8.254   1.247
99529W        W67758  22.707   6.908  13.037
99530W        W67759  37.508  12.723  10.275
99531W        W67760  31.121  38.293  14.754
99532W        W67761  17.037  22.174  12.026
99533W        W67762  32.562   6.656   2.780
99534W        W67763   3.584   3.034   1.250
99535W        W67764  43.263   4.295   2.636
99536W        W67765  10.247  34.626   4.047
99537W        W67766  37.490   1.543  14.903
99538W        W67767  27.110   1.866   1.310
99539W        W67768  37.915  15.180   1.591
99540W        W67769  30.298   3.017  14.921
99541W        W67770  18.699  44.506   2.251
99542W        W67771  13.573  28.864   4.842
99543W        W67772  32.512  19.881   3.998
99544W        W67773  29.603  37.953   4.855
99545W        W67774  29.640  32.431  14.433
99546W        W67775   4.851  30.044  14.454
99547W        W67776  43.002  18.753   2.347
99548W        W67777   8.701  24.168  14.771
99549W        W67778  30.705  18.722  14.481
99550W        W67779  19.521  22.714  12.006
99551W        W67780  14.858   8.909   0.474
99552W        W67781  28.486   9.304  11.531
99553W        W67782  10.341   7.922   4.079
99554W        W67783  43.156   1.299  12.470
99555W        W67784  17.620  12.686   0.067
99556W        W67785  23.966  31.366   0.858
99557W        W67786  18.491   4.457   4.099
99558W        W67787  39.322  22.716   0.496
99559W        W67788   4.358  16.829  13.919
99560W        W67789  10.305  21.772   1.846
99561W        W67790  16.729  19.886  10.775
99562W        W67791   9.275  11.395  10.795
99563W        W67792  23.165  39.577  12.994
99564W        W67793  15.111  41.777   3.119
99565W        W67794  27.503  26.229   2.805
99566W        W67795  17.636  20.345   9.855
99567W        W67796   0.401   4.372  14.306
99568W        W67797  40.532  44.775  10.906
99569W        W67798  22.950  38.513  12.575
99570W        W67799   2.447  13.137   1.750
99571W        W67800  20.363  17.746   3.908
99572W        W67801   5.726  18.062   0.868
99573W        W67802  33.535  31.224   1.345
99574W        W67803   5.881   4.861   1.197
99575W        W67804  18.024  16.504   0.908
99576W        W67805  10.803  18.238  10.708
99577W        W67806  36.907  17.308  12.588
99578W        W67807  31.440  26.402   4.161
99579W        W67808  28.427   9.322  13.020
99580W        W67809  29.746   3.221   3.154
99581W        W67810  18.184   6.149  11.433
99582W        W67811   3.619  44.219  11.780
99583W        W67812   9.904  19.378  11.218
99584W        W67813  23.970   5.452   1.823
99585W        W67814  43.419   4.639  14.547
99586W        W67815   1.413   8.876  12.928
99587W        W67816  31.286  10.270   2.336
99588W        W67817   4.291  35.316  11.133
99589W        W67818  21.843  34.475   4.687
99590W        W67819  42.854  27.299   4.769
99591W        W67820  34.619  44.100   3.613
99592W        W67821   5.165  35.306  11.610
99593W        W67822  26.062  36.210   4.148
99594W        W67823  24.147  20.005   3.702
99595W        W67824  13.252  25.025  14.204
99596W        W67825  42.552  27.261   2.576
99597W        W67826  19.114  35.896  11.574
99598W        W67827  16.265   6.932   0.834
99599W        W67828  37.305  29.564   0.144
99600W        W67829  38.814  29.045   3.281
99601W        W67830  27.573   8.330   0.343
99602W        W67831  39.501   6.042   1.015
99603W        W67832  35.137  21.637   1.228
99604W        W67833  22.290   2.317  12.870
99605W        W67834   0.702  13.767   2.795
99606W        W67835  42.313   8.214  11.530
99607W        W67836  21.785  19.231   0.910
99608W        W67837  16.093  26.596  10.486
99609W        W67838  36.408   0.671  14.328
99610W        W67839  27.959  31.312   1.783
99611W        W67840   2.889   6.218   3.741
99612W        W67841  15.812  25.428   1.610
99613W        W67842  30.458  25.673  13.422
99614W        W67843  29.360  21.161  13.935
99615W        W67844  10.596   6.835  12.399
99616W        W67845  17.649   7.813  11.960
99617W        W67846  20.009  10.231  12.446
99618W        W67847  28.099  25.401  11.728
99619W        W67848   7.528  37.318   3.326
99620W        W67849  24.432  39.482  12.562
99621W        W67850  25.210  32.378  14.960
99622W        W67851  18.198  19.703  12.255
99623W        W67852  20.510  17.779  12.013
99624W        W67853  14.742   0.734   0.909
99625W        W67854  24.692  24.518  11.490
99626W        W67855  25.652   0.609   3.839
99627W        W67856  19.466  23.702   0.304
99628W        W67857  36.534  42.856  12.550
99629W        W67858  34.267  30.385   4.990
99630W        W67859  39.565  12.087  12.576
99631W        W67860  39.652  10.621   3.806
99632W        W67861  18.450  15.951  11.097
99633W        W67862   4.502  14.195   4.981
99634W        W67863  32.500  23.163  10.528
99635W        W67864  39.492  37.550   3.700
99636W        W67865  28.402  22.766   2.822
99637W        W67866  29.476   9.978  14.394
99638W        W67867  26.646   9.044  13.474
99639W        W67868  44.474  26.220   1.942
99640W        W67869  19.600  42.192   4.035
99641W        W67870   0.693  22.446   4.482
99642W        W67871  30.637  23.182   1.513
99643W        W67872  15.633  20.923   2.808
99644W        W67873  21.253  28.798   1.662
99645W        W67874  27.941  31.594  12.167
99646W        W67875  29.367  40.178  12.011
99647W        W67876  20.156  28.499  12.017
99648W        W67877  44.824  15.224  11.025
99649W        W67878  19.687  30.267  14.991
99650W        W67879  11.393  26.168   0.429
99651W        W67880  10.865  20.682   3.619
99652W        W67881  33.483  44.739   3.665
99653W        W67882  13.469  28.574   3.745
99654W        W67883  44.641  16.786   0.528
99655W        W67884  24.080  21.351   4.285
99656W        W67885  18.595  22.217  14.974
99657W        W67886  15.772  15.750  10.217
99658W        W67887  39.131  20.132   1.201
99659W        W67888   8.751  15.948  11.061
99660W        W67889  12.828  17.578   2.919
99661W        W67890  44.863  41.332  14.297
99662W        W67891  17.688  36.240  11.390
99663W        W67892   9.995   5.335  11.273
99664W        W67893   7.741  44.360   3.408
99665W        W67894  36.010  35.577   2.347
99666W        W67895  43.492  36.604   1.323
99667W        W67896   6.675   8.631  12.025
99668W        W67897  44.076   6.736  10.489
99669W        W67898  32.339  35.992   0.780
99670W        W67899  26.723   0.431   1.469
99671W        W67900  28.073  10.931  12.619
99672W        W67901  31.242  35.984  14.949
99673W        W67902  38.867   1.850   1.153
99674W        W67903  29.164   9.330   4.744
99675W        W67904  18.109  33.157   3.761
99676W        W67905   0.468  35.323   1.899
99677W        W67906  23.283   5.920   0.056
99678W        W67907  35.250  19.447  10.964
99679W        W67908  29.110  32.221   4.001
99680W        W67909  43.193  10.408  10.491
99681W        W67910  39.834   0.880   2.158
99682W        W67911  44.723  41.751  11.046
99683W        W67912  10.085   0.158  12.028
99684W        W67913  28.164   5.903  12.520
99685W        W67914   2.676  38.079  11.909
99686W        W67915  27.853  21.013  13.153
99687W        W67916  34.001   2.686   0.263
99688W        W67917  34.524  26.584   0.260
99689W        W67918  36.099   3.820   0.474
99690W        W67919  43.786  21.144  12.474
99691W        W67920  27.567  30.390  13.508
99692W        W67921  21.095  30.308  10.277
99693W        W67922  16.832  39.460   2.624
99694W        W67923  10.840   6.704  12.815
99695W        W67924  29.849  35.106   0.534
99696W        W67925  35.931  16.301   1.249
99697W        W67926  39.524  42.658  13.075
99698W        W67927   5.648  24.496  12.056
99699W        W67928   8.208   3.426  13.105
99700W        W67929  18.537  18.831  11.134
99701W        W67930  10.268   1.513   2.778
99702W        W67931   4.881  34.703   5.038
99703W        W67932  17.167  29.119  14.119
99704W        W67933   2.541  23.728  14.220
99705W        W67934   2.697  36.603   2.897
99706W        W67935  17.813  12.372   1.884
99707W        W67936  27.161  42.563  13.552
99708W        W67937  30.512  17.750  13.300
99709W        W67938  29.628  14.027   4.566
99710W        W67939  19.243  36.293   1.989
99711W        W67940   1.746   2.839   2.290
99712W        W67941  26.683  31.698  11.067
99713W        W67942   4.630  18.616  14.757
99714W        W67943  13.290   3.850  10.463
99715W        W67944  39.867  23.870   2.428
99716W        W67945  12.423  15.592  14.781
99717W        W67946  31.173  39.002   3.611
99718W        W67947  34.440  13.076  14.528
99719W        W67948  21.994   8.411  11.112
99720W        W67949  22.678  22.471  13.349
99721W        W67950  22.922  29.684  14.523
99722W        W67951  22.954   4.017  14.534
99723W        W67952  38.050  22.606  12.891
99724W        W67953   9.746  30.413   0.888
99725W        W67954  12.350   4.699  12.059
99726W        W67955   2.009  29.606  10.377
99727W        W67956  22.399   5.644  11.467
99728W        W67957  23.502  37.557  10.198
99729W        W67958  25.597   8.421  12.055
99730W        W67959  12.820   7.783   1.742
99731W        W67960  33.889  27.870   3.796
99732W        W67961  39.451  15.788   1.638
99733W        W67962  37.846  14.661  12.658
99734W        W67963  21.464   1.208  12.630
99735W        W67964  33.057  32.416   1.734
99736W        W67965  19.527  26.944  14.845
99737W        W67966  37.073  12.185   2.347
99738W        W67967   9.358  37.369   1.424
99739W        W67968  13.745   1.212  13.079
99740W        W67969   8.771  13.611  14.381
99741W        W67970  32.151  44.347   0.864
99742W        W67971  21.179   3.942   0.357
99743W        W67972   9.055  14.190   1.417
99744W        W67973  30.108  44.382   3.132
99745W        W67974  32.966  38.295   1.641
99746W        W67975  17.341   0.295   3.042
99747W        W67976  39.747  40.070   5.022
99748W        W67977  21.277  38.272   2.408
99749W        W67978  29.270  16.349  12.059
99750W        W67979   2.060  13.260   3.645
99751W        W67980   3.844  34.883  12.095
99752W        W67981  19.268  25.069   0.461
99753W        W67982  39.855  40.992  12.941
99754W        W67983  25.331  28.036  14.847
99755W        W67984  11.096  36.996   1.452
99756W        W67985  34.834  32.154   3.642
99757W        W67986   0.575  41.888  12.854
99758W        W67987  16.412  33.613   4.064
99759W        W67988  36.320  41.139  10.060
99760W        W67989  23.846  24.925  10.295
99761W        W67990  31.806  25.882  12.954
99762W        W67991  10.337  27.198  10.736
99763W        W67992  10.886   3.291   3.648
99764W        W67993  40.858  36.458  12.167
99765W        W67994   0.495   5.929   2.649
99766W        W67995  18.858  10.921   2.812
99767W        W67996  11.827  29.984   4.403
99768W        W67997  13.580   7.207  14.550
99769W        W67998  31.465   7.429   0.274
99770W        W67999  32.198  10.309  13.396
99771W        W68000  27.860  40.298  11.162
99772W        W68001  14.599  18.502   3.791
99773W        W68002  37.541  43.881  10.798
99774W        W68003  29.340   3.777  14.887
99775W        W68004  26.383  42.501   4.190
99776W        W68005  30.993  35.489  12.154
99777W        W68006  33.993  43.854   4.636
99778W        W68007   8.242  36.492   4.696
99779W        W68008  42.811  31.916  13.109
99780W        W68009   0.799  27.829   0.471
99781W        W68010   2.941   5.191  13.855
99782W        W68011  34.981   5.515   0.888
99783W        W68012  32.652  22.186  11.828
99784W        W68013  38.806  44.642   9.840
99785W        W68014  21.738  25.730   1.295
99786W        W68015  26.406  15.056  13.861
99787W        W68016  29.893  37.420  12.101
99788W        W68017  32.452  15.734  13.012
99789W        W68018  34.873   9.401  10.695
99790W        W68019  12.676  37.115   0.261
99791W        W68020  15.912  37.387   4.168
99792W        W68021  16.583  27.340   5.154
99793W        W68022  25.910  22.578  10.354
99794W        W68023  32.909  18.594   4.567
99795W        W68024  36.925  11.258  10.376
99796W        W68025   0.753   8.690  10.763
99797W        W68026  36.289  14.722  13.662
99798W        W68027  43.299  13.224  14.747
99799W        W68028  44.238  20.610  14.740
99800W        W68029   1.991  15.545   2.221
99801W        W68030  15.720  28.941  11.851
99802W        W68031  18.039  12.632   2.278
99803W        W68032  41.298  10.977  11.262
99804W        W68033  31.482  35.792   3.085
99805W        W68034   7.312  17.595   3.001
99806W        W68035  43.585  42.921  13.780
99807W        W68036  15.028  27.728  12.387
99808W        W68037  32.642  33.954  12.843
99809W        W68038  32.031  38.150  14.344
99810W        W68039   0.443  42.785  13.347
99811W        W68040  27.889  44.228   0.209
99812W        W68041  14.479  16.110  11.924
99813W        W68042   0.791   9.467  13.067
99814W        W68043  11.406  33.490  11.188
99815W        W68044   9.191  19.575   0.745
99816W        W68045  44.916  27.467  13.914
99817W        W68046  36.140  30.674  10.520
99818W        W68047  31.910  33.007   2.802
99819W        W68048   8.673  14.048  12.153
99820W        W68049  12.944  10.164  11.879
99821W        W68050  18.758  12.189  13.035
99822W        W68051  43.357  27.906  11.095
99823W        W68052   0.793  37.061   0.916
99824W        W68053   2.885  22.718  11.223
99825W        W68054  13.621  19.418   1.431
99826W        W68055  17.029  21.181   3.674
99827W        W68056   2.971  25.162  14.304
99828W        W68057  22.706  24.702   2.359
99829W        W68058  23.599  10.427   2.730
99830W        W68059  22.291   2.309   2.583
99831W        W68060  21.637  27.533   4.562
99832W        W68061  39.090   1.983   4.751
99833W        W68062  30.321  34.481   2.202
99834W        W68063  34.551  10.625  12.896
99835W        W68064  22.514  39.120   2.159
99836W        W68065  22.240  33.918   0.436
99837W        W68066  29.407  28.563   3.356
99838W        W68067  43.813  28.459   2.311
99839W        W68068  13.788   7.661  14.387
99840W        W68069  26.445  17.216   0.812
99841W        W68070  36.900  29.950  12.108
99842W        W68071  15.007   3.727   0.950
99843W        W68072  40.105  16.145   0.172
99844W        W68073  23.643  44.758  12.988
99845W        W68074  21.669  19.044  12.045
99846W        W68075  32.065  34.249  11.118
99847W        W68076  43.021  22.538  10.675
99848W        W68077  18.353  24.589   3.003
99849W        W68078  15.418  13.211   0.262
99850W        W68079  22.831  18.239  14.594
99851W        W68080  43.271  24.687  14.294
99852W        W68081  25.663  17.899  13.457
99853W        W68082  26.224  33.985   3.290
99854W        W68083  44.222  16.354   3.813
99855W        W68084  25.669  39.947   2.271
99856W        W68085  37.728   9.384  10.537
99857W        W68086  38.129  31.565  10.678
99858W        W68087   9.154  43.449   3.286
99859W        W68088   0.374  29.675   3.399
99860W        W68089   6.260  43.988   3.744
99861W        W68090   3.850  27.368  10.534
99862W        W68091  42.755  38.750   2.205
99863W        W68092  18.310   4.145  11.264
99864W        W68093  15.736  41.876  13.494
99865W        W68094  36.284  12.521   1.317
99866W        W68095  35.395  31.713  14.933
99867W        W68096  35.844   8.878  13.989
99868W        W68097   9.305  10.314   1.998
99869W        W68098   1.118  37.559  12.503
99870W        W68099  41.972   3.202  14.344
99871W        W68100  43.277  26.563   2.241
99872W        W68101  37.753   9.317   2.220
99873W        W68102  42.359  41.525   1.900
99874W        W68103  20.610  13.336   0.915
99875W        W68104  32.343  21.556   2.658
99876W        W68105  35.787  34.684  11.566
99877W        W68106  19.735  10.763   4.484
99878W        W68107  34.906  32.227   0.241
99879W        W68108  30.550  13.352   1.844
99880W        W68109  37.509  36.062   1.730
99881W        W68110  15.625  41.027   4.838
99882W        W68111   2.552  39.148  11.642
99883W        W68112   9.054   0.373  12.932
99884W        W68113  14.232  32.930   3.942
99885W        W68114  29.991  14.626  11.097
99886W        W68115  14.183   2.599  11.058
99887W        W68116   8.892  27.136  11.925
99888W        W68117  32.195  43.505   3.709
99889W        W68118   0.817  28.641  12.962
99890W        W68119  36.539  43.767   1.337
99891W        W68120  31.003   9.798   0.472
99892W        W68121   5.687  13.134  11.185
99893W        W68122  39.296  14.543   1.386
99894W        W68123   6.438   0.769  11.218
99895W        W68124  30.485  30.863  11.261
99896W        W68125  11.710  13.308  14.547
99897W        W68126  35.419  30.090  13.854
99898W        W68127  18.582  33.192   0.339
99899W        W68128  32.720  23.147  13.842
99900W        W68129   9.436  40.102  13.386
99901W        W68130  13.514  39.972  10.709
99902W        W68131   2.929   9.764  11.276
99903W        W68132  26.495  20.236  10.687
99904W        W68133   2.452  28.881  14.471
99905W        W68134   9.970  44.884   1.627
99906W        W68135   7.271  30.598   4.308
99907W        W68136  31.628  39.437  12.320
99908W        W68137  30.163  17.278   0.786
99909W        W68138  39.208  24.032  11.824
99910W        W68139  25.675   5.961   1.709
99911W        W68140   4.687   8.473   1.479
99912W        W68141  25.198  43.512  10.826
99913W        W68142  35.891   0.436   2.585
99914W        W68143  40.073  19.977   2.271
99915W        W68144  41.019  15.712  14.461
99916W        W68145  15.856  41.505  12.891
99917W        W68146  17.354  13.233  13.900
99918W        W68147   7.344  25.566  13.107
99919W        W68148  36.170  12.363   3.222
99920W        W68149  44.410   0.717   0.676
99921W        W68150  39.280  18.780   2.218
99922W        W68151  17.205   0.257  11.170
99923W        W68152  20.836  19.951  11.549
99924W        W68153  21.625  31.840  14.225
99925W        W68154   9.301   6.922  12.138
99926W        W68155   2.459  33.564  12.866
99927W        W68156   5.375  32.183  14.397
99928W        W68157  17.857  15.308   3.557
99929W        W68158   0.190   6.897  12.980
99930W        W68159  22.724  27.175  10.736
99931W        W68160   6.485  24.780  11.156
99932W        W68161   1.822  18.789  14.682
99933W        W68162  16.077  43.478   0.372
99934W        W68163  30.125  39.291   1.273
99935W        W68164  20.333   4.939  11.846
99936W        W68165  20.543   7.411   4.803
99937W        W68166  38.371  37.085   1.407
99938W        W68167   6.378  30.429  11.948
99939W        W68168   3.494   1.664  14.301
99940W        W68169   0.918  41.121   2.481
99941W        W68170   0.495  39.342  12.110
99942W        W68171   5.797  27.220  12.649
99943W        W68172  14.321  25.495  14.761
99944W        W68173  18.140  36.996  11.514
99945W        W68174  38.919   8.654  13.828
99946W        W68175  34.571  18.154   4.608
99947W        W68176   9.705  32.612   4.581
99948W        W68177  43.834  33.955   1.090
99949W        W68178   6.910  38.998  11.225
99950W        W68179  10.781  14.818  10.145
99951W        W68180  31.536   0.825   3.952
99952W        W68181   2.471  43.969   0.343
99953W        W68182  32.412  21.493   4.236
99954W        W68183  29.194  13.010   3.709
99955W        W68184  34.117  37.103  12.808
99956W        W68185  11.280   0.800  11.918
99957W        W68186  33.408  23.249  13.619
99958W        W68187  11.737  41.737  13.862
99959W        W68188  13.114  22.096   1.422
99960W        W68189  30.752  44.271  10.939
99961W        W68190  19.544  28.424   3.144
99962W        W68191  21.602  22.220   1.370
99963W        W68192  11.101  11.363   3.593
99964W        W68193  42.853  18.519  12.129
99965W        W68194  31.821  32.476  12.918
99966W        W68195  12.979  23.086   0.025
99967W        W68196   5.113  40.204  10.319
99968W        W68197  18.440   7.178   1.120
99969W        W68198   0.512  38.445  12.585
99970W        W68199  25.619   1.460   2.701
99971W        W68200  14.639  18.166  14.708
99972W        W68201  23.353  13.423  12.057
99973W        W68202  21.753  44.707  13.894
99974W        W68203  28.834  18.233   4.170
99975W        W68204  41.893  21.935   2.174
99976W        W68205  34.043  11.231  12.953
99977W        W68206  11.772  21.521   0.994
99978W        W68207   7.845  30.365  11.358
99979W        W68208   4.100  30.831  13.363
99980W        W68209  35.025  28.977   9.829
99981W        W68210  17.547  18.825  12.774
99982W        W68211  31.777  22.768   2.922
99983W        W68212  34.454  29.321  14.442
99984W        W68213  38.227  28.084  11.958
99985W        W68214  23.250  40.102   0.205
99986W        W68215  15.209  18.931   4.430
99987W        W68216  34.475  18.862  11.141
99988W        W68217  11.907  17.366  11.827
99989W        W68218   2.194  33.066  10.913
99990W        W68219  33.299  34.560  13.765
99991W        W68220  25.246   6.384   2.373
99992W        W68221  28.291  32.910   5.217
99993W        W68222  31.831  27.995   2.305
99994W        W68223  32.084  29.614  13.572
99995W        W68224  34.374   2.360  14.308
99996W        W68225  42.297  12.933  11.127
99997W        W68226  17.721  30.996  10.655
99998W        W68227  18.647  26.467  11.157
99999W        W68228  35.054  42.911   2.735
    0W        W68229  29.293   7.958   3.148
    1W        W68230  39.190   2.827  12.451
    2W        W68231  19.319  43.320   3.242
    3W        W68232   3.793  43.453   1.440
    4W        W68233  14.116  14.820  10.601
    5W        W68234  12.613  39.340  14.293
    6W        W68235  25.913  29.204  14.107
    7W        W68236  43.761  26.531  11.673
    8W        W68237  13.388  13.539  11.839
    9W        W68238  12.891  25.677   5.030
   10W        W68239  40.467   9.463  10.761
   11W        W68240  28.679   9.908   0.783
   12W        W68241  27.440   9.557  11.562
   13W        W68242  36.886   8.891   2.099
   14W        W68243  29.022  12.616   1.352
   15W        W68244  23.953  16.211  13.350
   16W        W68245  27.733  15.264   4.344
   17W        W68246  25.492  13.722   0.693
   18W        W68247  39.559  43.314  11.210
   19W        W68248  33.129  12.507   3.396
   20W        W68249  28.811   6.735   0.283
   21W        W68250  32.129   1.134   5.059
   22W        W68251  41.953  41.726  13.944
   23W        W68252  19.952  35.801  11.545
   24W        W68253  40.367  24.641   1.519
   25W        W68254  18.549   8.813  13.602
   26W        W68255  19.115   6.446  12.777
   27W        W68256  30.203  22.755  13.069
   28W        W68257  11.176  38.443   4.634
   29W        W68258  43.412  18.801   1.721
   30W        W68259  41.042   4.710  12.206
   31W        W68260  29.898   6.725   4.167
   32W        W68261  28.058   4.151   2.295
   33W        W68262  24.029  10.867   3.264
   34W        W68263  21.259  14.148  10.840
   35W        W68264  16.692  13.331  11.381
   36W        W68265  14.996  30.951   3.598
   37W        W68266  35.513  32.131   1.462
   38W        W68267  27.817  34.591  10.944
   39W        W68268  29.297  10.747  12.110
   40W        W68269  37.342  40.943  14.947
   41W        W68270  38.887  27.993   3.338
   42W        W68271  34.783  37.860   1.693
   43W        W68272  17.545  26.122  14.373
   44W        W68273  31.911  40.579   4.102
   45W        W68274  26.610  22.697  14.999
   46W        W68275  25.266  28.570   3.529
   47W        W68276   3.851  14.126   2.142
   48W        W68277  14.495  26.970  14.255
   49W        W68278   2.504  44.940   1.358
   50W        W68279  30.464  13.592  14.748
   51W        W68280  22.857  29.860   2.385
   52W        W68281  15.118  44.751   4.543
   53W        W68282  33.698  28.704   1.867
   54W        W68283  14.198   8.855  13.678
   55W        W68284  18.791   2.564   0.877
   56W        W68285  42.724  40.921   3.711
   57W        W68286   6.822  20.728  12.172
   58W        W68287   2.162  23.770   3.290
   59W        W68288   7.687  36.025   3.642
   60W        W68289  22.885   0.480   1.442
   61W        W68290   0.730   2.476  12.470
   62W        W68291  10.819  30.394  11.994
   63W        W68292  14.899  26.280   0.987
   64W        W68293  16.836  41.945   0.516
   65W        W68294   0.504  43.717  14.373
   66W        W68295  28.560   1.289  13.344
   67W        W68296  33.210   5.331   1.958
   68W        W68297  35.295  36.406  11.115
   69W        W68298  37.524   5.969  13.879
   70W        W68299  18.040  39.403   3.852
   71W        W68300  44.459  27.095   1.957
   72W        W68301   3.406  18.897   1.103
   73W        W68302  15.382  11.803   3.259
   74W        W68303  34.921  21.526   3.060
   75W        W68304  37.463  31.898   0.510
   76W        W68305   8.818  14.270   3.981
   77W        W68306  33.498  17.656   3.821
   78W        W68307  26.633  14.401   4.225
   79W        W68308  10.543  19.139   3.686
   80W        W68309  10.540  31.029   3.217
   81W        W68310  43.239  22.502  12.989
   82W        W68311   1.926   4.914   4.690
   83W        W68312   9.131  42.615   3.138
   84W        W68313   8.958  39.461   4.055
   85W        W68314  40.905   9.196  13.420
   86W        W68315   9.407  36.645   3.622
   87W        W68316  35.995  14.119  14.819
   88W        W68317   8.803  26.862   1.351
   89W        W68318  29.038  34.449   0.764
   90W        W68319  28.447  16.258  11.494
   91W        W68320  18.122  11.660   2.313
   92W        W68321  33.428  23.440  10.275
   93W        W68322  11.294  32.204   1.820
   94W        W68323   1.250   8.872  10.799
   95W        W68324  44.400  15.194   4.607
   96W        W68325  14.585   4.509  14.004
   97W        W68326  21.550  41.921   0.416
   98W        W68327  31.502  36.906   4.645
   99W        W68328  22.910  13.071  10.675
  100W        W68329   3.991  15.241  14.332
  101W        W68330  38.287  25.674  13.394
  102W        W68331   4.661  24.391  12.867
  103W        W68332   1.899  21.597   4.735
  104W        W68333   3.987  31.903   2.661
  105W        W68334  25.801   0.822  12.093
  106W        W68335  18.662  14.840   4.682
  107W        W68336  26.246   0.205   1.557
  108W        W68337   6.679  40.906  13.244
  109W        W68338  25.620  17.903   4.434
  110W        W68339   4.914  33.216  12.052
  111W        W68340   3.625  39.412  14.367
  112W        W68341  18.944  38.367   3.075
  113W        W68342  40.270  15.167  10.612
  114W        W68343  23.042  39.459   4.144
  115W        W68344  14.281  23.332  13.116
  116W        W68345  23.162   7.373   0.701
  117W        W68346  12.363   3.458  14.779
  118W        W68347  11.366  14.638   2.190
  119W        W68348  40.854   9.463   2.765
  120W        W68349   0.402  25.770   4.574
  121W        W68350   9.145  40.515   1.167
  122W        W68351  12.377  13.010  12.471
  123W        W68352   5.411  31.034   4.530
  124W        W68353   7.283   6.861  14.054
  125W        W68354  29.705  10.142  13.483
  126W        W68355  38.500  10.365  14.922
  127W        W68356  36.329  31.115   3.204
  128W        W68357  25.936  35.867   3.778
  129W        W68358  44.354  37.016   3.365
  130W        W68359  33.247  15.515   0.945
  131W        W68360  43.188  21.131  11.922
  132W        W68361  32.502  13.314  10.488
  133W        W68362  29.010  17.745  10.451
  134W        W68363   7.922   6.942   2.410
  135W        W68364  26.570  16.426  10.599
  136W        W68365  25.096  23.348  13.015
  137W        W68366  10.216  23.105  13.298
  138W        W68367  13.159  23.749  10.261
  139W        W68368   8.228   7.180  12.508
  140W        W68369  27.674   3.321  13.462
  141W        W68370   9.528  27.390  12.844
  142W        W68371   5.811  23.910  13.580
  143W        W68372  24.497   9.031   3.992
  144W        W68373  22.543  36.506   2.476
  145W        W68374  26.715  16.690   0.726
  146W        W68375  23.898  30.361   0.833
  147W        W68376  11.954   1.300  11.310
  148W        W68377   9.273  42.793   3.803
  149W        W68378  42.815  29.002  12.524
  150W        W68379  41.496  18.765   3.351
  151W        W68380  44.749  30.922   1.990
  152W        W68381  28.685  35.110  14.037
  153W        W68382   6.494  43.918  14.537
  154W        W68383   4.163  26.091   2.670
  155W        W68384  40.441   6.374   3.618
  156W        W68385  19.965  24.561  14.448
  157W        W68386  24.131  22.478  12.981
  158W        W68387  31.535   6.185   3.985
  159W        W68388  26.490  35.563  12.333
  160W        W68389  16.996  14.308  12.799
  161W        W68390  42.056  19.795   2.033
  162W        W68391   1.993  12.322   0.293
  163W        W68392  16.669  39.764   0.421
  164W        W68393   5.675   7.660  14.998
  165W        W68394  28.968   3.620   2.046
  166W        W68395  14.736  34.317   1.190
  167W        W68396  32.650  20.749  14.248
  168W        W68397  38.268  33.427  14.399
  169W        W68398  27.941   0.734  13.801
  170W        W68399  10.163  37.474   4.661
  171W        W68400   5.270   9.130   0.999
  172W        W68401  16.718  12.025   3.217
  173W        W68402  38.146  24.931  11.833
  174W        W68403   0.198  24.151   1.182
  175W        W68404  30.331  12.228  13.437
  176W        W68405  15.384  26.542   0.771
  177W        W68406  40.018  14.044   3.389
  178W        W68407  30.362  44.315  12.821
  179W        W68408   3.633  17.327  10.485
  180W        W68409  44.464  28.800  12.957
  181W        W68410  13.259  25.935   1.316
  182W        W68411  25.542  22.744  12.541
  183W        W68412   4.761  25.207   2.907
  184W        W68413  21.701   7.025   2.229
  185W        W68414  11.778  27.472   1.761
  186W        W68415  41.329  33.962   2.799
  187W        W68416  35.501  33.069   4.238
  188W        W68417   2.961   0.982  14.076
  189W        W68418  43.723  23.619  13.074
  190W        W68419  38.392  37.579  10.454
  191W        W68420  26.524  36.266   0.580
  192W        W68421  43.337  24.277   2.700
  193W        W68422   5.433  37.528  13.323
  194W        W68423  36.003  29.893   1.462
  195W        W68424  40.051   1.228   0.057
  196W        W68425  12.684  38.326  11.578
  197W        W68426   6.274   9.866   2.438
  198W        W68427  35.119   1.798  14.367
  199W        W68428  29.659  18.182   5.571
  200W        W68429   4.427   5.898  13.044
  201W        W68430   8.864  35.393  13.365
  202W        W68431  30.421   1.300  12.042
  203W        W68432  26.739  39.559   4.293
  204W        W68433  11.671  16.627  14.127
  205W        W68434   5.678   5.310   2.850
  206W        W68435  13.186   3.553  10.886
  207W        W68436  17.586  26.438  11.895
  208W        W68437  38.439   8.939  11.624
  209W        W68438   7.729   6.830   0.026
  210W        W68439  41.977  24.184  14.705
  211W        W68440  44.587  31.429   1.835
  212W        W68441   2.364  42.755  13.154
  213W        W68442   2.264  38.769   2.580
  214W        W68443  37.112  38.658  14.431
  215W        W68444  42.956  41.552   1.446
  216W        W68445  27.977  12.086  11.960
  217W        W68446  42.206  14.711  11.671
  218W        W68447   7.188  37.864   3.411
  219W        W68448  35.357  34.860   2.646
  220W        W68449  21.634  43.403  11.597
  221W        W68450  20.073   0.934  13.114
  222W        W68451  25.179   7.599   3.699
  223W        W68452  25.679   4.776   1.727
  224W        W68453  34.799  25.729  11.652
  225W        W68454  25.996   8.483  13.352
  226W        W68455  10.675  30.003   0.871
  227W        W68456  41.452  23.420   4.344
  228W        W68457  28.945  16.729  10.977
  229W        W68458  23.672  30.328   3.708
  230W        W68459  17.718  16.431  12.861
  231W        W68460  10.643   6.803   1.522
  232W        W68461  14.859  30.086  13.931
  233W        W68462  34.984   7.496   4.206
  234W        W68463   7.679  28.994   0.497
  235W        W68464  23.337   3.478  10.849
  236W        W68465   3.372   3.788   4.352
  237W        W68466  18.248  17.145   0.216
  238W        W68467  37.458  16.423   4.142
  239W        W68468   2.094  10.032   2.358
  240W        W68469  23.028  14.145  13.205
  241W        W68470  28.689   3.156  13.729
  242W        W68471  10.307   2.968   4.090
  243W        W68472  19.988  17.161  12.624
  244W        W68473   3.227  19.353   2.296
  245W        W68474  15.639  37.256  12.366
  246W        W68475  14.600  12.265   0.941
  247W        W68476  33.515  20.695   0.068
  248W        W68477  11.574  30.946  12.123
  249W        W68478  20.369   7.461  10.196
  250W        W68479   9.653   5.906   0.677
  251W        W68480  18.557  25.229   5.076
  252W        W68481  18.232   8.139  12.906
  253W        W68482  22.275  22.426   4.150
  254W        W68483  35.104  19.562   0.545
  255W        W68484  22.520  43.833  10.969
  256W        W68485  39.429  13.753  10.687
  257W        W68486  28.401  12.390  11.527
  258W        W68487  11.232  14.039  11.975
  259W        W68488  42.224  28.545   1.754
  260W        W68489   9.583  27.934  14.947
  261W        W68490  33.605  28.923  11.070
  262W        W68491   4.834   1.724  14.522
  263W        W68492  34.994  40.345  13.992
  264W        W68493  40.404  29.437  14.884
  265W        W68494  12.657  22.291  12.292
  266W        W68495  19.186  17.275  12.688
  267W        W68496  14.233   8.283  12.001
  268W        W68497  24.212  31.991  13.081
  269W        W68498  33.698   3.419  12.374
  270W        W68499   0.975   2.023  14.315
  271W        W68500   6.865  36.490  14.829
  272W        W68501  34.865  13.856  14.333
  273W        W68502  14.841  20.649   3.691
  274W        W68503   3.912  12.622   1.820
  275W        W68504  34.207   1.520   0.986
  276W        W68505  11.660  21.252  13.448
  277W        W68506  15.331  29.890  13.786
  278W        W68507  17.088  21.208   5.022
  279W        W68508  37.427  19.606   3.800
  280W        W68509  10.681  22.065  14.857
  281W        W68510  34.969   5.277  13.038
  282W        W68511  18.898  28.046  12.883
  283W        W68512  33.940  12.843  14.400
  284W        W68513  16.200  18.133   0.362
  285W        W68514  11.284  16.354   3.651
  286W        W68515   6.672   3.323  11.767
  287W        W68516   1.780  42.469   3.140
  288W        W68517  38.970   4.184   2.600
  289W        W68518   5.333  40.386   3.307
  290W        W68519  11.088  27.094   3.685
  291W        W68520  37.127  12.077   4.356
  292W        W68521  43.914  33.033  13.253
  293W        W68522  35.414  16.633  11.090
  294W        W68523  43.863   1.182  14.983
  295W        W68524  40.324  16.900  10.777
  296W        W68525  24.674   0.391   2.641
  297W        W68526  24.709  40.967   4.104
  298W        W68527  10.446  11.777   3.374
  299W        W68528  13.318  42.695   3.249
  300W        W68529  43.803   3.283  12.098
  301W        W68530  13.648   9.235  12.697
  302W        W68531  11.676  16.385  12.018
  303W        W68532  32.551  19.786  12.026
  304W        W68533  12.547   5.302   0.975
  305W        W68534  36.840   0.731   3.690
  306W        W68535  40.537  41.758   0.017
  307W        W68536  26.709   0.162   1.026
  308W        W68537   3.545  27.896  12.093
  309W        W68538  15.901   1.819  12.103
  310W        W68539  21.629  14.355   3.317
  311W        W68540  36.180  10.755   3.718
  312W        W68541  10.571  20.291  14.968
  313W        W68542  34.293   6.080   2.992
  314W        W68543  37.289  27.063  13.083
  315W        W68544  38.210  10.581   9.858
  316W        W68545  16.621  42.051  10.818
  317W        W68546  31.183  30.487   4.168
  318W        W68547  42.011  25.836  14.910
  319W        W68548   1.896  22.908  11.182
  320W        W68549  11.714   1.863   0.646
  321W        W68550  24.080  21.026  11.550
  322W        W68551   6.755   6.934  14.008
  323W        W68552  25.697  28.522   0.940
  324W        W68553  30.899  23.468   0.737
  325W        W68554  29.214   9.981   3.948
  326W        W68555   6.627  42.996   0.031
  327W        W68556  39.095   7.991  14.624
  328W        W68557  12.643  22.809  13.551
  329W        W68558  38.025  28.264  14.264
  330W        W68559  40.124   3.570  10.987
  331W        W68560  26.351  16.435  11.070
  332W        W68561  38.619  12.376   4.324
  333W        W68562   1.321  39.481   0.755
  334W        W68563   0.128  28.023   4.911
  335W        W68564   7.466  37.455  14.469
  336W        W68565   1.638  32.100  11.101
  337W        W68566  32.336   1.301   0.525
  338W        W68567  41.802  32.149   3.164
  339W        W68568  18.142  15.108  12.415
  340W        W68569   0.787  28.083   2.789
  341W        W68570  32.364  26.496  12.868
  342W        W68571  36.623  42.093  12.916
  343W        W68572  17.580  33.279  12.093
  344W        W68573   8.944  39.215   2.724
  345W        W68574  20.839  18.068  11.721
  346W        W68575   0.774   2.823   0.467
  347W        W68576  39.626   0.219   3.333
  348W        W68577  11.767  41.751   4.161
  349W        W68578   3.078  38.919  12.990
  350W        W68579   0.260  41.130  14.533
  351W        W68580  19.255  38.079   4.909
  352W        W68581  33.028  10.661   1.780
  353W        W68582  11.873  36.563  12.624
  354W        W68583  12.085  19.286   3.726
  355W        W68584  38.847  11.320   2.250
  356W        W68585  42.079  35.855  14.905
  357W        W68586  32.600  41.872  13.618
  358W        W68587  32.483  12.429  11.447
  359W        W68588  19.381  25.994   0.031
  360W        W68589   9.939  28.722   4.342
  361W        W68590   2.724  20.493  10.919
  362W        W68591  14.066  42.989  13.513
  363W        W68592  18.286  32.608  14.946
  364W        W68593  12.717  44.049   4.604
  365W        W68594   4.694   7.576  12.536
  366W        W68595  32.138   1.049  14.678
  367W        W68596   9.630  30.091  10.809
  368W        W68597   5.734   3.002   0.913
  369W        W68598  10.852   9.814  14.060
  370W        W68599  16.246  34.395  10.259
  371W        W68600  25.499  37.986   3.880
  372W        W68601  39.710  16.166  13.372
  373W        W68602   3.754  20.823   4.740
  374W        W68603  37.498  39.385   2.414
  375W        W68604  38.299  35.334   2.001
  376W        W68605  33.449  43.159  14.015
  377W        W68606   8.792  42.295   0.510
  378W        W68607  16.303  23.050  11.630
  379W        W68608   6.835   8.802   0.116
  380W        W68609  14.715  12.824  12.524
  381W        W68610  19.124  36.816  14.254
  382W        W68611  15.617  32.074   1.851
  383W        W68612  37.869  33.455   3.036
  384W        W68613  36.324  11.784   4.346
  385W        W68614  33.142  39.138   1.843
  386W        W68615  10.284  29.498  13.889
  387W        W68616  42.585  34.299  11.140
  388W        W68617  43.711  34.900  11.205
  389W        W68618   2.443  35.968   2.234
  390W        W68619   5.022  12.738  13.895
  391W        W68620   7.644  14.859   4.327
  392W        W68621  13.094   8.330  13.355
  393W        W68622   2.941  38.927   4.312
  394W        W68623  41.234  22.793  12.144
  395W        W68624   1.901  27.167  12.989
  396W        W68625  18.724  29.745   1.769
  397W        W68626   8.205  42.789  14.905
  398W        W68627  36.455   8.705   0.778
  399W        W68628  23.918  31.226   3.763
  400W        W68629  26.105  14.306   5.133
  401W        W68630  43.540   3.404  11.665
  402W        W68631   2.581   0.521   0.512
  403W        W68632  29.414  36.035  10.575
  404W        W68633  20.208  12.667  14.248
  405W        W68634  16.199  12.222   0.916
  406W        W68635  42.336   3.535   0.387
  407W        W68636  40.759  18.617   2.813
  408W        W68637  36.660  12.568  10.624
  409W        W68638  27.488  17.615  14.866
  410W        W68639   0.428  44.450  11.087
  411W        W68640  39.468  26.838  11.186
  412W        W68641  36.845  20.993  14.194
  413W        W68642  25.169  24.158   4.141
  414W        W68643  21.600  27.557  11.838
  415W        W68644  25.221  44.358   3.172
  416W        W68645  22.054  20.564  11.404
  417W        W68646  17.831  17.178   3.251
  418W        W68647  29.641  41.810  13.970
  419W        W68648  24.047  19.444   3.833
  420W        W68649  15.573  10.286  10.483
  421W        W68650  18.779  41.797  13.006
  422W        W68651   2.719  23.532  11.770
  423W        W68652  43.948  12.384   4.656
  424W        W68653  39.822  10.325   0.786
  425W        W68654  42.510  20.170  12.539
  426W        W68655   2.294  43.917   4.604
  427W        W68656  31.010  11.523  11.871
  428W        W68657   7.341  39.113   2.204
  429W        W68658   0.130  26.503  12.817
  430W        W68659  40.115   1.345  12.957
  431W        W68660  40.526  44.061   0.508
  432W        W68661  23.769  33.624  14.798
  433W        W68662  25.301  19.746   0.748
  434W        W68663  29.545   5.463   4.404
  435W        W68664  28.498  11.197   0.478
  436W        W68665   1.881  26.843   2.373
  437W        W68666  44.903  29.402   0.264
  438W        W68667  32.302   2.899  14.925
  439W        W68668  13.105  18.640   4.564
  440W        W68669  16.369  22.474   0.297
  441W        W68670  28.572   0.620   2.411
  442W        W68671  42.172  23.170   3.970
  443W        W68672   2.728  11.293   0.785
  444W        W68673  31.403  42.874  12.540
  445W        W68674  24.560  20.730   4.074
  446W        W68675  30.000  15.568   0.455
  447W        W68676  41.846  20.192   0.602
  448W        W68677   3.427  35.639   0.481
  449W        W68678  33.167  35.000  10.661
  450W        W68679  17.813  32.793  11.213
  451W        W68680   5.859  35.911  11.554
  452W        W68681  39.155   4.006   0.035
  453W        W68682   2.961  10.143   2.926
  454W        W68683   0.435  43.717   2.219
  455W        W68684  12.319  34.807   2.192
  456W        W68685  40.669  36.139  11.677
  457W        W68686  16.606  40.523   3.291
  458W        W68687  40.426  24.901  10.762
  459W        W68688  10.165  13.786  10.977
  460W        W68689  26.221  17.616  13.099
  461W        W68690  14.813   5.387  13.784
  462W        W68691  13.766  29.007  13.855
  463W        W68692   2.397  11.719  12.039
  464W        W68693  38.040  26.896  12.365
  465W        W68694  23.732  41.976  12.534
  466W        W68695  19.211  29.577   1.869
  467W        W68696   9.177   3.668   0.372
  468W        W68697  36.859   0.744  11.173
  469W        W68698  39.096  42.809   1.848
  470W        W68699   2.656   1.409  12.934
  471W        W68700  13.219  43.530  10.616
  472W        W68701  21.769  31.214  12.866
  473W        W68702   6.729  32.883   0.474
  474W        W68703   5.009   4.193  13.937
  475W        W68704  15.849  21.401  10.991
  476W        W68705  19.666  24.466  11.418
  477W        W68706  24.579  42.224  11.137
  478W        W68707  34.066  10.214  12.895
  479W        W68708  24.993  14.303  13.401
  480W        W68709  13.188   9.631   2.216
  481W        W68710  13.200   9.686  10.875
  482W        W68711   3.273  15.882  10.756
  483W        W68712  42.820  25.572  13.614
  484W        W68713  44.460  12.780  12.935
  485W        W68714  22.262   2.255   1.279
  486W        W68715  29.100  38.892   0.335
  487W        W68716  39.055  24.059  14.364
  488W        W68717  13.202  29.447  11.903
  489W        W68718  29.079  30.823  11.536
  490W        W68719   9.820  28.561   4.822
  491W        W68720  42.337   3.394   1.765
  492W        W68721  40.638  16.299  13.848
  493W        W68722   7.992  28.167  13.970
  494W        W68723  29.597  29.082   1.208
  495W        W68724  15.909  33.679   4.382
  496W        W68725  33.050  39.777   3.058
  497W        W68726  26.090  22.416  14.316
  498W        W68727  17.197  20.194   2.242
  499W        W68728   7.828  17.350   1.872
  500W        W68729  14.005  10.518   2.653
  501W        W68730  18.297  23.435  10.695
  502W        W68731   8.873  38.607  10.654
  503W        W68732   3.156  34.265   2.174
  504W        W68733   2.795  31.147   3.265
  505W        W68734  32.455  44.391   4.795
  506W        W68735  20.695   6.643   1.588
  507W        W68736  22.763  14.689   3.697
  508W        W68737   2.205  38.454  10.683
  509W        W68738  19.526   5.897   3.674
  510W        W68739   2.939   5.397   4.858
  511W        W68740  25.574   0.305   4.639
  512W        W68741  21.689  18.331   1.793
  513W        W68742  17.084   0.906   3.320
  514W        W68743  42.790  12.675   0.346
  515W        W68744  20.237   8.814  13.474
  516W        W68745   9.921   9.756   1.883
  517W        W68746   6.351  39.025  11.467
  518W        W68747  12.540   3.694   1.828
  519W        W68748  42.420   5.286   0.867
  520W        W68749  13.195  28.981   0.289
  521W        W68750  30.906   6.289  12.837
  522W        W68751  34.534  26.738  14.749
  523W        W68752  24.572  20.080   4.535
  524W        W68753  42.841  41.577  13.778
  525W        W68754  23.109   5.182  11.931
  526W        W68755  13.552   2.321   0.416
  527W        W68756  11.156  21.567   3.161
  528W        W68757  37.551  28.837  10.748
  529W        W68758  16.553   2.602  12.454
  530W        W68759  17.711  36.153  13.458
  531W        W68760  27.690  25.212  13.390
  532W        W68761   4.405  14.561   4.643
  533W        W68762  38.804  33.355   1.132
  534W        W68763  37.007  21.469   4.574
  535W        W68764  37.993  42.269   4.593
  536W        W68765  10.294  21.467   2.741
  537W        W68766  29.847  27.424  10.540
  538W        W68767  25.506  35.607  12.344
  539W        W68768  20.196   8.412   2.881
  540W        W68769  27.540  37.491   0.921
  541W        W68770  42.129  18.685  10.422
  542W        W68771  32.922  33.546   0.267
  543W        W68772  18.792  21.496  14.744
  544W        W68773  33.395  42.363  14.545
  545W        W68774  15.564  15.832   1.874
  546W        W68775   6.964  40.718   4.131
  547W        W68776  16.973  29.851   2.900
  548W        W68777  43.823  25.212   2.299
  549W        W68778   0.227  14.786  14.083
  550W        W68779  35.444  35.119   0.818
  551W        W68780  37.333  15.855  11.484
  552W        W68781  42.153  14.627   3.944
  553W        W68782   7.673  25.891  13.389
  554W        W68783  27.605  33.262   4.957
  555W        W68784  15.413   7.533   3.248
  556W        W68785   5.555  36.131  12.952
  557W        W68786   0.894   5.409   3.321
  558W        W68787  26.494  15.901  12.020
  559W        W68788  25.052   4.715   2.662
  560W        W68789   5.838  34.147  13.459
  561W        W68790  42.840  42.974   3.654
  562W        W68791  44.438  44.986   3.769
  563W        W68792  21.249   2.398  13.004
  564W        W68793   0.899  21.916  14.502
  565W        W68794   7.864  27.962   0.825
  566W        W68795  37.036  27.502  11.881
  567W        W68796  10.727   3.779  14.641
  568W        W68797  27.571  39.036   4.604
  569W        W68798   1.657   0.716  12.490
  570W        W68799   2.638   4.382  11.176
  571W        W68800   5.570  30.965  12.561
  572W        W68801   5.494  44.200  14.240
  573W        W68802   0.399  12.547  11.408
  574W        W68803  38.868  44.619  14.102
  575W        W68804  13.710  17.337   2.640
  576W        W68805  17.024   9.945   2.628
  577W        W68806   2.244  34.723  10.667
  578W        W68807  32.542  36.372  11.574
  579W        W68808  39.601  24.320   0.961
  580W        W68809  30.536   8.586  10.690
  581W        W68810  24.451  38.839   4.138
  582W        W68811  21.548  24.636   0.369
  583W        W68812   3.254  15.362  10.737
  584W        W68813  43.939  28.523  14.781
  585W        W68814   1.322  36.459  14.993
  586W        W68815  38.443   6.331  10.556
  587W        W68816   4.267  22.137   2.099
  588W        W68817  40.888  32.016  10.116
  589W        W68818  35.505  33.283   2.419
  590W        W68819   7.803   7.654   5.133
  591W        W68820  23.039  42.310   4.622
  592W        W68821   1.374  43.942   2.334
  593W        W68822  43.304   2.363   1.386
  594W        W68823  40.441  16.868   3.814
  595W        W68824  34.476   8.030   4.999
  596W        W68825  43.523   4.734  13.054
  597W        W68826  35.010  37.612  11.923
  598W        W68827  10.059  29.030   4.738
  599W        W68828  11.209  21.216  12.855
  600W        W68829  43.969  33.120  12.691
  601W        W68830   7.205   4.520   2.186
  602W        W68831  12.586  40.843   0.912
  603W        W68832  25.011   4.287  11.027
  604W        W68833  26.026   7.095  11.996
  605W        W68834   0.804  35.243   1.529
  606W        W68835  31.875  13.141   4.553
  607W        W68836  44.959  30.931  11.639
  608W        W68837  27.535  38.592  11.071
  609W        W68838  20.179  10.890   2.587
  610W        W68839  16.320   3.716   4.003
  611W        W68840  21.568  32.517   1.748
  612W        W68841  16.520  18.766  14.746
  613W        W68842  20.042  42.330   2.771
  614W        W68843  20.126  28.696  13.373
  615W        W68844   2.897  31.709  12.857
  616W        W68845  37.906  39.127  11.105
  617W        W68846   6.205  10.873  11.191
  618W        W68847  43.080  42.841   2.672
  619W        W68848  35.147   9.850  14.828
  620W        W68849   9.134  31.435  11.206
  621W        W68850  10.757  21.649   0.276
  622W        W68851   6.134  13.861   3.394
  623W        W68852  31.992  22.240  14.255
  624W        W68853  29.739  29.206  11.584
  625W        W68854  41.538  24.131  14.407
  626W        W68855  20.109  11.211  11.899
  627W        W68856  14.110  11.113   1.006
  628W        W68857  19.737  22.076   1.650
  629W        W68858   8.810  11.372  10.471
  630W        W68859  38.416  18.529   2.795
  631W        W68860  35.150  16.682   9.813
  632W        W68861  41.288  15.132  13.632
  633W        W68862  13.168   3.214   0.559
  634W        W68863  36.599  25.682  11.181
  635W        W68864  26.467  14.035   4.851
  636W        W68865   4.434  39.850   3.927
  637W        W68866  24.117   7.780  14.836
  638W        W68867  33.968  19.257   3.295
  639W        W68868   9.813   9.117   0.849
  640W        W68869  30.640  18.863  13.087
  641W        W68870   3.685  25.226  11.537
  642W        W68871  43.388   9.452  11.834
  643W        W68872  14.117  27.798  10.789
  644W        W68873  33.065  16.080  11.470
  645W        W68874  20.318  22.111  12.277
  646W        W68875  10.392  14.759   2.417
  647W        W68876  22.707  16.099   2.414
  648W        W68877  29.354  18.149  14.261
  649W        W68878  34.161  18.309  10.311
  650W        W68879  44.421  32.633  11.546
  651W        W68880   1.684  35.843  13.331
  652W        W68881   5.515  11.456   1.288
  653W        W68882  36.845  13.533  13.813
  654W        W68883  39.833  25.690  10.762
  655W        W68884   4.873  32.429   2.777
  656W        W68885  39.986  37.504  13.906
  657W        W68886  12.191   5.847   0.237
  658W        W68887  24.237  42.680  12.589
  659W        W68888  36.817  10.759   9.708
  660W        W68889   0.761  32.938  12.163
  661W        W68890   4.338  19.291  11.455
  662W        W68891  11.118  13.878  13.966
  663W        W68892  29.830  12.743   4.226
  664W        W68893  16.033   1.832  12.937
  665W        W68894   7.682  30.445  10.370
  666W        W68895  44.481  23.929  12.298
  667W        W68896  19.090   0.425  11.072
  668W        W68897   7.856   4.310  13.064
  669W        W68898   3.329   8.616   4.649
  670W        W68899  39.555  18.774  13.012
  671W        W68900  31.437  34.130  14.538
  672W        W68901  14.254  22.044   3.176
  673W        W68902  14.346  24.227   2.683
  674W        W68903   8.391  32.386  12.006
  675W        W68904   5.866  21.167   3.348
  676W        W68905   6.567  12.661   1.912
  677W        W68906  35.341  27.546  12.944
  678W        W68907  17.538   0.728  11.628
  679W        W68908   9.977   8.423   1.381
  680W        W68909  30.815  36.627   1.954
  681W        W68910  31.653  17.304   3.153
  682W        W68911   8.275  13.204   1.106
  683W        W68912  33.921  12.780   1.982
  684W        W68913  25.456  29.648   0.984
  685W        W68914  44.705  34.086  14.907
  686W        W68915  44.724  10.048   1.080
  687W        W68916  44.262  18.249  14.695
  688W        W68917  28.159  15.404   4.632
  689W        W68918  10.451  18.320   0.170
  690W        W68919  40.014  20.822  11.616
  691W        W68920  24.109   3.996   1.395
  692W        W68921  30.752  14.618   4.236
  693W        W68922   6.285  34.400  13.462
  694W        W68923  44.350   7.770  14.431
  695W        W68924  21.340   2.924   2.370
  696W        W68925  19.304  13.720  12.055
  697W        W68926   3.687  26.573  11.539
  698W        W68927   4.679  12.032  12.580
  699W        W68928  19.706  40.962  13.778
  700W        W68929  16.238   5.956  11.074
  701W        W68930   5.770  16.108  14.869
  702W        W68931  34.339  22.159   2.385
  703W        W68932  35.175  13.596   0.494
  704W        W68933  38.414  15.744  14.390
  705W        W68934  31.811   3.232  11.914
  706W        W68935  40.933  31.866  11.161
  707W        W68936  27.611  40.953  13.271
  708W        W68937   3.089  41.968  12.105
  709W        W68938  19.768  13.453   5.024
  710W        W68939   5.092  41.272   0.375
  711W        W68940  35.840   8.746  12.915
  712W        W68941   2.846  40.001  11.774
  713W        W68942  25.154   8.169  11.149
  714W        W68943  29.281  26.020  13.065
  715W        W68944  31.201  35.324  13.466
  716W        W68945   9.637  41.023  13.487
  717W        W68946  44.210   8.338  13.917
  718W        W68947  39.417  23.735  13.089
  719W        W68948  20.074  42.545   1.871
  720W        W68949  14.580  20.718  11.975
  721W        W68950  10.394  38.846   4.654
  722W        W68951  19.132  19.574  13.302
  723W        W68952  18.632   9.393  13.058
  724W        W68953  22.567  35.006  13.842
  725W        W68954  40.670  22.872   2.324
  726W        W68955  32.000  31.121  12.442
  727W        W68956   9.112  20.738  12.583
  728W        W68957  31.184  26.224  13.446
  729W        W68958  28.143  30.923  11.558
  730W        W68959   7.366  42.907   4.898
  731W        W68960  17.367  20.496  12.492
  732W        W68961  10.272  29.568   2.792
  733W        W68962  37.624   0.058   2.849
  734W        W68963  44.899   2.143  11.551
  735W        W68964  17.026   2.185  10.806
  736W        W68965   2.552   7.099  13.305
  737W        W68966  13.254  34.989  13.106
  738W        W68967  21.428   7.969  11.038
  739W        W68968  12.659   0.823  14.108
  740W        W68969  34.048  43.367  12.915
  741W        W68970  19.038  20.569   2.254
  742W        W68971   7.693  10.343   2.279
  743W        W68972  34.713  14.967   2.611
  744W        W68973  35.944  44.330  13.608
  745W        W68974   7.110   5.754   2.319
  746W        W68975   0.936  31.846   1.646
  747W        W68976  32.676   0.039   0.368
  748W        W68977  40.781  25.236  12.926
  749W        W68978  38.723  30.136  10.811
  750W        W68979  26.566   3.293  13.507
  751W        W68980  44.515  23.296  11.645
  752W        W68981  24.170   5.376  14.410
  753W        W68982   5.336  36.804  10.114
  754W        W68983   1.289  13.258  13.023
  755W        W68984  44.776  16.149  11.035
  756W        W68985   5.517  40.032  11.176
  757W        W68986  15.530   1.318  10.444
  758W        W68987  14.844  32.074   3.593
  759W        W68988   1.081  17.076  10.663
  760W        W68989  22.086  10.091  14.658
  761W        W68990  22.408  28.140  12.608
  762W        W68991  15.752  34.389  12.986
  763W        W68992  17.473  20.162  11.194
  764W        W68993   4.491  26.694   4.402
  765W        W68994  31.601  36.959   1.822
  766W        W68995  22.243  19.359   3.440
  767W        W68996  22.549  42.857  14.762
  768W        W68997  19.102  26.486   4.797
  769W        W68998  32.641  19.335  14.274
  770W        W68999  37.373  10.304  10.187
  771W        W69000  16.717  24.229   3.218
  772W        W69001  30.357  40.442  11.206
  773W        W69002  31.453  16.040  11.631
  774W        W69003  25.990  11.375   0.550
  775W        W69004  43.093  20.753   0.406
  776W        W69005  29.532  35.107  11.551
  777W        W69006  26.162   1.386   3.952
  778W        W69007  38.416   0.448   3.292
  779W        W69008  21.157  40.333   2.556
  780W        W69009  27.273  19.059   2.774
  781W        W69010  14.866  29.652   0.419
  782W        W69011  36.195  12.552  14.441
  783W        W69012  32.611   3.803  12.469
  784W        W69013  36.604  34.936   3.858
  785W        W69014   1.754  20.926  12.928
  786W        W69015  18.582  23.552  11.562
  787W        W69016  21.445   0.785   2.316
  788W        W69017  42.273  33.988   2.647
  789W        W69018   4.195  30.177   3.377
  790W        W69019  28.859  29.499  11.593
  791W        W69020   4.738  15.366   4.641
  792W        W69021  13.676  42.869  13.207
  793W        W69022  21.660  20.688   0.968
  794W        W69023  18.011  28.562  13.953
  795W        W69024   9.579  15.270   4.231
  796W        W69025  38.426  11.192   2.681
  797W        W69026  30.668   0.038   4.641
  798W        W69027  21.955  38.330  11.652
  799W        W69028   0.046  19.239  11.637
  800W        W69029  13.597  30.378  13.535
  801W        W69030  14.334   2.211   3.164
  802W        W69031  19.790  18.587  10.556
  803W        W69032  42.019  33.695   4.218
  804W        W69033  26.169  28.990   2.338
  805W        W69034  19.336  36.312   2.538
  806W        W69035  26.356   5.237  10.814
  807W        W69036  10.600  18.519  14.510
  808W        W69037  25.118  10.272  12.427
  809W        W69038  14.064  16.214   4.196
  810W        W69039  24.694  44.266   4.804
  811W        W69040   3.281   2.067   2.868
  812W        W69041  33.697   3.928  14.342
  813W        W69042  39.369  31.818   4.492
  814W        W69043  17.321  41.913  13.473
  815W        W69044  15.552   2.506  12.359
  816W        W69045   0.865  12.597  14.814
  817W        W69046  32.873   4.895  12.115
  818W        W69047  38.596  33.476  10.717
  819W        W69048  35.128  32.553   0.793
  820W        W69049  23.935  17.699  11.212
  821W        W69050   2.775  37.337  10.715
  822W        W69051  20.063   1.801  11.169
  823W        W69052  18.673  17.135   3.596
  824W        W69053  29.508  32.044   3.721
  825W        W69054   7.300  25.076   0.283
  826W        W69055  20.184   5.419  12.585
  827W        W69056  33.478   1.985  13.577
  828W        W69057  27.368  44.483  13.391
  829W        W69058   2.897   3.198   9.990
  830W        W69059  30.138  20.714  10.770
  831W        W69060  22.106  28.476  11.727
  832W        W69061   7.565  34.288   2.852
  833W        W69062   8.703  37.102   4.594
  834W        W69063  21.936  21.645  10.826
  835W        W69064   0.247   6.469   0.789
  836W        W69065   0.847  21.496  10.701
  837W        W69066  18.308  33.663   3.695
  838W        W69067  25.192  22.256   1.482
  839W        W69068  20.521   1.305  14.997
  840W        W69069  26.052  41.911  12.487
  841W        W69070   7.535   3.565   3.123
  842W        W69071   9.297  23.506  11.358
  843W        W69072  31.208  44.988   4.129
  844W        W69073  37.932  26.401   5.089
  845W        W69074  40.825  16.774   2.677
  846W        W69075   8.986   4.603  12.180
  847W        W69076  16.062   6.320   3.699
  848W        W69077   0.482  13.686  11.909
  849W        W69078  41.707  12.292   3.438
  850W        W69079  30.363  33.970   4.312
  851W        W69080  35.944  26.183  12.317
  852W        W69081  26.870  12.333  11.487
  853W        W69082   2.160   6.452  14.403
  854W        W69083  39.930  30.294   0.298
  855W        W69084  11.859  14.357   3.276
  856W        W69085  44.871  15.704   4.194
  857W        W69086  13.738   1.530  12.687
  858W        W69087  22.203  18.584  13.812
  859W        W69088  18.886  21.901   4.708
  860W        W69089  42.790  32.066   2.786
  861W        W69090  21.627  20.771  12.496
  862W        W69091  39.415  16.317   0.890
  863W        W69092  29.706   4.934  12.076
  864W        W69093  36.597  24.741   0.840
  865W        W69094   2.246  30.993   4.826
  866W        W69095  17.204   0.812  11.225
  867W        W69096   8.241  34.023  11.197
  868W        W69097  12.745  29.435   3.637
  869W        W69098  20.496  32.356  14.850
  870W        W69099  28.189  43.492   1.273
  871W        W69100  35.351  37.768   2.922
  872W        W69101  25.730  34.122  11.554
  873W        W69102   4.810  32.490  14.274
  874W        W69103  35.045  32.177  11.590
  875W        W69104  21.883   1.909  11.548
  876W        W69105   9.754   5.794   2.178
  877W        W69106  31.212  27.494   2.692
  878W        W69107  41.832  35.612   4.980
  879W        W69108  23.894  28.439   3.427
  880W        W69109  34.846  11.822   3.203
  881W        W69110  36.859  29.522  12.900
  882W        W69111  36.796  37.866   2.749
  883W        W69112  15.533  19.054   5.015
  884W        W69113  36.589  43.272  14.476
  885W        W69114  17.567  14.786  11.618
  886W        W69115  15.785  33.644   5.411
  887W        W69116  29.058  41.710   3.333
  888W        W69117  26.721  22.614  12.784
  889W        W69118   2.778   6.145   1.217
  890W        W69119  25.427  29.075  10.612
  891W        W69120  39.758  16.758  14.725
  892W        W69121  29.466  21.563   3.381
  893W        W69122  33.337   3.303   1.824
  894W        W69123  17.145   6.884  11.587
  895W        W69124  41.371  35.390   4.836
  896W        W69125  24.935  29.462  11.865
  897W        W69126  23.669  20.234  14.847
  898W        W69127  18.214   1.913   1.876
  899W        W69128  36.606  25.974   4.201
  900W        W69129  23.666  25.422  10.411
  901W        W69130  28.870  39.802   2.254
  902W        W69131  22.211   2.833  13.616
  903W        W69132  38.846  38.022   2.754
  904W        W69133   9.722  30.710  13.836
  905W        W69134   6.804  31.491   1.364
  906W        W69135  26.566  38.365   1.462
  907W        W69136  24.853  29.586   3.723
  908W        W69137  20.130  26.962  11.642
  909W        W69138   6.917  13.046   2.108
  910W        W69139  30.136  18.590   4.246
  911W        W69140  37.919   8.820   1.801
  912W        W69141  17.832  26.575   4.122
  913W        W69142  16.516  24.061  13.398
  914W        W69143   3.402   1.310   4.422
  915W        W69144  29.975   5.893   3.650
  916W        W69145  32.040  11.683  12.003
  917W        W69146  27.432  42.768  12.943
  918W        W69147  13.311  23.053   4.211
  919W        W69148   4.624  27.157  14.372
  920W        W69149  42.443  43.100   1.916
  921W        W69150   6.062  13.727  11.946
  922W        W69151  35.297  34.454  11.563
  923W        W69152  42.277   5.008   1.416
  924W        W69153   8.134  35.900  13.454
  925W        W69154  31.127  26.701  14.329
  926W        W69155  22.138  28.666   0.505
  927W        W69156  44.643  44.912  13.189
  928W        W69157   0.188  25.555  12.990
  929W        W69158  22.670   0.289   0.555
  930W        W69159   5.431  27.527   0.959
  931W        W69160  24.625  23.564  10.982
  932W        W69161  27.973  14.533  11.077
  933W        W69162  25.611  12.227   3.160
  934W        W69163  25.171  40.266  13.586
  935W        W69164  21.098  13.455  14.750
  936W        W69165  16.620  36.419  13.386
  937W        W69166  25.648   7.916   3.540
  938W        W69167  21.894  43.274  11.140
  939W        W69168  19.318  41.480   3.839
  940W        W69169   6.316  14.645  10.900
  941W        W69170  39.469   6.101  14.103
  942W        W69171  43.386  20.086  14.426
  943W        W69172  12.368  44.518  11.018
  944W        W69173  27.216  11.462   2.310
  945W        W69174   9.669  39.484  12.060
  946W        W69175  13.114  29.629   3.922
  947W        W69176   7.741  19.356   2.796
  948W        W69177  38.518   4.362   2.819
  949W        W69178  14.071  39.828  14.571
  950W        W69179  21.030  12.824   1.911
  951W        W69180  14.484  28.207   4.064
  952W        W69181   6.439   9.634   1.485
  953W        W69182   0.928  10.214   1.305
  954W        W69183   2.151  18.285  11.605
  955W        W69184  21.536  35.335   3.646
  956W        W69185  30.505  13.500   3.736
  957W        W69186   0.213  18.402   3.515
  958W        W69187   2.402   7.618  11.597
  959W        W69188  24.645  25.474   0.415
  960W        W69189   0.974  31.994  10.697
  961W        W69190   5.699  21.848  14.987
  962W        W69191  33.142  28.907   2.333
  963W        W69192   2.332  42.461   0.753
  964W        W69193   3.408  17.332   0.434
  965W        W69194  38.151  37.552   1.319
  966W        W69195  30.839  40.777   2.817
  967W        W69196  44.677  35.355  13.082
  968W        W69197   2.945  14.097   0.401
  969W        W69198  17.953  36.024   9.529
  970W        W69199   4.191  30.988   0.820
  971W        W69200  21.021  39.631  14.741
  972W        W69201  29.963  18.178  12.952
  973W        W69202  11.631  10.342  13.070
  974W        W69203   9.403  44.431  14.973
  975W        W69204  15.529  40.977   2.289
  976W        W69205  43.272   8.621   2.416
  977W        W69206  18.229  25.463   3.459
  978W        W69207   6.814  38.777   0.957
  979W        W69208  16.793  34.547   2.771
  980W        W69209   4.482  28.968   4.673
  981W        W69210  26.160  12.104  12.491
  982W        W69211  19.600  15.190   3.242
  983W        W69212  25.969   8.678   0.496
  984W        W69213   7.106  17.640  13.442
  985W        W69214   9.601  42.545  11.639
  986W        W69215  25.065  17.622   0.766
  987W        W69216  39.392   4.007   2.287
  988W        W69217  31.662  21.681  14.933
  989W        W69218  39.044   3.982  12.132
  990W        W69219   2.961  37.099   2.842
  991W        W69220  39.301  42.545   0.279
  992W        W69221  40.793  44.436   2.255
  993W        W69222  18.463  12.096  10.678
  994W        W69223   3.522   8.906  12.490
  995W        W69224  29.004  26.881  13.539
  996W        W69225  31.967  11.951  13.953
  997W        W69226   2.638  37.630  10.266
  998W        W69227  15.094  28.245   0.251
  999W        W69228   5.442   7.438   4.049
 1000W        W69229  16.152  10.771   1.427
 1001W        W69230  40.285   3.795   3.333
 1002W        W69231  26.398  23.969  13.510
 1003W        W69232   4.198  10.368   4.683
 1004W        W69233   8.727  40.694  10.673
 1005W        W69234  40.565  10.670  14.381
 1006W        W69235  34.404  33.583   4.561
 1007W        W69236   5.893  12.294   0.851
 1008W        W69237  17.019  20.030   3.285
 1009W        W69238  29.216  36.770   1.291
 1010W        W69239  44.518  24.202   0.487
 1011W        W69240  13.845  37.956  11.061
 1012W        W69241   2.876   9.995  13.067
 1013W        W69242  12.832  43.580  14.866
 1014W        W69243  23.601  30.606   4.346
 1015W        W69244  17.087   1.780   4.683
 1016W        W69245  35.090  15.858  11.596
 1017W        W69246  39.508  18.055  12.302
 1018W        W69247  38.935   0.533   2.739
 1019W        W69248  44.577   5.259  13.448
 1020W        W69249  24.309   2.415   1.302
 1021W        W69250  29.644  11.047  11.042
 1022W        W69251  15.956  44.397   0.499
 1023W        W69252  26.181   7.833  11.703
 1024W        W69253   7.863  35.534  14.446
 1025W        W69254  28.709   9.136  12.623
 1026W        W69255  24.680  38.949   3.689
 1027W        W69256  34.619   4.832   4.618
 1028W        W69257   9.771  21.785   0.773
 1029W        W69258  27.874  44.362   3.718
 1030W        W69259  22.531  20.537  11.205
 1031W        W69260   1.288  26.213  10.600
 1032W        W69261  15.664   5.369   1.724
 1033W        W69262  17.130   5.876  10.054
 1034W        W69263  17.457  42.352   4.137
 1035W        W69264  20.139   5.716  10.758
 1036W        W69265  20.730  35.578  13.142
 1037W        W69266  11.220  21.764  12.014
 1038W        W69267  41.418  21.275  13.292
 1039W        W69268  42.899  32.964  12.135
 1040W        W69269  38.244  33.822  13.481
 1041W        W69270   9.215  22.464  10.831
 1042W        W69271   4.274  20.046  13.552
 1043W        W69272  44.835   4.202   3.837
 1044W        W69273  14.612  40.745  12.429
 1045W        W69274  44.060  25.733   1.456
 1046W        W69275   5.646  44.934   3.857
 1047W        W69276  26.400  23.179  13.973
 1048W        W69277   9.330   1.462  12.580
 1049W        W69278  21.972  31.538  14.855
 1050W        W69279  36.112  16.739   1.031
 1051W        W69280   3.301   9.414  11.189
 1052W        W69281  14.766  10.082   3.904
 1053W        W69282  26.454  10.146  11.994
 1054W        W69283  34.092  12.256  14.821
 1055W        W69284  29.336  44.521   3.389
 1056W        W69285  32.480  24.629  12.462
 1057W        W69286  14.544  30.942  12.531
 1058W        W69287  12.650  16.551  12.661
 1059W        W69288   2.988  31.215   0.325
 1060W        W69289  34.859  30.300   0.724
 1061W        W69290  28.093  43.260  11.548
 1062W        W69291   3.359  40.256  14.255
 1063W        W69292  36.261  35.940   3.270
 1064W        W69293   1.297  16.741  13.054
 1065W        W69294   5.459   7.853   2.228
 1066W        W69295  35.027  29.862   3.090
 1067W        W69296   1.806   6.178  11.500
 1068W        W69297   5.355   5.802  14.892
 1069W        W69298   7.468  39.582  11.752
 1070W        W69299  26.061  27.372  13.423
 1071W        W69300   0.502  19.099   2.701
 1072W        W69301  32.646  11.873   2.852
 1073W        W69302  30.782  17.570   2.701
 1074W        W69303  35.557  44.261   4.617
 1075W        W69304  17.715  36.952   0.935
 1076W        W69305   3.566  38.371   1.301
 1077W        W69306   2.819  25.194   2.243
 1078W        W69307  15.042  29.188  12.427
 1079W        W69308  43.918   2.532  11.152
 1080W        W69309  28.061  40.131   1.887
 1081W        W69310  24.958  26.285  14.322
 1082W        W69311  44.816  34.285  10.629
 1083W        W69312  25.203   1.796  11.448
 1084W        W69313  17.238  39.500   1.194
 1085W        W69314  33.375   1.396   5.188
 1086W        W69315   3.948  13.848  14.772
 1087W        W69316  30.530  34.745   1.785
 1088W        W69317  15.010  14.610  12.318
 1089W        W69318   6.760  10.328  14.950
 1090W        W69319   9.273  30.883  14.041
 1091W        W69320  44.669   4.900   1.432
 1092W        W69321  36.984  15.112  13.100
 1093W        W69322  37.942  30.475   3.649
 1094W        W69323  13.575  16.352   4.218
 1095W        W69324   5.382  20.664  12.826
 1096W        W69325   6.366  31.742   3.624
 1097W        W69326   4.727  28.609   3.119
 1098W        W69327  10.330  29.171   0.785
 1099W        W69328  13.406  26.088  10.515
 1100W        W69329  34.948  28.422  12.998
 1101W        W69330  14.670   7.443   2.676
 1102W        W69331  42.842  31.537   3.427
 1103W        W69332  37.683  19.440  11.267
 1104W        W69333  32.169  43.329  13.653
 1105W        W69334   1.338  33.329  13.748
 1106W        W69335   2.731  20.798  14.065
 1107W        W69336  40.004  26.629   1.824
 1108W        W69337  42.014  44.206  14.283
 1109W        W69338  31.488   2.604  11.159
 1110W        W69339  27.123  35.096  13.004
 1111W        W69340  12.907   4.185  10.722
 1112W        W69341  20.780  36.084  13.063
 1113W        W69342  36.822  10.913   4.541
 1114W        W69343  19.015  38.880  10.637
 1115W        W69344  37.454  32.011  12.616
 1116W        W69345  15.609  11.235  13.034
 1117W        W69346  29.512  39.396   0.653
 1118W        W69347  21.507  44.364  13.573
 1119W        W69348  11.265  29.520   4.536
 1120W        W69349  15.390  23.260   1.686
 1121W        W69350  25.092  43.053   3.701
 1122W        W69351  36.012  28.872  11.146
 1123W        W69352  30.829  25.658  11.537
 1124W        W69353  32.708  10.747   2.846
 1125W        W69354  36.515  23.111  14.336
 1126W        W69355  11.676  32.591   1.360
 1127W        W69356  14.583  13.328  13.437
 1128W        W69357  21.056   3.165   0.710
 1129W        W69358  38.427  33.943  10.586
 1130W        W69359   3.184  14.816  14.350
 1131W        W69360  29.837  32.559   3.662
 1132W        W69361  18.329  36.541  10.619
 1133W        W69362  24.263  28.682   3.747
 1134W        W69363   7.165   8.690   4.709
 1135W        W69364   1.984  24.998   2.717
 1136W        W69365  31.973  43.146   3.341
 1137W        W69366  31.967  11.797   0.669
 1138W        W69367  23.980  34.375   4.156
 1139W        W69368  13.772  11.043   4.471
 1140W        W69369  41.090  37.825   3.755
 1141W        W69370  37.529  23.745  11.049
 1142W        W69371  43.584   4.413  13.444
 1143W        W69372   3.974   9.650  12.043
 1144W        W69373  25.341   7.845  12.411
 1145W        W69374  25.650  41.923  12.849
 1146W        W69375   2.645   1.389  13.925
 1147W        W69376  19.027  35.345  11.569
 1148W        W69377  26.963  34.516   0.812
 1149W        W69378   7.927   7.494  14.499
 1150W        W69379  29.624  27.362  12.879
 1151W        W69380   0.897  44.123   2.275
 1152W        W69381  19.802  34.045  11.414
 1153W        W69382  40.173   3.024   4.681
 1154W        W69383  23.758  28.075   1.130
 1155W        W69384  23.597  12.636  11.643
 1156W        W69385  10.827  44.346   1.796
 1157W        W69386  26.646  22.678   0.519
 1158W        W69387  18.231   8.441  12.382
 1159W        W69388  39.502  10.399  11.833
 1160W        W69389  11.110   8.548   2.832
 1161W        W69390  33.938   8.736   2.271
 1162W        W69391  24.204  31.615   2.299
 1163W        W69392  11.604  30.458   1.354
 1164W        W69393  30.885  26.536  12.370
 1165W        W69394  42.471   9.728   0.004
 1166W        W69395   1.514  38.448   1.733
 1167W        W69396   0.422   6.658  12.521
 1168W        W69397  29.886  21.167   3.387
 1169W        W69398  41.109  13.834  14.942
 1170W        W69399  41.916  42.307  10.769
 1171W        W69400   4.957  38.939  10.631
 1172W        W69401  43.810  16.260  11.122
 1173W        W69402  22.478  26.547  10.624
 1174W        W69403  12.806  32.682   0.688
 1175W        W69404   5.708  17.650   4.965
 1176W        W69405  10.336  44.238   4.094
 1177W        W69406   0.424   5.055  10.671
 1178W        W69407   6.253  17.095  14.716
 1179W        W69408  33.202  38.820   3.329
 1180W        W69409  28.164  17.584  11.613
 1181W        W69410  14.802  42.533   5.013
 1182W        W69411  10.819  35.005  11.941
 1183W        W69412  29.493   3.387  13.071
 1184W        W69413  22.093   9.801  10.454
 1185W        W69414  44.889  11.036  11.044
 1186W        W69415  29.105   9.400   0.705
 1187W        W69416  39.262  27.038  10.741
 1188W        W69417   4.139  15.255   2.856
 1189W        W69418   1.542  43.375   3.432
 1190W        W69419  23.631  27.324   0.231
 1191W        W69420  38.016  15.377   3.479
 1192W        W69421  37.770   7.328   0.908
 1193W        W69422  15.601   5.836  12.804
 1194W        W69423  26.606  15.520  10.767
 1195W        W69424  39.556  30.913  11.544
 1196W        W69425  27.433  39.937   4.471
 1197W        W69426  14.625  23.693  12.529
 1198W        W69427   8.507  28.666  13.423
 1199W        W69428  43.366  19.845  13.649
 1200W        W69429  29.582   1.347   4.171
 1201W        W69430  22.963  28.166  11.450
 1202W        W69431  13.859  35.157   3.436
 1203W        W69432  15.877  36.533  13.999
 1204W        W69433  12.887  12.187   1.426
 1205W        W69434  34.867  17.709   1.793
 1206W        W69435  33.390   7.207   3.045
 1207W        W69436   7.430  14.676   1.393
 1208W        W69437  15.549  23.778   1.215
 1209W        W69438   8.098  23.589  12.435
 1210W        W69439  43.852  24.980   2.761
 1211W        W69440  28.871   5.924   4.555
 1212W        W69441  12.056  11.756   1.231
 1213W        W69442  21.470  15.385   4.261
 1214W        W69443  32.069  43.278  11.986
 1215W        W69444   7.196   2.524   0.090
 1216W        W69445  27.652   2.237   2.781
 1217W        W69446  25.173  41.907  13.734
 1218W        W69447  13.265  34.270  11.494
 1219W        W69448  36.795  16.127   4.383
 1220W        W69449  13.680  35.601   4.066
 1221W        W69450  28.546  19.828  14.383
 1222W        W69451  18.410  20.115   3.291
 1223W        W69452  24.625  25.480  14.833
 1224W        W69453  43.923  35.826   0.424
 1225W        W69454  27.658   9.288   2.338
 1226W        W69455  17.902  30.666   3.691
 1227W        W69456  14.180   6.414  12.465
 1228W        W69457  23.557  15.650   2.146
 1229W        W69458   6.431  31.617   4.536
 1230W        W69459  25.420  12.248  11.761
 1231W        W69460  17.307  40.828   3.059
 1232W        W69461  15.098  36.500   1.234
 1233W        W69462   8.564  36.016   4.779
 1234W        W69463  42.907   1.762  11.610
 1235W        W69464  41.618  11.259   2.091
 1236W        W69465   6.957  33.046  13.049
 1237W        W69466  20.965  43.828   4.581
 1238W        W69467   9.677   7.261   2.443
 1239W        W69468  35.019  36.372   0.816
 1240W        W69469  39.614   2.033  13.432
 1241W        W69470  22.810  15.867  14.852
 1242W        W69471  21.559   4.407   1.654
 1243W        W69472   7.886  14.290   0.663
 1244W        W69473  14.799   0.369   1.376
 1245W        W69474  33.584  41.014  14.677
 1246W        W69475   8.813  15.796   2.245
 1247W        W69476  12.869  14.880  13.280
 1248W        W69477  38.053  44.682  13.808
 1249W        W69478   0.256  29.226   3.623
 1250W        W69479  14.145  22.779   1.837
 1251W        W69480  39.357   1.793   4.351
 1252W        W69481  17.161  37.593   0.689
 1253W        W69482  16.124  23.427  11.037
 1254W        W69483   0.364  28.601  11.417
 1255W        W69484   7.752   2.172   0.482
 1256W        W69485  26.941  26.160   3.066
 1257W        W69486  18.672  25.253   3.250
 1258W        W69487  37.329  24.129  14.735
 1259W        W69488  17.196  30.129  11.498
 1260W        W69489  18.625   9.895   3.941
 1261W        W69490  40.975  26.258  13.520
 1262W        W69491  38.009  35.958   5.268
 1263W        W69492  34.819  13.095  11.517
 1264W        W69493   2.114  11.398   4.469
 1265W        W69494  31.313  32.628   2.303
 1266W        W69495   2.368  11.866  12.932
 1267W        W69496  20.761  29.962  12.668
 1268W        W69497   9.610  27.748   2.259
 1269W        W69498   1.776  15.820   1.828
 1270W        W69499  39.492   4.438   3.294
 1271W        W69500  13.682  43.606  13.988
 1272W        W69501  26.899  23.069  13.897
 1273W        W69502  33.537   5.161   3.659
 1274W        W69503   2.428  30.561   4.235
 1275W        W69504   6.399   3.190   3.137
 1276W        W69505  15.558  41.375  13.303
 1277W        W69506   1.246  35.646   3.603
 1278W        W69507  31.626  24.219  12.365
 1279W        W69508  35.480  25.091   1.412
 1280W        W69509   0.687  21.215  10.214
 1281W        W69510   7.718  37.329   2.752
 1282W        W69511  38.858   1.451   3.098
 1283W        W69512  26.767  34.350   0.364
 1284W        W69513   7.817   1.540  13.390
 1285W        W69514   6.914   4.532  13.931
 1286W        W69515   7.086  38.894   4.379
 1287W        W69516   1.064   3.255  14.697
 1288W        W69517  42.194  31.639  11.137
 1289W        W69518  19.962  41.789   2.753
 1290W        W69519  33.891  17.153   3.187
 1291W        W69520  26.708  29.672   1.824
 1292W        W69521  20.895  33.681   0.269
 1293W        W69522  25.245  41.412  12.595
 1294W        W69523   5.787  26.401   1.892
 1295W        W69524  29.621  14.554  11.587
 1296W        W69525  25.536  10.223   5.328
 1297W        W69526  13.205   4.383   1.786
 1298W        W69527  40.781  36.104   3.802
 1299W        W69528  43.546  30.364   2.202
 1300W        W69529   8.741  44.907  13.932
 1301W        W69530  20.671  20.978  10.722
 1302W        W69531  29.592  29.133  10.353
 1303W        W69532  13.061   0.958   4.702
 1304W        W69533  11.360   4.402   4.915
 1305W        W69534  35.993  15.875  11.541
 1306W        W69535  16.402   1.780   3.865
 1307W        W69536  40.352  25.913  10.843
 1308W        W69537  22.643  44.890  14.364
 1309W        W69538  44.433   6.237  14.332
 1310W        W69539  25.503  35.884  13.086
 1311W        W69540  30.017  31.449   1.892
 1312W        W69541  30.765  33.304   0.969
 1313W        W69542  32.983  25.748   0.224
 1314W        W69543  19.929  40.853   4.042
 1315W        W69544  13.117  31.947   2.275
 1316W        W69545  21.812  44.440   3.703
 1317W        W69546  37.579  10.639   3.929
 1318W        W69547  25.231  35.037   2.407
 1319W        W69548  26.562  40.369  11.891
 1320W        W69549  22.776  25.101  12.768
 1321W        W69550  29.984  32.259  10.939
 1322W        W69551  11.136  42.530  10.801
 1323W        W69552   3.524   7.683  13.028
 1324W        W69553  17.589  18.642  11.484
 1325W        W69554  33.416  18.348   2.335
 1326W        W69555  38.771  22.220  13.443
 1327W        W69556  26.029  39.469   1.345
 1328W        W69557  32.040   8.664  11.798
 1329W        W69558  24.169   5.590  13.484
 1330W        W69559  13.181  18.852  14.253
 1331W        W69560  37.652   6.759  14.415
 1332W        W69561  13.146  38.527  14.939
 1333W        W69562  28.407  13.592  11.073
 1334W        W69563  26.115  27.109  10.627
 1335W        W69564  27.857  25.685  13.518
 1336W        W69565  10.789   8.591   2.436
 1337W        W69566  16.142  14.782   3.352
 1338W        W69567  42.254   8.714   3.717
 1339W        W69568   9.793   4.369   2.030
 1340W        W69569  15.074  36.031  13.936
 1341W        W69570  15.314  12.829  13.362
 1342W        W69571  27.166  16.257  14.261
 1343W        W69572   1.726  25.384   4.267
 1344W        W69573  36.415  11.561   0.491
 1345W        W69574  41.063   1.417   0.803
 1346W        W69575  22.836   0.037   1.695
 1347W        W69576  12.201  26.422   3.278
 1348W        W69577  21.594  15.685  10.765
 1349W        W69578   9.777   1.673   1.282
 1350W        W69579  35.212  14.892   1.777
 1351W        W69580  42.933  35.672   4.619
 1352W        W69581   7.264   3.555  10.276
 1353W        W69582  23.175  30.023   0.295
 1354W        W69583  37.004  19.113  10.826
 1355W        W69584  36.585   0.688   1.792
 1356W        W69585  39.403  39.861   3.572
 1357W        W69586  29.446  37.388   1.639
 1358W        W69587  28.048  10.578   3.731
 1359W        W69588   5.422  15.846   3.637
 1360W        W69589   4.799  37.665   2.230
 1361W        W69590  42.999  21.237  14.893
 1362W        W69591  40.407  25.252  13.918
 1363W        W69592   6.788  22.702   4.869
 1364W        W69593  11.933  23.869  11.098
 1365W        W69594   7.290  11.902   1.693
 1366W        W69595   5.743  29.726   2.735
 1367W        W69596  42.558  21.683   2.588
 1368W        W69597   9.293  23.597  13.372
 1369W        W69598  11.652   8.691  10.238
 1370W        W69599   6.847   9.222  13.067
 1371W        W69600  42.313  10.942   4.249
 1372W        W69601  39.425  20.124   4.065
 1373W        W69602  11.250  44.471   1.010
 1374W        W69603   8.860  24.589   2.149
 1375W        W69604   3.774  39.930  14.360
 1376W        W69605   2.181  25.326   4.530
 1377W        W69606   0.823   0.794  12.395
 1378W        W69607  44.770  41.427   0.703
 1379W        W69608  28.537  38.364   2.788
 1380W        W69609  28.952  29.621  12.090
 1381W        W69610  24.807   7.235   0.402
 1382W        W69611  41.210  22.046   4.209
 1383W        W69612  23.406  13.943   3.800
 1384W        W69613  41.583  19.983   2.792
 1385W        W69614  30.639  31.291  14.420
 1386W        W69615  21.193  24.165   2.246
 1387W        W69616  42.553  37.398  13.390
 1388W        W69617   2.744  22.486   2.366
 1389W        W69618  32.658  14.668  12.479
 1390W        W69619  16.336  38.396  14.049
 1391W        W69620  25.080  22.008   3.182
 1392W        W69621  12.715  38.488   4.929
 1393W        W69622  22.474  27.472   2.684
 1394W        W69623  10.882  40.392  14.262
 1395W        W69624  42.554  44.046  12.548
 1396W        W69625  15.494  37.032  12.869
 1397W        W69626  27.588  27.158  14.875
 1398W        W69627  24.889  36.745  13.044
 1399W        W69628  19.728  32.930  11.397
 1400W        W69629  19.599  24.625   4.717
 1401W        W69630   6.728  37.416   0.693
 1402W        W69631   0.473  42.413   1.802
 1403W        W69632  43.283   2.442  14.116
 1404W        W69633  28.399   8.294  13.857
 1405W        W69634  18.357  39.238  13.393
 1406W        W69635  25.189  31.411  14.015
 1407W        W69636  39.505  30.643  11.984
 1408W        W69637  44.372   2.817  13.499
 1409W        W69638  21.293  31.132   4.404
 1410W        W69639  26.681  25.567  13.089
 1411W        W69640  43.137  33.274  11.789
 1412W        W69641   7.724  44.238   4.654
 1413W        W69642  20.039  14.409   2.163
 1414W        W69643  20.164  29.893   2.864
 1415W        W69644  35.953  35.762  12.523
 1416W        W69645   3.087  21.225  13.977
 1417W        W69646  31.083  37.590   1.338
 1418W        W69647  36.881  14.204  11.370
 1419W        W69648   9.943   4.195  13.516
 1420W        W69649  18.350  23.562   0.605
 1421W        W69650  22.711   6.328  12.426
 1422W        W69651   8.679  33.536  12.179
 1423W        W69652  22.384  20.605   2.365
 1424W        W69653  42.522  34.629  14.072
 1425W        W69654  13.823  18.548  10.418
 1426W        W69655  33.954  39.812  14.045
 1427W        W69656  10.373  17.127   2.646
 1428W        W69657  34.237  41.690   4.507
 1429W        W69658  19.914  34.081  11.897
 1430W        W69659   0.797  13.364   2.273
 1431W        W69660  30.086  18.015   3.820
 1432W        W69661  20.241  21.974   4.635
 1433W        W69662  41.170  37.341   1.458
 1434W        W69663  11.307  44.521  12.356
 1435W        W69664  35.572   5.396  10.886
 1436W        W69665   4.426  17.878  11.530
 1437W        W69666  18.371  27.070  11.636
 1438W        W69667  13.340  14.577   0.533
 1439W        W69668  26.696  36.671   2.843
 1440W        W69669   1.735  27.835  12.478
 1441W        W69670   1.962  19.590  10.304
 1442W        W69671  30.798   6.237  13.716
 1443W        W69672  30.139  15.264  13.028
 1444W        W69673  42.488  31.557  10.712
 1445W        W69674  32.585  23.536  11.680
 1446W        W69675  30.200  33.496   4.446
 1447W        W69676  10.427  44.233   0.804
 1448W        W69677  14.181  37.510  14.379
 1449W        W69678   8.840  43.712   5.046
 1450W        W69679   4.001  11.702   0.677
 1451W        W69680  16.591   2.715  11.571
 1452W        W69681  40.997   1.513   1.348
 1453W        W69682  22.269  10.151   3.432
 1454W        W69683  19.195   6.295   3.795
 1455W        W69684   9.927   3.405  13.241
 1456W        W69685  43.988   3.500  14.928
 1457W        W69686  22.799  20.801  14.918
 1458W        W69687   3.625  39.048  11.091
 1459W        W69688  32.786   7.719   2.836
 1460W        W69689  36.450  14.832   0.470
 1461W        W69690  16.113  12.848  12.932
 1462W        W69691  34.896  42.269  11.200
 1463W        W69692  18.761   5.358   2.463
 1464W        W69693  19.557   7.006  13.503
 1465W        W69694  44.580  31.412   0.867
 1466W        W69695  31.436  20.282  11.974
 1467W        W69696   0.333  19.556   1.848
 1468W        W69697   0.018  37.336  13.931
 1469W        W69698  22.539  17.346   4.829
 1470W        W69699   7.400  44.450   9.973
 1471W        W69700  10.661  39.398   0.066
 1472W        W69701  31.008  33.550   1.387
 1473W        W69702  36.555   4.798   3.702
 1474W        W69703  35.942  19.514   2.502
 1475W        W69704   0.919  14.318  13.816
 1476W        W69705  33.301   9.744  13.014
 1477W        W69706  27.091  23.575  13.896
 1478W        W69707  34.418   9.130  10.711
 1479W        W69708  30.205   5.683  12.355
 1480W        W69709  28.952   9.479  12.935
 1481W        W69710   0.234   1.770   3.247
 1482W        W69711  28.039   5.309  10.943
 1483W        W69712   8.164  21.961   2.108
 1484W        W69713  13.286  43.410   1.252
 1485W        W69714  12.119   2.099  12.379
 1486W        W69715  25.053  41.270  11.061
 1487W        W69716  31.155  40.447   3.799
 1488W        W69717  30.631   7.808   2.304
 1489W        W69718   2.490  23.251  12.135
 1490W        W69719  18.656   7.667   3.332
 1491W        W69720  40.554  21.168  12.202
 1492W        W69721  27.673  22.063   0.358
 1493W        W69722   7.538  24.810  11.579
 1494W        W69723  13.851   1.922   0.993
 1495W        W69724  29.042  27.625   2.622
 1496W        W69725  21.665  25.907  14.404
 1497W        W69726  34.966  42.464   4.604
 1498W        W69727   8.950  33.578   0.670
 1499W        W69728  36.034  36.942   2.788
 1500W        W69729   8.504   0.552   3.023
 1501W        W69730  43.328  19.608   4.086
 1502W        W69731   6.477  19.489   1.131
 1503W        W69732   1.976  21.122  14.803
 1504W        W69733  38.126   8.289  12.823
 1505W        W69734  10.151   9.319   1.179
 1506W        W69735  14.941   4.443   0.402
 1507W        W69736  13.770  39.458   3.396
 1508W        W69737  32.071  32.749  10.243
 1509W        W69738  23.534  24.526   1.933
 1510W        W69739  10.924  38.910   4.635
 1511W        W69740  18.740  37.392   0.094
 1512W        W69741   0.050  16.322  12.038
 1513W        W69742  23.490  32.953   2.762
 1514W        W69743  25.227   9.061  10.804
 1515W        W69744  14.185  24.700  13.486
 1516W        W69745  20.483   3.796   2.725
 1517W        W69746   0.447  16.685  11.996
 1518W        W69747   3.041  34.471  14.288
 1519W        W69748  39.442  29.519  13.825
 1520W        W69749  34.941  42.829  11.236
 1521W        W69750   4.336  40.005   2.152
 1522W        W69751  35.602  20.529   3.686
 1523W        W69752  14.072  36.404   4.314
 1524W        W69753   7.674  44.271   5.183
 1525W        W69754  17.631  21.153  12.400
 1526W        W69755  31.099  20.814  13.631
 1527W        W69756   9.979  18.058  13.486
 1528W        W69757  16.818   8.355   2.431
 1529W        W69758  10.619  19.500  13.031
 1530W        W69759   5.654  41.758   1.009
 1531W        W69760   3.313   8.164   2.019
 1532W        W69761  39.666   5.433   2.849
 1533W        W69762   7.312  33.915   4.808
 1534W        W69763  34.231  44.411   4.601
 1535W        W69764  17.160  23.763   1.202
 1536W        W69765   5.368   8.400  13.859
 1537W        W69766   4.717  13.766  10.663
 1538W        W69767  24.824  36.153  12.445
 1539W        W69768  31.621  18.096  12.853
 1540W        W69769   0.578  20.019   1.870
 1541W        W69770  17.760  42.846   3.340
 1542W        W69771  36.377   1.478  11.568
 1543W        W69772   4.107  40.821  11.530
 1544W        W69773   0.468  15.427  14.346
 1545W        W69774   7.147  32.477  11.253
 1546W        W69775  40.322  17.229  11.196
 1547W        W69776  15.159   9.246   3.311
 1548W        W69777   3.190  36.407  14.383
 1549W        W69778  22.465  43.419  11.959
 1550W        W69779   2.945  36.371  12.571
 1551W        W69780  22.679  37.970  13.372
 1552W        W69781  27.706  19.981  13.869
 1553W        W69782  41.915  11.425  13.882
 1554W        W69783   0.870  34.402  13.695
 1555W        W69784  23.214  30.570  11.975
 1556W        W69785  43.803  15.167  11.069
 1557W        W69786  32.419  15.224   4.069
 1558W        W69787  43.182   0.364  12.934
 1559W        W69788  35.940  16.369  11.628
 1560W        W69789  16.792   1.189   3.899
 1561W        W69790  37.919  11.889  11.626
 1562W        W69791  34.985  30.347  11.064
 1563W        W69792  23.931  40.830   2.167
 1564W        W69793  13.079  18.739   1.153
 1565W        W69794  33.158  19.805   2.320
 1566W        W69795  25.230  16.171  12.857
 1567W        W69796  37.709   3.995  14.921
 1568W        W69797  27.968  32.351   1.675
 1569W        W69798  11.431   8.426  14.762
 1570W        W69799  20.600  11.632  14.905
 1571W        W69800  37.977  34.010  11.390
 1572W        W69801  34.840  34.605  11.757
 1573W        W69802  36.477  14.342  11.653
 1574W        W69803  34.960  39.728   1.641
 1575W        W69804  28.562  30.073   4.936
 1576W        W69805   8.880   2.815   4.214
 1577W        W69806   8.321   2.755  10.808
 1578W        W69807  10.737  21.822  14.353
 1579W        W69808  41.525   5.438   2.702
 1580W        W69809  25.420  32.497  10.090
 1581W        W69810  33.657  15.822   0.898
 1582W        W69811  28.793   0.378   5.003
 1583W        W69812   4.321  25.957   4.074
 1584W        W69813  28.372  33.872   2.210
 1585W        W69814   2.159  14.493  11.631
 1586W        W69815  39.584  23.568   2.773
 1587W        W69816   6.373  36.894  10.951
 1588W        W69817  28.007  23.424   0.622
 1589W        W69818   0.983  31.051  12.473
 1590W        W69819  38.461  20.737  13.533
 1591W        W69820   7.117  33.275  13.813
 1592W        W69821  11.122   5.209   0.120
 1593W        W69822  26.452  30.867   4.639
 1594W        W69823   5.950  15.848  12.827
 1595W        W69824   6.747  19.582   1.566
 1596W        W69825  27.091   1.280  14.090
 1597W        W69826   2.005  13.735   1.476
 1598W        W69827  33.010  20.546   0.133
 1599W        W69828  32.925  41.539   1.764
 1600W        W69829   2.988  23.480  14.077
 1601W        W69830   6.426  14.660   0.466
 1602W        W69831  30.862   5.710   0.861
 1603W        W69832  22.348  27.502  12.333
 1604W        W69833  42.351  27.738   2.786
 1605W        W69834  33.846  38.277  11.970
 1606W        W69835  41.203  27.481   2.694
 1607W        W69836  39.997  31.878   2.803
 1608W        W69837   3.623  14.340   2.903
 1609W        W69838  36.988  18.659   1.154
 1610W        W69839  28.583  25.597  11.023
 1611W        W69840   3.774   7.880   4.416
 1612W        W69841   2.419  28.846  11.373
 1613W        W69842  11.188  14.164   1.795
 1614W        W69843   5.141   8.755   3.279
 1615W        W69844  44.300   1.912   2.308
 1616W        W69845  16.678  32.570  13.053
 1617W        W69846  32.836  25.010  13.829
 1618W        W69847  35.141  42.853  14.380
 1619W        W69848   1.089  17.106   1.599
 1620W        W69849  13.370  22.337  14.977
 1621W        W69850  21.115  22.094  12.420
 1622W        W69851  10.573   2.121  13.088
 1623W        W69852  24.826  11.133  12.161
 1624W        W69853  31.949   3.665  11.637
 1625W        W69854  27.399  10.909   3.290
 1626W        W69855  11.370  18.730   4.564
 1627W        W69856  42.414  18.223  12.157
 1628W        W69857  21.031  15.047   0.866
 1629W        W69858  26.911  41.566   3.659
 1630W        W69859  13.396  17.384  14.477
 1631W        W69860   2.419  41.761  10.740
 1632W        W69861  32.583  17.102  13.040
 1633W        W69862  36.466   6.845  11.350
 1634W        W69863   8.926  18.533  14.881
 1635W        W69864  22.523   3.853   3.737
 1636W        W69865  24.796  19.915  11.507
 1637W        W69866  31.676   6.109   2.847
 1638W        W69867   4.699  19.223   2.283
 1639W        W69868  23.499  42.305  14.345
 1640W        W69869  10.468  25.282   1.096
 1641W        W69870   1.282  18.367  11.193
 1642W        W69871  39.527   9.133   3.199
 1643W        W69872   1.423  44.559   0.051
 1644W        W69873  39.434   2.504  11.956
 1645W        W69874  17.907   4.754   3.505
 1646W        W69875   4.960   5.727   2.516
 1647W        W69876  39.412   4.739  11.568
 1648W        W69877  43.964  10.343  13.132
 1649W        W69878  26.792  44.475  11.399
 1650W        W69879  17.134  12.905   1.355
 1651W        W69880  31.739  27.746   1.795
 1652W        W69881   1.863  43.513   0.729
 1653W        W69882  42.071  30.976  13.375
 1654W        W69883  34.968  35.004  12.104
 1655W        W69884  27.368  39.995   2.390
 1656W        W69885   9.280  14.242  14.801
 1657W        W69886  21.056  28.990  11.131
 1658W        W69887  27.771  10.212   4.954
 1659W        W69888  18.709  35.518   4.209
 1660W        W69889   9.164   7.156   2.631
 1661W        W69890   4.918  16.863  12.164
 1662W        W69891  24.927  21.557   4.256
 1663W        W69892   0.748  17.387   4.227
 1664W        W69893  39.304  37.044  10.553
 1665W        W69894  26.007  34.713   0.440
 1666W        W69895  29.544  44.232  11.225
 1667W        W69896  38.625  25.864   4.159
 1668W        W69897  36.805  35.930   1.810
 1669W        W69898  15.202  15.090   0.471
 1670W        W69899  34.618   6.769   4.597
 1671W        W69900   2.233  27.645  11.618
 1672W        W69901   8.911   8.414   4.550
 1673W        W69902  42.152  13.069  14.713
 1674W        W69903  29.053  11.702  11.528
 1675W        W69904  28.532   6.662   4.056
 1676W        W69905   6.233  27.935  10.156
 1677W        W69906   5.330  38.367   4.242
 1678W        W69907   1.396  32.328  12.911
 1679W        W69908  43.318   0.453   4.042
 1680W        W69909   9.047  11.466   5.118
 1681W        W69910   6.651  17.952   4.480
 1682W        W69911  19.676  16.697   2.741
 1683W        W69912  24.054   8.293  13.086
 1684W        W69913  17.118   6.257   1.856
 1685W        W69914   2.178  27.138  11.069
 1686W        W69915  11.320   7.219   1.295
 1687W        W69916  34.913  32.222  10.686
 1688W        W69917  35.674  11.130  14.309
 1689W        W69918  34.954  27.643   0.864
 1690W        W69919  21.010  11.304  14.938
 1691W        W69920  26.435  13.506  13.052
 1692W        W69921  21.046  39.113  10.706
 1693W        W69922  32.841  22.230   2.157
 1694W        W69923  42.440  33.316   3.237
 1695W        W69924  20.259  12.533  11.116
 1696W        W69925  17.421  41.425  11.639
 1697W        W69926  36.841  26.168  13.216
 1698W        W69927  34.858  18.746   3.465
 1699W        W69928  35.791   4.955  13.099
 1700W        W69929   4.211   6.585   1.602
 1701W        W69930  39.318  41.012  11.665
 1702W        W69931  44.805  18.329  14.904
 1703W        W69932  22.036  28.937  13.198
 1704W        W69933  21.138  29.615  13.032
 1705W        W69934   8.516  17.039   4.229
 1706W        W69935  40.041  36.353  14.500
 1707W        W69936  30.046  41.468  14.808
 1708W        W69937  41.793   7.309  11.160
 1709W        W69938  32.483   9.529  12.510
 1710W        W69939   5.272   7.111  13.372
 1711W        W69940  15.108   0.796   1.290
 1712W        W69941   4.151  35.372   4.033
 1713W        W69942  11.606   3.447  12.128
 1714W        W69943   5.176   9.340  10.779
 1715W        W69944  41.831  17.562  11.067
 1716W        W69945  27.182  43.249   3.085
 1717W        W69946  43.198  18.277   3.322
 1718W        W69947  22.839  11.574   3.894
 1719W        W69948  33.627  26.139   1.361
 1720W        W69949  16.122   9.704  12.846
 1721W        W69950  21.605  13.770  10.993
 1722W        W69951   0.350  40.578   3.056
 1723W        W69952  33.585  21.605   2.701
 1724W        W69953  17.212  43.733   1.211
 1725W        W69954   2.222   2.476  11.152
 1726W        W69955  38.784  41.526   4.342
 1727W        W69956  13.142  22.091   2.389
 1728W        W69957  35.370  32.628   3.169
 1729W        W69958  31.025  26.467  13.859
 1730W        W69959  11.745  19.973   4.979
 1731W        W69960  40.050  31.689   4.910
 1732W        W69961  26.527  40.165   2.404
 1733W        W69962  44.475  32.175  12.075
 1734W        W69963  23.586  21.495   3.185
 1735W        W69964  30.794  39.482   2.772
 1736W        W69965  17.083  37.525  13.259
 1737W        W69966  41.200  40.316  12.041
 1738W        W69967   3.360  19.453  11.721
 1739W        W69968  38.049   8.263  13.783
 1740W        W69969   1.861  41.210  11.107
 1741W        W69970  27.670  41.288  14.950
 1742W        W69971  10.233  34.391  14.494
 1743W        W69972  32.941  32.502   4.236
 1744W        W69973  28.520   5.695  11.196
 1745W        W69974   3.468  37.122   4.964
 1746W        W69975  36.810  21.953  11.103
 1747W        W69976  43.450  18.300   2.859
 1748W        W69977  20.517   9.128  12.763
 1749W        W69978  31.932  39.054  12.507
 1750W        W69979  24.281  24.962   4.660
 1751W        W69980  21.265  36.374   0.430
 1752W        W69981  24.485  29.581   2.948
 1753W        W69982  41.320  28.806   4.386
 1754W        W69983   0.888  30.674   0.359
 1755W        W69984   6.065   8.504   1.442
 1756W        W69985  38.504  43.858   4.212
 1757W        W69986   3.910  10.596   0.332
 1758W        W69987  15.325   4.112   4.127
 1759W        W69988  37.423  40.317  10.728
 1760W        W69989   4.778  33.924   0.417
 1761W        W69990  16.464  21.079   2.729
 1762W        W69991   9.520  20.358  14.951
 1763W        W69992   9.378  10.736  12.068
 1764W        W69993  34.786  32.910   2.918
 1765W        W69994  27.045   6.708   0.714
 1766W        W69995   9.029   5.831   1.409
 1767W        W69996  20.935  18.552  11.875
 1768W        W69997  13.193   1.300  14.828
 1769W        W69998   9.233  25.043  14.478
 1770W        W69999  17.745  23.699   1.768
 1771W        W70000  27.002  14.459   0.417
 1772W        W70001  14.856  18.403   1.301
 1773W        W70002  24.348  43.741  11.759
 1774W        W70003  26.770  38.083   1.881
 1775W        W70004  33.257  11.014  13.399
 1776W        W70005  12.076  32.539   4.191
 1777W        W70006  29.656  35.116  13.762
 1778W        W70007  26.411   9.115  13.943
 1779W        W70008   8.526   2.332   0.154
 1780W        W70009  29.763  26.738   5.158
 1781W        W70010  15.073  17.342   3.113
 1782W        W70011  22.872   3.142  13.028
 1783W        W70012  42.726   8.297  10.732
 1784W        W70013  16.575  33.924  10.696
 1785W        W70014  30.888  41.931   0.943
 1786W        W70015  16.064  25.964  11.182
 1787W        W70016  40.727  25.432  11.607
 1788W        W70017  16.180  42.729  13.115
 1789W        W70018   0.788  11.556  14.788
 1790W        W70019  16.594  29.445   3.109
 1791W        W70020  26.169  34.157  13.045
 1792W        W70021  38.043  35.426   4.659
 1793W        W70022  27.975   4.638   2.162
 1794W        W70023  32.071   1.378   3.774
 1795W        W70024  31.231   8.344   3.671
 1796W        W70025   5.305  19.128  14.546
 1797W        W70026  44.275  44.526   2.904
 1798W        W70027  23.490  22.311  11.473
 1799W        W70028  17.781  19.647   3.729
 1800W        W70029  28.506  28.490  12.455
 1801W        W70030  36.333  16.022   2.512
 1802W        W70031   7.361  25.215   1.898
 1803W        W70032  25.858  10.296  11.102
 1804W        W70033  26.776   9.678   4.724
 1805W        W70034  14.659  18.356   4.780
 1806W        W70035  28.070  35.337  10.229
 1807W        W70036  19.621  29.562   0.534
 1808W        W70037   8.736   3.472  14.362
 1809W        W70038  40.536  25.147  14.422
 1810W        W70039   3.302  32.006  13.554
 1811W        W70040  22.726   0.878   1.714
 1812W        W70041  19.044  25.611  10.447
 1813W        W70042  16.596  34.193   4.604
 1814W        W70043   7.394  34.590  14.310
 1815W        W70044  20.568  19.548  11.386
 1816W        W70045   9.833  31.599  14.968
 1817W        W70046  11.727   7.884  10.726
 1818W        W70047  44.743  37.978   2.591
 1819W        W70048  36.218  10.604   5.118
 1820W        W70049  10.865  13.850   4.581
 1821W        W70050  24.484  39.802   1.380
 1822W        W70051  33.543   3.915   1.247
 1823W        W70052  38.791   9.404   2.302
 1824W        W70053  27.487  29.212   1.463
 1825W        W70054  33.642   5.884  13.548
 1826W        W70055  34.943  15.208   2.139
 1827W        W70056  12.169  38.189  14.849
 1828W        W70057  12.154  10.402   0.897
 1829W        W70058  30.836  40.033  13.074
 1830W        W70059  27.297  26.485   0.265
 1831W        W70060  14.838  22.693  14.024
 1832W        W70061  35.924   2.177  11.746
 1833W        W70062   6.371  18.639  10.818
 1834W        W70063  21.676  31.184   3.355
 1835W        W70064  43.370  29.719   3.907
 1836W        W70065  17.647  36.489   2.683
 1837W        W70066  16.199  29.847   3.098
 1838W        W70067  30.299   5.189  14.012
 1839W        W70068   2.211  29.823   1.089
 1840W        W70069   0.550  30.489  12.845
 1841W        W70070   7.803  21.733  12.512
 1842W        W70071  21.606   0.248   3.290
 1843W        W70072  23.324   1.926   3.453
 1844W        W70073  19.528  23.118   4.889
 1845W        W70074   0.956   9.121   0.399
 1846W        W70075  21.038  40.043  14.382
 1847W        W70076  25.076   1.336  11.054
 1848W        W70077  44.671  18.514   1.242
 1849W        W70078  15.088   5.954   4.249
 1850W        W70079  41.471  38.891   4.717
 1851W        W70080  30.335  39.845   2.136
 1852W        W70081  11.560  25.586  14.385
 1853W        W70082  24.926  18.209   0.454
 1854W        W70083  22.163  37.298  14.377
 1855W        W70084   1.543  11.386   4.336
 1856W        W70085  18.211  33.858  14.637
 1857W        W70086   1.792  20.059  13.416
 1858W        W70087  25.646  44.920  14.334
 1859W        W70088  39.044  34.533   0.397
 1860W        W70089  31.668  16.020   1.794
 1861W        W70090  22.324  22.814  13.902
 1862W        W70091  17.443   9.240   2.584
 1863W        W70092  41.111   4.880   4.440
 1864W        W70093   9.506   4.687  10.266
 1865W        W70094  27.156  26.183  14.501
 1866W        W70095  36.448  30.197  12.032
 1867W        W70096   0.550  29.678  10.603
 1868W        W70097  27.171  18.712   3.779
 1869W        W70098  19.179   2.935   0.228
 1870W        W70099   2.973  25.412  13.358
 1871W        W70100  15.340  19.797   0.364
 1872W        W70101  12.608  38.013   3.240
 1873W        W70102  18.845   7.856   1.858
 1874W        W70103  14.054   8.404  13.022
 1875W        W70104  28.369  39.482   4.355
 1876W        W70105  16.992  23.754  13.457
 1877W        W70106  15.114  19.446  14.037
 1878W        W70107  14.310   4.935  14.015
 1879W        W70108  23.477   6.993   0.515
 1880W        W70109  11.762  22.097   3.703
 1881W        W70110  37.575   7.562   2.336
 1882W        W70111  37.996   3.565   3.222
 1883W        W70112  12.912  29.624  12.687
 1884W        W70113   4.655   4.850  13.343
 1885W        W70114  34.738   8.445   2.008
 1886W        W70115  11.308  22.288  12.141
 1887W        W70116  41.050  23.042   0.562
 1888W        W70117  31.583   4.753   2.732
 1889W        W70118  29.080  19.724   4.053
 1890W        W70119   8.441   2.424  12.296
 1891W        W70120  24.082  42.823  14.779
 1892W        W70121  28.717  42.105  13.100
 1893W        W70122   1.128  34.223  13.281
 1894W        W70123  18.168   2.597  13.410
 1895W        W70124   2.509  30.093   3.982
 1896W        W70125  39.052  15.639  10.240
 1897W        W70126  19.309  23.604  10.653
 1898W        W70127   2.236   0.873  13.572
 1899W        W70128  26.480  39.029  14.180
 1900W        W70129  33.080  19.221   3.579
 1901W        W70130  11.336   7.828   0.852
 1902W        W70131  30.956  30.696   3.760
 1903W        W70132  40.019  13.789  14.554
 1904W        W70133  16.176  37.216   0.881
 1905W        W70134  10.204  35.408   0.813
 1906W        W70135  16.859  24.186   1.288
 1907W        W70136  24.621  11.684   1.235
 1908W        W70137  33.323  11.297   1.723
 1909W        W70138  21.773  43.935  13.367
 1910W        W70139  31.453  39.384  10.858
 1911W        W70140  22.265  19.625  11.603
 1912W        W70141  42.638  26.494   0.672
 1913W        W70142  30.563   4.756  14.225
 1914W        W70143  20.252  20.954  13.848
 1915W        W70144  37.298  37.391   4.179
 1916W        W70145  30.552  18.108  13.665
 1917W        W70146  10.446  12.869   1.118
 1918W        W70147  18.229  33.899  12.428
 1919W        W70148  33.252   1.715   1.385
 1920W        W70149  16.244   7.400   2.103
 1921W        W70150  17.738  21.135  13.367
 1922W        W70151  27.064  18.598   2.689
 1923W        W70152  43.359  44.286   3.865
 1924W        W70153  37.975  39.270  12.082
 1925W        W70154  10.675   7.229   3.900
 1926W        W70155  11.822   6.741   2.172
 1927W        W70156   5.943  44.798  13.872
 1928W        W70157  42.342  28.644  14.801
 1929W        W70158  17.198  20.275  13.762
 1930W        W70159  22.203  15.429  12.956
 1931W        W70160  36.076  19.094   3.679
 1932W        W70161  19.473  30.491   2.749
 1933W        W70162  33.587  18.329  13.955
 1934W        W70163   4.023  39.839  13.919
 1935W        W70164  23.751  42.492  12.595
 1936W        W70165  24.983  37.971  14.266
 1937W        W70166  39.828  15.229   2.616
 1938W        W70167   8.780  16.728  11.673
 1939W        W70168   4.713  24.016   1.808
 1940W        W70169  40.185  20.933   4.935
 1941W        W70170  33.989  41.489   1.742
 1942W        W70171   5.808  14.341   4.828
 1943W        W70172   6.153  38.997  14.797
 1944W        W70173  27.256   1.456   0.560
 1945W        W70174   8.359  20.135   3.760
 1946W        W70175  23.043  40.486  13.378
 1947W        W70176  38.353  40.841   4.652
 1948W        W70177  39.822   1.298  13.377
 1949W        W70178  20.743   7.336   2.372
 1950W        W70179  31.086  14.848  12.594
 1951W        W70180   3.282   3.780  11.273
 1952W        W70181   3.242  11.274   0.762
 1953W        W70182  40.335   6.816   2.841
 1954W        W70183  10.696   1.827   3.094
 1955W        W70184  41.363   1.932  12.390
 1956W        W70185  11.149  25.591  14.744
 1957W        W70186   5.932  35.106  11.984
 1958W        W70187  31.168  41.549   3.871
 1959W        W70188   1.761  11.222   4.790
 1960W        W70189  27.502   8.982  14.273
 1961W        W70190  20.047  14.285   4.676
 1962W        W70191  39.813  19.689   0.702
 1963W        W70192   8.338   8.694   2.801
 1964W        W70193  35.006  31.729   0.283
 1965W        W70194  34.429  25.400  13.889
 1966W        W70195   6.205  28.899  11.124
 1967W        W70196  37.116  28.189  13.385
 1968W        W70197  44.298  44.422   1.714
 1969W        W70198  15.783  44.052  12.969
 1970W        W70199  37.209  21.586   5.026
 1971W        W70200  21.978   0.056  10.656
 1972W        W70201  31.371  37.860  11.563
 1973W        W70202  12.754  28.594  10.780
 1974W        W70203  29.721  33.580   3.652
 1975W        W70204  24.368   0.650  11.939
 1976W        W70205  18.166  28.717   1.152
 1977W        W70206   6.149  34.631   1.276
 1978W        W70207  36.638  32.950  13.428
 1979W        W70208  30.108  22.554   4.745
 1980W        W70209  27.498  42.345  10.595
 1981W        W70210  29.915  35.262   3.254
 1982W        W70211  24.783  14.091  12.908
 1983W        W70212  36.251  26.583   2.250
 1984W        W70213   1.374  22.215   2.485
 1985W        W70214  16.374  38.027  14.753
 1986W        W70215  16.753  19.286  10.982
 1987W        W70216  36.586   8.833   5.268
 1988W        W70217  40.344  44.767  12.507
 1989W        W70218  24.877  30.164   1.812
 1990W        W70219  24.638   6.197  11.569
 1991W        W70220  33.345  38.985   9.962
 1992W        W70221  17.326  37.032  11.135
 1993W        W70222   8.996   4.230   4.947
 1994W        W70223  12.834   4.337  12.755
 1995W        W70224  40.596  24.311   4.248
 1996W        W70225  26.902  29.525  11.852
 1997W        W70226  35.384  38.394  13.792
 1998W        W70227  14.735  41.261   1.927
 1999W        W70228  29.384  33.129  11.584
 2000W        W70229  31.970  23.180   1.765
 2001W        W70230  13.417  40.760   3.276
 2002W        W70231  14.844   5.514  11.982
 2003W        W70232  31.403  20.346   2.630
 2004W        W70233   6.960  42.518   2.316
 2005W        W70234  44.751  21.693  14.029
 2006W        W70235  28.957   4.350  12.037
 2007W        W70236  40.396   7.351  14.728
 2008W        W70237  23.746  25.930  10.612
 2009W        W70238   8.917  10.613  11.598
 2010W        W70239   8.351  42.056   0.293
 2011W        W70240  39.468  15.793  14.311
 2012W        W70241  44.939  39.326   0.499
 2013W        W70242  35.137  24.945  14.979
 2014W        W70243  15.895  43.269   4.267
 2015W        W70244  32.896  27.044  11.871
 2016W        W70245  21.576  15.470   1.336
 2017W        W70246  18.844  41.021  14.900
 2018W        W70247  27.907  25.678   1.346
 2019W        W70248  42.050  29.600  13.852
 2020W        W70249   2.387  12.312   3.849
 2021W        W70250  22.830  36.111   3.299
 2022W        W70251  33.059  37.052  12.557
 2023W        W70252  20.594   7.928  13.910
 2024W        W70253  32.011  19.334  14.933
 2025W        W70254  44.653   2.843   2.665
 2026W        W70255  18.589  23.905   4.617
 2027W        W70256  39.494   8.231   5.044
 2028W        W70257  22.643   9.376   2.735
 2029W        W70258  33.309  19.679   0.909
 2030W        W70259   9.626  37.290   0.693
 2031W        W70260  31.138  34.066   0.727
 2032W        W70261  28.111  36.424   0.057
 2033W        W70262   5.034  34.449   4.073
 2034W        W70263  40.422  24.183  14.762
 2035W        W70264  41.706  31.571  10.955
 2036W        W70265   7.648  37.633  11.910
 2037W        W70266  16.690  18.112   4.528
 2038W        W70267   2.872  32.431   4.142
 2039W        W70268  34.154  40.138   3.729
 2040W        W70269  16.765  43.742   0.937
 2041W        W70270  20.415   7.566  13.028
 2042W        W70271  33.558  11.114   4.070
 2043W        W70272  15.146   4.050  12.955
 2044W        W70273  16.793  36.032  11.021
 2045W        W70274  34.146  15.723  13.031
 2046W        W70275   3.856   3.247   2.503
 2047W        W70276  40.413   4.368  10.682
 2048W        W70277  36.907  43.234  12.421
 2049W        W70278  29.136  10.941  11.102
 2050W        W70279  14.701  11.875   4.995
 2051W        W70280  21.659  12.561   2.739
 2052W        W70281  17.017   2.399  12.278
 2053W        W70282   2.712   0.386  11.469
 2054W        W70283  16.963  35.605   4.972
 2055W        W70284  37.851  12.975   2.028
 2056W        W70285   3.321  21.612   0.717
 2057W        W70286   4.940   8.927   1.622
 2058W        W70287  34.607  11.361  13.885
 2059W        W70288  29.710  13.860  12.867
 2060W        W70289  20.729  29.563   4.004
 2061W        W70290  42.845  44.680  14.296
 2062W        W70291  37.148  13.273  13.504
 2063W        W70292  12.033  34.603   4.446
 2064W        W70293  31.916  32.616   4.476
 2065W        W70294  32.958   6.360   0.943
 2066W        W70295   2.837  25.643  12.458
 2067W        W70296  40.615  18.701   4.224
 2068W        W70297  40.117  18.842  12.063
 2069W        W70298  32.212  23.738   2.724
 2070W        W70299   6.269  23.082   1.294
 2071W        W70300  18.128  29.764   3.596
 2072W        W70301   5.215  26.139  14.307
 2073W        W70302   9.336  23.108   4.372
 2074W        W70303  13.743  16.804  11.901
 2075W        W70304  40.751  21.041   2.253
 2076W        W70305  29.153  23.254  12.410
 2077W        W70306   8.195  14.136   1.624
 2078W        W70307   8.299   4.530  14.308
 2079W        W70308  44.529  26.477  11.084
 2080W        W70309  24.679   3.160  10.422
 2081W        W70310  22.546  31.319  12.448
 2082W        W70311  21.702   7.681   4.064
 2083W        W70312   5.139   8.590   2.779
 2084W        W70313  14.836  44.768  11.334
 2085W        W70314  22.956  28.228   4.261
 2086W        W70315  13.664  17.545   3.107
 2087W        W70316  15.623  22.536   4.814
 2088W        W70317  41.359  18.069   3.895
 2089W        W70318   5.977  31.619  14.561
 2090W        W70319   1.737  42.919   1.936
 2091W        W70320  27.969   7.746   4.852
 2092W        W70321  34.370  41.470  11.881
 2093W        W70322  18.812  31.110   0.367
 2094W        W70323  19.913  44.793   1.724
 2095W        W70324  14.364  33.460   3.111
 2096W        W70325  32.443  10.398   1.712
 2097W        W70326   3.326  29.276   2.655
 2098W        W70327  23.166  39.938  10.748
 2099W        W70328  33.932  26.167   2.217
 2100W        W70329  44.027  21.076   3.036
 2101W        W70330   6.398   6.118  12.922
 2102W        W70331  12.245  12.387  12.432
 2103W        W70332  32.020   2.383   0.369
 2104W        W70333  25.649  30.996  14.750
 2105W        W70334  12.877  22.096  12.722
 2106W        W70335  37.596  12.144   3.101
 2107W        W70336   6.851  36.824  11.109
 2108W        W70337   6.241  44.978   0.697
 2109W        W70338  21.468   4.761   3.750
 2110W        W70339  25.436  43.673  12.956
 2111W        W70340   5.301  37.586   3.661
 2112W        W70341   8.615  34.658   4.480
 2113W        W70342  17.352  41.451   3.910
 2114W        W70343  44.060   2.938   1.791
 2115W        W70344  18.069  40.490   1.765
 2116W        W70345  22.540  39.377   0.013
 2117W        W70346  19.659  38.288   0.308
 2118W        W70347   8.305  23.146   2.842
 2119W        W70348  43.004  40.051  12.951
 2120W        W70349   6.413  18.705   4.479
 2121W        W70350  26.263  15.063  12.105
 2122W        W70351  16.753  35.040   3.369
 2123W        W70352   7.204  41.942  14.449
 2124W        W70353   7.757  43.030   0.706
 2125W        W70354  26.275  39.826  11.670
 2126W        W70355  43.803   3.451  13.245
 2127W        W70356  38.489  41.170   1.236
 2128W        W70357  13.848  12.582   2.699
 2129W        W70358   0.622  17.931   4.274
 2130W        W70359  10.326  37.938   3.786
 2131W        W70360  34.028  24.026  13.996
 2132W        W70361   7.232  27.945   1.210
 2133W        W70362  13.857  11.097   5.452
 2134W        W70363   4.236  33.021  10.686
 2135W        W70364  32.652  25.577   3.348
 2136W        W70365  14.498  18.327   5.279
 2137W        W70366  14.701  19.046   1.285
 2138W        W70367  18.261  38.470   0.290
 2139W        W70368  40.351  11.175  14.503
 2140W        W70369  38.406  33.733  13.982
 2141W        W70370   6.278  44.316  12.513
 2142W        W70371  19.254  40.979   1.854
 2143W        W70372  32.618   8.933   4.651
 2144W        W70373  36.822  25.489  11.600
 2145W        W70374  33.950  25.607  13.933
 2146W        W70375  11.141  37.299  14.398
 2147W        W70376  38.155  38.600   4.568
 2148W        W70377   1.240  18.763   0.389
 2149W        W70378  38.159  11.089   0.451
 2150W        W70379  32.986   3.295   0.070
 2151W        W70380  30.887  21.798   4.387
 2152W        W70381   5.220  32.983   3.217
 2153W        W70382  42.944  40.113  13.858
 2154W        W70383   4.753  36.916   2.325
 2155W        W70384  12.055  33.534   0.425
 2156W        W70385  17.773  26.414   3.220
 2157W        W70386  25.611  20.348  14.962
 2158W        W70387  23.345  26.077  13.328
 2159W        W70388  17.339  21.293  11.625
 2160W        W70389  18.272  42.957   3.784
 2161W        W70390  16.264  32.058  11.741
 2162W        W70391   7.284  37.192   1.378
 2163W        W70392  16.815  23.086   5.343
 2164W        W70393   3.605  40.965   4.600
 2165W        W70394   6.544   4.083  12.372
 2166W        W70395  19.112   8.070  13.148
 2167W        W70396   8.842  10.064   3.322
 2168W        W70397  38.738  25.527  11.690
 2169W        W70398   8.780   8.422   2.095
 2170W        W70399   0.897  16.421   2.259
 2171W        W70400  30.118   0.398  13.404
 2172W        W70401  34.515  18.520   0.802
 2173W        W70402   0.347  19.392  11.255
 2174W        W70403  37.009  10.572   1.750
 2175W        W70404  44.510  31.260  14.627
 2176W        W70405  39.181   6.646  13.392
 2177W        W70406  42.056  43.252   4.491
 2178W        W70407  18.306  18.321   3.201
 2179W        W70408  21.302  37.984  14.925
 2180W        W70409  27.731  25.465   2.881
 2181W        W70410  36.307  35.355   4.127
 2182W        W70411   2.801   6.356  13.908
 2183W        W70412   4.657  25.060   1.322
 2184W        W70413  12.360  25.552   2.194
 2185W        W70414  15.636  28.361   0.736
 2186W        W70415  36.046  33.587  12.972
 2187W        W70416  35.564  31.390  14.516
 2188W        W70417   3.174   8.387  11.516
 2189W        W70418   7.807   8.669   1.197
 2190W        W70419   3.491  21.298   3.128
 2191W        W70420  36.299  26.771  13.975
 2192W        W70421  40.278  13.104  14.653
 2193W        W70422  38.971  26.740  11.125
 2194W        W70423  39.546  40.254   1.387
 2195W        W70424  37.749  23.163   4.146
 2196W        W70425  39.836  17.202  12.052
 2197W        W70426  23.219  22.253  13.182
 2198W        W70427  32.940  35.966   2.707
 2199W        W70428  30.156  41.940  13.116
 2200W        W70429  13.381   3.197  11.251
 2201W        W70430  36.952  10.308   4.126
 2202W        W70431  21.098   4.607   4.832
 2203W        W70432   8.845   3.002   1.397
 2204W        W70433  36.798  12.660   1.349
 2205W        W70434   3.373  34.138  12.944
 2206W        W70435  30.157  38.802  14.433
 2207W        W70436  41.514  39.990   4.022
 2208W        W70437  33.974  20.044   3.765
 2209W        W70438  18.581   9.078  12.660
 2210W        W70439  12.721  36.063  11.945
 2211W        W70440  29.880  30.748   4.642
 2212W        W70441  37.371   7.204  14.367
 2213W        W70442  43.293  32.105  12.866
 2214W        W70443   6.196  28.018   2.641
 2215W        W70444  15.527  11.845  10.560
 2216W        W70445  36.638  16.380   2.255
 2217W        W70446  24.858  25.405  11.612
 2218W        W70447   9.963   5.419   1.380
 2219W        W70448  38.767   8.467   3.260
 2220W        W70449  23.417   5.845  13.029
 2221W        W70450  21.835  34.310  14.881
 2222W        W70451  20.100  32.319   0.858
 2223W        W70452  41.056   7.216   4.121
 2224W        W70453   4.157  32.137   3.104
 2225W        W70454   5.944   5.737   0.196
 2226W        W70455  18.384  34.698   2.787
 2227W        W70456   3.005  33.019   9.708
 2228W        W70457   7.412  26.714  11.379
 2229W        W70458   8.439  28.214  12.520
 2230W        W70459  38.181  12.870  14.030
 2231W        W70460  13.766  25.252   4.610
 2232W        W70461  22.482  10.430  10.189
 2233W        W70462  35.085  23.161  13.850
 2234W        W70463  41.366  18.539  12.597
 2235W        W70464  31.162  23.951   1.385
 2236W        W70465  12.279   2.245   1.934
 2237W        W70466  26.912  13.304  10.579
 2238W        W70467  13.739  44.055  14.912
 2239W        W70468  18.464  19.606  10.704
 2240W        W70469   8.392   0.846   1.725
 2241W        W70470  39.434   3.471   2.238
 2242W        W70471  11.432   2.925   3.253
 2243W        W70472   6.186   1.736  14.886
 2244W        W70473  42.661  14.336   4.160
 2245W        W70474  20.545  23.469   1.676
 2246W        W70475  34.819   0.376  14.442
 2247W        W70476  34.647  32.451  11.402
 2248W        W70477  44.397  34.934   4.676
 2249W        W70478  42.565  40.319  13.443
 2250W        W70479  13.090   5.380   3.614
 2251W        W70480  29.248  39.010  14.851
 2252W        W70481  15.160  21.733   4.594
 2253W        W70482  12.808   8.672  14.520
 2254W        W70483  26.308   8.951  12.470
 2255W        W70484  13.558  24.243   1.737
 2256W        W70485   1.019  43.841  14.028
 2257W        W70486  20.979   0.782  11.077
 2258W        W70487  18.770   4.299  13.383
 2259W        W70488   0.278   6.763   4.650
 2260W        W70489   5.417  12.778   1.828
 2261W        W70490  43.802   5.958  13.292
 2262W        W70491  31.402   3.111   2.700
 2263W        W70492  34.838  11.930   4.529
 2264W        W70493  20.287  35.940  12.991
 2265W        W70494   9.206  27.395  12.391
 2266W        W70495  20.022  28.857  12.466
 2267W        W70496   7.272  40.818   1.627
 2268W        W70497  15.128   5.937  14.125
 2269W        W70498   2.530  15.504  11.454
 2270W        W70499  13.546  42.112  12.844
 2271W        W70500   0.295  14.234   1.248
 2272W        W70501   1.764  42.793   2.731
 2273W        W70502   9.972   9.483   3.258
 2274W        W70503   2.785  42.203   3.301
 2275W        W70504   7.812  23.599  10.254
 2276W        W70505  32.949  26.324  11.218
 2277W        W70506  15.141  44.264  10.726
 2278W        W70507  35.502  22.161  12.960
 2279W        W70508  36.482  35.003  12.111
 2280W        W70509  27.088  42.725   0.283
 2281W        W70510  28.410  38.477  11.297
 2282W        W70511   6.793  39.463  14.975
 2283W        W70512  34.182   6.874   3.219
 2284W        W70513  18.160  26.454   1.245
 2285W        W70514  25.292  21.563   2.931
 2286W        W70515  38.094   7.428  12.902
 2287W        W70516   4.888  26.774  12.456
 2288W        W70517  40.842  28.185   0.779
 2289W        W70518   5.729  19.657  12.919
 2290W        W70519  38.808  19.556   4.999
 2291W        W70520  23.241  28.153   1.744
 2292W        W70521  20.081  36.849  14.505
 2293W        W70522  16.797  21.803   0.787
 2294W        W70523  28.138  35.391  11.562
 2295W        W70524  12.010  19.079   0.525
 2296W        W70525  37.438  32.499  11.332
 2297W        W70526   8.150  32.846  11.572
 2298W        W70527   9.868  10.082  14.493
 2299W        W70528  21.764  14.792  11.963
 2300W        W70529  28.015  41.620   1.765
 2301W        W70530  41.830  43.895   0.377
 2302W        W70531  30.471  29.954   1.392
 2303W        W70532  33.369  36.354   4.692
 2304W        W70533  33.600  41.932  11.532
 2305W        W70534  44.731   3.763  12.898
 2306W        W70535  37.485  43.014  12.564
 2307W        W70536  25.251  43.515   4.636
 2308W        W70537  31.804   0.979   3.535
 2309W        W70538  37.812   0.946   3.721
 2310W        W70539   8.820   3.045   0.664
 2311W        W70540  39.618  23.661  14.897
 2312W        W70541  11.776  37.903  12.179
 2313W        W70542  34.482  32.483  10.485
 2314W        W70543  30.897  20.844   3.157
 2315W        W70544   2.819  21.626   1.428
 2316W        W70545  23.724  32.073   4.761
 2317W        W70546   7.861  41.778   1.423
 2318W        W70547  40.464  34.373   2.241
 2319W        W70548  10.928  36.500   1.460
 2320W        W70549  28.676   3.265  10.301
 2321W        W70550   9.545  21.202  14.791
 2322W        W70551  18.615  40.861  11.612
 2323W        W70552   6.241  38.039  11.109
 2324W        W70553   0.229  19.980  11.976
 2325W        W70554  16.217  31.368   3.516
 2326W        W70555  42.926  16.483  12.131
 2327W        W70556  35.935  29.279   0.177
 2328W        W70557  38.402   1.199   0.866
 2329W        W70558   7.703  29.947  14.566
 2330W        W70559  33.697  40.361   5.246
 2331W        W70560  36.352  18.682   3.793
 2332W        W70561  15.389   0.725   3.588
 2333W        W70562  43.759   0.707   3.377
 2334W        W70563  34.817  31.591  13.332
 2335W        W70564  12.360  22.309   2.030
 2336W        W70565  35.075  35.109   2.308
 2337W        W70566   7.011  22.321  12.152
 2338W        W70567  42.215  35.772   4.212
 2339W        W70568   1.826  33.976  10.924
 2340W        W70569   1.199  31.498   0.401
 2341W        W70570  38.480  42.122   4.646
 2342W        W70571  11.098  32.066   2.283
 2343W        W70572  19.534   9.963   2.115
 2344W        W70573  14.764  11.946  11.181
 2345W        W70574  18.954  26.038   1.263
 2346W        W70575  21.262  17.300   2.238
 2347W        W70576  40.840   7.463  14.963
 2348W        W70577  26.669  23.548   3.103
 2349W        W70578   1.728  17.185   0.194
 2350W        W70579  43.519  22.472  10.739
 2351W        W70580   4.218   6.763  11.637
 2352W        W70581  42.668  42.112   2.997
 2353W        W70582   9.915  14.335  12.606
 2354W        W70583  22.694  21.174  12.924
 2355W        W70584  14.762  26.025  10.565
 2356W        W70585  13.380  17.739  11.616
 2357W        W70586  27.797  33.387   0.133
 2358W        W70587  36.206  26.213  14.847
 2359W        W70588  20.348   4.088   4.541
 2360W        W70589  25.959  23.610   4.251
 2361W        W70590   7.695   0.820  12.934
 2362W        W70591  33.952  22.130   0.030
 2363W        W70592  15.170  26.689   0.307
 2364W        W70593  30.565  41.801  11.152
 2365W        W70594  39.444  10.335   5.041
 2366W        W70595  19.728  19.596   2.612
 2367W        W70596   8.973  35.153   0.074
 2368W        W70597  20.901   8.844  12.535
 2369W        W70598  43.215  40.285  11.188
 2370W        W70599  35.883  38.404   3.549
 2371W        W70600  27.422  29.682   2.242
 2372W        W70601  11.283  26.927   4.137
 2373W        W70602   7.142  33.926   3.471
 2374W        W70603  37.564  40.999  11.069
 2375W        W70604  13.677  36.579   3.990
 2376W        W70605   6.801   0.708  14.019
 2377W        W70606  25.613   3.166  13.505
 2378W        W70607  29.994  21.633   0.934
 2379W        W70608  24.875  37.403  12.408
 2380W        W70609  19.880  15.356  11.048
 2381W        W70610   7.420  35.625   1.340
 2382W        W70611  35.120  31.486  13.742
 2383W        W70612  19.892   4.715  11.728
 2384W        W70613  12.687  40.879   3.208
 2385W        W70614   0.390  32.507   4.166
 2386W        W70615  33.812   0.488   2.696
 2387W        W70616  22.785  32.488  11.628
 2388W        W70617  17.969  42.427  14.603
 2389W        W70618   4.329  28.935   1.023
 2390W        W70619  26.635  36.257  10.252
 2391W        W70620  22.093  34.091   4.112
 2392W        W70621  23.156  41.473  10.949
 2393W        W70622  44.859   4.290  14.608
 2394W        W70623   0.811  28.481   4.325
 2395W        W70624  27.397  35.168  13.451
 2396W        W70625  17.157  31.495  12.023
 2397W        W70626  12.577  43.445  14.430
 2398W        W70627  15.570  12.784  14.985
 2399W        W70628  23.497  37.431  12.491
 2400W        W70629  30.492  23.560  10.688
 2401W        W70630  26.189  25.587   1.966
 2402W        W70631  37.932   1.229   3.273
 2403W        W70632  10.843  41.758  14.853
 2404W        W70633  12.133  20.740  14.489
 2405W        W70634  33.984  16.812   3.954
 2406W        W70635  10.162  30.615   1.854
 2407W        W70636   2.311  29.631  11.126
 2408W        W70637  44.735  17.670   4.103
 2409W        W70638  44.534   8.592  12.667
 2410W        W70639  10.595  19.342  11.904
 2411W        W70640  28.684  34.949  10.180
 2412W        W70641  44.896  38.106  13.280
 2413W        W70642   6.882   5.779   4.406
 2414W        W70643  24.429  30.149   0.471
 2415W        W70644  40.573  16.716  11.180
 2416W        W70645  16.589  15.656   4.540
 2417W        W70646  42.966  18.991   4.554
 2418W        W70647  40.361  28.026  13.880
 2419W        W70648  10.732   1.764  13.409
 2420W        W70649  29.593   4.245   0.848
 2421W        W70650  13.787   0.068  13.942
 2422W        W70651  10.181   3.483   1.939
 2423W        W70652  14.791  12.915   4.957
 2424W        W70653  40.019  28.114   4.207
 2425W        W70654   6.305  33.102   1.281
 2426W        W70655  18.807  13.619  12.127
 2427W        W70656  14.930  21.674  11.935
 2428W        W70657  14.764   6.342  11.054
 2429W        W70658   0.368  38.275  14.075
 2430W        W70659   9.201  41.369   4.686
 2431W        W70660  25.454  35.660   3.720
 2432W        W70661  42.309  25.650   3.519
 2433W        W70662  37.950  24.728  14.971
 2434W        W70663  15.707   2.668   3.841
 2435W        W70664  38.681  10.205   5.401
 2436W        W70665   6.811  23.708   2.385
 2437W        W70666  24.143  24.893   3.214
 2438W        W70667   3.059  35.631  13.063
 2439W        W70668  22.123   7.472   2.588
 2440W        W70669  13.038   1.997  11.680
 2441W        W70670  10.781  10.043   4.524
 2442W        W70671  44.568  19.202  11.428
 2443W        W70672  14.272  12.422   9.713
 2444W        W70673   0.008  26.134   4.537
 2445W        W70674   5.115   5.081  13.559
 2446W        W70675  27.691   7.917   3.344
 2447W        W70676  19.988  36.767   1.366
 2448W        W70677  28.894  29.642  14.349
 2449W        W70678  30.412   8.244   2.668
 2450W        W70679  43.362  20.548  11.398
 2451W        W70680  11.032  39.051  14.832
 2452W        W70681  19.128  19.264   2.992
 2453W        W70682   7.976  24.674  14.570
 2454W        W70683   4.216  14.635   1.182
 2455W        W70684  33.409  22.654  12.994
 2456W        W70685   6.813  39.353   4.595
 2457W        W70686   6.315   4.231   4.082
 2458W        W70687  17.215  29.037   4.108
 2459W        W70688   7.914  35.841  11.303
 2460W        W70689  32.493  20.160   9.973
 2461W        W70690  24.996   4.145  14.954
 2462W        W70691  21.180   3.876   3.300
 2463W        W70692  24.990  38.371   0.864
 2464W        W70693   6.657  30.065  13.002
 2465W        W70694  29.785  22.759   3.723
 2466W        W70695   4.235   8.946  11.850
 2467W        W70696  16.502  11.845   3.886
 2468W        W70697  25.351  15.768  14.012
 2469W        W70698  43.017  36.860  14.464
 2470W        W70699   4.309  10.640   4.250
 2471W        W70700   0.424  38.313  14.881
 2472W        W70701   1.205   8.176   0.105
 2473W        W70702  36.755   4.956   1.028
 2474W        W70703  36.107  25.119   0.015
 2475W        W70704  10.228  10.375   3.818
 2476W        W70705  25.767  41.481  12.603
 2477W        W70706  11.153  23.898  14.694
 2478W        W70707  21.826  38.505  14.572
 2479W        W70708   0.983  31.026  13.835
 2480W        W70709  21.747   8.614  12.613
 2481W        W70710   7.145  34.013   4.323
 2482W        W70711  27.256  19.647   4.529
 2483W        W70712   7.182  17.147   2.791
 2484W        W70713  19.960  27.187   0.759
 2485W        W70714  42.244  30.779   9.694
 2486W        W70715  26.878   1.164   0.357
 2487W        W70716  10.100  12.174   3.239
 2488W        W70717  19.728  19.796   0.353
 2489W        W70718  37.898   0.901  11.208
 2490W        W70719  35.564   8.859   4.321
 2491W        W70720  12.428  32.031  10.668
 2492W        W70721   9.127  10.174  13.956
 2493W        W70722  37.825  28.377   0.143
 2494W        W70723  39.150  34.419   4.370
 2495W        W70724   4.198  20.140  14.928
 2496W        W70725  39.303  16.718  10.726
 2497W        W70726  36.414  34.444  12.414
 2498W        W70727  25.816  17.459   9.793
 2499W        W70728   9.691  32.058   3.265
 2500W        W70729  15.620  44.024   3.180
 2501W        W70730  19.071   9.822  13.300
 2502W        W70731  38.051   4.466   4.264
 2503W        W70732   3.699  21.052  12.463
 2504W        W70733  29.014  37.279   3.633
 2505W        W70734   3.733  14.786  14.343
 2506W        W70735  29.466   5.458  14.959
 2507W        W70736  27.925  33.194  12.625
 2508W        W70737  30.399   7.902  13.412
 2509W        W70738  26.699  31.355   4.131
 2510W        W70739  11.420  44.002   0.048
 2511W        W70740  31.410   5.658   3.855
 2512W        W70741  22.744  42.995  11.071
 2513W        W70742  37.776   3.068   5.023
 2514W        W70743  41.618  33.403  11.034
 2515W        W70744   0.665  36.943  11.734
 2516W        W70745  12.048  15.197   4.136
 2517W        W70746  14.333  20.001  12.213
 2518W        W70747  36.005  16.883  13.472
 2519W        W70748  35.099  37.452  12.401
 2520W        W70749   2.212   9.383   3.932
 2521W        W70750  25.238  26.648   2.787
 2522W        W70751  22.257  14.025  12.007
 2523W        W70752  30.279  31.661  14.413
 2524W        W70753   2.236   9.696  12.435
 2525W        W70754  19.264  17.089   1.757
 2526W        W70755  39.320  42.448  12.034
 2527W        W70756  14.212  44.786  12.536
 2528W        W70757  35.798  15.200  11.588
 2529W        W70758  11.519  22.879   3.226
 2530W        W70759  23.013  24.950   3.698
 2531W        W70760  23.053  19.754  14.399
 2532W        W70761   6.774  38.852  11.698
 2533W        W70762  33.985  39.890  10.872
 2534W        W70763  44.515  20.862  10.439
 2535W        W70764  30.391  28.415  12.923
 2536W        W70765   2.459  10.407   4.780
 2537W        W70766  12.664   8.313  10.659
 2538W        W70767  13.735  22.573  13.053
 2539W        W70768  41.236  41.905  11.128
 2540W        W70769   2.929  40.059  11.251
 2541W        W70770  27.868  24.580   3.214
 2542W        W70771  42.476  44.088   1.818
 2543W        W70772  21.768   2.455   4.467
 2544W        W70773  21.669  31.047  13.359
 2545W        W70774  17.060  33.269   9.953
 2546W        W70775  17.478  20.126   3.086
 2547W        W70776  26.958  19.277   1.218
 2548W        W70777  26.739  36.296   4.268
 2549W        W70778   6.435  42.793  11.152
 2550W        W70779   4.321  21.589   1.846
 2551W        W70780  19.207  15.828  13.743
 2552W        W70781   7.469   5.602  14.481
 2553W        W70782   1.970  35.186  12.129
 2554W        W70783   0.336  16.650   3.281
 2555W        W70784  14.537  32.381   0.489
 2556W        W70785  11.258  17.597   1.876
 2557W        W70786  14.323  38.386   2.263
 2558W        W70787  44.205  18.848  12.981
 2559W        W70788  23.608  13.822   0.571
 2560W        W70789  31.721  12.962  14.265
 2561W        W70790  43.856  22.423   2.976
 2562W        W70791  20.826  29.107   0.891
 2563W        W70792   7.528  39.604   2.871
 2564W        W70793  27.609   1.317  10.744
 2565W        W70794  36.509  24.478  12.058
 2566W        W70795  43.236  31.655   4.151
 2567W        W70796  34.940  10.920  12.028
 2568W        W70797  34.984  22.428   4.105
 2569W        W70798   2.627  31.950   1.944
 2570W        W70799  36.915   3.253  11.576
 2571W        W70800   1.201  43.487  12.516
 2572W        W70801  22.965  39.857   2.710
 2573W        W70802  40.431  43.255  10.980
 2574W        W70803  38.126  21.536   1.978
 2575W        W70804   3.240  19.557   3.763
 2576W        W70805  23.000  18.148   0.112
 2577W        W70806   2.420  21.828   0.252
 2578W        W70807   4.818  41.983  14.341
 2579W        W70808   9.879  13.192   4.024
 2580W        W70809  31.295  21.098   4.697
 2581W        W70810   6.704   9.385  12.401
 2582W        W70811  15.412  32.995  14.503
 2583W        W70812  23.731  30.914  10.438
 2584W        W70813   0.621  44.994   2.008
 2585W        W70814  39.381  43.876  13.364
 2586W        W70815   8.344   0.891  11.862
 2587W        W70816  12.318  34.554   3.507
 2588W        W70817   9.882  27.095   4.897
 2589W        W70818  27.389  18.242   3.807
 2590W        W70819  17.350  33.709   0.456
 2591W        W70820  33.361  19.748  14.038
 2592W        W70821  34.578   8.874  11.162
 2593W        W70822  29.524  17.342  13.175
 2594W        W70823  25.596  37.071   4.754
 2595W        W70824  30.449   7.339  14.495
 2596W        W70825  38.767  30.131   0.031
 2597W        W70826  21.491  37.626  12.967
 2598W        W70827  22.471  21.551   4.204
 2599W        W70828  15.860  29.847   0.606
 2600W        W70829   4.461  16.623  12.103
 2601W        W70830  32.878  23.068   3.606
 2602W        W70831  33.559  15.648   1.371
 2603W        W70832  14.020  27.626  13.802
 2604W        W70833  19.795  33.411   0.871
 2605W        W70834  41.850  12.687   0.469
 2606W        W70835   1.249  39.398  13.858
 2607W        W70836  31.227  31.485  10.734
 2608W        W70837  24.177   6.829  11.156
 2609W        W70838   2.754  16.234   0.918
 2610W        W70839  24.071   4.235  11.066
 2611W        W70840   3.122  25.192  12.514
 2612W        W70841   1.082   0.375   4.577
 2613W        W70842  35.168   6.053   5.385
 2614W        W70843   4.094   4.506   2.497
 2615W        W70844  29.133  37.291   1.235
 2616W        W70845  28.529  24.835  13.634
 2617W        W70846   1.271  11.089   0.362
 2618W        W70847  14.740  22.489   4.192
 2619W        W70848  19.824  26.239  10.769
 2620W        W70849   8.719  33.113  11.268
 2621W        W70850  18.432   7.199  12.958
 2622W        W70851  35.646  37.512   0.946
 2623W        W70852  12.318  34.404  11.479
 2624W        W70853   0.979  24.998  10.908
 2625W        W70854  11.846  20.910   3.232
 2626W        W70855  25.169   4.747   1.762
 2627W        W70856  40.587  23.189   0.409
 2628W        W70857   0.760  22.587  13.934
 2629W        W70858  37.419  21.771   4.293
 2630W        W70859  22.767  39.808  14.740
 2631W        W70860  44.036   1.731  14.122
 2632W        W70861  21.451   2.794   0.247
 2633W        W70862  12.199  31.936  13.924
 2634W        W70863  20.255  34.716   3.807
 2635W        W70864  30.604  36.216  12.424
 2636W        W70865  25.164  21.501  12.982
 2637W        W70866  18.399   8.259   2.125
 2638W        W70867   5.268  13.223  11.492
 2639W        W70868  10.651  15.605  10.770
 2640W        W70869  28.723   4.356   3.214
 2641W        W70870  16.570  29.590  13.778
 2642W        W70871   2.133  10.540   2.471
 2643W        W70872  39.339   4.937   2.369
 2644W        W70873  14.163  14.691   2.245
 2645W        W70874  24.577   2.475   3.233
 2646W        W70875  21.777  38.674   4.372
 2647W        W70876  11.833   2.790  10.715
 2648W        W70877   0.202  16.578   4.344
 2649W        W70878  41.059  24.474   2.798
 2650W        W70879  28.493  36.401  10.499
 2651W        W70880  33.628  34.452  11.905
 2652W        W70881  20.220  40.052   1.798
 2653W        W70882   7.056  29.351   3.332
 2654W        W70883  24.034   1.949   1.330
 2655W        W70884   1.901   2.132   0.094
 2656W        W70885  17.498  11.374  13.158
 2657W        W70886  28.166  38.367  10.221
 2658W        W70887  13.124  16.693  12.805
 2659W        W70888  35.121  25.576   2.117
 2660W        W70889  20.611   5.966   3.375
 2661W        W70890  33.427  32.006   1.844
 2662W        W70891  41.939  28.325   1.315
 2663W        W70892   1.366  14.565   2.999
 2664W        W70893  24.652  14.066   2.292
 2665W        W70894  31.756  17.445   1.569
 2666W        W70895  36.624  14.321   4.044
 2667W        W70896   3.752  25.408  11.058
 2668W        W70897   0.302  11.907   1.543
 2669W        W70898  27.140  26.128  10.719
 2670W        W70899  20.128  40.519  14.814
 2671W        W70900  25.095  19.198  11.018
 2672W        W70901  14.425   3.070  13.245
 2673W        W70902  17.808  23.928   2.587
 2674W        W70903  34.612  30.008   4.827
 2675W        W70904  11.363   1.473  13.858
 2676W        W70905  33.146   0.236   0.319
 2677W        W70906  23.640   8.610  11.099
 2678W        W70907  22.510   8.913  10.637
 2679W        W70908  44.222  23.678  12.954
 2680W        W70909  14.275  21.205  14.560
 2681W        W70910  38.585  25.046  11.573
 2682W        W70911   1.009  41.974   2.138
 2683W        W70912  43.536  31.217  13.348
 2684W        W70913   8.343  43.082   4.081
 2685W        W70914  25.173  40.493  14.394
 2686W        W70915  27.090   6.921   1.253
 2687W        W70916  10.426  40.952  12.900
 2688W        W70917   4.961   0.198   0.420
 2689W        W70918  27.105  13.897   0.976
 2690W        W70919   3.187  44.331   2.676
 2691W        W70920  36.814  24.261  11.067
 2692W        W70921  41.329  25.994  11.998
 2693W        W70922  34.571  17.818   3.259
 2694W        W70923   9.680  11.683   3.933
 2695W        W70924  23.702  34.674  13.764
 2696W        W70925  27.088   8.175   5.055
 2697W        W70926   2.138  27.815   1.056
 2698W        W70927  36.633  16.635  14.788
 2699W        W70928  16.493   4.313   0.273
 2700W        W70929  24.502  13.478   0.746
 2701W        W70930   7.214  25.247   0.987
 2702W        W70931  34.860  40.016  10.289
 2703W        W70932  36.655  27.116  11.130
 2704W        W70933  13.959  10.969  14.063
 2705W        W70934  25.526  17.266   0.811
 2706W        W70935   2.211  44.939  13.594
 2707W        W70936  42.030  40.485  11.577
 2708W        W70937  34.048  35.395   4.159
 2709W        W70938  23.741   6.299   1.316
 2710W        W70939  30.796  12.699   0.019
 2711W        W70940  26.131  29.110  11.809
 2712W        W70941  10.938  16.214  13.949
 2713W        W70942  29.707  42.852  11.892
 2714W        W70943  26.268  26.562   3.624
 2715W        W70944  25.015  36.363   2.364
 2716W        W70945  28.859  13.662   4.254
 2717W        W70946  23.241  19.780  13.919
 2718W        W70947  40.804  32.936   0.035
 2719W        W70948   9.742  31.482   3.887
 2720W        W70949  34.758  32.699  12.480
 2721W        W70950  38.856  32.761   1.993
 2722W        W70951  35.805  10.855  12.517
 2723W        W70952  34.475  30.985   4.503
 2724W        W70953  19.054  39.247  12.900
 2725W        W70954  22.202  32.071   3.917
 2726W        W70955   5.719   3.827  11.201
 2727W        W70956   9.440  35.556   1.871
 2728W        W70957  25.741   5.346  14.022
 2729W        W70958  34.050   6.831   1.909
 2730W        W70959  13.333  11.284   2.685
 2731W        W70960  12.879   2.703  13.428
 2732W        W70961  43.968  13.257   4.590
 2733W        W70962  36.128  26.476  12.675
 2734W        W70963   8.830  43.688  10.909
 2735W        W70964  14.251   8.422   3.333
 2736W        W70965  11.685   9.260   3.228
 2737W        W70966  20.730  28.808   0.443
 2738W        W70967  43.992  11.169  12.516
 2739W        W70968   2.365  11.371   3.656
 2740W        W70969  34.449  23.792   1.245
 2741W        W70970  20.320  41.249   3.803
 2742W        W70971   5.515  11.818  13.767
 2743W        W70972  40.752  22.174  10.711
 2744W        W70973  11.413  41.983  11.581
 2745W        W70974  35.915   2.717   2.209
 2746W        W70975  43.174  23.104   4.048
 2747W        W70976  30.589  17.355  12.958
 2748W        W70977  14.696  27.568  14.814
 2749W        W70978  25.852  34.962   1.706
 2750W        W70979  34.901  33.880   0.900
 2751W        W70980  15.324   8.378   3.715
 2752W        W70981  37.465   3.074   4.170
 2753W        W70982   9.397  32.105  13.034
 2754W        W70983  11.055  14.831   3.166
 2755W        W70984   9.397  30.246  14.847
 2756W        W70985  14.315  43.235   1.852
 2757W        W70986  41.357   0.314  11.855
 2758W        W70987   4.673  41.960  10.712
 2759W        W70988  35.380  42.823   3.392
 2760W        W70989  20.321  40.512   3.158
 2761W        W70990  37.814  19.851  10.907
 2762W        W70991  13.425  43.796   1.806
 2763W        W70992  36.619  31.574   0.500
 2764W        W70993  41.000  20.221   4.184
 2765W        W70994  35.330   7.654  11.987
 2766W        W70995  10.701  30.031   3.451
 2767W        W70996  37.064  38.569  12.615
 2768W        W70997  36.635  40.290  13.275
 2769W        W70998  43.698  23.016  12.399
 2770W        W70999   9.857  29.514   4.711
 2771W        W71000   5.871  26.016   2.654
 2772W        W71001   4.502  35.964  12.863
 2773W        W71002  44.802  26.895  14.552
 2774W        W71003  37.363   3.336   1.737
 2775W        W71004  15.050  25.829  13.409
 2776W        W71005  36.438  12.786  12.104
 2777W        W71006  21.284   3.427  13.064
 2778W        W71007  20.580  32.590   4.951
 2779W        W71008  18.592  39.775  13.993
 2780W        W71009  22.165  35.879   0.462
 2781W        W71010  34.499   7.998  11.991
 2782W        W71011  24.499  34.590   2.274
 2783W        W71012  34.749   6.783  13.733
 2784W        W71013  33.616   7.167  14.556
 2785W        W71014  35.284   8.457   1.866
 2786W        W71015  21.795  44.383   1.112
 2787W        W71016   6.628   9.405  13.917
 2788W        W71017  24.708  43.850   3.027
 2789W        W71018  19.658  42.684   2.691
 2790W        W71019  44.221   8.292  14.852
 2791W        W71020  15.016  22.097   1.888
 2792W        W71021   1.403  14.432   0.968
 2793W        W71022  40.900  29.519   2.623
 2794W        W71023  44.947  24.812  12.383
 2795W        W71024  17.160  32.171   2.827
 2796W        W71025  20.268  15.378  12.646
 2797W        W71026  37.554  26.956   4.503
 2798W        W71027  37.160  20.620  12.620
 2799W        W71028  19.238   1.936  11.651
 2800W        W71029  33.858  42.746  14.756
 2801W        W71030  17.169  27.035  11.845
 2802W        W71031  40.776   3.389  11.986
 2803W        W71032   6.493  19.551  11.170
 2804W        W71033  28.144  24.211  14.067
 2805W        W71034  12.146  22.475   3.280
 2806W        W71035  30.031  19.584   4.035
 2807W        W71036   7.710  29.424   1.944
 2808W        W71037  17.185  22.903  11.538
 2809W        W71038   7.699   2.608   3.707
 2810W        W71039  15.170  23.178   4.264
 2811W        W71040   1.000  41.817  11.536
 2812W        W71041  31.126  12.075   4.235
 2813W        W71042   3.174   5.370   1.686
 2814W        W71043  22.723  29.914  11.656
 2815W        W71044  10.151  13.900   2.467
 2816W        W71045  21.767  41.381   2.596
 2817W        W71046  17.029   2.303  11.780
 2818W        W71047  21.012   0.379  11.557
 2819W        W71048  18.651  38.575  14.960
 2820W        W71049  35.336  12.476  14.540
 2821W        W71050   2.217  15.199   4.101
 2822W        W71051  30.196  36.979  12.140
 2823W        W71052  14.899  34.909   0.169
 2824W        W71053  29.836  39.382   2.766
 2825W        W71054  18.514  13.714  11.636
 2826W        W71055  14.885  35.635   0.796
 2827W        W71056  27.455  19.574   1.396
 2828W        W71057  19.606  20.713   4.260
 2829W        W71058  32.498   6.772   3.822
 2830W        W71059  42.915  34.391   1.947
 2831W        W71060  37.415   5.394   2.332
 2832W        W71061  17.089  42.825   2.681
 2833W        W71062  18.258  44.902   2.888
 2834W        W71063  40.984  36.499  13.149
 2835W        W71064  19.837  25.657   3.767
 2836W        W71065  28.384  31.954  14.500
 2837W        W71066   5.416   1.349  11.581
 2838W        W71067  38.429  41.574   0.380
 2839W        W71068  18.325   3.489  13.440
 2840W        W71069   1.158  37.084  11.658
 2841W        W71070  33.867   0.056   0.873
 2842W        W71071   3.008  33.091   3.696
 2843W        W71072  15.848  20.244   4.609
 2844W        W71073  30.043   1.565   1.287
 2845W        W71074   1.705   5.710  13.711
 2846W        W71075  29.190  30.965   3.703
 2847W        W71076  40.476  44.454  14.911
 2848W        W71077   8.254  31.393   3.719
 2849W        W71078  36.853   1.705   3.909
 2850W        W71079  24.597  15.797  11.642
 2851W        W71080  16.348   5.753   0.400
 2852W        W71081  15.281  21.076   4.195
 2853W        W71082   1.780   3.202  13.434
 2854W        W71083  44.790  36.910   4.186
 2855W        W71084  15.187  42.980  11.218
 2856W        W71085  40.559  41.282  11.275
 2857W        W71086  43.129  28.862   1.839
 2858W        W71087  16.356  31.087   4.906
 2859W        W71088  11.379   1.251  14.319
 2860W        W71089   5.399  18.150  13.824
 2861W        W71090  38.805   1.503   1.745
 2862W        W71091  12.514  36.343   0.815
 2863W        W71092  20.643   9.427  10.648
 2864W        W71093   2.116  30.512  12.046
 2865W        W71094  42.306  44.869   1.504
 2866W        W71095  17.713  28.502  10.424
 2867W        W71096  37.881   2.148   1.886
 2868W        W71097  29.069  21.652  14.692
 2869W        W71098   7.996  28.453   0.323
 2870W        W71099  43.018   5.766   2.845
 2871W        W71100  29.379  22.140  14.848
 2872W        W71101  38.053  19.241   2.146
 2873W        W71102  27.937  11.772  11.089
 2874W        W71103  28.052  19.891  13.479
 2875W        W71104  21.020   5.368   4.124
 2876W        W71105  44.423  20.798  11.741
 2877W        W71106  20.637   7.640  10.605
 2878W        W71107   1.805  12.666   4.902
 2879W        W71108  10.744   4.171   1.892
 2880W        W71109  28.885  21.606  13.299
 2881W        W71110  26.493  40.925  14.348
 2882W        W71111   3.400  42.193   4.677
 2883W        W71112  23.274  43.024   1.448
 2884W        W71113  19.839  22.632  10.199
 2885W        W71114   5.256  35.277  13.925
 2886W        W71115  26.606  11.854  12.397
 2887W        W71116   4.222  40.110   0.347
 2888W        W71117  24.574  23.441  13.146
 2889W        W71118  23.683  22.325   3.517
 2890W        W71119   3.221  38.054   0.987
 2891W        W71120   3.040   2.912  14.530
 2892W        W71121  16.817  32.317  13.997
 2893W        W71122   5.464  33.351   1.362
 2894W        W71123  17.361  34.428  12.554
 2895W        W71124  20.955  32.112   2.351
 2896W        W71125   0.749   3.222  13.280
 2897W        W71126   2.490  28.083  11.563
 2898W        W71127  21.020  40.027   0.700
 2899W        W71128  33.435   3.014  10.635
 2900W        W71129   8.870   0.776  12.629
 2901W        W71130   7.683  24.484  11.975
 2902W        W71131   1.225   4.824  11.959
 2903W        W71132  29.515  12.135   0.712
 2904W        W71133  29.663  21.222   2.766
 2905W        W71134   2.353  14.840  10.809
 2906W        W71135   5.994  43.902  13.491
 2907W        W71136  21.230  32.579  10.497
 2908W        W71137  14.926  39.069   1.453
 2909W        W71138   9.297  29.340  12.829
 2910W        W71139  21.270  19.890   4.680
 2911W        W71140  40.941  36.432   2.934
 2912W        W71141  23.106   2.947   2.326
 2913W        W71142  11.698  10.110  14.300
 2914W        W71143  17.746  23.894   1.143
 2915W        W71144   7.860  36.035   1.394
 2916W        W71145  26.564  18.739   1.797
 2917W        W71146  40.970  12.317  12.934
 2918W        W71147  27.612  14.128   3.369
 2919W        W71148   4.150  25.772   1.800
 2920W        W71149  15.176   6.280  13.469
 2921W        W71150  39.954   7.996   5.016
 2922W        W71151  44.001  34.592  11.517
 2923W        W71152  23.737   0.382  13.575
 2924W        W71153  35.474  14.759   4.637
 2925W        W71154   5.941  40.263   0.126
 2926W        W71155  43.342   1.628   2.351
 2927W        W71156  19.539  33.092  12.371
 2928W        W71157   8.233  20.684   1.572
 2929W        W71158  39.444  14.027  13.032
 2930W        W71159   5.933  41.376  12.962
 2931W        W71160   4.447  18.367   0.174
 2932W        W71161  17.217  37.982   3.625
 2933W        W71162  44.977  16.500  12.533
 2934W        W71163  11.385  25.621  11.455
 2935W        W71164   2.290  13.165   3.174
 2936W        W71165   5.917   6.701  11.043
 2937W        W71166  35.129  44.911   0.308
 2938W        W71167  22.996  37.113  13.021
 2939W        W71168  40.637   7.772  13.446
 2940W        W71169  16.954   2.870  11.218
 2941W        W71170  22.775  19.818  14.819
 2942W        W71171   1.817  30.931  12.951
 2943W        W71172  21.151   1.675  11.997
 2944W        W71173  13.217  28.916   1.622
 2945W        W71174  26.694   7.863   4.372
 2946W        W71175  22.381  28.363   2.748
 2947W        W71176  26.855  19.207  11.156
 2948W        W71177  13.302  19.944  13.506
 2949W        W71178  36.410  11.140   2.205
 2950W        W71179  24.744  18.717  11.703
 2951W        W71180  41.522   9.776  11.067
 2952W        W71181  25.739   7.690  13.430
 2953W        W71182  25.502  16.150   1.830
 2954W        W71183   2.266  26.799  12.986
 2955W        W71184  35.401   6.912   4.036
 2956W        W71185  39.308  15.851   0.669
 2957W        W71186  36.143  34.599  11.945
 2958W        W71187  25.589  29.007  12.312
 2959W        W71188  42.426  17.711  12.358
 2960W        W71189  10.863   1.999   1.216
 2961W        W71190  27.081   4.905   2.090
 2962W        W71191  23.643  27.973  12.316
 2963W        W71192  28.141  33.938   5.401
 2964W        W71193  43.789  44.447   0.835
 2965W        W71194  18.127   8.407  14.252
 2966W        W71195  15.288  41.276   3.177
 2967W        W71196  43.130  32.338   0.249
 2968W        W71197  42.045  35.329   2.793
 2969W        W71198   1.958  37.918  14.132
 2970W        W71199  41.489  28.114  11.527
 2971W        W71200  44.297  24.855  13.937
 2972W        W71201  43.819  33.842  14.501
 2973W        W71202  12.145  25.611   3.723
 2974W        W71203   9.545  38.004  13.991
 2975W        W71204  33.747  31.596   1.930
 2976W        W71205  25.530   5.318  11.919
 2977W        W71206  20.061  14.886  11.475
 2978W        W71207  30.515   8.894  12.413
 2979W        W71208  23.512  36.012   4.569
 2980W        W71209  16.929  21.544   1.510
 2981W        W71210   0.687  36.148   0.367
 2982W        W71211  42.618  23.532  14.378
 2983W        W71212  15.828  12.840   0.981
 2984W        W71213  41.839   9.799   1.780
 2985W        W71214  33.396  23.567  12.073
 2986W        W71215  24.978  44.681  11.653
 2987W        W71216  20.497  37.539   0.243
 2988W        W71217  33.402   7.155  12.845
 2989W        W71218  12.032  40.462  11.707
 2990W        W71219  24.517   0.811  12.813
 2991W        W71220  26.768  10.319   0.281
 2992W        W71221   4.716  31.425  11.211
 2993W        W71222  16.894  16.558  13.622
 2994W        W71223  32.131  18.743   4.172
 2995W        W71224  42.940   1.862   0.035
 2996W        W71225  35.895   4.827   2.854
 2997W        W71226  28.047   6.562   3.330
 2998W        W71227  20.314  12.537  13.348
 2999W        W71228  21.978   7.960   2.501
 3000W        W71229  20.817  11.808   3.330
 3001W        W71230  13.268  22.267  11.787
 3002W        W71231  26.857  26.951   4.305
 3003W        W71232  31.959  34.837   2.243
 3004W        W71233  20.265  41.543   2.411
 3005W        W71234  23.372  18.103   0.490
 3006W        W71235   5.697  19.582   0.072
 3007W        W71236  29.399  42.496  13.476
 3008W        W71237  17.278  31.070   4.688
 3009W        W71238  16.159   9.463  10.684
 3010W        W71239  29.642  32.047  12.554
 3011W        W71240   6.311  44.187  14.975
 3012W        W71241  24.997  27.243   1.967
 3013W        W71242  37.576  25.921  11.241
 3014W        W71243   9.075   2.197   1.882
 3015W        W71244  31.580   8.903  14.511
 3016W        W71245  18.850  19.007   4.103
 3017W        W71246  21.904  34.104   1.679
 3018W        W71247  43.442  22.686   4.749
 3019W        W71248  16.274   6.285   0.287
 3020W        W71249   8.095  44.520  13.421
 3021W        W71250   1.330  22.851  11.398
 3022W        W71251  21.527  16.193   0.208
 3023W        W71252  26.715  31.912   1.697
 3024W        W71253   1.734  30.039   4.558
 3025W        W71254  34.384  34.911  12.537
 3026W        W71255  41.998  22.963  13.430
 3027W        W71256  38.857   6.786   4.536
 3028W        W71257  31.617  15.135  11.643
 3029W        W71258  26.855  23.013  13.078
 3030W        W71259   2.995  22.625   2.792
 3031W        W71260  20.146  26.666  13.341
 3032W        W71261  42.571  10.502   4.214
 3033W        W71262  39.070  10.270   4.154
 3034W        W71263   4.428  33.157   3.885
 3035W        W71264  36.450  10.220  13.336
 3036W        W71265  41.969  14.521  12.635
 3037W        W71266  11.208  44.385  11.483
 3038W        W71267  34.747  22.615  13.302
 3039W        W71268  38.370  16.474   3.343
 3040W        W71269  41.048  32.681   9.649
 3041W        W71270  42.656   1.140  12.438
 3042W        W71271  23.177  20.218  14.627
 3043W        W71272  32.642  19.602   0.231
 3044W        W71273   5.193  34.391   2.514
 3045W        W71274  33.012  24.694   4.311
 3046W        W71275  41.583  25.739   0.426
 3047W        W71276  16.738   5.925   4.542
 3048W        W71277   7.702   0.494   2.789
 3049W        W71278  23.719  36.402  13.194
 3050W        W71279   3.251   2.739   2.256
 3051W        W71280  11.645  32.180   2.235
 3052W        W71281  28.082  37.980  10.614
 3053W        W71282   9.943  34.668  13.445
 3054W        W71283  11.726  10.616  12.617
 3055W        W71284  43.083  23.041  10.517
 3056W        W71285  36.854  41.027   1.916
 3057W        W71286  29.528  33.019  10.653
 3058W        W71287   6.983  13.584   2.147
 3059W        W71288  11.768  40.916  11.693
 3060W        W71289   2.118  29.483   1.461
 3061W        W71290   9.889  44.894   0.197
 3062W        W71291  26.178  36.479   3.135
 3063W        W71292  39.007   0.017   2.706
 3064W        W71293  41.244   5.682   4.277
 3065W        W71294  24.725  25.551  10.783
 3066W        W71295  16.822  36.342   2.198
 3067W        W71296  30.308  32.486   2.244
 3068W        W71297  34.146   2.370  11.915
 3069W        W71298  27.794  19.029   2.790
 3070W        W71299  15.181  32.709  12.356
 3071W        W71300   3.956  18.051  13.773
 3072W        W71301  41.460  28.176  14.627
 3073W        W71302   9.268  38.481   4.842
 3074W        W71303   1.035  29.889  10.760
 3075W        W71304  35.932   0.356   0.694
 3076W        W71305  31.622  24.201   1.376
 3077W        W71306  34.334  13.382  11.653
 3078W        W71307  16.025  38.427   2.610
 3079W        W71308  32.515  28.719   3.206
 3080W        W71309  35.393  20.140   2.326
 3081W        W71310  24.922  12.517  11.972
 3082W        W71311  30.441   9.710  12.849
 3083W        W71312  22.372  31.057   2.058
 3084W        W71313  13.086   1.355   0.737
 3085W        W71314  22.992  35.652  12.465
 3086W        W71315  36.891  40.550  11.058
 3087W        W71316   8.435   8.813  14.395
 3088W        W71317   5.405  12.268  12.106
 3089W        W71318  42.845   1.857   4.151
 3090W        W71319  32.192   7.423   4.732
 3091W        W71320  28.576  19.008  13.806
 3092W        W71321  43.643  33.444  12.457
 3093W        W71322  25.925  20.113   2.912
 3094W        W71323  34.112  31.165   4.211
 3095W        W71324   0.519   6.439  10.730
 3096W        W71325  21.727  15.790  14.968
 3097W        W71326  36.357   4.879  10.649
 3098W        W71327  24.972   3.997   2.293
 3099W        W71328  36.980  21.587  11.398
 3100W        W71329  25.486  41.466  13.045
 3101W        W71330  38.744   5.028  10.171
 3102W        W71331   7.466  40.512   3.327
 3103W        W71332  20.134  13.786   3.323
 3104W        W71333  25.184  43.501  13.755
 3105W        W71334  27.036  39.058   1.348
 3106W        W71335  17.174   9.576   1.344
 3107W        W71336   2.481  42.323   1.734
 3108W        W71337  38.378  40.008  14.461
 3109W        W71338  10.290  17.484  14.253
 3110W        W71339  28.752  20.692  11.074
 3111W        W71340  40.545  35.210  13.837
 3112W        W71341   2.256  41.260  10.715
 3113W        W71342  12.471   1.991  14.084
 3114W        W71343  34.627  29.148  14.915
 3115W        W71344  39.989  22.215   3.657
 3116W        W71345  18.947  20.692   1.322
 3117W        W71346  10.629  43.436  12.735
 3118W        W71347  18.518  29.213   2.755
 3119W        W71348  32.666  32.414  14.304
 3120W        W71349   7.457  12.770   4.129
 3121W        W71350  44.809   8.025   3.225
 3122W        W71351  42.318  30.004   1.737
 3123W        W71352  41.545  23.036  13.134
 3124W        W71353  40.603   1.327   4.178
 3125W        W71354   6.992   7.148  14.423
 3126W        W71355  30.456  25.986  14.973
 3127W        W71356  13.715  19.586  13.711
 3128W        W71357  39.475  17.311   2.702
 3129W        W71358  27.506  40.507   2.356
 3130W        W71359   6.980  16.172  11.443
 3131W        W71360  25.984  36.343   1.611
 3132W        W71361  21.219   8.237   4.644
 3133W        W71362  25.607  14.640   9.963
 3134W        W71363  25.633  36.352  12.859
 3135W        W71364  29.889  17.518   0.378
 3136W        W71365  20.784  34.187  11.440
 3137W        W71366  15.660  24.174   2.529
 3138W        W71367  27.099  19.602   5.045
 3139W        W71368   6.477  31.531   0.913
 3140W        W71369  40.584  34.789  11.208
 3141W        W71370  14.256  26.443  12.571
 3142W        W71371  41.755   8.620  10.722
 3143W        W71372  39.268  33.560   4.220
 3144W        W71373  41.657   2.517   2.361
 3145W        W71374   7.839  29.710   4.912
 3146W        W71375  43.525  15.891   2.365
 3147W        W71376  33.871  13.368   1.251
 3148W        W71377   9.863   5.340   2.961
 3149W        W71378  24.503   2.960   1.801
 3150W        W71379  28.124  28.576   0.488
 3151W        W71380  32.799  35.754   0.768
 3152W        W71381   3.609  36.513   2.810
 3153W        W71382   4.719   9.655   4.154
 3154W        W71383  26.722  17.272   3.773
 3155W        W71384  44.510  32.126  13.456
 3156W        W71385  11.102  26.014   0.049
 3157W        W71386   1.258  40.111  11.469
 3158W        W71387  17.420  23.631   2.184
 3159W        W71388  10.157  11.506  10.227
 3160W        W71389  28.569  15.123  14.434
 3161W        W71390  30.489   9.445  11.541
 3162W        W71391  38.582  36.383  12.139
 3163W        W71392  42.867   8.821   4.625
 3164W        W71393   0.459   8.761   4.934
 3165W        W71394  33.693  32.691  11.122
 3166W        W71395  11.283  32.560   2.246
 3167W        W71396   3.406   3.864  10.779
 3168W        W71397  37.419  25.556  14.940
 3169W        W71398   1.960  33.598  11.648
 3170W        W71399   0.388  20.714  13.958
 3171W        W71400   2.245  43.817  10.949
 3172W        W71401  37.803  40.741  14.855
 3173W        W71402   4.300  12.146   0.725
 3174W        W71403  33.380   1.676  13.188
 3175W        W71404  34.839  20.059  13.292
 3176W        W71405  30.483  14.178   0.015
 3177W        W71406  31.361  23.216   3.749
 3178W        W71407  26.059  16.003  14.737
 3179W        W71408  35.828  16.183  14.336
 3180W        W71409  33.943   0.030   1.887
 3181W        W71410  39.197  43.269   4.502
 3182W        W71411  43.846  13.723  13.336
 3183W        W71412  33.378  29.109   1.854
 3184W        W71413  44.886  35.377   3.922
 3185W        W71414  10.832  20.750  14.888
 3186W        W71415  12.917  27.178   1.731
 3187W        W71416  16.071  31.525   4.523
 3188W        W71417  22.100  16.773   2.289
 3189W        W71418  38.511  28.293  13.257
 3190W        W71419   4.929  18.498   3.257
 3191W        W71420  32.004  37.886  13.860
 3192W        W71421  19.010  18.954   0.286
 3193W        W71422  35.992  33.347   3.547
 3194W        W71423   0.895  22.782   3.694
 3195W        W71424  17.318  31.587   3.125
 3196W        W71425  14.758  44.542  14.834
 3197W        W71426   0.721   4.715  11.033
 3198W        W71427   2.216   8.587  13.487
 3199W        W71428   2.790   8.004  13.438
 3200W        W71429  13.840  39.049   2.610
 3201W        W71430   4.689  40.365   4.108
 3202W        W71431  27.257  17.970   4.210
 3203W        W71432  24.275  12.825  13.838
 3204W        W71433  34.793  40.892   3.461
 3205W        W71434  10.389  22.068   0.375
 3206W        W71435  24.122  33.915   4.409
 3207W        W71436   8.637  28.119  13.337
 3208W        W71437  35.810  26.621   4.066
 3209W        W71438  11.589  42.101  11.077
 3210W        W71439   2.448   0.879  14.037
 3211W        W71440  36.054  19.925  14.789
 3212W        W71441  44.862  16.097   2.805
 3213W        W71442  12.383   6.869  12.352
 3214W        W71443  21.954  17.335  14.852
 3215W        W71444  40.952  18.129  14.421
 3216W        W71445   2.466   0.983  11.640
 3217W        W71446  12.253  10.277  10.607
 3218W        W71447  42.762  19.827   1.452
 3219W        W71448  27.792  27.519  13.018
 3220W        W71449  15.298  42.963   3.935
 3221W        W71450  25.427  36.393   1.006
 3222W        W71451  10.016  19.619   4.210
 3223W        W71452  29.390  33.024   0.828
 3224W        W71453  32.602  11.264  14.467
 3225W        W71454  26.727  25.732  14.917
 3226W        W71455  41.547  32.494  11.039
 3227W        W71456  11.634  29.067  10.499
 3228W        W71457  43.708   6.674   2.271
 3229W        W71458  17.807   5.939   2.785
 3230W        W71459   6.690   2.820   3.602
 3231W        W71460  30.973  33.967  14.789
 3232W        W71461   9.270  27.491  13.315
 3233W        W71462  17.587  37.836   1.243
 3234W        W71463  22.784  43.107   5.071
 3235W        W71464  16.757  30.196  13.237
 3236W        W71465  16.254  42.270  13.902
 3237W        W71466  12.558  39.638  12.350
 3238W        W71467   9.750   1.603  14.201
 3239W        W71468  23.156  40.053   3.226
 3240W        W71469   1.263   9.875  11.725
 3241W        W71470  27.409  32.515  13.219
 3242W        W71471  12.723  33.057   4.592
 3243W        W71472  16.774  36.493   3.165
 3244W        W71473  40.745   3.822   3.093
 3245W        W71474  14.671   7.116   1.724
 3246W        W71475  28.350  21.242  14.028
 3247W        W71476  12.061   5.116   3.639
 3248W        W71477  16.981  34.139  11.912
 3249W        W71478  21.075  39.195  12.427
 3250W        W71479  42.820  32.083  12.633
 3251W        W71480  16.848  12.235   0.216
 3252W        W71481  31.042  16.645  11.508
 3253W        W71482  39.251  33.010   3.766
 3254W        W71483  40.990   7.175  11.553
 3255W        W71484  13.838  39.542  11.889
 3256W        W71485  30.682  39.405   4.113
 3257W        W71486  31.782  27.434  14.366
 3258W        W71487  33.409  15.726  12.313
 3259W        W71488  17.552  27.942   0.911
 3260W        W71489   6.140  11.871  12.036
 3261W        W71490  37.544   3.339  14.313
 3262W        W71491  22.155  39.938   2.401
 3263W        W71492  29.597  26.670   0.174
 3264W        W71493  42.142  41.670   0.800
 3265W        W71494  14.232  41.321   0.680
 3266W        W71495  34.580  32.690   4.543
 3267W        W71496  44.453  16.077   3.180
 3268W        W71497  17.704  24.041  11.735
 3269W        W71498   4.420  44.367   3.353
 3270W        W71499  34.088  42.832   3.631
 3271W        W71500   9.347  44.253  12.060
 3272W        W71501  23.225   0.028  10.707
 3273W        W71502  10.284  37.099  13.341
 3274W        W71503   7.714  19.857  13.412
 3275W        W71504  14.823  31.625   1.829
 3276W        W71505  13.483  14.345   1.531
 3277W        W71506  29.891  23.201  14.834
 3278W        W71507   1.461  33.078   2.847
 3279W        W71508  24.421  28.541  12.419
 3280W        W71509   0.167  10.813   0.672
 3281W        W71510  36.154  42.312   0.397
 3282W        W71511  23.999  39.031   4.293
 3283W        W71512   6.869  18.862   4.956
 3284W        W71513   4.315  25.597  10.738
 3285W        W71514  25.747   8.173  12.482
 3286W        W71515   6.658   5.943   0.918
 3287W        W71516   7.569   8.457  14.386
 3288W        W71517  44.230   4.612  12.658
 3289W        W71518   0.489  24.940  14.588
 3290W        W71519   5.211  14.592   2.327
 3291W        W71520  42.880   9.151   4.233
 3292W        W71521  14.646  34.448   3.319
 3293W        W71522  25.708  14.395   5.475
 3294W        W71523  15.562  41.042  12.219
 3295W        W71524  44.954  31.310  11.990
 3296W        W71525  36.058  43.586   1.353
 3297W        W71526   9.350  28.375  12.873
 3298W        W71527   5.163   6.177  14.443
 3299W        W71528  38.562  12.124   1.001
 3300W        W71529   7.967  29.101  13.727
 3301W        W71530  37.735  21.069  13.861
 3302W        W71531  39.330  20.752  11.066
 3303W        W71532   1.001  37.368   1.336
 3304W        W71533  15.799  41.269   3.248
 3305W        W71534  36.308  39.254   2.067
 3306W        W71535  37.056  19.129  14.521
 3307W        W71536  37.903  32.884  13.958
 3308W        W71537  17.550  15.677   4.776
 3309W        W71538   5.159  38.944   3.592
 3310W        W71539  14.729  25.321   0.659
 3311W        W71540  18.693  20.827   0.427
 3312W        W71541  27.566  13.374  12.805
 3313W        W71542   6.218  13.317   4.245
 3314W        W71543  37.889  20.551   0.965
 3315W        W71544  19.577  14.685  11.544
 3316W        W71545   0.953  30.432  13.230
 3317W        W71546  22.710  26.221   2.252
 3318W        W71547  21.313   7.403  13.175
 3319W        W71548  16.794  16.140  11.837
 3320W        W71549   0.425   3.221   0.363
 3321W        W71550  40.949  32.536   5.084
 3322W        W71551  18.635  12.716  11.894
 3323W        W71552   2.828  21.609   2.439
 3324W        W71553   9.440   4.384  11.966
 3325W        W71554   6.117  34.214  11.630
 3326W        W71555   1.885  24.693   3.595
 3327W        W71556  38.917  43.973   3.530
 3328W        W71557   9.368  28.461   4.526
 3329W        W71558   9.665   5.163  13.627
 3330W        W71559   2.679  28.662  12.229
 3331W        W71560  20.222   5.237  13.503
 3332W        W71561   4.510  37.958  10.259
 3333W        W71562   7.651  24.967  14.310
 3334W        W71563  19.611  23.526   5.181
 3335W        W71564  12.680  42.943  11.159
 3336W        W71565  24.149  11.124  14.365
 3337W        W71566  34.498  24.716  13.346
 3338W        W71567  40.096  44.881  14.284
 3339W        W71568  26.677  13.355   4.099
 3340W        W71569   0.179  44.510   4.746
 3341W        W71570  29.224  11.878   1.878
 3342W        W71571  18.843  21.028  14.972
 3343W        W71572  42.297   8.855   1.407
 3344W        W71573   6.180  13.280  11.696
 3345W        W71574  21.846  41.563  10.621
 3346W        W71575  40.864  22.777  11.574
 3347W        W71576   5.805  26.634  14.784
 3348W        W71577  41.597  12.819   9.833
 3349W        W71578  40.847  29.793  12.573
 3350W        W71579  36.428  18.601   4.692
 3351W        W71580  11.104  33.350  14.943
 3352W        W71581  42.048  28.499  14.369
 3353W        W71582   3.255  14.025  12.868
 3354W        W71583  26.697   8.714   2.283
 3355W        W71584  16.778  35.159   1.946
 3356W        W71585  34.417  43.697  13.053
 3357W        W71586  12.580  40.012  13.884
 3358W        W71587  13.251  29.906  12.929
 3359W        W71588  14.691   0.542   4.662
 3360W        W71589  33.925  11.736  12.276
 3361W        W71590   6.787  23.929   1.510
 3362W        W71591  12.056  42.024  14.222
 3363W        W71592  31.900  38.400   0.758
 3364W        W71593  43.439  27.219   3.146
 3365W        W71594   6.235  20.799   4.255
 3366W        W71595  27.129  15.684  10.658
 3367W        W71596  25.788  33.124   1.875
 3368W        W71597   3.858   0.984  11.589
 3369W        W71598  27.430  40.245   0.795
 3370W        W71599  27.582  22.192   1.286
 3371W        W71600  19.655  30.013   2.826
 3372W        W71601   3.891  24.203   0.684
 3373W        W71602  25.001   5.424   4.235
 3374W        W71603   0.086  37.093  13.412
 3375W        W71604  42.041  28.641  10.773
 3376W        W71605  34.681  13.171  12.003
 3377W        W71606  32.469  21.090   2.479
 3378W        W71607  12.334  32.464   0.740
 3379W        W71608  19.755  24.543  14.907
 3380W        W71609  12.512  40.998   3.669
 3381W        W71610  13.800  22.719   3.614
 3382W        W71611  34.496  18.518  10.732
 3383W        W71612  38.745  23.817   1.719
 3384W        W71613  21.436  24.527  10.746
 3385W        W71614   7.148  15.822   3.088
 3386W        W71615   8.842  30.637   3.348
 3387W        W71616   7.331  29.280   0.745
 3388W        W71617  11.432  36.510   3.338
 3389W        W71618  33.976  40.827   1.423
 3390W        W71619  33.125   8.243  14.445
 3391W        W71620  11.664  18.510   3.332
 3392W        W71621  10.173  14.069   4.074
 3393W        W71622  20.871  14.693   1.233
 3394W        W71623  27.964  13.521   0.965
 3395W        W71624  40.479  39.914   3.683
 3396W        W71625   5.878   8.122  11.289
 3397W        W71626  28.707  29.888  13.541
 3398W        W71627  10.443  11.400  12.356
 3399W        W71628  20.272  36.149  10.789
 3400W        W71629   2.844   1.869  13.992
 3401W        W71630   0.968  29.105   1.337
 3402W        W71631   9.232  21.531  12.023
 3403W        W71632   3.811   2.487   4.634
 3404W        W71633   4.172  44.900   2.243
 3405W        W71634  12.431  24.373  12.802
 3406W        W71635   0.225  30.092   4.400
 3407W        W71636   4.884  14.165   1.344
 3408W        W71637  15.788  32.111   4.599
 3409W        W71638  10.724  11.367   0.024
 3410W        W71639   0.364  43.429   4.719
 3411W        W71640  23.176  20.715  14.391
 3412W        W71641  19.184   4.771   2.290
 3413W        W71642  20.254   7.096  13.906
 3414W        W71643  31.495   2.165   4.718
 3415W        W71644  38.491   1.413   2.168
 3416W        W71645  11.068  16.460   0.237
 3417W        W71646  33.002  33.424   4.186
 3418W        W71647  14.847  36.892  14.808
 3419W        W71648  26.996  17.266   2.515
 3420W        W71649  25.685   5.428   2.311
 3421W        W71650  18.295   4.150  14.573
 3422W        W71651  42.993  13.256  11.624
 3423W        W71652  28.373   3.618  14.150
 3424W        W71653  43.886  34.404  12.328
 3425W        W71654  20.305  14.081   0.268
 3426W        W71655  36.984   6.898  10.995
 3427W        W71656  40.556   7.228   1.329
 3428W        W71657  26.017  17.196  13.352
 3429W        W71658  11.946  38.894   0.890
 3430W        W71659  28.187  13.002  10.357
 3431W        W71660  23.594  14.847  13.060
 3432W        W71661  15.058  43.550   1.236
 3433W        W71662   7.594  44.404   1.273
 3434W        W71663  28.986   7.079   1.889
 3435W        W71664  28.496   9.831  10.687
 3436W        W71665  13.061   4.978  13.521
 3437W        W71666  40.978   8.447   0.235
 3438W        W71667  15.958  17.457  11.612
 3439W        W71668  17.077  38.162  14.043
 3440W        W71669  30.700  37.654   3.847
 3441W        W71670   4.852   2.249  14.602
 3442W        W71671  23.800  22.323   4.484
 3443W        W71672   3.234  20.543   1.742
 3444W        W71673   4.436  25.519  11.215
 3445W        W71674   3.739  38.914   4.903
 3446W        W71675  39.766  33.465  14.430
 3447W        W71676  19.710   7.217  10.865
 3448W        W71677  16.070  15.712   1.849
 3449W        W71678  16.409  40.061   3.125
 3450W        W71679  12.907  10.638  12.116
 3451W        W71680  10.659   1.793  14.315
 3452W        W71681  34.332   0.442  10.643
 3453W        W71682  35.319   9.611  10.150
 3454W        W71683  38.577  25.614   1.932
 3455W        W71684  39.963  19.333  11.922
 3456W        W71685  43.351  31.475   4.630
 3457W        W71686  29.333  32.293  10.377
 3458W        W71687  34.058  35.823  12.853
 3459W        W71688   2.950  27.421   2.921
 3460W        W71689  13.062   3.910   1.953
 3461W        W71690  21.999  30.869   1.720
 3462W        W71691   1.743  19.646   1.298
 3463W        W71692  21.692   2.741  13.486
 3464W        W71693   2.686  39.475   1.923
 3465W        W71694  14.577  39.589  13.889
 3466W        W71695  17.578  23.452   1.347
 3467W        W71696  38.869  21.501   0.849
 3468W        W71697  41.767  21.085   0.314
 3469W        W71698   2.349  37.553   9.823
 3470W        W71699  44.278  20.314  11.701
 3471W        W71700  17.026  19.949   5.431
 3472W        W71701  28.170   9.321   2.471
 3473W        W71702  27.254  10.423  12.476
 3474W        W71703  13.738   1.184  11.708
 3475W        W71704  22.628  25.681   2.109
 3476W        W71705   9.150  37.839   0.489
 3477W        W71706   2.774  43.608  14.385
 3478W        W71707  20.218  27.911  11.777
 3479W        W71708  35.215  20.169  12.407
 3480W        W71709  27.553  31.249  13.876
 3481W        W71710  44.260  24.171   4.023
 3482W        W71711  11.474   1.219  10.661
 3483W        W71712  18.021   4.264   1.366
 3484W        W71713  44.755  17.664  11.915
 3485W        W71714  30.560  34.006   2.901
 3486W        W71715   0.883  26.229  10.921
 3487W        W71716  37.002  30.101   9.796
 3488W        W71717  36.337   7.200   2.352
 3489W        W71718  43.000  40.444  14.810
 3490W        W71719   4.980  30.497   4.576
 3491W        W71720  18.665  30.127  11.444
 3492W        W71721   6.354  10.752   2.623
 3493W        W71722  24.450  15.597   2.369
 3494W        W71723   3.477  24.339   3.756
 3495W        W71724  18.263   0.662  11.989
 3496W        W71725  26.711  12.106   4.252
 3497W        W71726  13.929  32.683  13.439
 3498W        W71727  22.712  34.928   2.295
 3499W        W71728   7.159   3.815  11.213
 3500W        W71729  31.329  20.770   4.290
 3501W        W71730  18.632  36.413  14.965
 3502W        W71731  26.047  11.529  13.148
 3503W        W71732  20.049  24.114  11.366
 3504W        W71733  18.779   9.585   0.367
 3505W        W71734  38.782  13.083   1.426
 3506W        W71735   7.966  11.323  11.179
 3507W        W71736  35.631  31.912   2.488
 3508W        W71737  39.515  43.395   0.829
 3509W        W71738  30.934   3.934  14.114
 3510W        W71739  37.621  18.077  13.450
 3511W        W71740  30.694  26.682   1.068
 3512W        W71741  17.557   6.581  11.617
 3513W        W71742  36.088   9.000   2.186
 3514W        W71743   2.811  40.070   3.938
 3515W        W71744   7.411  12.890   1.962
 3516W        W71745   1.812  31.213   1.314
 3517W        W71746  12.392  40.073   1.158
 3518W        W71747  22.176   3.239  12.059
 3519W        W71748  39.426  25.046   2.612
 3520W        W71749  13.788  29.863  12.282
 3521W        W71750  20.958   7.979   1.773
 3522W        W71751  25.399  12.334   0.075
 3523W        W71752  19.751  39.553  13.390
 3524W        W71753  38.025  12.738  11.108
 3525W        W71754  28.496  10.418  14.948
 3526W        W71755  32.426  40.537  12.548
 3527W        W71756  40.916  24.727   2.372
 3528W        W71757  31.597   7.227   0.774
 3529W        W71758   2.745  41.331   2.567
 3530W        W71759   2.885  17.803   4.568
 3531W        W71760  44.743  27.557  11.217
 3532W        W71761  20.813  12.703  13.418
 3533W        W71762  26.143  14.824   5.045
 3534W        W71763  25.552  38.010   3.204
 3535W        W71764  39.997  35.444   1.423
 3536W        W71765   0.353  10.627   1.674
 3537W        W71766  36.890  23.274  12.559
 3538W        W71767   7.106  22.042   1.400
 3539W        W71768  17.373  14.386  11.206
 3540W        W71769  38.087  27.072   4.293
 3541W        W71770  19.808  12.679   3.741
 3542W        W71771  24.961  26.433   3.222
 3543W        W71772  17.709  22.247  14.975
 3544W        W71773  37.266   0.180  10.274
 3545W        W71774   3.030  12.944   4.195
 3546W        W71775  40.558   2.567  12.485
 3547W        W71776  23.522  13.144  12.474
 3548W        W71777  29.214   6.442   4.650
 3549W        W71778  16.036  31.076  12.539
 3550W        W71779  33.279  38.357   4.153
 3551W        W71780  29.665  26.040  14.549
 3552W        W71781  28.495  29.670   0.788
 3553W        W71782  22.149  13.436   2.877
 3554W        W71783   5.660   8.792   3.341
 3555W        W71784  19.127  11.276   4.279
 3556W        W71785   7.873  16.143  12.211
 3557W        W71786  11.623   3.410   3.299
 3558W        W71787   1.696  33.142   3.302
 3559W        W71788  13.157  10.096   3.609
 3560W        W71789  11.094  33.981  13.218
 3561W        W71790  38.108  35.586   0.416
 3562W        W71791  30.332  43.480  13.801
 3563W        W71792   7.849  38.150  13.474
 3564W        W71793  14.949  28.810   3.755
 3565W        W71794  32.441   9.962  13.857
 3566W        W71795   9.965  12.120  11.846
 3567W        W71796  20.143  37.492  11.087
 3568W        W71797  40.081  42.996   1.370
 3569W        W71798  27.584  31.531  11.229
 3570W        W71799  44.287   5.841  12.951
 3571W        W71800  12.379  38.048   1.342
 3572W        W71801  42.244  13.329   1.719
 3573W        W71802  30.998  24.115  14.059
 3574W        W71803  29.370  24.935  14.745
 3575W        W71804  32.909  42.713   0.900
 3576W        W71805  33.530  43.043   4.479
 3577W        W71806   8.147   0.908  14.026
 3578W        W71807  31.061   0.234  10.863
 3579W        W71808  39.683  19.195  14.512
 3580W        W71809  15.757   7.686   1.223
 3581W        W71810  40.331  42.808  10.750
 3582W        W71811  34.753  22.837  11.784
 3583W        W71812  32.419  22.150  14.551
 3584W        W71813  13.761   6.815  10.651
 3585W        W71814  36.832  15.663   3.393
 3586W        W71815  31.206  42.020  11.406
 3587W        W71816  20.301  40.382   4.069
 3588W        W71817  16.157  15.125  14.456
 3589W        W71818   2.235  14.086  14.899
 3590W        W71819  22.001  27.885   1.005
 3591W        W71820   6.801   7.255   2.827
 3592W        W71821  35.176  18.678   1.993
 3593W        W71822   4.473  37.794   2.627
 3594W        W71823  30.988  23.604   4.550
 3595W        W71824   3.276  41.041  11.226
 3596W        W71825  38.056  21.576   2.491
 3597W        W71826  16.283  16.036   2.645
 3598W        W71827  23.543  17.495  13.818
 3599W        W71828   4.916   3.880  10.563
 3600W        W71829  37.810  36.891  14.319
 3601W        W71830  30.519   9.980  11.578
 3602W        W71831  29.165  41.252  11.555
 3603W        W71832   3.337  15.605  11.186
 3604W        W71833   1.280  11.180  12.647
 3605W        W71834   0.044  34.146   0.391
 3606W        W71835  19.057  44.313  13.491
 3607W        W71836  38.245  12.620   3.707
 3608W        W71837  14.164   0.235   0.733
 3609W        W71838  29.088   6.364   0.502
 3610W        W71839  28.248   5.769  10.741
 3611W        W71840  11.876  24.848  14.032
 3612W        W71841  30.166  26.561   4.286
 3613W        W71842  35.375  44.882  12.430
 3614W        W71843  40.263   8.791  14.220
 3615W        W71844  24.858   6.604   2.029
 3616W        W71845  39.850  38.782   0.800
 3617W        W71846   1.239  33.484   0.723
 3618W        W71847  15.004   7.932  12.453
 3619W        W71848  44.404  16.283  14.676
 3620W        W71849  39.328  29.253  10.719
 3621W        W71850  20.949   7.589   1.248
 3622W        W71851  26.316   4.227   2.814
 3623W        W71852  18.385  27.139  12.330
 3624W        W71853  29.489  40.922   3.936
 3625W        W71854   7.172  27.818  14.076
 3626W        W71855  36.938  27.891  14.763
 3627W        W71856  29.482  20.131   1.392
 3628W        W71857  15.456   5.403  10.675
 3629W        W71858  11.661  33.970  11.843
 3630W        W71859  31.520  19.172  10.977
 3631W        W71860  30.649  24.890  14.498
 3632W        W71861   0.926   7.233  14.699
 3633W        W71862  12.107  26.791  13.014
 3634W        W71863   7.342  10.837   0.762
 3635W        W71864  26.591  33.663  11.517
 3636W        W71865  10.707  25.475   1.936
 3637W        W71866   8.855  37.088  13.269
 3638W        W71867  13.335   5.461  11.961
 3639W        W71868   7.000  40.052  13.783
 3640W        W71869  22.659  41.313  11.728
 3641W        W71870   7.864  37.482  13.392
 3642W        W71871  27.611   2.234  11.520
 3643W        W71872  40.490   6.276  11.609
 3644W        W71873  14.660  16.607   0.012
 3645W        W71874  26.974  40.986   0.948
 3646W        W71875   0.886  22.308  12.154
 3647W        W71876   2.904   3.364   1.798
 3648W        W71877  39.407  36.673   0.272
 3649W        W71878  32.617  43.307  13.962
 3650W        W71879   6.560   4.336   0.323
 3651W        W71880  28.481  28.090   3.875
 3652W        W71881  34.872  25.458   3.863
 3653W        W71882  31.971  30.121  11.831
 3654W        W71883  23.686  41.434   1.942
 3655W        W71884  32.419  25.397   1.337
 3656W        W71885  35.410  10.231   4.498
 3657W        W71886  31.222  10.308  14.380
 3658W        W71887  20.096   8.122  13.874
 3659W        W71888   9.663  23.033  10.588
 3660W        W71889   4.770  37.847  12.880
 3661W        W71890  27.913  38.580   0.674
 3662W        W71891  15.843   6.128  14.554
 3663W        W71892  33.973  36.394   2.760
 3664W        W71893  29.376  21.029  12.980
 3665W        W71894  37.847   8.677   0.466
 3666W        W71895  26.902  18.139  14.181
 3667W        W71896  16.787  19.641   9.956
 3668W        W71897  32.814  27.288  10.913
 3669W        W71898  38.297   8.265  13.304
 3670W        W71899  35.955  18.105  12.972
 3671W        W71900  13.879  36.930   3.650
 3672W        W71901   5.929  34.704  11.662
 3673W        W71902  43.419  38.249  12.595
 3674W        W71903  17.763  44.506   4.091
 3675W        W71904  23.940  14.135  13.843
 3676W        W71905  34.851   6.243  13.864
 3677W        W71906  23.722  38.049  13.462
 3678W        W71907  35.102  19.991  13.712
 3679W        W71908  15.463   6.424   4.528
 3680W        W71909  30.243  19.070  10.329
 3681W        W71910  31.786  41.651   0.373
 3682W        W71911  28.571  11.328   2.288
 3683W        W71912   4.003   8.124  14.465
 3684W        W71913   4.985  44.362  12.542
 3685W        W71914  40.787  29.008  12.817
 3686W        W71915  13.408  35.165   4.158
 3687W        W71916  36.976  17.000  14.286
 3688W        W71917  17.742  39.041  14.950
 3689W        W71918   0.045   7.879   0.014
 3690W        W71919  25.972   9.352   2.534
 3691W        W71920  18.337   7.002  11.023
 3692W        W71921  41.269   5.780  11.476
 3693W        W71922   0.498   1.691   1.393
 3694W        W71923   3.074  18.254   0.488
 3695W        W71924   5.855  39.387   5.004
 3696W        W71925  22.166   3.673  12.601
 3697W        W71926   0.148  25.723   0.598
 3698W        W71927  17.565   7.220   4.617
 3699W        W71928  11.246  18.046  10.947
 3700W        W71929  17.872  33.021  13.055
 3701W        W71930  40.337   5.328  10.466
 3702W        W71931  12.586  10.835   3.084
 3703W        W71932   7.375  38.295   1.681
 3704W        W71933  38.063  20.245  10.649
 3705W        W71934  29.510  16.715   0.520
 3706W        W71935  24.198  40.966   4.008
 3707W        W71936   1.783   1.281  10.586
 3708W        W71937  29.854   0.856  11.299
 3709W        W71938   9.664   1.402  11.735
 3710W        W71939  13.430  34.573  11.888
 3711W        W71940  18.228  29.038   0.113
 3712W        W71941   3.300  11.591  14.745
 3713W        W71942  27.918  32.095  12.202
 3714W        W71943  42.552  22.450   2.750
 3715W        W71944   1.826  11.309   2.275
 3716W        W71945  10.679  23.719   1.395
 3717W        W71946  42.366  15.272   3.842
 3718W        W71947  36.421  23.544   4.670
 3719W        W71948  14.935   0.975  12.025
 3720W        W71949  20.824  26.235   3.218
 3721W        W71950  31.695  11.292  14.504
 3722W        W71951  20.433   3.825  10.808
 3723W        W71952  19.753  18.176   0.828
 3724W        W71953  35.075   8.741  12.455
 3725W        W71954  37.939  19.578  12.004
 3726W        W71955   9.701  35.232   0.813
 3727W        W71956  11.409   8.950  10.677
 3728W        W71957  35.206  20.437   1.933
 3729W        W71958  19.403  39.260   1.337
 3730W        W71959  28.326  34.125   0.303
 3731W        W71960  40.931  32.440   0.801
 3732W        W71961  16.559  10.401   0.446
 3733W        W71962  25.816  10.814   3.775
 3734W        W71963  18.073  38.222  12.940
 3735W        W71964  24.807  17.775  11.669
 3736W        W71965  16.674   7.796  12.673
 3737W        W71966  35.380   5.859  12.702
 3738W        W71967   2.360  22.773  12.085
 3739W        W71968   8.735   7.430  11.638
 3740W        W71969  39.839   9.806  13.034
 3741W        W71970  35.737  25.032   0.892
 3742W        W71971   4.281   5.898  11.116
 3743W        W71972  37.923  20.196   2.289
 3744W        W71973  12.816  38.366   1.327
 3745W        W71974  39.450   8.141  12.538
 3746W        W71975  41.929  18.040  12.103
 3747W        W71976   2.744  39.518   2.539
 3748W        W71977   3.064  33.758   2.192
 3749W        W71978  23.442  35.389  11.621
 3750W        W71979  40.468  19.847   1.460
 3751W        W71980  23.500  39.149  12.046
 3752W        W71981  11.482   8.986   3.675
 3753W        W71982  21.739   4.836  12.169
 3754W        W71983  40.172  28.406   4.612
 3755W        W71984   6.368   8.456   0.785
 3756W        W71985   5.726  32.415  10.719
 3757W        W71986  28.189  21.422   1.224
 3758W        W71987   3.087  26.700  14.901
 3759W        W71988  42.349  11.361   0.206
 3760W        W71989  37.419  29.794  10.803
 3761W        W71990  33.117  43.379  11.154
 3762W        W71991  21.833  22.584  13.868
 3763W        W71992  36.046  42.150  14.505
 3764W        W71993  39.850  33.908   0.207
 3765W        W71994  34.526   5.898   4.663
 3766W        W71995  11.736   4.650   2.768
 3767W        W71996   3.194  29.464  12.338
 3768W        W71997  14.648  11.433  11.171
 3769W        W71998  31.066   8.798   4.617
 3770W        W71999  44.004  37.033  12.037
 3771W        W72000   8.998  38.088   4.575
 3772W        W72001  25.163  36.989  13.427
 3773W        W72002  38.811  10.419   3.116
 3774W        W72003  11.301   6.485  11.604
 3775W        W72004  12.813  30.623  14.012
 3776W        W72005  31.823   5.094  13.513
 3777W        W72006  35.638   3.787   2.329
 3778W        W72007  23.671   9.384  14.493
 3779W        W72008  28.107  26.160   0.404
 3780W        W72009  11.018  37.070   0.121
 3781W        W72010  30.437   0.869   3.368
 3782W        W72011  31.055  29.088   1.160
 3783W        W72012   5.875  18.115   2.296
 3784W        W72013   4.199  13.550   3.355
 3785W        W72014  11.424   3.426  13.084
 3786W        W72015  35.751  19.057   3.265
 3787W        W72016  42.394  35.362   1.004
 3788W        W72017  15.416   5.242   2.713
 3789W        W72018  34.895  24.121  10.291
 3790W        W72019   1.883  16.153   0.484
 3791W        W72020  38.335  11.539  10.966
 3792W        W72021   5.017  27.656   3.355
 3793W        W72022  43.301  34.878   2.716
 3794W        W72023   6.235  20.301   4.399
 3795W        W72024  18.349  41.506   1.619
 3796W        W72025  44.559  25.958  11.138
 3797W        W72026  44.541  17.501  10.949
 3798W        W72027   5.901  25.739  11.637
 3799W        W72028   0.506  24.999   1.255
 3800W        W72029   2.998   5.760  14.928
 3801W        W72030  19.712  19.225   1.781
 3802W        W72031   0.289  17.841   4.668
 3803W        W72032  38.982   5.638  14.390
 3804W        W72033  38.490  15.158   3.435
 3805W        W72034  14.369   7.802  11.839
 3806W        W72035  43.350  22.697  13.437
 3807W        W72036  11.614  37.481   0.924
 3808W        W72037   8.659  38.158  12.409
 3809W        W72038  21.015   8.990  13.950
 3810W        W72039  16.810  19.670   4.067
 3811W        W72040  14.257   3.313   1.924
 3812W        W72041  27.507   3.959  12.016
 3813W        W72042  35.938  25.961   4.657
 3814W        W72043  18.172  11.525  11.233
 3815W        W72044  15.785  43.380   2.353
 3816W        W72045   5.712  13.231  13.795
 3817W        W72046  18.601  31.600   4.635
 3818W        W72047  38.524   5.707  13.814
 3819W        W72048  23.040   0.068   2.361
 3820W        W72049  10.983  35.531  11.843
 3821W        W72050  12.816   1.809   0.700
 3822W        W72051  33.233  18.662   1.870
 3823W        W72052  39.947  22.615  14.571
 3824W        W72053   1.971  32.538   4.598
 3825W        W72054  12.766  37.905  14.703
 3826W        W72055  44.988  23.435  11.086
 3827W        W72056  38.132  29.902  11.657
 3828W        W72057  34.599  43.813   1.500
 3829W        W72058  36.335  27.652   2.813
 3830W        W72059  28.498   0.000  10.572
 3831W        W72060  32.017  43.319   2.841
 3832W        W72061  25.143  37.506  13.529
 3833W        W72062  27.234  40.091  14.887
 3834W        W72063  29.872   9.356   4.061
 3835W        W72064  41.256  34.815  12.586
 3836W        W72065  10.207  30.971   2.837
 3837W        W72066  37.263   1.484   0.799
 3838W        W72067  28.994  39.460   3.390
 3839W        W72068  10.271  41.533   2.108
 3840W        W72069  43.708   8.732   2.092
 3841W        W72070  10.321  11.235  10.647
 3842W        W72071  13.207  42.026   4.198
 3843W        W72072  44.959  39.849   2.304
 3844W        W72073  10.392   4.850   4.005
 3845W        W72074  20.620   3.740  14.855
 3846W        W72075   0.742  10.357  10.728
 3847W        W72076  25.099  34.668  12.552
 3848W        W72077  18.211   9.708  14.887
 3849W        W72078  11.964  23.927   4.107
 3850W        W72079  38.814   2.152  13.848
 3851W        W72080   9.711  13.391   4.520
 3852W        W72081  11.189  34.605   4.595
 3853W        W72082  26.369   0.341  13.552
 3854W        W72083   4.266  43.920  12.209
 3855W        W72084   7.181  14.561  14.427
 3856W        W72085  13.974  42.292   1.860
 3857W        W72086   5.945  37.100  10.765
 3858W        W72087  17.318  12.280  14.989
 3859W        W72088  13.676  39.472   3.889
 3860W        W72089  28.407  39.526  10.683
 3861W        W72090  24.978  19.046   2.371
 3862W        W72091   7.726  17.048  12.104
 3863W        W72092   5.184   9.289   1.881
 3864W        W72093  23.142  22.050   2.843
 3865W        W72094  39.094   5.848   4.197
 3866W        W72095   5.033   9.526   2.629
 3867W        W72096  17.692  16.708  11.048
 3868W        W72097   0.772  41.422  13.296
 3869W        W72098  12.309  19.223   4.783
 3870W        W72099  40.475  20.576  11.533
 3871W        W72100  40.885   8.123  11.755
 3872W        W72101   0.465  33.553  10.467
 3873W        W72102  13.444  14.198  10.161
 3874W        W72103  20.194  24.845   2.351
 3875W        W72104   1.977  26.201  12.608
 3876W        W72105  23.463  24.698  13.965
 3877W        W72106   2.055  17.728   1.388
 3878W        W72107  43.509  42.419   0.075
 3879W        W72108  44.004  38.431   1.787
 3880W        W72109   4.912  23.433  10.694
 3881W        W72110   2.892  44.549   0.459
 3882W        W72111  29.411  28.564   3.877
 3883W        W72112  15.391  44.313   4.527
 3884W        W72113  30.650  23.064  10.665
 3885W        W72114  11.717  23.750  13.950
 3886W        W72115  11.824  27.410  11.581
 3887W        W72116  40.411  18.220   3.910
 3888W        W72117  18.458  17.079  12.393
 3889W        W72118   6.606  40.728   1.254
 3890W        W72119   1.463  25.466   1.595
 3891W        W72120   4.876  21.964   3.811
 3892W        W72121  24.506  16.667  14.057
 3893W        W72122   3.186  43.704  11.118
 3894W        W72123  35.119   1.507  13.865
 3895W        W72124  23.574  11.434   2.832
 3896W        W72125  40.729  21.132  10.795
 3897W        W72126  21.825   6.862  12.043
 3898W        W72127  18.586  44.981  13.124
 3899W        W72128  24.518   6.922   2.918
 3900W        W72129  25.628  29.925   2.361
 3901W        W72130  25.262   6.221  13.269
 3902W        W72131  21.050  25.688   0.925
 3903W        W72132   4.504  36.349  10.209
 3904W        W72133   4.860  20.327  14.350
 3905W        W72134  32.128  31.424  11.983
 3906W        W72135   9.120  21.023  12.134
 3907W        W72136  39.918  23.064   1.748
 3908W        W72137   0.199  32.853  13.011
 3909W        W72138  10.173  42.454   3.734
 3910W        W72139   0.418  37.358  10.676
 3911W        W72140  35.708   0.843   4.244
 3912W        W72141  30.185   0.504  14.290
 3913W        W72142  14.058  17.429  13.621
 3914W        W72143  35.862   3.315  13.815
 3915W        W72144   7.447   0.042  11.091
 3916W        W72145  25.815   0.680   1.617
 3917W        W72146   6.360  36.854   1.859
 3918W        W72147  36.416  30.187   1.236
 3919W        W72148  19.833  26.955  12.560
 3920W        W72149  42.175  25.166   1.225
 3921W        W72150  27.693  26.038  12.314
 3922W        W72151  35.021  37.096   2.444
 3923W        W72152  25.096  32.819   3.647
 3924W        W72153   0.805   4.329   2.402
 3925W        W72154  26.906  20.725  13.266
 3926W        W72155  32.287  29.793  11.527
 3927W        W72156  15.152   3.836  11.960
 3928W        W72157  38.269  20.359  14.714
 3929W        W72158  40.414  30.783   2.377
 3930W        W72159   8.310  36.449  14.481
 3931W        W72160  35.525   0.272  11.085
 3932W        W72161   2.026  33.477   1.571
 3933W        W72162   8.739  22.095  10.431
 3934W        W72163  28.421   9.307  14.961
 3935W        W72164  20.737  42.524   0.359
 3936W        W72165  23.446  31.684   1.753
 3937W        W72166  11.226   0.261   0.214
 3938W        W72167  28.033  42.116   1.673
 3939W        W72168  35.344  25.466   3.627
 3940W        W72169  24.996  16.073   0.466
 3941W        W72170  12.629   2.290   0.652
 3942W        W72171  33.979   4.999   0.053
 3943W        W72172  28.990  15.197  12.352
 3944W        W72173  34.043  37.595  12.997
 3945W        W72174  23.504  11.596  11.618
 3946W        W72175   3.440   7.458  12.379
 3947W        W72176   3.027  22.112   4.088
 3948W        W72177  20.263   9.308   2.748
 3949W        W72178  29.077  18.734   2.333
 3950W        W72179  19.248  26.165  11.522
 3951W        W72180   1.082  44.757   1.901
 3952W        W72181  13.758   6.705   3.389
 3953W        W72182  21.145   6.158   1.426
 3954W        W72183  22.827  20.068   0.453
 3955W        W72184  41.711  14.127  10.690
 3956W        W72185  33.861  23.803  12.019
 3957W        W72186   3.300   4.907   3.784
 3958W        W72187  44.244  43.456  14.831
 3959W        W72188   7.250  31.544   2.415
 3960W        W72189   2.118   0.755   1.934
 3961W        W72190   9.107  43.808  12.056
 3962W        W72191  26.292   0.652   4.427
 3963W        W72192  24.264  21.410   5.147
 3964W        W72193  16.315  27.184   4.232
 3965W        W72194   6.930   3.232  13.270
 3966W        W72195  15.647  28.441   0.175
 3967W        W72196  20.064  20.432  13.699
 3968W        W72197  40.475  41.935   3.136
 3969W        W72198  24.652  32.872  10.982
 3970W        W72199  39.525  37.770  13.423
 3971W        W72200  33.846   9.953   3.743
 3972W        W72201  36.666  34.491   5.048
 3973W        W72202  12.722  27.549  10.832
 3974W        W72203  21.607  28.088  11.128
 3975W        W72204  14.362  12.150   1.384
 3976W        W72205  23.401  24.244  11.621
 3977W        W72206  42.859  11.822  13.245
 3978W        W72207  24.610  28.067   4.412
 3979W        W72208  14.630  16.400   2.401
 3980W        W72209  17.759  43.824  12.495
 3981W        W72210  42.015  44.535   4.149
 3982W        W72211  32.588  13.974  14.833
 3983W        W72212  24.865   5.407   0.774
 3984W        W72213  19.605  40.953  14.328
 3985W        W72214   7.234  18.510   1.672
 3986W        W72215  21.992  10.683  12.840
 3987W        W72216  14.428  34.563  10.715
 3988W        W72217  44.905  13.303  12.427
 3989W        W72218   1.304  37.269  14.311
 3990W        W72219  32.484   8.804   1.839
 3991W        W72220  22.071  23.744   3.720
 3992W        W72221  38.960  28.174   0.056
 3993W        W72222  39.973  44.815   2.584
 3994W        W72223  27.903  14.276  10.646
 3995W        W72224  38.950   2.699  12.007
 3996W        W72225  31.815  29.481   1.270
 3997W        W72226   7.393  29.988  14.961
 3998W        W72227  39.897  39.620   4.756
 3999W        W72228   1.733  19.045  13.609
 4000W        W72229   9.386  27.067   1.790
 4001W        W72230  18.624  39.332   0.754
 4002W        W72231   0.182  31.369   2.856
 4003W        W72232  10.702  31.892   0.884
 4004W        W72233  39.301   3.291  13.284
 4005W        W72234   8.492  22.472   3.215
 4006W        W72235  16.825  24.560   0.920
 4007W        W72236   8.393  16.694  11.098
 4008W        W72237  34.884  41.887   1.844
 4009W        W72238  35.785   3.389   0.288
 4010W        W72239  41.519  33.486   2.665
 4011W        W72240   3.125  22.844   4.653
 4012W        W72241   2.945  34.642   3.723
 4013W        W72242  41.257  44.487   1.918
 4014W        W72243  34.578   5.283  14.824
 4015W        W72244  37.898  30.494   3.149
 4016W        W72245  28.365   2.932  11.608
 4017W        W72246  31.497  26.218  13.890
 4018W        W72247  27.097  18.160  12.381
 4019W        W72248   5.820  22.604   3.893
 4020W        W72249  10.886  10.566  11.789
 4021W        W72250  17.571  36.098   3.160
 4022W        W72251  43.347  37.621  14.824
 4023W        W72252  37.355  40.320   2.790
 4024W        W72253  29.606  24.125   4.584
 4025W        W72254  13.680  36.903  11.236
 4026W        W72255  43.810  20.060   2.613
 4027W        W72256  18.106  26.328   2.683
 4028W        W72257  42.104  44.210  12.775
 4029W        W72258  29.302  10.248  11.213
 4030W        W72259  42.399   2.488  11.532
 4031W        W72260  10.649  25.639   1.446
 4032W        W72261  24.598  31.118   3.238
 4033W        W72262   4.836   4.908  12.287
 4034W        W72263  22.732  22.484  13.875
 4035W        W72264   2.045   0.330   4.637
 4036W        W72265  33.786  22.989   4.237
 4037W        W72266  19.465   0.828   0.406
 4038W        W72267  35.040  21.637   4.471
 4039W        W72268   0.845  24.341  12.611
 4040W        W72269   2.938  10.136  12.172
 4041W        W72270   3.891  44.020  12.563
 4042W        W72271   1.847  30.177   3.199
 4043W        W72272  11.531  17.102  13.889
 4044W        W72273  12.894   5.203  13.995
 4045W        W72274   8.959  32.591   0.962
 4046W        W72275  35.607  12.046  11.237
 4047W        W72276  13.858  20.261  12.091
 4048W        W72277   5.970  16.248   0.883
 4049W        W72278   2.510  26.131   3.596
 4050W        W72279   5.337  41.819  14.655
 4051W        W72280  19.618   6.343   2.702
 4052W        W72281  34.608   0.293   3.160
 4053W        W72282  27.425  38.474  12.507
 4054W        W72283  18.871  18.512   0.838
 4055W        W72284  34.745  31.545   0.690
 4056W        W72285   9.901   2.549   2.363
 4057W        W72286   0.237  38.882  12.019
 4058W        W72287  17.622  43.167  13.109
 4059W        W72288  15.867  37.812  14.472
 4060W        W72289   5.617  35.554   3.305
 4061W        W72290  15.050  34.453   4.093
 4062W        W72291  11.832  18.582   4.339
 4063W        W72292   8.303   8.814  11.263
 4064W        W72293   4.102  10.303   3.861
 4065W        W72294  11.886   4.682   1.034
 4066W        W72295  13.435  37.494  13.688
 4067W        W72296  17.261  27.633   1.287
 4068W        W72297  26.245  26.849   3.137
 4069W        W72298   6.185  38.598  12.452
 4070W        W72299  38.382  35.017   0.531
 4071W        W72300  44.544  13.860  11.133
 4072W        W72301  17.068   6.634  14.748
 4073W        W72302  28.404  34.651  14.012
 4074W        W72303  33.271  27.875  10.213
 4075W        W72304  33.895   3.917  12.991
 4076W        W72305  31.669  26.207  12.538
 4077W        W72306  16.566  18.349   2.708
 4078W        W72307   8.019  19.363   1.158
 4079W        W72308  25.156  35.974  12.088
 4080W        W72309   0.191  19.606   1.348
 4081W        W72310  31.458   5.779   1.969
 4082W        W72311  12.762  22.998  11.702
 4083W        W72312  40.075  19.542  13.483
 4084W        W72313  17.795  16.915  11.918
 4085W        W72314   3.265  33.156  11.873
 4086W        W72315  23.897  41.960  12.042
 4087W        W72316  25.441  13.959  11.111
 4088W        W72317  16.652  22.676  11.560
 4089W        W72318  30.184   3.155   1.307
 4090W        W72319  31.184  33.208   0.404
 4091W        W72320  13.221   7.926   4.227
 4092W        W72321  40.440  38.328  10.747
 4093W        W72322  22.720  15.088   3.352
 4094W        W72323   0.389   8.715  11.182
 4095W        W72324   3.074   0.541   0.307
 4096W        W72325  18.730  39.567  14.523
 4097W        W72326  25.883   7.491   3.329
 4098W        W72327  43.910   2.977  12.513
 4099W        W72328  18.297   7.511  11.059
 4100W        W72329  28.041  37.311   0.876
 4101W        W72330  32.209   3.860   1.725
 4102W        W72331   9.561  11.842   2.826
 4103W        W72332  34.879  44.040  12.585
 4104W        W72333  26.588  24.114   4.295
 4105W        W72334   6.400  35.528  10.697
 4106W        W72335  10.740  40.745   2.239
 4107W        W72336  16.831  35.080  14.245
 4108W        W72337   1.371  26.101  13.167
 4109W        W72338   8.308  36.235   3.678
 4110W        W72339  21.110   4.774   3.388
 4111W        W72340  28.681  13.868   1.397
 4112W        W72341  29.889  18.221  10.756
 4113W        W72342  37.309   1.369   4.584
 4114W        W72343  12.328  29.311   3.189
 4115W        W72344   0.951  23.686   1.927
 4116W        W72345  22.708  26.013  12.614
 4117W        W72346  33.442  31.666   2.739
 4118W        W72347  40.386  36.816   0.905
 4119W        W72348  12.473   2.388  13.299
 4120W        W72349  23.212  16.354   3.684
 4121W        W72350   5.334  34.997  14.446
 4122W        W72351  17.155   9.314   4.523
 4123W        W72352  18.221  23.572  11.188
 4124W        W72353  22.697  18.900   2.616
 4125W        W72354  11.846   4.371  12.541
 4126W        W72355   2.903   9.094   0.003
 4127W        W72356  31.076  41.559  11.198
 4128W        W72357  10.614  12.027   1.218
 4129W        W72358  18.587  28.005  14.564
 4130W        W72359  40.950  16.790   4.562
 4131W        W72360  13.863  25.200  14.796
 4132W        W72361  22.092  15.124  14.643
 4133W        W72362  26.477   9.754   1.944
 4134W        W72363  16.054  18.534  11.437
 4135W        W72364  24.251  38.527   2.117
 4136W        W72365   2.955  32.414  11.983
 4137W        W72366  41.386  31.149  12.095
 4138W        W72367  37.572  35.529  14.316
 4139W        W72368  13.604   5.900  13.437
 4140W        W72369  10.228  43.776   2.775
 4141W        W72370   6.418   5.429  13.940
 4142W        W72371  27.514  32.779   3.166
 4143W        W72372  39.985   4.370  13.788
 4144W        W72373  11.762  20.187  14.592
 4145W        W72374  23.546  19.481   4.085
 4146W        W72375  37.594  14.409   0.284
 4147W        W72376  25.150  36.360   0.186
 4148W        W72377   7.295  27.588   4.445
 4149W        W72378  16.560   4.848  12.066
 4150W        W72379   8.655  16.304   2.019
 4151W        W72380  25.302  24.828  14.071
 4152W        W72381  19.674  25.597   4.635
 4153W        W72382  24.699  10.552   0.919
 4154W        W72383   1.417  30.833   4.233
 4155W        W72384  42.614  25.471   2.711
 4156W        W72385   0.602  23.243   4.609
 4157W        W72386   3.686  37.131   1.778
 4158W        W72387   2.714  19.543  13.404
 4159W        W72388   6.139  24.112   2.004
 4160W        W72389   0.762  25.407   3.705
 4161W        W72390  41.533   8.156   3.261
 4162W        W72391  24.231  31.067  14.391
 4163W        W72392  13.289  16.287   4.645
 4164W        W72393   9.793  41.915   4.504
 4165W        W72394  11.407  44.944   1.342
 4166W        W72395  26.174  29.955  14.461
 4167W        W72396   4.537  37.065  10.602
 4168W        W72397   8.890  36.051   5.261
 4169W        W72398   8.935   3.743  12.614
 4170W        W72399  23.588   5.444   3.158
 4171W        W72400  25.154  22.470   4.616
 4172W        W72401  23.228  14.631  13.351
 4173W        W72402  24.222   8.339   3.258
 4174W        W72403  20.833  14.841  12.945
 4175W        W72404  25.199  21.569   1.687
 4176W        W72405  22.848  14.881  14.884
 4177W        W72406  42.391  30.030   4.626
 4178W        W72407  29.184   1.222  13.783
 4179W        W72408  41.703  15.507  12.868
 4180W        W72409  30.657   3.885   1.956
 4181W        W72410  40.043  10.305  11.573
 4182W        W72411  17.713  11.660  13.536
 4183W        W72412   8.428  41.608  12.446
 4184W        W72413   2.027   6.112  13.474
 4185W        W72414  18.212  41.152  13.359
 4186W        W72415  34.995   4.332   4.113
 4187W        W72416  21.038   1.885  12.866
 4188W        W72417  30.929  43.682  12.631
 4189W        W72418  27.023  16.189  10.665
 4190W        W72419  33.018  35.966   4.565
 4191W        W72420  13.130  36.466   4.758
 4192W        W72421   0.100  31.916   1.240
 4193W        W72422  13.862   1.811   1.969
 4194W        W72423  39.912  30.690   3.092
 4195W        W72424  11.795  15.914  12.198
 4196W        W72425   8.166  25.012  10.714
 4197W        W72426  40.351  44.137   2.438
 4198W        W72427  32.093  33.986   2.229
 4199W        W72428  34.495   3.305  14.581
 4200W        W72429  43.815  29.730  13.315
 4201W        W72430  30.502  26.262   5.010
 4202W        W72431  29.705   4.290  13.975
 4203W        W72432   2.895  31.110   1.776
 4204W        W72433   9.632  40.583   3.546
 4205W        W72434  12.658  15.854  12.902
 4206W        W72435  26.192  13.309  13.476
 4207W        W72436  16.685  10.327   2.464
 4208W        W72437  23.437   4.466  12.010
 4209W        W72438  17.050   2.065   5.133
 4210W        W72439  20.334   9.067  11.491
 4211W        W72440   9.850  24.112   2.787
 4212W        W72441  43.815  38.926  13.439
 4213W        W72442  43.455  29.386   2.350
 4214W        W72443  33.963  31.389  14.008
 4215W        W72444  20.651  29.719   0.982
 4216W        W72445   6.887  41.441  14.947
 4217W        W72446   4.918   1.957   3.711
 4218W        W72447  41.771   5.841  11.524
 4219W        W72448  20.731   7.214   3.854
 4220W        W72449  21.468  26.712  11.474
 4221W        W72450  27.427  31.413   0.972
 4222W        W72451  28.994  33.626  13.970
 4223W        W72452  41.554  11.626  13.200
 4224W        W72453  29.594  34.508  11.043
 4225W        W72454   0.300   8.845  11.668
 4226W        W72455   4.335  21.589  12.964
 4227W        W72456  30.013  34.023  13.148
 4228W        W72457  40.971  43.051   1.305
 4229W        W72458  23.043  11.922  12.673
 4230W        W72459   3.721  38.539  13.785
 4231W        W72460  17.231   6.558   4.088
 4232W        W72461  22.577  33.452  11.692
 4233W        W72462  36.760  22.687   2.819
 4234W        W72463  16.741  30.956   2.343
 4235W        W72464   1.854  10.340   0.370
 4236W        W72465  44.948  42.883  11.774
 4237W        W72466  27.376  10.131  11.181
 4238W        W72467   9.198  32.005  12.398
 4239W        W72468  11.811  41.969   4.686
 4240W        W72469  10.782  12.761  10.152
 4241W        W72470  33.878  20.180   0.282
 4242W        W72471  33.597   1.250  12.110
 4243W        W72472  25.507   4.421  11.729
 4244W        W72473  40.129  34.065  11.610
 4245W        W72474  12.327  38.350  14.386
 4246W        W72475  36.136  22.654  12.526
 4247W        W72476   3.309  26.914  13.593
 4248W        W72477  35.890  20.836   4.089
 4249W        W72478  41.335  22.536  14.474
 4250W        W72479  37.565  12.566   1.835
 4251W        W72480   8.762  21.074  10.605
 4252W        W72481   3.750  12.630   3.295
 4253W        W72482  31.446  14.847  14.486
 4254W        W72483  16.641  33.861  12.721
 4255W        W72484  44.960  30.480   1.829
 4256W        W72485  35.282   1.013   0.284
 4257W        W72486  30.765  41.005  12.164
 4258W        W72487  35.672  18.643   2.166
 4259W        W72488  11.295  14.143   2.345
 4260W        W72489   5.269  13.198  14.068
 4261W        W72490  28.631  41.587   0.621
 4262W        W72491  40.515  20.526  12.559
 4263W        W72492  21.845   7.543   3.063
 4264W        W72493  12.364   8.631   4.729
 4265W        W72494   6.446   8.212   3.270
 4266W        W72495   3.063  37.340  12.682
 4267W        W72496  41.470  43.141  13.373
 4268W        W72497  36.596   6.665   2.241
 4269W        W72498  16.313  15.068   2.562
 4270W        W72499  38.347  15.359  12.385
 4271W        W72500  10.320  37.013   3.890
 4272W        W72501  43.026   9.414   0.724
 4273W        W72502  31.119  42.875   3.097
 4274W        W72503  15.094  14.028   4.746
 4275W        W72504  36.394  23.755   2.399
 4276W        W72505  36.993  30.133  10.814
 4277W        W72506   9.715   4.260  14.835
 4278W        W72507  27.312   7.140   3.012
 4279W        W72508  22.768   7.205   4.667
 4280W        W72509   7.565  39.571  13.473
 4281W        W72510  14.130  32.380   2.394
 4282W        W72511  26.715  23.401   3.609
 4283W        W72512  16.678  30.053   4.403
 4284W        W72513  28.377   1.466  11.944
 4285W        W72514  28.004  41.751   2.641
 4286W        W72515  38.403  42.422  11.210
 4287W        W72516  11.253  17.840   4.796
 4288W        W72517  20.735  40.422  11.090
 4289W        W72518  33.155  29.181   3.203
 4290W        W72519  10.386  43.543  11.071
 4291W        W72520  17.221   3.236  10.907
 4292W        W72521  34.608  31.689   3.632
 4293W        W72522  36.130  44.381  14.811
 4294W        W72523  36.009   3.291  11.469
 4295W        W72524  20.126  14.458  11.746
 4296W        W72525  12.104   7.364  12.869
 4297W        W72526   6.195  27.634   4.047
 4298W        W72527  10.250   1.887  14.013
 4299W        W72528  35.613  25.635   2.305
 4300W        W72529  18.701  34.650  12.460
 4301W        W72530   8.205   6.608  14.936
 4302W        W72531   9.717  17.130  14.928
 4303W        W72532  27.702  37.929  14.838
 4304W        W72533  34.319  27.447   2.893
 4305W        W72534  37.958   5.433   2.870
 4306W        W72535   3.787  15.322  11.229
 4307W        W72536   2.577  12.582   1.381
 4308W        W72537  18.723  34.024   4.093
 4309W        W72538   3.687   3.377  10.665
 4310W        W72539   9.255  29.680   0.759
 4311W        W72540  13.664  33.981  11.576
 4312W        W72541   8.776  32.102   2.281
 4313W        W72542  19.117   9.252   4.940
 4314W        W72543  42.436  35.607   3.742
 4315W        W72544  29.937  14.598   2.812
 4316W        W72545   0.354  37.617  12.017
 4317W        W72546  17.462  25.185   5.714
 4318W        W72547  23.408  33.825   3.629
 4319W        W72548   6.278  12.750   0.541
 4320W        W72549  16.591   9.936   0.214
 4321W        W72550  32.906  37.622  10.644
 4322W        W72551  26.060  14.213  13.721
 4323W        W72552  17.717  26.269   1.432
 4324W        W72553  42.104  10.685   0.357
 4325W        W72554  12.186  28.645  13.009
 4326W        W72555  32.946  33.541   3.662
 4327W        W72556   5.728  14.209  13.860
 4328W        W72557  40.396  20.405   0.551
 4329W        W72558  42.792   3.495   2.018
 4330W        W72559   6.188  38.943   5.039
 4331W        W72560  33.793  42.423  10.384
 4332W        W72561  29.203  10.722  13.948
 4333W        W72562   7.205  33.584   2.210
 4334W        W72563  21.226  20.986   1.476
 4335W        W72564   0.226  21.401  14.267
 4336W        W72565  16.223  18.781  13.229
 4337W        W72566  14.688  28.197   3.175
 4338W        W72567  17.318  36.294   1.394
 4339W        W72568   6.496  12.519   0.975
 4340W        W72569  24.699   7.602  13.927
 4341W        W72570  17.642  32.403  14.829
 4342W        W72571  20.801  15.120  14.386
 4343W        W72572  20.111  26.446   4.605
 4344W        W72573  44.524  12.810   2.880
 4345W        W72574  40.822  28.989  10.122
 4346W        W72575  44.304  34.068  12.389
 4347W        W72576  33.405  39.426   1.378
 4348W        W72577   4.123  27.261  14.227
 4349W        W72578   7.183  20.742   0.863
 4350W        W72579  17.572   3.961   4.242
 4351W        W72580  43.566  37.171   1.290
 4352W        W72581  33.150  42.999  10.604
 4353W        W72582  34.929  12.652   2.546
 4354W        W72583  15.213  13.544   1.565
 4355W        W72584  19.955  44.390  14.926
 4356W        W72585  10.822  34.011  14.446
 4357W        W72586  29.593   6.926  12.057
 4358W        W72587  31.962  30.544  13.653
 4359W        W72588  44.936  22.638  14.309
 4360W        W72589  21.308   6.706   3.300
 4361W        W72590   7.102  31.571  12.087
 4362W        W72591  19.822  30.814   2.378
 4363W        W72592  35.282  13.086  10.618
 4364W        W72593  20.792  11.648  11.841
 4365W        W72594  12.313  18.233  13.629
 4366W        W72595  25.076  27.502   1.015
 4367W        W72596  13.328   7.871   1.754
 4368W        W72597  23.300  14.827   4.525
 4369W        W72598   8.498  38.036   4.411
 4370W        W72599  11.868  17.275   2.641
 4371W        W72600   2.246   6.789  14.943
 4372W        W72601  25.675  34.959  13.006
 4373W        W72602  18.557   0.094  13.993
 4374W        W72603  22.693   2.095  12.614
 4375W        W72604  19.098  39.050  13.885
 4376W        W72605   7.522  19.846  10.447
 4377W        W72606  31.627  39.511   3.149
 4378W        W72607  29.963  44.396  12.496
 4379W        W72608   4.792  42.500  14.375
 4380W        W72609  39.626  20.004   1.324
 4381W        W72610  35.472  23.455   0.253
 4382W        W72611  16.344  28.197  14.019
 4383W        W72612  38.818  35.368  14.842
 4384W        W72613  27.458   4.837   4.161
 4385W        W72614  32.089  16.091   4.776
 4386W        W72615  28.042  36.481   5.018
 4387W        W72616  33.888  33.853   0.458
 4388W        W72617   8.789   6.618  13.895
 4389W        W72618  30.385   0.204  10.788
 4390W        W72619  34.052  34.657  12.145
 4391W        W72620  26.050  22.727   4.157
 4392W        W72621  17.689  36.616   3.184
 4393W        W72622  18.098   9.195  14.855
 4394W        W72623   0.087  38.766   3.152
 4395W        W72624   8.885  28.128  14.205
 4396W        W72625  21.773   1.399   4.659
 4397W        W72626  36.223  13.898  14.369
 4398W        W72627  23.309  29.953  12.396
 4399W        W72628  35.840  14.277  14.333
 4400W        W72629   8.389  10.564   3.780
 4401W        W72630  19.677  27.047  10.884
 4402W        W72631  41.462  34.335   3.136
 4403W        W72632  22.998  41.895  11.920
 4404W        W72633  42.567  23.359   2.604
 4405W        W72634   1.248  27.080  10.620
 4406W        W72635  10.031  18.067   2.130
 4407W        W72636  24.218  35.853  12.862
 4408W        W72637  13.524  38.209   4.623
 4409W        W72638  44.447  12.297   3.766
 4410W        W72639   3.343   1.842   2.404
 4411W        W72640  26.157  25.757  14.302
 4412W        W72641  16.521  30.553   3.285
 4413W        W72642   7.315   2.567  11.561
 4414W        W72643  24.886  44.369   2.265
 4415W        W72644  44.493   4.175   1.642
 4416W        W72645  30.761   9.100   3.198
 4417W        W72646  15.606  13.962  12.536
 4418W        W72647  39.180  33.096  14.319
 4419W        W72648  42.998  26.494  12.510
 4420W        W72649  12.642  16.006   1.719
 4421W        W72650  14.116  35.524   0.327
 4422W        W72651  33.975  29.556   0.302
 4423W        W72652  41.740   9.651   1.266
 4424W        W72653  16.264  27.963   2.919
 4425W        W72654   5.587  36.658  13.267
 4426W        W72655  31.266  24.497   3.033
 4427W        W72656  38.111  29.388   1.387
 4428W        W72657   3.576   4.250   4.177
 4429W        W72658  30.016  33.051   3.697
 4430W        W72659  42.253  29.499   1.684
 4431W        W72660  36.316   4.779  14.385
 4432W        W72661  15.095  20.641  13.068
 4433W        W72662  14.559  36.963  14.300
 4434W        W72663  33.888  13.089  11.674
 4435W        W72664  42.055  37.106  13.267
 4436W        W72665  19.837  23.660   3.290
 4437W        W72666  40.523   0.144  10.464
 4438W        W72667  44.015  14.589  13.579
 4439W        W72668  43.842   5.338   1.812
 4440W        W72669  16.764  25.732  10.153
 4441W        W72670  26.434  39.834   4.696
 4442W        W72671   2.927   4.708  10.196
 4443W        W72672   7.483  24.830   5.123
 4444W        W72673  10.400  41.541  10.477
 4445W        W72674  18.603  35.124   0.440
 4446W        W72675  19.688   4.455  10.887
 4447W        W72676  41.338   5.219  13.778
 4448W        W72677  43.959  28.053   1.663
 4449W        W72678  17.000  34.402   4.872
 4450W        W72679  29.171  18.954   1.858
 4451W        W72680  12.324  11.089  11.187
 4452W        W72681  33.443   6.222  10.755
 4453W        W72682   9.337   6.952   0.301
 4454W        W72683  39.395   9.238  14.939
 4455W        W72684   2.621  13.269  11.921
 4456W        W72685  39.618   4.789  10.688
 4457W        W72686  42.200  43.293  10.805
 4458W        W72687  22.489  43.574   5.061
 4459W        W72688  24.459  13.792   1.184
 4460W        W72689  18.540  39.442  11.187
 4461W        W72690  37.992  23.799  10.780
 4462W        W72691  40.574  27.140  14.356
 4463W        W72692  26.018   2.872  12.016
 4464W        W72693   2.356  30.486  12.928
 4465W        W72694  42.076   1.273   4.531
 4466W        W72695  17.884  39.955   1.771
 4467W        W72696  21.908   4.825   1.661
 4468W        W72697  27.447  10.159   0.846
 4469W        W72698  23.074  25.468   1.436
 4470W        W72699  42.785   2.754   0.130
 4471W        W72700  38.208  23.742   1.597
 4472W        W72701  26.721  10.733  14.561
 4473W        W72702   4.463  41.146   1.292
 4474W        W72703   0.020  19.278  10.735
 4475W        W72704   5.977  43.485  11.859
 4476W        W72705  25.010  26.219  12.035
 4477W        W72706  43.707   5.705   0.311
 4478W        W72707  23.281  23.186  10.670
 4479W        W72708  42.028  33.353  11.984
 4480W        W72709  25.971  14.287  10.522
 4481W        W72710  10.265   8.016   4.589
 4482W        W72711   9.881  16.386  10.465
 4483W        W72712   1.365  10.896  14.401
 4484W        W72713  20.593  10.082   0.679
 4485W        W72714  44.467  22.504   1.163
 4486W        W72715   4.169  17.218  13.529
 4487W        W72716  21.723   9.545   3.702
 4488W        W72717  15.264  38.600  10.519
 4489W        W72718   1.021  17.780   1.184
 4490W        W72719  25.735  32.857  13.376
 4491W        W72720  18.134   3.331   2.575
 4492W        W72721  27.584  31.215   0.246
 4493W        W72722  15.698   2.706   0.415
 4494W        W72723  34.220  39.488  14.890
 4495W        W72724  11.703  16.944  14.533
 4496W        W72725  16.505  44.789  14.769
 4497W        W72726   3.370  33.648  10.532
 4498W        W72727  32.666   1.427  13.361
 4499W        W72728  42.547  15.168  11.597
 4500W        W72729  27.500  25.997  13.770
 4501W        W72730  23.175   7.730  12.150
 4502W        W72731  43.880  10.136  11.561
 4503W        W72732  41.915  41.796   1.854
 4504W        W72733   9.876  41.837   1.284
 4505W        W72734  38.277  32.387  12.353
 4506W        W72735  34.840  36.482   4.612
 4507W        W72736  15.408  37.248   4.217
 4508W        W72737  31.058  12.658   1.958
 4509W        W72738   0.850   8.433   1.445
 4510W        W72739  23.657   4.689   4.384
 4511W        W72740  33.554  29.406  12.963
 4512W        W72741  34.401  23.660  12.907
 4513W        W72742  19.747  38.328   1.417
 4514W        W72743  44.730   3.422   2.304
 4515W        W72744  37.228   9.541   4.955
 4516W        W72745  41.055   8.225   2.356
 4517W        W72746  15.235  12.151  11.089
 4518W        W72747  43.283  33.762   3.947
 4519W        W72748  20.860  44.471  12.929
 4520W        W72749   0.866  24.043   3.632
 4521W        W72750  20.237   9.870  14.881
 4522W        W72751  37.999  14.779   1.903
 4523W        W72752  10.673   1.093   1.230
 4524W        W72753  38.042  29.616   0.894
 4525W        W72754  12.668  34.022   0.906
 4526W        W72755  28.468  40.785   4.078
 4527W        W72756  41.668   7.712   2.134
 4528W        W72757  21.978   6.197   0.180
 4529W        W72758   3.876   8.166   1.332
 4530W        W72759   4.677  31.942  11.024
 4531W        W72760   5.468  16.140   3.182
 4532W        W72761  22.537  13.177  10.330
 4533W        W72762  15.932  14.615  12.116
 4534W        W72763  12.826  22.554   2.001
 4535W        W72764   0.825  37.471  14.937
 4536W        W72765  35.837   7.712   0.307
 4537W        W72766  22.995  14.748   4.950
 4538W        W72767  39.626   3.259  13.672
 4539W        W72768  19.823  41.347   3.806
 4540W        W72769  24.531  13.589   3.414
 4541W        W72770  44.068  27.175  13.427
 4542W        W72771  21.256  22.073   4.646
 4543W        W72772  30.968  12.437  12.173
 4544W        W72773  43.249   9.583  13.181
 4545W        W72774   6.730  11.276  10.471
 4546W        W72775  26.548  22.528  14.517
 4547W        W72776  31.697  39.970  13.469
 4548W        W72777  23.450   9.114   2.371
 4549W        W72778   8.394  42.221   1.340
 4550W        W72779  37.979  44.057  11.004
 4551W        W72780   3.277  38.258  13.518
 4552W        W72781  21.648  17.696   2.324
 4553W        W72782   4.926  20.701  13.549
 4554W        W72783  14.578  13.738   0.005
 4555W        W72784  32.378  29.671   3.070
 4556W        W72785   9.684   5.807   4.500
 4557W        W72786  24.262   1.663   0.684
 4558W        W72787  10.288   2.517   2.755
 4559W        W72788  31.976   4.762  10.721
 4560W        W72789  36.681  28.613   2.922
 4561W        W72790  12.857  12.674   2.559
 4562W        W72791   0.177  19.489  14.292
 4563W        W72792  40.679  15.752   5.017
 4564W        W72793   0.946  38.971   4.612
 4565W        W72794   8.827  36.381   2.810
 4566W        W72795  43.210  13.256  12.095
 4567W        W72796   0.784  15.812   4.161
 4568W        W72797  31.128  38.686   0.284
 4569W        W72798  25.564  24.129  13.316
 4570W        W72799  37.484  10.895  11.939
 4571W        W72800  17.660  22.950   1.432
 4572W        W72801  44.505   9.760   5.040
 4573W        W72802  24.137   5.353   2.312
 4574W        W72803  19.091  39.701   2.268
 4575W        W72804  37.805   5.774   4.524
 4576W        W72805  22.727  39.986  12.396
 4577W        W72806  22.139  44.738  13.558
 4578W        W72807  40.556  14.667  13.327
 4579W        W72808  41.792   2.436  14.777
 4580W        W72809  10.765  23.914  12.995
 4581W        W72810  31.433  16.179  12.642
 4582W        W72811  35.482  44.790  12.939
 4583W        W72812  29.472  41.990  13.533
 4584W        W72813  32.012  31.184  14.437
 4585W        W72814  10.308   0.412   3.296
 4586W        W72815   4.254  20.933  12.079
 4587W        W72816  28.601  39.837  12.432
 4588W        W72817  19.440  33.605  13.010
 4589W        W72818  38.652  42.796  12.490
 4590W        W72819  10.123   0.843  14.184
 4591W        W72820  38.110   1.981   2.859
 4592W        W72821   7.396  24.539   2.180
 4593W        W72822  22.428   4.861  13.972
 4594W        W72823   5.630   1.751  13.315
 4595W        W72824  28.168  30.435   2.298
 4596W        W72825  13.808   6.819   2.504
 4597W        W72826  14.057  38.271  12.916
 4598W        W72827  19.731   1.987  10.829
 4599W        W72828  13.096  23.084  13.449
 4600W        W72829   2.400  40.074  11.508
 4601W        W72830  32.074  22.379  12.563
 4602W        W72831  38.423  23.438   3.730
 4603W        W72832   1.253  14.055   3.182
 4604W        W72833  30.432  16.950  12.643
 4605W        W72834  38.736  41.560   3.462
 4606W        W72835  14.053  24.786  11.522
 4607W        W72836  19.194  34.619   2.430
 4608W        W72837  23.713   2.451   0.324
 4609W        W72838   7.056   3.688  13.537
 4610W        W72839  42.878  18.009  12.241
 4611W        W72840   0.734   1.897   3.286
 4612W        W72841  41.891  39.596   1.320
 4613W        W72842  11.802   2.317   4.775
 4614W        W72843  32.576  12.706   0.534
 4615W        W72844  35.427  10.460  12.556
 4616W        W72845  31.437   7.274  14.768
 4617W        W72846   9.081  24.971  11.896
 4618W        W72847  24.866  22.256   1.034
 4619W        W72848  20.765  44.962   0.017
 4620W        W72849  19.218  41.962   0.775
 4621W        W72850  23.628  26.508   0.875
 4622W        W72851  23.559  13.132   0.792
 4623W        W72852  44.026  37.511   4.951
 4624W        W72853  21.120   1.223  12.236
 4625W        W72854  35.147  18.691   4.301
 4626W        W72855   6.307  38.146   1.311
 4627W        W72856  38.410  20.955   4.635
 4628W        W72857   7.972  11.577   3.571
 4629W        W72858  17.864  44.160  10.227
 4630W        W72859  20.502  20.746   1.427
 4631W        W72860   5.893  30.470   3.222
 4632W        W72861  24.280  12.166   2.989
 4633W        W72862  39.838   8.114  11.522
 4634W        W72863   0.308  12.314   0.343
 4635W        W72864  21.584  10.638   1.895
 4636W        W72865   8.739  16.550   1.437
 4637W        W72866   3.467  30.405   0.047
 4638W        W72867  31.516  13.170  14.693
 4639W        W72868  13.620   7.621   0.387
 4640W        W72869  33.528  31.079   1.840
 4641W        W72870  36.383  23.172  10.446
 4642W        W72871  15.398  36.340   1.635
 4643W        W72872  32.451  12.265  11.933
 4644W        W72873  27.143  35.414   4.199
 4645W        W72874  11.132  24.313   0.549
 4646W        W72875   6.492   5.468   0.717
 4647W        W72876   0.808  31.675  14.236
 4648W        W72877  12.646  25.886   0.017
 4649W        W72878  14.184  34.618  14.437
 4650W        W72879  34.471   3.907   2.560
 4651W        W72880  36.525  24.765  14.951
 4652W        W72881  19.524  13.627  10.691
 4653W        W72882  21.012   8.248  11.223
 4654W        W72883  37.529  17.093  14.841
 4655W        W72884  25.181  31.043  13.107
 4656W        W72885  35.459  26.963   0.302
 4657W        W72886  42.523  11.213  11.591
 4658W        W72887  40.537  38.498  13.709
 4659W        W72888   6.711  36.605  10.629
 4660W        W72889  43.433  30.470  12.070
 4661W        W72890   5.449  21.796   4.673
 4662W        W72891   6.330  15.426   0.421
 4663W        W72892  32.474  30.018   1.335
 4664W        W72893  16.291  22.895  14.302
 4665W        W72894  21.208  15.547   0.264
 4666W        W72895   5.246  16.063   4.099
 4667W        W72896  31.174  28.513  13.389
 4668W        W72897  10.590  26.905   1.958
 4669W        W72898  14.268  12.240  13.929
 4670W        W72899   3.949  22.206  10.674
 4671W        W72900  23.068   6.467   3.722
 4672W        W72901  12.409  28.152  13.744
 4673W        W72902   3.538  35.747   2.645
 4674W        W72903  13.652   4.485  14.900
 4675W        W72904   5.784  28.424   3.203
 4676W        W72905  39.044  23.029  14.768
 4677W        W72906  39.114  21.839  13.337
 4678W        W72907  15.845   6.955  10.815
 4679W        W72908   0.735   2.512   2.240
 4680W        W72909  33.138  30.653   3.509
 4681W        W72910  10.333  16.533   2.785
 4682W        W72911  37.583  36.533  11.982
 4683W        W72912  21.262  11.218   2.737
 4684W        W72913  17.088  20.250  14.300
 4685W        W72914  38.945  38.361  11.947
 4686W        W72915  43.011   0.750  12.488
 4687W        W72916  32.413  42.978  12.582
 4688W        W72917  38.346   7.616   3.206
 4689W        W72918  26.625  19.179   0.778
 4690W        W72919  33.798  24.136   0.491
 4691W        W72920  30.613  33.507   3.123
 4692W        W72921  37.466   3.836   3.062
 4693W        W72922  15.087   1.834  13.035
 4694W        W72923  33.531  43.923  13.381
 4695W        W72924   8.689  31.166  13.374
 4696W        W72925  10.942  10.500   3.291
 4697W        W72926  17.282  11.390  11.916
 4698W        W72927  12.020  34.125   4.217
 4699W        W72928  26.652  34.330  12.968
 4700W        W72929  43.731  23.968   0.368
 4701W        W72930  21.396  37.729   1.136
 4702W        W72931  14.246  42.816  10.337
 4703W        W72932   6.933  41.514   0.826
 4704W        W72933  10.662  28.112   1.349
 4705W        W72934  29.016  20.537   3.438
 4706W        W72935  29.453  44.272  11.750
 4707W        W72936  13.104  43.508  14.402
 4708W        W72937  20.245  38.505   4.658
 4709W        W72938  19.723  16.771   4.518
 4710W        W72939  20.108  19.469   0.774
 4711W        W72940   9.486  17.269   0.383
 4712W        W72941  41.456  14.089   3.516
 4713W        W72942   8.186  14.877   4.259
 4714W        W72943  40.959  25.748   1.820
 4715W        W72944  25.940  29.629   3.161
 4716W        W72945  43.916  37.499   3.362
 4717W        W72946  25.957  19.039  14.770
 4718W        W72947   8.376  30.621  14.046
 4719W        W72948   2.200  37.132  14.144
 4720W        W72949  43.897  43.336   3.691
 4721W        W72950  28.036  32.931   3.819
 4722W        W72951  43.786   0.266   3.121
 4723W        W72952  36.290  18.150  14.898
 4724W        W72953  18.565  16.058  14.396
 4725W        W72954  22.144  27.674  11.893
 4726W        W72955  13.076  15.665   3.368
 4727W        W72956  14.024   9.310  12.362
 4728W        W72957  11.430  18.229   2.671
 4729W        W72958   5.240  26.498   5.042
 4730W        W72959  43.785   0.528  14.339
 4731W        W72960  43.292  43.829   0.250
 4732W        W72961  21.157  43.376   1.144
 4733W        W72962  34.475  19.959   1.286
 4734W        W72963  26.461  43.699  10.434
 4735W        W72964  24.524  22.705  11.588
 4736W        W72965   1.232  36.366   2.237
 4737W        W72966  17.829  21.609  12.149
 4738W        W72967   6.522  39.682  10.746
 4739W        W72968  36.950  15.096  11.565
 4740W        W72969   2.415  17.203   4.108
 4741W        W72970  12.249  11.886  12.461
 4742W        W72971   6.550   8.082  11.225
 4743W        W72972  37.851  13.367   4.694
 4744W        W72973   7.191   8.568  10.481
 4745W        W72974  42.251  42.499  10.435
 4746W        W72975   1.344  20.809   2.438
 4747W        W72976  22.758  36.352   4.277
 4748W        W72977  17.049  31.944   4.985
 4749W        W72978   7.761  11.825  12.889
 4750W        W72979  36.937  35.912   5.009
 4751W        W72980  13.803   8.221  11.702
 4752W        W72981  26.592  43.569  14.605
 4753W        W72982  27.887  29.978   2.319
 4754W        W72983  16.554  10.780   2.195
 4755W        W72984   8.091  25.723  14.463
 4756W        W72985   0.198  23.058  14.505
 4757W        W72986   1.764  43.724   1.628
 4758W        W72987  16.343  43.926  14.728
 4759W        W72988  42.461  12.157  10.754
 4760W        W72989  28.659  40.976   2.724
 4761W        W72990  12.173  22.197   1.557
 4762W        W72991  23.055  42.224   3.685
 4763W        W72992  30.675  17.624  14.583
 4764W        W72993  13.124  19.053   3.605
 4765W        W72994  24.049  10.301   3.866
 4766W        W72995  28.416  35.843  12.427
 4767W        W72996   5.917  38.347  11.903
 4768W        W72997  26.601   4.864   1.917
 4769W        W72998  23.058   2.773   3.738
 4770W        W72999  23.116   6.212  10.343
 4771W        W73000  18.347  19.191  12.381
 4772W        W73001   1.391  44.223   3.216
 4773W        W73002  27.083  27.901  14.025
 4774W        W73003  40.101  17.532   4.606
 4775W        W73004   8.083   7.660   3.835
 4776W        W73005  26.400   1.137  11.031
 4777W        W73006   4.868   8.706  14.711
 4778W        W73007  24.665  33.511   2.813
 4779W        W73008  37.331   0.516   3.746
 4780W        W73009  13.859  14.673   1.352
 4781W        W73010   3.519  34.988  14.913
 4782W        W73011  21.645  12.859   0.430
 4783W        W73012  12.878   7.198  14.012
 4784W        W73013   6.714  26.087  10.665
 4785W        W73014  44.867  15.228   1.284
 4786W        W73015  10.728  16.659  11.613
 4787W        W73016  22.539   6.053   1.756
 4788W        W73017  11.815  29.433  10.864
 4789W        W73018  42.983   0.384   2.719
 4790W        W73019  21.782   5.663  12.623
 4791W        W73020  25.045  32.054  12.197
 4792W        W73021  34.861  13.285   4.661
 4793W        W73022  30.331  33.563   4.945
 4794W        W73023  24.538  33.707   0.978
 4795W        W73024  40.046  37.280  14.380
 4796W        W73025  20.105   8.771  11.087
 4797W        W73026  44.934  37.354  10.808
 4798W        W73027  31.591  36.446  14.426
 4799W        W73028  27.231  10.059   3.768
 4800W        W73029   8.758  27.213   4.230
 4801W        W73030  34.591  28.175   4.805
 4802W        W73031  12.816  42.550   4.683
 4803W        W73032  36.397  44.395   1.641
 4804W        W73033  39.923   1.276  12.027
 4805W        W73034  24.740  25.631  12.974
 4806W        W73035   0.221   7.526   4.213
 4807W        W73036  38.660   0.525   1.452
 4808W        W73037  36.194  40.501  13.447
 4809W        W73038   7.212  39.580   4.873
 4810W        W73039  22.965  43.984   4.086
 4811W        W73040   0.965  40.317  12.495
 4812W        W73041  32.999  10.184  12.958
 4813W        W73042  44.422  39.153  14.459
 4814W        W73043  14.678  37.297   3.095
 4815W        W73044  30.114   4.724   4.594
 4816W        W73045   9.721   7.485   1.390
 4817W        W73046   9.687   0.562  14.035
 4818W        W73047  19.315   9.517  13.990
 4819W        W73048  41.428  20.939  12.390
 4820W        W73049  15.059   1.410   4.754
 4821W        W73050  40.836   6.421  11.245
 4822W        W73051  22.736  12.842  14.475
 4823W        W73052  39.040  42.156   1.952
 4824W        W73053  12.554  34.918   0.892
 4825W        W73054  25.950  11.713  14.151
 4826W        W73055   8.136  43.558   4.168
 4827W        W73056  21.075  21.321  13.576
 4828W        W73057  13.439  10.295   3.999
 4829W        W73058  25.669  44.447   0.060
 4830W        W73059  23.525   2.962   2.850
 4831W        W73060  11.859  24.132  10.656
 4832W        W73061  43.886  32.528  14.833
 4833W        W73062  21.116  31.287  11.617
 4834W        W73063   4.307  30.233   0.380
 4835W        W73064   4.983  36.507  11.923
 4836W        W73065   6.263  27.018  12.673
 4837W        W73066  18.752  18.254  12.329
 4838W        W73067  15.154   8.861  14.052
 4839W        W73068  41.009  11.870  14.050
 4840W        W73069  44.800  31.955  11.723
 4841W        W73070   0.167  33.317   0.733
 4842W        W73071  26.419  27.941   1.428
 4843W        W73072   0.400  44.731   0.253
 4844W        W73073   1.042   4.362  11.213
 4845W        W73074  24.870  35.449   4.530
 4846W        W73075  32.956  39.595   1.605
 4847W        W73076  14.577  16.437  10.502
 4848W        W73077  32.644   5.388   1.038
 4849W        W73078   5.979  29.345  12.087
 4850W        W73079  11.975   9.008   2.431
 4851W        W73080  31.410   3.431   1.820
 4852W        W73081  23.546  31.143  11.967
 4853W        W73082  16.246   5.208  14.288
 4854W        W73083  21.670  13.765   0.864
 4855W        W73084   6.772  44.987   1.430
 4856W        W73085  41.938  23.248   9.938
 4857W        W73086  21.323  35.391  13.783
 4858W        W73087  31.212  20.212   1.606
 4859W        W73088  24.075  25.180  10.679
 4860W        W73089   5.368  20.867  11.598
 4861W        W73090  24.298   8.406   2.348
 4862W        W73091  12.374   2.881  13.419
 4863W        W73092  39.954  36.379   1.717
 4864W        W73093  36.451  16.951   3.180
 4865W        W73094  41.474  20.612   4.171
 4866W        W73095  33.177  24.742   1.290
 4867W        W73096  33.161  37.088   0.870
 4868W        W73097  11.099  43.730   3.218
 4869W        W73098  40.470  13.238   1.061
 4870W        W73099  32.638   6.807   3.268
 4871W        W73100  10.751  41.863   1.338
 4872W        W73101   9.565   5.676   2.689
 4873W        W73102  27.484   5.708  13.082
 4874W        W73103  36.104  37.459  14.793
 4875W        W73104  41.895  12.515   1.423
 4876W        W73105  33.088   4.973   1.639
 4877W        W73106  42.371  11.259  11.105
 4878W        W73107   6.212  29.081  14.089
 4879W        W73108  25.134  33.522   0.799
 4880W        W73109  23.509  20.474  13.418
 4881W        W73110  10.589  13.755   4.124
 4882W        W73111  36.033  15.835  12.489
 4883W        W73112  26.188  15.782  12.839
 4884W        W73113  11.749  36.559  14.373
 4885W        W73114  37.169  14.556   2.333
 4886W        W73115  10.800   9.485   4.658
 4887W        W73116  21.001  14.362  12.995
 4888W        W73117   3.511  23.006   4.310
 4889W        W73118  22.577  24.175   4.544
 4890W        W73119  42.281  35.968  12.510
 4891W        W73120  26.989  42.226   4.732
 4892W        W73121  29.438  22.860  12.686
 4893W        W73122  34.328  25.506  10.830
 4894W        W73123  38.437  11.691  10.343
 4895W        W73124  22.783   5.311  12.331
 4896W        W73125   8.057  29.678   3.213
 4897W        W73126  20.104  37.797  14.679
 4898W        W73127  31.528   2.849  11.609
 4899W        W73128  36.363  44.311   2.140
 4900W        W73129  34.718  33.167   1.477
 4901W        W73130  39.309  22.177  10.557
 4902W        W73131  16.587  18.179   2.180
 4903W        W73132   0.760  27.022  14.798
 4904W        W73133  37.892   3.773  13.823
 4905W        W73134   4.127  28.279  14.491
 4906W        W73135   0.232  29.966  13.569
 4907W        W73136   3.793  38.557   3.527
 4908W        W73137  23.153  11.402  13.530
 4909W        W73138  30.369  28.451   2.258
 4910W        W73139  13.886  32.346  12.403
 4911W        W73140  33.592  32.358  14.565
 4912W        W73141  13.143  10.211  10.817
 4913W        W73142  11.336  42.673  14.458
 4914W        W73143  23.987  23.596   1.885
 4915W        W73144  37.411   5.236  13.213
 4916W        W73145  27.923   4.189  12.945
 4917W        W73146   2.230   7.759   4.544
 4918W        W73147   3.697  16.658  14.821
 4919W        W73148  19.237  15.987   2.300
 4920W        W73149  23.600   7.325  11.621
 4921W        W73150  38.779  17.310  11.178
 4922W        W73151   9.621  36.170  13.508
 4923W        W73152  28.661  25.458  14.853
 4924W        W73153  14.764  23.526   2.283
 4925W        W73154  26.853  44.524   3.724
 4926W        W73155  21.061  22.929   2.241
 4927W        W73156  42.551  24.668   2.310
 4928W        W73157   0.924   4.597  12.946
 4929W        W73158   0.220  31.867   2.683
 4930W        W73159   9.358   9.121   1.885
 4931W        W73160  42.270   2.930   2.825
 4932W        W73161  34.959  10.895   3.188
 4933W        W73162  25.296  26.642  10.981
 4934W        W73163  23.715   2.863   3.350
 4935W        W73164  36.822  22.533  12.995
 4936W        W73165   5.145  11.796  12.098
 4937W        W73166  22.850  11.567   1.277
 4938W        W73167  36.099  29.010   2.186
 4939W        W73168  17.380  21.091  11.002
 4940W        W73169  34.588   7.270  14.392
 4941W        W73170   2.752  39.953  13.202
 4942W        W73171  43.071  33.083   4.371
 4943W        W73172  44.212  40.025  11.363
 4944W        W73173   0.407  32.670   0.678
 4945W        W73174  27.259   4.225  12.463
 4946W        W73175  43.110   4.804   3.574
 4947W        W73176  27.476  33.048  14.129
 4948W        W73177  32.524  10.308   3.667
 4949W        W73178  35.958  12.561   1.924
 4950W        W73179  30.629   8.804  14.346
 4951W        W73180  41.429   5.322   1.373
 4952W        W73181  28.511  40.615  12.838
 4953W        W73182  38.586   4.347   2.306
 4954W        W73183  22.144  44.040  11.584
 4955W        W73184  40.375  41.294   3.717
 4956W        W73185   8.144  20.059  10.967
 4957W        W73186   4.548  42.199  13.930
 4958W        W73187  33.209  39.791  14.892
 4959W        W73188  26.215  27.946  14.811
 4960W        W73189  21.589   0.915  14.413
 4961W        W73190   3.961  15.367   3.758
 4962W        W73191   6.502  14.132   0.370
 4963W        W73192  33.726  12.892   5.055
 4964W        W73193  14.857  11.634  11.590
 4965W        W73194  19.098   3.634  12.338
 4966W        W73195  23.584  19.381   1.222
 4967W        W73196  15.613  33.899   0.790
 4968W        W73197  33.638  17.223   4.062
 4969W        W73198   0.791   9.948  12.962
 4970W        W73199   5.181  22.480  10.763
 4971W        W73200  41.524   4.912  10.507
 4972W        W73201  42.401  37.555   1.591
 4973W        W73202   4.050  33.982  14.835
 4974W        W73203  20.160  41.236  11.523
 4975W        W73204  36.733  29.484   5.040
 4976W        W73205   0.763  26.259  10.418
 4977W        W73206   6.798  24.052   0.547
 4978W        W73207   5.293  34.966  10.676
 4979W        W73208  16.550  19.132  13.925
 4980W        W73209  29.054  42.548   1.809
 4981W        W73210  20.589  22.602   3.142
 4982W        W73211  27.645  41.865   3.384
 4983W        W73212   6.172  26.026   0.229
 4984W        W73213  14.185  17.118  11.945
 4985W        W73214  25.740  22.386   3.941
 4986W        W73215   8.873   4.938   2.155
 4987W        W73216  40.929  14.658  11.764
 4988W        W73217  22.767  28.665  10.827
 4989W        W73218  35.899  20.922  13.066
 4990W        W73219  19.256  21.991  13.362
 4991W        W73220  11.423  14.102   0.712
 4992W        W73221  28.382  39.400   0.572
 4993W        W73222  36.016   2.946   0.469
 4994W        W73223  16.764  36.926   4.091
 4995W        W73224  39.335  17.754  12.678
 4996W        W73225  19.244  19.113   2.065
 4997W        W73226  35.374   2.657   1.814
 4998W        W73227  42.536   0.187  13.633
 4999W        W73228  20.643  44.855  13.640
 5000W        W73229  38.760  41.988   4.122
 5001W        W73230  30.523   9.414  12.439
 5002W        W73231  14.375  15.674  13.917
 5003W        W73232  35.477  29.592   4.105
 5004W        W73233  23.402  44.938  11.202
 5005W        W73234  18.475  33.551  10.819
 5006W        W73235  42.379   2.737  12.774
 5007W        W73236  39.862  11.167  14.036
 5008W        W73237   2.438   5.880  12.559
 5009W        W73238  22.099  35.379   2.089
 5010W        W73239  18.192   5.646   2.580
 5011W        W73240   6.071   9.571  13.917
 5012W        W73241  41.859  42.035  14.923
 5013W        W73242  17.128  18.615   3.266
 5014W        W73243  11.290   9.934   4.569
 5015W        W73244   7.118   3.185  13.741
 5016W        W73245  39.884  27.046  11.415
 5017W        W73246  41.419   0.831   1.354
 5018W        W73247   2.259  24.023   3.746
 5019W        W73248  23.171  37.388   3.193
 5020W        W73249  43.520  33.174   1.680
 5021W        W73250  30.480  29.576   4.072
 5022W        W73251  25.295  16.735   0.414
 5023W        W73252  28.657  26.114   3.319
 5024W        W73253  33.369  16.249   0.324
 5025W        W73254   6.004   2.997   2.875
 5026W        W73255  10.748   5.409   2.582
 5027W        W73256  23.201  37.024   4.994
 5028W        W73257  28.659  12.820  11.502
 5029W        W73258  35.402  37.879  14.682
 5030W        W73259  18.469   1.455  14.896
 5031W        W73260  19.758  35.535  11.130
 5032W        W73261  40.532  41.230  13.070
 5033W        W73262  21.594  39.120   0.396
 5034W        W73263  21.983  12.783  14.001
 5035W        W73264  42.791   0.474   4.556
 5036W        W73265  23.109  31.708   0.487
 5037W        W73266  21.521  11.673   2.782
 5038W        W73267  43.863  43.926   2.945
 5039W        W73268  17.155  19.877   4.738
 5040W        W73269  14.777  37.117  10.881
 5041W        W73270  40.429  34.035   1.272
 5042W        W73271  26.444  37.338  10.612
 5043W        W73272  17.516  22.655  14.114
 5044W        W73273  15.551  21.492  12.438
 5045W        W73274  35.895  36.473  10.703
 5046W        W73275  17.337  18.898  14.764
 5047W        W73276  38.996  38.763  12.635
 5048W        W73277  22.488  23.677   4.589
 5049W        W73278  37.310   8.214  13.493
 5050W        W73279  26.918  25.184  11.427
 5051W        W73280   8.925  37.305  11.139
 5052W        W73281   0.537  28.664  10.383
 5053W        W73282  36.091  15.480   4.069
 5054W        W73283  34.975  34.043  12.466
 5055W        W73284  23.789  28.978   1.855
 5056W        W73285  24.307   3.267   0.068
 5057W        W73286  39.500  19.632  12.635
 5058W        W73287  43.651  44.831  11.167
 5059W        W73288  30.143  30.545   0.305
 5060W        W73289  33.448  35.909   3.641
 5061W        W73290  33.723   6.666  14.536
 5062W        W73291  10.941  18.015   2.732
 5063W        W73292   6.809  29.100  10.564
 5064W        W73293  32.946  28.704  12.834
 5065W        W73294  17.207  16.213   2.799
 5066W        W73295  25.659   0.348  10.583
 5067W        W73296  19.542   1.167  11.147
 5068W        W73297  27.441  10.204  12.925
 5069W        W73298  11.420   6.687   1.811
 5070W        W73299  40.444  34.357   0.776
 5071W        W73300  14.830  23.733  14.014
 5072W        W73301   5.719  15.812   1.195
 5073W        W73302   9.833  11.223   4.123
 5074W        W73303  10.887  43.772  12.468
 5075W        W73304   2.407  28.436   2.803
 5076W        W73305   6.561  32.519   4.676
 5077W        W73306  13.768  35.902  13.548
 5078W        W73307   3.836  24.513  10.367
 5079W        W73308  33.682  29.706  10.726
 5080W        W73309  43.046  37.188  11.203
 5081W        W73310  44.419  42.844  14.102
 5082W        W73311   1.302  35.138   1.706
 5083W        W73312   2.896  12.722   2.683
 5084W        W73313  13.840   4.912  11.258
 5085W        W73314  28.003   1.198  14.039
 5086W        W73315  33.031  11.585  14.339
 5087W        W73316  44.837  26.998   0.041
 5088W        W73317  15.999  19.087   3.169
 5089W        W73318  27.044  19.169  13.934
 5090W        W73319  33.824  40.746   2.261
 5091W        W73320   9.723  32.386  11.968
 5092W        W73321  13.554  33.682   0.726
 5093W        W73322  38.291  26.967   3.697
 5094W        W73323   9.079  22.716   2.768
 5095W        W73324  17.210  15.730  10.452
 5096W        W73325  35.960  17.807  12.551
 5097W        W73326  39.816  40.833   0.959
 5098W        W73327  34.215  38.482   1.350
 5099W        W73328  13.261  29.221  13.734
 5100W        W73329  17.793  32.484  12.436
 5101W        W73330  17.133   1.818  13.798
 5102W        W73331  16.274   9.913  11.572
 5103W        W73332  15.289   0.959   0.765
 5104W        W73333   8.387  38.527  14.018
 5105W        W73334  15.869  17.857   2.723
 5106W        W73335  26.915  23.649  11.639
 5107W        W73336  12.621   5.492  11.153
 5108W        W73337  34.821  37.966   3.548
 5109W        W73338  39.268   6.227   0.165
 5110W        W73339  18.819  28.136   1.332
 5111W        W73340  38.938  33.864  12.409
 5112W        W73341   1.426   6.206  12.393
 5113W        W73342  30.423  33.369  12.812
 5114W        W73343   6.285  20.289  13.404
 5115W        W73344  16.432  32.813   4.166
 5116W        W73345  15.301  36.804   2.927
 5117W        W73346  27.625  22.629  14.057
 5118W        W73347  38.863  19.973   1.606
 5119W        W73348   8.798  40.786   1.720
 5120W        W73349  13.627  40.453  14.355
 5121W        W73350  43.025   4.762  12.903
 5122W        W73351   2.578  34.234  10.302
 5123W        W73352  37.877  18.313  11.683
 5124W        W73353  43.454  35.173   2.267
 5125W        W73354   0.306  33.471   2.336
 5126W        W73355  12.948   7.956   0.877
 5127W        W73356  33.417  22.122   4.444
 5128W        W73357  31.645  27.770   4.057
 5129W        W73358   2.169   7.705  12.591
 5130W        W73359  19.594  21.724   4.192
 5131W        W73360  10.432  24.991  11.983
 5132W        W73361  20.825  25.008   3.180
 5133W        W73362  31.706   2.145   4.198
 5134W        W73363  25.460  19.551  11.082
 5135W        W73364   1.856  44.059   3.970
 5136W        W73365  26.404  29.479   2.210
 5137W        W73366  28.768  30.043   2.416
 5138W        W73367  23.456   6.677   1.505
 5139W        W73368  44.349   9.617   3.704
 5140W        W73369  41.657  27.326  11.143
 5141W        W73370  18.592  31.959   4.100
 5142W        W73371  11.915  44.318  11.018
 5143W        W73372  14.259  34.534   1.379
 5144W        W73373  41.969  19.035  11.872
 5145W        W73374  29.103  21.601  13.765
 5146W        W73375  20.286  10.248  14.289
 5147W        W73376  22.148  21.153   0.822
 5148W        W73377   4.125  24.925   2.359
 5149W        W73378   2.383   4.081   1.625
 5150W        W73379   4.220  24.085  10.964
 5151W        W73380  15.432  41.819  10.762
 5152W        W73381  40.876  31.114  10.731
 5153W        W73382   3.812   0.824   3.665
 5154W        W73383  10.239  41.894  13.594
 5155W        W73384   4.229  38.379  13.454
 5156W        W73385  43.822  37.924   2.597
 5157W        W73386   4.118  32.033   1.752
 5158W        W73387  14.089  22.896  12.878
 5159W        W73388   9.839  44.253   4.238
 5160W        W73389  17.828   2.933   3.748
 5161W        W73390  18.151   2.142  12.420
 5162W        W73391   9.940  19.482  12.518
 5163W        W73392  21.237  28.758   0.361
 5164W        W73393  15.534  35.353   0.685
 5165W        W73394  42.246  29.434   0.213
 5166W        W73395   4.364  29.013  13.354
 5167W        W73396  15.191  19.491   3.172
 5168W        W73397   1.624  15.195   2.114
 5169W        W73398  26.606  39.557   0.542
 5170W        W73399   5.854   3.574  12.904
 5171W        W73400  19.296  29.637  10.940
 5172W        W73401  25.242   2.436  13.125
 5173W        W73402  13.121  27.108   0.241
 5174W        W73403   9.311  19.548  12.104
 5175W        W73404   6.488  15.078  12.972
 5176W        W73405  41.431  25.493  13.658
 5177W        W73406  32.455  24.942  13.367
 5178W        W73407  18.874  10.277  13.426
 5179W        W73408  39.392  39.856   4.695
 5180W        W73409   5.723   1.293  13.511
 5181W        W73410  19.109  34.449   0.908
 5182W        W73411   6.774   2.338  14.849
 5183W        W73412  43.055  20.730   3.676
 5184W        W73413  38.954  23.704   4.589
 5185W        W73414  17.551  10.826  11.215
 5186W        W73415   6.340  43.119   3.637
 5187W        W73416  30.406   6.155  14.051
 5188W        W73417  22.714  28.998   1.860
 5189W        W73418   7.416  40.386   1.327
 5190W        W73419  15.550   5.433   2.240
 5191W        W73420  32.108  32.417   1.247
 5192W        W73421  42.473  39.552   4.125
 5193W        W73422  21.949  32.876   1.954
 5194W        W73423  23.582  33.169  12.957
 5195W        W73424   6.924  12.660  10.682
 5196W        W73425  15.598  32.782  14.929
 5197W        W73426   0.184   9.234  10.515
 5198W        W73427   6.858  17.264  12.265
 5199W        W73428   6.970   6.868  10.766
 5200W        W73429  15.668  39.488   1.343
 5201W        W73430  20.796  21.144   1.210
 5202W        W73431  17.795  22.432  14.486
 5203W        W73432  16.624   4.887  14.530
 5204W        W73433  41.901  14.374  14.012
 5205W        W73434  44.108  42.763   4.740
 5206W        W73435  34.399  38.541  11.151
 5207W        W73436   8.074  20.162   4.211
 5208W        W73437  15.769  39.540  11.226
 5209W        W73438  42.311  26.663  13.440
 5210W        W73439  23.451  37.628   1.852
 5211W        W73440  40.907  35.465   4.599
 5212W        W73441  13.427  11.843  11.860
 5213W        W73442  28.127  39.036  10.656
 5214W        W73443   0.386  39.843  14.880
 5215W        W73444   6.789  34.949   2.355
 5216W        W73445   9.151  41.827   2.734
 5217W        W73446  39.091   5.916   5.496
 5218W        W73447   8.278  18.577   2.373
 5219W        W73448  12.770  34.658  13.778
 5220W        W73449   5.013  36.021   4.874
 5221W        W73450   3.162  19.949   2.575
 5222W        W73451  43.446   4.874   3.167
 5223W        W73452  40.988  31.521   4.880
 5224W        W73453  27.698  40.177  12.636
 5225W        W73454  34.451  30.881   2.067
 5226W        W73455  43.535  21.658   0.404
 5227W        W73456   0.670  42.213  11.440
 5228W        W73457  30.031  37.352  11.612
 5229W        W73458  39.555  11.268  13.568
 5230W        W73459  38.064  38.154   3.883
 5231W        W73460   5.768  35.299  12.501
 5232W        W73461  41.512  40.420  11.624
 5233W        W73462  16.683  22.748  13.955
 5234W        W73463  24.460   4.303   3.605
 5235W        W73464   8.842   7.179  12.082
 5236W        W73465  44.103  30.219  13.121
 5237W        W73466  42.372  30.543   1.523
 5238W        W73467  41.698   2.528   1.465
 5239W        W73468  22.487   2.388  13.552
 5240W        W73469  17.988  21.554   1.376
 5241W        W73470  27.591  31.925   1.717
 5242W        W73471  27.021  19.860  11.769
 5243W        W73472  21.181  38.951   3.743
 5244W        W73473   9.827  29.676  14.063
 5245W        W73474   8.722  20.501  12.826
 5246W        W73475  13.347  25.458   2.149
 5247W        W73476  36.037  13.539   4.379
 5248W        W73477  37.191  25.073   4.501
 5249W        W73478  28.767  26.945  14.416
 5250W        W73479  43.064   5.235  12.633
 5251W        W73480  14.742  33.642  10.708
 5252W        W73481  42.694  36.107  13.311
 5253W        W73482  42.366  19.530  13.882
 5254W        W73483  42.239  16.281   1.380
 5255W        W73484  27.168  25.621  11.599
 5256W        W73485  29.663  10.039   3.662
 5257W        W73486  39.745   4.991  11.153
 5258W        W73487  12.639  41.224  14.686
 5259W        W73488   9.737  33.985  12.598
 5260W        W73489  32.383  18.544   3.523
 5261W        W73490  42.827  40.762   4.542
 5262W        W73491  10.589  38.939   3.253
 5263W        W73492  31.190   4.910   0.471
 5264W        W73493  14.619  24.518   4.897
 5265W        W73494   1.544  18.513  14.093
 5266W        W73495  19.146  33.342  14.258
 5267W        W73496   3.887  22.287   2.869
 5268W        W73497   1.787   5.944   4.770
 5269W        W73498  23.032  31.103   1.326
 5270W        W73499  21.939  34.937   0.879
 5271W        W73500  43.506  10.051   2.309
 5272W        W73501  41.588  14.630  12.981
 5273W        W73502  38.539  29.097   1.400
 5274W        W73503   1.177  27.722   4.953
 5275W        W73504  43.906  37.021   3.634
 5276W        W73505  18.518  32.174  12.425
 5277W        W73506  12.288  24.144  14.731
 5278W        W73507   9.212  27.008  14.065
 5279W        W73508  26.399   5.422  11.802
 5280W        W73509   1.765  42.936   3.326
 5281W        W73510   5.971  10.266  13.134
 5282W        W73511  10.557  22.473  10.772
 5283W        W73512  40.935  26.192  10.781
 5284W        W73513   4.169  18.245   1.010
 5285W        W73514  43.633   4.857   1.897
 5286W        W73515  26.278  41.382  12.603
 5287W        W73516  38.969  16.232  12.367
 5288W        W73517   4.001  43.844  13.083
 5289W        W73518  38.272   4.306  13.981
 5290W        W73519  20.680  12.203  11.168
 5291W        W73520   8.366  17.929  12.102
 5292W        W73521  29.362   5.488   0.499
 5293W        W73522  16.522   7.314  14.793
 5294W        W73523  39.749  44.355  11.221
 5295W        W73524   0.895   3.494  12.455
 5296W        W73525  11.438  41.571  14.855
 5297W        W73526  11.776  29.157   3.804
 5298W        W73527  24.201  42.878   1.183
 5299W        W73528  37.910   2.797  12.917
 5300W        W73529  27.211  19.427  14.378
 5301W        W73530  10.565   1.865   2.589
 5302W        W73531   1.783   9.445  12.104
 5303W        W73532  36.830  23.049  13.016
 5304W        W73533  34.730  22.190  11.958
 5305W        W73534   0.430  18.199   2.030
 5306W        W73535  15.161  15.965  12.593
 5307W        W73536  30.126  28.479  13.476
 5308W        W73537  20.046   6.271   4.215
 5309W        W73538  28.565   3.928  11.850
 5310W        W73539  18.246  27.529  10.672
 5311W        W73540  10.763  42.099  13.915
 5312W        W73541   1.977  44.485   1.823
 5313W        W73542  18.672  33.504   4.042
 5314W        W73543  34.655  41.043  11.946
 5315W        W73544  32.276  28.728   1.798
 5316W        W73545  38.553  24.244   4.202
 5317W        W73546  41.941  42.358  14.400
 5318W        W73547  13.374  28.968   1.134
 5319W        W73548   9.627  15.625  12.091
 5320W        W73549  27.416   6.230   4.070
 5321W        W73550   3.828  14.333  14.647
 5322W        W73551   9.114  26.569  14.330
 5323W        W73552  17.783  39.046   1.834
 5324W        W73553   9.050  36.511   1.890
 5325W        W73554  32.041  10.293   4.655
 5326W        W73555  43.687  41.520  11.994
 5327W        W73556  10.646   4.143   1.013
 5328W        W73557  30.684  13.256  13.397
 5329W        W73558  24.547  27.398  12.622
 5330W        W73559   5.459  10.345   1.938
 5331W        W73560  14.769  30.411   3.087
 5332W        W73561  24.250  18.238  13.544
 5333W        W73562  35.167  36.129   2.371
 5334W        W73563  43.399  12.071   0.356
 5335W        W73564  32.889   0.228   2.779
 5336W        W73565  18.760   2.362  14.396
 5337W        W73566  34.653  44.921   3.968
 5338W        W73567  37.360  42.819   2.790
 5339W        W73568  33.959  44.974  11.078
 5340W        W73569  28.402  29.708   2.223
 5341W        W73570  24.563  38.950   0.391
 5342W        W73571  38.552  22.236   3.144
 5343W        W73572  21.498   2.258  13.444
 5344W        W73573  39.491  16.574   2.169
 5345W        W73574  39.482   2.867  14.003
 5346W        W73575  34.847  21.999   3.231
 5347W        W73576  35.502  42.305   4.182
 5348W        W73577  20.528  34.172   5.039
 5349W        W73578  23.937  10.294  11.573
 5350W        W73579   9.558   9.821  14.837
 5351W        W73580  39.420   8.420  11.568
 5352W        W73581  36.999   4.171  12.337
 5353W        W73582  30.764  10.458   2.315
 5354W        W73583  16.149   3.747  13.762
 5355W        W73584  22.414  31.537   1.867
 5356W        W73585  35.288  29.127  11.554
 5357W        W73586  26.248  30.535   1.352
 5358W        W73587  18.341   3.840   1.319
 5359W        W73588  13.799  42.478   3.279
 5360W        W73589  41.986   4.806  13.138
 5361W        W73590   3.639  37.364   0.401
 5362W        W73591  26.575  17.689  12.504
 5363W        W73592  20.472   5.363  14.009
 5364W        W73593  38.571  21.320   1.861
 5365W        W73594  38.997   0.942  14.255
 5366W        W73595   7.918  21.859  11.423
 5367W        W73596  12.318  42.009  11.986
 5368W        W73597  35.156  29.228  12.593
 5369W        W73598   7.776  10.171  14.007
 5370W        W73599  31.975  28.378  14.283
 5371W        W73600  40.531  14.800   3.061
 5372W        W73601  13.094   2.673   4.557
 5373W        W73602  15.259  19.009   0.761
 5374W        W73603   9.815  11.150   5.512
 5375W        W73604  14.417  16.786   3.172
 5376W        W73605  35.758  19.995   3.119
 5377W        W73606  27.532  39.022  14.235
 5378W        W73607  40.270  34.757  11.635
 5379W        W73608  40.472  38.371   2.927
 5380W        W73609  31.638  20.601   2.192
 5381W        W73610   8.856  44.309  12.161
 5382W        W73611   3.000  12.612   0.530
 5383W        W73612  40.650  28.874  13.996
 5384W        W73613  33.076  31.623  13.469
 5385W        W73614  11.687  17.102   3.546
 5386W        W73615   0.938  24.946   4.719
 5387W        W73616  32.879  41.309  12.046
 5388W        W73617  10.174   7.829  14.517
 5389W        W73618  19.346  18.116  11.609
 5390W        W73619  24.193  11.116   0.343
 5391W        W73620  17.312   9.711  14.693
 5392W        W73621  40.668  43.373   0.815
 5393W        W73622  43.268  27.447   3.796
 5394W        W73623  31.098  11.305  14.058
 5395W        W73624  43.742  33.319  11.552
 5396W        W73625  29.747   9.356  11.979
 5397W        W73626   6.478  43.584  13.650
 5398W        W73627  20.789  38.405  14.240
 5399W        W73628  17.062  35.549   4.242
 5400W        W73629  28.278  15.197   4.165
 5401W        W73630  22.157  40.816  10.982
 5402W        W73631  13.193   3.858  11.348
 5403W        W73632  41.036   4.833  11.728
 5404W        W73633  20.797  41.603  11.509
 5405W        W73634  43.793  31.556  14.530
 5406W        W73635  44.354  38.402  11.580
 5407W        W73636  36.413  40.432  14.398
 5408W        W73637  37.475  33.898   4.077
 5409W        W73638  27.970  34.267   2.302
 5410W        W73639  32.034   4.464  11.143
 5411W        W73640  38.810   6.517   1.106
 5412W        W73641  43.747   3.815   4.513
 5413W        W73642  10.763  16.227   2.767
 5414W        W73643  38.109   4.977  12.035
 5415W        W73644   9.954  24.824  12.012
 5416W        W73645  12.934  24.530  12.896
 5417W        W73646   5.540  27.263   2.757
 5418W        W73647   5.104  40.306  11.138
 5419W        W73648  14.758  35.194  10.537
 5420W        W73649  15.759  36.577  11.673
 5421W        W73650  19.558  40.295  11.005
 5422W        W73651  31.984  29.452  11.220
 5423W        W73652  24.350  42.140  14.239
 5424W        W73653   5.279   7.384  11.178
 5425W        W73654  11.968   3.238   0.027
 5426W        W73655  36.899   9.153  12.337
 5427W        W73656  18.561  28.084   3.337
 5428W        W73657  10.372  32.888  14.536
 5429W        W73658  35.549  12.196  14.935
 5430W        W73659  44.679  23.323   4.135
 5431W        W73660  35.267   0.403   1.744
 5432W        W73661  25.565  35.694   2.213
 5433W        W73662  39.449  28.173   2.128
 5434W        W73663  34.846  11.188  14.341
 5435W        W73664  11.391  26.636  13.521
 5436W        W73665  10.598  14.154   1.262
 5437W        W73666  21.219  28.617  11.949
 5438W        W73667  26.654  39.848   3.333
 5439W        W73668  13.436  18.620  11.342
 5440W        W73669  38.785  31.633  14.497
 5441W        W73670  27.546  41.237  12.112
 5442W        W73671  39.548  17.217  14.756
 5443W        W73672  33.930   1.935   0.831
 5444W        W73673  15.069   3.144  10.773
 5445W        W73674  15.912  20.046   0.324
 5446W        W73675  16.680  43.405   2.332
 5447W        W73676  32.590  24.096  11.088
 5448W        W73677  14.765  13.931  11.172
 5449W        W73678  24.001  13.751  14.217
 5450W        W73679  21.093   2.368   1.767
 5451W        W73680  16.175  27.154   3.329
 5452W        W73681  17.402   0.137   1.725
 5453W        W73682  27.939  21.327   4.059
 5454W        W73683  24.205  15.620  11.175
 5455W        W73684  15.614  23.257   4.986
 5456W        W73685  31.222  22.631  13.085
 5457W        W73686  14.499   7.209  10.873
 5458W        W73687  27.625   6.203  14.935
 5459W        W73688  34.976   0.305  11.158
 5460W        W73689  33.654  13.703  12.766
 5461W        W73690  12.207   8.623  13.298
 5462W        W73691   6.298   3.709  13.115
 5463W        W73692  21.838  34.008  14.418
 5464W        W73693   8.867  12.601   1.876
 5465W        W73694   4.770  21.718   2.878
 5466W        W73695  33.364  25.996  11.164
 5467W        W73696  10.038   3.270  14.366
 5468W        W73697  29.924   8.465  12.933
 5469W        W73698  10.866  26.980  12.122
 5470W        W73699  34.245   6.976  10.217
 5471W        W73700  17.842   9.646  12.537
 5472W        W73701  24.761  17.884   2.606
 5473W        W73702  17.780   7.742   3.270
 5474W        W73703  11.210  15.642  12.326
 5475W        W73704  24.501  37.003   3.386
 5476W        W73705  14.241  39.668  13.506
 5477W        W73706  30.567  24.063   4.187
 5478W        W73707  17.192  17.325   2.177
 5479W        W73708  29.426  37.120  14.092
 5480W        W73709  28.598  32.295  10.808
 5481W        W73710  32.203  27.596  12.591
 5482W        W73711  12.731  32.492   2.699
 5483W        W73712  10.460  26.470  14.727
 5484W        W73713  36.986   0.312   2.489
 5485W        W73714   2.740   8.809   2.884
 5486W        W73715   8.306  38.097  11.879
 5487W        W73716  44.397   2.651  12.107
 5488W        W73717  41.415   4.269  13.721
 5489W        W73718   6.698   6.026  10.359
 5490W        W73719  33.586   8.892  13.993
 5491W        W73720  17.818  34.948  10.546
 5492W        W73721   8.736  12.370  13.440
 5493W        W73722  35.612  16.609   4.526
 5494W        W73723   0.311   3.939   3.004
 5495W        W73724  23.978  25.155  14.538
 5496W        W73725   6.433   4.993  12.529
 5497W        W73726   4.456  33.189  14.173
 5498W        W73727  39.902   1.458  12.514
 5499W        W73728   5.686  15.798   4.148
 5500W        W73729   8.251   8.708  12.604
 5501W        W73730   5.032   2.865  11.545
 5502W        W73731  22.091  36.665  12.578
 5503W        W73732  21.086   0.419   1.647
 5504W        W73733  20.494  18.797  11.080
 5505W        W73734  29.269  12.244   3.143
 5506W        W73735  19.642  14.349   3.954
 5507W        W73736  42.053  39.925   3.909
 5508W        W73737  10.816   5.094   0.836
 5509W        W73738  26.683   4.445   4.164
 5510W        W73739  19.963  34.690   1.414
 5511W        W73740  14.323  44.067  11.185
 5512W        W73741  24.632  30.937   0.547
 5513W        W73742  38.763  10.338   4.551
 5514W        W73743   2.286  23.662   2.799
 5515W        W73744   7.749   4.645  10.099
 5516W        W73745  41.463  24.958   1.966
 5517W        W73746   6.955  25.995  14.834
 5518W        W73747  28.607  41.569   3.046
 5519W        W73748  13.923  17.633   4.129
 5520W        W73749  35.008  28.914   3.199
 5521W        W73750  43.987  26.014   1.894
 5522W        W73751   3.265  36.064  12.821
 5523W        W73752  14.681  17.350  14.335
 5524W        W73753  33.224  44.268   2.843
 5525W        W73754  31.941  26.556  14.076
 5526W        W73755  36.246  37.972  14.366
 5527W        W73756  29.449  34.617  11.961
 5528W        W73757  30.090  21.117  12.505
 5529W        W73758  34.024  40.223  13.226
 5530W        W73759  10.744  30.151   1.501
 5531W        W73760   6.337   0.326   1.479
 5532W        W73761  19.015  25.896  14.534
 5533W        W73762  37.829  25.796  14.719
 5534W        W73763  25.250  22.862  12.989
 5535W        W73764   9.596  37.932  14.839
 5536W        W73765  35.340  34.070   0.700
 5537W        W73766  26.360  27.175  13.865
 5538W        W73767   7.666  25.465  14.423
 5539W        W73768  38.750   9.900  14.976
 5540W        W73769  34.934  43.468  11.704
 5541W        W73770   6.410  37.172   2.848
 5542W        W73771  12.947  41.286  10.273
 5543W        W73772  40.464   8.320  10.610
 5544W        W73773  14.910  12.326  12.510
 5545W        W73774  42.822   7.527  11.136
 5546W        W73775  13.142   8.779   1.213
 5547W        W73776  42.358  41.138  10.827
 5548W        W73777  14.914   0.614   3.386
 5549W        W73778  19.230  28.708   2.844
 5550W        W73779  35.901  39.392   3.751
 5551W        W73780  43.054  19.041  13.544
 5552W        W73781  25.033  37.946   1.198
 5553W        W73782   3.909  20.341   4.208
 5554W        W73783  25.649  13.933   5.278
 5555W        W73784  31.624  27.989   3.591
 5556W        W73785   4.069  10.345  10.652
 5557W        W73786  10.371  16.403  13.315
 5558W        W73787  16.288  41.909   4.513
 5559W        W73788   1.361   4.073  10.941
 5560W        W73789   1.925  25.205  13.419
 5561W        W73790  29.036  15.566   2.757
 5562W        W73791  25.997   6.946   0.623
 5563W        W73792   2.334  11.842   1.890
 5564W        W73793  25.261   3.063   3.189
 5565W        W73794  28.019  27.181   1.142
 5566W        W73795  19.483  27.067  10.410
 5567W        W73796  30.224  23.039   1.217
 5568W        W73797   7.058   0.198  11.550
 5569W        W73798  38.648  38.863  12.258
 5570W        W73799  21.918  39.416   3.539
 5571W        W73800  22.506  25.953  14.516
 5572W        W73801  17.579  29.671  13.739
 5573W        W73802  41.316   7.018   0.677
 5574W        W73803  40.361   7.662  12.395
 5575W        W73804  35.838  10.174  12.409
 5576W        W73805  21.572   6.180   1.894
 5577W        W73806  13.056  30.262   5.047
 5578W        W73807  17.341  39.494  12.577
 5579W        W73808  43.759  40.344   1.526
 5580W        W73809   4.836  31.750   3.583
 5581W        W73810  26.725  17.596  14.403
 5582W        W73811  33.693  22.320  11.121
 5583W        W73812  28.938   5.992  12.989
 5584W        W73813  38.946  13.743   3.335
 5585W        W73814  33.826  26.063  14.968
 5586W        W73815  11.844   7.699   3.305
 5587W        W73816   6.950  18.311   4.260
 5588W        W73817  26.565  20.995   3.223
 5589W        W73818  38.405  31.442   1.832
 5590W        W73819  34.323  21.939   0.901
 5591W        W73820  38.727  18.799   2.413
 5592W        W73821  41.444   1.330   1.156
 5593W        W73822  41.099   9.467  11.671
 5594W        W73823  12.065  27.232  11.158
 5595W        W73824  10.436   4.871  12.833
 5596W        W73825  35.947   3.135  10.624
 5597W        W73826   8.911  33.033   3.714
 5598W        W73827  29.654  27.238   4.298
 5599W        W73828  35.380  31.186  12.337
 5600W        W73829  11.156  29.422  13.982
 5601W        W73830  10.806  17.272   2.905
 5602W        W73831  15.352  36.672  14.745
 5603W        W73832  15.752   3.493   0.788
 5604W        W73833  27.238  17.088   1.585
 5605W        W73834  37.383  20.741  14.506
 5606W        W73835  44.710  29.632  11.985
 5607W        W73836  28.807   2.187   4.649
 5608W        W73837  44.853  19.270  13.892
 5609W        W73838  21.333  41.437   0.305
 5610W        W73839  29.365  29.682  13.020
 5611W        W73840  17.672  30.631  13.288
 5612W        W73841  24.565  27.410   3.853
 5613W        W73842   1.855   2.955  13.887
 5614W        W73843  14.471   4.317  11.685
 5615W        W73844  23.857  35.363   2.759
 5616W        W73845  25.259  27.518  11.576
 5617W        W73846  31.995  14.355  12.803
 5618W        W73847  31.587  39.036   1.422
 5619W        W73848  32.331   6.490   0.337
 5620W        W73849  23.913  35.065   4.542
 5621W        W73850  26.077  22.071   2.588
 5622W        W73851  22.602  33.147  14.504
 5623W        W73852  15.694   3.906   2.233
 5624W        W73853  14.097  40.268  14.203
 5625W        W73854  43.515  16.149   2.821
 5626W        W73855  33.585  38.895   4.645
 5627W        W73856  28.171  26.502   4.983
 5628W        W73857  32.624   8.155  11.171
 5629W        W73858  14.636  22.534  13.307
 5630W        W73859  38.844  40.955  11.943
 5631W        W73860  32.166   3.923   3.121
 5632W        W73861  23.981  18.834  12.232
 5633W        W73862  25.558  38.840  13.814
 5634W        W73863  12.190   5.009  12.454
 5635W        W73864   5.211  25.243  14.190
 5636W        W73865  40.839  26.074   1.381
 5637W        W73866  14.101   5.832  11.558
 5638W        W73867  33.761  13.186   2.843
 5639W        W73868  24.921   4.915  13.834
 5640W        W73869  38.866  27.233   4.533
 5641W        W73870   0.697   2.231  13.456
 5642W        W73871   9.635  18.518   1.974
 5643W        W73872  18.017   3.088  13.331
 5644W        W73873  40.398  29.329   4.211
 5645W        W73874  29.076  19.983  11.182
 5646W        W73875  39.558  39.421   3.805
 5647W        W73876   9.920  33.386  11.883
 5648W        W73877  36.408  11.109  13.337
 5649W        W73878   0.756  44.315   2.749
 5650W        W73879  20.185  27.440  11.989
 5651W        W73880  19.917  33.594  11.160
 5652W        W73881  39.395  30.898  14.524
 5653W        W73882  39.349  29.978   4.028
 5654W        W73883  18.304  21.991  12.321
 5655W        W73884  35.809  34.368   1.750
 5656W        W73885  38.559  40.481  12.822
 5657W        W73886  42.067  12.836  13.416
 5658W        W73887  10.994  39.985  14.560
 5659W        W73888  33.274  36.386   3.786
 5660W        W73889   1.853  29.520  10.865
 5661W        W73890   9.141  40.438  14.311
 5662W        W73891   0.670  22.458  11.183
 5663W        W73892  25.127  43.074   1.051
 5664W        W73893  38.499  44.041  10.631
 5665W        W73894  25.121  34.666   1.427
 5666W        W73895  36.781  13.509   4.473
 5667W        W73896  18.963  27.081  13.042
 5668W        W73897  14.383  22.966  11.592
 5669W        W73898  31.855   3.851   1.335
 5670W        W73899  22.047   2.276   1.746
 5671W        W73900  15.105  42.812   2.348
 5672W        W73901   1.488   0.949   1.443
 5673W        W73902  13.188  21.220  14.192
 5674W        W73903  40.926  23.522   4.647
 5675W        W73904  40.408  43.860  14.053
 5676W        W73905  44.580  16.089  11.997
 5677W        W73906  41.034  42.730  10.270
 5678W        W73907  33.004  25.515  12.787
 5679W        W73908  13.394  38.166  11.242
 5680W        W73909  29.979  11.159   2.510
 5681W        W73910  10.646  42.645   0.175
 5682W        W73911  40.878  34.620   2.421
 5683W        W73912  43.733  41.986   3.917
 5684W        W73913  13.880  30.340   2.977
 5685W        W73914  25.934  17.062   3.360
 5686W        W73915  24.563  17.429  13.941
 5687W        W73916  22.558  21.063  13.876
 5688W        W73917  36.010  12.727   0.933
 5689W        W73918  41.340   5.418  12.827
 5690W        W73919  35.642  22.574   2.116
 5691W        W73920  27.544  42.968  10.853
 5692W        W73921  34.928  10.512   0.925
 5693W        W73922  43.781  12.403  12.119
 5694W        W73923  23.629   6.665   4.651
 5695W        W73924  22.744   8.492  14.428
 5696W        W73925  37.399   6.819   0.734
 5697W        W73926   8.379  37.324  13.440
 5698W        W73927  42.652  14.231   2.320
 5699W        W73928  15.693   5.986  12.330
 5700W        W73929  30.939  36.505  12.106
 5701W        W73930  22.178   6.418  13.919
 5702W        W73931  19.475  19.491  12.915
 5703W        W73932   7.876  39.478  10.560
 5704W        W73933  17.011  19.227   3.841
 5705W        W73934   7.504  38.029  11.531
 5706W        W73935  23.446   5.659   1.895
 5707W        W73936  17.165  28.606   3.204
 5708W        W73937  36.019  35.912  13.734
 5709W        W73938  28.491  22.416  13.767
 5710W        W73939  39.988   2.373  13.297
 5711W        W73940  37.520  33.211   3.314
 5712W        W73941   5.290  26.617   3.526
 5713W        W73942   3.707   2.525   1.173
 5714W        W73943  42.538   2.665  11.960
 5715W        W73944  13.805  35.863   2.261
 5716W        W73945  38.385  37.908  13.309
 5717W        W73946  10.036  18.314  10.447
 5718W        W73947  28.665  20.132   3.232
 5719W        W73948  12.306  12.397  14.619
 5720W        W73949  40.408  42.022   0.453
 5721W        W73950   8.983  13.568  12.152
 5722W        W73951   9.426  28.628   2.280
 5723W        W73952   8.370  20.170  12.961
 5724W        W73953  42.993  29.241   0.457
 5725W        W73954  26.885  18.308   3.929
 5726W        W73955  28.148  22.685   3.934
 5727W        W73956  18.473  14.526   0.274
 5728W        W73957  39.794  11.400   0.913
 5729W        W73958  19.658  44.580  13.887
 5730W        W73959  22.301   2.523   2.128
 5731W        W73960  19.363  21.168  14.931
 5732W        W73961   7.416  37.371  14.996
 5733W        W73962  10.394   8.344   1.034
 5734W        W73963   4.929  41.395   1.258
 5735W        W73964  19.674  12.548  12.459
 5736W        W73965  32.495  25.039  11.106
 5737W        W73966  39.181   3.658  13.739
 5738W        W73967  44.031  24.027   1.892
 5739W        W73968   9.815  39.568  14.033
 5740W        W73969  36.604  43.497  12.088
 5741W        W73970  14.063  29.179   3.617
 5742W        W73971  36.103  10.415  14.038
 5743W        W73972  41.040  18.695   1.872
 5744W        W73973   8.480  25.049  14.985
 5745W        W73974   9.077   2.010   0.962
 5746W        W73975  13.991  14.225  11.176
 5747W        W73976  15.784   6.160  11.062
 5748W        W73977  30.971  20.198  11.062
 5749W        W73978  29.757   5.757  13.486
 5750W        W73979  10.308   4.442   1.278
 5751W        W73980  19.532  26.623   5.061
 5752W        W73981  34.522   5.284   2.675
 5753W        W73982   7.529   0.273   1.791
 5754W        W73983  33.311  26.695  10.449
 5755W        W73984  21.247  26.107  13.064
 5756W        W73985  21.539   7.788   2.710
 5757W        W73986  41.762  17.831  12.930
 5758W        W73987  43.226  21.535   4.063
 5759W        W73988  30.656  26.054   1.545
 5760W        W73989   6.593  26.212  13.351
 5761W        W73990  28.989  29.260   2.868
 5762W        W73991   9.787  36.710  12.241
 5763W        W73992   9.794  24.000  11.613
 5764W        W73993  13.564  25.031  11.546
 5765W        W73994  29.629   1.167  12.989
 5766W        W73995   1.973  42.517  12.477
 5767W        W73996   9.444  21.137   3.306
 5768W        W73997  44.643   9.834  13.442
 5769W        W73998  12.150  11.140  12.963
 5770W        W73999  34.934  15.343   4.550
 5771W        W74000  16.777  29.101  13.786
 5772W        W74001   8.796  36.439  13.958
 5773W        W74002  14.086   6.179  13.531
 5774W        W74003  34.925   4.777  11.241
 5775W        W74004  26.064  31.683  14.304
 5776W        W74005  22.473  19.147   2.207
 5777W        W74006  34.694  30.061  11.440
 5778W        W74007  34.567   0.674  13.385
 5779W        W74008  43.283  19.345  12.147
 5780W        W74009  31.184  13.653   1.765
 5781W        W74010  40.957  25.433   0.615
 5782W        W74011  10.352  23.865   0.656
 5783W        W74012  35.856  34.890   1.772
 5784W        W74013   4.222  24.774   1.462
 5785W        W74014  21.447  12.637  11.913
 5786W        W74015  15.128   8.398  14.618
 5787W        W74016   7.986  40.596   2.997
 5788W        W74017  20.678  10.445  12.058
 5789W        W74018  31.462   1.843  11.579
 5790W        W74019  17.829  30.000   3.175
 5791W        W74020   4.604  30.932  13.453
 5792W        W74021  44.569  38.585  12.470
 5793W        W74022  43.669  25.786  13.941
 5794W        W74023  16.319  26.927  13.991
 5795W        W74024   6.428  30.285  14.536
 5796W        W74025  27.571  36.479   0.173
 5797W        W74026  35.561  37.368  14.754
 5798W        W74027  29.937  25.026   1.688
 5799W        W74028  33.668  35.676   3.251
 5800W        W74029  17.689  40.558   3.875
 5801W        W74030  27.720  35.094   0.630
 5802W        W74031  37.874  36.757  14.820
 5803W        W74032   9.854   7.457  11.506
 5804W        W74033   7.153   7.092  11.939
 5805W        W74034  23.095  11.539  10.622
 5806W        W74035   4.262   2.527   1.915
 5807W        W74036   0.994  41.984  13.972
 5808W        W74037  30.368  22.499   0.953
 5809W        W74038   2.293  35.820   0.860
 5810W        W74039  32.321  31.067   2.749
 5811W        W74040  37.580  19.302   2.379
 5812W        W74041  35.912  41.875  11.230
 5813W        W74042   3.207  43.233   3.480
 5814W        W74043  12.820   1.353  13.343
 5815W        W74044  35.055  17.687   5.093
 5816W        W74045   0.561   3.261  14.841
 5817W        W74046  15.589  42.739  11.950
 5818W        W74047  44.965   0.172  11.452
 5819W        W74048  44.920  19.598   4.081
 5820W        W74049  38.731  12.799   4.616
 5821W        W74050  40.925  34.885   0.053
 5822W        W74051  40.977   6.174   4.303
 5823W        W74052   7.284  43.835  12.659
 5824W        W74053  24.498  40.437   3.210
 5825W        W74054  14.244  44.841  10.659
 5826W        W74055   7.105  41.800   2.621
 5827W        W74056  28.277  25.130  12.678
 5828W        W74057  26.329   6.956  14.911
 5829W        W74058  44.984  11.082  14.834
 5830W        W74059   6.941   7.577  13.353
 5831W        W74060  11.703  38.293   0.420
 5832W        W74061   8.399  16.584  12.981
 5833W        W74062  29.781   4.311   3.280
 5834W        W74063  15.130  30.532   2.315
 5835W        W74064  24.212  27.823  11.001
 5836W        W74065  40.494   8.969   1.626
 5837W        W74066  13.528  12.915   0.328
 5838W        W74067   8.152   1.140   3.660
 5839W        W74068  35.503  39.013  11.519
 5840W        W74069  32.173   8.450  11.114
 5841W        W74070  42.883   2.259  11.439
 5842W        W74071  11.240   9.692   1.020
 5843W        W74072  39.343   0.795  12.491
 5844W        W74073  11.463  44.007   0.876
 5845W        W74074  16.932  26.544  10.007
 5846W        W74075  28.658  18.881   2.632
 5847W        W74076  23.445  42.710  11.448
 5848W        W74077  15.738  25.045   3.283
 5849W        W74078   0.878  18.968   4.523
 5850W        W74079  23.995  28.486   1.855
 5851W        W74080   1.848  44.258   2.303
 5852W        W74081   1.211   4.419  12.548
 5853W        W74082  34.316  14.085  13.033
 5854W        W74083  39.423  38.920  11.284
 5855W        W74084  27.089  22.169   4.618
 5856W        W74085  16.503  12.382  11.557
 5857W        W74086  33.623  15.073  12.453
 5858W        W74087  29.954  14.173  12.428
 5859W        W74088  31.053   2.240   2.158
 5860W        W74089  10.804   8.662  12.961
 5861W        W74090  10.094   6.189   1.067
 5862W        W74091   4.927  30.146  12.541
 5863W        W74092  14.577  22.275   1.154
 5864W        W74093  12.808  19.485  11.302
 5865W        W74094  11.728  10.729   2.564
 5866W        W74095  40.860  12.375  13.947
 5867W        W74096  15.160   4.735  14.806
 5868W        W74097  42.321  11.943  13.090
 5869W        W74098  41.350  37.448   4.709
 5870W        W74099  33.736  20.506  11.884
 5871W        W74100  34.406  37.466   0.867
 5872W        W74101  20.676  20.599  13.094
 5873W        W74102   5.795  16.735  11.063
 5874W        W74103  22.792  35.511  12.921
 5875W        W74104  23.194  22.609   1.278
 5876W        W74105  34.826  14.062  12.928
 5877W        W74106   4.314  21.964   3.031
 5878W        W74107   7.743  22.187  14.269
 5879W        W74108  18.750  21.926   2.607
 5880W        W74109  41.504  13.945  13.340
 5881W        W74110  27.195   9.776   2.839
 5882W        W74111  41.854  40.865   2.741
 5883W        W74112  35.425  43.269  14.874
 5884W        W74113   1.990   3.979   1.935
 5885W        W74114  20.569  35.724  10.724
 5886W        W74115  14.351  31.453  10.649
 5887W        W74116  43.511  35.387  12.594
 5888W        W74117   2.385  31.084   4.339
 5889W        W74118  17.176  10.243  10.069
 5890W        W74119  19.051  34.613  10.285
 5891W        W74120  21.176  18.359   4.449
 5892W        W74121  30.381  42.868   1.864
 5893W        W74122  30.107  41.382   2.678
 5894W        W74123  13.069  36.942   0.530
 5895W        W74124  13.037  26.247   0.013
 5896W        W74125  13.210  11.154  11.345
 5897W        W74126  10.060  14.844   3.371
 5898W        W74127   1.487  44.606   1.592
 5899W        W74128   0.754  23.639  12.197
 5900W        W74129   0.785  36.584  12.612
 5901W        W74130  34.978  40.881   0.797
 5902W        W74131   6.675   3.234  14.387
 5903W        W74132  38.969  29.516   1.652
 5904W        W74133  19.251  13.842   3.819
 5905W        W74134   1.983  35.026   1.229
 5906W        W74135  27.967   7.214   1.732
 5907W        W74136  11.954  42.873  12.511
 5908W        W74137  23.244  19.515  14.825
 5909W        W74138   9.396  18.933  13.500
 5910W        W74139  16.800  31.944   2.191
 5911W        W74140   5.034  12.916   4.143
 5912W        W74141  30.678  25.540  14.824
 5913W        W74142  39.261  36.965  13.838
 5914W        W74143   8.238   4.216   3.180
 5915W        W74144  39.821  39.792   1.013
 5916W        W74145  19.088  44.253  12.181
 5917W        W74146  19.463  42.229  11.438
 5918W        W74147  24.200  21.576   0.929
 5919W        W74148  27.648  43.894   4.640
 5920W        W74149  43.351  13.795  13.500
 5921W        W74150  44.062  20.246   1.805
 5922W        W74151  15.639  42.504   0.184
 5923W        W74152  44.884  15.845   2.305
 5924W        W74153  31.298  14.193   5.032
 5925W        W74154   6.735  10.443  12.026
 5926W        W74155  44.439  41.331  12.706
 5927W        W74156  32.579  38.360  11.431
 5928W        W74157  31.165  31.942   1.457
 5929W        W74158  35.941   3.763  14.974
 5930W        W74159   4.757  36.727   4.128
 5931W        W74160  21.827  16.382   1.945
 5932W        W74161  18.273  33.324   3.308
 5933W        W74162   0.531   0.447   3.692
 5934W        W74163  40.442  25.017   1.905
 5935W        W74164  42.787  41.939  13.389
 5936W        W74165  17.531   4.555  10.680
 5937W        W74166  20.869  33.154  12.426
 5938W        W74167   6.842  43.300  14.283
 5939W        W74168  13.586  39.450   4.383
 5940W        W74169  27.966  17.774  14.090
 5941W        W74170  21.731  32.186   3.107
 5942W        W74171  22.470   5.924   4.098
 5943W        W74172  14.591   0.698  13.929
 5944W        W74173  28.001  17.381  13.452
 5945W        W74174  35.922   2.223  14.962
 5946W        W74175   9.532  14.286  14.364
 5947W        W74176  19.940  10.058   3.678
 5948W        W74177   9.829  11.431  13.879
 5949W        W74178  41.321  19.587   4.195
 5950W        W74179  38.464  28.451   0.868
 5951W        W74180   9.803  20.478  13.030
 5952W        W74181  18.725  36.489  10.137
 5953W        W74182   4.189  43.974   2.294
 5954W        W74183   6.277  12.017   4.650
 5955W        W74184   3.466  20.516  11.645
 5956W        W74185  44.793  11.160  13.825
 5957W        W74186   2.698  38.192  12.403
 5958W        W74187   4.285  13.563   1.688
 5959W        W74188  19.499  44.795  14.351
 5960W        W74189   3.283  33.671   2.662
 5961W        W74190  18.496  12.172  13.490
 5962W        W74191  20.542   4.766   2.740
 5963W        W74192   1.029  32.325  14.780
 5964W        W74193  39.796  27.035   3.444
 5965W        W74194   6.226  21.216  11.625
 5966W        W74195  41.090   1.272  14.880
 5967W        W74196  37.572   7.771  13.451
 5968W        W74197   1.237  39.382   2.239
 5969W        W74198  21.599  40.162  10.781
 5970W        W74199  28.134  33.999  13.345
 5971W        W74200   1.378  18.144   2.650
 5972W        W74201   9.146  28.889   0.996
 5973W        W74202  19.075  29.440   4.276
 5974W        W74203  23.313   6.940  13.808
 5975W        W74204  28.404  27.166   0.262
 5976W        W74205  31.525   4.120   2.828
 5977W        W74206   2.364  31.470   3.626
 5978W        W74207  15.996  33.778   3.316
 5979W        W74208   6.312   2.406  14.574
 5980W        W74209   9.685  15.654  11.110
 5981W        W74210   0.774  11.488   4.075
 5982W        W74211  27.609  35.256  11.650
 5983W        W74212  35.994  41.091   4.202
 5984W        W74213   5.022  20.277   1.255
 5985W        W74214  39.860  11.166   1.854
 5986W        W74215  35.875   8.238  13.338
 5987W        W74216  43.022   3.721   0.828
 5988W        W74217   8.365  42.213   4.353
 5989W        W74218  38.061  37.351   1.787
 5990W        W74219   3.866   9.965  11.628
 5991W        W74220  11.255  17.079  12.651
 5992W        W74221  38.546  11.317   4.153
 5993W        W74222  17.108  33.600  11.043
 5994W        W74223   3.122  36.561  13.019
 5995W        W74224   4.795  43.079  12.213
 5996W        W74225  21.198  26.701  14.284
 5997W        W74226  35.829  40.315  12.851
 5998W        W74227   4.632  33.877   2.934
 5999W        W74228  30.623   3.756  11.942
 6000W        W74229   7.733  37.379   3.882
 6001W        W74230   7.681  15.800   0.705
 6002W        W74231  11.810  15.655   4.111
 6003W        W74232  11.884  14.719  14.991
 6004W        W74233   2.681   1.099  10.995
 6005W        W74234  27.461   0.965  11.955
 6006W        W74235  21.594  15.323  14.741
 6007W        W74236  16.004  36.127  11.504
 6008W        W74237   7.723  43.421   2.331
 6009W        W74238  31.567   2.701   4.609
 6010W        W74239  42.871   2.798  12.647
 6011W        W74240  31.537  33.182   1.783
 6012W        W74241  37.641   3.449  14.955
 6013W        W74242  13.031   1.876   2.863
 6014W        W74243  30.634  20.810  11.368
 6015W        W74244  11.921   6.758  12.047
 6016W        W74245  37.240  21.139  13.771
 6017W        W74246  19.518  11.087  11.576
 6018W        W74247  20.250  12.171  12.984
 6019W        W74248   7.195  34.012   0.946
 6020W        W74249  28.787  41.758   1.369
 6021W        W74250   7.626  38.940  14.749
 6022W        W74251   9.725  18.300   3.071
 6023W        W74252  35.852   2.668  10.794
 6024W        W74253   9.648   6.748  11.011
 6025W        W74254  36.050   8.290   2.922
 6026W        W74255  29.868  34.244   1.269
 6027W        W74256  25.607   7.809  10.435
 6028W        W74257  17.344  27.409  13.520
 6029W        W74258  37.096  13.747  11.492
 6030W        W74259   5.363  29.709  12.929
 6031W        W74260   6.760  18.257   1.913
 6032W        W74261  44.703   5.745   0.408
 6033W        W74262  28.168  39.994   0.567
 6034W        W74263  26.487  38.133  11.905
 6035W        W74264   8.232  36.244  11.503
 6036W        W74265  15.129  42.219   4.682
 6037W        W74266  39.238  39.788   1.779
 6038W        W74267  36.599   9.032   0.242
 6039W        W74268  21.950  13.246   3.314
 6040W        W74269  16.529  17.706   0.277
 6041W        W74270  38.803  30.447   3.554
 6042W        W74271  22.980  41.996   4.166
 6043W        W74272  16.385  24.721   0.005
 6044W        W74273   9.126  17.405   0.758
 6045W        W74274  39.348   0.218   1.837
 6046W        W74275   4.768   9.764  11.184
 6047W        W74276  14.166  23.205   0.976
 6048W        W74277   9.792  42.370   1.300
 6049W        W74278  20.792  16.094  11.505
 6050W        W74279   7.851  23.561  12.956
 6051W        W74280  12.078   8.220   3.146
 6052W        W74281  26.556  36.374   3.461
 6053W        W74282  14.258  38.644   1.260
 6054W        W74283  40.394  41.426  13.532
 6055W        W74284   4.329  19.150   4.171
 6056W        W74285  16.803  16.674   2.716
 6057W        W74286   3.447   9.286   3.141
 6058W        W74287  30.246  34.605   1.266
 6059W        W74288  26.191  34.886   2.325
 6060W        W74289   9.263  38.023  14.467
 6061W        W74290  20.552  14.523   2.777
 6062W        W74291   7.262  32.302  14.436
 6063W        W74292  19.108  27.089   2.289
 6064W        W74293  39.878   9.380   0.225
 6065W        W74294  26.086   8.688   4.263
 6066W        W74295  39.839  20.927  13.482
 6067W        W74296  12.833   5.316   4.070
 6068W        W74297  42.121  27.841  11.753
 6069W        W74298  19.350  18.638   4.126
 6070W        W74299  40.327  17.669   0.014
 6071W        W74300  23.762  28.996   4.622
 6072W        W74301   8.046  27.630   3.884
 6073W        W74302   5.689  15.187  10.777
 6074W        W74303   2.315  28.330  12.906
 6075W        W74304  41.347  19.826   1.411
 6076W        W74305  21.033  38.061  12.526
 6077W        W74306   0.496  20.439  14.446
 6078W        W74307  15.746  44.566   0.955
 6079W        W74308  11.870   9.767  10.252
 6080W        W74309  24.503  26.129   3.245
 6081W        W74310   1.077   2.991  11.599
 6082W        W74311  42.312  25.758  14.363
 6083W        W74312  24.006   3.856   2.841
 6084W        W74313  31.111   4.602   0.009
 6085W        W74314  25.316   6.994   0.339
 6086W        W74315  40.501  20.669  11.015
 6087W        W74316  33.336  26.304  14.926
 6088W        W74317  17.726  28.169  13.639
 6089W        W74318  34.745  19.318  11.066
 6090W        W74319  37.175  29.335   3.727
 6091W        W74320   3.809  12.174  13.536
 6092W        W74321  44.895  16.063   0.881
 6093W        W74322   5.043  34.372  11.422
 6094W        W74323  33.275  42.141  11.941
 6095W        W74324  41.380  17.023  13.841
 6096W        W74325  27.722  28.283  13.641
 6097W        W74326  37.537  16.646   4.601
 6098W        W74327  29.420  40.873  13.260
 6099W        W74328  18.585  17.550   4.807
 6100W        W74329  16.358  10.590  12.882
 6101W        W74330  29.271  35.547  10.738
 6102W        W74331  28.313  13.198  14.526
 6103W        W74332  18.623   5.381  10.683
 6104W        W74333  14.722  14.825  14.384
 6105W        W74334  29.453  19.662  13.080
 6106W        W74335  21.666  31.151   4.805
 6107W        W74336  22.470  27.584   4.033
 6108W        W74337  27.556  29.523   4.768
 6109W        W74338  25.776  10.915   2.439
 6110W        W74339   8.706   6.932   2.777
 6111W        W74340  24.920  38.098  12.039
 6112W        W74341  10.271  21.634   0.957
 6113W        W74342   6.881  37.610  13.375
 6114W        W74343  27.005  35.306   2.712
 6115W        W74344   6.051  20.353   2.704
 6116W        W74345  35.531   6.342   1.925
 6117W        W74346  26.089  36.699   4.327
 6118W        W74347  44.376  43.910   1.599
 6119W        W74348  15.296  25.645   4.095
 6120W        W74349  29.378  44.974   4.674
 6121W        W74350  39.958  28.356  14.388
 6122W        W74351  39.960  23.216  14.744
 6123W        W74352  12.475  15.961   1.249
 6124W        W74353  13.689  37.432  14.572
 6125W        W74354  41.886  30.280   5.694
 6126W        W74355  35.062  36.954   4.763
 6127W        W74356  22.043  18.777  11.594
 6128W        W74357   7.974  10.701  10.596
 6129W        W74358  34.875   1.105   0.604
 6130W        W74359  14.343  13.345  10.946
 6131W        W74360  11.909  34.007   0.245
 6132W        W74361  36.463  32.963   9.632
 6133W        W74362  32.689   3.406  11.206
 6134W        W74363  16.085  14.644   1.876
 6135W        W74364   5.658  18.317   2.758
 6136W        W74365   7.490  10.312  14.470
 6137W        W74366   6.284   7.635   1.283
 6138W        W74367  20.347  33.123  12.574
 6139W        W74368  10.171  17.750  12.499
 6140W        W74369   8.658  18.091  14.865
 6141W        W74370  31.906   3.756   2.705
 6142W        W74371  36.356  44.266   0.596
 6143W        W74372   3.563   1.139  11.192
 6144W        W74373   1.521   9.415  14.359
 6145W        W74374   3.556  44.898   1.391
 6146W        W74375  44.786  31.488   1.359
 6147W        W74376  18.873  25.079  11.654
 6148W        W74377  42.310  39.594  13.741
 6149W        W74378  24.221  24.330  13.072
 6150W        W74379  31.350  19.165   4.176
 6151W        W74380   3.291  14.039   4.619
 6152W        W74381  15.520   8.591  12.105
 6153W        W74382  41.961  43.463   2.723
 6154W        W74383  16.362  21.090   5.485
 6155W        W74384  19.988  41.510  11.937
 6156W        W74385  17.392  31.032  11.982
 6157W        W74386  37.371   8.464  11.521
 6158W        W74387  13.715   5.582   1.264
 6159W        W74388  31.498  37.986  12.063
 6160W        W74389  13.621   3.202   2.589
 6161W        W74390  33.359  27.085  12.100
 6162W        W74391   7.277  41.778  13.128
 6163W        W74392  31.478  21.727   0.875
 6164W        W74393   6.995  22.032  11.391
 6165W        W74394  31.542  36.805   3.295
 6166W        W74395  20.260  19.396  14.729
 6167W        W74396  34.187   3.633   3.357
 6168W        W74397   0.393  36.631   4.100
 6169W        W74398  42.751  43.810  11.521
 6170W        W74399  18.731   5.282   1.939
 6171W        W74400   0.829   8.344   4.042
 6172W        W74401  42.998  15.243  10.664
 6173W        W74402  11.437  31.939   2.685
 6174W        W74403  24.272   9.836   3.564
 6175W        W74404  37.079  17.539  12.170
 6176W        W74405  11.792  19.332  14.340
 6177W        W74406   6.858  25.754   4.857
 6178W        W74407   3.892  32.574   1.716
 6179W        W74408  26.944  37.022  11.091
 6180W        W74409  28.956  41.092  11.078
 6181W        W74410  28.508  40.094  12.853
 6182W        W74411  14.639  12.639   5.405
 6183W        W74412  29.136  43.978  12.819
 6184W        W74413  23.594  14.742   0.485
 6185W        W74414  31.239  44.360  14.434
 6186W        W74415  32.553  44.896   2.568
 6187W        W74416  20.112  23.604   1.921
 6188W        W74417   4.790   7.215  10.307
 6189W        W74418  20.303   1.381   4.301
 6190W        W74419  38.911  17.756  14.852
 6191W        W74420  10.302  20.285  12.762
 6192W        W74421   6.625   9.696  10.631
 6193W        W74422  34.088  35.928   0.450
 6194W        W74423  42.305  21.977   1.848
 6195W        W74424  36.773  10.781   2.175
 6196W        W74425  14.762  35.386  12.330
 6197W        W74426   9.515  35.305  14.061
 6198W        W74427   7.212   1.709   2.767
 6199W        W74428  40.172  12.035  12.907
 6200W        W74429  29.613   1.364  13.519
 6201W        W74430  40.466  29.926  12.963
 6202W        W74431  34.640  17.656   4.646
 6203W        W74432  44.386  31.909   4.882
 6204W        W74433  39.008  30.453  12.581
 6205W        W74434  15.333  18.792   2.128
 6206W        W74435  32.043  26.737  11.008
 6207W        W74436   9.578  22.547   0.282
 6208W        W74437  23.163  29.008   3.660
 6209W        W74438  11.190  41.104  14.817
 6210W        W74439  24.155  44.741   0.121
 6211W        W74440  40.441  42.863   3.563
 6212W        W74441  29.550  21.221   3.766
 6213W        W74442   9.283   1.637   0.019
 6214W        W74443  37.978  20.618  13.856
 6215W        W74444  33.874  23.533  12.950
 6216W        W74445   8.120  26.616  12.500
 6217W        W74446  22.885  37.311  12.551
 6218W        W74447   5.224  25.650  13.149
 6219W        W74448  24.325   0.742   0.786
 6220W        W74449  26.516   5.132  13.206
 6221W        W74450   4.796   6.544   1.367
 6222W        W74451  19.064   1.521   0.350
 6223W        W74452  23.105  13.583  13.244
 6224W        W74453  21.226  18.022   2.724
 6225W        W74454  42.561   0.701  12.171
 6226W        W74455  34.615  32.449   2.730
 6227W        W74456  16.772  30.605  13.616
 6228W        W74457  35.157  22.528  11.681
 6229W        W74458  27.246  34.979   0.801
 6230W        W74459  15.115  22.010  11.149
 6231W        W74460  28.662  39.344  12.525
 6232W        W74461   7.213  36.369   1.911
 6233W        W74462  26.651  19.860   5.065
 6234W        W74463  21.783  41.036  14.935
 6235W        W74464  41.242  21.422   0.864
 6236W        W74465   5.350  42.282   1.236
 6237W        W74466  12.938  36.342   1.672
 6238W        W74467  12.620  22.766   2.440
 6239W        W74468   6.745  44.224  13.060
 6240W        W74469  37.899  30.870  14.011
 6241W        W74470  25.435   4.679   4.372
 6242W        W74471  22.779  31.162   2.388
 6243W        W74472  14.800  29.519   2.167
 6244W        W74473  13.761  21.071   0.384
 6245W        W74474  30.364  44.939  13.418
 6246W        W74475  13.144  19.201   4.509
 6247W        W74476  43.754  30.054  12.067
 6248W        W74477  44.191  43.781  13.922
 6249W        W74478  13.174   0.733   3.257
 6250W        W74479  29.879  21.787   1.946
 6251W        W74480  28.651  16.754   9.636
 6252W        W74481  12.257  42.486  13.964
 6253W        W74482  12.345  26.158   1.550
 6254W        W74483   4.797   1.351  13.298
 6255W        W74484  15.091  41.227   0.183
 6256W        W74485  36.827  18.684   0.642
 6257W        W74486   8.704   5.367  11.645
 6258W        W74487  20.571   1.689  12.835
 6259W        W74488  19.074  37.154  13.839
 6260W        W74489  12.304  14.120  11.076
 6261W        W74490  25.588   3.654   3.552
 6262W        W74491  24.124  33.388   4.563
 6263W        W74492  39.845  20.173   1.815
 6264W        W74493  40.419  15.606   3.303
 6265W        W74494  18.840  34.294   4.532
 6266W        W74495  24.698  22.517  14.335
 6267W        W74496  11.146   9.363  14.228
 6268W        W74497   0.973  20.475  14.278
 6269W        W74498   7.225  42.289  13.416
 6270W        W74499   1.048  17.410   2.171
 6271W        W74500  17.123   0.400   3.496
 6272W        W74501  36.853  30.062  12.964
 6273W        W74502  13.655  15.550   1.915
 6274W        W74503   8.262  29.987  10.862
 6275W        W74504  26.710  11.977   2.182
 6276W        W74505   0.502  35.185   5.114
 6277W        W74506  40.572  12.385   2.945
 6278W        W74507  17.868  37.439  10.679
 6279W        W74508  22.983   4.670   5.018
 6280W        W74509  12.622  41.307  14.171
 6281W        W74510  36.858  28.224   4.770
 6282W        W74511   0.007  25.820  10.740
 6283W        W74512  30.039  41.078   3.087
 6284W        W74513  43.803  40.669   1.948
 6285W        W74514  30.642  19.557   1.397
 6286W        W74515   6.665  31.245  12.085
 6287W        W74516   9.849  28.247   4.199
 6288W        W74517  41.357  31.870  14.281
 6289W        W74518   9.262  14.840   2.677
 6290W        W74519  13.265  31.329   3.566
 6291W        W74520  11.534  21.494  12.326
 6292W        W74521  25.893  35.537  10.394
 6293W        W74522  41.353  29.377   2.811
 6294W        W74523  13.857   7.132   1.489
 6295W        W74524  20.593   2.410   4.043
 6296W        W74525  43.680   4.423   2.891
 6297W        W74526  12.172  29.769  11.178
 6298W        W74527  26.894  19.459  10.722
 6299W        W74528  35.214  34.657  13.552
 6300W        W74529  14.313  18.515  11.246
 6301W        W74530  22.734  18.728   1.262
 6302W        W74531  37.839  43.418   2.226
 6303W        W74532  22.973  33.964   1.842
 6304W        W74533  23.095  19.544   0.756
 6305W        W74534  36.534  25.781  14.834
 6306W        W74535  10.896  39.193  10.639
 6307W        W74536  40.937  21.699   0.551
 6308W        W74537   3.431  35.312   3.546
 6309W        W74538   0.173  33.242  11.724
 6310W        W74539   8.414  43.882  10.676
 6311W        W74540  19.609  27.902  14.793
 6312W        W74541   6.676   9.025  13.536
 6313W        W74542  13.587   2.071   4.101
 6314W        W74543  38.088   3.160   0.079
 6315W        W74544   5.677  11.745   0.142
 6316W        W74545  25.708  40.840  11.981
 6317W        W74546  33.953  23.099  10.685
 6318W        W74547  21.136  26.303  11.482
 6319W        W74548   3.704  38.584   0.841
 6320W        W74549  40.822   1.713   0.013
 6321W        W74550  37.891  36.791   4.214
 6322W        W74551  19.591  10.091   0.191
 6323W        W74552  15.285  41.472  11.111
 6324W        W74553  17.470  42.274  14.753
 6325W        W74554   1.629  28.216   2.433
 6326W        W74555   2.069   2.772  11.635
 6327W        W74556  42.536  30.084   3.592
 6328W        W74557  27.882  17.612   2.769
 6329W        W74558  20.148  28.124  10.778
 6330W        W74559  39.377  34.971  12.601
 6331W        W74560  12.658  11.162  12.820
 6332W        W74561   3.566  40.708  11.535
 6333W        W74562  16.350   6.202  12.304
 6334W        W74563  41.402  23.555   1.656
 6335W        W74564   2.278  20.746  14.999
 6336W        W74565  19.993  23.257  11.215
 6337W        W74566  32.282  34.097  10.677
 6338W        W74567  20.847  30.258   3.217
 6339W        W74568  36.817   4.911  14.512
 6340W        W74569  12.335  18.717  14.506
 6341W        W74570  12.277  42.776   4.599
 6342W        W74571   7.212  37.770  11.106
 6343W        W74572  10.440  39.290  13.006
 6344W        W74573  24.087  20.949  12.858
 6345W        W74574   7.365  29.049   2.607
 6346W        W74575  40.837  25.691  10.790
 6347W        W74576  30.125   6.198   1.919
 6348W        W74577  20.232   1.984  13.084
 6349W        W74578  27.567  28.198   1.770
 6350W        W74579   4.714  34.654   2.263
 6351W        W74580   5.905   5.894   2.093
 6352W        W74581  18.271  13.290  12.545
 6353W        W74582  31.584  38.106  14.923
 6354W        W74583  18.684  42.763  10.398
 6355W        W74584  28.364  25.213  13.991
 6356W        W74585   3.375  11.241  12.928
 6357W        W74586  13.417  11.295   1.381
 6358W        W74587  42.520  14.687  14.043
 6359W        W74588  41.100  33.379  11.018
 6360W        W74589   4.871   5.502  13.863
 6361W        W74590  14.824  16.432  14.158
 6362W        W74591  31.020  31.825   3.632
 6363W        W74592  14.866  17.646   1.880
 6364W        W74593  42.701  15.537   0.007
 6365W        W74594  13.249   8.291   3.365
 6366W        W74595   9.380   4.890  11.995
 6367W        W74596  12.717  30.155  11.981
 6368W        W74597  13.720  38.640  13.649
 6369W        W74598  16.732  26.684   2.618
 6370W        W74599  37.451   7.897   0.397
 6371W        W74600  12.717  10.368   3.611
 6372W        W74601  24.302  37.571   1.530
 6373W        W74602  38.640   6.211  13.970
 6374W        W74603   5.199  37.805   0.964
 6375W        W74604   7.684  38.815   2.456
 6376W        W74605  37.046  28.940  12.904
 6377W        W74606  24.519  19.644   3.686
 6378W        W74607  37.141  18.711   0.213
 6379W        W74608   5.359  32.049  11.593
 6380W        W74609   0.689   0.412   0.171
 6381W        W74610  18.098  30.088  11.368
 6382W        W74611  27.903  11.899  13.811
 6383W        W74612   3.985   3.212  12.894
 6384W        W74613  10.467  12.868  10.548
 6385W        W74614  30.930  25.662  12.505
 6386W        W74615  24.140   0.722  13.569
 6387W        W74616  32.907  22.762   1.397
 6388W        W74617  41.987  16.139   4.136
 6389W        W74618  33.541  26.847  11.205
 6390W        W74619  13.591  13.763  13.983
 6391W        W74620  15.568   9.833  11.174
 6392W        W74621  17.239  35.031   0.825
 6393W        W74622  41.254  33.860  14.899
 6394W        W74623  35.563  32.879  13.794
 6395W        W74624   1.366   9.854  10.811
 6396W        W74625  12.341  11.881  14.477
 6397W        W74626  39.360  27.403   4.117
 6398W        W74627  31.406  29.767   0.704
 6399W        W74628   7.306  30.157   1.782
 6400W        W74629  19.261  12.107  11.740
 6401W        W74630  21.161   5.095   4.600
 6402W        W74631  30.473  39.526  14.387
 6403W        W74632  16.905  24.583  14.992
 6404W        W74633  29.378  25.059  13.902
 6405W        W74634   1.853  38.792   1.278
 6406W        W74635  22.064  36.411   2.697
 6407W        W74636  12.658  27.382  13.423
 6408W        W74637  25.463   0.946  14.213
 6409W        W74638  21.751  27.367   1.202
 6410W        W74639  23.089  38.969   4.457
 6411W        W74640  15.281   3.892  13.769
 6412W        W74641   2.371  11.181  13.480
 6413W        W74642   7.414   5.655   3.089
 6414W        W74643  38.754  32.562  12.193
 6415W        W74644  18.769  31.946   2.657
 6416W        W74645  35.991  36.602   0.664
 6417W        W74646  20.725  16.267  13.843
 6418W        W74647  11.235  33.592  12.913
 6419W        W74648  10.607   0.825   3.236
 6420W        W74649  42.109  34.024  12.960
 6421W        W74650  14.124   0.956   2.625
 6422W        W74651   9.729   1.218  12.777
 6423W        W74652  44.408  30.415  11.865
 6424W        W74653  43.970  13.710   4.233
 6425W        W74654  33.201  11.133  11.801
 6426W        W74655  32.923  38.143   2.143
 6427W        W74656   8.479   4.681  10.480
 6428W        W74657  12.027  23.712  12.376
 6429W        W74658  27.738  20.465   2.788
 6430W        W74659  14.198  20.111   1.955
 6431W        W74660  12.399  28.261  12.073
 6432W        W74661  41.232  17.703  11.708
 6433W        W74662   3.946   2.961   3.688
 6434W        W74663  41.863  36.489  12.132
 6435W        W74664   3.816  13.758   3.806
 6436W        W74665  10.408   4.583  14.093
 6437W        W74666  37.333   4.066  10.683
 6438W        W74667  27.975  29.127   2.887
 6439W        W74668  28.605  19.794  13.550
 6440W        W74669  26.936  14.137  12.438
 6441W        W74670  20.774  33.862  14.365
 6442W        W74671  20.024  13.802  12.508
 6443W        W74672  19.633  20.543   3.203
 6444W        W74673  25.725  31.923   0.496
 6445W        W74674  14.560  15.667   1.881
 6446W        W74675   0.009  13.788   1.282
 6447W        W74676  13.734  43.776   3.723
 6448W        W74677  20.027  18.211   1.752
 6449W        W74678  12.624   0.358  11.940
 6450W        W74679  24.437  23.185  11.314
 6451W        W74680  43.999  14.595   3.391
 6452W        W74681  18.857  39.951  13.559
 6453W        W74682  13.584  39.264  13.083
 6454W        W74683   1.836   3.149   3.071
 6455W        W74684  24.513  10.630  10.994
 6456W        W74685  42.346  15.810  12.390
 6457W        W74686  28.403   7.713   0.184
 6458W        W74687  10.903  38.031  13.608
 6459W        W74688  41.687   5.714   1.788
 6460W        W74689  16.802  14.730  12.509
 6461W        W74690   8.026  29.022  10.191
 6462W        W74691  18.042  37.302   4.544
 6463W        W74692   6.852   0.242  10.659
 6464W        W74693  27.531  18.133   3.309
 6465W        W74694   4.396  22.926  12.036
 6466W        W74695  20.152  44.477   4.616
 6467W        W74696  16.669  10.350  11.545
 6468W        W74697  26.165  32.412   1.458
 6469W        W74698  18.576  28.604   3.224
 6470W        W74699  37.886  11.780   2.218
 6471W        W74700  38.160  15.707   0.848
 6472W        W74701  32.934  14.829  12.892
 6473W        W74702  34.937   6.359  12.861
 6474W        W74703  34.076  37.292   1.874
 6475W        W74704  25.999  42.413   3.223
 6476W        W74705  17.007  28.985  12.330
 6477W        W74706  43.544   7.778   3.582
 6478W        W74707  40.763  36.475  11.298
 6479W        W74708  15.548  14.738   1.053
 6480W        W74709  30.626  31.969  11.476
 6481W        W74710   1.285  15.324  11.452
 6482W        W74711  32.468  13.240  13.599
 6483W        W74712  19.055   6.183  11.554
 6484W        W74713  38.252  36.445   3.195
 6485W        W74714  11.561   6.144  13.582
 6486W        W74715  18.513  13.669   0.207
 6487W        W74716  13.017  39.863  11.535
 6488W        W74717  40.848  28.896   1.266
 6489W        W74718  37.001   3.796   0.547
 6490W        W74719  24.035  39.040  12.914
 6491W        W74720  28.261   8.799   3.078
 6492W        W74721  12.825  13.377  11.024
 6493W        W74722  15.146  13.228   3.641
 6494W        W74723  13.316  12.756  12.280
 6495W        W74724  32.414  35.235  11.029
 6496W        W74725  24.032   8.284  13.608
 6497W        W74726  21.841  26.617   4.562
 6498W        W74727   7.101  40.778  14.771
 6499W        W74728  40.896  24.924   0.710
 6500W        W74729  27.980  18.663  14.883
 6501W        W74730  33.067  44.848   1.844
 6502W        W74731  38.569  33.104  11.674
 6503W        W74732  29.909   7.171  13.880
 6504W        W74733  32.490   6.351   1.238
 6505W        W74734   6.736   2.535   0.919
 6506W        W74735  23.112  13.612  14.207
 6507W        W74736  38.756  21.107  13.808
 6508W        W74737  31.641  23.682   1.391
 6509W        W74738  12.715  21.748   0.694
 6510W        W74739   4.272  10.790  11.120
 6511W        W74740  35.190   6.793  13.484
 6512W        W74741   8.139  38.963  14.828
 6513W        W74742  33.321  15.264   5.026
 6514W        W74743  32.366  42.411  11.894
 6515W        W74744  30.509  18.337   3.737
 6516W        W74745  40.864  11.770  14.876
 6517W        W74746  16.039  15.866   0.966
 6518W        W74747   4.404  38.392  12.039
 6519W        W74748  30.880   2.739   2.161
 6520W        W74749  17.854   3.576   1.739
 6521W        W74750  27.932   2.889   2.262
 6522W        W74751  38.780  41.413  12.671
 6523W        W74752  30.419   5.838  14.831
 6524W        W74753  38.572  40.606   1.234
 6525W        W74754  16.658  11.308   2.508
 6526W        W74755  17.329  13.644   4.519
 6527W        W74756  29.378  42.783   2.773
 6528W        W74757  30.497  16.102  14.427
 6529W        W74758  32.387  18.639   0.832
 6530W        W74759  21.810  29.264  14.895
 6531W        W74760  42.897  37.437   2.770
 6532W        W74761  33.893  14.192   1.455
 6533W        W74762   6.682  27.921  10.649
 6534W        W74763  44.382  39.478   1.355
 6535W        W74764   0.054   9.269  11.008
 6536W        W74765   1.914   7.805   1.797
 6537W        W74766  12.885  37.571  12.522
 6538W        W74767  39.597   2.169   4.612
 6539W        W74768   3.668  43.363  13.884
 6540W        W74769  26.762  16.193   1.002
 6541W        W74770  37.140  21.834   3.750
 6542W        W74771  16.738  22.142   4.930
 6543W        W74772  10.228  39.827   0.738
 6544W        W74773  16.347  35.061  10.853
 6545W        W74774  37.605  15.274   2.452
 6546W        W74775  24.590  42.505  12.048
 6547W        W74776  27.767   7.459   0.934
 6548W        W74777  17.361   8.481   4.066
 6549W        W74778  32.098  37.290   4.317
 6550W        W74779  42.314  43.998  11.681
 6551W        W74780  15.544   0.062  14.942
 6552W        W74781  14.623  32.370  10.974
 6553W        W74782  36.522  28.007   5.114
 6554W        W74783  29.876   7.198  13.355
 6555W        W74784  10.632  39.335   0.568
 6556W        W74785  16.237   1.435  14.300
 6557W        W74786  12.107  13.173   2.775
 6558W        W74787   4.358  25.446  13.912
 6559W        W74788  11.433  31.556   1.151
 6560W        W74789  31.490  41.321   2.415
 6561W        W74790  32.060   6.708  14.787
 6562W        W74791   3.412  10.173  12.847
 6563W        W74792  32.424  34.379  11.454
 6564W        W74793  15.607   0.624  10.098
 6565W        W74794  18.603   5.931  11.633
 6566W        W74795   2.485  10.997  11.294
 6567W        W74796  29.695  30.813   2.322
 6568W        W74797  32.427  16.306  14.128
 6569W        W74798   8.012  39.849  14.858
 6570W        W74799  23.168   9.971  12.644
 6571W        W74800  13.197  42.867   2.745
 6572W        W74801  28.128  44.948  14.444
 6573W        W74802  39.396  25.240  13.814
 6574W        W74803  27.879  30.803   0.325
 6575W        W74804   9.821  14.573   3.752
 6576W        W74805  39.755  28.844  12.051
 6577W        W74806  28.161  41.845   0.325
 6578W        W74807   5.221  24.406  13.916
 6579W        W74808  38.043   5.624  10.171
 6580W        W74809  12.203  37.859  13.511
 6581W        W74810  32.844  24.448  10.739
 6582W        W74811   7.860  40.246  11.065
 6583W        W74812  23.788  36.475   0.476
 6584W        W74813   7.658  23.579  13.844
 6585W        W74814   1.535   0.951   2.646
 6586W        W74815   6.530  17.019   1.329
 6587W        W74816  14.133  14.444   4.567
 6588W        W74817  11.845   3.737  14.854
 6589W        W74818  16.408  34.984  12.085
 6590W        W74819  15.721  34.052   5.077
 6591W        W74820  41.793  10.715  14.912
 6592W        W74821  21.639  37.156   0.824
 6593W        W74822  10.129   2.391  13.978
 6594W        W74823   3.469  41.658   4.589
 6595W        W74824  10.753   4.030  11.871
 6596W        W74825   4.390   6.784  11.142
 6597W        W74826  14.926  21.261   2.149
 6598W        W74827  25.410   4.004  14.063
 6599W        W74828  12.645  25.075  10.791
 6600W        W74829   8.038  40.268   5.079
 6601W        W74830   9.387  22.567  14.396
 6602W        W74831  38.607   2.357   4.316
 6603W        W74832  19.824  17.686  13.648
 6604W        W74833  30.237   8.160   3.513
 6605W        W74834   7.632   6.528  14.316
 6606W        W74835  37.559  21.590  11.295
 6607W        W74836   4.750  21.013   5.051
 6608W        W74837   5.648  24.941  14.320
 6609W        W74838  20.164  44.407   2.619
 6610W        W74839  25.618  15.125  10.141
 6611W        W74840   5.961  43.332   1.595
 6612W        W74841  23.946  14.682   2.359
 6613W        W74842  23.641  41.689  13.527
 6614W        W74843  23.097  17.047  11.212
 6615W        W74844  32.553  37.342   2.469
 6616W        W74845  41.589  41.473  11.251
 6617W        W74846  23.473  38.953   1.751
 6618W        W74847  24.351  15.519  14.898
 6619W        W74848  30.127  14.489   4.470
 6620W        W74849  17.514  26.154  13.462
 6621W        W74850  23.495  26.529   1.929
 6622W        W74851  32.208  19.810  14.986
 6623W        W74852  15.615  19.133   1.425
 6624W        W74853  23.668   3.325  13.484
 6625W        W74854   0.129   1.535   2.784
 6626W        W74855  26.119   5.249  13.592
 6627W        W74856   4.959  44.959  12.925
 6628W        W74857  41.232  30.772   5.362
 6629W        W74858   0.545  13.581   1.317
 6630W        W74859  14.836   9.723   1.766
 6631W        W74860  42.327  35.870   0.908
 6632W        W74861  13.200  32.664  14.246
 6633W        W74862   5.761  35.538  14.884
 6634W        W74863   4.761  19.655   3.226
 6635W        W74864  42.026   2.033  13.658
 6636W        W74865  32.447   5.923  14.445
 6637W        W74866  16.438  13.031   0.395
 6638W        W74867  28.045  24.427  12.008
 6639W        W74868  28.165  28.896   0.910
 6640W        W74869  24.086  33.225   3.632
 6641W        W74870  35.902  38.776  12.514
 6642W        W74871   2.769  22.601  10.746
 6643W        W74872  15.153  14.558   4.559
 6644W        W74873   5.131   1.837  10.433
 6645W        W74874  26.539  19.538  11.411
 6646W        W74875  24.040   2.627   1.724
 6647W        W74876  34.824  15.418   5.049
 6648W        W74877   1.374  32.044   4.995
 6649W        W74878  32.895  12.638   0.952
 6650W        W74879   8.595  12.802   1.463
 6651W        W74880  24.074  15.573   1.506
 6652W        W74881  27.264  38.940   3.685
 6653W        W74882  18.707   3.440  13.088
 6654W        W74883  26.100  14.719  10.761
 6655W        W74884  26.797  27.791  11.983
 6656W        W74885  13.196  31.592  10.375
 6657W        W74886  20.124  19.217   3.325
 6658W        W74887  30.596  18.392  12.880
 6659W        W74888  41.950  26.214  10.657
 6660W        W74889   9.719  16.094   4.627
 6661W        W74890  13.755  31.972   4.679
 6662W        W74891  29.395  18.849   3.148
 6663W        W74892  34.410  38.374  12.043
 6664W        W74893  36.020   0.916  14.590
 6665W        W74894   4.020  25.249   1.806
 6666W        W74895  32.836  21.932   1.734
 6667W        W74896  18.072  42.610  14.110
 6668W        W74897   2.382  15.355   1.215
 6669W        W74898  42.727  27.426   0.741
 6670W        W74899  13.376  24.721  11.169
 6671W        W74900  44.299  40.554   0.317
 6672W        W74901  24.067  19.993  13.993
 6673W        W74902  29.898   4.527  13.007
 6674W        W74903  38.520  13.331   2.355
 6675W        W74904  14.558  36.779  11.648
 6676W        W74905  25.768  10.413  14.663
 6677W        W74906  16.731  13.635   3.218
 6678W        W74907  12.068  37.482  12.885
 6679W        W74908  12.532  24.717   2.154
 6680W        W74909  41.550  26.240   0.693
 6681W        W74910  14.785  21.036  13.011
 6682W        W74911  36.097  37.824  13.887
 6683W        W74912  10.816   1.044  13.057
 6684W        W74913  20.765  25.124  10.409
 6685W        W74914  12.152  18.214   1.033
 6686W        W74915  29.722  38.792  14.744
 6687W        W74916  30.980  26.489   9.854
 6688W        W74917   5.246   4.733   1.477
 6689W        W74918  21.151  26.162  14.406
 6690W        W74919   0.547   5.037   4.587
 6691W        W74920  40.384  20.052   4.102
 6692W        W74921  35.893  23.509  14.242
 6693W        W74922   4.925  24.493   1.711
 6694W        W74923  17.509  16.290  14.413
 6695W        W74924   7.438  26.731   4.007
 6696W        W74925  13.189  19.981   9.958
 6697W        W74926  17.928   9.858   2.898
 6698W        W74927  15.490  43.303   1.356
 6699W        W74928  35.945  11.102   0.298
 6700W        W74929  26.670  38.447  10.751
 6701W        W74930  27.409   6.676  13.174
 6702W        W74931   1.791  43.814  13.237
 6703W        W74932  38.965  40.204   4.687
 6704W        W74933  14.027   0.923   4.953
 6705W        W74934  31.545   2.736   3.593
 6706W        W74935  37.850   7.333  13.464
 6707W        W74936  13.153   8.436  12.856
 6708W        W74937  34.897  34.462   3.701
 6709W        W74938  40.447  13.585  14.340
 6710W        W74939  26.575  10.871  10.640
 6711W        W74940  41.651  36.996   1.483
 6712W        W74941  30.156  38.018   3.241
 6713W        W74942   9.766   2.453   4.518
 6714W        W74943  28.809   0.945  11.549
 6715W        W74944  29.067  21.556   1.304
 6716W        W74945   4.573   6.357   3.792
 6717W        W74946  26.539  36.071  14.352
 6718W        W74947   5.195  15.726   4.513
 6719W        W74948  42.777  12.358  14.367
 6720W        W74949  32.981  36.827  12.007
 6721W        W74950  25.599  10.735   3.302
 6722W        W74951  31.981  43.221   5.279
 6723W        W74952  35.994  18.622   3.403
 6724W        W74953  12.294  34.921   4.132
 6725W        W74954  15.761  16.193   2.753
 6726W        W74955  16.058  20.667  14.941
 6727W        W74956  14.526   8.786   2.195
 6728W        W74957  29.653  43.810  11.551
 6729W        W74958  17.370  35.506   2.311
 6730W        W74959   2.811  44.499   1.401
 6731W        W74960  32.084  17.812   1.617
 6732W        W74961  26.026  24.465   4.393
 6733W        W74962  39.428   3.207  14.601
 6734W        W74963  21.526   0.839  11.936
 6735W        W74964  43.210   7.438  10.789
 6736W        W74965  31.608   4.757   0.733
 6737W        W74966  17.573  14.824  14.496
 6738W        W74967  30.006  38.241   2.265
 6739W        W74968  23.704   3.702  11.892
 6740W        W74969  19.229  32.904   1.763
 6741W        W74970   9.856   0.622  12.064
 6742W        W74971  29.865  32.123   3.350
 6743W        W74972  36.367   5.738  12.989
 6744W        W74973  15.442  27.121   4.581
 6745W        W74974  39.769  14.563   3.930
 6746W        W74975   3.418  26.264  14.865
 6747W        W74976   1.467  38.898   3.986
 6748W        W74977  40.409   3.292   4.114
 6749W        W74978  35.419  28.592  13.301
 6750W        W74979  19.041  27.394  11.160
 6751W        W74980  11.842  16.183  11.581
 6752W        W74981  31.035  21.473  10.723
 6753W        W74982   8.165  35.985  10.486
 6754W        W74983  15.377  10.844   3.845
 6755W        W74984  27.150  14.893   3.742
 6756W        W74985  20.536  34.324   2.041
 6757W        W74986  21.644  42.463  11.141
 6758W        W74987  40.830  13.653   0.769
 6759W        W74988   0.885  43.955   1.283
 6760W        W74989  23.246  23.769  12.513
 6761W        W74990  43.803  24.368  12.540
 6762W        W74991  42.894   3.766  12.403
 6763W        W74992  41.045  32.913   1.558
 6764W        W74993  44.049  39.365  13.217
 6765W        W74994  41.576  39.461  12.012
 6766W        W74995  27.431  37.756  13.594
 6767W        W74996  18.708  18.589   2.697
 6768W        W74997  30.523  34.144  12.509
 6769W        W74998  36.677   4.782   2.328
 6770W        W74999  20.070  40.005   1.191
 6771W        W75000  20.658  44.044  10.080
 6772W        W75001  15.994  36.348   0.304
 6773W        W75002  36.125   1.430  13.311
 6774W        W75003  36.232  11.336  12.426
 6775W        W75004  14.310  29.142   0.848
 6776W        W75005  27.707  22.178  13.403
 6777W        W75006  26.540  29.329  11.528
 6778W        W75007  14.357  10.649  14.844
 6779W        W75008  36.833  35.669  12.488
 6780W        W75009   2.851  11.751   1.960
 6781W        W75010   5.965  28.933   3.075
 6782W        W75011  14.802  20.280  12.406
 6783W        W75012  21.431  18.206  14.821
 6784W        W75013  30.040  44.585  13.106
 6785W        W75014  19.987  23.121   2.274
 6786W        W75015   1.878   7.696  11.586
 6787W        W75016   2.856  21.574   0.388
 6788W        W75017  14.079  15.854   1.914
 6789W        W75018  21.828  19.446   1.387
 6790W        W75019  21.345  12.142   2.671
 6791W        W75020  26.449  40.393   1.358
 6792W        W75021  26.638   7.456   0.583
 6793W        W75022  39.996  34.881   2.823
 6794W        W75023  24.692  27.171   1.150
 6795W        W75024  10.586  11.168  10.162
 6796W        W75025  20.272  36.153  13.874
 6797W        W75026  30.734  39.547   1.207
 6798W        W75027  19.495  27.850   4.459
 6799W        W75028  17.339  40.564  13.861
 6800W        W75029  11.632  17.557  14.797
 6801W        W75030   8.550  39.400   1.941
 6802W        W75031  23.503  31.457   2.645
 6803W        W75032  38.815  15.346  12.596
 6804W        W75033  37.381   3.276  10.346
 6805W        W75034  20.374  18.285  13.129
 6806W        W75035  33.943   1.007   0.713
 6807W        W75036  27.886   3.419   1.426
 6808W        W75037  17.656  36.069  14.364
 6809W        W75038  24.490  21.084  14.351
 6810W        W75039   4.746  42.766   1.671
 6811W        W75040   2.111   9.446  13.357
 6812W        W75041  15.378  32.560  14.252
 6813W        W75042  15.387   7.381  14.018
 6814W        W75043  12.422  30.395  12.772
 6815W        W75044  34.612   0.235   2.231
 6816W        W75045   5.926  12.503  11.549
 6817W        W75046  44.818  27.630  13.412
 6818W        W75047   8.720  44.161   3.241
 6819W        W75048  44.359  27.398  14.901
 6820W        W75049  25.597  42.220   4.659
 6821W        W75050   8.395   2.122   1.276
 6822W        W75051  39.546  23.979  13.525
 6823W        W75052  24.487  14.771  14.452
 6824W        W75053  13.653  13.984  13.500
 6825W        W75054  44.578  21.909  10.102
 6826W        W75055  31.983   0.077  11.619
 6827W        W75056  23.021  44.019  11.408
 6828W        W75057  23.780  34.338   1.895
 6829W        W75058  25.462  44.888  12.407
 6830W        W75059   7.266  42.028   3.618
 6831W        W75060  17.774   7.941   3.754
 6832W        W75061   3.781   2.296  14.380
 6833W        W75062   7.150  29.945  12.857
 6834W        W75063  27.725  17.219   1.750
 6835W        W75064  32.593  13.213   3.023
 6836W        W75065  25.017  36.030   1.039
 6837W        W75066   3.394  27.725   0.486
 6838W        W75067  34.959  27.873   3.460
 6839W        W75068   9.847  13.816  13.355
 6840W        W75069   7.926  23.205   1.119
 6841W        W75070  23.563  10.843  10.976
 6842W        W75071   2.207  35.304  14.953
 6843W        W75072  11.888  38.877   0.398
 6844W        W75073  16.084  24.071   2.257
 6845W        W75074   3.432  15.076  12.083
 6846W        W75075  24.234  44.650  11.554
 6847W        W75076  34.019   0.362   1.357
 6848W        W75077   9.333   6.124   2.802
 6849W        W75078  28.591  38.484  12.856
 6850W        W75079  29.008  20.454   0.463
 6851W        W75080  15.948  39.177   3.159
 6852W        W75081  43.825  23.414  13.607
 6853W        W75082  29.300  36.759  14.859
 6854W        W75083  41.216  32.855   2.843
 6855W        W75084  43.489  23.983   1.841
 6856W        W75085  28.682  27.353  12.944
 6857W        W75086  11.781  17.550   3.951
 6858W        W75087  32.426   8.231  13.034
 6859W        W75088  10.802  44.287   0.362
 6860W        W75089  34.580   3.511  10.680
 6861W        W75090   0.241  26.607   0.404
 6862W        W75091  37.276  14.742  13.355
 6863W        W75092   4.818  12.357  13.539
 6864W        W75093  30.051  11.374   4.306
 6865W        W75094  38.549   0.285  12.540
 6866W        W75095  30.820  33.538  14.518
 6867W        W75096   3.635   9.269  13.378
 6868W        W75097  36.463  20.740  10.584
 6869W        W75098  19.014   2.501   0.416
 6870W        W75099  19.366  40.363  11.491
 6871W        W75100   7.455  35.563   3.605
 6872W        W75101  28.554   2.397   0.987
 6873W        W75102  35.498  36.881   2.581
 6874W        W75103  12.669  12.214   2.310
 6875W        W75104  30.392  24.138   1.868
 6876W        W75105   9.740  13.717   0.220
 6877W        W75106  44.917  25.642  12.023
 6878W        W75107  35.470  19.543  11.410
 6879W        W75108  38.930  20.514  11.985
 6880W        W75109  26.464   2.487   2.374
 6881W        W75110   5.207  25.656  14.503
 6882W        W75111   4.118  36.843   1.865
 6883W        W75112  20.106  18.986  13.844
 6884W        W75113  13.228  15.383   4.971
 6885W        W75114  29.140   6.945  11.793
 6886W        W75115  27.480   4.696   1.308
 6887W        W75116   6.853  29.085  14.777
 6888W        W75117   6.783  23.584  14.716
 6889W        W75118   5.894  17.200  10.824
 6890W        W75119  30.684  33.164   5.010
 6891W        W75120  26.134  42.967   2.068
 6892W        W75121   7.262  12.073  13.574
 6893W        W75122  40.774  41.535   4.670
 6894W        W75123   2.812  21.150   1.665
 6895W        W75124  14.457  34.386   4.158
 6896W        W75125  25.914  14.385   3.269
 6897W        W75126  35.973   3.592   3.635
 6898W        W75127  18.641   7.246   3.625
 6899W        W75128  31.317  13.895  14.515
 6900W        W75129  24.800  29.149  13.505
 6901W        W75130   3.725  36.980  13.808
 6902W        W75131  21.308  41.578  11.503
 6903W        W75132  29.541  32.262   4.621
 6904W        W75133  31.703   6.594   3.680
 6905W        W75134   6.685  14.249  13.947
 6906W        W75135  28.258  25.172   1.292
 6907W        W75136  44.249  38.416   3.290
 6908W        W75137  19.860   6.787  11.227
 6909W        W75138  28.414  26.115   4.715
 6910W        W75139  36.556  36.426  12.297
 6911W        W75140  42.236  44.816   0.097
 6912W        W75141  31.648  41.415  13.857
 6913W        W75142  39.446  23.342  11.099
 6914W        W75143  30.049   8.637   0.179
 6915W        W75144  21.515  44.035  14.944
 6916W        W75145   6.918  41.521   4.841
 6917W        W75146  29.696  40.543   3.645
 6918W        W75147  26.704  35.930   4.926
 6919W        W75148  11.367  26.081  10.667
 6920W        W75149   6.321  30.502  13.501
 6921W        W75150  15.570  29.643   2.611
 6922W        W75151  22.491  15.629   4.610
 6923W        W75152  41.286   2.158   2.625
 6924W        W75153  32.107   5.249   2.161
 6925W        W75154   6.114   5.371  11.994
 6926W        W75155  42.805  20.211   5.100
 6927W        W75156  26.454  22.155  12.910
 6928W        W75157  40.931  11.743   1.760
 6929W        W75158  31.943  14.756  14.356
 6930W        W75159  10.338  33.931   0.360
 6931W        W75160  27.094  15.553   2.642
 6932W        W75161  42.183  23.323   2.237
 6933W        W75162  36.975   5.323  12.859
 6934W        W75163  31.554  32.622  13.598
 6935W        W75164  40.249  17.565  14.495
 6936W        W75165  29.594  10.542   1.296
 6937W        W75166  23.341   5.901   2.350
 6938W        W75167   0.952  13.848   0.409
 6939W        W75168  39.443  32.716   2.742
 6940W        W75169  22.699  37.734  12.882
 6941W        W75170   6.807  31.949   1.140
 6942W        W75171  17.329  16.855   1.208
 6943W        W75172  43.369  24.682  11.002
 6944W        W75173  41.596  18.668   1.919
 6945W        W75174  30.650  30.457   4.129
 6946W        W75175  11.155  34.166   3.927
 6947W        W75176  14.714  30.420   2.584
 6948W        W75177   2.302   8.619   3.126
 6949W        W75178  28.689  20.342  14.959
 6950W        W75179   8.969  34.870  13.377
 6951W        W75180  14.362  34.147  14.588
 6952W        W75181   6.801   1.191  10.762
 6953W        W75182  18.806  31.012   4.165
 6954W        W75183  20.998  34.244   2.329
 6955W        W75184   4.010  18.740   0.893
 6956W        W75185  42.255  10.138   1.807
 6957W        W75186  28.042  24.072   3.210
 6958W        W75187  14.152   8.796   3.885
 6959W        W75188  11.178   9.180   1.205
 6960W        W75189  14.527  11.725   0.413
 6961W        W75190   6.580  29.566   0.838
 6962W        W75191  43.042  38.489  10.694
 6963W        W75192   3.357  40.311   3.349
 6964W        W75193  36.495  23.697   0.854
 6965W        W75194  16.599   1.668   1.350
 6966W        W75195   7.357   1.224   1.217
 6967W        W75196  39.974  13.693  11.759
 6968W        W75197  21.050  16.791   4.446
 6969W        W75198  41.968  40.827  10.696
 6970W        W75199   8.282  11.952   3.354
 6971W        W75200  17.361   3.450   4.394
 6972W        W75201  10.699  26.477   1.678
 6973W        W75202  41.275  13.233  14.344
 6974W        W75203  22.643  38.824   4.683
 6975W        W75204  16.349  19.028  11.232
 6976W        W75205  10.864  41.266  13.564
 6977W        W75206  10.375  32.305   2.430
 6978W        W75207  18.243  30.263   3.639
 6979W        W75208  32.295  13.037   3.401
 6980W        W75209  33.386   4.849  10.247
 6981W        W75210  15.676  33.194  10.609
 6982W        W75211  42.721   7.298  13.885
 6983W        W75212   8.893   7.758   5.073
 6984W        W75213  19.228  38.385  14.493
 6985W        W75214  44.205  34.953   0.045
 6986W        W75215   6.765  25.028   0.188
 6987W        W75216  27.342  42.688   4.132
 6988W        W75217   0.707  27.478  14.539
 6989W        W75218  36.113  20.245  11.264
 6990W        W75219  19.224  41.054  13.985
 6991W        W75220  21.131  25.494   4.681
 6992W        W75221  39.820  26.564   3.220
 6993W        W75222  16.608   9.338  13.353
 6994W        W75223  44.969  33.414  10.748
 6995W        W75224  16.300  25.661   2.203
 6996W        W75225  27.434   5.913   0.323
 6997W        W75226   3.198  10.072   1.258
 6998W        W75227  14.709  25.567   1.662
 6999W        W75228  35.348  21.228   3.127
 7000W        W75229  34.408  40.515   4.249
 7001W        W75230  26.731  38.911  11.083
 7002W        W75231  37.813  28.360   1.478
 7003W        W75232  29.484  40.629   9.882
 7004W        W75233  35.035  35.968  14.945
 7005W        W75234  36.269   2.153   2.895
 7006W        W75235  25.398  37.156  11.315
 7007W        W75236  37.155  12.275   1.326
 7008W        W75237  13.214   6.583  13.165
 7009W        W75238  23.999  33.095  14.538
 7010W        W75239  42.890  24.092   1.109
 7011W        W75240  41.501   8.900   0.321
 7012W        W75241  16.784   8.653   1.368
 7013W        W75242  21.709  14.285  14.895
 7014W        W75243  42.330  25.712   2.227
 7015W        W75244  33.343  43.373   1.092
 7016W        W75245  29.414  19.222   3.530
 7017W        W75246  12.415  32.855   0.022
 7018W        W75247   3.082  13.325   3.492
 7019W        W75248  30.092  21.099  14.394
 7020W        W75249   6.685  15.563   3.214
 7021W        W75250  20.626  18.595   1.657
 7022W        W75251  22.733  28.166   1.958
 7023W        W75252  35.994  44.092  10.469
 7024W        W75253  29.331   9.357  13.844
 7025W        W75254  22.016  36.841   0.265
 7026W        W75255   0.278  41.839   0.156
 7027W        W75256  40.974  32.515  14.771
 7028W        W75257  26.845  28.171   4.661
 7029W        W75258  44.704  40.489   2.341
 7030W        W75259  28.542  42.286  14.902
 7031W        W75260  12.334   9.734  14.764
 7032W        W75261  14.678  19.117  11.696
 7033W        W75262   0.838  15.154   3.153
 7034W        W75263  31.967   3.860  12.584
 7035W        W75264  29.401  41.835  10.948
 7036W        W75265  37.322  16.234   3.684
 7037W        W75266  21.506  37.865  12.501
 7038W        W75267  27.430  17.162   0.112
 7039W        W75268  22.899   5.880  11.596
 7040W        W75269  33.936  39.389   3.390
 7041W        W75270  41.911   9.143  13.435
 7042W        W75271  10.603  10.452   4.199
 7043W        W75272  23.209   9.507  11.712
 7044W        W75273  31.801  31.273   1.311
 7045W        W75274  33.452  14.159   1.804
 7046W        W75275   5.414  31.394  13.805
 7047W        W75276  23.136  25.951   4.592
 7048W        W75277  19.138  41.609  13.984
 7049W        W75278   2.723  22.753   4.136
 7050W        W75279  15.578   2.864   2.343
 7051W        W75280   3.751  27.362   0.427
 7052W        W75281  10.451  28.979   2.441
 7053W        W75282   0.645  38.505   4.569
 7054W        W75283  11.082  20.120  10.984
 7055W        W75284  34.258   6.229  11.502
 7056W        W75285  43.384  14.770   3.637
 7057W        W75286  44.678  23.536  13.894
 7058W        W75287  26.212  30.286   3.769
 7059W        W75288   3.947  26.262  12.620
 7060W        W75289  36.141   3.786   1.005
 7061W        W75290   4.017  14.293  12.487
 7062W        W75291  44.354  39.867  12.443
 7063W        W75292  24.730  14.557   3.736
 7064W        W75293   8.854  21.035   2.927
 7065W        W75294  17.810  24.693   0.690
 7066W        W75295  20.538  17.069  13.429
 7067W        W75296  43.417  19.508  14.986
 7068W        W75297   8.476  19.199   1.688
 7069W        W75298  25.764  36.439   2.821
 7070W        W75299  19.499  30.455   5.249
 7071W        W75300   3.781  41.068  10.641
 7072W        W75301  12.877  11.819  11.098
 7073W        W75302  43.021  44.405   2.141
 7074W        W75303   5.966  20.010   4.088
 7075W        W75304  25.637  43.939   1.439
 7076W        W75305  33.394  32.759   3.986
 7077W        W75306  33.841  35.511  10.611
 7078W        W75307  22.146  20.058  11.374
 7079W        W75308  32.105   4.791   0.829
 7080W        W75309  20.767  44.046  11.699
 7081W        W75310  25.113   6.785  13.954
 7082W        W75311  24.440   2.376  13.735
 7083W        W75312  44.866  39.916  13.637
 7084W        W75313  19.547  29.058   2.623
 7085W        W75314  12.888  16.897  12.357
 7086W        W75315  19.986  33.611   0.344
 7087W        W75316   9.229  31.692   2.720
 7088W        W75317   2.858  27.906  14.383
 7089W        W75318  42.886   8.983   2.404
 7090W        W75319  20.117  42.526   0.556
 7091W        W75320  39.749   9.237   3.656
 7092W        W75321  32.859  25.194  11.944
 7093W        W75322  15.261  33.555   3.640
 7094W        W75323   2.100  10.711  13.609
 7095W        W75324  41.030  42.552   1.110
 7096W        W75325  19.426  44.273   4.927
 7097W        W75326  16.719  25.940   2.143
 7098W        W75327  15.274  35.407  14.567
 7099W        W75328  37.548  18.364   0.303
 7100W        W75329   5.265  41.823  13.622
 7101W        W75330  37.250   0.304   4.312
 7102W        W75331   4.034   0.196   0.468
 7103W        W75332  15.337  36.426  13.119
 7104W        W75333  42.642  41.241  12.221
 7105W        W75334  24.457  33.956  12.008
 7106W        W75335   2.699  31.128   3.813
 7107W        W75336  37.779  16.190   4.469
 7108W        W75337   6.665   3.364  12.270
 7109W        W75338  19.706  26.162   3.111
 7110W        W75339   8.141  35.371   0.806
 7111W        W75340  21.735  44.307  11.773
 7112W        W75341  39.408  14.733  10.642
 7113W        W75342  11.891  12.144  12.150
 7114W        W75343  44.102  21.574   1.348
 7115W        W75344   6.624   5.323   4.601
 7116W        W75345  43.557   6.190  11.995
 7117W        W75346   6.470  19.040   0.310
 7118W        W75347  39.286   4.642   3.745
 7119W        W75348  20.129  13.023  13.413
 7120W        W75349  18.095   8.743  13.853
 7121W        W75350  28.196  35.964   1.220
 7122W        W75351  33.020  10.269   0.472
 7123W        W75352  44.345   7.818   3.150
 7124W        W75353  13.284  14.275  11.678
 7125W        W75354  36.286   6.517  14.771
 7126W        W75355  39.033  37.346   1.542
 7127W        W75356  41.548   5.633  14.502
 7128W        W75357  25.999  13.085  14.840
 7129W        W75358  23.532  11.656  14.344
 7130W        W75359   8.842   7.702  12.074
 7131W        W75360  32.651  33.055   3.293
 7132W        W75361  18.607   0.777  11.614
 7133W        W75362  33.605  21.546  14.820
 7134W        W75363   5.724  36.058  12.034
 7135W        W75364  22.630  26.762  13.323
 7136W        W75365  40.804   2.014  11.982
 7137W        W75366  24.513  10.290   4.665
 7138W        W75367  10.174   8.631   2.782
 7139W        W75368   8.147  12.143  10.587
 7140W        W75369  30.075  43.582   1.753
 7141W        W75370  32.999  39.514  12.120
 7142W        W75371  24.802  22.595   4.247
 7143W        W75372  28.672  26.500  13.615
 7144W        W75373  21.535  10.806   1.349
 7145W        W75374  24.105   3.449   1.329
 7146W        W75375  21.215  17.777  10.573
 7147W        W75376  19.128  44.380   0.422
 7148W        W75377  36.613  30.603  12.928
 7149W        W75378  22.112  32.904   0.181
 7150W        W75379   9.913  41.511   2.818
 7151W        W75380  44.682   4.346   0.987
 7152W        W75381   3.268  18.759  12.086
 7153W        W75382  30.190  37.408  14.709
 7154W        W75383  28.526   1.919  12.182
 7155W        W75384  14.664  34.207   0.692
 7156W        W75385   4.323  31.148  10.639
 7157W        W75386   3.814  18.137   0.649
 7158W        W75387   3.725  15.464   3.184
 7159W        W75388  42.510  31.331  13.541
 7160W        W75389  30.644  26.990   3.208
 7161W        W75390  13.063   4.390  11.189
 7162W        W75391  23.478   3.892   4.495
 7163W        W75392  23.918  29.436  12.086
 7164W        W75393  22.228  19.734  14.650
 7165W        W75394  24.555  17.499   3.513
 7166W        W75395   1.064  10.366   3.240
 7167W        W75396  32.394  24.496   1.917
 7168W        W75397   5.831  42.536   3.297
 7169W        W75398  22.030  10.636  10.381
 7170W        W75399  24.603  39.366  11.108
 7171W        W75400  26.693  36.425   2.340
 7172W        W75401  25.550   8.143  14.819
 7173W        W75402  39.540  22.727  12.990
 7174W        W75403  27.081  43.478   1.247
 7175W        W75404  18.516   6.351   9.776
 7176W        W75405  21.443   3.765  10.707
 7177W        W75406  11.791   3.138  10.340
 7178W        W75407  32.788  28.295  13.996
 7179W        W75408  19.353  25.284  11.508
 7180W        W75409  26.135  37.826   2.629
 7181W        W75410   4.865  10.637  14.635
 7182W        W75411  22.894   7.746   0.475
 7183W        W75412   8.406  16.131  11.419
 7184W        W75413  44.886  25.581   4.507
 7185W        W75414  30.003   9.070   2.277
 7186W        W75415  25.815  37.710   3.543
 7187W        W75416  18.265   8.871   4.722
 7188W        W75417  23.592   5.683   0.931
 7189W        W75418   4.895   1.271  11.587
 7190W        W75419  34.225   3.126   0.510
 7191W        W75420  26.041  19.317   1.307
 7192W        W75421  34.703  15.051   0.914
 7193W        W75422  25.484  27.152  11.877
 7194W        W75423   9.209  15.570  12.595
 7195W        W75424   7.648  26.015  14.479
 7196W        W75425  29.672  28.003  14.801
 7197W        W75426  39.006  22.280   0.543
 7198W        W75427   3.924  28.322  12.926
 7199W        W75428  18.503   8.841  12.196
 7200W        W75429   7.387   1.497   0.313
 7201W        W75430   1.843  37.186  12.864
 7202W        W75431  21.701  31.897   3.996
 7203W        W75432  27.642  12.365  10.576
 7204W        W75433  44.081  41.512   2.252
 7205W        W75434  33.734   1.436  10.783
 7206W        W75435   7.354   4.401  12.935
 7207W        W75436  38.807  31.397   0.899
 7208W        W75437  11.621  28.123   3.735
 7209W        W75438  18.178  18.035   0.428
 7210W        W75439  22.277  25.018  12.894
 7211W        W75440  36.649  23.227  10.915
 7212W        W75441  22.818  18.793  13.205
 7213W        W75442  29.471  25.251   4.087
 7214W        W75443  10.817  40.597  12.920
 7215W        W75444   8.319  11.188   0.779
 7216W        W75445  11.293  29.247   1.884
 7217W        W75446  29.442  40.437  14.061
 7218W        W75447  31.506  14.114  14.936
 7219W        W75448  35.922  12.692  11.943
 7220W        W75449  30.212   1.855  14.914
 7221W        W75450  42.052  34.106   1.617
 7222W        W75451  38.012  16.521   2.647
 7223W        W75452  39.534  26.088  11.599
 7224W        W75453  35.736  11.382  12.538
 7225W        W75454   8.824  26.732  10.718
 7226W        W75455  26.477  16.025   4.292
 7227W        W75456  33.206  43.368   1.603
 7228W        W75457  28.909  21.011   2.215
 7229W        W75458  15.525  28.439  13.725
 7230W        W75459  19.259  43.336  14.680
 7231W        W75460  21.616  35.383  14.325
 7232W        W75461   0.994  38.907   2.280
 7233W        W75462  19.234  40.511   3.212
 7234W        W75463  20.389  35.349  11.011
 7235W        W75464  34.386  24.535   2.826
 7236W        W75465  40.497  25.266   4.234
 7237W        W75466  34.592  29.075  12.960
 7238W        W75467   9.620  21.609  12.375
 7239W        W75468  23.238  15.165   3.292
 7240W        W75469  26.172  44.442   0.280
 7241W        W75470  16.534   3.934   0.677
 7242W        W75471   4.620  11.756  12.085
 7243W        W75472  39.972   1.241   3.405
 7244W        W75473  42.856  33.481  10.489
 7245W        W75474   6.945  19.988  11.679
 7246W        W75475  34.520  17.571  13.035
 7247W        W75476  18.748   0.027  12.093
 7248W        W75477  14.663  29.939   4.383
 7249W        W75478  36.121  34.808   0.397
 7250W        W75479   2.724  17.576   2.151
 7251W        W75480  14.245  30.206   4.571
 7252W        W75481  29.945  19.564   4.562
 7253W        W75482  33.513  27.554   4.507
 7254W        W75483  42.849  22.669  13.277
 7255W        W75484   3.333  32.898   2.273
 7256W        W75485  26.980  25.425  12.033
 7257W        W75486   4.222  14.573  14.409
 7258W        W75487  20.350  33.490  12.918
 7259W        W75488   2.392  14.581  13.459
 7260W        W75489  40.395  18.532   0.676
 7261W        W75490  35.395  22.576  11.216
 7262W        W75491   0.147  20.670   0.744
 7263W        W75492  35.408   2.276   1.035
 7264W        W75493  14.772   0.350   2.416
 7265W        W75494   0.236   3.846  12.021
 7266W        W75495   3.862  44.756   1.808
 7267W        W75496   4.659  30.951  11.002
 7268W        W75497  41.270  44.656   2.431
 7269W        W75498  36.392  23.067  14.908
 7270W        W75499  13.323  36.100   1.407
 7271W        W75500   7.482  14.843   0.450
 7272W        W75501  41.123   4.522   2.465
 7273W        W75502  12.309  13.615  10.984
 7274W        W75503  29.846  44.949  13.504
 7275W        W75504  40.326  24.076   2.290
 7276W        W75505  15.780  20.533   5.023
 7277W        W75506   3.846   7.395  12.701
 7278W        W75507  20.661  14.011   2.890
 7279W        W75508  13.525  40.609  12.977
 7280W        W75509  21.036   8.412  13.080
 7281W        W75510  13.920   0.151  11.643
 7282W        W75511  17.524  16.010  13.081
 7283W        W75512  27.902  40.945   3.176
 7284W        W75513  44.325  37.620  11.190
 7285W        W75514  17.102  13.089  14.393
 7286W        W75515  18.719  40.835  12.601
 7287W        W75516   1.709  10.552   4.313
 7288W        W75517  44.955  24.042   3.688
 7289W        W75518  38.897  30.729  14.327
 7290W        W75519  44.043  10.687  12.331
 7291W        W75520  24.205  39.020  12.436
 7292W        W75521  37.908  38.748  14.874
 7293W        W75522  28.538  10.851   4.636
 7294W        W75523  44.088  36.300   1.930
 7295W        W75524   1.078  31.034  11.127
 7296W        W75525   9.118  16.717  10.800
 7297W        W75526  30.782  12.313  11.041
 7298W        W75527   3.652  44.691  12.007
 7299W        W75528  24.730   8.259   0.858
 7300W        W75529  30.482  33.558   2.628
 7301W        W75530  27.721  15.097   2.931
 7302W        W75531  38.457  30.525  11.110
 7303W        W75532  30.733   9.156  12.023
 7304W        W75533  25.049  34.135  12.513
 7305W        W75534   0.657  32.120   2.481
 7306W        W75535  43.960  25.554   0.480
 7307W        W75536  35.078  12.374  14.973
 7308W        W75537   8.190  35.547   4.792
 7309W        W75538  12.284   7.595   4.698
 7310W        W75539  13.033  44.954   3.815
 7311W        W75540  27.425  13.660   3.689
 7312W        W75541  41.102  40.949   0.460
 7313W        W75542   3.914  24.194  14.439
 7314W        W75543  16.296   5.276  12.941
 7315W        W75544  14.875   1.876  12.161
 7316W        W75545  28.162  13.174   2.412
 7317W        W75546  17.107  15.154  13.445
 7318W        W75547  19.825  14.921  13.286
 7319W        W75548  17.879  37.880  14.242
 7320W        W75549  39.352  11.735  13.767
 7321W        W75550  36.739  25.267   0.834
 7322W        W75551  10.235  13.687   1.479
 7323W        W75552  42.049  29.083  13.508
 7324W        W75553  34.870  43.549   0.669
 7325W        W75554  35.711   8.718   0.017
 7326W        W75555  35.553   7.222  12.111
 7327W        W75556  36.981  44.439   2.909
 7328W        W75557  36.948  19.164   0.035
 7329W        W75558  12.682  32.479  12.847
 7330W        W75559  20.034  24.415   4.178
 7331W        W75560  32.845  37.114   3.218
 7332W        W75561  30.906  20.518   2.763
 7333W        W75562   3.794  27.710  11.505
 7334W        W75563  29.375  30.115  11.012
 7335W        W75564   4.925  37.237   1.953
 7336W        W75565  23.569  19.501   3.192
 7337W        W75566  17.828   7.865   1.803
 7338W        W75567  34.594   0.435   0.440
 7339W        W75568  17.982  43.847  13.405
 7340W        W75569  12.179  28.116   1.288
 7341W        W75570  30.097  30.084   1.816
 7342W        W75571   6.920   4.343  11.175
 7343W        W75572  35.007  28.886   0.188
 7344W        W75573  40.857  32.388  11.615
 7345W        W75574  34.198  40.100  13.703
 7346W        W75575  34.895  20.998   3.087
 7347W        W75576  27.103   6.113   2.818
 7348W        W75577  13.665  32.587   2.461
 7349W        W75578   2.967  26.949   0.345
 7350W        W75579  26.369  33.679  14.771
 7351W        W75580  34.362   5.603  11.494
 7352W        W75581  12.197   0.513  14.322
 7353W        W75582  31.463  17.369   4.092
 7354W        W75583   8.673  30.723   2.830
 7355W        W75584  26.968   3.798   3.497
 7356W        W75585   7.139   9.266   2.803
 7357W        W75586  33.443  25.629   1.325
 7358W        W75587   3.446  10.657   4.346
 7359W        W75588  10.203  34.668   3.513
 7360W        W75589   3.339  24.953  12.952
 7361W        W75590  39.430  34.921   3.269
 7362W        W75591  20.544   6.360   4.308
 7363W        W75592  22.692  41.488  14.917
 7364W        W75593  19.324  38.811   0.898
 7365W        W75594  16.620   3.803   4.488
 7366W        W75595  38.522  17.742   2.383
 7367W        W75596   7.258   2.948   0.400
 7368W        W75597  42.623  15.853   4.065
 7369W        W75598  36.977  34.640  13.236
 7370W        W75599   5.038   3.925   2.070
 7371W        W75600  41.998   3.438   4.072
 7372W        W75601  37.022   0.806  14.803
 7373W        W75602  32.386  43.450   4.585
 7374W        W75603  27.683  10.438   1.318
 7375W        W75604   3.551  13.886   0.637
 7376W        W75605  36.715  18.296  11.124
 7377W        W75606   8.051  29.513  10.966
 7378W        W75607  44.371  41.942   2.621
 7379W        W75608  21.679   1.262   2.339
 7380W        W75609  31.900  41.857   1.785
 7381W        W75610  34.048  24.057  12.929
 7382W        W75611  25.548  25.243   1.348
 7383W        W75612  23.946  39.372  14.948
 7384W        W75613   2.336  39.226   3.504
 7385W        W75614  35.865   0.687  13.573
 7386W        W75615  13.863  13.709  14.485
 7387W        W75616   0.496  42.662   2.281
 7388W        W75617  20.114  30.242   4.177
 7389W        W75618   2.434  16.630   0.272
 7390W        W75619  26.315  20.708   0.878
 7391W        W75620  19.511  22.417  14.303
 7392W        W75621  36.445  33.420  11.447
 7393W        W75622  15.323  18.494   0.824
 7394W        W75623  27.193  23.237  10.755
 7395W        W75624   3.427  15.852  11.647
 7396W        W75625  26.836   8.958   9.838
 7397W        W75626   7.011  11.668   1.296
 7398W        W75627   0.104  37.547  12.487
 7399W        W75628  16.798   6.659   2.752
 7400W        W75629  42.235  27.557   3.726
 7401W        W75630  33.426  18.859   2.302
 7402W        W75631  37.797   1.306   1.677
 7403W        W75632  16.557  34.119  13.368
 7404W        W75633  24.072  31.580   1.341
 7405W        W75634   4.148  16.593   1.824
 7406W        W75635  13.315   5.851   3.564
 7407W        W75636  43.255  27.030   1.158
 7408W        W75637  30.112  25.092   3.271
 7409W        W75638  36.984  43.909   4.564
 7410W        W75639  12.228  25.651  14.742
 7411W        W75640  40.862  25.020   1.232
 7412W        W75641  25.711  31.316  11.437
 7413W        W75642  27.452  42.400   4.594
 7414W        W75643  44.764  11.803   0.829
 7415W        W75644  18.241  16.332  11.484
 7416W        W75645  14.631  40.255   2.819
 7417W        W75646  10.253  31.449   3.694
 7418W        W75647   3.378  16.750   2.310
 7419W        W75648   3.501  28.256   0.471
 7420W        W75649   8.156   7.383  11.210
 7421W        W75650  34.642  16.228  12.881
 7422W        W75651  30.615  10.856  12.911
 7423W        W75652   7.789   4.884  14.848
 7424W        W75653   4.862  17.570  11.524
 7425W        W75654  41.728  32.397   4.871
 7426W        W75655  19.135   7.686   3.763
 7427W        W75656  30.011  12.572  13.196
 7428W        W75657  41.225  13.407   2.863
 7429W        W75658  15.782   3.139  14.464
 7430W        W75659   2.824  26.457  10.024
 7431W        W75660   5.600  22.708   4.657
 7432W        W75661  26.235  24.171   2.161
 7433W        W75662  12.113  11.376   2.151
 7434W        W75663  43.815  12.605   1.287
 7435W        W75664  31.582  26.759  12.213
 7436W        W75665   8.897  23.974   4.157
 7437W        W75666  33.747  21.070  10.628
 7438W        W75667  28.586  35.631   0.451
 7439W        W75668  23.131  30.067  11.919
 7440W        W75669  44.165  13.159   0.464
 7441W        W75670  42.210  40.794   3.674
 7442W        W75671  28.770  35.261  13.342
 7443W        W75672  17.221  40.083  14.035
 7444W        W75673  14.628   9.268   3.312
 7445W        W75674  44.406  26.284  13.396
 7446W        W75675  25.110   3.640  12.186
 7447W        W75676  13.853  23.675  10.770
 7448W        W75677  25.064  23.026   2.865
 7449W        W75678  10.720   5.880  13.931
 7450W        W75679  25.650  38.871   1.411
 7451W        W75680  10.749  38.086   4.068
 7452W        W75681  19.324  27.571   4.056
 7453W        W75682  32.454  23.148   2.837
 7454W        W75683   0.170  13.694  14.877
 7455W        W75684   1.300  35.651  12.471
 7456W        W75685  17.328  21.705  13.010
 7457W        W75686  29.046  37.072   1.724
 7458W        W75687   8.388  29.147   4.900
 7459W        W75688   7.742  37.668  12.408
 7460W        W75689  15.333   7.817   0.951
 7461W        W75690  11.697   0.854   4.536
 7462W        W75691  40.103  11.624  14.640
 7463W        W75692  15.784  16.575   9.943
 7464W        W75693  18.604   5.638   0.006
 7465W        W75694  37.521  18.071   3.375
 7466W        W75695  27.631  23.027   4.414
 7467W        W75696   2.005  17.141  12.895
 7468W        W75697  31.472  19.680  14.516
 7469W        W75698   7.744  44.932   0.571
 7470W        W75699  34.367  24.081  11.560
 7471W        W75700  13.730   7.771   4.909
 7472W        W75701  19.527   0.405   0.725
 7473W        W75702  37.171   6.470  11.703
 7474W        W75703   4.123  32.314   1.306
 7475W        W75704  11.772   7.597  12.542
 7476W        W75705  11.879  30.582   3.180
 7477W        W75706  16.281  40.560   1.465
 7478W        W75707  43.447   1.162   0.874
 7479W        W75708  36.105  43.422  14.006
 7480W        W75709  24.620   6.591  13.679
 7481W        W75710  28.493  38.861  10.958
 7482W        W75711  22.945  33.344  13.430
 7483W        W75712  18.775  19.021   1.793
 7484W        W75713  22.066   9.389   2.133
 7485W        W75714   1.917  24.729  12.355
 7486W        W75715  38.462   5.448  10.929
 7487W        W75716  27.739  17.001  13.894
 7488W        W75717  30.068  30.387  13.780
 7489W        W75718  27.033  44.451   2.371
 7490W        W75719  10.599  24.879  10.686
 7491W        W75720  33.182  42.921   1.301
 7492W        W75721  32.474  19.609   2.671
 7493W        W75722  35.577   0.381   2.164
 7494W        W75723   7.662  14.259   3.228
 7495W        W75724   4.203  20.432  11.851
 7496W        W75725  38.221   4.156  14.865
 7497W        W75726   6.296  25.943   3.136
 7498W        W75727  42.524  38.848   4.692
 7499W        W75728  20.634  20.301   0.129
 7500W        W75729   5.229   7.574  12.467
 7501W        W75730  13.856  16.779   4.152
 7502W        W75731  32.028  33.196  12.525
 7503W        W75732  19.756  12.287  12.898
 7504W        W75733  40.878   8.418  10.953
 7505W        W75734  25.321  39.129   0.006
 7506W        W75735   5.446  44.777   1.313
 7507W        W75736  19.208  36.414  12.372
 7508W        W75737  21.627  14.678  14.518
 7509W        W75738  33.058  29.660   4.707
 7510W        W75739  29.531  28.983   1.696
 7511W        W75740  22.699  14.648  14.020
 7512W        W75741  38.799  36.783  12.391
 7513W        W75742  18.770   2.195   4.174
 7514W        W75743  25.193  15.543   0.020
 7515W        W75744  25.725   0.515  11.081
 7516W        W75745   8.082  14.382   0.193
 7517W        W75746  13.267   6.875  13.774
 7518W        W75747  39.524   6.334  13.630
 7519W        W75748  16.712   2.165  12.702
 7520W        W75749  40.947   1.190  12.118
 7521W        W75750  44.464   1.795   3.652
 7522W        W75751  18.009  29.633   2.069
 7523W        W75752  15.785  30.013  13.522
 7524W        W75753   8.042  10.914  12.480
 7525W        W75754  42.928  41.393   0.959
 7526W        W75755  21.393  22.439  14.159
 7527W        W75756  38.888   5.903   4.667
 7528W        W75757  24.198  43.582   1.770
 7529W        W75758  23.441  40.472  11.430
 7530W        W75759  32.800  33.496  11.554
 7531W        W75760   7.747  21.832  13.866
 7532W        W75761   8.168  18.509  14.309
 7533W        W75762  30.390  22.127  13.910
 7534W        W75763  14.908   1.338   1.429
 7535W        W75764  37.943  22.513   2.168
 7536W        W75765  10.456  43.735   4.073
 7537W        W75766  20.542  24.973   0.923
 7538W        W75767   3.069   8.148  11.969
 7539W        W75768  31.913  11.665  10.678
 7540W        W75769  15.059  20.356   2.271
 7541W        W75770   6.268   0.746  14.869
 7542W        W75771   8.459  31.088  13.822
 7543W        W75772  43.456  35.553   3.733
 7544W        W75773   6.749  28.647  10.118
 7545W        W75774  17.808  38.087  13.381
 7546W        W75775  31.567  37.387   2.101
 7547W        W75776  29.924  38.469   2.728
 7548W        W75777  43.835  32.416  11.974
 7549W        W75778  22.694   2.979   2.864
 7550W        W75779  32.609  30.918  12.537
 7551W        W75780  15.124  17.290   1.157
 7552W        W75781  34.564  24.567  11.539
 7553W        W75782  16.068  13.316  13.590
 7554W        W75783   8.357  20.687  10.633
 7555W        W75784   0.432  32.155  10.753
 7556W        W75785  18.307  15.979   4.995
 7557W        W75786  24.011  32.646   1.405
 7558W        W75787  19.175   6.739  10.644
 7559W        W75788   8.654  23.038  10.429
 7560W        W75789  13.440  14.199   0.165
 7561W        W75790  38.451   3.213  12.207
 7562W        W75791   2.939  15.408   1.747
 7563W        W75792  39.912  26.751   0.927
 7564W        W75793  18.372  34.666   1.632
 7565W        W75794   2.226  10.961   2.154
 7566W        W75795  28.592  20.259   1.757
 7567W        W75796  15.308  31.654   0.171
 7568W        W75797  23.213  16.050  11.146
 7569W        W75798  32.613   3.177   3.224
 7570W        W75799   1.528  13.596  11.240
 7571W        W75800  11.288  28.499   3.641
 7572W        W75801  24.217   6.511  11.579
 7573W        W75802   3.999  40.932   2.737
 7574W        W75803  44.442  15.800   2.757
 7575W        W75804  36.734  37.010   0.372
 7576W        W75805  16.407  40.892  12.474
 7577W        W75806  19.728  22.169  13.871
 7578W        W75807  40.652  13.510   4.145
 7579W        W75808  27.804  24.962   1.583
 7580W        W75809   7.636  25.984   1.677
 7581W        W75810  13.626   3.726  13.024
 7582W        W75811  15.228  15.688  10.964
 7583W        W75812  14.371  15.237   1.371
 7584W        W75813  34.457   5.827   1.487
 7585W        W75814  42.848  42.484   3.804
 7586W        W75815  21.554  33.070  12.846
 7587W        W75816  19.457   6.114  12.577
 7588W        W75817   3.739  31.648  12.017
 7589W        W75818   5.202  39.307  14.837
 7590W        W75819  21.721  21.212  12.929
 7591W        W75820  26.598  30.977   2.837
 7592W        W75821  18.881  22.613  13.218
 7593W        W75822  10.607   6.722  14.845
 7594W        W75823  28.379  23.541  11.552
 7595W        W75824  42.373  42.958   3.213
 7596W        W75825   5.791  22.132  11.010
 7597W        W75826  12.434  42.711   2.211
 7598W        W75827  27.567  37.018   3.199
 7599W        W75828   7.889   5.859  14.893
 7600W        W75829  36.406   9.939   2.889
 7601W        W75830  25.886  29.450  12.991
 7602W        W75831  18.570   0.671   3.768
 7603W        W75832  27.057  41.254  13.034
 7604W        W75833  14.746  30.256   1.442
 7605W        W75834  42.085   0.401  13.521
 7606W        W75835  14.766  41.288   1.426
 7607W        W75836   5.612  28.920   0.332
 7608W        W75837  35.787  37.504   4.029
 7609W        W75838  40.395  31.414   3.289
 7610W        W75839  25.943  20.442   3.743
 7611W        W75840  43.324  17.755  12.251
 7612W        W75841  38.954  12.357   3.108
 7613W        W75842   3.932  17.017   0.152
 7614W        W75843  18.714  35.139   2.824
 7615W        W75844  43.819  17.044   1.784
 7616W        W75845  26.899  29.664   2.296
 7617W        W75846  10.651  43.348   4.445
 7618W        W75847  11.287  30.172  11.103
 7619W        W75848  23.319  38.494   4.602
 7620W        W75849   1.698  15.281  14.888
 7621W        W75850  27.844  10.393  13.789
 7622W        W75851  38.337  26.541  10.580
 7623W        W75852  16.775  23.716  11.584
 7624W        W75853  42.947  31.635  13.525
 7625W        W75854  37.962  32.972   3.222
 7626W        W75855   3.871  39.784   0.544
 7627W        W75856  42.432   0.543   3.389
 7628W        W75857   5.742  37.058  12.169
 7629W        W75858  26.059   0.358  12.066
 7630W        W75859  16.069  15.333  10.119
 7631W        W75860  18.523  30.578   3.051
 7632W        W75861  43.275  19.228   4.907
 7633W        W75862   3.990  24.065  13.948
 7634W        W75863  13.118  29.704  13.867
 7635W        W75864  12.483  20.502  12.043
 7636W        W75865   2.991  31.966  14.541
 7637W        W75866  11.220  16.498   2.757
 7638W        W75867  19.794   7.601   4.106
 7639W        W75868  14.854  11.389  10.149
 7640W        W75869  41.785  27.806   3.683
 7641W        W75870  17.323  22.698   0.683
 7642W        W75871   9.098  30.862  12.507
 7643W        W75872  33.585  21.619  14.299
 7644W        W75873  32.519  32.624   1.486
 7645W        W75874  35.014  32.229   1.218
 7646W        W75875   8.361  41.767  14.815
 7647W        W75876  40.996  20.137   0.671
 7648W        W75877   7.651  27.253  11.813
 7649W        W75878  26.601  21.158  14.330
 7650W        W75879  35.166  43.892  11.512
 7651W        W75880   5.380  13.088   3.742
 7652W        W75881  33.937  29.529  13.799
 7653W        W75882  36.655  27.635  12.702
 7654W        W75883   5.499  33.113  12.935
 7655W        W75884  14.140   4.268  14.959
 7656W        W75885   9.104  39.724   2.758
 7657W        W75886  36.070  12.675  10.584
 7658W        W75887  23.346  29.960   2.288
 7659W        W75888  24.281  35.087   1.323
 7660W        W75889   7.449  34.035  14.125
 7661W        W75890  21.226  42.025   4.633
 7662W        W75891  16.559  40.867  11.935
 7663W        W75892  11.760  19.691   1.689
 7664W        W75893   5.869  19.276   2.797
 7665W        W75894  39.468  43.368  14.155
 7666W        W75895  18.757  13.647   1.724
 7667W        W75896  24.359  36.379   4.544
 7668W        W75897  34.630  15.003   4.328
 7669W        W75898  10.915  22.121  11.811
 7670W        W75899  29.408  25.488  11.622
 7671W        W75900   8.817  42.121   4.071
 7672W        W75901  16.235  10.445   0.865
 7673W        W75902   2.808   7.090   1.503
 7674W        W75903  23.128  31.668  14.073
 7675W        W75904  40.779  35.934  10.633
 7676W        W75905  39.987  34.151   0.641
 7677W        W75906  11.248  21.731  12.961
 7678W        W75907   8.590   2.227   2.791
 7679W        W75908   0.802  12.086   4.121
 7680W        W75909  28.020  11.775   9.869
 7681W        W75910  14.037  11.537  10.749
 7682W        W75911   8.684  16.324  14.242
 7683W        W75912  10.549  28.064   3.424
 7684W        W75913  16.742  31.139   1.362
 7685W        W75914  23.590   2.387  12.087
 7686W        W75915  26.943  43.341  11.675
 7687W        W75916  13.710   2.503  12.565
 7688W        W75917  16.601   3.252   1.228
 7689W        W75918   4.487   1.437  14.290
 7690W        W75919  44.536  27.060  13.138
 7691W        W75920  14.302  21.559   4.718
 7692W        W75921  25.664  22.547   1.259
 7693W        W75922  21.578   2.506   0.975
 7694W        W75923  22.514   8.236  12.352
 7695W        W75924   9.924  33.521  14.091
 7696W        W75925  17.782   0.476  14.855
 7697W        W75926  30.062  12.205   3.608
 7698W        W75927  31.282  41.519  10.692
 7699W        W75928  22.510  13.667   2.597
 7700W        W75929  13.724  35.923   0.875
 7701W        W75930  30.574  30.955  14.054
 7702W        W75931  14.189   0.952  11.515
 7703W        W75932  21.964  43.263   1.649
 7704W        W75933   6.207   8.889   2.737
 7705W        W75934  16.155   3.271  14.098
 7706W        W75935  26.932  24.704  14.319
 7707W        W75936  38.552  18.080  11.553
 7708W        W75937   7.178  44.767   4.108
 7709W        W75938   7.909  27.625   2.301
 7710W        W75939  27.949   1.038  12.818
 7711W        W75940  23.476  36.190  14.487
 7712W        W75941  28.930  27.238   2.932
 7713W        W75942  10.207   6.581   1.395
 7714W        W75943   7.242  17.059  11.514
 7715W        W75944   9.733  15.099  12.107
 7716W        W75945  20.439   5.899   4.092
 7717W        W75946  40.253  43.871  12.326
 7718W        W75947  33.993   0.506  14.779
 7719W        W75948  31.468  28.182   1.755
 7720W        W75949  20.197  26.961  12.150
 7721W        W75950  27.068  28.169  12.619
 7722W        W75951   5.268  29.480   2.548
 7723W        W75952   2.261  18.925   9.975
 7724W        W75953   0.738   3.654  12.912
 7725W        W75954  20.809  33.296  14.920
 7726W        W75955  23.345  43.402  13.442
 7727W        W75956   0.197  38.011   3.280
 7728W        W75957   8.212  43.820  11.575
 7729W        W75958  13.180  37.399   5.250
 7730W        W75959  10.315  34.960  13.767
 7731W        W75960   4.475  43.917   0.341
 7732W        W75961   4.447  13.171  12.922
 7733W        W75962   8.875  35.963   4.323
 7734W        W75963  16.150   8.357  11.669
 7735W        W75964  17.014  31.555  10.700
 7736W        W75965  39.746  16.336   4.123
 7737W        W75966  10.401  27.480  14.679
 7738W        W75967  13.020  44.327  12.597
 7739W        W75968  15.266  39.355  11.934
 7740W        W75969  44.848  22.245   2.829
 7741W        W75970  11.403   1.773   0.230
 7742W        W75971  16.090  34.339  13.382
 7743W        W75972  21.079  43.947  11.171
 7744W        W75973   6.690  23.129  14.985
 7745W        W75974  31.141   2.179   0.422
 7746W        W75975  31.153  38.569  10.829
 7747W        W75976  37.814  33.508  13.470
 7748W        W75977   4.045  17.224   2.459
 7749W        W75978  40.285   3.197   1.728
 7750W        W75979   9.388   4.848   4.256
 7751W        W75980   1.723  26.508   4.723
 7752W        W75981  23.301  24.476   2.852
 7753W        W75982   3.846  38.578   2.148
 7754W        W75983  32.925  18.335  14.560
 7755W        W75984  33.565   5.572   1.217
 7756W        W75985  34.844  35.436   3.729
 7757W        W75986  27.602   0.325  14.365
 7758W        W75987  38.808  32.730  13.000
 7759W        W75988  15.740   1.317  13.486
 7760W        W75989   5.907  24.933  11.998
 7761W        W75990  17.768   4.252   2.195
 7762W        W75991  34.078  21.236   3.126
 7763W        W75992   2.332  15.487   2.885
 7764W        W75993  13.631  39.930   4.144
 7765W        W75994  26.246   1.924   3.720
 7766W        W75995  21.670  41.010   3.214
 7767W        W75996  31.083  43.176   4.961
 7768W        W75997  33.325  18.103   2.807
 7769W        W75998   3.883  15.583  11.661
 7770W        W75999  44.215  30.108   1.016
 7771W        W76000  16.533  21.082   0.790
 7772W        W76001   8.840   1.845  13.270
 7773W        W76002  22.826  28.296  14.870
 7774W        W76003  44.692  37.857  13.696
 7775W        W76004  32.669  15.056   4.497
 7776W        W76005   5.258  42.767  10.580
 7777W        W76006  24.693  15.156  11.081
 7778W        W76007  34.323  17.787  10.253
 7779W        W76008  41.020  28.980   0.194
 7780W        W76009  29.681  36.402   0.613
 7781W        W76010  28.151  29.084  10.132
 7782W        W76011  38.415  35.256   1.429
 7783W        W76012  24.601   5.242  14.095
 7784W        W76013   6.198  15.414   2.072
 7785W        W76014  29.241  38.623  14.499
 7786W        W76015   0.068  12.243   0.798
 7787W        W76016  34.028  20.470  13.024
 7788W        W76017  41.095  34.661  14.594
 7789W        W76018  25.689  24.225  11.054
 7790W        W76019   6.158  15.753  11.529
 7791W        W76020  22.300  33.173  12.108
 7792W        W76021  39.831  29.036  11.571
 7793W        W76022  15.463  19.102   3.956
 7794W        W76023  30.196  17.325  10.616
 7795W        W76024  10.212  38.033   2.130
 7796W        W76025  13.588  14.586  11.962
 7797W        W76026  39.590  11.283  10.916
 7798W        W76027  23.923  40.303  13.011
 7799W        W76028  28.426  11.535   9.660
 7800W        W76029  40.005  11.124   2.864
 7801W        W76030   5.491  22.188  14.311
 7802W        W76031  25.200  42.324   1.787
 7803W        W76032   7.350   7.325   0.834
 7804W        W76033  41.497  43.131  11.554
 7805W        W76034  16.752   8.266  11.883
 7806W        W76035  31.393  41.300  13.416
 7807W        W76036   3.576  37.827  13.431
 7808W        W76037  28.364   5.292  10.517
 7809W        W76038  31.404  22.145  14.937
 7810W        W76039  29.277   9.185  12.029
 7811W        W76040  42.994  34.656   4.585
 7812W        W76041   1.058  28.593   1.682
 7813W        W76042  44.009  26.077   0.532
 7814W        W76043  35.553  18.578  11.850
 7815W        W76044  20.155  40.797   2.160
 7816W        W76045   4.809   9.954   2.826
 7817W        W76046  22.468  33.256   3.015
 7818W        W76047  10.755   3.542  11.983
 7819W        W76048  14.270  40.071   1.509
 7820W        W76049  34.819  17.277   0.341
 7821W        W76050  27.039  27.883   4.200
 7822W        W76051  13.209  15.195  13.900
 7823W        W76052  20.986  23.106  10.970
 7824W        W76053  40.625  42.805  11.185
 7825W        W76054  23.432  20.038   1.853
 7826W        W76055  34.078   0.834   0.170
 7827W        W76056  28.880   9.236   4.331
 7828W        W76057  33.130  24.133   3.396
 7829W        W76058  35.434  31.946   0.987
 7830W        W76059  22.406  14.306  11.412
 7831W        W76060  24.169   8.620   2.804
 7832W        W76061   8.162  26.455   0.981
 7833W        W76062  18.670   1.273   3.898
 7834W        W76063  36.072  16.373   3.723
 7835W        W76064  40.062  11.486   3.214
 7836W        W76065  16.846  17.107  12.803
 7837W        W76066   9.281  20.951   4.895
 7838W        W76067  29.866  42.937   3.362
 7839W        W76068  37.068  28.664  11.652
 7840W        W76069  20.577  36.639   0.952
 7841W        W76070   3.851  42.935   1.340
 7842W        W76071  33.603  10.202  11.954
 7843W        W76072  31.687  33.411   3.197
 7844W        W76073  41.322   0.812  11.568
 7845W        W76074   3.812  18.308  14.686
 7846W        W76075  32.063  11.195   1.781
 7847W        W76076  12.839  12.392   0.446
 7848W        W76077  43.904  37.530   3.902
 7849W        W76078   7.218   5.309  12.947
 7850W        W76079   5.328  34.335  12.332
 7851W        W76080  27.568  32.195   5.080
 7852W        W76081   2.221   8.846   1.182
 7853W        W76082  12.641  36.479   3.139
 7854W        W76083  41.433  33.576   1.776
 7855W        W76084   5.418  15.441  12.069
 7856W        W76085   5.729  43.890  11.035
 7857W        W76086  21.678  12.128  14.733
 7858W        W76087   6.504  42.984   4.106
 7859W        W76088  32.070  38.028  13.360
 7860W        W76089   2.017   7.279  14.836
 7861W        W76090   1.123  38.066  14.287
 7862W        W76091  21.354  39.910   2.834
 7863W        W76092  16.116  37.956  13.331
 7864W        W76093   0.910  14.746   2.824
 7865W        W76094  32.940  28.007   4.715
 7866W        W76095  14.243  28.237   3.616
 7867W        W76096   1.920  40.353   4.027
 7868W        W76097  14.910   3.127   1.147
 7869W        W76098  13.509  20.669  12.059
 7870W        W76099  26.448   4.998   0.076
 7871W        W76100  26.950  44.737  12.036
 7872W        W76101  15.119  23.122   2.583
 7873W        W76102   8.605  11.334   2.227
 7874W        W76103  32.664  21.704   4.662
 7875W        W76104  18.297  15.842  14.808
 7876W        W76105  36.930   6.240  14.345
 7877W        W76106   0.432  41.324  12.024
 7878W        W76107   8.461  28.665   0.190
 7879W        W76108  10.409  29.703  11.412
 7880W        W76109  20.767  14.811   4.716
 7881W        W76110   3.456  40.942   1.280
 7882W        W76111   2.761  11.441  13.002
 7883W        W76112  18.577  15.371   1.281
 7884W        W76113  10.821  22.335  14.436
 7885W        W76114  40.890  21.808   1.556
 7886W        W76115  27.183  20.363  13.046
 7887W        W76116  10.744  34.720   4.896
 7888W        W76117  19.506  23.777  10.189
 7889W        W76118  33.611  25.454  13.569
 7890W        W76119   8.306   1.859   2.537
 7891W        W76120  13.030  19.684  14.965
 7892W        W76121  30.603  16.794   2.166
 7893W        W76122  41.955  13.145  14.235
 7894W        W76123  35.122  31.384   1.913
 7895W        W76124  26.679  11.384   3.611
 7896W        W76125  40.843  20.170   3.242
 7897W        W76126   7.185  27.303   2.605
 7898W        W76127  24.219  14.571  13.701
 7899W        W76128  35.613   1.499   0.386
 7900W        W76129  25.289   7.325  12.558
 7901W        W76130  24.700  28.025   2.131
 7902W        W76131  33.823  27.249  11.926
 7903W        W76132  24.050  33.974  14.268
 7904W        W76133   4.721  12.294  13.027
 7905W        W76134  30.586  34.236  11.999
 7906W        W76135   8.880  11.358  11.914
 7907W        W76136  38.377  18.272   4.902
 7908W        W76137   0.211   7.680  12.556
 7909W        W76138  30.795  28.760   3.241
 7910W        W76139  40.295  38.392  14.703
 7911W        W76140  32.209  28.960   2.279
 7912W        W76141  30.841  27.149   2.766
 7913W        W76142  42.996  38.738   4.506
 7914W        W76143  13.510  11.934   0.409
 7915W        W76144  42.469  29.157   1.376
 7916W        W76145  42.761  27.922   0.902
 7917W        W76146  44.582  30.125  12.904
 7918W        W76147  37.476  23.297   0.727
 7919W        W76148   4.500  10.572  13.010
 7920W        W76149  27.425  34.911  12.545
 7921W        W76150  18.671   3.919   2.340
 7922W        W76151   8.084  16.124  14.945
 7923W        W76152  26.590   9.188   2.678
 7924W        W76153   9.601  34.003  11.527
 7925W        W76154  29.209   6.287   3.722
 7926W        W76155  20.599  28.785  10.991
 7927W        W76156  17.008  11.656   4.571
 7928W        W76157  25.576  19.622  12.428
 7929W        W76158  16.798  16.054   4.262
 7930W        W76159   3.033   2.212   4.171
 7931W        W76160  20.179  33.828   2.711
 7932W        W76161  40.298  36.987   3.716
 7933W        W76162   9.869  41.278   2.311
 7934W        W76163  11.768  39.547  11.073
 7935W        W76164   2.518  28.039  14.035
 7936W        W76165  11.972  30.280  13.332
 7937W        W76166  44.524  17.226   4.233
 7938W        W76167  38.797  28.240  12.040
 7939W        W76168  21.452  39.968  10.331
 7940W        W76169  23.006   8.762   3.147
 7941W        W76170  12.763   2.227  13.683
 7942W        W76171   6.777   9.628   4.693
 7943W        W76172  22.528  16.658  10.746
 7944W        W76173  21.845   8.383  11.728
 7945W        W76174  15.093  42.531   1.401
 7946W        W76175   5.231  28.591   4.376
 7947W        W76176   4.335  38.468   3.679
 7948W        W76177   5.741  22.154   4.142
 7949W        W76178  13.811  13.054   0.740
 7950W        W76179  38.052   5.463   3.365
 7951W        W76180  19.995   2.744   3.589
 7952W        W76181  29.903  19.134   2.244
 7953W        W76182  41.241   3.926  12.484
 7954W        W76183  15.235  25.859   2.324
 7955W        W76184  44.283   0.916  14.226
 7956W        W76185   8.126  43.239  13.830
 7957W        W76186  14.018   5.345   2.406
 7958W        W76187  13.365  41.502   2.376
 7959W        W76188   0.898  21.261  12.534
 7960W        W76189  25.398  31.004   1.272
 7961W        W76190   6.549  34.630  10.929
 7962W        W76191   0.694   7.932  13.879
 7963W        W76192   8.645  40.723   1.187
 7964W        W76193  42.784  42.374  11.885
 7965W        W76194  40.362  39.884   4.669
 7966W        W76195  28.765  37.447   2.676
 7967W        W76196   7.781  18.817  10.742
 7968W        W76197  36.575   5.492  11.492
 7969W        W76198  39.817  22.673   1.416
 7970W        W76199  16.736  27.189   2.686
 7971W        W76200   7.846  27.051   1.949
 7972W        W76201  27.503   2.741  11.498
 7973W        W76202  40.269  40.357   1.757
 7974W        W76203   4.350  29.497  12.475
 7975W        W76204  44.109  21.251  11.145
 7976W        W76205   5.912  44.032   3.342
 7977W        W76206  17.186  40.300  12.871
 7978W        W76207  24.933  20.114   2.769
 7979W        W76208  38.547  34.525  11.817
 7980W        W76209  21.703  27.901   0.355
 7981W        W76210  20.852  24.061  10.187
 7982W        W76211  37.389  34.911  12.423
 7983W        W76212  37.949  14.104   4.029
 7984W        W76213  41.087  23.091   1.077
 7985W        W76214   9.693   0.772   1.223
 7986W        W76215  20.839  21.360  12.742
 7987W        W76216   4.354  40.219   3.124
 7988W        W76217   9.456  12.563  11.492
 7989W        W76218  21.898   0.840  14.856
 7990W        W76219  22.947  10.840  14.833
 7991W        W76220  31.116  43.860  14.384
 7992W        W76221   9.329  29.193  12.114
 7993W        W76222   6.277  14.254   1.394
 7994W        W76223  35.075  41.402  14.761
 7995W        W76224   6.409  32.339  14.190
 7996W        W76225  18.794  39.463   2.680
 7997W        W76226  25.697  43.298   1.920
 7998W        W76227   9.370   2.719   4.282
 7999W        W76228  23.526  33.886   4.956
 8000W        W76229  21.118  41.858  10.716
 8001W        W76230  16.791  34.647   1.886
 8002W        W76231  37.836  20.014   0.885
 8003W        W76232  14.646  22.186   2.235
 8004W        W76233  40.860  33.667  14.483
 8005W        W76234   4.876  18.095   0.445
 8006W        W76235  31.020  39.298   2.344
 8007W        W76236  37.537  27.870  13.318
 8008W        W76237  35.816  11.929   1.833
 8009W        W76238   8.663  21.242   1.497
 8010W        W76239   1.869  34.296   0.032
 8011W        W76240  41.447  41.827  13.804
 8012W        W76241  22.316  44.517   3.840
 8013W        W76242  15.119  19.160  11.934
 8014W        W76243  32.844  17.905   2.850
 8015W        W76244  34.392  32.951  10.763
 8016W        W76245  38.871  44.339  11.838
 8017W        W76246  37.110   9.166  11.846
 8018W        W76247  11.322  33.875  14.245
 8019W        W76248  17.784  43.699   4.770
 8020W        W76249  20.246  22.618  14.881
 8021W        W76250  10.660  31.092   2.633
 8022W        W76251   4.991  19.209  11.950
 8023W        W76252  15.239  27.000  11.885
 8024W        W76253  30.026  22.054   4.622
 8025W        W76254  27.617  32.752   1.338
 8026W        W76255  34.105  29.630   3.837
 8027W        W76256  17.291  15.643   1.185
 8028W        W76257  23.658  40.778  13.005
 8029W        W76258  23.675  10.240  12.919
 8030W        W76259  15.159  12.023  11.580
 8031W        W76260   3.765   6.236   3.112
 8032W        W76261   5.601  30.437  14.075
 8033W        W76262   9.008  19.457  14.900
 8034W        W76263   0.301  11.460  12.277
 8035W        W76264  34.990  22.953   1.645
 8036W        W76265  17.704   2.004   0.039
 8037W        W76266  42.049  11.889   2.658
 8038W        W76267   9.891  25.307   4.829
 8039W        W76268  13.167   6.894  12.380
 8040W        W76269  37.510   9.550  13.126
 8041W        W76270  31.060  18.670  12.885
 8042W        W76271  16.702  31.002   4.029
 8043W        W76272  31.668  21.035  14.387
 8044W        W76273  37.660  19.228  13.892
 8045W        W76274   8.905  10.310  12.717
 8046W        W76275  10.299  41.837   1.660
 8047W        W76276  29.791   6.416   1.194
 8048W        W76277  31.725   2.326  10.616
 8049W        W76278  37.111  18.492   4.065
 8050W        W76279  11.210  36.542  11.165
 8051W        W76280  17.841   7.915   2.732
 8052W        W76281   7.155  13.988   0.904
 8053W        W76282  10.624  24.243   3.829
 8054W        W76283  16.380   6.936   2.758
 8055W        W76284  20.715  33.666   5.078
 8056W        W76285  26.257  38.632  13.602
 8057W        W76286   1.458   0.351   0.651
 8058W        W76287  35.412  39.346  11.982
 8059W        W76288  29.732  40.319   1.891
 8060W        W76289  15.213  20.040   0.810
 8061W        W76290   4.413  12.351  10.734
 8062W        W76291  23.249  43.784  12.768
 8063W        W76292  24.126  22.623   2.844
 8064W        W76293  30.324   5.105  11.944
 8065W        W76294  43.537  20.807   0.143
 8066W        W76295  25.617   1.866   5.080
 8067W        W76296  21.509   6.115   3.247
 8068W        W76297  34.645   5.766   2.809
 8069W        W76298  14.734  44.493  10.132
 8070W        W76299   1.747  43.386  13.551
 8071W        W76300  42.438  15.846  13.997
 8072W        W76301  29.022  18.639  11.608
 8073W        W76302  34.672   2.985  11.979
 8074W        W76303   7.756  32.460   1.197
 8075W        W76304  28.728  44.214   1.269
 8076W        W76305   4.616   5.227  14.351
 8077W        W76306  14.819  24.768  14.864
 8078W        W76307  31.911   9.660  11.665
 8079W        W76308  43.036  17.978   2.924
 8080W        W76309   0.415   2.868  10.654
 8081W        W76310  11.422  15.086   2.869
 8082W        W76311   8.652   2.193  14.527
 8083W        W76312  16.264  36.736   2.539
 8084W        W76313  14.224  28.212   4.520
 8085W        W76314  20.147  42.404  13.069
 8086W        W76315   4.273   1.080   2.843
 8087W        W76316  15.280  27.448   0.971
 8088W        W76317  22.716  26.244   4.470
 8089W        W76318  22.644   2.761  13.880
 8090W        W76319  38.005  19.963   4.205
 8091W        W76320   6.761  36.117   1.795
 8092W        W76321  14.269  31.494  12.214
 8093W        W76322  20.867   5.500  12.291
 8094W        W76323  39.441  40.131   2.692
 8095W        W76324   0.479   4.549  10.584
 8096W        W76325  29.519  42.301   1.910
 8097W        W76326  32.329  25.961  12.937
 8098W        W76327  40.872  40.999  11.586
 8099W        W76328  19.415   7.259  13.065
 8100W        W76329  42.552  14.200   5.024
 8101W        W76330  12.882  41.888   3.314
 8102W        W76331   8.838  28.953   3.242
 8103W        W76332  17.662  27.275  14.036
 8104W        W76333  11.093  23.002   4.776
 8105W        W76334  11.457   1.975  13.901
 8106W        W76335   3.276   1.024   0.360
 8107W        W76336   4.744  40.847   2.221
 8108W        W76337  20.816  31.936  12.838
 8109W        W76338   2.389  24.543   3.623
 8110W        W76339  25.347  37.672  12.508
 8111W        W76340   0.916  16.754   1.241
 8112W        W76341  11.169   7.546  11.973
 8113W        W76342   2.127  32.129  14.802
 8114W        W76343   3.501  15.705   0.879
 8115W        W76344  20.991   1.691  10.745
 8116W        W76345   7.742  18.507   1.447
 8117W        W76346  39.760  12.926   0.417
 8118W        W76347  18.790  25.007   4.120
 8119W        W76348  33.811  16.331   4.054
 8120W        W76349   6.735   5.473  10.798
 8121W        W76350  23.926  12.213   2.616
 8122W        W76351  21.788  29.928   4.189
 8123W        W76352  31.671  32.104  12.301
 8124W        W76353   6.299  13.377   3.294
 8125W        W76354  29.234   0.992  12.490
 8126W        W76355  22.195  34.638   2.818
 8127W        W76356   0.861  23.682   4.459
 8128W        W76357  38.378  44.430  11.640
 8129W        W76358  35.347  11.727   2.104
 8130W        W76359  16.710  18.368   3.643
 8131W        W76360  15.760  30.144  12.994
 8132W        W76361  41.873  30.047  13.239
 8133W        W76362  28.195  10.107   1.402
 8134W        W76363  20.192   1.875   0.722
 8135W        W76364   5.325   6.331  14.904
 8136W        W76365  36.835  16.168   1.768
 8137W        W76366   6.236  31.660   2.225
 8138W        W76367  21.516  24.995   2.706
 8139W        W76368  35.492  11.539  11.185
 8140W        W76369  15.207  37.498  13.139
 8141W        W76370  21.178   0.668  10.620
 8142W        W76371  25.890  17.238  12.374
 8143W        W76372   1.411  36.536  13.287
 8144W        W76373  18.338  16.174   0.675
 8145W        W76374  27.963  44.705   0.425
 8146W        W76375  35.352   0.667   3.342
 8147W        W76376  38.073  34.427   1.373
 8148W        W76377  23.784  43.935  11.207
 8149W        W76378   6.320   6.785   2.183
 8150W        W76379  16.059  15.353   0.942
 8151W        W76380  12.293  43.446   4.007
 8152W        W76381   0.385   2.283  11.556
 8153W        W76382  25.689  33.295  11.098
 8154W        W76383  24.092  12.216  11.963
 8155W        W76384  23.514  11.161   0.933
 8156W        W76385  15.795  38.175   4.198
 8157W        W76386  41.568  38.316  13.495
 8158W        W76387  13.626   1.227  10.798
 8159W        W76388   4.236  32.095  14.793
 8160W        W76389   0.044  12.622  14.415
 8161W        W76390  43.522  16.654   3.321
 8162W        W76391  39.333   4.235  11.501
 8163W        W76392  13.637  43.381  14.469
 8164W        W76393  42.439  22.994  13.067
 8165W        W76394  39.510  35.739   4.169
 8166W        W76395  35.822   9.075   1.269
 8167W        W76396  42.790  38.450  11.942
 8168W        W76397  44.998  25.646  14.264
 8169W        W76398  34.095  15.527   0.025
 8170W        W76399  43.793  28.982  13.823
 8171W        W76400  14.753  28.856  14.435
 8172W        W76401  36.536   0.304   0.035
 8173W        W76402  28.625  34.003  14.630
 8174W        W76403   2.019  12.241  13.180
 8175W        W76404   3.793   4.759  13.704
 8176W        W76405  38.443  29.750   3.060
 8177W        W76406  30.026  34.918  11.541
 8178W        W76407  15.648   8.635   0.720
 8179W        W76408  41.490  32.577  14.508
 8180W        W76409   4.197   0.221  14.974
 8181W        W76410  28.728   3.450   4.560
 8182W        W76411  18.480  28.949  12.318
 8183W        W76412  36.692  40.073  12.442
 8184W        W76413   0.487   1.028  13.967
 8185W        W76414   4.687  21.489  12.534
 8186W        W76415  15.526  30.473   4.145
 8187W        W76416  16.740  40.832   1.680
 8188W        W76417  34.730  29.221   2.330
 8189W        W76418   6.012  32.726  13.902
 8190W        W76419  21.040  19.130  14.072
 8191W        W76420  38.387  29.180  11.499
 8192W        W76421   7.167  41.301   1.810
 8193W        W76422  44.748  15.570   3.695
 8194W        W76423  18.163  36.137   3.747
 8195W        W76424   6.853  29.089  12.328
 8196W        W76425   8.744  40.001   3.002
 8197W        W76426  12.341   5.368  10.730
 8198W        W76427  41.012  35.736  11.582
 8199W        W76428  27.078  29.952  13.595
 8200W        W76429  41.817  26.305  13.602
 8201W        W76430  17.687   0.470   0.979
 8202W        W76431  26.234  17.628   3.373
 8203W        W76432  43.455  17.849   0.853
 8204W        W76433  30.483   4.838  12.362
 8205W        W76434  43.541  15.764   3.189
 8206W        W76435   6.361  19.299  14.378
 8207W        W76436  41.829  32.699   1.913
 8208W        W76437   9.175  42.293  12.553
 8209W        W76438  26.395   6.324  13.938
 8210W        W76439   0.759   0.320  12.628
 8211W        W76440   9.628   6.357   2.196
 8212W        W76441  34.481  36.523   1.843
 8213W        W76442   0.298  16.090  12.464
 8214W        W76443   8.378  44.499   2.747
 8215W        W76444  28.412  40.176   1.015
 8216W        W76445  32.148   5.888   2.848
 8217W        W76446  26.190  10.694  13.799
 8218W        W76447  36.069   5.322  10.721
 8219W        W76448  28.662  22.156   1.848
 8220W        W76449  37.081   3.683  12.505
 8221W        W76450  16.345  43.296  13.916
 8222W        W76451  39.965  41.455   0.745
 8223W        W76452   9.238  42.360  14.941
 8224W        W76453  24.476  39.847  14.434
 8225W        W76454   3.445  23.965   4.137
 8226W        W76455  28.471  14.327  13.941
 8227W        W76456  18.558   4.732   1.766
 8228W        W76457   2.338  29.951   3.068
 8229W        W76458  26.200  20.697  11.422
 8230W        W76459  15.836  23.449  12.472
 8231W        W76460  22.975  23.487  11.992
 8232W        W76461  30.716  36.684  12.649
 8233W        W76462  25.132  27.957   0.767
 8234W        W76463  33.409  23.485   4.654
 8235W        W76464  19.281  36.489  11.878
 8236W        W76465  34.405  15.210  13.044
 8237W        W76466  36.483  27.881  10.731
 8238W        W76467  13.014  14.511  12.677
 8239W        W76468  28.866  22.620   1.918
 8240W        W76469  18.549  30.002  14.412
 8241W        W76470   2.543   6.488   0.307
 8242W        W76471  13.139  23.676   4.111
 8243W        W76472  39.749   4.407  11.771
 8244W        W76473  28.622  37.575  14.753
 8245W        W76474   0.197   5.675   1.313
 8246W        W76475  42.420  37.413  12.882
 8247W        W76476  16.565  14.564  13.895
 8248W        W76477  19.988   3.925  13.889
 8249W        W76478  15.125  23.319   3.268
 8250W        W76479  15.661   5.472   3.100
 8251W        W76480   3.773  38.977   0.088
 8252W        W76481  22.544   1.722  11.144
 8253W        W76482  18.446   0.339  12.384
 8254W        W76483  15.222  33.578  11.289
 8255W        W76484  12.055  17.223   3.178
 8256W        W76485  26.233  22.699  10.754
 8257W        W76486  14.493  29.026  13.317
 8258W        W76487  21.625  33.164  13.902
 8259W        W76488   5.418  11.416  11.254
 8260W        W76489  33.604  31.921  10.557
 8261W        W76490  20.058  34.804  11.633
 8262W        W76491   1.493  41.955  11.525
 8263W        W76492  37.334  20.659   1.215
 8264W        W76493   8.699   1.302  13.292
 8265W        W76494  15.328  34.558  12.709
 8266W        W76495   4.782  33.568   4.175
 8267W        W76496   7.342   8.379   1.736
 8268W        W76497  37.424  35.699  14.805
 8269W        W76498  11.197   0.410  13.420
 8270W        W76499  26.988  32.611   1.578
 8271W        W76500  36.070  22.130  12.495
 8272W        W76501  28.729  26.336   1.927
 8273W        W76502   3.924  16.983  12.914
 8274W        W76503  29.984  15.136  13.552
 8275W        W76504   0.967   1.808  10.694
 8276W        W76505  34.705  19.888   0.436
 8277W        W76506  40.587  15.154   1.436
 8278W        W76507  39.001   0.369   9.851
 8279W        W76508  25.069  20.390  14.153
 8280W        W76509  43.948  10.155  13.626
 8281W        W76510  40.861  20.386  14.339
 8282W        W76511  29.626  40.803   1.686
 8283W        W76512  40.772  29.383   3.478
 8284W        W76513  27.151  31.771   1.933
 8285W        W76514  15.712  15.329   1.810
 8286W        W76515  44.490  39.412  13.491
 8287W        W76516  21.790  30.171  14.854
 8288W        W76517   7.278  28.104  13.402
 8289W        W76518  38.946   9.671  14.302
 8290W        W76519  14.254  17.310   0.039
 8291W        W76520  17.582  31.444  11.545
 8292W        W76521  22.523  27.943  14.655
 8293W        W76522  34.315  35.796  13.591
 8294W        W76523  16.626  42.792  14.954
 8295W        W76524  17.770   2.895   1.656
 8296W        W76525  21.428   2.891  14.384
 8297W        W76526  42.463   1.175  11.945
 8298W        W76527  21.093  32.125   4.526
 8299W        W76528  18.271  26.411   3.160
 8300W        W76529   0.847  18.746  13.463
 8301W        W76530  11.715  33.932   0.747
 8302W        W76531  16.611  43.497   0.473
 8303W        W76532   7.161  20.691  14.957
 8304W        W76533  12.378  10.602  12.092
 8305W        W76534  34.710  20.950   0.808
 8306W        W76535   4.816  15.653   0.423
 8307W        W76536   1.640  34.913  11.844
 8308W        W76537  18.538  28.660   4.195
 8309W        W76538  12.105  32.975   1.527
 8310W        W76539  25.951  38.350   3.705
 8311W        W76540   0.183  29.821  12.120
 8312W        W76541  30.660  23.973   3.687
 8313W        W76542  41.707  13.970   3.970
 8314W        W76543  10.136  31.992  13.929
 8315W        W76544  28.972  26.472  10.682
 8316W        W76545  35.966   3.970   4.021
 8317W        W76546  18.048  43.921  10.664
 8318W        W76547   3.322  41.841   2.173
 8319W        W76548   0.687  21.137   2.692
 8320W        W76549   4.840  36.862   5.044
 8321W        W76550   3.434  14.331   4.192
 8322W        W76551  32.590  38.670  13.776
 8323W        W76552  10.218  15.175  11.578
 8324W        W76553  16.837  29.821   1.014
 8325W        W76554  20.128  37.276  14.922
 8326W        W76555  10.301  16.126  10.655
 8327W        W76556  27.722  19.819  11.182
 8328W        W76557  43.326  17.805  13.626
 8329W        W76558  14.061   7.929  14.736
 8330W        W76559   7.759  11.227   1.917
 8331W        W76560  34.884  41.378  14.271
 8332W        W76561  14.763  33.615   3.814
 8333W        W76562  11.407  20.740  13.790
 8334W        W76563  11.275  42.668   3.628
 8335W        W76564  37.116  25.307   2.782
 8336W        W76565  10.375  23.793   0.124
 8337W        W76566  25.575   1.995   4.134
 8338W        W76567   1.265  18.092  13.960
 8339W        W76568  29.796  10.710   0.864
 8340W        W76569  22.140  36.486  12.084
 8341W        W76570   9.194   7.179  11.715
 8342W        W76571  15.198  10.142  12.919
 8343W        W76572  29.475  25.142   5.020
 8344W        W76573  32.644  43.868   0.481
 8345W        W76574   2.195  37.241   5.469
 8346W        W76575   3.795   4.725   2.842
 8347W        W76576  43.003  17.154  11.455
 8348W        W76577  12.374  24.793  11.142
 8349W        W76578   9.661  19.601  12.970
 8350W        W76579  33.789  16.218  10.744
 8351W        W76580  13.677  30.901  13.505
 8352W        W76581   3.241  44.295  14.154
 8353W        W76582   0.709   6.067  11.236
 8354W        W76583   8.293  31.569  12.589
 8355W        W76584  11.412  38.377   1.394
 8356W        W76585  24.819  13.900  11.586
 8357W        W76586  39.948  11.608  11.122
 8358W        W76587   9.835   0.254   2.386
 8359W        W76588   7.672  32.284   0.339
 8360W        W76589  39.563  26.622  10.728
 8361W        W76590   4.439  31.656   2.674
 8362W        W76591  24.616  20.576  14.362
 8363W        W76592  43.494  21.452   1.815
 8364W        W76593  36.881   9.340  10.462
 8365W        W76594  30.432   6.731   4.934
 8366W        W76595   4.193   9.222   0.866
 8367W        W76596  23.980  42.368  14.507
 8368W        W76597  36.326   4.286   4.591
 8369W        W76598  24.439  14.137   1.820
 8370W        W76599  21.366   8.299   1.820
 8371W        W76600  41.831  19.220  13.065
 8372W        W76601  42.462  15.680  11.026
 8373W        W76602   0.001   8.835   0.518
 8374W        W76603  27.108  14.725  13.058
 8375W        W76604   6.274  39.270  12.901
 8376W        W76605  42.429   8.955   4.141
 8377W        W76606   0.140  24.953   1.685
 8378W        W76607   6.350   6.683   1.181
 8379W        W76608  31.602  30.359   2.697
 8380W        W76609  23.049  33.536  11.084
 8381W        W76610  44.757  34.546  12.051
 8382W        W76611   3.407  34.462   3.848
 8383W        W76612  12.324  33.988   2.696
 8384W        W76613  23.204  36.625   1.315
 8385W        W76614  22.657  29.544  13.353
 8386W        W76615  29.775  36.471  11.541
 8387W        W76616  33.732  24.923  11.608
 8388W        W76617  13.449   7.363   1.276
 8389W        W76618   9.084  28.760  11.123
 8390W        W76619  30.030  21.035   3.905
 8391W        W76620  23.913  24.882   1.432
 8392W        W76621  24.516  44.704   2.147
 8393W        W76622  10.121  24.909   4.111
 8394W        W76623  34.435  34.431   2.108
 8395W        W76624  33.546  35.899   4.513
 8396W        W76625  16.311  12.206  14.386
 8397W        W76626  10.750  20.212  13.564
 8398W        W76627  38.725  33.060   3.816
 8399W        W76628  23.520   8.208  13.587
 8400W        W76629  44.395   0.711   2.216
 8401W        W76630  22.109  14.237   3.273
 8402W        W76631   5.195  33.600   1.012
 8403W        W76632  20.714  35.058  13.360
 8404W        W76633  32.190  31.655  14.561
 8405W        W76634  38.479   8.138  12.468
 8406W        W76635  16.095  33.398   0.900
 8407W        W76636   8.216   4.400  10.839
 8408W        W76637  19.003  11.263  11.411
 8409W        W76638   3.277  29.829   1.772
 8410W        W76639  22.238  42.476   1.252
 8411W        W76640   0.872  34.405  10.450
 8412W        W76641  42.562   2.240   0.902
 8413W        W76642  16.055  36.090  12.285
 8414W        W76643  34.048  22.099  13.402
 8415W        W76644   7.815  37.833   2.342
 8416W        W76645  16.709   0.990   0.368
 8417W        W76646  27.456  32.445   1.760
 8418W        W76647  15.616  42.396  12.339
 8419W        W76648  36.305  12.202  10.719
 8420W        W76649   7.278  10.838   4.897
 8421W        W76650  39.116   3.456   1.493
 8422W        W76651  21.813  26.973   1.959
 8423W        W76652  21.217  32.475   9.980
 8424W        W76653  20.154  32.683  12.414
 8425W        W76654  42.604  37.448   0.791
 8426W        W76655  24.732  18.904   0.946
 8427W        W76656  14.237  10.738   3.500
 8428W        W76657  24.561  33.646   2.224
 8429W        W76658  30.168  25.524  14.764
 8430W        W76659  19.527   1.268  14.752
 8431W        W76660  36.504  37.379  14.446
 8432W        W76661  44.804   2.950  12.274
 8433W        W76662   3.425  13.482  12.103
 8434W        W76663  41.849  12.698  12.389
 8435W        W76664  14.805   4.438   2.786
 8436W        W76665  17.231  15.230   2.746
 8437W        W76666   1.053   0.317   3.756
 8438W        W76667  41.290   8.303   2.820
 8439W        W76668   7.235  28.463   1.217
 8440W        W76669  16.160   2.908  13.732
 8441W        W76670  43.058  28.230   4.357
 8442W        W76671  17.176  37.063   3.816
 8443W        W76672  19.536  13.276  12.009
 8444W        W76673  31.289  16.886   3.947
 8445W        W76674  32.584  17.252  14.510
 8446W        W76675  12.760  23.646  12.871
 8447W        W76676   1.048  12.755  14.301
 8448W        W76677   9.786  36.921   4.199
 8449W        W76678   3.494  32.818   4.577
 8450W        W76679   2.265  11.946   5.097
 8451W        W76680  35.560  32.629   4.524
 8452W        W76681   7.994  11.870  14.434
 8453W        W76682  36.139  28.373   4.296
 8454W        W76683  41.419  29.006   0.503
 8455W        W76684  18.267  25.502   0.271
 8456W        W76685  33.156  23.283  11.091
 8457W        W76686  24.549   3.725   1.385
 8458W        W76687   9.199   9.516  12.208
 8459W        W76688  41.365  27.005   2.839
 8460W        W76689   3.433  23.074  13.723
 8461W        W76690  27.438  13.954   4.266
 8462W        W76691  19.688  14.974   0.810
 8463W        W76692  17.787  30.910  11.598
 8464W        W76693  40.443  43.945   1.961
 8465W        W76694  32.866  20.184   5.058
 8466W        W76695   3.234  35.763   1.795
 8467W        W76696   6.226  26.517  12.372
 8468W        W76697  11.945  22.621  14.745
 8469W        W76698  36.939  14.326  10.877
 8470W        W76699  23.966  35.015   3.660
 8471W        W76700  44.051  38.082  12.930
 8472W        W76701  32.142   9.577  14.897
 8473W        W76702  44.862  30.652  12.072
 8474W        W76703  34.719  21.943   4.742
 8475W        W76704   6.399   3.688  10.635
 8476W        W76705  17.790   2.948   2.682
 8477W        W76706   1.206  27.933  10.594
 8478W        W76707  10.588  20.174   2.876
 8479W        W76708  34.893  24.221  13.809
 8480W        W76709  26.710  23.798  11.144
 8481W        W76710   7.351  43.279   0.968
 8482W        W76711  40.045  40.390   0.208
 8483W        W76712  38.081  39.568   4.156
 8484W        W76713   1.518  41.618  11.124
 8485W        W76714   4.723  21.949   1.931
 8486W        W76715  23.959   2.376   3.313
 8487W        W76716  38.088  31.917   3.860
 8488W        W76717  16.738  37.485  14.323
 8489W        W76718  13.042  23.170   3.314
 8490W        W76719  20.252   5.960   1.682
 8491W        W76720  35.746  25.441  14.130
 8492W        W76721  35.373  14.719  13.626
 8493W        W76722   5.587  40.828  11.711
 8494W        W76723   9.666  10.315  12.007
 8495W        W76724  35.081  24.884   9.588
 8496W        W76725  39.872   2.959   4.249
 8497W        W76726  16.582  24.399   0.466
 8498W        W76727  18.841  27.133  14.318
 8499W        W76728  29.046  24.908   3.860
 8500W        W76729  26.141  28.452   2.395
 8501W        W76730  15.665  29.533  11.944
 8502W        W76731  44.316   4.849  11.183
 8503W        W76732  33.898  23.090  11.547
 8504W        W76733  42.328  17.096   0.210
 8505W        W76734   2.929   9.344   3.235
 8506W        W76735  21.692  36.335  14.633
 8507W        W76736  13.313  19.648   2.298
 8508W        W76737  38.808  28.417   3.603
 8509W        W76738  15.320  28.518   4.562
 8510W        W76739  44.759  34.976  12.314
 8511W        W76740  18.158   7.246   0.133
 8512W        W76741  13.324  33.823   4.879
 8513W        W76742   6.095  30.973  13.376
 8514W        W76743  21.017  37.990   3.748
 8515W        W76744  40.030  10.180   2.928
 8516W        W76745  44.271  30.973   0.494
 8517W        W76746  40.734  41.027   4.710
 8518W        W76747  31.316   8.562  10.857
 8519W        W76748   6.434  30.118   2.371
 8520W        W76749  29.243  42.828  14.978
 8521W        W76750   0.239   8.336  14.853
 8522W        W76751  20.985  34.969   0.678
 8523W        W76752  10.065  25.056  11.568
 8524W        W76753  35.301  42.963  12.495
 8525W        W76754   3.499  33.391   1.497
 8526W        W76755  27.260  30.172   2.954
 8527W        W76756  33.982   2.398  13.796
 8528W        W76757   8.428   1.975  13.923
 8529W        W76758  19.624  18.602  12.451
 8530W        W76759  13.730  28.961   3.932
 8531W        W76760  25.487  32.069   4.961
 8532W        W76761  37.157   4.494  10.406
 8533W        W76762  21.617  35.574   2.250
 8534W        W76763   8.872  21.642   0.830
 8535W        W76764  30.931   8.588  12.533
 8536W        W76765  39.828  42.427  12.050
 8537W        W76766  42.348   1.316   1.711
 8538W        W76767  44.223  40.044   0.259
 8539W        W76768   3.092  24.256   0.962
 8540W        W76769  40.568  26.208   0.934
 8541W        W76770  43.416   0.760   2.144
 8542W        W76771  14.567  17.263   3.301
 8543W        W76772  20.773   9.426   3.183
 8544W        W76773  33.162  27.039   4.588
 8545W        W76774   9.456  18.499  14.882
 8546W        W76775   9.595  27.083  13.610
 8547W        W76776  39.449  33.681   2.892
 8548W        W76777  35.062   3.429   5.162
 8549W        W76778  27.178  42.606  12.048
 8550W        W76779  21.192   3.054   4.051
 8551W        W76780   0.744  29.188  14.980
 8552W        W76781  31.474  39.427   3.638
 8553W        W76782   4.347  17.400  11.694
 8554W        W76783  20.764  24.570  13.926
 8555W        W76784  19.695  44.541  11.026
 8556W        W76785  41.778  11.896   3.103
 8557W        W76786  17.393   9.510  14.061
 8558W        W76787   6.863  14.638   2.698
 8559W        W76788  14.704  37.025   0.316
 8560W        W76789  15.259  35.530   1.168
 8561W        W76790  28.584  44.336  13.461
 8562W        W76791  43.096  14.774   3.196
 8563W        W76792  28.032  13.858   3.225
 8564W        W76793   5.184  25.607   0.958
 8565W        W76794   5.524   1.682   3.836
 8566W        W76795  20.998   0.820  11.920
 8567W        W76796   8.239  13.737   3.732
 8568W        W76797  44.351  29.516   2.744
 8569W        W76798  25.590  33.026  12.372
 8570W        W76799   2.329  41.259   5.092
 8571W        W76800  32.832  30.436  14.710
 8572W        W76801   8.792   5.138   2.682
 8573W        W76802  27.421   4.692  12.904
 8574W        W76803  20.858  20.533   2.822
 8575W        W76804  35.025  23.434   1.747
 8576W        W76805  41.017  36.901   3.172
 8577W        W76806  32.969  41.755  14.894
 8578W        W76807   6.322  41.831   1.548
 8579W        W76808   2.255  37.785   5.468
 8580W        W76809  27.980   8.404   0.009
 8581W        W76810  36.610  23.169   2.667
 8582W        W76811  24.068  16.558   0.931
 8583W        W76812   7.685  12.722  12.020
 8584W        W76813  42.579  34.721  14.633
 8585W        W76814  33.177  15.791  12.761
 8586W        W76815  12.821  40.336   0.928
 8587W        W76816  10.284  15.676  13.768
 8588W        W76817   2.849  34.344   4.970
 8589W        W76818  19.731  20.722  12.065
 8590W        W76819  12.166  44.426   1.816
 8591W        W76820  11.780   9.392  10.754
 8592W        W76821  31.227  30.240   0.761
 8593W        W76822  29.205  13.316  11.973
 8594W        W76823  16.779  38.540  13.813
 8595W        W76824  12.409   0.277  14.746
 8596W        W76825  17.757  34.099  14.452
 8597W        W76826  14.394  32.446  11.416
 8598W        W76827  25.543  30.012  11.181
 8599W        W76828  36.563  18.337   0.315
 8600W        W76829  39.487  34.018  10.775
 8601W        W76830  28.794   8.941  13.093
 8602W        W76831  30.153  33.877  12.151
 8603W        W76832  39.116  36.550   0.971
 8604W        W76833  16.791  36.350  13.928
 8605W        W76834  12.224  14.437  12.035
 8606W        W76835  18.282  42.452  12.020
 8607W        W76836  32.421  18.173  11.827
 8608W        W76837  44.467  27.350  12.067
 8609W        W76838  36.015  31.127  14.316
 8610W        W76839  27.013  40.090  12.023
 8611W        W76840  20.357  21.748   2.251
 8612W        W76841  32.679  44.439  14.424
 8613W        W76842  29.380  13.752   3.056
 8614W        W76843  43.380  21.470  12.299
 8615W        W76844  31.981  24.218   2.728
 8616W        W76845  38.713  22.021  13.958
 8617W        W76846  31.057  20.674  11.652
 8618W        W76847  35.940   9.297  13.349
 8619W        W76848   3.753   1.834   2.865
 8620W        W76849   4.700  40.954  10.691
 8621W        W76850  18.144  32.084  14.040
 8622W        W76851  35.338   7.842   0.358
 8623W        W76852   4.278  26.224  14.384
 8624W        W76853  39.736  19.869   2.654
 8625W        W76854  10.092  34.934   1.726
 8626W        W76855  18.792  29.546  14.467
 8627W        W76856  30.716  23.036   1.007
 8628W        W76857  12.062  28.082  12.418
 8629W        W76858   9.611  16.555   2.324
 8630W        W76859  37.342  36.554   1.808
 8631W        W76860  28.648  35.102  11.983
 8632W        W76861  28.222  19.873   4.158
 8633W        W76862   8.659  17.578   4.693
 8634W        W76863  18.631  34.961  12.891
 8635W        W76864   4.291  36.108   1.313
 8636W        W76865  21.336  19.107  12.426
 8637W        W76866  27.503  44.281  12.928
 8638W        W76867  38.500   5.283   3.197
 8639W        W76868  41.977   8.467   1.248
 8640W        W76869  14.656  16.211   1.903
 8641W        W76870   4.369  23.614   2.572
 8642W        W76871  44.351  37.899   4.814
 8643W        W76872  13.526  33.481   2.864
 8644W        W76873   1.699  26.643   0.926
 8645W        W76874   3.927  23.892   1.336
 8646W        W76875   0.873  39.305   0.408
 8647W        W76876  18.587  41.292   3.182
 8648W        W76877  12.682  22.442  14.371
 8649W        W76878  14.671   9.903  10.930
 8650W        W76879  20.386  36.766  13.625
 8651W        W76880  25.102   3.423  10.572
 8652W        W76881  39.614  27.670  12.031
 8653W        W76882  10.766  30.568   2.614
 8654W        W76883  17.028  33.719  10.239
 8655W        W76884  11.227  12.401  12.558
 8656W        W76885  16.742  25.490  11.951
 8657W        W76886  11.223  34.108   0.725
 8658W        W76887  31.618   9.666   3.679
 8659W        W76888  15.604  13.617  12.919
 8660W        W76889  19.028  38.163   2.301
 8661W        W76890   3.341  16.259  13.099
 8662W        W76891  25.073  33.328  12.959
 8663W        W76892  27.665  20.024  13.077
 8664W        W76893  44.285  18.873   1.688
 8665W        W76894   7.358  12.319   2.664
 8666W        W76895   5.285  37.435  11.663
 8667W        W76896   5.967  24.137   4.135
 8668W        W76897  36.565   5.322  11.971
 8669W        W76898  18.746  23.634   2.349
 8670W        W76899  30.401  40.977   2.679
 8671W        W76900  35.807   4.859  14.265
 8672W        W76901  10.667  36.428   4.154
 8673W        W76902  21.457  10.475  11.620
 8674W        W76903  35.025   2.730   2.682
 8675W        W76904  19.124  21.429  12.586
 8676W        W76905  10.303  32.431   1.924
 8677W        W76906  43.723  32.992   2.887
 8678W        W76907  20.121   8.277  12.309
 8679W        W76908   8.617  34.001  11.964
 8680W        W76909  22.921  21.737  10.519
 8681W        W76910  16.655  12.325   4.582
 8682W        W76911  13.164  25.539  14.358
 8683W        W76912   6.938  11.733  12.438
 8684W        W76913  40.868  12.902   3.356
 8685W        W76914  23.439  25.566   3.794
 8686W        W76915   0.930  15.031   4.556
 8687W        W76916   3.244   8.091   0.713
 8688W        W76917  20.842  35.923   4.120
 8689W        W76918  10.405  28.489   2.609
 8690W        W76919  22.442  37.486  13.282
 8691W        W76920  12.619  40.768  14.455
 8692W        W76921  25.393  39.801   1.863
 8693W        W76922  42.409  13.750  11.949
 8694W        W76923  28.454  10.102   2.369
 8695W        W76924   9.855  28.176  14.060
 8696W        W76925   2.389  23.159   4.285
 8697W        W76926  11.882  12.078  14.557
 8698W        W76927  15.685   4.777  14.431
 8699W        W76928  11.404  23.782  11.067
 8700W        W76929  42.085  40.032   1.094
 8701W        W76930  24.634  24.040  14.338
 8702W        W76931  19.227   3.762   3.085
 8703W        W76932  31.109   5.807  13.591
 8704W        W76933  34.046  31.678  10.594
 8705W        W76934  14.583  29.478   2.621
 8706W        W76935  32.463  10.773  11.346
 8707W        W76936   1.442  22.683   2.919
 8708W        W76937  29.605  30.476   4.299
 8709W        W76938   3.874  34.788  10.662
 8710W        W76939   0.967  32.818  14.955
 8711W        W76940  18.165  19.925  12.866
 8712W        W76941  35.592   8.616   3.285
 8713W        W76942  12.341  34.309  12.902
 8714W        W76943   0.240   2.244  12.422
 8715W        W76944  33.478   2.176  12.345
 8716W        W76945  38.573  43.286   0.973
 8717W        W76946  36.429  32.670   3.441
 8718W        W76947  24.792  12.863  13.897
 8719W        W76948  37.947  28.405  12.474
 8720W        W76949  36.378  18.504  12.325
 8721W        W76950  39.262  44.236  11.085
 8722W        W76951  15.378  18.972  12.329
 8723W        W76952  16.073   5.915  14.981
 8724W        W76953  27.878  17.251   2.264
 8725W        W76954  44.997   8.888   4.046
 8726W        W76955   4.888  19.588  13.986
 8727W        W76956  23.561  36.636   0.901
 8728W        W76957  43.919   3.003  10.938
 8729W        W76958  30.237  18.795  12.745
 8730W        W76959   3.948   5.938  13.247
 8731W        W76960   5.746  39.297  11.473
 8732W        W76961  43.065  18.769  10.799
 8733W        W76962  14.488   3.782   1.755
 8734W        W76963  15.488   8.642  14.973
 8735W        W76964   7.250  19.205   4.175
 8736W        W76965  16.649  12.139  11.086
 8737W        W76966   0.305  18.622   1.749
 8738W        W76967  44.842  44.135   4.936
 8739W        W76968  35.042  11.372   3.350
 8740W        W76969  17.215   4.700   3.569
 8741W        W76970  24.559  36.948   2.021
 8742W        W76971   7.563  14.235   1.147
 8743W        W76972  33.115  38.779   4.451
 8744W        W76973  34.029  39.819  11.403
 8745W        W76974  37.296  16.049  11.958
 8746W        W76975  25.441  20.230  14.488
 8747W        W76976  25.614  16.692  12.537
 8748W        W76977  14.462  17.622   4.144
 8749W        W76978  12.654  13.683  14.549
 8750W        W76979  40.811  38.333  11.133
 8751W        W76980  30.622  41.034  14.524
 8752W        W76981  43.894  41.804   0.212
 8753W        W76982  18.739  38.264   0.378
 8754W        W76983  32.085  32.147  12.616
 8755W        W76984  11.140  37.157   2.887
 8756W        W76985  28.749  36.938   0.414
 8757W        W76986   7.378  34.566   1.402
 8758W        W76987  18.317  13.918  11.129
 8759W        W76988  10.563  38.326  12.771
 8760W        W76989  15.678  33.802   2.271
 8761W        W76990   8.377   9.835   1.220
 8762W        W76991  37.050  25.041  12.494
 8763W        W76992   6.363  26.542   0.456
 8764W        W76993  30.663  31.307  12.101
 8765W        W76994  12.102  36.907  10.732
 8766W        W76995  27.556   3.276   2.442
 8767W        W76996  37.478  14.168   4.559
 8768W        W76997   2.041  39.001   2.197
 8769W        W76998   8.650  23.165   2.114
 8770W        W76999   2.386  33.402  12.380
 8771W        W77000   8.535  33.311  14.127
 8772W        W77001   6.196  40.891  13.051
 8773W        W77002  39.374  25.277  12.953
 8774W        W77003  33.993  33.975  12.532
 8775W        W77004  24.271  23.779  13.454
 8776W        W77005  17.815  27.357   3.178
 8777W        W77006  13.785  23.472   3.192
 8778W        W77007  31.435  23.045  12.599
 8779W        W77008   0.605  33.859  12.060
 8780W        W77009  12.089  36.440  12.145
 8781W        W77010  24.954  39.273   4.567
 8782W        W77011  42.111   8.568  12.851
 8783W        W77012  16.638  24.323  10.822
 8784W        W77013   2.227  38.602   4.568
 8785W        W77014  10.243  44.426  13.537
 8786W        W77015  36.987   0.211  13.550
 8787W        W77016  21.775  18.694   0.931
 8788W        W77017   2.251  13.615   0.809
 8789W        W77018  22.200  16.346   0.764
 8790W        W77019  34.519   6.758  14.801
 8791W        W77020  29.634   9.572   1.491
 8792W        W77021  42.962  19.527  14.320
 8793W        W77022  38.397  40.924  13.103
 8794W        W77023  37.510   7.293  12.087
 8795W        W77024   3.764  23.602   3.293
 8796W        W77025  26.468  36.557   1.482
 8797W        W77026  11.950  30.744   4.623
 8798W        W77027  30.442  36.517  12.050
 8799W        W77028  14.086  26.840  11.613
 8800W        W77029   6.452  38.009  11.602
 8801W        W77030  30.197  30.880   2.247
 8802W        W77031  30.924  10.048   3.206
 8803W        W77032  43.690  42.030   3.412
 8804W        W77033  36.789  30.486   0.382
 8805W        W77034  35.770  30.991  14.765
 8806W        W77035  40.028  41.430   0.229
 8807W        W77036  20.044  18.463   2.968
 8808W        W77037  23.283  36.400   0.374
 8809W        W77038  39.511   2.026  10.821
 8810W        W77039  21.086  44.478   3.197
 8811W        W77040  38.666   9.017   3.143
 8812W        W77041  32.368  36.911  11.511
 8813W        W77042  32.554  30.655   2.979
 8814W        W77043  33.045  11.427  11.348
 8815W        W77044  33.993   4.507  10.859
 8816W        W77045   9.390   2.013  11.681
 8817W        W77046  12.486  12.681   2.203
 8818W        W77047  41.488  43.950   4.537
 8819W        W77048   8.221  25.537  11.607
 8820W        W77049  12.331   2.938  10.578
 8821W        W77050  10.144  21.613   0.457
 8822W        W77051  38.459  10.841  13.755
 8823W        W77052  40.062  26.842   3.855
 8824W        W77053  38.389  15.333   4.424
 8825W        W77054  21.093  38.673  12.349
 8826W        W77055  33.017  25.002  12.855
 8827W        W77056   1.894  30.862   1.745
 8828W        W77057   6.645   6.692  11.689
 8829W        W77058  14.106   9.293   4.175
 8830W        W77059  15.683  43.060   3.252
 8831W        W77060  26.081  44.025  13.273
 8832W        W77061  24.738   3.285  13.364
 8833W        W77062  36.317  34.282   0.857
 8834W        W77063   5.835  24.315   0.204
 8835W        W77064  21.624   3.653   1.201
 8836W        W77065  43.701  40.052   0.952
 8837W        W77066  27.631   7.687  13.939
 8838W        W77067  41.278   6.920  14.336
 8839W        W77068   2.321   2.412   2.842
 8840W        W77069  20.747  39.274  14.414
 8841W        W77070  22.128  26.739  14.376
 8842W        W77071  30.985  23.549  11.930
 8843W        W77072   3.418   6.986   3.695
 8844W        W77073   0.204   8.839   1.227
 8845W        W77074  12.165  14.770  10.166
 8846W        W77075  40.469  27.705   0.324
 8847W        W77076  35.579  40.272  14.873
 8848W        W77077  36.829  24.089  11.974
 8849W        W77078  33.413   7.216  10.812
 8850W        W77079   2.501  39.909   0.349
 8851W        W77080  28.239  24.819   3.487
 8852W        W77081  13.045  26.869  13.888
 8853W        W77082  25.747  18.900  13.523
 8854W        W77083  27.131  36.014  14.267
 8855W        W77084   2.351  26.945   3.664
 8856W        W77085   7.190  16.568  11.677
 8857W        W77086  28.192  42.968  11.125
 8858W        W77087  31.633   5.677  10.403
 8859W        W77088  38.271   9.363   2.275
 8860W        W77089  23.163  32.452  13.601
 8861W        W77090   0.957  25.981   0.881
 8862W        W77091  44.928   5.811  11.494
 8863W        W77092  40.884  12.373   3.355
 8864W        W77093  22.909   9.606   3.117
 8865W        W77094  21.024  21.030   3.789
 8866W        W77095   0.265  10.946  13.726
 8867W        W77096  33.935  33.069  12.895
 8868W        W77097  37.750  32.956   3.701
 8869W        W77098   0.225  39.355   2.286
 8870W        W77099   9.875  20.327   0.834
 8871W        W77100  38.648   1.356   1.288
 8872W        W77101  37.252  43.081  10.179
 8873W        W77102  38.283  16.491  12.982
 8874W        W77103   6.266  26.183   1.787
 8875W        W77104  27.933  22.486   0.070
 8876W        W77105  31.034  15.777  11.927
 8877W        W77106  28.059   4.867   3.014
 8878W        W77107   9.303   4.294  11.450
 8879W        W77108  26.499   0.505  10.366
 8880W        W77109  37.790  28.156   3.784
 8881W        W77110  15.869   4.420  11.994
 8882W        W77111  23.441  42.350   0.793
 8883W        W77112  14.680  12.195   1.798
 8884W        W77113   3.438   6.025  12.621
 8885W        W77114   2.735  35.791  10.947
 8886W        W77115  18.368   8.878   2.902
 8887W        W77116  15.301  27.575   4.273
 8888W        W77117  12.748  25.681   2.551
 8889W        W77118  14.324   3.715   2.279
 8890W        W77119  18.339  18.983   2.079
 8891W        W77120  22.057  32.809  10.456
 8892W        W77121  13.352  24.240  13.092
 8893W        W77122  21.939   0.182  14.008
 8894W        W77123   1.300  34.001  13.731
 8895W        W77124   8.414  23.684  10.970
 8896W        W77125   2.406  36.076  11.686
 8897W        W77126  20.208  21.592  12.338
 8898W        W77127  38.082  10.631   5.258
 8899W        W77128   2.201  17.568   0.920
 8900W        W77129  28.945  41.002  14.509
 8901W        W77130  38.554  40.828  10.604
 8902W        W77131   9.882   7.721  12.797
 8903W        W77132  33.500  35.347  11.421
 8904W        W77133  15.421  43.434   4.158
 8905W        W77134   0.885  33.946  12.477
 8906W        W77135  29.435   6.762   3.929
 8907W        W77136  31.045   6.817   2.770
 8908W        W77137  26.190  29.397   3.961
 8909W        W77138  20.707  40.301   3.767
 8910W        W77139   3.174  23.097  11.370
 8911W        W77140  12.405  37.386  12.475
 8912W        W77141  14.282  20.747  14.292
 8913W        W77142  34.874  40.545  14.452
 8914W        W77143  23.334  22.207   2.389
 8915W        W77144  33.244  22.942  12.376
 8916W        W77145  39.471  38.413  11.151
 8917W        W77146  26.411  22.419  10.347
 8918W        W77147  32.087  18.949   9.871
 8919W        W77148  28.705  39.310  11.102
 8920W        W77149   4.344  41.862   4.767
 8921W        W77150  41.648  19.603   1.787
 8922W        W77151  12.553  41.436  10.590
 8923W        W77152  18.076  33.517  11.200
 8924W        W77153  29.877  28.548   2.211
 8925W        W77154  18.754   4.779  12.949
 8926W        W77155  19.139  17.094   0.189
 8927W        W77156  19.622  14.733  12.823
 8928W        W77157  26.817  21.593   1.867
 8929W        W77158  29.618  20.499   2.346
 8930W        W77159  42.795   5.879   4.712
 8931W        W77160  33.539  40.744  10.791
 8932W        W77161  19.392  31.509  10.368
 8933W        W77162  23.421  40.606   2.193
 8934W        W77163   7.515   7.733   2.435
 8935W        W77164  20.588  16.116   3.209
 8936W        W77165  32.348  24.550  11.036
 8937W        W77166  16.996  31.363  12.519
 8938W        W77167  18.219   7.286  12.370
 8939W        W77168  34.605  34.595  14.365
 8940W        W77169  19.845  34.126   3.655
 8941W        W77170  13.206  13.535   2.154
 8942W        W77171  43.065   6.793   1.522
 8943W        W77172  31.096  17.269   3.164
 8944W        W77173  30.466  29.142  10.717
 8945W        W77174  40.447  32.622   2.428
 8946W        W77175  33.216  25.897  12.514
 8947W        W77176  34.052  40.424   4.622
 8948W        W77177  43.641   5.037  14.811
 8949W        W77178  17.751  42.982   2.276
 8950W        W77179  34.132  29.648   2.832
 8951W        W77180   7.958  32.733   2.341
 8952W        W77181   4.264   9.899   2.838
 8953W        W77182   1.293  31.914  10.018
 8954W        W77183  10.360  40.272   2.993
 8955W        W77184  20.624  32.536   1.603
 8956W        W77185  28.226  10.523  11.644
 8957W        W77186   6.450  24.320   1.644
 8958W        W77187  17.380   6.245   3.222
 8959W        W77188  10.120  31.377  13.977
 8960W        W77189  36.373  36.174   0.549
 8961W        W77190  18.146  23.289   0.228
 8962W        W77191  32.901  39.790   0.328
 8963W        W77192   5.351  32.098   3.654
 8964W        W77193  10.336  22.963   0.251
 8965W        W77194  11.218  11.283  14.843
 8966W        W77195  21.894  44.417  13.224
 8967W        W77196  36.435   9.846  13.998
 8968W        W77197  32.663  14.309  10.770
 8969W        W77198   5.590  37.512  14.354
 8970W        W77199  40.318  20.257  14.481
 8971W        W77200  13.158  31.437  14.624
 8972W        W77201   7.628  36.045  13.441
 8973W        W77202  39.725   0.212  14.338
 8974W        W77203  30.054  24.501  13.676
 8975W        W77204  16.172  30.560  12.856
 8976W        W77205  38.926   8.260  13.368
 8977W        W77206  24.538  33.498   3.827
 8978W        W77207   3.596  10.371   3.753
 8979W        W77208  42.417   3.156   2.197
 8980W        W77209  10.231   9.397   2.173
 8981W        W77210  16.119  21.149   9.974
 8982W        W77211   9.623  28.041   4.701
 8983W        W77212  14.060  20.263   2.454
 8984W        W77213  33.612  12.658   3.549
 8985W        W77214   6.439  13.754  11.017
 8986W        W77215   8.676  38.505   1.178
 8987W        W77216  17.098  22.396  11.553
 8988W        W77217  43.723  13.528  13.798
 8989W        W77218  44.384  11.039  12.123
 8990W        W77219  42.237  32.530   4.817
 8991W        W77220  38.920  21.224   2.251
 8992W        W77221  30.091  15.326   0.902
 8993W        W77222  38.507  13.292  13.908
 8994W        W77223  27.663  11.910  10.247
 8995W        W77224  23.236   6.170   1.891
 8996W        W77225  12.473  43.801   0.900
 8997W        W77226  18.363  37.168   0.361
 8998W        W77227  31.000  25.963  13.860
 8999W        W77228  33.237   5.162  10.641
 9000W        W77229   5.203  18.995   3.618
 9001W        W77230  29.481  34.490   0.514
 9002W        W77231  28.011  32.430   2.176
 9003W        W77232   9.870   6.003  13.923
 9004W        W77233   8.673  29.679  13.216
 9005W        W77234  27.709  23.057   0.822
 9006W        W77235  41.981   7.927  13.933
 9007W        W77236  29.132  39.497  13.467
 9008W        W77237  22.467  13.512  10.694
 9009W        W77238   1.928  20.537  13.218
 9010W        W77239  40.844   7.368  12.490
 9011W        W77240   9.248  43.702   4.687
 9012W        W77241  20.669  35.337  12.024
 9013W        W77242  10.380  36.475  14.048
 9014W        W77243  41.466  29.612   1.304
 9015W        W77244  43.021  44.542   1.252
 9016W        W77245  37.710  31.527   2.993
 9017W        W77246   6.012   5.917  11.505
 9018W        W77247  19.055  44.551   1.848
 9019W        W77248   7.857  13.464   2.397
 9020W        W77249   3.192   3.031  12.020
 9021W        W77250  43.567  26.267  14.872
 9022W        W77251  31.932  16.120  12.435
 9023W        W77252  26.037   5.131  12.041
 9024W        W77253  27.494   6.901   4.747
 9025W        W77254  18.766  33.036  11.625
 9026W        W77255  19.199  36.017  13.806
 9027W        W77256  33.257  18.001   4.093
 9028W        W77257  13.266  14.076  12.574
 9029W        W77258   8.215   2.431  13.806
 9030W        W77259  34.249  16.665  14.063
 9031W        W77260   7.823  42.503   0.727
 9032W        W77261  20.216  12.780   4.654
 9033W        W77262   1.050   7.362   0.703
 9034W        W77263  38.539  37.568  12.965
 9035W        W77264   0.008  14.677  13.135
 9036W        W77265   4.256  17.355  12.605
 9037W        W77266  17.193  12.575  14.400
 9038W        W77267  33.106  38.640  13.575
 9039W        W77268   6.089  24.628   1.886
 9040W        W77269   1.970  19.230   4.586
 9041W        W77270  33.736  39.834  14.792
 9042W        W77271   6.728  20.275  10.435
 9043W        W77272  12.500  21.103   2.201
 9044W        W77273  28.219  39.010  14.981
 9045W        W77274   7.392   3.684  10.774
 9046W        W77275   6.312  43.514  14.284
 9047W        W77276  21.308  27.093  13.447
 9048W        W77277  24.011  27.109  14.920
 9049W        W77278  35.798  41.545   3.999
 9050W        W77279  15.543  44.835   1.394
 9051W        W77280   4.199  22.834  14.275
 9052W        W77281  11.771  16.911  12.024
 9053W        W77282  14.162  21.216  14.054
 9054W        W77283  33.191  35.649  14.893
 9055W        W77284   1.486  13.923  11.676
 9056W        W77285  20.152  18.961   2.839
 9057W        W77286  39.631  27.186   2.389
 9058W        W77287   8.441  43.898   3.702
 9059W        W77288   5.820  11.067   1.446
 9060W        W77289  11.411  26.159  14.056
 9061W        W77290  27.049  18.333   3.420
 9062W        W77291  30.723  35.653  13.649
 9063W        W77292  24.617  22.433   2.742
 9064W        W77293   1.723   6.419   4.042
 9065W        W77294   4.543  44.164  11.459
 9066W        W77295  24.489  32.827  12.586
 9067W        W77296  12.741  43.201  13.987
 9068W        W77297  25.995  32.904  14.993
 9069W        W77298  37.961  26.367  14.448
 9070W        W77299  24.090  13.693  13.259
 9071W        W77300   8.001  30.642  14.413
 9072W        W77301  38.924  41.923   0.908
 9073W        W77302  10.773  28.839  14.506
 9074W        W77303   3.262  30.531   3.143
 9075W        W77304  20.041  42.321  14.055
 9076W        W77305  17.558   1.199   2.120
 9077W        W77306   1.635  13.075  11.484
 9078W        W77307  29.597  29.695  10.770
 9079W        W77308  38.467  34.681   3.341
 9080W        W77309  34.515  15.766   1.398
 9081W        W77310  41.793   7.278   4.025
 9082W        W77311  37.756  16.106  13.549
 9083W        W77312  41.849   5.276  10.324
 9084W        W77313  41.555  10.431  14.531
 9085W        W77314  33.114  15.265  12.659
 9086W        W77315  30.083  35.526   0.309
 9087W        W77316  20.753   5.838   1.297
 9088W        W77317  16.734   6.746   4.240
 9089W        W77318  38.166  44.535  12.955
 9090W        W77319  34.865  34.414   0.912
 9091W        W77320   9.232   9.338   2.322
 9092W        W77321   5.891  22.191   0.877
 9093W        W77322   8.615   2.229   0.828
 9094W        W77323  34.943  41.761   3.785
 9095W        W77324  31.920  38.018  10.940
 9096W        W77325  21.360  36.850   3.053
 9097W        W77326  24.922  27.508   1.510
 9098W        W77327  18.067   2.364   1.629
 9099W        W77328  35.312  10.665   4.212
 9100W        W77329  44.764   8.658   2.262
 9101W        W77330  28.570  34.529   0.992
 9102W        W77331  21.305   8.821   1.275
 9103W        W77332  39.993  31.975  11.760
 9104W        W77333  12.145  24.211   3.701
 9105W        W77334   0.211  16.229   2.176
 9106W        W77335  37.549   6.239   4.481
 9107W        W77336  24.098   0.028   3.734
 9108W        W77337  10.795  42.757  14.498
 9109W        W77338  32.540  28.059   0.014
 9110W        W77339   2.981  40.948   2.801
 9111W        W77340  10.692  37.379   0.394
 9112W        W77341  23.544   6.840  14.520
 9113W        W77342  36.475  30.061   4.415
 9114W        W77343  44.837  17.725  14.007
 9115W        W77344  14.527  25.337   5.010
 9116W        W77345  12.700  35.828  10.952
 9117W        W77346  29.118  23.139  10.989
 9118W        W77347  16.031  21.596  12.601
 9119W        W77348   9.160  13.204  14.952
 9120W        W77349   8.624  35.153   0.966
 9121W        W77350  36.021  20.975   1.105
 9122W        W77351  40.924   3.062   4.735
 9123W        W77352   1.759  25.783   1.289
 9124W        W77353  15.024  25.366  14.337
 9125W        W77354  42.233   0.890  14.350
 9126W        W77355  17.029  41.422  11.294
 9127W        W77356  12.788  15.664   2.694
 9128W        W77357  12.625  40.534  13.252
 9129W        W77358  39.543  23.869   0.733
 9130W        W77359  19.460  11.159   4.637
 9131W        W77360   2.344  11.827   2.647
 9132W        W77361   1.158   6.250  11.428
 9133W        W77362  10.343  42.696  13.388
 9134W        W77363  23.671   4.258   1.426
 9135W        W77364  14.356  38.322  12.486
 9136W        W77365  21.755  32.197  13.863
 9137W        W77366   2.474  41.842  14.419
 9138W        W77367  18.986  32.346  12.523
 9139W        W77368  43.490   3.444   1.867
 9140W        W77369   1.120   9.721  13.377
 9141W        W77370  20.024  11.606   1.220
 9142W        W77371  30.867  37.887  14.296
 9143W        W77372  40.841  33.175  13.998
 9144W        W77373  18.406  28.396   0.294
 9145W        W77374  43.992  22.595  14.729
 9146W        W77375  30.118  32.981  14.043
 9147W        W77376  33.924  25.290  14.425
 9148W        W77377  43.505   2.929  10.440
 9149W        W77378  25.108   0.177  11.616
 9150W        W77379  14.592  39.082  14.034
 9151W        W77380  35.652  21.596   1.175
 9152W        W77381  13.258   6.353   0.485
 9153W        W77382  40.977   9.857  14.003
 9154W        W77383  30.220  44.156  14.544
 9155W        W77384  11.897  33.341   4.590
 9156W        W77385  39.706  43.302   4.548
 9157W        W77386  43.405  13.807   0.880
 9158W        W77387  33.105  23.690   1.310
 9159W        W77388  26.016  17.840  14.454
 9160W        W77389  19.555  27.487  11.124
 9161W        W77390  33.155   9.267   1.270
 9162W        W77391  26.818  32.771  11.437
 9163W        W77392  33.911  10.724   1.643
 9164W        W77393  10.316  12.505  11.050
 9165W        W77394  18.788  10.133   3.227
 9166W        W77395  12.103  14.604   3.778
 9167W        W77396  43.956  25.119  13.138
 9168W        W77397  35.868  13.723  12.585
 9169W        W77398  31.470   0.485   4.810
 9170W        W77399  13.563  26.990  10.725
 9171W        W77400   9.790  20.554   0.361
 9172W        W77401  14.546  10.116  13.411
 9173W        W77402  25.509   0.443  14.340
 9174W        W77403  12.764   6.438  14.979
 9175W        W77404  23.685  44.717   3.650
 9176W        W77405  42.402  43.440  11.667
 9177W        W77406  34.246  33.052   1.693
 9178W        W77407  29.151   5.360  11.502
 9179W        W77408  21.530   8.298   0.011
 9180W        W77409   8.360  41.732   0.729
 9181W        W77410  11.585   7.216  12.849
 9182W        W77411   4.724  13.713  12.017
 9183W        W77412  11.258  36.480  10.646
 9184W        W77413  31.188  12.013  11.039
 9185W        W77414  30.881  23.549  12.855
 9186W        W77415   8.447  36.041  13.848
 9187W        W77416  15.232  15.139  14.506
 9188W        W77417  32.592  22.669  10.642
 9189W        W77418   0.658  34.850  13.510
 9190W        W77419  10.234  29.206  11.627
 9191W        W77420  42.709  13.846  11.474
 9192W        W77421   7.696   5.455   3.701
 9193W        W77422  20.840  39.903   2.820
 9194W        W77423  39.042  27.563  12.932
 9195W        W77424   5.413  12.575  11.683
 9196W        W77425   6.566  13.000  14.693
 9197W        W77426  25.644   7.389   0.255
 9198W        W77427  31.529   1.984  13.795
 9199W        W77428  18.118  41.512   3.280
 9200W        W77429  38.414  35.018  10.570
 9201W        W77430  12.846   9.882   3.127
 9202W        W77431  34.026  20.296   4.221
 9203W        W77432  15.869  32.453   9.738
 9204W        W77433  23.741   7.222  13.871
 9205W        W77434  32.491   1.836  14.710
 9206W        W77435  34.581   7.841  10.234
 9207W        W77436  24.532  41.357   1.616
 9208W        W77437  33.150  14.357   4.730
 9209W        W77438  31.996  19.569  14.467
 9210W        W77439   9.387  37.303   2.189
 9211W        W77440   6.652   0.065  13.603
 9212W        W77441  40.649   6.396   2.768
 9213W        W77442   5.237  12.354  12.994
 9214W        W77443  31.515  14.466   0.902
 9215W        W77444   0.223  33.108   1.479
 9216W        W77445  34.516  33.114  14.357
 9217W        W77446   5.401  36.371   1.929
 9218W        W77447  11.291  14.539  11.931
 9219W        W77448   0.961  25.646  14.589
 9220W        W77449  21.442   1.120   2.789
 9221W        W77450  30.487  35.465   2.434
 9222W        W77451  15.868  11.808   0.901
 9223W        W77452  38.208   4.008   2.451
 9224W        W77453  10.500  31.061  14.886
 9225W        W77454  17.527  33.919   1.333
 9226W        W77455  12.347  27.726   0.064
 9227W        W77456   4.951  14.396  12.826
 9228W        W77457  19.281  18.055   4.688
 9229W        W77458  40.324   1.417  13.433
 9230W        W77459  37.008  37.448  12.865
 9231W        W77460  28.684  38.882   1.283
 9232W        W77461  43.395   4.196   2.133
 9233W        W77462   9.851  28.788  13.361
 9234W        W77463  35.431   6.065   3.835
 9235W        W77464   7.100  20.644  13.987
 9236W        W77465  27.250  32.028   4.181
 9237W        W77466  14.288  40.417   4.189
 9238W        W77467  35.980  35.708   4.640
 9239W        W77468  39.001  12.312  12.397
 9240W        W77469  24.002  20.674   3.384
 9241W        W77470  10.628   6.190  13.496
 9242W        W77471  38.985  37.761  14.730
 9243W        W77472  27.303  23.347   4.141
 9244W        W77473  21.660  37.050   2.252
 9245W        W77474   0.426  43.413   1.768
 9246W        W77475  36.121  14.533   4.062
 9247W        W77476  22.466  12.790  11.192
 9248W        W77477  38.432  16.167  10.662
 9249W        W77478  15.254  44.802  11.599
 9250W        W77479   6.145  39.625  14.269
 9251W        W77480  23.980  11.569  10.828
 9252W        W77481   0.016   0.309  13.349
 9253W        W77482  11.747  22.147   2.779
 9254W        W77483  40.013   9.127   4.114
 9255W        W77484  43.919  37.484   2.847
 9256W        W77485  36.521  18.427  14.456
 9257W        W77486   9.298  31.832  11.602
 9258W        W77487  44.711  28.027   2.831
 9259W        W77488  42.406   2.010   3.199
 9260W        W77489  33.396  41.962   3.249
 9261W        W77490  32.615  29.244  12.241
 9262W        W77491  10.968  21.151   0.218
 9263W        W77492   3.675  34.545  13.457
 9264W        W77493   7.782  10.557   3.109
 9265W        W77494  40.327   8.492   1.760
 9266W        W77495  44.428  24.077  13.192
 9267W        W77496  17.047  42.752   0.892
 9268W        W77497  32.965  14.144  14.490
 9269W        W77498  19.704   1.445   4.848
 9270W        W77499  29.918  18.977  14.515
 9271W        W77500   1.460  15.642   4.740
 9272W        W77501  14.129  25.476   0.993
 9273W        W77502  26.272  35.852  14.843
 9274W        W77503  17.607  31.160   4.331
 9275W        W77504  36.369  11.328  11.139
 9276W        W77505  24.867  21.143  11.917
 9277W        W77506  41.357  34.273  13.489
 9278W        W77507  19.229  13.308  14.799
 9279W        W77508  40.089  26.419   4.675
 9280W        W77509  30.941  37.117   1.163
 9281W        W77510  34.529  37.550  11.762
 9282W        W77511   0.844   6.466   1.632
 9283W        W77512  41.874  36.546   4.913
 9284W        W77513  40.418  29.580   0.445
 9285W        W77514   5.065  11.659   0.836
 9286W        W77515  15.638  37.134   3.141
 9287W        W77516  10.915  43.647  11.735
 9288W        W77517   3.482  27.032   3.635
 9289W        W77518   6.262  43.354  11.433
 9290W        W77519  26.942  10.277   0.775
 9291W        W77520  18.910  15.062  13.341
 9292W        W77521  39.961   5.956   2.174
 9293W        W77522  17.912  43.274   4.158
 9294W        W77523  16.348  20.464  14.538
 9295W        W77524  19.805  15.498  12.438
 9296W        W77525  21.973   9.230  14.948
 9297W        W77526  15.856  14.096   1.260
 9298W        W77527  43.805  23.930  13.533
 9299W        W77528  34.859  25.700  13.898
 9300W        W77529  38.043  42.497  13.852
 9301W        W77530   6.940  38.011   4.413
 9302W        W77531   3.807   9.141  12.084
 9303W        W77532  10.350  12.625  13.873
 9304W        W77533  34.970  26.710  10.109
 9305W        W77534  36.717  25.276  13.889
 9306W        W77535  23.659  41.492  14.010
 9307W        W77536  39.206  17.183   4.252
 9308W        W77537   2.488  26.326   4.297
 9309W        W77538  15.759  24.505   3.346
 9310W        W77539  30.655  44.731   1.280
 9311W        W77540   5.435   1.760  11.916
 9312W        W77541  19.324  29.715   4.604
 9313W        W77542  39.272  17.795   1.702
 9314W        W77543   7.400  39.360  11.292
 9315W        W77544  27.403  21.073  12.513
 9316W        W77545  23.146  32.939  12.789
 9317W        W77546  11.737  37.165  11.013
 9318W        W77547  16.126  19.338   0.733
 9319W        W77548  28.891  40.597  11.254
 9320W        W77549  41.797  27.626   0.505
 9321W        W77550  26.260  38.921   3.630
 9322W        W77551  20.663   8.530   3.069
 9323W        W77552  31.497  20.298  11.055
 9324W        W77553   4.168  23.325  14.434
 9325W        W77554  18.765  29.117  11.552
 9326W        W77555  43.856  29.420  12.862
 9327W        W77556  34.855  31.020  13.614
 9328W        W77557  29.134   5.500  10.986
 9329W        W77558   8.675   7.209  14.755
 9330W        W77559  35.672  23.649  11.518
 9331W        W77560   7.027  20.094  12.506
 9332W        W77561  28.423  26.094  13.817
 9333W        W77562  35.064  43.485  13.033
 9334W        W77563  31.084  18.265   3.196
 9335W        W77564  19.045   8.861   1.929
 9336W        W77565  29.609  37.097   1.209
 9337W        W77566  27.588  21.736   3.167
 9338W        W77567  15.823  22.948   1.727
 9339W        W77568  31.142   8.190  14.456
 9340W        W77569  31.123  40.583  11.544
 9341W        W77570  23.735  17.251  10.674
 9342W        W77571  16.460   2.043   0.429
 9343W        W77572  38.388  33.082   1.282
 9344W        W77573  11.191  22.962  10.702
 9345W        W77574  38.642   5.628   4.299
 9346W        W77575  24.221  20.770  13.410
 9347W        W77576  22.648  30.490   4.676
 9348W        W77577  23.967  18.623  11.042
 9349W        W77578  26.343  36.356  10.691
 9350W        W77579   6.767  35.051  14.528
 9351W        W77580  32.309  39.852  13.755
 9352W        W77581  39.499   5.985   3.680
 9353W        W77582  10.551  15.576  11.702
 9354W        W77583  30.194  36.346   0.282
 9355W        W77584  12.177  14.599  11.041
 9356W        W77585  37.284  20.289   4.288
 9357W        W77586   3.887  39.250  10.420
 9358W        W77587   8.194  12.343  12.452
 9359W        W77588  32.108  29.521  12.193
 9360W        W77589  38.701   8.602  12.085
 9361W        W77590  37.589  27.286   0.791
 9362W        W77591  22.826  39.969  13.431
 9363W        W77592  11.091   0.418   2.271
 9364W        W77593  20.493   3.151   0.319
 9365W        W77594  38.586  33.473   3.531
 9366W        W77595   9.284  11.951   5.145
 9367W        W77596  16.321  29.435  10.700
 9368W        W77597  28.611  22.349  14.291
 9369W        W77598  19.775  31.933  12.839
 9370W        W77599   9.741  13.638   1.197
 9371W        W77600   9.003  37.526   3.109
 9372W        W77601  37.626   9.976   4.166
 9373W        W77602  28.482  13.074  12.569
 9374W        W77603  12.841  29.087  14.004
 9375W        W77604  26.370  21.969   0.831
 9376W        W77605   8.610  16.592   2.448
 9377W        W77606  16.310  21.610  13.041
 9378W        W77607  34.344  13.421   1.051
 9379W        W77608  40.975  20.512  13.068
 9380W        W77609   9.595  23.036   3.516
 9381W        W77610  36.948  36.112   3.262
 9382W        W77611   2.699  28.213  12.533
 9383W        W77612  33.185   1.407   0.841
 9384W        W77613  42.887  43.457  13.375
 9385W        W77614  14.815  22.599   0.780
 9386W        W77615  23.114   0.920  12.847
 9387W        W77616  33.122  28.249   0.851
 9388W        W77617   6.134  16.740   0.066
 9389W        W77618  42.545   3.593  11.616
 9390W        W77619   8.603  39.972  14.965
 9391W        W77620  19.119  35.277   0.440
 9392W        W77621   3.820  17.364   4.685
 9393W        W77622  16.681   0.571   4.931
 9394W        W77623   4.734  32.219  14.721
 9395W        W77624  23.397   2.478  10.673
 9396W        W77625   4.155  37.415   4.478
 9397W        W77626  11.550   1.600  11.078
 9398W        W77627  18.573   1.280  13.587
 9399W        W77628  19.720  30.917   0.972
 9400W        W77629  28.669   2.955   1.508
 9401W        W77630   0.332   6.926  12.049
 9402W        W77631  17.694  34.437  10.760
 9403W        W77632  42.586  20.786  14.431
 9404W        W77633  29.331  27.057   0.393
 9405W        W77634   6.214  23.679   4.089
 9406W        W77635   4.430  16.090  11.246
 9407W        W77636  31.092  20.062  14.577
 9408W        W77637  25.760  19.848  14.914
 9409W        W77638  42.327   5.572   3.806
 9410W        W77639  33.424  20.654   9.954
 9411W        W77640  39.259  14.609  11.681
 9412W        W77641  42.590   6.895   3.215
 9413W        W77642  34.359  25.656  12.956
 9414W        W77643  28.945  10.783  13.513
 9415W        W77644   4.687  22.742  13.327
 9416W        W77645  31.765   4.367  12.471
 9417W        W77646  19.133  41.164  12.415
 9418W        W77647  14.923   1.593   1.931
 9419W        W77648   0.157  38.318   0.780
 9420W        W77649  12.874  36.048   3.329
 9421W        W77650  38.025  37.245   4.617
 9422W        W77651  34.442  16.898   4.178
 9423W        W77652  36.907   0.260   3.943
 9424W        W77653  44.033  41.462   4.618
 9425W        W77654  22.792  11.162   2.355
 9426W        W77655  28.984  27.207  12.524
 9427W        W77656  30.595  13.701   0.255
 9428W        W77657  18.972  29.563   3.800
 9429W        W77658   5.957   3.986   3.395
 9430W        W77659  19.565  10.571  12.480
 9431W        W77660  29.798  44.799   0.634
 9432W        W77661  16.084  28.980  10.581
 9433W        W77662  29.213  38.888   3.248
 9434W        W77663  44.414   2.735  14.406
 9435W        W77664  27.797  37.337  11.187
 9436W        W77665   0.751   7.689   4.859
 9437W        W77666  32.119  40.496  11.227
 9438W        W77667  31.651  37.386   4.062
 9439W        W77668  19.081  10.017   0.364
 9440W        W77669   4.824  11.807   3.552
 9441W        W77670  30.980   9.965  11.997
 9442W        W77671  26.707  34.965   0.828
 9443W        W77672  40.844  39.854   3.323
 9444W        W77673  29.341   8.162   1.859
 9445W        W77674  23.688  17.248  14.245
 9446W        W77675   4.237  20.016   0.887
 9447W        W77676  41.742  30.682  11.090
 9448W        W77677  15.412   7.839   3.728
 9449W        W77678  24.042   2.348  11.813
 9450W        W77679  12.239  23.043   0.502
 9451W        W77680  10.186   5.747   4.406
 9452W        W77681  19.875   5.799  11.222
 9453W        W77682  20.852   3.497   2.470
 9454W        W77683  16.682  18.997  13.447
 9455W        W77684  37.487  20.192  10.713
 9456W        W77685  12.636  11.385   1.933
 9457W        W77686  14.329   3.684   0.527
 9458W        W77687   9.768  36.547   2.336
 9459W        W77688   9.073  43.223   4.784
 9460W        W77689  33.870   1.694  12.990
 9461W        W77690  28.003  38.146   0.336
 9462W        W77691   4.868   7.676   5.282
 9463W        W77692  42.582  34.260  12.939
 9464W        W77693  42.973   3.468  12.897
 9465W        W77694  16.050  41.439  14.774
 9466W        W77695   3.650  18.833  12.454
 9467W        W77696  34.911  10.281  13.565
 9468W        W77697   0.896   3.439   3.163
 9469W        W77698  43.523  18.593   2.212
 9470W        W77699  14.714  19.735  12.418
 9471W        W77700  10.599  30.872  11.879
 9472W        W77701  37.439  30.637  11.394
 9473W        W77702  28.392  29.726  14.352
 9474W        W77703  19.731   6.536  13.412
 9475W        W77704  16.824  28.324   5.125
 9476W        W77705   0.956  29.576   4.341
 9477W        W77706   1.768  20.216  11.486
 9478W        W77707  33.137   0.784   0.314
 9479W        W77708  14.569  24.077   3.143
 9480W        W77709  21.014  41.820   0.420
 9481W        W77710  15.377  25.630   1.811
 9482W        W77711  22.734   8.054   1.848
 9483W        W77712  34.799  16.336   0.241
 9484W        W77713   6.356  37.427  10.644
 9485W        W77714  17.828   9.741   4.757
 9486W        W77715   8.021   7.719   1.353
 9487W        W77716  11.601   9.589  14.299
 9488W        W77717  36.288  13.358  14.479
 9489W        W77718  27.413  22.586   4.583
 9490W        W77719  33.557  40.480   4.770
 9491W        W77720   8.584  19.807  11.118
 9492W        W77721  16.281   3.504   0.875
 9493W        W77722   2.219  20.110  12.444
 9494W        W77723  12.581  29.097  11.510
 9495W        W77724  24.364  41.034   2.396
 9496W        W77725   6.165  14.327  13.634
 9497W        W77726  38.894   0.342  10.914
 9498W        W77727  19.236  22.618   2.693
 9499W        W77728  24.909  42.380   4.138
 9500W        W77729  14.092   7.781   2.207
 9501W        W77730  40.797  40.477  10.909
 9502W        W77731  38.703  36.811   1.668
 9503W        W77732  25.470  19.569   0.279
 9504W        W77733  25.082  15.737  13.491
 9505W        W77734  23.956  36.376  10.632
 9506W        W77735   8.161  11.065   2.195
 9507W        W77736  37.331  26.395   2.319
 9508W        W77737  29.446  17.578  11.102
 9509W        W77738  12.026  23.277  10.231
 9510W        W77739   8.234  36.884   0.301
 9511W        W77740  31.890  44.229   4.162
 9512W        W77741  15.281   7.488   0.518
 9513W        W77742  16.204  30.334   0.802
 9514W        W77743   7.897   6.932  13.387
 9515W        W77744   6.676   4.050  13.474
 9516W        W77745   9.141  42.443  13.061
 9517W        W77746  22.899  37.073   1.317
 9518W        W77747   5.954  10.723  13.835
 9519W        W77748  12.842  33.525  11.892
 9520W        W77749  31.292   8.116  13.060
 9521W        W77750   1.504  19.402  10.494
 9522W        W77751  29.936  25.045   2.218
 9523W        W77752  19.679  38.116  11.403
 9524W        W77753  18.248  39.071   3.068
 9525W        W77754  27.395  25.418  14.479
 9526W        W77755   9.767  34.547   3.757
 9527W        W77756  22.905  22.566  12.882
 9528W        W77757   1.869  41.354   3.659
 9529W        W77758  40.364   4.878   0.011
 9530W        W77759   9.911   3.692  12.373
 9531W        W77760  13.844  42.748  11.193
 9532W        W77761  20.936   4.680   3.852
 9533W        W77762  39.002  15.664   3.990
 9534W        W77763   4.513  25.686  13.026
 9535W        W77764  18.526   3.809  10.912
 9536W        W77765  16.269   7.847  11.929
 9537W        W77766  30.473  25.743   0.711
 9538W        W77767  32.514  11.415   1.997
 9539W        W77768  43.588  40.819  14.991
 9540W        W77769  33.159   4.111   2.718
 9541W        W77770  44.346  22.742   4.562
 9542W        W77771  37.233  37.086  13.804
 9543W        W77772  10.311  26.529  13.449
 9544W        W77773   3.738   3.328   4.970
 9545W        W77774  18.814   1.118   5.260
 9546W        W77775  15.240  16.289  10.745
 9547W        W77776  19.992  16.692  12.407
 9548W        W77777  34.417  22.784  12.952
 9549W        W77778  39.772  17.606   3.643
 9550W        W77779  37.953  36.353   1.831
 9551W        W77780  20.070  23.417  11.955
 9552W        W77781  26.198  41.616  14.900
 9553W        W77782  21.762  32.426  11.607
 9554W        W77783  28.707  26.728   2.669
 9555W        W77784  26.604  41.749  12.438
 9556W        W77785   7.907  39.881  12.441
 9557W        W77786  42.293  31.692  12.145
 9558W        W77787  33.981  17.570  13.775
 9559W        W77788  36.871   5.896  10.772
 9560W        W77789   4.897  38.888  11.526
 9561W        W77790  43.846  13.054   1.725
 9562W        W77791   1.225  12.938   3.793
 9563W        W77792  39.453  36.453   2.235
 9564W        W77793   5.840  11.587   0.919
 9565W        W77794  12.088  28.882   0.854
 9566W        W77795  35.825  20.532   4.519
 9567W        W77796  10.218  29.326  11.122
 9568W        W77797   7.464  10.755  10.603
 9569W        W77798  29.670  10.458  14.373
 9570W        W77799  18.749  38.467   1.228
 9571W        W77800  12.297  15.081   3.724
 9572W        W77801   2.643   5.472  14.249
 9573W        W77802  36.059   8.736   4.436
 9574W        W77803  42.886  36.041   4.222
 9575W        W77804  12.106   7.822  12.158
 9576W        W77805   3.422  32.010  13.052
 9577W        W77806  17.598  41.421  13.463
 9578W        W77807  25.160  19.061  11.654
 9579W        W77808   5.876  20.659   2.302
 9580W        W77809  19.248  15.704  14.257
 9581W        W77810  21.545   4.539  13.912
 9582W        W77811  11.697  20.968   4.544
 9583W        W77812  28.233  32.658  10.716
 9584W        W77813  13.205  20.476  11.210
 9585W        W77814  44.291  44.748   2.440
 9586W        W77815  16.851  18.922  10.217
 9587W        W77816  36.813  42.502  11.973
 9588W        W77817  40.833  15.249   4.160
 9589W        W77818  44.845   6.345  12.373
 9590W        W77819   5.487  22.631  12.040
 9591W        W77820  30.093  24.593  13.176
 9592W        W77821  34.471   0.959  12.900
 9593W        W77822   1.922  42.686   4.069
 9594W        W77823   9.353  41.580  12.188
 9595W        W77824  40.894  19.112   1.233
 9596W        W77825  15.900  32.496  14.393
 9597W        W77826  31.906  39.984  14.901
 9598W        W77827  15.889  41.074  12.599
 9599W        W77828   9.363   2.747  13.289
 9600W        W77829  35.384  23.194   0.740
 9601W        W77830  24.026   2.860  10.767
 9602W        W77831  10.356  12.377   2.793
 9603W        W77832   3.163  31.447   3.079
 9604W        W77833  25.157   1.632  13.478
 9605W        W77834  19.309  15.641  11.578
 9606W        W77835  33.740  25.018  13.315
 9607W        W77836  18.222  35.171   1.597
 9608W        W77837   1.724  12.100   1.793
 9609W        W77838  39.881  18.372  12.139
 9610W        W77839  40.593  15.857  11.235
 9611W        W77840  36.489   7.111   3.200
 9612W        W77841  25.683  24.049   4.408
 9613W        W77842  37.947   4.339   2.854
 9614W        W77843  44.254  28.637  11.694
 9615W        W77844  28.940  43.018   2.591
 9616W        W77845   1.845  17.758   3.637
 9617W        W77846  39.387  34.448   3.531
 9618W        W77847   0.393  25.462   0.984
 9619W        W77848   0.937  25.502   9.881
 9620W        W77849   9.766   9.070  14.392
 9621W        W77850  42.066  23.320  11.485
 9622W        W77851  15.112  29.614  11.043
 9623W        W77852  11.085  30.858   0.441
 9624W        W77853  33.472  22.053   3.438
 9625W        W77854   2.109  14.981  14.829
 9626W        W77855   3.963  34.805   5.087
 9627W        W77856   6.391  26.761   2.832
 9628W        W77857  17.160  25.493  13.957
 9629W        W77858  19.375  25.013  14.961
 9630W        W77859  26.028  11.068   1.549
 9631W        W77860  27.097  17.226   1.092
 9632W        W77861   3.079  28.668   4.679
 9633W        W77862  40.482  41.276   1.531
 9634W        W77863  39.591  19.857   0.249
 9635W        W77864  12.404  16.716   4.129
 9636W        W77865  25.696  37.595  14.962
 9637W        W77866   9.355  11.154  12.573
 9638W        W77867  26.924  12.432   2.108
 9639W        W77868  41.416   2.278   4.078
 9640W        W77869  23.781  26.093   3.791
 9641W        W77870  43.585  15.221  12.404
 9642W        W77871  34.148  15.762   3.166
 9643W        W77872  26.358   4.438  11.464
 9644W        W77873  29.212  15.611   1.869
 9645W        W77874  17.005   8.320   3.251
 9646W        W77875  17.610   4.848  14.568
 9647W        W77876  27.969  31.597   2.726
 9648W        W77877   3.776  23.545  10.347
 9649W        W77878  14.237  35.380   2.759
 9650W        W77879  28.504  34.102  11.441
 9651W        W77880  31.538  12.393  11.001
 9652W        W77881  41.579  12.799  14.257
 9653W        W77882  35.288  30.681  11.775
 9654W        W77883  13.699  41.233   4.079
 9655W        W77884  44.358  26.723  14.351
 9656W        W77885  40.320  25.004  11.236
 9657W        W77886  43.542  14.567  12.110
 9658W        W77887  14.326  27.568  11.190
 9659W        W77888   0.954  33.473  10.317
 9660W        W77889  27.988   2.341   0.588
 9661W        W77890  38.338   3.901  14.383
 9662W        W77891  31.758  35.809  13.143
 9663W        W77892  24.927  12.721  13.018
 9664W        W77893  34.952  39.045  10.222
 9665W        W77894  34.661  16.171   3.790
 9666W        W77895  40.750   7.975  13.941
 9667W        W77896  38.844  13.406  13.501
 9668W        W77897  19.476  24.034   4.889
 9669W        W77898   0.852  36.285  12.065
 9670W        W77899  37.353  38.312  13.146
 9671W        W77900  27.151   5.996  12.814
 9672W        W77901  39.184  37.856  10.581
 9673W        W77902  26.559   9.947  14.406
 9674W        W77903  28.545  12.094   1.662
 9675W        W77904  10.754  18.072  14.724
 9676W        W77905  22.646  36.621   3.356
 9677W        W77906   1.961   4.013  10.479
 9678W        W77907  39.268  31.472   0.651
 9679W        W77908   6.810  41.944   1.752
 9680W        W77909  34.245   1.484  14.485
 9681W        W77910  12.365  17.092  13.556
 9682W        W77911  15.405  28.148  13.184
 9683W        W77912  41.054   8.602  11.889
 9684W        W77913   1.306   8.949   4.648
 9685W        W77914   5.740  13.608   3.164
 9686W        W77915  34.938  14.788  13.354
 9687W        W77916  30.770   4.416   3.793
 9688W        W77917  27.801  13.725  14.058
 9689W        W77918   7.332  44.128   3.174
 9690W        W77919  40.912   3.903   4.618
 9691W        W77920  27.769  24.276  12.425
 9692W        W77921   6.825  29.945   1.782
 9693W        W77922  25.136  24.890  14.998
 9694W        W77923   3.995  22.206   3.819
 9695W        W77924  26.760   5.675   0.790
 9696W        W77925  36.816  28.097   2.817
 9697W        W77926  22.588  37.807   0.355
 9698W        W77927  16.212  35.339  14.491
 9699W        W77928  30.876  37.362   0.710
 9700W        W77929  32.115  24.497   1.399
 9701W        W77930   0.678  17.336  11.893
 9702W        W77931   3.889  34.727   1.257
 9703W        W77932  37.650  26.397  13.563
 9704W        W77933  36.790  36.610  11.127
 9705W        W77934  14.485   7.634   4.506
 9706W        W77935  31.168  31.550   3.225
 9707W        W77936  21.278  11.639  11.042
 9708W        W77937  42.593  39.280  11.043
 9709W        W77938   0.300  16.282   4.771
 9710W        W77939   5.874  28.546   1.752
 9711W        W77940  33.466   2.678   4.097
 9712W        W77941   6.022  33.745   3.708
 9713W        W77942  42.464  15.085  12.922
 9714W        W77943  40.507  29.499  11.448
 9715W        W77944  42.985   8.479  12.493
 9716W        W77945  24.876  37.972  11.162
 9717W        W77946   4.702  18.884   2.812
 9718W        W77947  14.540  26.117   3.864
 9719W        W77948  40.804   5.138   1.800
 9720W        W77949   3.963  24.063  12.164
 9721W        W77950  15.834  31.960   3.265
 9722W        W77951  44.346  38.746   3.690
 9723W        W77952  42.303  33.545  11.573
 9724W        W77953  40.806  22.396  13.321
 9725W        W77954  32.129  36.954   1.781
 9726W        W77955  41.010   2.140  13.318
 9727W        W77956   4.510  19.078  11.888
 9728W        W77957  32.602   4.712  14.798
 9729W        W77958  11.674  27.176   0.263
 9730W        W77959  35.463  34.260   2.135
 9731W        W77960  24.595  38.294   1.221
 9732W        W77961  30.970  39.398  14.127
 9733W        W77962  18.108  36.449  13.332
 9734W        W77963  21.328  26.214   3.201
 9735W        W77964  30.968  15.355  12.648
 9736W        W77965   8.347  42.247  11.330
 9737W        W77966  30.305   1.964   0.960
 9738W        W77967  40.849  33.817   2.728
 9739W        W77968   0.676  30.135   0.952
 9740W        W77969  25.225   4.928   3.094
 9741W        W77970  14.261   3.286  12.337
 9742W        W77971  35.222  30.397   0.380
 9743W        W77972  24.781  19.162  14.263
 9744W        W77973  28.083   8.301   3.238
 9745W        W77974  21.314  39.923  11.133
 9746W        W77975   4.794  38.014   0.688
 9747W        W77976  12.864  13.583  13.225
 9748W        W77977  40.470  42.956   4.523
 9749W        W77978  43.059  38.621  14.947
 9750W        W77979  34.410  22.268   3.344
 9751W        W77980   8.401   4.857   2.896
 9752W        W77981   5.268  37.097   4.976
 9753W        W77982  25.935   3.979   3.759
 9754W        W77983  32.878  43.813   3.725
 9755W        W77984  37.963   5.253   3.826
 9756W        W77985  30.603   0.194  14.340
 9757W        W77986  38.793  43.725   0.824
 9758W        W77987  40.761  15.521  10.666
 9759W        W77988  38.533  38.547  12.633
 9760W        W77989  32.121  44.935  12.578
 9761W        W77990  38.883  15.174   2.228
 9762W        W77991   3.408  40.739  10.825
 9763W        W77992   0.545  13.610   4.111
 9764W        W77993  39.932  17.114  14.390
 9765W        W77994  22.486   4.495   1.659
 9766W        W77995  15.764  30.675  10.725
 9767W        W77996  41.004  35.961  12.025
 9768W        W77997  17.203  20.592   2.880
 9769W        W77998  17.746  25.678  13.356
 9770W        W77999   3.708  20.532   3.770
 9771W        W78000  18.375  17.203  10.614
 9772W        W78001  15.353   1.916   1.968
 9773W        W78002  35.429  20.431   3.190
 9774W        W78003  11.445  17.550  11.916
 9775W        W78004  33.968   7.871   1.119
 9776W        W78005   3.778  37.486  10.586
 9777W        W78006  32.605  43.933   4.595
 9778W        W78007  30.829  33.500   0.046
 9779W        W78008  16.387  17.881   2.610
 9780W        W78009  15.621  23.271  11.147
 9781W        W78010  39.546  26.209   0.980
 9782W        W78011  27.493  39.752   0.984
 9783W        W78012   8.192  13.239  12.403
 9784W        W78013  32.651  37.783   2.805
 9785W        W78014  33.964  21.218   2.183
 9786W        W78015  30.126  27.228  12.956
 9787W        W78016  18.737  38.946   2.806
 9788W        W78017   4.878  31.883   1.432
 9789W        W78018  37.315  38.410   3.538
 9790W        W78019   5.846  10.303  10.776
 9791W        W78020   1.366  24.031   1.784
 9792W        W78021  38.857  42.474   1.513
 9793W        W78022  12.269  15.655   1.826
 9794W        W78023   2.787   5.654   1.333
 9795W        W78024  35.798  13.149  10.603
 9796W        W78025   1.981  17.336  11.589
 9797W        W78026  28.065   5.305  14.958
 9798W        W78027   0.881  40.118   0.036
 9799W        W78028  11.115  38.061  11.002
 9800W        W78029   9.838  29.982  14.918
 9801W        W78030  32.834  16.177  11.000
 9802W        W78031  30.612  21.449   0.266
 9803W        W78032  11.066  25.671  13.361
 9804W        W78033   3.929   1.609   1.378
 9805W        W78034  15.198  41.976  13.498
 9806W        W78035   2.747  27.606   1.821
 9807W        W78036  42.871  26.372   2.990
 9808W        W78037  42.491  29.030   0.426
 9809W        W78038  41.032  37.003   2.168
 9810W        W78039  32.139  24.726   2.768
 9811W        W78040  21.578  44.843  10.415
 9812W        W78041  32.720  43.030   3.224
 9813W        W78042  30.970  13.502  14.505
 9814W        W78043  40.892   5.226  12.997
 9815W        W78044  20.804  35.504   3.395
 9816W        W78045  44.818  42.375  11.840
 9817W        W78046  17.999  20.651  11.564
 9818W        W78047  32.941  28.212   4.251
 9819W        W78048  24.900  40.485  12.871
 9820W        W78049   9.385  32.402   2.347
 9821W        W78050  16.372  12.293   4.125
 9822W        W78051  37.726  18.823   2.122
 9823W        W78052  26.389  43.924  12.014
 9824W        W78053  32.975  28.389  11.439
 9825W        W78054  20.310  35.371  12.915
 9826W        W78055  41.427   7.958  12.870
 9827W        W78056   5.088  34.105   0.059
 9828W        W78057  32.373  26.990   1.418
 9829W        W78058  38.150   9.647  12.525
 9830W        W78059   8.296  11.414  12.445
 9831W        W78060  21.142   7.439   2.732
 9832W        W78061  29.098  27.634  13.072
 9833W        W78062  16.084  31.479   1.274
 9834W        W78063  44.175  27.996   3.540
 9835W        W78064  39.956  23.058  14.245
 9836W        W78065  39.807  11.547  11.593
 9837W        W78066   7.197  27.995   3.514
 9838W        W78067  36.016  12.371   0.470
 9839W        W78068  28.727  11.526  11.870
 9840W        W78069  30.582  27.895  14.434
 9841W        W78070  12.211  37.782   3.842
 9842W        W78071   6.456  36.986   0.860
 9843W        W78072  12.206   7.127   4.947
 9844W        W78073  32.902  16.678   1.716
 9845W        W78074   6.950  35.340   1.368
 9846W        W78075   8.846  21.709   3.638
 9847W        W78076   2.833   9.847   3.323
 9848W        W78077  12.330   8.666   3.244
 9849W        W78078  15.995  29.185   4.630
 9850W        W78079  42.398   4.495  14.278
 9851W        W78080  41.540  24.719   2.677
 9852W        W78081  31.147  23.049  10.758
 9853W        W78082  28.589   4.633   0.397
 9854W        W78083  31.478  20.463  12.470
 9855W        W78084  18.963  31.669  13.889
 9856W        W78085  11.823  35.551   0.776
 9857W        W78086  34.403  37.164  14.184
 9858W        W78087  35.312  39.631  11.026
 9859W        W78088  23.820   8.439  10.640
 9860W        W78089  10.199  19.115   4.207
 9861W        W78090   9.726   9.143  10.930
 9862W        W78091  35.328  21.754  13.222
 9863W        W78092  30.002  31.239  12.381
 9864W        W78093  18.222  14.611   2.281
 9865W        W78094  24.672  43.307   1.803
 9866W        W78095   8.663  13.252   0.117
 9867W        W78096  44.625  22.618   2.464
 9868W        W78097  41.912  28.596   3.112
 9869W        W78098  27.417  20.216  13.493
 9870W        W78099  40.953  43.406   2.598
 9871W        W78100  40.562  33.477  11.952
 9872W        W78101  33.354  25.633   2.809
 9873W        W78102  10.381  19.040   3.082
 9874W        W78103   8.982  24.309  13.303
 9875W        W78104   9.628  16.642   0.768
 9876W        W78105  32.997  13.794  13.060
 9877W        W78106   6.662  31.658  12.927
 9878W        W78107  29.095  27.547   1.747
 9879W        W78108  38.586   6.334   4.683
 9880W        W78109  21.265  43.925  13.774
 9881W        W78110  26.605  26.046  13.303
 9882W        W78111   3.643  20.699   3.009
 9883W        W78112  28.369  34.645   1.774
 9884W        W78113   5.653  37.595   0.767
 9885W        W78114  40.012  33.541  13.092
 9886W        W78115   8.352  17.388  12.598
 9887W        W78116  36.452  44.168   4.558
 9888W        W78117   6.286  21.109   4.660
 9889W        W78118  37.062  33.927   3.492
 9890W        W78119   6.950  21.580  11.699
 9891W        W78120   0.268  29.494  13.836
 9892W        W78121   1.449  20.581  14.526
 9893W        W78122  31.510  11.218   3.735
 9894W        W78123  35.653  27.486   0.293
 9895W        W78124  43.579   0.041  14.338
 9896W        W78125   3.772   3.554  12.326
 9897W        W78126  14.518  36.392  13.584
 9898W        W78127  32.062  11.322   3.217
 9899W        W78128  23.230   6.494  13.068
 9900W        W78129   6.258  16.792   1.723
 9901W        W78130   5.972  14.480   2.704
 9902W        W78131  28.020  39.507   3.412
 9903W        W78132   7.961  22.271  13.397
 9904W        W78133  25.171  10.386   1.949
 9905W        W78134   9.143   4.296  10.960
 9906W        W78135   6.941  32.378  14.008
 9907W        W78136  19.171  12.318   0.445
 9908W        W78137  15.252  28.727  14.524
 9909W        W78138  16.092  25.038   2.307
 9910W        W78139  24.528  25.752   1.895
 9911W        W78140  16.883  38.129   2.758
 9912W        W78141  17.073   0.324  10.290
 9913W        W78142  43.381  11.719   3.764
 9914W        W78143  19.638  14.315  11.912
 9915W        W78144  42.893  26.360  11.761
 9916W        W78145  26.003  21.068   0.064
 9917W        W78146  43.244   3.803  13.973
 9918W        W78147   3.278  22.368   2.410
 9919W        W78148  39.275  16.905  13.820
 9920W        W78149  16.957  10.692  12.489
 9921W        W78150  35.952  10.306  10.889
 9922W        W78151  33.846  27.281   2.734
 9923W        W78152  30.544  13.903  12.055
 9924W        W78153  22.225  38.895  13.242
 9925W        W78154  31.713  29.237  12.052
 9926W        W78155  15.837  16.566   5.487
 9927W        W78156   3.675   1.827  11.922
 9928W        W78157  35.145  43.330  12.151
 9929W        W78158  14.442  43.963  14.409
 9930W        W78159  42.182   8.170  14.845
 9931W        W78160   8.615   4.932  14.421
 9932W        W78161  32.478   9.084   2.846
 9933W        W78162  28.631  33.196  11.212
 9934W        W78163  24.376  24.547  13.587
 9935W        W78164  41.386  37.413   0.866
 9936W        W78165  20.072  30.099  14.558
 9937W        W78166  15.732   0.904   4.933
 9938W        W78167  38.380  20.759   0.894
 9939W        W78168   8.373  24.853   4.083
 9940W        W78169  15.103  13.102   0.644
 9941W        W78170  37.585   9.674   4.598
 9942W        W78171  25.508  13.453   5.056
 9943W        W78172   2.053   8.260   2.751
 9944W        W78173  11.281  44.419   1.516
 9945W        W78174  28.626  20.986   4.664
 9946W        W78175  44.574   7.498  13.551
 9947W        W78176  31.633  13.672  12.819
 9948W        W78177  30.758  31.739   4.478
 9949W        W78178  38.732  44.760  14.953
 9950W        W78179  40.327  14.171   1.778
 9951W        W78180  11.517   1.904   5.051
 9952W        W78181   0.882  41.011  11.438
 9953W        W78182  32.646  29.743   0.894
 9954W        W78183  30.277  12.894  12.858
 9955W        W78184   0.634  19.542  14.571
 9956W        W78185  14.566  23.761   2.716
 9957W        W78186  34.568  29.161   3.300
 9958W        W78187  22.303  26.997   1.054
 9959W        W78188  40.282  33.067   2.630
 9960W        W78189   7.828  25.031   2.844
 9961W        W78190  36.990  40.239  11.435
 9962W        W78191  20.186  15.170  12.181
 9963W        W78192  25.290   8.391  12.516
 9964W        W78193   0.933  11.450   1.670
 9965W        W78194   2.772  43.493   3.619
 9966W        W78195   5.232   1.273   0.129
 9967W        W78196  26.427  27.135   4.088
 9968W        W78197  42.267   2.844   3.822
 9969W        W78198  17.110  19.994   1.286
 9970W        W78199  23.940  31.675  14.507
 9971W        W78200  43.923  10.982  13.801
 9972W        W78201  21.848  31.978  10.736
 9973W        W78202   6.884  44.685  13.962
 9974W        W78203  34.982  31.896  12.008
 9975W        W78204   7.667  39.487   3.721
 9976W        W78205  33.335  18.230   0.983
 9977W        W78206  43.958  30.670   0.950
 9978W        W78207  34.642   5.755   0.428
 9979W        W78208   5.172   5.489  10.835
 9980W        W78209  16.009   5.067  13.439
 9981W        W78210  40.648  31.007   9.881
 9982W        W78211   4.933   4.199  12.416
 9983W        W78212  36.406  34.648   3.114
 9984W        W78213  41.215   5.465   1.812
 9985W        W78214  40.844  42.335  13.517
 9986W        W78215  32.351   0.140  10.663
 9987W        W78216  13.564   1.540   2.303
 9988W        W78217  17.021   4.944  11.808
 9989W        W78218  14.227  25.943  12.741
 9990W        W78219  31.662  34.594  11.150
 9991W        W78220   3.406  23.868   1.411
 9992W        W78221  38.965  39.117  11.951
 9993W        W78222  28.523  42.351   2.951
 9994W        W78223   8.652  18.244  13.003
 9995W        W78224  27.863   3.464   5.044
 9996W        W78225  10.233  32.562   4.531
 9997W        W78226  31.349  36.552  13.977
 9998W        W78227  42.830  43.990  14.992
 9999W        W78228  36.632  27.537   4.337
10000W        W78229  27.410   3.362   1.202
10001W        W78230  15.649  21.276   0.683
10002W        W78231   2.730  34.291   4.040
10003W        W78232   7.770  23.338  13.404
10004W        W78233   8.179   9.219  12.529
10005W        W78234   9.079  16.854  12.598
10006W        W78235  26.029  34.964  11.190
10007W        W78236  25.126   3.870  13.149
10008W        W78237  26.211  43.942   4.079
10009W        W78238  23.520  32.195  14.816
10010W        W78239   3.775  15.103   1.694
10011W        W78240  42.743  37.038  13.038
10012W        W78241  21.615  16.789  11.867
10013W        W78242  28.981  44.875   3.245
10014W        W78243  21.216  38.029   4.626
10015W        W78244   4.900  26.234   3.142
10016W        W78245  19.175   3.284  11.919
10017W        W78246  19.677  26.581  13.120
10018W        W78247  10.161  40.426  14.532
10019W        W78248  37.552  22.953  10.711
10020W        W78249   6.425   7.959  12.619
10021W        W78250   9.144  30.049  14.418
10022W        W78251  13.138  35.868  12.552
10023W        W78252   1.036  16.383  12.087
10024W        W78253  29.914  16.408   0.372
10025W        W78254   7.806  21.765   4.556
10026W        W78255   0.363  29.436  12.995
10027W        W78256  24.551  42.251   0.369
10028W        W78257  27.681  15.562  11.568
10029W        W78258  21.593  37.400  14.866
10030W        W78259  36.514  26.220   1.702
10031W        W78260  38.001   3.155   4.145
10032W        W78261  29.062  25.476   4.928
10033W        W78262  19.348  44.926  12.429
10034W        W78263  15.200  20.285  12.018
10035W        W78264  34.630  31.503   2.735
10036W        W78265  44.838  27.133  11.800
10037W        W78266  42.230  37.906  14.929
10038W        W78267  30.293  38.217   0.273
10039W        W78268  14.063   8.348  14.445
10040W        W78269  42.597  36.476  10.777
10041W        W78270  39.109   9.229  14.514
10042W        W78271  39.077  32.070   1.265
10043W        W78272   8.740  21.394   0.359
10044W        W78273  41.471  31.520  12.441
10045W        W78274  44.788  37.301  12.995
10046W        W78275   2.440   4.870   3.800
10047W        W78276  44.187  33.661   3.807
10048W        W78277   7.507  22.152  11.461
10049W        W78278  19.286  42.093  13.936
10050W        W78279  20.947   0.851  12.764
10051W        W78280  28.448  31.045  11.124
10052W        W78281  17.813  10.542  12.866
10053W        W78282  42.951  33.847   1.936
10054W        W78283  17.782  44.956   3.159
10055W        W78284   7.750  21.332  14.101
10056W        W78285  42.242  42.835  13.056
10057W        W78286  22.572  17.128  10.010
10058W        W78287  36.591  25.974  10.464
10059W        W78288  22.668  10.897   2.759
10060W        W78289  25.305  43.029   3.198
10061W        W78290  23.313  28.908  13.478
10062W        W78291  17.321   4.767  12.736
10063W        W78292  33.034   4.490   1.807
10064W        W78293  17.288  16.868   0.420
10065W        W78294  10.750  12.000  12.917
10066W        W78295   9.353   2.444   1.104
10067W        W78296   8.291  40.500   4.640
10068W        W78297  21.691   5.853   3.714
10069W        W78298  14.866  18.255  11.957
10070W        W78299   1.224   0.029   2.809
10071W        W78300  27.979  29.750  14.044
10072W        W78301  17.604  10.284  11.203
10073W        W78302  38.899  18.209  13.012
10074W        W78303   8.285  41.837  12.982
10075W        W78304  35.988  16.116  13.854
10076W        W78305  19.292  33.588   2.404
10077W        W78306   8.194  38.012  10.602
10078W        W78307  14.873   6.676   3.661
10079W        W78308  37.939  24.150   0.700
10080W        W78309   4.339   6.953   2.804
10081W        W78310  31.543  40.395  10.617
10082W        W78311  36.931  21.507  14.331
10083W        W78312  31.430  16.726  12.500
10084W        W78313  44.896  21.637   2.855
10085W        W78314   4.722  28.674   2.096
10086W        W78315   2.874  16.156  13.349
10087W        W78316  24.828  39.762   0.996
10088W        W78317  41.080  40.833  10.617
10089W        W78318  19.195  35.114  10.364
10090W        W78319  10.663  42.368  12.462
10091W        W78320  32.323  22.251   2.475
10092W        W78321   4.467  22.229   4.573
10093W        W78322  20.679  29.070   2.974
10094W        W78323  19.821  27.405  14.841
10095W        W78324  27.404  41.477   3.637
10096W        W78325  16.173  23.892   3.789
10097W        W78326  21.613  23.702  12.393
10098W        W78327  12.963  32.121   3.806
10099W        W78328   7.716  35.677   1.788
10100W        W78329   2.027  22.885   4.524
10101W        W78330  44.871  32.809   1.245
10102W        W78331   4.919  39.029  14.372
10103W        W78332  39.034  31.069  11.597
10104W        W78333  20.977  14.103  11.758
10105W        W78334  28.663  31.412   3.176
10106W        W78335  10.444  12.530   0.280
10107W        W78336   6.831  39.551   1.388
10108W        W78337  15.896   6.392  12.589
10109W        W78338   9.767  25.743  11.886
10110W        W78339  22.824  41.704   0.374
10111W        W78340  21.001  26.131   4.624
10112W        W78341  39.523  28.928   5.027
10113W        W78342  41.374  21.970  13.866
10114W        W78343  19.390  31.464   1.540
10115W        W78344  42.299   3.821   4.623
10116W        W78345  26.064  20.216  11.624
10117W        W78346  28.394  34.534   3.575
10118W        W78347  40.371  39.800  14.088
10119W        W78348   9.910  15.953  13.966
10120W        W78349  13.619  19.056   1.813
10121W        W78350  41.798   1.678  12.494
10122W        W78351  14.695  40.894   3.852
10123W        W78352  21.251  34.577  11.998
10124W        W78353   7.168   1.060   2.285
10125W        W78354  41.325  22.649   0.341
10126W        W78355   8.073   5.942  13.489
10127W        W78356   8.521  36.799   2.870
10128W        W78357  20.369  11.230  13.196
10129W        W78358  10.146   7.312   2.227
10130W        W78359  33.141  15.757  11.067
10131W        W78360  21.686  30.616   3.625
10132W        W78361  31.391  17.243   3.591
10133W        W78362  11.538  34.382  14.008
10134W        W78363   7.002  29.515  12.560
10135W        W78364  35.361  12.770   0.757
10136W        W78365   0.349  24.267  11.177
10137W        W78366  31.420  16.076  13.143
10138W        W78367   2.135  33.172  11.408
10139W        W78368  25.462  36.032   4.716
10140W        W78369   8.868  38.059   0.941
10141W        W78370  31.433  10.602   4.154
10142W        W78371  27.419  21.168  14.882
10143W        W78372  37.307  29.443   2.465
10144W        W78373   6.413   3.178  10.649
10145W        W78374   4.993  35.365  13.490
10146W        W78375  27.725  10.617  11.729
10147W        W78376   5.388  32.410   0.471
10148W        W78377   5.692  14.832   0.930
10149W        W78378   7.563  30.106  13.159
10150W        W78379  38.534  43.339  14.082
10151W        W78380  10.807  28.450   0.593
10152W        W78381  10.305  28.887  10.147
10153W        W78382  39.527  40.804   3.411
10154W        W78383  18.831  39.357  12.437
10155W        W78384  10.220  35.434  14.429
10156W        W78385  12.694   9.662  10.665
10157W        W78386  19.750  18.954   4.196
10158W        W78387  21.297  30.511   3.209
10159W        W78388   1.439  21.823  11.529
10160W        W78389  27.656   8.235  11.490
10161W        W78390   6.809  24.786  13.463
10162W        W78391  43.480  27.774   0.754
10163W        W78392   5.983   6.827   1.781
10164W        W78393  41.928  40.094   4.370
10165W        W78394   1.266  15.347   3.365
10166W        W78395  38.818  28.564  11.190
10167W        W78396  29.010   2.084  12.311
10168W        W78397  18.805  27.569  11.951
10169W        W78398   9.419  27.915   0.848
10170W        W78399  28.470  36.070  13.308
10171W        W78400   4.755  36.430   3.672
10172W        W78401  15.782  21.462  14.503
10173W        W78402  39.368  29.997  13.003
10174W        W78403  27.961   8.270  10.482
10175W        W78404  37.115  13.668  10.552
10176W        W78405  35.797  12.249   0.960
10177W        W78406  32.177   2.506  12.244
10178W        W78407  21.577  41.087   2.191
10179W        W78408   3.157  14.229  13.850
10180W        W78409   5.647   5.310   0.208
10181W        W78410  39.029  15.263  13.983
10182W        W78411   8.958  15.682  13.167
10183W        W78412  10.764  44.810   1.279
10184W        W78413  34.390  15.097   2.228
10185W        W78414  29.139   9.894  12.154
10186W        W78415  40.733  37.573   1.214
10187W        W78416  25.596  15.633  10.215
10188W        W78417  39.534  37.549   2.029
10189W        W78418  18.060  39.019  12.469
10190W        W78419  43.010  10.318   3.133
10191W        W78420  12.315  20.668  11.553
10192W        W78421  34.069  23.021   2.123
10193W        W78422  37.119   8.256  11.931
10194W        W78423  21.675  19.581   4.645
10195W        W78424   0.450   7.313   1.382
10196W        W78425  13.160  42.523   4.246
10197W        W78426   8.396  31.973  11.396
10198W        W78427  32.004  44.561  11.550
10199W        W78428  38.357  27.613  12.532
10200W        W78429  33.417  35.427  13.825
10201W        W78430  31.641  29.763  12.171
10202W        W78431   1.047  40.642   2.285
10203W        W78432  25.715   3.850   1.889
10204W        W78433  22.977  20.744   0.415
10205W        W78434  25.848  24.269  12.417
10206W        W78435  36.500  22.140   2.211
10207W        W78436   2.419   5.740  11.150
10208W        W78437   4.394  14.202  11.683
10209W        W78438  39.445  24.787   4.106
10210W        W78439  35.414  17.650   1.602
10211W        W78440  15.122  42.504  13.451
10212W        W78441  31.361  29.537   3.516
10213W        W78442  38.115   7.850   0.009
10214W        W78443  42.172  16.699   2.676
10215W        W78444  27.702   0.028  12.570
10216W        W78445  33.590  14.608   4.044
10217W        W78446  34.469   4.081   4.194
10218W        W78447  27.435  17.058   4.087
10219W        W78448  37.897  21.054   0.187
10220W        W78449  14.037  36.981  14.342
10221W        W78450   4.174  16.581   4.536
10222W        W78451  19.835  36.071  11.092
10223W        W78452   5.209  41.601  11.562
10224W        W78453   8.550  20.246  11.886
10225W        W78454  30.377  36.263   4.027
10226W        W78455  43.855  21.573  12.885
10227W        W78456  38.778  17.036   2.197
10228W        W78457  39.877  30.907   1.138
10229W        W78458  25.796  20.278  12.069
10230W        W78459   7.435   1.230   1.719
10231W        W78460  37.332  31.107  11.590
10232W        W78461  12.116  25.527  13.308
10233W        W78462  37.993  23.139  12.836
10234W        W78463  43.016  32.669  14.353
10235W        W78464  24.300   8.882  14.985
10236W        W78465   0.520  26.178  11.274
10237W        W78466  29.954  17.141  12.608
10238W        W78467  29.238  35.889  11.167
10239W        W78468  20.608  23.367  12.635
10240W        W78469   5.972  41.820  11.906
10241W        W78470  29.955  16.461   3.092
10242W        W78471  39.096   8.367   9.914
10243W        W78472  26.739   7.220   3.694
10244W        W78473  34.275  44.601  11.191
10245W        W78474  20.286   9.271  12.034
10246W        W78475  38.962  15.930   1.904
10247W        W78476  12.294  22.170   3.679
10248W        W78477   4.006  34.322   0.241
10249W        W78478  12.990  27.064  13.109
10250W        W78479  37.430  19.079  14.881
10251W        W78480  36.053  14.764  14.276
10252W        W78481  20.827   3.956  11.106
10253W        W78482   8.987  22.655  13.331
10254W        W78483   1.021  44.342  13.786
10255W        W78484  30.176   2.242   0.259
10256W        W78485   3.957  20.933  14.434
10257W        W78486   9.104  36.868   0.230
10258W        W78487  30.897  26.972   0.233
10259W        W78488  12.159   6.849  13.366
10260W        W78489  10.113  20.776   1.920
10261W        W78490  30.512  22.150  11.525
10262W        W78491  27.568   6.204   1.208
10263W        W78492  15.137  14.224  11.966
10264W        W78493   1.693   9.810   2.618
10265W        W78494   0.786  29.570  13.877
10266W        W78495  27.429  18.593   0.625
10267W        W78496   7.287   1.390  13.886
10268W        W78497  15.261  29.449  10.583
10269W        W78498  17.611   1.270  14.572
10270W        W78499  38.662   2.901  14.275
10271W        W78500  30.009  32.656   0.038
10272W        W78501   2.636  23.708  13.711
10273W        W78502  25.111  36.907   4.610
10274W        W78503  22.891   8.949   4.675
10275W        W78504  39.382  16.065   3.161
10276W        W78505  43.535  35.603  11.659
10277W        W78506   7.557  17.724  12.578
10278W        W78507  40.364   6.103   0.812
10279W        W78508  22.565  33.881   4.044
10280W        W78509  32.079  29.033   1.391
10281W        W78510  26.427  25.680   0.368
10282W        W78511  23.920  28.031  14.271
10283W        W78512  22.992  36.157   0.004
10284W        W78513  36.515  37.480  12.140
10285W        W78514  37.753   4.275   1.768
10286W        W78515  41.570  42.498  10.422
10287W        W78516   0.642  25.989  14.339
10288W        W78517  31.628  25.462  12.090
10289W        W78518  43.276  41.070  11.618
10290W        W78519  42.460   7.167  12.483
10291W        W78520   1.859  37.085  14.807
10292W        W78521  33.413  20.813   3.813
10293W        W78522  25.040  43.883   4.983
10294W        W78523   3.790  13.691   2.436
10295W        W78524  12.544  21.266  13.144
10296W        W78525  10.368   8.659  14.162
10297W        W78526  21.758  29.013  11.836
10298W        W78527  33.403  15.392   2.208
10299W        W78528   2.987  24.706  11.351
10300W        W78529  39.156  38.387   4.562
10301W        W78530  39.532  22.195  11.925
10302W        W78531  33.487  28.222   1.762
10303W        W78532  34.121  23.087   0.418
10304W        W78533  24.389   7.823   0.287
10305W        W78534  35.049   7.282   2.929
10306W        W78535  23.948  26.111  14.040
10307W        W78536  41.880  36.533   1.684
10308W        W78537   2.802  26.681   2.269
10309W        W78538  12.232  17.113  12.168
10310W        W78539  44.804   3.529  11.170
10311W        W78540  19.107  30.442  14.412
10312W        W78541   5.776  33.330  10.173
10313W        W78542  41.991   0.301  14.080
10314W        W78543  15.199  41.378   1.157
10315W        W78544  25.927   6.238  11.629
10316W        W78545  35.954  19.387   1.994
10317W        W78546  35.046  12.723   0.351
10318W        W78547  37.000  15.994  12.819
10319W        W78548  26.166  39.110  13.405
10320W        W78549   7.511  23.917  13.487
10321W        W78550  18.236   9.654  12.847
10322W        W78551   8.714  22.301  14.843
10323W        W78552   4.761  25.714  13.488
10324W        W78553   0.783  32.251   1.980
10325W        W78554  36.437  33.450  14.335
10326W        W78555  36.461   9.643   1.022
10327W        W78556   8.165  36.452   1.544
10328W        W78557  34.190  28.914  12.451
10329W        W78558  20.490   4.011  13.932
10330W        W78559  19.055  17.340  14.228
10331W        W78560  10.255  37.997   3.278
10332W        W78561  25.472  43.529   3.233
10333W        W78562  21.649  10.689   2.829
10334W        W78563  10.335  38.655   9.966
10335W        W78564  11.641  28.362   0.071
10336W        W78565  35.866  41.385  10.770
10337W        W78566  20.608  39.296  11.087
10338W        W78567   3.798  44.284  14.883
10339W        W78568  14.128  36.944  12.551
10340W        W78569  43.590  44.328  10.836
10341W        W78570  20.243  16.525  11.977
10342W        W78571  41.975   8.975  14.057
10343W        W78572  39.977  17.395   2.764
10344W        W78573  41.256  22.848  14.879
10345W        W78574   4.655  42.965   2.378
10346W        W78575   6.612  43.894   4.310
10347W        W78576  39.409  24.004   4.598
10348W        W78577   4.339  15.921  13.759
10349W        W78578  43.607  11.251  10.817
10350W        W78579  10.670   6.202  14.861
10351W        W78580  35.767  29.956  10.241
10352W        W78581   3.903  25.693   3.824
10353W        W78582   8.580  34.359   2.867
10354W        W78583  24.214  24.544   2.824
10355W        W78584  21.170  26.771   4.062
10356W        W78585  28.352   1.684  12.594
10357W        W78586  32.277  18.040   4.179
10358W        W78587  19.279   2.362  14.492
10359W        W78588   8.444  14.782   0.183
10360W        W78589  33.392  35.154  12.487
10361W        W78590  11.967  21.192   2.600
10362W        W78591  25.044  30.880  14.943
10363W        W78592  40.647  18.655  12.081
10364W        W78593  34.557  33.426  11.544
10365W        W78594  41.461  30.523   9.805
10366W        W78595  39.920  40.994   1.937
10367W        W78596  21.786  16.019   1.327
10368W        W78597  10.354  43.885  10.688
10369W        W78598  39.411  22.070  12.429
10370W        W78599  40.479   2.237  13.379
10371W        W78600   4.596  18.679   4.212
10372W        W78601  43.780  16.080  11.586
10373W        W78602  13.173  37.965  11.656
10374W        W78603   4.713  25.127   0.477
10375W        W78604   1.784  16.729   3.768
10376W        W78605   2.711  33.516   1.857
10377W        W78606  19.566  24.467  14.065
10378W        W78607  17.575  39.676  11.843
10379W        W78608  12.094  35.793   2.981
10380W        W78609  36.073  44.114   1.348
10381W        W78610  10.085  34.288  11.818
10382W        W78611  15.730   2.717   4.363
10383W        W78612  20.592   0.361  13.426
10384W        W78613  17.798  17.273  11.481
10385W        W78614   5.232  24.637  14.839
10386W        W78615  23.717   9.904   1.420
10387W        W78616  19.785  43.572   3.265
10388W        W78617  28.718  31.976  14.913
10389W        W78618   3.891  36.317  12.610
10390W        W78619  34.363   5.746  14.871
10391W        W78620   1.705  44.275  10.290
10392W        W78621  21.543  13.409  13.522
10393W        W78622  28.586  32.908  12.153
10394W        W78623  18.865   1.473   3.275
10395W        W78624  39.390  38.804   3.212
10396W        W78625  11.718  28.533  13.146
10397W        W78626  19.973  40.340  12.611
10398W        W78627  32.124  28.465   0.691
10399W        W78628  44.665  32.956   3.205
10400W        W78629  15.204  24.458  13.025
10401W        W78630  27.615  11.909   1.545
10402W        W78631  15.790  35.863  11.112
10403W        W78632   6.786  11.259  14.122
10404W        W78633  40.896   7.964   0.037
10405W        W78634  41.443  43.265   1.296
10406W        W78635  22.153   0.303   3.253
10407W        W78636   2.458  40.383   0.661
10408W        W78637  14.756   8.310   3.361
10409W        W78638   8.738  16.757   0.025
10410W        W78639  20.691  14.574  13.386
10411W        W78640  13.656  21.082   4.255
10412W        W78641   7.948   7.927   4.695
10413W        W78642  23.752  27.631   4.006
10414W        W78643   4.328  22.062   1.598
10415W        W78644  25.081   8.256  13.531
10416W        W78645  35.352  32.614   1.339
10417W        W78646  20.927  18.095  14.938
10418W        W78647  27.121  22.229   0.254
10419W        W78648  22.583  35.133   5.012
10420W        W78649   4.838   1.868   0.018
10421W        W78650  16.189  29.587   4.989
10422W        W78651  19.500  42.002   1.227
10423W        W78652  40.907   0.938   4.407
10424W        W78653  31.632   2.961   1.825
10425W        W78654  17.321  20.230   5.064
10426W        W78655  17.800  20.125   0.909
10427W        W78656   6.269  28.610  11.571
10428W        W78657  44.268   5.171  12.141
10429W        W78658  16.508  29.861  14.673
10430W        W78659  19.114   7.103  11.425
10431W        W78660  43.134   1.833  14.024
10432W        W78661   5.432  37.586   2.798
10433W        W78662  25.292  40.323   2.779
10434W        W78663  10.851  13.700  12.138
10435W        W78664  34.898  43.377  14.839
10436W        W78665  36.469   3.816   1.936
10437W        W78666  30.978  42.283   1.872
10438W        W78667  35.663   0.239  13.909
10439W        W78668  25.617  35.444  12.837
10440W        W78669  28.926   2.690  13.464
10441W        W78670   2.295  40.965   4.662
10442W        W78671  40.397  13.775  11.485
10443W        W78672  25.023  18.024  14.452
10444W        W78673  27.107  42.215   0.260
10445W        W78674  28.764  42.676   2.226
10446W        W78675  27.518  29.205   2.039
10447W        W78676  23.051  15.167  13.412
10448W        W78677  31.288  17.142  11.620
10449W        W78678  25.990  25.455   0.202
10450W        W78679  24.594  35.787   2.814
10451W        W78680  27.489  18.568   3.031
10452W        W78681  42.465  12.330   4.698
10453W        W78682  35.044  17.348   4.661
10454W        W78683   0.560  16.173  11.972
10455W        W78684  43.856  34.371   2.344
10456W        W78685   4.676   6.898  14.730
10457W        W78686   9.644   4.666  12.404
10458W        W78687  11.873  21.061  11.563
10459W        W78688   1.315  33.962   0.538
10460W        W78689  41.262   9.041   3.640
10461W        W78690  36.033  41.992  14.989
10462W        W78691  18.990   8.265   0.410
10463W        W78692  29.717  13.264  12.010
10464W        W78693  40.446  30.485  13.963
10465W        W78694  10.664   9.341   2.872
10466W        W78695   4.695  25.956  11.942
10467W        W78696   3.607  34.913  13.941
10468W        W78697  39.578   7.658  12.682
10469W        W78698  26.597  35.317  13.246
10470W        W78699  30.671  39.143  13.145
10471W        W78700  33.424  14.746   3.045
10472W        W78701   9.492  30.557   4.072
10473W        W78702  39.429   0.443  13.421
10474W        W78703  32.041   5.458  12.519
10475W        W78704  19.131  32.017  11.070
10476W        W78705  24.701  19.562  13.919
10477W        W78706  12.090  32.551   0.269
10478W        W78707   0.818  18.441   4.684
10479W        W78708  28.362  29.907   0.314
10480W        W78709  17.714  36.379  12.978
10481W        W78710   4.765   5.377   2.862
10482W        W78711  33.497  24.757   0.868
10483W        W78712  16.264   2.666  10.730
10484W        W78713   1.061  43.358   0.298
10485W        W78714  16.539  37.056   1.720
10486W        W78715  35.956   9.302   3.165
10487W        W78716  39.635  42.376   2.621
10488W        W78717  34.203  40.377   1.365
10489W        W78718  14.630  38.675  12.166
10490W        W78719  37.117  20.420  13.448
10491W        W78720  25.625  15.350  11.028
10492W        W78721  16.182  27.918   3.829
10493W        W78722   0.089  43.458   1.192
10494W        W78723  42.080  36.343  13.046
10495W        W78724   2.461  32.361   4.453
10496W        W78725  44.851  12.240   4.100
10497W        W78726  34.549  20.659  10.749
10498W        W78727  22.737  17.924   3.648
10499W        W78728  40.995  19.297   4.516
10500W        W78729  29.328  16.169   0.985
10501W        W78730  25.058  12.388   4.085
10502W        W78731  12.640  15.273   4.118
10503W        W78732  15.347  30.582   0.301
10504W        W78733   3.523  29.102   2.172
10505W        W78734  10.711   0.801   2.314
10506W        W78735  27.260  37.033   4.158
10507W        W78736  31.742  35.821  14.948
10508W        W78737  10.943  23.042  13.935
10509W        W78738   9.838  10.577  14.288
10510W        W78739  24.141   4.778   0.673
10511W        W78740  36.474  14.889  14.577
10512W        W78741  41.226  36.027  12.859
10513W        W78742  39.124  29.906  12.544
10514W        W78743  15.693  30.097   2.414
10515W        W78744  34.975  28.199  12.503
10516W        W78745   6.357   9.261   3.255
10517W        W78746   8.047  34.567   2.289
10518W        W78747   4.265  30.686   1.685
10519W        W78748  25.883   8.199   0.714
10520W        W78749  24.721  15.652  11.173
10521W        W78750  43.054  13.277   3.107
10522W        W78751  17.222  21.745   1.123
10523W        W78752  19.421  26.548  10.572
10524W        W78753   5.702   3.783   4.793
10525W        W78754   1.220  24.222  11.778
10526W        W78755   9.375  24.747   0.837
10527W        W78756  21.272  34.853   2.838
10528W        W78757  24.022  36.877  11.475
10529W        W78758  34.328  21.034  14.775
10530W        W78759  12.695  31.385   4.260
10531W        W78760  41.798   5.816   2.327
10532W        W78761  28.913  13.369   1.781
10533W        W78762  26.124  40.867  13.351
10534W        W78763  34.165  20.782   2.472
10535W        W78764  29.418   7.615   2.313
10536W        W78765  24.005  34.772  12.084
10537W        W78766  34.345   4.578  14.324
10538W        W78767  10.712  30.473   1.082
10539W        W78768   8.728  15.421  11.074
10540W        W78769   9.606  44.534   1.374
10541W        W78770   1.618  36.115  14.729
10542W        W78771  29.221  32.615   4.337
10543W        W78772  34.065  39.790   4.596
10544W        W78773   9.121  32.529  14.299
10545W        W78774  22.798  16.248  11.482
10546W        W78775   5.760  17.720   4.453
10547W        W78776   3.028  28.910  13.051
10548W        W78777  10.879  25.038   0.859
10549W        W78778  26.048   3.859   0.369
10550W        W78779  30.635  14.603  12.589
10551W        W78780   5.482  22.991  13.842
10552W        W78781  25.925  12.130  11.650
10553W        W78782   5.882  19.327  12.376
10554W        W78783  28.676  44.728   1.353
10555W        W78784   9.666  29.966   3.590
10556W        W78785  14.205  25.215  13.359
10557W        W78786  26.457  43.850   3.595
10558W        W78787   8.292  36.349   2.824
10559W        W78788  16.172  29.044   3.838
10560W        W78789   1.534   9.064   4.172
10561W        W78790  23.594  10.632  10.510
10562W        W78791  25.140   9.827   3.318
10563W        W78792  11.712  43.590   2.680
10564W        W78793  21.062  22.396   2.233
10565W        W78794  24.684  19.472  12.422
10566W        W78795  11.213  41.779  14.451
10567W        W78796  23.186  14.358  11.698
10568W        W78797   5.211   4.936  12.646
10569W        W78798  17.653  30.133  13.398
10570W        W78799  26.151   1.233   1.250
10571W        W78800  18.491  43.502   2.368
10572W        W78801  25.273  19.005  14.247
10573W        W78802  15.149  17.497  11.193
10574W        W78803   1.380  16.177  11.098
10575W        W78804  31.570  25.883  14.282
10576W        W78805   7.637  28.862   1.875
10577W        W78806  26.082  18.946  12.859
10578W        W78807  27.704  21.139  10.810
10579W        W78808  34.207   0.402   4.100
10580W        W78809  35.880  35.913   1.770
10581W        W78810   4.488   5.780   3.238
10582W        W78811  16.180   4.680  14.301
10583W        W78812   4.876  21.570  12.998
10584W        W78813   6.216  26.472   2.227
10585W        W78814  34.164  15.538  11.870
10586W        W78815  27.693  33.486   0.701
10587W        W78816  44.323  33.149  14.255
10588W        W78817  39.926  42.340  13.360
10589W        W78818  33.446  25.194  10.716
10590W        W78819  19.684   5.661   4.532
10591W        W78820  24.577  24.799  12.036
10592W        W78821  31.116   9.341   4.507
10593W        W78822  25.959  40.935   4.985
10594W        W78823  26.055  36.380   3.640
10595W        W78824   5.147  11.838  11.243
10596W        W78825   0.739  10.723  13.402
10597W        W78826   3.576   6.795   1.867
10598W        W78827  42.551  25.904  14.857
10599W        W78828   0.309  12.317   2.912
10600W        W78829   6.397   9.224   4.269
10601W        W78830   9.951   6.819   2.416
10602W        W78831   0.319  11.789   2.386
10603W        W78832  10.935  18.740   3.781
10604W        W78833   1.713  22.215  12.500
10605W        W78834   8.169  18.254  13.859
10606W        W78835  40.281  23.548   2.438
10607W        W78836  24.084  12.265   3.444
10608W        W78837  12.146   2.724   2.874
10609W        W78838  37.105  13.473  14.542
10610W        W78839  21.692  20.653   1.467
10611W        W78840  19.869  15.887   2.463
10612W        W78841  20.582  28.074   2.371
10613W        W78842  17.784   8.444   4.510
10614W        W78843  34.365  34.077   3.818
10615W        W78844  42.055  44.957  11.696
10616W        W78845  29.672  36.422  13.361
10617W        W78846  10.962  21.061   3.217
10618W        W78847  18.083  12.642  14.263
10619W        W78848  17.813  16.813   2.309
10620W        W78849  15.692  35.643  13.176
10621W        W78850  41.089  34.975  12.106
10622W        W78851  27.291  24.910  14.680
10623W        W78852  25.386  41.897  11.881
10624W        W78853  44.713   7.896  11.201
10625W        W78854   1.287  42.743   3.215
10626W        W78855  42.461  17.242  13.123
10627W        W78856  13.359  18.942  13.668
10628W        W78857  37.008  35.577  11.163
10629W        W78858   0.736  21.396   3.870
10630W        W78859  12.279  41.902   4.268
10631W        W78860   8.792   1.261  10.836
10632W        W78861  37.764  18.951   3.324
10633W        W78862  37.559   3.919   0.477
10634W        W78863  37.621  27.175   2.131
10635W        W78864  28.545   4.754   2.891
10636W        W78865  41.495  20.094   4.290
10637W        W78866  39.795  34.459  10.462
10638W        W78867  24.268   8.714   3.657
10639W        W78868   1.527  34.432   4.477
10640W        W78869  35.018  33.150  12.584
10641W        W78870  37.657  21.685   2.158
10642W        W78871  27.262  18.912  14.339
10643W        W78872  37.956  27.909  12.474
10644W        W78873  32.855  25.803   2.759
10645W        W78874  22.601  30.624   0.951
10646W        W78875  38.242   8.098   4.039
10647W        W78876  38.775  13.328   0.500
10648W        W78877   5.944   3.061   3.386
10649W        W78878  28.097  37.884   3.826
10650W        W78879  44.780   0.396  14.690
10651W        W78880   6.662  33.652  11.252
10652W        W78881   2.615   5.417   2.388
10653W        W78882  19.796  34.337   4.547
10654W        W78883  37.038  16.717   2.550
10655W        W78884  44.815  17.316  12.350
10656W        W78885  31.118  11.696   1.211
10657W        W78886   4.993  37.816  12.401
10658W        W78887   6.222  15.743   2.902
10659W        W78888  30.671  19.111   4.946
10660W        W78889  24.605  10.713  11.963
10661W        W78890  25.932   1.060  14.012
10662W        W78891   3.270  11.831  10.824
10663W        W78892  42.919   0.266  12.365
10664W        W78893   5.910  25.064  12.841
10665W        W78894  32.419   8.722  13.948
10666W        W78895   8.335  24.740  14.188
10667W        W78896  14.534  31.527  14.405
10668W        W78897  29.590  16.347   1.406
10669W        W78898  39.668   0.405  11.562
10670W        W78899  34.608  21.785   2.674
10671W        W78900  28.414   6.869  13.090
10672W        W78901  31.103  21.747   3.374
10673W        W78902  31.288   2.848   0.873
10674W        W78903  16.229  18.261  13.284
10675W        W78904  31.168  29.582  13.115
10676W        W78905  41.338  10.633   3.314
10677W        W78906  30.583   5.358  12.374
10678W        W78907  11.035   8.438  14.378
10679W        W78908  38.570  22.523  13.870
10680W        W78909   5.129  37.345   2.459
10681W        W78910  26.440  12.601  11.077
10682W        W78911  30.980   3.037  13.540
10683W        W78912   7.462  22.656   4.558
10684W        W78913  19.591  22.924   0.994
10685W        W78914  13.204  41.792  12.130
10686W        W78915  29.465  35.616  12.131
10687W        W78916  36.499   6.128   4.532
10688W        W78917  19.541   9.444   3.806
10689W        W78918   2.441   9.203   3.132
10690W        W78919  42.857  13.108  12.466
10691W        W78920  35.322  26.457  13.998
10692W        W78921  23.883   4.770  13.779
10693W        W78922  44.168  15.893   3.560
10694W        W78923  41.610  43.989  12.055
10695W        W78924  30.380   8.503   0.545
10696W        W78925  21.089  16.324  10.200
10697W        W78926   9.913  27.632   0.428
10698W        W78927  43.986  32.520   1.228
10699W        W78928  39.017   9.395  12.233
10700W        W78929  42.160  25.179  11.654
10701W        W78930  29.465   2.303  12.537
10702W        W78931  24.687  28.116  13.483
10703W        W78932  31.007  34.012  14.268
10704W        W78933  29.630  32.354   1.466
10705W        W78934  38.083  11.146   3.363
10706W        W78935  30.508  32.169   4.216
10707W        W78936  33.025  10.717   2.420
10708W        W78937  12.925   1.123  12.742
10709W        W78938  36.153  25.076   3.561
10710W        W78939  11.909  32.707  14.809
10711W        W78940   6.792  14.665  13.054
10712W        W78941  32.487  20.547   0.259
10713W        W78942  34.816   1.945   4.565
10714W        W78943  14.111  34.646  13.217
10715W        W78944   9.415  31.635  13.503
10716W        W78945  15.278  24.025  13.961
10717W        W78946  35.332   9.598   3.733
10718W        W78947  13.558   2.244   1.295
10719W        W78948  37.025  27.459   0.750
10720W        W78949   3.723  39.132   2.692
10721W        W78950  24.257  22.240   2.379
10722W        W78951  41.682  23.201   2.326
10723W        W78952  24.321  26.741   1.834
10724W        W78953   5.696  37.874   3.127
10725W        W78954  40.313  19.431  14.883
10726W        W78955  10.127  39.273  12.154
10727W        W78956  34.645  33.849   3.230
10728W        W78957  12.562  18.559  11.235
10729W        W78958   5.891  21.735   4.409
10730W        W78959  44.765   6.713   2.292
10731W        W78960  39.952  36.022  14.905
10732W        W78961  37.690  32.178   3.642
10733W        W78962  14.869  23.188   1.624
10734W        W78963   1.291  18.870  11.292
10735W        W78964  40.432  36.112   5.189
10736W        W78965  12.363   1.524  14.338
10737W        W78966  36.479  42.986   3.741
10738W        W78967  23.413  40.894   3.546
10739W        W78968  18.754   9.917   2.175
10740W        W78969  42.815  23.467   3.734
10741W        W78970   2.260   5.341   0.111
10742W        W78971  43.096  36.215  14.975
10743W        W78972  21.557  22.442  10.420
10744W        W78973  17.703  12.888  14.020
10745W        W78974  24.612  20.457  13.859
10746W        W78975  11.154  34.805   2.730
10747W        W78976  15.725  21.728   2.376
10748W        W78977  24.673  44.568  13.389
10749W        W78978   3.825  43.709  11.601
10750W        W78979   6.116   4.513   2.747
10751W        W78980  32.443  35.357   3.635
10752W        W78981  30.539  10.626  10.965
10753W        W78982  34.989   0.518   4.539
10754W        W78983  20.807   1.823   2.645
10755W        W78984  25.039  11.665   0.252
10756W        W78985  18.843  30.998   5.587
10757W        W78986  43.989  27.210  11.736
10758W        W78987  41.398  21.472  12.388
10759W        W78988  15.608  38.103  10.699
10760W        W78989  34.488   7.524  13.512
10761W        W78990  13.228   3.147   3.830
10762W        W78991  16.049  28.124   0.282
10763W        W78992   1.400  22.543  13.363
10764W        W78993  16.217  38.719   3.134
10765W        W78994  18.653  35.057   1.849
10766W        W78995  25.129   3.280  14.008
10767W        W78996  26.573  36.175   2.974
10768W        W78997  36.800  31.857   2.696
10769W        W78998  40.786   7.885  12.581
10770W        W78999  33.954   3.982   1.952
10771W        W79000  35.551  43.358   1.418
10772W        W79001   7.712  10.357  14.950
10773W        W79002  29.213   8.701  11.882
10774W        W79003  10.374  33.543   2.113
10775W        W79004   1.917  41.868   4.928
10776W        W79005  31.428  30.116   0.285
10777W        W79006  19.245  20.088   2.093
10778W        W79007  31.111  36.119  10.534
10779W        W79008  40.954   7.360  13.547
10780W        W79009  42.532  44.208  14.518
10781W        W79010  20.724  15.337  12.917
10782W        W79011  43.398   8.188  12.550
10783W        W79012  36.014  31.089   0.749
10784W        W79013  28.021  16.839  13.506
10785W        W79014   9.694  30.602   3.584
10786W        W79015   0.951   4.796  10.583
10787W        W79016  39.543  29.142  14.591
10788W        W79017   5.388  17.945   0.370
10789W        W79018  15.732  20.736   3.306
10790W        W79019  14.217   5.979   0.384
10791W        W79020   3.693   8.521   1.933
10792W        W79021  22.643  13.167   2.761
10793W        W79022  27.753  14.216   1.512
10794W        W79023  38.511  11.066   0.986
10795W        W79024   8.646   5.246   1.817
10796W        W79025  10.403   8.375  11.174
10797W        W79026   3.493  30.015  10.610
10798W        W79027  31.730  35.983  12.663
10799W        W79028  38.806  40.048   1.722
10800W        W79029  14.254  25.902   0.064
10801W        W79030  11.879  39.965   0.020
10802W        W79031  40.830   2.749  14.774
10803W        W79032   6.907  15.403  14.314
10804W        W79033  34.090  18.987  14.345
10805W        W79034  10.657  11.790   2.920
10806W        W79035  41.564  35.594   0.372
10807W        W79036   1.726   8.764   1.341
10808W        W79037  26.124  21.170   1.055
10809W        W79038  10.418  41.962   0.135
10810W        W79039   8.236  25.284   2.656
10811W        W79040  39.058   3.769   1.935
10812W        W79041  15.608   7.010  14.401
10813W        W79042  31.598  23.995  13.333
10814W        W79043   0.871  36.358  11.176
10815W        W79044   9.856  20.762  13.472
10816W        W79045  16.825  41.397  14.050
10817W        W79046  18.180  33.823  13.285
10818W        W79047  22.092  26.610   1.628
10819W        W79048   9.854  41.992   2.603
10820W        W79049  16.334  25.831   4.534
10821W        W79050   3.880  18.622  10.463
10822W        W79051   7.358  22.007   0.260
10823W        W79052   0.824   8.852   3.929
10824W        W79053  24.025  41.547  13.229
10825W        W79054  10.055   7.219   0.767
10826W        W79055  13.181  14.112   4.230
10827W        W79056  20.522   5.330  14.532
10828W        W79057  37.642  26.260  14.892
10829W        W79058  42.758  14.812  12.499
10830W        W79059   3.251  32.448   3.779
10831W        W79060   4.562  43.901   4.197
10832W        W79061  11.180  36.655   2.868
10833W        W79062  36.618  39.336   2.530
10834W        W79063  21.710  32.481  10.706
10835W        W79064   1.936  31.299  11.369
10836W        W79065  15.566  35.931  10.295
10837W        W79066  14.997   8.800   1.322
10838W        W79067  39.408  13.010  12.390
10839W        W79068  10.403  21.168   2.310
10840W        W79069  34.281  13.092   1.465
10841W        W79070  32.624   7.166  13.963
10842W        W79071   8.407  36.769  12.274
10843W        W79072  21.956  10.270  11.121
10844W        W79073  35.890   5.831  13.916
10845W        W79074  28.689  12.270  10.932
10846W        W79075   0.884   3.470  11.530
10847W        W79076   2.170   7.851  11.145
10848W        W79077  41.964   9.875  11.619
10849W        W79078   7.327  21.523  12.562
10850W        W79079  40.831  39.580  10.659
10851W        W79080   2.791  41.024   1.735
10852W        W79081   9.415   1.233   1.882
10853W        W79082  40.807  22.534  12.016
10854W        W79083  27.132   2.462  13.370
10855W        W79084   6.186  13.258  14.483
10856W        W79085  13.587  42.099  11.994
10857W        W79086  38.048  12.167   3.832
10858W        W79087  25.271   1.083   2.905
10859W        W79088  15.089  35.500  13.624
10860W        W79089  40.404   1.379   3.160
10861W        W79090  20.540  35.659   0.831
10862W        W79091  19.080   9.940  13.804
10863W        W79092  36.854  18.681   3.652
10864W        W79093   9.750  40.911  10.594
10865W        W79094  17.581  18.575   2.748
10866W        W79095  10.657  42.932   0.666
10867W        W79096  19.620  26.516  12.106
10868W        W79097  31.141  14.431   2.250
10869W        W79098  32.962  33.923   2.804
10870W        W79099   6.369  42.070   4.087
10871W        W79100  16.918  30.159  11.926
10872W        W79101   4.810  39.449   0.202
10873W        W79102   1.316  34.663  10.649
10874W        W79103  44.063  17.191  14.855
10875W        W79104   1.241  22.216   0.370
10876W        W79105  32.989   1.066   4.511
10877W        W79106  27.932  26.482  13.053
10878W        W79107   9.694  13.828   0.725
10879W        W79108   3.391  24.356   4.457
10880W        W79109  18.239  38.888  14.980
10881W        W79110   1.752   3.166   3.578
10882W        W79111  28.680  35.380  12.444
10883W        W79112  20.218   7.639   2.729
10884W        W79113  13.632  31.568   4.362
10885W        W79114  43.872  17.609   0.712
10886W        W79115   8.652  18.549  13.451
10887W        W79116   7.986  39.293  14.451
10888W        W79117  15.688   0.799  13.404
10889W        W79118  20.153  13.324   4.138
10890W        W79119  26.190   8.434  12.469
10891W        W79120  38.150   2.923  14.262
10892W        W79121  23.548   8.053  10.897
10893W        W79122  11.252  13.002   5.482
10894W        W79123   8.658  27.484  14.626
10895W        W79124   5.339   3.011   1.744
10896W        W79125  25.637  42.974   0.316
10897W        W79126  19.748  27.147   0.257
10898W        W79127   5.189   1.321  12.040
10899W        W79128  34.463  29.158  12.024
10900W        W79129   2.956  24.015   3.068
10901W        W79130  10.896  23.238   1.211
10902W        W79131  23.628  11.815   2.512
10903W        W79132   8.123  44.082  14.316
10904W        W79133   9.932  11.805   2.386
10905W        W79134   8.529  14.081  14.370
10906W        W79135  12.239   8.789   1.510
10907W        W79136  26.932   7.759   0.267
10908W        W79137  41.145  24.603   3.637
10909W        W79138  43.546  32.495   0.944
10910W        W79139  30.431  33.031  11.572
10911W        W79140  30.459  32.141   4.731
10912W        W79141  19.568  21.020   2.187
10913W        W79142  37.285  13.138  12.984
10914W        W79143  27.694  33.658   1.188
10915W        W79144  23.553  27.526  13.095
10916W        W79145   9.702  19.087  10.794
10917W        W79146   5.905   2.523  13.049
10918W        W79147  17.642  11.477   2.235
10919W        W79148  43.533   1.216   0.379
10920W        W79149  14.545   5.370   4.664
10921W        W79150  16.275  35.855  14.421
10922W        W79151   4.238  19.742   3.329
10923W        W79152  22.861   4.158   1.829
10924W        W79153   0.521  30.167  14.927
10925W        W79154  10.159   2.035   2.830
10926W        W79155  28.832  35.002   9.668
10927W        W79156  39.563  33.657  14.002
10928W        W79157  29.536  28.485   2.848
10929W        W79158  30.018  26.372  14.916
10930W        W79159  23.963  13.577  12.139
10931W        W79160   4.285  32.963   3.346
10932W        W79161  13.754  37.838  12.932
10933W        W79162  41.831  27.532   1.026
10934W        W79163  12.834  14.611   4.980
10935W        W79164  19.486  31.607   3.942
10936W        W79165  15.809  23.647   0.767
10937W        W79166   7.087  32.463   3.686
10938W        W79167  36.844  15.554   2.198
10939W        W79168  19.532   9.763  13.536
10940W        W79169  38.458  22.054  12.641
10941W        W79170   7.005   6.981   2.224
10942W        W79171  38.554  41.082   0.313
10943W        W79172  34.821  20.198  11.455
10944W        W79173   2.722  37.299   3.706
10945W        W79174  37.196  21.314   4.128
10946W        W79175  28.491  39.030   2.234
10947W        W79176   3.462  19.108   3.618
10948W        W79177   1.932  34.612   5.374
10949W        W79178  13.745  12.086   0.852
10950W        W79179  41.809  19.191   3.266
10951W        W79180  33.770  28.068  10.839
10952W        W79181  42.569  29.096   3.747
10953W        W79182  35.797  17.875  13.455
10954W        W79183  41.704  28.567   0.346
10955W        W79184   2.094  44.879   2.255
10956W        W79185  10.865  30.342   1.978
10957W        W79186   5.816  39.371  13.942
10958W        W79187  19.379  13.395  13.950
10959W        W79188   9.668  28.652  13.825
10960W        W79189  13.014  15.543  12.014
10961W        W79190  41.985   2.938   2.386
10962W        W79191  32.016  19.365  10.228
10963W        W79192   0.429  12.802   2.828
10964W        W79193  18.563  39.533  12.028
10965W        W79194  24.989  15.301  13.172
10966W        W79195  35.068   7.046   1.086
10967W        W79196  33.821  21.069  14.836
10968W        W79197  19.298  33.581  12.010
10969W        W79198  41.838  42.537  12.657
10970W        W79199  35.297   5.864   1.842
10971W        W79200   4.248  31.254  14.505
10972W        W79201  18.248  23.078  13.831
10973W        W79202  43.929  41.766  11.422
10974W        W79203  21.102  24.985   4.541
10975W        W79204  14.906  36.964   4.426
10976W        W79205  16.590  30.507   0.512
10977W        W79206   3.147   7.638  11.992
10978W        W79207   3.335   9.117   2.204
10979W        W79208  22.389  40.759   3.252
10980W        W79209  26.999  35.591  14.528
10981W        W79210   1.710   6.235  14.447
10982W        W79211   0.378  35.890  13.507
10983W        W79212  33.774  26.456  10.498
10984W        W79213  38.972  36.482   5.343
10985W        W79214  41.802  26.539   1.096
10986W        W79215  32.537  20.645  10.189
10987W        W79216  36.290  13.802   0.782
10988W        W79217  23.563  34.123   1.003
10989W        W79218  44.237  13.879   3.808
10990W        W79219  38.495  29.844   4.159
10991W        W79220  19.227   4.947  13.032
10992W        W79221  26.016  42.041   3.631
10993W        W79222  32.839  30.859   0.003
10994W        W79223  19.385  14.198   0.416
10995W        W79224  29.649  16.749  11.088
10996W        W79225  38.381  44.909   3.317
10997W        W79226  23.717  16.019  14.876
10998W        W79227  12.386   5.469  12.193
10999W        W79228  12.829  16.375   2.290
11000W        W79229  23.007  30.192   1.695
11001W        W79230  19.488  44.358  12.486
11002W        W79231  15.485  41.825  13.035
11003W        W79232  22.400  11.360  10.142
11004W        W79233   4.416  24.479  13.468
11005W        W79234  14.161  23.771   4.200
11006W        W79235  44.306  26.192   4.103
11007W        W79236  26.403  38.899   3.117
11008W        W79237   9.876  40.370   3.131
11009W        W79238  21.412  18.517   2.695
11010W        W79239   9.515  41.395   3.153
11011W        W79240  36.481   3.672  10.243
11012W        W79241  39.009  43.300   3.321
11013W        W79242   2.288  42.426  13.516
11014W        W79243  41.331  39.237   3.244
11015W        W79244  26.235  38.834  11.006
11016W        W79245  18.612  17.364  10.170
11017W        W79246  22.468  29.316  14.815
11018W        W79247  19.116  30.847  12.031
11019W        W79248  31.533  42.916   3.512
11020W        W79249  35.425  10.370  11.681
11021W        W79250  17.546  26.865   2.283
11022W        W79251  29.032  44.386   4.242
11023W        W79252  33.346  40.016   2.237
11024W        W79253   5.701  43.774   1.659
11025W        W79254  14.711  16.627  11.440
11026W        W79255  34.228  19.305  11.064
11027W        W79256   1.855  31.390   1.838
11028W        W79257  17.664  42.409   3.629
11029W        W79258  30.044   9.236  13.610
11030W        W79259   3.916  30.356  13.336
11031W        W79260  31.463  25.511   1.598
11032W        W79261   1.034  44.547   9.996
11033W        W79262   4.874  35.217   0.823
11034W        W79263  26.565  13.688  13.521
11035W        W79264  32.712  23.571   2.700
11036W        W79265  11.164  39.443  13.821
11037W        W79266  35.343   3.698   3.848
11038W        W79267  36.685  43.517   2.839
11039W        W79268  29.581  42.059   4.672
11040W        W79269  11.593  15.323   2.173
11041W        W79270   5.858  12.166   3.416
11042W        W79271  32.983  18.647  12.904
11043W        W79272  27.626  20.326   0.795
11044W        W79273  44.908  33.898  11.517
11045W        W79274  16.333  32.835   1.871
11046W        W79275  17.704  42.809   4.368
11047W        W79276  38.655  38.517   4.468
11048W        W79277  15.290  13.905  11.088
11049W        W79278   2.270  41.132  13.901
11050W        W79279  26.067   7.796   4.184
11051W        W79280  26.316  38.082   0.355
11052W        W79281   9.170  19.232  13.897
11053W        W79282  28.586  17.816   4.349
11054W        W79283  42.045   9.327   1.540
11055W        W79284  24.191  13.908  12.456
11056W        W79285  29.965   6.740  14.789
11057W        W79286  31.976  28.297  13.367
11058W        W79287   2.366  12.156   3.102
11059W        W79288   9.127  34.799  11.913
11060W        W79289   1.691  37.943   4.237
11061W        W79290   9.765  29.284  13.433
11062W        W79291  42.537  31.123   0.226
11063W        W79292   5.798  19.868  10.678
11064W        W79293  23.141  32.390  10.686
11065W        W79294   0.866  33.327   0.052
11066W        W79295   4.104   8.753  11.346
11067W        W79296  41.983  32.328  12.910
11068W        W79297  10.686   4.190   3.372
11069W        W79298  34.519  21.274   2.863
11070W        W79299  42.948   2.314  12.797
11071W        W79300   4.984  28.531  14.494
11072W        W79301  16.974   3.930   1.598
11073W        W79302  44.239  28.718  14.393
11074W        W79303  19.478   3.792  12.010
11075W        W79304  21.039  23.943   1.364
11076W        W79305  16.616  30.077  10.637
11077W        W79306  28.863  26.873  13.012
11078W        W79307  19.027  44.420   3.239
11079W        W79308  32.865  25.141   1.352
11080W        W79309   9.624  38.839   1.369
11081W        W79310  16.689   7.749   1.207
11082W        W79311  44.416  38.137  11.134
11083W        W79312   1.780   0.892   0.689
11084W        W79313  20.101  25.243   0.956
11085W        W79314  36.350  31.101  13.783
11086W        W79315   6.882  23.259  10.551
11087W        W79316  36.523  16.111  12.508
11088W        W79317   1.269  27.053  14.729
11089W        W79318  22.787  39.004  12.498
11090W        W79319  30.112  16.248  12.109
11091W        W79320  37.845  13.042   1.179
11092W        W79321  39.298  29.089   1.868
11093W        W79322  16.825  16.699  13.108
11094W        W79323   0.641  44.311   0.982
11095W        W79324  13.811  16.513   9.831
11096W        W79325   5.902  21.214   4.336
11097W        W79326  32.471  34.055   0.532
11098W        W79327  40.412   4.847   1.988
11099W        W79328  15.677  27.046  12.613
11100W        W79329  15.767  16.269  13.314
11101W        W79330  21.340  40.224  12.535
11102W        W79331  12.545   5.926  11.417
11103W        W79332  43.610  39.031   2.022
11104W        W79333  23.783  22.289   2.667
11105W        W79334  30.170  23.787   2.834
11106W        W79335   0.726   7.703   0.476
11107W        W79336  23.695  13.339   1.376
11108W        W79337  41.781  35.456   2.366
11109W        W79338  35.409  23.308   2.366
11110W        W79339  16.809   1.787  10.546
11111W        W79340  32.379  26.211  14.793
11112W        W79341   2.387  22.349  10.490
11113W        W79342  10.805  17.078   2.404
11114W        W79343  20.418  40.487   1.153
11115W        W79344   5.393   8.789   1.849
11116W        W79345  37.922   0.111  11.322
11117W        W79346  23.978  43.928  13.969
11118W        W79347  33.593  36.825   3.700
11119W        W79348  30.948   6.717   4.814
11120W        W79349  24.792   0.912   2.726
11121W        W79350  24.538  33.988  14.008
11122W        W79351   3.968  27.064  11.568
11123W        W79352   1.929  22.494   2.756
11124W        W79353  36.027  43.000   2.168
11125W        W79354  28.666  17.192   9.965
11126W        W79355  42.723  10.319   3.566
11127W        W79356  41.347   7.889   0.285
11128W        W79357  39.873   9.748   4.349
11129W        W79358  26.224   5.992   0.790
11130W        W79359  25.130  36.517  12.189
11131W        W79360  32.440  40.574   3.279
11132W        W79361  12.352  25.304  11.152
11133W        W79362  35.462  38.449  13.279
11134W        W79363  34.499  40.874  13.571
11135W        W79364  21.726  38.920  14.880
11136W        W79365  34.906   5.930   1.276
11137W        W79366  21.856  26.201  13.706
11138W        W79367  36.144  18.571   2.362
11139W        W79368  27.166  15.578  12.572
11140W        W79369  32.518   3.441  13.123
11141W        W79370  20.133  15.194   3.192
11142W        W79371  22.335   7.992  11.089
11143W        W79372  21.160  33.662  12.389
11144W        W79373  29.019  28.520   2.672
11145W        W79374   9.437   3.666  12.544
11146W        W79375  33.942  39.039   2.150
11147W        W79376   3.693  39.793   4.575
11148W        W79377  27.472  15.787   3.669
11149W        W79378  15.656  25.914   3.852
11150W        W79379  40.607  36.782  10.910
11151W        W79380   4.926  44.341   4.117
11152W        W79381  31.214   5.677  12.587
11153W        W79382  17.486   8.894   3.764
11154W        W79383   6.647  17.755  11.104
11155W        W79384  25.032  34.043  14.874
11156W        W79385  18.179   8.815   4.203
11157W        W79386  31.162  14.003  11.356
11158W        W79387   8.697  32.056   5.008
11159W        W79388   2.327  13.698  14.298
11160W        W79389   8.856  11.495  13.568
11161W        W79390  24.971  14.652   1.508
11162W        W79391  27.087  44.271   2.881
11163W        W79392  36.990  23.190  11.317
11164W        W79393  27.104  24.441   2.680
11165W        W79394  40.968  30.735   4.517
11166W        W79395  21.389   2.666  11.414
11167W        W79396  35.329  17.259   0.272
11168W        W79397  13.549  39.387   1.831
11169W        W79398   0.349  36.575   1.225
11170W        W79399  43.516  26.796  10.184
11171W        W79400   1.538  10.749   4.799
11172W        W79401  30.561  34.008   4.800
11173W        W79402  31.377  42.649   0.432
11174W        W79403  19.101  10.703   3.682
11175W        W79404  35.550   9.843   2.470
11176W        W79405  25.095  37.466  14.929
11177W        W79406  10.792  33.028   3.294
11178W        W79407  36.950   9.974  10.189
11179W        W79408  39.547  34.664  12.206
11180W        W79409  42.741  14.344  11.257
11181W        W79410  37.168   3.357  12.910
11182W        W79411  31.619  24.721   1.360
11183W        W79412  37.445   7.095  11.233
11184W        W79413  41.257  10.020   3.340
11185W        W79414   2.651  42.189   4.066
11186W        W79415  36.561  40.829  13.326
11187W        W79416   7.346  44.562   3.661
11188W        W79417  40.378   3.484  12.357
11189W        W79418  32.355   0.332   2.766
11190W        W79419  20.767  32.983   0.432
11191W        W79420  36.142  37.309  12.518
11192W        W79421  42.061  20.007  14.605
11193W        W79422   5.360  36.569   4.964
11194W        W79423  18.590  17.379  13.481
11195W        W79424  42.306  15.501  13.548
11196W        W79425  20.969  32.227   3.588
11197W        W79426  31.138  37.371  14.315
11198W        W79427  10.904   1.050   4.177
11199W        W79428  39.451  21.967   2.198
11200W        W79429  26.969  37.979  13.601
11201W        W79430  39.448   5.735   0.057
11202W        W79431  37.675  11.635  14.955
11203W        W79432  24.954  37.064  13.925
11204W        W79433  20.672  26.795   0.520
11205W        W79434   2.681  17.566   3.309
11206W        W79435  19.637  35.422  12.153
11207W        W79436   5.038  21.555   1.991
11208W        W79437   2.901  24.192   2.225
11209W        W79438   8.668  41.685   1.699
11210W        W79439  34.942  22.700  14.290
11211W        W79440  12.030   4.414  11.159
11212W        W79441  41.819  30.338   2.981
11213W        W79442   6.704  20.388  14.211
11214W        W79443  19.162  27.014  10.817
11215W        W79444  35.860  43.463  13.539
11216W        W79445   9.086  30.327  11.419
11217W        W79446   8.397  18.079  13.426
11218W        W79447  33.138  36.981   1.431
11219W        W79448   4.140  39.539  14.376
11220W        W79449   6.169   1.783   0.803
11221W        W79450  39.724   8.717   3.998
11222W        W79451   2.279  34.449  14.790
11223W        W79452  38.129  24.586   4.229
11224W        W79453   2.021  30.858   0.411
11225W        W79454   6.689  31.139  14.463
11226W        W79455  20.601  42.276  14.906
11227W        W79456   8.583  30.620   0.348
11228W        W79457  12.652  43.827   1.424
11229W        W79458  22.860  23.994   9.915
11230W        W79459  31.579  39.857  10.664
11231W        W79460  24.623  13.161   1.171
11232W        W79461  16.327  15.758  10.229
11233W        W79462  30.873  32.339   1.675
11234W        W79463   3.899  21.667  14.886
11235W        W79464  13.736  41.028  13.830
11236W        W79465  32.591  41.448  13.942
11237W        W79466  27.843  39.116   0.916
11238W        W79467  31.463  21.125  13.480
11239W        W79468   8.747   5.021   3.470
11240W        W79469  40.579   2.869   4.405
11241W        W79470  27.579  33.403   1.910
11242W        W79471  15.355   9.408  11.504
11243W        W79472  44.998  35.890   4.106
11244W        W79473  19.357  26.934   4.687
11245W        W79474  41.407   3.653   0.506
11246W        W79475  33.084  34.545  14.963
11247W        W79476  42.091  33.449   5.305
11248W        W79477  30.670  17.869  12.840
11249W        W79478   6.176   1.196   3.231
11250W        W79479  37.428  43.898   0.482
11251W        W79480  33.785  30.231   4.421
11252W        W79481   9.470  31.091   4.109
11253W        W79482  29.571   4.789   3.277
11254W        W79483   0.228  35.508  13.970
11255W        W79484  25.463   1.897  14.629
11256W        W79485  10.296   6.329   5.407
11257W        W79486  28.582  14.367   1.181
11258W        W79487   7.932  17.639   0.117
11259W        W79488  15.655   4.721   2.675
11260W        W79489   5.176  27.109   0.259
11261W        W79490  23.220  20.159  12.136
11262W        W79491   3.894   7.584  12.201
11263W        W79492  37.096  40.365  13.682
11264W        W79493  21.950   3.200  12.520
11265W        W79494  44.750   5.654  13.155
11266W        W79495  28.714  18.871  12.926
11267W        W79496   3.322  42.186   3.281
11268W        W79497  15.097  43.756  12.536
11269W        W79498   5.491  28.985   3.252
11270W        W79499  18.361  32.961  12.864
11271W        W79500  27.747  32.302  13.685
11272W        W79501  39.945   5.889   2.725
11273W        W79502  29.141  11.290   3.618
11274W        W79503  21.284  37.805   2.172
11275W        W79504   6.246  16.041  10.747
11276W        W79505  24.461   3.479   0.938
11277W        W79506  18.345   3.399   3.153
11278W        W79507  21.223   5.635   1.340
11279W        W79508  43.921  38.945   1.042
11280W        W79509  31.519  35.872  10.734
11281W        W79510  21.746  38.506   2.246
11282W        W79511   9.243   2.467  11.966
11283W        W79512  12.849   6.274   2.709
11284W        W79513  42.249  26.933  13.884
11285W        W79514  13.470  17.637   3.658
11286W        W79515  37.348   6.235   4.941
11287W        W79516   2.364  37.660  10.727
11288W        W79517  19.003   5.066  11.639
11289W        W79518  23.682   1.772  13.867
11290W        W79519  43.742  42.574   1.326
11291W        W79520  22.622  33.641  14.379
11292W        W79521  37.412   9.490   5.470
11293W        W79522  18.566  23.620  12.089
11294W        W79523  43.995  38.857   0.533
11295W        W79524  26.170  12.953   3.138
11296W        W79525  19.280   0.406  14.700
11297W        W79526  24.575   4.803   3.689
11298W        W79527  20.530   0.809  14.504
11299W        W79528  22.695  11.666   2.340
11300W        W79529   0.445  25.466  14.480
11301W        W79530   1.222  44.063  10.148
11302W        W79531  24.267  16.342  10.691
11303W        W79532  15.127  40.886  10.439
11304W        W79533  11.164  13.540   3.666
11305W        W79534   7.850  39.480   0.454
11306W        W79535  16.846  34.976  10.784
11307W        W79536  35.191  13.897  11.592
11308W        W79537  28.779  13.256   3.555
11309W        W79538  12.852  25.485   2.088
11310W        W79539   2.962   4.674  13.465
11311W        W79540   3.476  26.612   4.272
11312W        W79541   6.072  35.135  14.097
11313W        W79542   4.861  41.562   0.745
11314W        W79543  28.762   8.703   2.226
11315W        W79544   3.228  29.957  11.496
11316W        W79545  25.953  17.087   2.187
11317W        W79546  26.773  12.114   1.700
11318W        W79547   4.602  17.639  10.250
11319W        W79548  19.420  18.638   2.256
11320W        W79549  20.407  35.556  14.849
11321W        W79550   2.865  33.672   3.258
11322W        W79551  27.634  43.181   3.315
11323W        W79552   6.338  20.609  12.396
11324W        W79553  13.390   2.339  11.281
11325W        W79554  41.557  11.641   4.193
11326W        W79555  22.315  24.168  12.524
11327W        W79556  23.156  40.065  11.242
11328W        W79557  27.942   6.932   2.404
11329W        W79558  13.319  17.319   0.001
11330W        W79559  10.034  33.609  10.830
11331W        W79560  15.888   9.236   0.402
11332W        W79561  13.297  33.880   0.326
11333W        W79562  25.530  13.781   3.117
11334W        W79563  35.418  41.105   0.923
11335W        W79564  10.987   2.673   3.111
11336W        W79565  22.664  21.556   2.680
11337W        W79566  38.864  42.361   0.038
11338W        W79567   3.834  42.949  11.127
11339W        W79568  19.340  34.027  11.227
11340W        W79569   6.054  33.467   0.614
11341W        W79570  19.898   3.180   4.093
11342W        W79571  17.727  28.678  13.516
11343W        W79572  42.247   0.963   1.297
11344W        W79573  15.730  34.087   2.679
11345W        W79574  31.357  42.486   3.739
11346W        W79575  24.292  23.806   5.169
11347W        W79576  12.177  38.791   3.715
11348W        W79577  29.627   9.693  10.432
11349W        W79578  13.855  33.496  11.630
11350W        W79579  14.300  17.192   0.539
11351W        W79580  23.685  16.778  12.708
11352W        W79581  39.210  11.746  14.282
11353W        W79582  41.591  39.411  11.136
11354W        W79583  40.875  13.603   1.277
11355W        W79584  23.485  41.095  12.630
11356W        W79585  31.835  11.587  11.543
11357W        W79586  19.348  13.282  12.873
11358W        W79587   0.263  44.590   0.734
11359W        W79588  43.336  27.063   4.135
11360W        W79589  16.271   8.163   3.701
11361W        W79590  16.098  23.938  11.153
11362W        W79591  43.470  19.124  10.674
11363W        W79592   5.465   9.314  11.688
11364W        W79593  31.996  27.638  14.790
11365W        W79594  29.194  32.390   1.176
11366W        W79595  40.346  29.468  10.938
11367W        W79596  28.152  22.557  14.142
11368W        W79597  29.634  24.621   1.811
11369W        W79598  31.139  41.851  12.266
11370W        W79599  42.469  30.396   2.009
11371W        W79600  23.916   1.855   5.166
11372W        W79601  18.620  44.486  14.686
11373W        W79602   9.240   5.362  13.845
11374W        W79603  30.941   2.089   3.565
11375W        W79604   7.828  30.062   4.060
11376W        W79605  32.365  15.480   4.529
11377W        W79606  34.503   9.887   0.674
11378W        W79607  12.193  26.132   3.793
11379W        W79608   7.933  42.406   0.232
11380W        W79609  16.387   9.825  12.425
11381W        W79610   1.832   3.801   3.355
11382W        W79611  12.766  20.008   4.452
11383W        W79612  36.549  17.985   2.256
11384W        W79613   0.354  43.368   3.854
11385W        W79614  30.981   4.191   4.799
11386W        W79615  30.451   2.985   4.351
11387W        W79616  11.981  21.688   2.785
11388W        W79617  42.605  36.434   0.288
11389W        W79618  14.561  21.100   4.623
11390W        W79619  14.047  15.070  14.504
11391W        W79620  19.281  38.884  14.364
11392W        W79621  37.633  41.749   1.419
11393W        W79622   7.472  41.546   0.805
11394W        W79623  32.694  14.545   4.561
11395W        W79624  26.539  10.782   0.505
11396W        W79625  36.697  39.564  12.625
11397W        W79626  10.166   4.554   4.923
11398W        W79627  20.737   4.182   1.223
11399W        W79628  28.508  36.087   0.204
11400W        W79629  25.217   7.508   0.553
11401W        W79630  36.015  37.507   0.299
11402W        W79631  23.983  41.270   4.351
11403W        W79632  36.184   5.012  13.943
11404W        W79633  17.784  28.406   2.327
11405W        W79634  18.989   3.746  11.830
11406W        W79635  34.430  37.985  12.962
11407W        W79636  23.571   1.546  12.609
11408W        W79637  17.226   8.260  14.404
11409W        W79638  33.606  32.174  11.442
11410W        W79639  27.019  17.226  10.308
11411W        W79640  28.644  41.037  13.797
11412W        W79641  38.780  13.761  14.776
11413W        W79642  39.446  38.432  14.712
11414W        W79643  14.770  14.899  13.459
11415W        W79644  21.443  42.907  11.769
11416W        W79645  21.509   2.146  12.574
11417W        W79646  19.295  27.905   1.310
11418W        W79647   4.785  42.676  13.895
11419W        W79648  11.921  31.460   2.374
11420W        W79649  41.862  23.316   1.597
11421W        W79650   8.530  20.236  12.425
11422W        W79651  21.695   1.237  11.018
11423W        W79652  20.447  22.514   0.341
11424W        W79653  42.662  38.977   1.753
11425W        W79654  11.139  16.717   2.290
11426W        W79655  20.755  37.144   0.883
11427W        W79656  23.507  31.917  14.381
11428W        W79657   7.297  11.389   1.667
11429W        W79658  36.785  43.102  14.924
11430W        W79659  40.747  35.386  11.926
11431W        W79660  33.767  36.771  13.015
11432W        W79661  29.388  32.119  13.001
11433W        W79662  25.077  25.757   0.527
11434W        W79663  24.121  43.189  12.563
11435W        W79664  33.583  10.985   4.586
11436W        W79665  30.573  22.427  12.541
11437W        W79666   6.439  17.882   2.358
11438W        W79667  28.591  38.327   4.209
11439W        W79668   0.674  10.128   2.719
11440W        W79669  24.955   2.773  14.331
11441W        W79670  12.854  27.059   4.722
11442W        W79671  18.528  33.022   1.305
11443W        W79672  35.865  13.110   4.087
11444W        W79673  32.499  30.164   3.055
11445W        W79674  27.190   5.770   3.208
11446W        W79675  29.675   5.352   2.461
11447W        W79676  21.120  22.548  12.193
11448W        W79677  28.150  24.029  12.699
11449W        W79678  25.518   6.564   3.424
11450W        W79679  41.472   9.838  11.916
11451W        W79680  16.081  42.275   0.336
11452W        W79681  34.054  16.161  10.277
11453W        W79682  16.189  33.856   2.852
11454W        W79683   8.545   1.558  11.629
11455W        W79684  16.723   1.694  13.507
11456W        W79685  30.192  26.934  14.306
11457W        W79686  17.329   7.534   4.209
11458W        W79687  29.580  13.167   4.092
11459W        W79688  30.698   7.771  11.942
11460W        W79689  39.744  34.382   2.259
11461W        W79690  38.827  43.529   2.564
11462W        W79691  44.747  44.217   1.841
11463W        W79692  15.732  44.590   0.037
11464W        W79693  33.341  19.635  10.209
11465W        W79694  37.377   6.940   0.234
11466W        W79695  36.875  11.648   0.299
11467W        W79696  34.068   9.022   3.729
11468W        W79697   9.734  41.682  11.133
11469W        W79698  18.478  25.090   1.008
11470W        W79699  20.477  16.702  13.783
11471W        W79700  38.287   6.331   0.434
11472W        W79701  42.315  36.277  11.997
11473W        W79702  16.080  10.565  13.523
11474W        W79703   9.122  16.388   0.055
11475W        W79704  30.583  28.444  14.282
11476W        W79705  34.251  40.141  14.909
11477W        W79706   7.305   5.772  12.048
11478W        W79707   7.364  20.542  14.447
11479W        W79708   7.313  11.714  11.594
11480W        W79709  36.903  35.662  13.380
11481W        W79710  32.569   8.196   0.895
11482W        W79711  20.175  17.036  12.043
11483W        W79712   5.150  36.538   0.398
11484W        W79713   9.638  39.772   1.356
11485W        W79714  32.131   4.885   2.593
11486W        W79715  38.077  23.577   4.101
11487W        W79716  26.440  31.998   4.563
11488W        W79717  23.181   2.989  13.552
11489W        W79718  33.571   7.469  13.756
11490W        W79719   6.709  41.006   3.197
11491W        W79720  44.989   2.392   0.050
11492W        W79721   3.737  24.059  12.653
11493W        W79722  34.201  12.406   0.316
11494W        W79723  33.883  24.237   4.639
11495W        W79724   5.987  21.072   2.872
11496W        W79725  14.620   9.157  14.822
11497W        W79726  14.224  11.143   3.821
11498W        W79727  18.678  43.136  10.751
11499W        W79728  15.559   2.916   1.837
11500W        W79729   9.487  27.935  13.554
11501W        W79730  15.621  12.076   1.400
11502W        W79731  44.310  23.467  14.946
11503W        W79732   2.511   7.226  14.860
11504W        W79733  16.704  24.648  14.106
11505W        W79734   5.879  17.826  11.591
11506W        W79735  16.709   5.347   0.451
11507W        W79736  33.981  10.721  14.090
11508W        W79737  31.604  30.874  13.932
11509W        W79738   0.306  42.950   3.545
11510W        W79739  20.372  34.713   1.710
11511W        W79740  23.365  28.571   0.290
11512W        W79741  38.707  14.709  10.468
11513W        W79742  21.998  27.827  12.510
11514W        W79743  23.174  11.188   5.083
11515W        W79744   1.258  38.051   1.959
11516W        W79745   7.807  44.907  12.189
11517W        W79746  14.534  15.179  11.280
11518W        W79747   1.149  10.308   2.710
11519W        W79748  24.590  14.077   3.582
11520W        W79749  20.192   6.373   4.708
11521W        W79750  42.434  19.133   0.456
11522W        W79751  13.783  23.358  13.380
11523W        W79752  37.464  37.821  14.052
11524W        W79753  37.667   5.634  13.477
11525W        W79754  20.447  18.743  11.866
11526W        W79755  16.530  35.326   5.037
11527W        W79756  38.157   5.455  13.523
11528W        W79757   8.628   2.121  11.064
11529W        W79758   9.087  26.881  12.346
11530W        W79759  16.487  29.941  14.151
11531W        W79760  31.617  34.603  14.539
11532W        W79761  30.863  14.674  13.059
11533W        W79762   4.796  20.096  14.828
11534W        W79763   4.911  19.177   1.813
11535W        W79764  40.586  33.406  11.017
11536W        W79765  21.361  39.047  11.104
11537W        W79766  33.441  16.736   1.748
11538W        W79767  39.603  43.188   1.271
11539W        W79768   4.328  25.447   4.012
11540W        W79769   2.817  23.185  10.989
11541W        W79770  24.626  41.520  12.098
11542W        W79771  37.927  19.584   4.555
11543W        W79772  16.978  42.490   4.306
11544W        W79773   5.899   1.957  12.079
11545W        W79774  42.667  38.880  10.695
11546W        W79775  33.700  41.784   4.593
11547W        W79776  19.187  10.742  13.345
11548W        W79777   7.416   2.948   2.951
11549W        W79778  43.165  10.694   4.379
11550W        W79779  28.504   9.145  13.507
11551W        W79780  43.370   3.361  14.246
11552W        W79781  14.808  37.732  13.393
11553W        W79782  25.982  29.176  10.742
11554W        W79783  38.328  10.354   3.682
11555W        W79784   9.677  13.851  10.816
11556W        W79785  12.797  14.438   3.215
11557W        W79786  21.623  27.678   4.063
11558W        W79787   6.888  37.356  11.515
11559W        W79788  37.261  42.517   4.197
11560W        W79789  38.449  18.089   3.318
11561W        W79790   7.445  13.608  14.929
11562W        W79791  23.894  18.198   0.484
11563W        W79792  31.378  35.119   1.703
11564W        W79793  39.931  43.909   2.197
11565W        W79794  18.861  37.565  10.728
11566W        W79795  42.091   0.788  13.858
11567W        W79796  32.101  19.733  10.583
11568W        W79797  33.385  23.175   3.335
11569W        W79798  33.336  20.479   1.931
11570W        W79799  39.363  37.425   3.203
11571W        W79800  11.383  39.187   2.738
11572W        W79801  29.383  26.204   2.754
11573W        W79802  43.707   3.200   1.148
11574W        W79803   7.188   7.754  11.112
11575W        W79804  44.035  37.699   0.879
11576W        W79805   6.022   3.585  14.899
11577W        W79806  15.229   4.152   2.059
11578W        W79807  23.704  27.220   3.053
11579W        W79808  42.676  28.313   0.094
11580W        W79809  22.523  22.773   2.143
11581W        W79810  38.375  32.653   3.898
11582W        W79811  32.048  33.755  11.231
11583W        W79812  20.201   9.554  11.620
11584W        W79813   9.134  31.630  12.041
11585W        W79814  36.542  12.810   0.914
11586W        W79815   6.779  27.953  14.355
11587W        W79816  42.183   6.360   1.659
11588W        W79817  41.789  20.945  13.086
11589W        W79818  35.343  16.171  13.460
11590W        W79819  10.581  24.036  10.981
11591W        W79820   8.016  21.634   4.044
11592W        W79821  14.774  25.096  11.562
11593W        W79822  29.202  38.303   4.842
11594W        W79823  29.206  12.497   3.647
11595W        W79824  26.845  36.921   0.046
11596W        W79825  31.048  20.191  13.024
11597W        W79826  43.725  33.420  10.189
11598W        W79827   6.355  39.471  14.713
11599W        W79828   0.381  37.385   0.810
11600W        W79829  25.915   5.310  11.552
11601W        W79830  33.902  43.754  14.310
11602W        W79831  29.141   6.357   2.827
11603W        W79832   9.015  34.548   2.593
11604W        W79833  20.670  27.985  14.261
11605W        W79834  28.015  27.694   0.299
11606W        W79835  29.433  39.649  11.983
11607W        W79836  28.148  26.065   4.267
11608W        W79837  40.983  39.749  13.315
11609W        W79838  22.652  22.740   4.355
11610W        W79839   4.265  17.093   4.624
11611W        W79840  43.918  10.889   4.808
11612W        W79841  29.219  24.059  10.823
11613W        W79842   3.862  24.464  10.865
11614W        W79843  28.352   5.473  13.510
11615W        W79844  10.708  34.466   3.864
11616W        W79845   5.333  39.687  12.115
11617W        W79846  13.732  12.561  13.511
11618W        W79847  23.034   8.626  13.098
11619W        W79848  24.339   8.638  11.200
11620W        W79849  13.661  17.703   0.070
11621W        W79850  20.197  17.455  14.771
11622W        W79851  44.084  10.822   0.351
11623W        W79852  20.727  10.829  10.842
11624W        W79853  31.859  13.097   0.566
11625W        W79854  34.564  35.990  11.985
11626W        W79855  15.228  12.283  13.390
11627W        W79856   5.142   8.154  12.437
11628W        W79857   1.997   3.689  12.438
11629W        W79858  39.276  35.477  12.417
11630W        W79859  42.053  33.399  13.841
11631W        W79860  40.928  13.268   3.753
11632W        W79861  40.418  13.678  12.890
11633W        W79862  44.765  10.376   4.505
11634W        W79863  22.168  42.342  12.087
11635W        W79864  38.526  14.568  14.433
11636W        W79865   2.708  31.178   1.293
11637W        W79866   3.893  16.734   2.271
11638W        W79867  11.021  19.586  11.009
11639W        W79868  32.617  44.878  11.011
11640W        W79869  20.228  32.507  10.975
11641W        W79870   0.898  40.606   1.716
11642W        W79871  36.656  18.476   2.381
11643W        W79872   3.864   7.917  11.380
11644W        W79873  21.980   3.190   3.340
11645W        W79874  20.808  30.930  12.939
11646W        W79875  25.090  11.953  13.922
11647W        W79876   4.727  42.437  13.453
11648W        W79877   8.894   1.973   0.207
11649W        W79878   3.631  28.226  10.424
11650W        W79879  13.703  43.692   1.371
11651W        W79880  30.112  42.559  12.035
11652W        W79881  38.129  36.332   4.135
11653W        W79882  29.969   9.197   1.352
11654W        W79883   7.115  17.298  13.836
11655W        W79884  34.508  23.094   2.393
11656W        W79885  11.218   6.293   3.259
11657W        W79886  40.610  15.795  12.092
11658W        W79887   1.743  18.154  13.743
11659W        W79888  37.851  30.619  14.496
11660W        W79889  42.175  19.964  11.073
11661W        W79890  14.605  39.853  11.429
11662W        W79891  20.552  18.278  12.099
11663W        W79892  34.986  39.045   0.265
11664W        W79893  38.347  39.378  11.024
11665W        W79894  30.951  33.146  10.412
11666W        W79895   5.306  12.287   1.070
11667W        W79896  39.567  16.892  10.315
11668W        W79897  38.437   1.242  14.529
11669W        W79898  18.121  10.682   2.287
11670W        W79899  24.264  44.772   2.672
11671W        W79900  40.270  29.981  13.948
11672W        W79901  44.781  13.655  13.935
11673W        W79902   5.249   9.780   4.001
11674W        W79903  10.292  37.463   2.108
11675W        W79904  24.966  34.119  14.351
11676W        W79905  21.705  36.435   0.142
11677W        W79906  30.507  23.528   1.883
11678W        W79907  15.355  36.843   1.558
11679W        W79908  33.104   2.769   3.615
11680W        W79909  17.753  12.709  12.598
11681W        W79910  42.874   4.311   1.775
11682W        W79911  29.025  31.998   2.222
11683W        W79912  32.932   8.215   2.585
11684W        W79913  38.270  37.041  13.797
11685W        W79914  18.230  27.025   1.804
11686W        W79915   2.513  42.430  14.916
11687W        W79916  40.607  32.551  12.057
11688W        W79917  16.693   4.749  11.057
11689W        W79918  12.315  43.925  13.414
11690W        W79919  15.632  16.294   3.808
11691W        W79920  39.963  15.199   2.110
11692W        W79921  14.750  34.040   2.039
11693W        W79922  37.952   1.989   1.044
11694W        W79923  44.468  33.412   2.981
11695W        W79924  10.326  25.065   2.664
11696W        W79925  38.915  32.375  14.810
11697W        W79926  17.937   1.252   3.149
11698W        W79927   9.767   0.035  13.891
11699W        W79928   2.229   4.468   1.282
11700W        W79929   1.887   5.412   4.838
11701W        W79930  39.060  44.919   4.035
11702W        W79931  37.892  17.282  10.627
11703W        W79932  28.731  18.713  12.050
11704W        W79933  37.015  17.732   0.114
11705W        W79934  25.486   9.114   4.428
11706W        W79935  32.532  17.450  10.791
11707W        W79936   1.254  29.173  12.504
11708W        W79937  20.179  38.026   4.866
11709W        W79938  14.348  23.121   1.475
11710W        W79939  23.457  20.301  11.660
11711W        W79940  11.450  27.887   0.004
11712W        W79941   2.736  18.830   2.853
11713W        W79942  23.964  35.071  13.306
11714W        W79943  30.732  12.905  12.109
11715W        W79944  28.002  25.946  13.093
11716W        W79945  30.944  28.085   1.879
11717W        W79946   4.584  42.828   4.591
11718W        W79947   3.780   1.301   2.844
11719W        W79948  42.023  39.126  14.473
11720W        W79949  22.411  18.477  11.803
11721W        W79950  28.537  33.866   1.690
11722W        W79951  37.933  30.629  11.216
11723W        W79952  15.546  39.883  11.612
11724W        W79953   7.781  16.797  10.843
11725W        W79954  31.192  22.372  13.536
11726W        W79955  44.342   0.404  14.992
11727W        W79956   4.467  32.362   4.459
11728W        W79957  30.087  34.747   2.830
11729W        W79958  19.578   3.513  10.228
11730W        W79959  36.142   3.244   5.014
11731W        W79960  19.759  43.066  11.144
11732W        W79961  22.710   4.373  14.270
11733W        W79962  27.907  18.062   1.472
11734W        W79963   7.157  11.230  11.557
11735W        W79964  40.793  38.677  13.280
11736W        W79965  41.671  20.066  11.224
11737W        W79966  15.289  24.412  12.039
11738W        W79967  14.368  39.908   3.677
11739W        W79968   5.410  25.736   1.873
11740W        W79969  33.804  44.686  10.682
11741W        W79970  16.791  43.179  10.510
11742W        W79971  24.679   5.660  13.813
11743W        W79972  43.907  37.711   1.792
11744W        W79973  43.477  40.861  12.042
11745W        W79974  29.675  21.804   4.360
11746W        W79975   9.330  19.707   3.201
11747W        W79976  44.899  19.023   4.080
11748W        W79977   0.934  11.273  13.035
11749W        W79978  25.242  17.530   3.665
11750W        W79979  17.702  33.132  12.577
11751W        W79980   2.758  16.236  12.385
11752W        W79981  34.349  38.081  13.849
11753W        W79982   3.721  26.882  10.220
11754W        W79983  17.760  37.424  14.007
11755W        W79984   9.855  38.889   4.786
11756W        W79985   1.989   8.762   4.010
11757W        W79986  20.686  12.654   3.150
11758W        W79987  19.378   8.714  14.736
11759W        W79988  42.480   7.763  13.846
11760W        W79989  15.737  34.901  12.852
11761W        W79990  27.594  31.349  14.729
11762W        W79991  37.609   5.918  12.663
11763W        W79992  33.364  31.717  12.429
11764W        W79993  20.046  44.488   4.090
11765W        W79994  34.271  10.951  12.601
11766W        W79995   4.365  36.028  12.377
11767W        W79996  11.690  36.618   4.312
11768W        W79997   0.921  25.274   0.385
11769W        W79998  31.503   9.176   2.771
11770W        W79999   5.374  18.077   4.009
11771W        W80000  10.479  16.114   2.144
11772W        W80001  35.065  30.457   4.477
11773W        W80002  37.778   2.677   4.149
11774W        W80003  40.782   0.695  13.450
11775W        W80004  38.006   0.989  14.362
11776W        W80005   2.337  38.791  12.623
11777W        W80006  23.607   8.628   2.309
11778W        W80007  27.151   3.724   1.528
11779W        W80008  24.711   4.308  10.596
11780W        W80009  28.923  21.152  11.208
11781W        W80010  11.865  17.799  14.402
11782W        W80011  38.417  35.344  10.968
11783W        W80012  19.273  38.204  12.326
11784W        W80013  42.394  21.143   4.161
11785W        W80014  14.983  19.128  13.127
11786W        W80015  38.547  35.504  14.435
11787W        W80016   9.687  32.481  13.428
11788W        W80017   7.276  27.098   2.107
11789W        W80018  22.509  43.372   1.590
11790W        W80019   5.179  42.777   3.849
11791W        W80020  27.673   8.752  12.198
11792W        W80021  29.479  33.674  13.784
11793W        W80022   5.657  27.557   1.926
11794W        W80023  32.883  37.778   4.596
11795W        W80024  23.415  28.039   4.063
11796W        W80025  44.281  10.678   2.463
11797W        W80026   7.678  14.751  13.404
11798W        W80027  35.422  18.715  13.277
11799W        W80028  33.668  28.533   4.424
11800W        W80029  11.634  14.177   2.827
11801W        W80030  35.321  38.360  10.874
11802W        W80031  25.878  31.457  12.233
11803W        W80032  24.185  28.239  13.887
11804W        W80033  12.661  20.966  11.878
11805W        W80034   5.476   3.775   3.323
11806W        W80035  11.570   6.360  14.488
11807W        W80036  15.784  30.880  14.534
11808W        W80037   9.704   1.701  14.719
11809W        W80038  22.961  22.110  13.608
11810W        W80039   6.000   4.924   3.576
11811W        W80040  12.160  28.624   2.701
11812W        W80041  43.878  10.420  11.107
11813W        W80042   1.412  29.603   4.605
11814W        W80043  26.455  14.538   4.707
11815W        W80044   7.061  34.157   1.460
11816W        W80045  34.000  44.313  14.073
11817W        W80046   1.983  14.125  14.325
11818W        W80047  23.740  37.416  12.011
11819W        W80048  10.447  17.260   1.191
11820W        W80049  37.500   1.024  14.874
11821W        W80050  25.492  38.609   3.200
11822W        W80051  11.782  34.980   4.093
11823W        W80052   1.387  17.640   4.723
11824W        W80053  41.459  40.383   2.679
11825W        W80054  20.540  33.079   2.423
11826W        W80055  43.041  36.485   0.968
11827W        W80056  23.847  18.645   3.118
11828W        W80057  40.046   4.329   0.006
11829W        W80058   0.396  18.318   3.971
11830W        W80059  24.533  30.144  14.920
11831W        W80060  38.368  35.016  12.534
11832W        W80061   2.445  25.512  13.431
11833W        W80062  31.533  10.196   2.825
11834W        W80063  39.884  30.612   0.707
11835W        W80064  36.039  38.452  12.116
11836W        W80065  43.532  22.164   4.661
11837W        W80066  26.677  29.497  14.728
11838W        W80067  17.284  38.644   1.483
11839W        W80068  32.309  44.022   3.893
11840W        W80069  17.082   9.684   4.170
11841W        W80070  13.240  21.090   0.969
11842W        W80071   2.713  23.560   3.081
11843W        W80072   4.358  36.128   3.781
11844W        W80073  36.966  15.644   4.291
11845W        W80074  44.737  40.873  10.773
11846W        W80075  43.338  19.298   2.635
11847W        W80076  23.160  13.141  14.404
11848W        W80077  37.308  10.282   2.469
11849W        W80078  21.507   2.973   3.610
11850W        W80079  18.914  17.321  12.262
11851W        W80080  12.156  24.334  11.027
11852W        W80081   0.311  37.109  12.064
11853W        W80082  32.939  28.808   0.680
11854W        W80083   7.787   8.832  10.073
11855W        W80084   6.648  28.668   4.750
11856W        W80085  36.021  27.888  11.125
11857W        W80086  27.213   4.312  13.836
11858W        W80087  40.799  29.559   4.502
11859W        W80088  14.352  43.432  11.007
11860W        W80089  30.461  31.978   0.532
11861W        W80090  40.061  34.449   1.840
11862W        W80091   9.076   6.134   4.117
11863W        W80092   7.234  26.911   0.375
11864W        W80093   2.895   4.455  11.655
11865W        W80094  27.682  13.350   2.427
11866W        W80095  14.368  17.704   2.773
11867W        W80096  11.362  26.234   3.166
11868W        W80097  16.247  39.276  10.995
11869W        W80098  14.163   9.315  12.860
11870W        W80099  26.746  41.218  13.964
11871W        W80100  11.573  23.803   1.200
11872W        W80101  29.056  14.135   1.152
11873W        W80102  32.074  27.458  12.106
11874W        W80103  28.719  39.803   4.111
11875W        W80104   8.938  15.184   2.899
11876W        W80105   2.779  29.148   2.024
11877W        W80106  25.225  22.651  14.358
11878W        W80107   4.256  11.462   2.527
11879W        W80108  25.026  13.812   3.309
11880W        W80109  31.646   8.627   3.952
11881W        W80110  24.494  21.031   2.729
11882W        W80111  34.326  13.256   2.488
11883W        W80112   3.480   3.765   4.845
11884W        W80113   9.196   9.378  14.146
11885W        W80114   7.345  10.588   0.271
11886W        W80115  22.205  17.518   5.188
11887W        W80116  16.248   4.299   4.112
11888W        W80117  21.624   8.112  12.472
11889W        W80118  30.894   1.205   0.364
11890W        W80119  18.689  27.459   4.658
11891W        W80120  17.282   0.901  12.049
11892W        W80121  34.755  43.198  14.354
11893W        W80122  17.670   3.395   3.989
11894W        W80123  25.452  41.481  13.560
11895W        W80124  23.063  17.509   4.850
11896W        W80125  16.100  44.038  13.404
11897W        W80126  22.275  43.020  10.787
11898W        W80127  17.532  18.273   3.377
11899W        W80128  39.314  24.539   0.022
11900W        W80129  35.825  24.079  11.749
11901W        W80130  40.006  25.856  14.653
11902W        W80131  24.603  44.037   0.658
11903W        W80132  39.982  17.838   3.193
11904W        W80133  43.601   5.947  10.974
11905W        W80134  33.983  39.319   0.350
11906W        W80135  22.966  19.825  10.511
11907W        W80136  34.547  10.596   0.107
11908W        W80137   0.999  43.087  13.151
11909W        W80138  15.761  18.736   3.672
11910W        W80139  16.663  34.087  10.219
11911W        W80140  24.592   1.028  13.634
11912W        W80141  39.486  38.500   4.129
11913W        W80142   0.989  22.115   2.116
11914W        W80143  31.460   8.574   4.955
11915W        W80144  13.352  34.392   1.803
11916W        W80145   1.485   3.974   3.035
11917W        W80146   4.900  17.648  13.707
11918W        W80147   2.036  19.344   2.870
11919W        W80148  29.446  17.025  10.313
11920W        W80149   7.320  13.191  11.031
11921W        W80150  34.246   4.839  12.488
11922W        W80151   1.069   7.157  13.380
11923W        W80152   9.740  31.067  13.263
11924W        W80153  14.393  17.814  12.555
11925W        W80154   1.820  33.933   1.690
11926W        W80155  28.114  33.325   1.046
11927W        W80156  20.475  11.726  12.250
11928W        W80157  29.009  15.367   4.635
11929W        W80158  10.960   8.314  14.905
11930W        W80159  26.521  40.086   4.191
11931W        W80160  36.417  27.746  14.019
11932W        W80161   2.334  16.825  14.367
11933W        W80162  41.092  15.111  11.562
11934W        W80163  42.817  30.039   1.903
11935W        W80164  32.873  31.683  11.663
11936W        W80165  17.498  28.123  14.532
11937W        W80166  36.083  29.179  13.846
11938W        W80167  22.643  24.436   1.913
11939W        W80168  43.506  25.265  13.492
11940W        W80169   1.231  19.286   4.037
11941W        W80170  44.458   6.767   0.957
11942W        W80171  42.506  38.954  14.428
11943W        W80172  43.528  15.722  13.144
11944W        W80173  20.615   8.346  12.153
11945W        W80174  17.774  35.108  12.497
11946W        W80175  22.101  17.811  10.581
11947W        W80176   9.752  17.767   1.255
11948W        W80177  28.507  40.808  14.306
11949W        W80178  16.864  17.589   4.507
11950W        W80179   1.403  37.085   2.094
11951W        W80180  41.778   9.888   2.758
11952W        W80181  37.411   4.427   4.256
11953W        W80182   2.425  28.856  10.805
11954W        W80183  18.326   6.315   2.060
11955W        W80184  34.940  31.490  12.326
11956W        W80185  38.385   1.318  13.077
11957W        W80186  16.810   6.156  14.062
11958W        W80187   3.481  34.907   0.990
11959W        W80188  22.260  41.331  10.944
11960W        W80189  42.149  42.805  11.122
11961W        W80190  26.589  28.584   3.981
11962W        W80191  18.657   6.186  12.736
11963W        W80192   7.668  28.716   1.357
11964W        W80193  35.383  10.896  13.889
11965W        W80194  32.668  20.417   3.234
11966W        W80195  19.589  20.727   4.777
11967W        W80196  29.076  14.799  10.534
11968W        W80197  27.546  41.030   0.387
11969W        W80198  44.226  18.252   3.369
11970W        W80199   1.705   4.392  13.431
11971W        W80200  28.142  40.993  14.829
11972W        W80201  43.848   4.246   2.388
11973W        W80202  29.553  44.868  10.504
11974W        W80203  18.971  41.545   2.889
11975W        W80204  33.807   8.045   3.524
11976W        W80205  14.187   3.948   3.475
11977W        W80206  21.622  11.832   2.274
11978W        W80207  26.493   5.660   9.872
11979W        W80208  17.791  17.576  11.024
11980W        W80209  34.490  40.467  13.940
11981W        W80210  10.801  22.614   4.562
11982W        W80211  33.118  35.031   2.286
11983W        W80212  40.636  16.518   1.340
11984W        W80213  15.118  27.382   3.799
11985W        W80214  34.615  39.814   0.035
11986W        W80215   3.886  44.479   2.277
11987W        W80216   0.626  44.474   2.005
11988W        W80217  14.810  16.289  12.783
11989W        W80218  21.120  28.650  14.437
11990W        W80219  12.273  32.945   2.389
11991W        W80220  35.498  32.467  11.515
11992W        W80221  40.475  33.496   5.381
11993W        W80222   2.291  18.013   0.059
11994W        W80223  36.589  33.488   1.427
11995W        W80224  32.059  14.338  10.763
11996W        W80225   0.513  14.818  13.067
11997W        W80226   9.218  41.676  11.173
11998W        W80227   7.826  34.664   1.813
11999W        W80228  26.732   7.172  11.615
12000W        W80229  35.928  28.004   2.932
12001W        W80230  36.426  32.660   1.162
12002W        W80231  42.783   4.153   3.972
12003W        W80232  37.487  18.580  14.830
12004W        W80233  44.710  21.475   3.820
12005W        W80234  36.441  12.679  12.616
12006W        W80235  29.941  41.988   1.967
12007W        W80236   4.691   6.898   3.219
12008W        W80237  30.286   5.089   3.662
12009W        W80238  30.618  16.623   1.268
12010W        W80239  18.187  33.660   2.363
12011W        W80240  44.434  17.650  10.145
12012W        W80241  35.696  13.316  13.504
12013W        W80242  31.024  31.575  11.206
12014W        W80243  41.025  30.528  13.900
12015W        W80244  37.466  27.221   4.071
12016W        W80245  38.492  25.223   3.221
12017W        W80246   5.295  26.571  14.558
12018W        W80247   1.208  27.223  12.509
12019W        W80248  21.641   3.913  11.962
12020W        W80249   0.711  42.823   3.882
12021W        W80250  15.021   3.126   4.195
12022W        W80251  20.821  44.487   3.634
12023W        W80252  18.824   5.689  12.576
12024W        W80253  30.652  44.515  12.446
12025W        W80254  36.041  22.849   3.710
12026W        W80255  12.487  28.034  11.620
12027W        W80256   4.435  33.668   3.780
12028W        W80257  32.364   5.558   3.203
12029W        W80258  24.947   4.784   0.366
12030W        W80259   1.435  30.535  13.080
12031W        W80260  14.965  11.605   4.636
12032W        W80261   6.771  37.110  10.659
12033W        W80262   8.825  21.622  14.871
12034W        W80263  30.060  38.507  12.056
12035W        W80264  27.584  21.802  12.011
12036W        W80265  19.633  15.704   3.783
12037W        W80266  13.807   0.291   0.368
12038W        W80267  14.396   6.812   3.839
12039W        W80268  44.284  29.007  10.847
12040W        W80269  39.477  38.972   1.945
12041W        W80270  11.829  39.320   2.447
12042W        W80271   7.583  33.528  13.945
12043W        W80272  37.775  23.674   1.924
12044W        W80273  30.631  42.761   3.125
12045W        W80274  10.380   0.809  13.285
12046W        W80275  12.449  33.335   0.155
12047W        W80276   6.411  20.966   3.815
12048W        W80277  44.341  32.241   2.211
12049W        W80278  17.312  31.126  12.878
12050W        W80279  12.669   8.605   1.296
12051W        W80280  11.255  22.079   3.866
12052W        W80281  10.504   1.476   1.885
12053W        W80282  14.982  11.202  14.065
12054W        W80283  21.127   0.971  13.264
12055W        W80284  15.634  42.383   4.626
12056W        W80285  20.010  29.763  13.471
12057W        W80286  29.088  15.608  11.487
12058W        W80287  11.435  37.765  14.502
12059W        W80288   3.714  28.684  11.624
12060W        W80289  14.260  16.322   3.327
12061W        W80290   9.189   7.462  14.668
12062W        W80291  25.461   2.147   3.235
12063W        W80292   9.117   0.290   1.806
12064W        W80293  40.754  10.132  14.398
12065W        W80294  34.480  40.024  12.610
12066W        W80295  24.099  29.932  11.922
12067W        W80296   6.674  14.860   0.910
12068W        W80297  28.963  42.782   5.145
12069W        W80298  42.037  23.120   3.156
12070W        W80299   0.334  11.817   2.915
12071W        W80300  39.058  16.291   2.724
12072W        W80301  28.726  18.732  14.256
12073W        W80302  17.120  21.729  14.115
12074W        W80303  13.288  24.617  14.552
12075W        W80304  44.356  23.558   0.902
12076W        W80305  21.692  19.719  13.126
12077W        W80306  35.611  15.345  12.083
12078W        W80307  42.005  13.559  14.527
12079W        W80308  41.833  36.622  13.409
12080W        W80309  38.561  27.478  11.621
12081W        W80310  15.258  42.566   4.297
12082W        W80311  21.205  43.844   4.089
12083W        W80312  23.300  11.478   4.139
12084W        W80313  43.373   7.279   3.680
12085W        W80314  40.541  11.259   1.377
12086W        W80315  43.379  43.627   2.820
12087W        W80316  39.498   6.200  11.683
12088W        W80317  28.442   5.699   0.313
12089W        W80318  43.933   6.749  13.713
12090W        W80319  38.584  35.242   3.394
12091W        W80320  13.736   4.848  10.766
12092W        W80321  36.423   3.901  10.712
12093W        W80322  31.274  20.527  14.014
12094W        W80323  13.995  11.741   0.338
12095W        W80324   1.372   6.817  12.496
12096W        W80325   2.267  15.237  11.125
12097W        W80326  34.494  20.800   0.228
12098W        W80327  22.195  19.982  12.401
12099W        W80328  31.061  40.773  14.539
12100W        W80329  11.724  38.318  10.782
12101W        W80330  31.619  26.051   2.843
12102W        W80331  21.055  38.919   1.756
12103W        W80332  31.352  29.133  13.361
12104W        W80333  16.076  40.027   4.056
12105W        W80334  19.584   4.713   1.703
12106W        W80335   8.699  28.389  13.804
12107W        W80336  35.333   1.269   0.741
12108W        W80337  37.332  24.313  11.986
12109W        W80338  40.529  42.313   2.793
12110W        W80339   6.450  41.150  11.537
12111W        W80340  21.654  22.450   2.840
12112W        W80341   8.402  31.607   1.864
12113W        W80342  17.487   6.961  11.974
12114W        W80343  33.618  31.918   2.320
12115W        W80344   8.905  18.265  12.557
12116W        W80345  28.780   5.015   4.604
12117W        W80346   5.853  13.962  11.478
12118W        W80347  22.864  12.223   2.660
12119W        W80348  26.582  18.004  11.532
12120W        W80349   1.241  40.422   4.672
12121W        W80350   6.846  39.093   0.540
12122W        W80351  43.815  19.910   2.121
12123W        W80352  38.257   5.441   5.459
12124W        W80353  21.059  40.224  11.448
12125W        W80354   4.155  12.762   1.376
12126W        W80355  17.036  26.277   1.868
12127W        W80356   2.526   3.189   5.081
12128W        W80357   1.930  21.170   1.707
12129W        W80358  33.404  12.386  14.339
12130W        W80359  15.558  16.202  12.360
12131W        W80360  28.859  44.537  12.450
12132W        W80361   9.815  22.478   2.222
12133W        W80362  43.718  17.673  14.761
12134W        W80363  31.502  13.521   3.195
12135W        W80364   8.366  26.044  11.555
12136W        W80365  32.156   5.945  13.571
12137W        W80366  33.182  11.766   4.848
12138W        W80367  41.987  27.175   0.678
12139W        W80368  28.610  42.007   3.328
12140W        W80369   2.406  18.997   1.673
12141W        W80370  28.919  28.533  14.777
12142W        W80371  27.412  34.286  14.013
12143W        W80372  24.460  29.557  13.497
12144W        W80373   1.392  19.403  12.292
12145W        W80374  26.200  27.666  13.830
12146W        W80375  12.950  42.308   1.260
12147W        W80376  23.071  26.485   3.433
12148W        W80377  44.865  44.403  14.396
12149W        W80378  14.753  31.657  12.898
12150W        W80379  34.433  11.654  13.506
12151W        W80380  16.120  16.519  14.287
12152W        W80381  33.770  12.669   2.999
12153W        W80382  22.980  44.764  13.294
12154W        W80383  25.855  33.381  13.452
12155W        W80384  17.114  35.399   3.400
12156W        W80385  14.221   9.838   4.866
12157W        W80386  44.562  29.940   2.470
12158W        W80387  29.073  41.576   0.008
12159W        W80388  21.125  37.322  10.715
12160W        W80389   3.211  10.301   4.077
12161W        W80390  39.624  17.319  11.558
12162W        W80391  26.481  41.258  10.875
12163W        W80392  19.569   8.944   5.000
12164W        W80393  37.833  33.429  11.454
12165W        W80394  29.554  40.987   4.866
12166W        W80395  36.456   3.481  11.604
12167W        W80396  19.559   2.278  13.111
12168W        W80397  40.924  18.192   4.624
12169W        W80398  38.761  44.209  13.832
12170W        W80399  20.686  44.460  12.449
12171W        W80400  38.873   8.758   4.148
12172W        W80401  27.691  19.213  14.314
12173W        W80402  25.390  36.585   2.040
12174W        W80403   0.441  36.593  12.043
12175W        W80404  32.474  32.977  11.381
12176W        W80405  31.929  36.820  14.997
12177W        W80406  31.184  25.162   3.622
12178W        W80407  15.609  21.526   1.542
12179W        W80408  11.416  22.045   0.306
12180W        W80409  13.182   8.739   2.642
12181W        W80410  23.689  25.159   1.831
12182W        W80411   3.596  15.094   3.503
12183W        W80412  31.454  28.068  12.365
12184W        W80413  38.446  25.967  13.799
12185W        W80414  37.313  36.515   0.217
12186W        W80415  26.120  39.775   4.268
12187W        W80416  41.255   9.352  11.181
12188W        W80417  23.206   6.692  12.043
12189W        W80418  22.657  17.455  12.606
12190W        W80419  23.674  19.571  12.578
12191W        W80420  29.844  33.463   4.965
12192W        W80421  35.553  33.162  12.483
12193W        W80422   1.912   9.184  14.611
12194W        W80423  22.938   5.729  13.220
12195W        W80424   4.400   8.509  13.855
12196W        W80425   4.408  37.614  11.632
12197W        W80426   5.676  42.919   2.279
12198W        W80427  37.647   9.467   4.120
12199W        W80428   4.303  30.133   4.745
12200W        W80429  15.302  24.969   4.684
12201W        W80430  40.388   0.824  11.037
12202W        W80431  43.842  26.023   3.930
12203W        W80432  42.023  38.733   1.045
12204W        W80433  10.447   8.276  14.988
12205W        W80434  36.584  19.124   3.605
12206W        W80435   1.355  10.279  14.006
12207W        W80436  32.092  18.494   2.447
12208W        W80437  30.930  22.006  11.830
12209W        W80438  31.452  29.350  14.851
12210W        W80439  14.754  20.074  13.259
12211W        W80440  13.850  20.251   0.979
12212W        W80441  30.930  34.382   4.678
12213W        W80442  13.198   2.870   2.615
12214W        W80443  16.331  23.185  12.486
12215W        W80444  37.568  19.854  14.676
12216W        W80445  29.132  41.137   2.856
12217W        W80446  21.741  21.773  14.419
12218W        W80447   1.471  38.000   4.890
12219W        W80448  11.329  10.148   1.929
12220W        W80449  19.446  12.207  10.734
12221W        W80450  44.632  39.378  12.430
12222W        W80451  16.473  23.891   0.385
12223W        W80452  32.444  18.819  13.539
12224W        W80453  19.608  43.979  14.875
12225W        W80454  36.998  13.088   2.281
12226W        W80455  37.661  22.322  12.068
12227W        W80456  16.294   6.898  10.570
12228W        W80457   1.499  16.531  12.296
12229W        W80458  40.412  35.627   4.345
12230W        W80459  39.920  31.380   2.887
12231W        W80460  41.507  35.007   3.992
12232W        W80461  33.948   2.858   4.045
12233W        W80462  39.418  17.144  13.376
12234W        W80463  39.340   0.482  10.688
12235W        W80464  31.338  33.294  11.552
12236W        W80465  26.213   3.439   0.067
12237W        W80466   1.361   0.298   3.322
12238W        W80467  22.821  28.893   0.689
12239W        W80468  33.107  23.940  14.953
12240W        W80469   4.682  17.210  10.543
12241W        W80470  44.776  37.921  14.189
12242W        W80471  10.104  39.402   0.428
12243W        W80472  29.505   5.551   1.014
12244W        W80473   6.918  14.752  14.030
12245W        W80474  23.248  24.738   0.485
12246W        W80475  39.460  22.464  13.437
12247W        W80476  14.268  30.446   1.436
12248W        W80477  14.691  39.019   4.865
12249W        W80478  25.450  21.244  12.598
12250W        W80479  15.343  21.727  10.464
12251W        W80480  44.099  19.077   3.893
12252W        W80481   3.178  32.891  10.925
12253W        W80482  40.116  42.996  11.983
12254W        W80483  25.832   6.916   3.818
12255W        W80484   4.994  39.119   2.689
12256W        W80485  16.510  31.862   4.118
12257W        W80486  23.054  24.946   1.440
12258W        W80487  37.823  35.310   1.759
12259W        W80488  10.669  23.761   4.697
12260W        W80489  30.195  40.019   2.987
12261W        W80490  28.591   1.488   2.067
12262W        W80491  10.412  13.062   4.867
12263W        W80492  37.332  35.230   1.959
12264W        W80493   1.496  13.269   2.821
12265W        W80494  36.997  24.155   0.368
12266W        W80495  22.434   0.934  10.229
12267W        W80496  18.597  41.763  12.517
12268W        W80497   9.921  16.098  12.976
12269W        W80498   5.708  35.072   3.514
12270W        W80499  13.267  36.565   2.029
12271W        W80500   9.903  44.310  10.842
12272W        W80501  11.653  12.358   2.325
12273W        W80502  32.197  43.990  12.548
12274W        W80503  26.972  21.681   4.746
12275W        W80504  41.077  44.908  12.067
12276W        W80505  38.199  10.257  10.624
12277W        W80506  35.498  18.930  14.321
12278W        W80507  27.562  16.775   4.534
12279W        W80508  38.482  43.941  14.798
12280W        W80509   8.454  35.466   1.644
12281W        W80510  17.865  20.671  12.507
12282W        W80511  31.916  19.820   3.158
12283W        W80512  23.138  34.134   0.142
12284W        W80513  30.663  13.830   1.730
12285W        W80514   2.888   5.969  13.016
12286W        W80515  26.084   4.829  12.915
12287W        W80516  11.643  39.004  13.634
12288W        W80517   1.125  17.752   4.286
12289W        W80518   4.871  27.633  13.535
12290W        W80519  10.745  38.128   3.547
12291W        W80520  15.842  14.264   2.718
12292W        W80521  40.927  43.254  11.095
12293W        W80522   4.154  33.037  11.571
12294W        W80523  20.464  43.585   2.387
12295W        W80524  38.812   0.450  14.346
12296W        W80525  38.318  36.995  12.956
12297W        W80526  34.334  27.498  11.977
12298W        W80527  28.749  13.034  11.956
12299W        W80528  28.911   6.203   3.278
12300W        W80529  16.742   2.197  13.281
12301W        W80530  12.787   2.482  14.712
12302W        W80531   2.439  17.651  11.548
12303W        W80532  31.597  19.350   2.717
12304W        W80533  30.624  44.393  13.770
12305W        W80534  42.238  31.384   1.372
12306W        W80535  27.696  42.773   2.155
12307W        W80536  28.568   3.387  12.522
12308W        W80537  37.433  40.935   4.454
12309W        W80538  28.279  32.477  13.633
12310W        W80539   6.242  14.783   3.311
12311W        W80540   4.780  17.395  14.709
12312W        W80541  25.635  19.065   2.864
12313W        W80542  43.042  30.009  11.575
12314W        W80543  21.227   6.262  12.571
12315W        W80544  44.012   6.897   2.626
12316W        W80545   9.156  13.554  14.021
12317W        W80546  32.288   3.942   4.541
12318W        W80547  18.721  34.654  13.286
12319W        W80548  25.525  16.889   1.871
12320W        W80549  39.366   1.040  13.385
12321W        W80550   4.530  11.684   0.811
12322W        W80551   2.544   6.285  12.276
12323W        W80552  38.170  43.335   3.712
12324W        W80553  16.338  40.651   1.977
12325W        W80554   8.093   7.600   2.782
12326W        W80555  22.127  26.583   4.109
12327W        W80556  22.553  31.257   3.358
12328W        W80557  43.031  30.447   2.162
12329W        W80558   4.695  30.487  10.790
12330W        W80559  22.641  30.464  14.028
12331W        W80560   7.710  38.776  13.863
12332W        W80561   9.752  26.553  10.777
12333W        W80562  25.440   3.181   4.112
12334W        W80563  20.112  31.846   0.515
12335W        W80564  43.870  38.291  11.427
12336W        W80565  12.849  24.505   0.199
12337W        W80566  23.173  20.232  13.104
12338W        W80567  24.616  17.090   1.306
12339W        W80568  26.095  36.506  13.607
12340W        W80569  42.307  37.040   0.915
12341W        W80570  39.538  33.437   3.790
12342W        W80571  37.855   5.302  14.931
12343W        W80572  35.057  15.787  14.363
12344W        W80573  35.018  27.760  11.440
12345W        W80574   6.763  37.886   2.576
12346W        W80575  14.547   5.447   0.362
12347W        W80576  10.785  36.414  10.885
12348W        W80577  37.017  10.135  11.894
12349W        W80578  22.930   1.377  11.107
12350W        W80579  24.636  33.982   2.626
12351W        W80580  32.198  33.565  12.971
12352W        W80581  28.451  16.188  10.486
12353W        W80582   5.974  16.776   2.360
12354W        W80583  36.313  15.395   1.300
12355W        W80584  34.490  37.666   2.778
12356W        W80585  14.394  16.030  12.937
12357W        W80586  24.749   9.468   1.965
12358W        W80587   3.435   5.906   2.878
12359W        W80588  19.999  28.322  12.464
12360W        W80589  41.044   7.775   3.516
12361W        W80590  30.820   8.627  11.159
12362W        W80591  12.284  42.002  13.031
12363W        W80592  20.106  25.060  14.494
12364W        W80593  21.053   0.455   2.187
12365W        W80594  23.925  36.990   0.385
12366W        W80595  41.530  28.594  10.639
12367W        W80596  14.312   5.764   1.771
12368W        W80597  41.942  36.197   0.821
12369W        W80598  24.171  19.513  11.599
12370W        W80599  33.351  18.741   3.662
12371W        W80600  44.667  42.857   1.739
12372W        W80601  14.373  33.145  12.675
12373W        W80602  12.432  10.225   3.209
12374W        W80603  28.879  32.471  12.240
12375W        W80604  22.145   6.782  10.842
12376W        W80605  42.563  22.029   4.521
12377W        W80606   4.896  21.664  13.978
12378W        W80607  25.932  43.306   3.323
12379W        W80608   7.052   9.248  11.505
12380W        W80609  18.917   4.519  11.598
12381W        W80610  14.701   6.103   2.802
12382W        W80611  39.185  31.207  12.065
12383W        W80612   8.907  28.574   0.455
12384W        W80613  31.087  44.289  10.548
12385W        W80614  18.515   4.549  11.939
12386W        W80615  41.456  43.997   1.840
12387W        W80616  43.315  27.558   4.359
12388W        W80617   8.985  32.701  11.458
12389W        W80618   3.172  16.753   1.026
12390W        W80619  10.144   0.308  14.301
12391W        W80620  19.446  23.101   2.401
12392W        W80621  31.971   8.694  13.270
12393W        W80622  28.300   6.759  12.117
12394W        W80623   7.754  11.181  10.718
12395W        W80624  10.462  13.071   0.257
12396W        W80625  10.230  23.737  10.328
12397W        W80626  40.133   1.575   4.174
12398W        W80627  23.995  14.923  11.498
12399W        W80628  15.313  17.008   0.276
12400W        W80629  10.170  36.155  11.648
12401W        W80630  26.058  19.693   1.697
12402W        W80631  22.583  42.480  11.814
12403W        W80632  12.341  23.706   3.649
12404W        W80633   9.340  39.462   4.404
12405W        W80634  41.891  30.243   1.948
12406W        W80635   7.060  27.601  13.230
12407W        W80636  32.477  33.479  11.143
12408W        W80637  40.837  15.594   3.644
12409W        W80638  17.324  23.930   2.734
12410W        W80639  30.547   7.767  12.926
12411W        W80640  11.818   3.363   1.026
12412W        W80641   1.381  26.519  11.978
12413W        W80642  38.566  14.265  13.917
12414W        W80643  16.837   3.472   1.814
12415W        W80644   6.359   9.041   0.699
12416W        W80645  37.560  40.820  11.573
12417W        W80646   6.233  38.224   4.403
12418W        W80647  21.059  28.436  13.472
12419W        W80648  34.533  39.845  11.615
12420W        W80649  10.905  29.566  10.632
12421W        W80650  30.907  31.508  12.685
12422W        W80651  11.561  14.193   1.410
12423W        W80652  37.482  41.789   4.715
12424W        W80653  42.493  43.226   0.733
12425W        W80654   1.386  24.794   3.564
12426W        W80655  13.005  37.106   2.178
12427W        W80656  13.235  24.548   3.877
12428W        W80657  36.647  44.981   0.433
12429W        W80658  34.684  12.781  14.069
12430W        W80659   6.712  11.447   4.220
12431W        W80660  36.437  37.087  10.824
12432W        W80661   6.247  33.420   2.010
12433W        W80662  31.408   8.195   4.152
12434W        W80663  35.392   1.960  10.594
12435W        W80664  14.633  35.561   2.025
12436W        W80665  35.099  41.805  11.407
12437W        W80666   9.801   8.200   3.840
12438W        W80667  39.604  31.564   3.633
12439W        W80668  40.205   9.691   1.270
12440W        W80669  24.167  20.244   0.499
12441W        W80670  26.585   1.194   0.939
12442W        W80671  16.119  20.789  13.591
12443W        W80672   5.752   5.452  12.990
12444W        W80673  40.458  43.291   4.106
12445W        W80674   6.236  25.957   1.312
12446W        W80675  12.253  19.000  13.155
12447W        W80676   6.548   9.374  11.567
12448W        W80677  25.281  10.987   9.881
12449W        W80678  16.287  44.239  12.952
12450W        W80679  37.496   0.418   3.254
12451W        W80680  33.084  14.806   0.166
12452W        W80681  14.257  12.769   3.639
12453W        W80682  37.409  30.626   2.958
12454W        W80683  23.910  13.858   1.240
12455W        W80684  26.696  15.885   1.429
12456W        W80685  24.656  24.077   3.160
12457W        W80686  35.559  36.032  12.308
12458W        W80687  20.768  32.499  10.305
12459W        W80688  27.454   0.248   4.065
12460W        W80689   5.908   2.296   0.423
12461W        W80690   7.246   0.224   1.320
12462W        W80691  29.964  36.645   2.879
12463W        W80692   8.478  17.108  11.445
12464W        W80693  27.129  21.093  14.429
12465W        W80694  20.047  39.944   4.152
12466W        W80695   9.676   6.794   1.875
12467W        W80696  37.936  27.954   1.825
12468W        W80697  16.389  16.807   2.313
12469W        W80698   7.426   8.289  13.516
12470W        W80699  37.308   5.708  10.528
12471W        W80700   2.950  26.629   4.213
12472W        W80701  14.643  32.376  14.962
12473W        W80702  27.179   4.394   0.289
12474W        W80703   4.869   5.645  12.949
12475W        W80704  29.996  41.565   3.240
12476W        W80705  28.702  32.543   0.977
12477W        W80706  43.342  35.019   0.312
12478W        W80707  36.846  36.491   2.911
12479W        W80708  36.274  34.370   2.674
12480W        W80709   8.940  15.405   1.891
12481W        W80710  28.667   8.271  11.573
12482W        W80711  40.597  21.165   3.161
12483W        W80712   2.283  21.882  10.713
12484W        W80713  37.661   2.218   1.427
12485W        W80714  20.139   4.441   0.028
12486W        W80715  29.728  10.748  11.846
12487W        W80716  14.601  40.363   3.719
12488W        W80717  23.384  26.341  10.645
12489W        W80718   7.387  17.197  13.402
12490W        W80719  34.056   9.520   0.740
12491W        W80720   6.397   2.819  13.820
12492W        W80721   3.892  40.740   1.825
12493W        W80722  23.101  24.996   4.559
12494W        W80723  29.241  28.178   4.170
12495W        W80724  40.523  21.107  10.285
12496W        W80725   8.074  25.777   2.758
12497W        W80726  12.345  39.793   4.534
12498W        W80727   9.564   8.805  12.520
12499W        W80728   8.355  13.621   2.372
12500W        W80729   9.602   9.626   0.808
12501W        W80730  11.146  31.688   0.751
12502W        W80731  27.646   9.830   4.119
12503W        W80732  27.160  13.945   0.455
12504W        W80733  19.511   1.684  11.184
12505W        W80734  38.453  24.961   2.750
12506W        W80735   3.529  44.761   0.350
12507W        W80736   2.423  37.320   2.413
12508W        W80737  44.681  38.357   4.734
12509W        W80738  10.342  15.087   1.638
12510W        W80739  22.317   9.852  13.867
12511W        W80740  41.725  33.016   2.793
12512W        W80741  28.894  12.502  10.194
12513W        W80742  13.909  24.660  13.045
12514W        W80743  17.349  32.619   2.298
12515W        W80744   2.134  13.778  12.556
12516W        W80745  34.473  11.799  12.212
12517W        W80746  25.710  18.273   3.222
12518W        W80747  33.123  27.543   0.892
12519W        W80748  32.959   3.377  14.536
12520W        W80749   8.766  29.014  12.762
12521W        W80750  24.784  43.056  13.361
12522W        W80751  17.844  38.404   2.908
12523W        W80752  14.302  16.524  11.092
12524W        W80753   4.677  35.359   4.045
12525W        W80754   4.015  23.489  13.271
12526W        W80755  43.938  22.150   3.407
12527W        W80756   5.994   0.932  14.448
12528W        W80757  36.068  24.145   2.264
12529W        W80758  17.652   8.869   4.254
12530W        W80759   6.730  43.771   2.207
12531W        W80760  36.561  22.726  10.216
12532W        W80761  25.416  38.192  14.434
12533W        W80762   7.349  30.873   3.598
12534W        W80763  31.569  41.871  14.248
12535W        W80764   2.391   6.090   5.197
12536W        W80765   8.745  39.742   4.452
12537W        W80766  26.970   2.004  12.445
12538W        W80767  24.052  24.413   3.327
12539W        W80768   8.944  24.966   2.494
12540W        W80769   1.313  20.992  12.640
12541W        W80770  16.496  42.131   3.651
12542W        W80771  10.132  18.696  14.478
12543W        W80772  31.245  12.258  13.019
12544W        W80773  10.885  19.303   1.860
12545W        W80774  28.655   1.552  10.709
12546W        W80775  16.652   4.618  14.089
12547W        W80776  24.265   0.742   2.601
12548W        W80777  12.760   0.757  11.201
12549W        W80778  28.461  38.821   1.753
12550W        W80779  30.805  40.275   2.885
12551W        W80780  10.643  36.821  12.135
12552W        W80781  42.543  18.159   4.113
12553W        W80782   5.275  37.779  13.749
12554W        W80783  37.141  42.202  11.731
12555W        W80784  23.044  12.713   9.779
12556W        W80785  38.600  20.462   4.584
12557W        W80786  39.753  21.236  10.655
12558W        W80787  16.022  33.923  11.580
12559W        W80788  16.229  33.432  11.519
12560W        W80789  32.412  30.836  14.383
12561W        W80790  23.068   3.012  10.993
12562W        W80791  43.832   2.182   2.270
12563W        W80792   8.834  11.362   0.838
12564W        W80793  28.482  12.805   2.204
12565W        W80794  11.288  17.592  12.454
12566W        W80795  10.151  41.948   3.048
12567W        W80796  15.386  39.786   3.640
12568W        W80797  38.497  17.248  12.489
12569W        W80798  25.116  42.440  13.545
12570W        W80799  38.251   2.414   4.669
12571W        W80800  43.542  36.877   0.863
12572W        W80801  30.488   7.750   3.340
12573W        W80802  35.567  33.583   3.440
12574W        W80803  11.145  40.019  12.099
12575W        W80804  39.295  34.955  13.527
12576W        W80805   1.958  18.731   3.641
12577W        W80806   5.197   2.274   4.558
12578W        W80807  21.988  41.747  11.079
12579W        W80808  16.649  32.059   1.691
12580W        W80809  30.840   9.418  13.966
12581W        W80810  40.390  10.577   4.522
12582W        W80811  27.209   5.204  14.558
12583W        W80812   3.720  12.641  12.522
12584W        W80813   5.802  41.143  10.434
12585W        W80814  30.790  43.266   3.365
12586W        W80815  21.560  34.052  13.911
12587W        W80816   5.193  28.530   3.385
12588W        W80817  23.981  23.585   2.858
12589W        W80818  18.363  23.788  14.304
12590W        W80819   1.424  17.071   2.920
12591W        W80820  20.002  36.036   1.379
12592W        W80821  16.536   9.674  11.161
12593W        W80822  38.000  21.901  10.385
12594W        W80823   2.246  12.365  13.776
12595W        W80824  15.616  41.872   1.923
12596W        W80825  13.123  12.400  14.806
12597W        W80826  39.482  18.215   4.709
12598W        W80827  19.648  35.848  12.485
12599W        W80828  32.809  39.425   2.718
12600W        W80829  16.888  43.263   4.157
12601W        W80830   0.440  25.331  12.103
12602W        W80831  34.353  25.537   3.771
12603W        W80832  27.221  27.165   0.813
12604W        W80833   0.412  28.639   0.866
12605W        W80834   5.870  17.159   0.853
12606W        W80835   8.314  29.730   0.362
12607W        W80836  36.552   5.688   2.317
12608W        W80837  35.824  27.042  10.732
12609W        W80838   3.869  25.167   3.982
12610W        W80839   9.854  25.948   2.892
12611W        W80840  18.580  14.339   2.951
12612W        W80841  24.865   2.338   4.265
12613W        W80842  17.608   5.947  14.982
12614W        W80843  22.067   1.321  14.633
12615W        W80844  43.978  11.147   1.302
12616W        W80845  23.587  30.349   1.254
12617W        W80846  32.993  14.776   1.310
12618W        W80847   7.405  42.256  11.535
12619W        W80848  18.209  23.998  12.484
12620W        W80849  44.173   1.372  12.521
12621W        W80850  16.715   4.867  10.568
12622W        W80851  26.549  36.772   0.486
12623W        W80852  11.840  21.199   1.393
12624W        W80853  32.911  28.691  10.651
12625W        W80854   6.439   7.823   4.644
12626W        W80855  21.516  30.639  14.872
12627W        W80856   6.806  28.571   1.478
12628W        W80857  14.353  27.067  11.232
12629W        W80858  40.608  12.748   1.258
12630W        W80859  27.669  15.540   3.254
12631W        W80860  23.743   5.946  13.562
12632W        W80861  18.619  29.574   0.301
12633W        W80862   9.202   6.682   0.870
12634W        W80863  21.186  14.599  13.420
12635W        W80864   7.253  41.759   1.523
12636W        W80865  28.178  30.103  11.947
12637W        W80866  39.503  35.937  10.622
12638W        W80867  43.432   9.545   2.262
12639W        W80868  35.628  37.168  13.289
12640W        W80869   1.347  29.875   3.343
12641W        W80870  33.866   6.892  12.848
12642W        W80871  32.512  17.602   0.876
12643W        W80872  39.112  26.650   3.746
12644W        W80873  44.798  40.805  14.435
12645W        W80874  18.324  17.010   3.238
12646W        W80875  18.586  40.371   1.708
12647W        W80876  27.147  44.367  11.749
12648W        W80877  21.046  23.200   0.849
12649W        W80878  11.226  15.618   1.676
12650W        W80879  43.080  25.688  13.193
12651W        W80880  40.464  30.991  11.930
12652W        W80881  37.947   4.034   1.342
12653W        W80882  41.783   8.407   2.679
12654W        W80883  12.852  15.525   5.324
12655W        W80884  35.984  27.950  13.829
12656W        W80885  16.018  16.738  12.112
12657W        W80886  21.696  13.927   2.262
12658W        W80887  32.487   8.267   4.015
12659W        W80888  37.672  39.877  10.825
12660W        W80889  37.073  39.213  13.339
12661W        W80890  16.726  43.203   0.895
12662W        W80891  44.652  12.051  13.280
12663W        W80892   9.751  25.011  13.675
12664W        W80893  12.670   2.502   2.214
12665W        W80894  19.147  24.018   4.016
12666W        W80895  39.788  18.179   4.274
12667W        W80896  28.138  23.873   0.826
12668W        W80897  38.856  13.829   0.312
12669W        W80898  26.556  15.091  11.025
12670W        W80899  14.159  20.720  11.434
12671W        W80900  17.565  29.413  11.125
12672W        W80901  15.718  34.172   3.587
12673W        W80902  22.706  11.285   4.772
12674W        W80903  12.584  31.022  12.165
12675W        W80904  14.426  21.744  12.042
12676W        W80905  41.887  29.114   9.930
12677W        W80906  42.945  20.313   0.185
12678W        W80907  40.809  22.723   0.231
12679W        W80908  37.618   1.964   3.691
12680W        W80909  10.762  13.902   3.642
12681W        W80910  23.048  14.268   3.599
12682W        W80911  29.668  31.062   1.843
12683W        W80912  35.799  21.809  13.452
12684W        W80913  36.883  30.676  13.384
12685W        W80914   1.817   5.238   2.327
12686W        W80915  17.208  40.744   2.558
12687W        W80916  30.152  25.151  12.519
12688W        W80917  42.096  10.571  12.194
12689W        W80918  11.769   2.967  12.057
12690W        W80919   0.596  13.843  11.048
12691W        W80920   1.444  14.078   2.235
12692W        W80921  42.957  34.480  14.363
12693W        W80922  40.254   5.160  11.929
12694W        W80923  32.790  39.651   0.946
12695W        W80924  33.809  16.252  13.369
12696W        W80925  39.545  25.537   1.501
12697W        W80926  19.418   8.756  11.719
12698W        W80927  17.776  43.249   1.832
12699W        W80928  36.083   7.210  11.279
12700W        W80929  30.785  39.151  13.667
12701W        W80930  22.855  29.980  12.626
12702W        W80931  30.911  19.763  11.662
12703W        W80932   4.803  10.723   0.647
12704W        W80933   5.202  38.000  11.033
12705W        W80934   9.109  33.479  10.423
12706W        W80935  14.123  32.994   3.063
12707W        W80936  36.025  17.775   2.877
12708W        W80937  40.996  25.746  13.409
12709W        W80938   6.084  38.123   1.834
12710W        W80939  31.675   7.162   4.591
12711W        W80940  33.402  25.248  14.947
12712W        W80941  18.966  27.180  10.367
12713W        W80942   2.708  32.905   4.096
12714W        W80943  36.990  16.326  12.399
12715W        W80944  14.577  12.584  12.963
12716W        W80945   2.335  43.800   3.710
12717W        W80946  14.767  33.848   4.711
12718W        W80947  11.084  36.937  10.438
12719W        W80948   0.739  25.309  11.687
12720W        W80949  39.019  18.092  12.476
12721W        W80950  24.296  41.500  14.942
12722W        W80951  38.456  22.539  12.364
12723W        W80952  25.403  30.311   1.731
12724W        W80953  28.657   9.188  12.098
12725W        W80954  29.538  16.011   1.810
12726W        W80955  15.603  15.089  13.698
12727W        W80956  36.072  36.168  11.093
12728W        W80957  18.117   4.887  14.111
12729W        W80958  32.117  28.141  14.724
12730W        W80959  31.473  29.396   1.671
12731W        W80960  18.052  17.844   0.926
12732W        W80961  32.043  21.207  13.975
12733W        W80962  32.465  44.466   2.305
12734W        W80963  38.461  38.639  10.503
12735W        W80964  15.758  20.635   1.311
12736W        W80965  44.047  27.558   1.197
12737W        W80966   9.684  17.077   2.374
12738W        W80967  34.039  13.767  13.890
12739W        W80968  30.789   5.229  13.821
12740W        W80969  26.169  21.221   3.504
12741W        W80970  11.898  15.840  14.330
12742W        W80971  40.859   1.667  12.364
12743W        W80972   8.664   4.183   2.822
12744W        W80973  35.579  37.730   0.132
12745W        W80974  24.750  34.015   3.128
12746W        W80975  42.432   7.373   3.246
12747W        W80976  33.250  21.149  10.780
12748W        W80977   5.838   0.824  13.958
12749W        W80978   4.745  41.937  13.473
12750W        W80979   9.897  14.482  11.695
12751W        W80980  35.510  30.003   1.799
12752W        W80981  33.196  28.913  11.411
12753W        W80982  11.378  23.080   0.263
12754W        W80983   3.410   5.089  13.626
12755W        W80984  25.558  26.063   3.253
12756W        W80985  37.019  28.202   0.165
12757W        W80986  34.023  18.994   3.746
12758W        W80987  18.342   9.165   2.213
12759W        W80988  22.661  20.186   2.320
12760W        W80989   6.432   9.085  11.169
12761W        W80990  25.716  18.774  14.027
12762W        W80991  21.554  12.144  12.076
12763W        W80992  27.170  36.557  11.110
12764W        W80993   1.394  38.352  12.645
12765W        W80994  22.351   0.511   1.480
12766W        W80995  39.756  41.335  10.712
12767W        W80996  37.682  33.859  12.393
12768W        W80997  38.859   0.612  13.862
12769W        W80998  21.765  30.526  13.890
12770W        W80999  40.759  38.927   0.810
12771W        W81000  10.559  36.971  10.045
12772W        W81001  42.784  23.239   1.080
12773W        W81002  24.592  32.126  13.922
12774W        W81003  36.916  22.869  11.733
12775W        W81004   0.955  36.955  14.991
12776W        W81005  27.306  35.589  14.003
12777W        W81006   1.993  32.434  12.092
12778W        W81007  14.065  15.274  14.014
12779W        W81008  34.836  22.484   1.664
12780W        W81009  20.701  19.408  10.452
12781W        W81010  22.732  12.372  12.658
12782W        W81011  11.795  24.725   1.241
12783W        W81012  21.743   7.970  10.626
12784W        W81013   4.597  11.936   2.565
12785W        W81014  23.951  36.450  14.633
12786W        W81015  26.411  29.106  13.958
12787W        W81016  34.533  15.609  11.061
12788W        W81017   3.389  26.084   1.296
12789W        W81018  43.902   8.079  10.890
12790W        W81019  36.329  30.160  12.877
12791W        W81020   4.376  21.462  12.116
12792W        W81021   4.188  22.774  12.486
12793W        W81022  12.415   3.338   4.577
12794W        W81023  44.262  43.316  13.429
12795W        W81024   4.715  39.899   0.458
12796W        W81025  43.549  32.566   0.439
12797W        W81026  17.063   1.056  14.423
12798W        W81027  43.727  17.100   3.571
12799W        W81028  23.104  41.198   1.222
12800W        W81029  36.103  26.532   1.744
12801W        W81030   2.474  14.998  13.953
12802W        W81031  25.622  41.238   1.839
12803W        W81032   5.744  22.086  12.516
12804W        W81033   7.338  31.884   2.870
12805W        W81034  38.209  36.401   0.009
12806W        W81035  31.921  23.702   0.927
12807W        W81036  30.055  23.953   0.563
12808W        W81037  41.449  41.294  13.788
12809W        W81038  41.407   1.713   2.201
12810W        W81039  44.524   0.142  14.159
12811W        W81040  25.082  10.820   4.190
12812W        W81041  36.277  20.358  12.504
12813W        W81042  37.996  21.447  12.146
12814W        W81043  41.995  42.338  11.265
12815W        W81044  18.368  10.278  11.003
12816W        W81045  32.765  23.666   5.116
12817W        W81046   8.785   3.169  14.772
12818W        W81047  36.013   1.369  12.814
12819W        W81048  31.369  12.230   1.991
12820W        W81049  44.392  14.160   9.951
12821W        W81050  27.037  18.098   4.665
12822W        W81051  11.156  28.462  14.877
12823W        W81052  32.396   6.379  12.240
12824W        W81053  15.563  21.821  10.950
12825W        W81054   2.710  34.853   0.716
12826W        W81055  37.353  34.871  10.686
12827W        W81056   5.401  17.974  11.513
12828W        W81057   4.964  24.102   1.373
12829W        W81058  42.280  44.824  10.480
12830W        W81059  18.840   6.733  11.130
12831W        W81060  24.450  26.668  11.558
12832W        W81061   9.842  29.127  14.029
12833W        W81062   8.866  35.582  14.680
12834W        W81063  40.380   3.052  11.097
12835W        W81064   9.965  39.822   2.196
12836W        W81065  26.578  23.177   4.655
12837W        W81066  41.467  22.390   0.743
12838W        W81067  23.649  37.872  10.737
12839W        W81068  17.734  23.645  11.373
12840W        W81069  43.473   5.315   4.306
12841W        W81070  22.255  39.792  14.860
12842W        W81071  20.629  23.931  11.207
12843W        W81072  19.713   0.881   0.858
12844W        W81073  21.315   1.676  12.480
12845W        W81074  30.673  34.978   2.253
12846W        W81075   8.214  44.271  12.980
12847W        W81076  22.693   4.866  14.427
12848W        W81077  12.330  35.302  12.617
12849W        W81078  20.003   4.884  10.413
12850W        W81079  33.034  28.664   3.211
12851W        W81080  25.497  37.526   1.950
12852W        W81081  10.663   3.674  13.611
12853W        W81082  32.068  20.604   4.539
12854W        W81083   5.866  29.961   3.202
12855W        W81084   7.633  15.622  13.942
12856W        W81085  43.360  40.998  10.735
12857W        W81086  28.174  27.159  12.249
12858W        W81087  29.870  17.618  12.448
12859W        W81088  35.200   1.783   0.294
12860W        W81089  23.859  16.955   3.799
12861W        W81090  14.663  13.635   2.765
12862W        W81091   9.016   4.669  11.692
12863W        W81092  23.137  29.915   3.330
12864W        W81093  15.006  34.951  14.636
12865W        W81094   3.466  35.198  13.090
12866W        W81095  41.417   5.671  14.007
12867W        W81096  21.501  42.314   4.272
12868W        W81097   5.422  32.516   3.361
12869W        W81098   0.714  39.657  10.709
12870W        W81099  19.469  19.538  10.691
12871W        W81100  26.106   3.512   4.711
12872W        W81101  21.708  35.456   1.751
12873W        W81102  44.928   2.551  14.538
12874W        W81103  30.127  28.527   0.986
12875W        W81104  42.485  18.723   3.009
12876W        W81105  23.578  24.992   3.696
12877W        W81106  18.118   7.203  11.434
12878W        W81107   2.585  24.753  11.032
12879W        W81108  21.490  33.557  11.085
12880W        W81109  26.008  27.395   0.157
12881W        W81110  31.139  19.100  12.328
12882W        W81111  23.192  16.680   2.224
12883W        W81112   3.231   6.025   2.380
12884W        W81113  29.352  40.298   0.440
12885W        W81114  12.324   9.633   4.421
12886W        W81115   3.381  36.990  14.255
12887W        W81116  32.950  33.939   0.749
12888W        W81117  19.353  11.576  14.343
12889W        W81118  29.692  15.605  12.166
12890W        W81119  21.717   5.758  10.741
12891W        W81120  41.529   1.892  11.517
12892W        W81121   0.966  40.382   4.199
12893W        W81122  30.126  21.040  13.477
12894W        W81123  16.150   5.456   1.565
12895W        W81124  35.478  13.350  14.872
12896W        W81125  26.562  33.068  12.368
12897W        W81126  38.260   4.091  12.983
12898W        W81127   0.488   1.212  12.391
12899W        W81128  31.643  42.380  13.821
12900W        W81129  36.142   4.382   2.813
12901W        W81130  31.887  16.129   1.325
12902W        W81131  18.088  19.532   4.527
12903W        W81132  18.059   1.744   3.270
12904W        W81133  15.196  27.221   1.930
12905W        W81134  23.457  30.383  14.444
12906W        W81135  40.268   8.670   0.831
12907W        W81136  27.604  17.702  13.301
12908W        W81137  29.942  15.232   4.102
12909W        W81138  21.280  36.358   5.315
12910W        W81139   6.746   4.575  12.516
12911W        W81140   0.783  19.005   4.017
12912W        W81141  32.572   2.623   4.846
12913W        W81142  40.031  10.242   4.407
12914W        W81143  25.576  39.435  14.642
12915W        W81144  38.605  42.287  11.653
12916W        W81145  18.373  39.868   1.852
12917W        W81146  22.354  12.648  12.118
12918W        W81147  31.300  26.595   1.755
12919W        W81148   6.219  28.597   0.814
12920W        W81149  38.059   5.384  10.620
12921W        W81150   0.311  23.139   2.854
12922W        W81151  35.332  39.092   2.362
12923W        W81152  28.696   5.800  12.559
12924W        W81153   6.994   3.001  12.047
12925W        W81154  31.481  30.052   1.171
12926W        W81155   0.354   6.416  14.381
12927W        W81156   2.075  14.383   5.069
12928W        W81157  12.408   0.393  11.474
12929W        W81158   4.906   0.210  11.646
12930W        W81159  41.578  44.866  11.933
12931W        W81160   8.415  38.565   2.987
12932W        W81161  11.738   9.035  11.701
12933W        W81162  35.037  28.689   4.218
12934W        W81163  43.376  20.989   1.660
12935W        W81164  12.917  38.492  12.059
12936W        W81165  16.823   6.175   4.082
12937W        W81166  43.979  17.129   0.832
12938W        W81167  42.466  42.802  14.873
12939W        W81168  44.832  28.683  12.084
12940W        W81169  27.420  26.672  14.618
12941W        W81170  43.381  17.922   3.660
12942W        W81171  39.396   6.421   0.647
12943W        W81172   4.961   4.315   1.256
12944W        W81173  32.049   9.944   3.787
12945W        W81174  20.089  38.001  10.411
12946W        W81175   5.789  10.956   0.283
12947W        W81176   3.823  42.969  12.568
12948W        W81177  40.741  37.049   1.208
12949W        W81178  36.021   3.496   4.161
12950W        W81179  26.638  42.623  13.524
12951W        W81180  12.092  37.769  10.262
12952W        W81181   9.914  23.069  12.395
12953W        W81182  19.370   2.799  12.020
12954W        W81183  41.365  29.026  10.015
12955W        W81184  16.638  28.252   1.908
12956W        W81185   9.660  10.527  13.792
12957W        W81186  33.187  28.490   0.370
12958W        W81187  15.510  21.504   2.799
12959W        W81188  22.125  21.509  12.994
12960W        W81189  39.443   3.759  10.584
12961W        W81190  29.797  26.049  12.197
12962W        W81191   0.932  39.676   1.357
12963W        W81192  35.932  33.003   4.528
12964W        W81193  20.509  13.109   4.944
12965W        W81194   2.406   0.860   2.385
12966W        W81195  38.070  31.110  14.436
12967W        W81196  40.759  17.484  11.698
12968W        W81197  27.702  40.267  14.837
12969W        W81198  23.087   6.815   0.212
12970W        W81199  39.054  16.107  14.358
12971W        W81200  43.791  16.224   4.700
12972W        W81201  13.909  32.871  10.648
12973W        W81202  32.458  18.799   1.378
12974W        W81203   2.787  15.272  13.035
12975W        W81204  19.764   7.247  13.912
12976W        W81205   8.393   1.880  13.005
12977W        W81206  18.857  44.829   0.518
12978W        W81207  35.979  24.159  10.727
12979W        W81208  31.551  17.337  14.357
12980W        W81209  37.380   5.845   1.773
12981W        W81210  17.192   2.072   0.747
12982W        W81211  44.081  20.970  10.713
12983W        W81212  42.736  16.166  12.470
12984W        W81213  11.298  32.648  14.504
12985W        W81214  15.511  29.707  13.202
12986W        W81215  17.508   8.714  11.340
12987W        W81216  22.611   0.771  12.911
12988W        W81217  31.712  17.502   1.062
12989W        W81218  41.272  24.935  10.609
12990W        W81219  22.285  19.220  14.837
12991W        W81220  34.527  13.341  11.174
12992W        W81221  19.056  10.104  11.911
12993W        W81222   4.440  23.058   1.271
12994W        W81223  39.744   9.376  10.231
12995W        W81224  18.967  24.464  12.356
12996W        W81225  28.670   0.603   0.998
12997W        W81226  40.318  20.179   3.209
12998W        W81227  37.844  32.798  12.926
12999W        W81228  44.429   9.673   0.754
13000W        W81229  19.554  17.631  11.482
13001W        W81230  22.118  17.240   3.366
13002W        W81231  27.104  19.324   3.203
13003W        W81232   4.146  31.114   3.859
13004W        W81233   0.063  14.161  10.640
13005W        W81234  29.174  17.247   1.731
13006W        W81235  13.847  31.730  10.681
13007W        W81236  12.619  25.076   1.308
13008W        W81237  35.091   7.225   3.783
13009W        W81238  19.491  34.098  13.995
13010W        W81239  20.033  16.428   1.958
13011W        W81240  25.058  24.980  11.892
13012W        W81241  13.605  15.026   2.748
13013W        W81242  43.265  14.663  11.643
13014W        W81243  19.831  41.018  12.037
13015W        W81244  17.289  35.415   1.240
13016W        W81245  12.941   0.039   0.325
13017W        W81246  35.243  42.736  14.897
13018W        W81247  35.985   2.796   0.956
13019W        W81248  14.605  15.609  11.619
13020W        W81249  21.864  28.910   4.532
13021W        W81250  35.283  21.053  14.864
13022W        W81251  25.559  19.444  11.586
13023W        W81252   8.809   3.385  10.455
13024W        W81253   0.939  15.209  13.932
13025W        W81254  22.660  35.190  11.207
13026W        W81255  32.452  17.368   0.397
13027W        W81256   4.527  43.354  10.543
13028W        W81257  37.278  19.633   2.677
13029W        W81258  15.298  17.997   1.800
13030W        W81259  44.334  19.649  10.582
13031W        W81260  19.513   0.834  14.469
13032W        W81261  10.310  21.006  13.393
13033W        W81262  32.106  22.684  13.073
13034W        W81263  18.622  28.169  14.070
13035W        W81264  25.776  39.751  14.994
13036W        W81265  21.810  11.186  13.782
13037W        W81266   7.592   1.906  14.352
13038W        W81267   2.706  42.628   0.391
13039W        W81268  14.692  42.223  13.340
13040W        W81269  18.768  13.410  12.632
13041W        W81270  24.993   1.362   0.238
13042W        W81271  24.501  23.652   3.850
13043W        W81272  33.624  11.955  13.446
13044W        W81273  33.542  34.396   0.265
13045W        W81274   9.893  32.836   3.709
13046W        W81275  22.270  38.966  11.002
13047W        W81276  28.391  17.053  10.809
13048W        W81277   0.725   5.884   3.303
13049W        W81278  27.193  23.473  12.538
13050W        W81279  29.486   7.305   0.723
13051W        W81280   0.655  26.509  14.048
13052W        W81281  29.411  31.942  12.108
13053W        W81282  16.882  44.498  14.565
13054W        W81283   5.913   1.989   3.660
13055W        W81284  11.767   5.881   2.346
13056W        W81285   8.404  18.613   4.773
13057W        W81286   0.004   6.680   2.787
13058W        W81287  32.381  21.952  12.711
13059W        W81288  25.728  30.945  11.061
13060W        W81289  32.195  11.859   4.421
13061W        W81290   4.196  26.884  13.491
13062W        W81291   1.048  14.003  10.832
13063W        W81292  26.927  22.762   3.362
13064W        W81293  44.451  29.514  10.719
13065W        W81294  26.285  10.209   2.981
13066W        W81295  32.519  22.951  12.897
13067W        W81296  16.965   6.192  11.020
13068W        W81297   5.201  44.756  11.626
13069W        W81298   7.129   4.334   2.678
13070W        W81299  20.671   2.350   1.465
13071W        W81300  30.003   7.100  12.607
13072W        W81301  12.771  16.005   3.097
13073W        W81302  35.557  40.663   2.665
13074W        W81303  29.777  33.427  12.583
13075W        W81304  17.064  33.651   0.874
13076W        W81305  13.153  34.124  13.518
13077W        W81306  36.238  43.661  14.462
13078W        W81307  20.849   5.839  11.132
13079W        W81308  24.230  39.945   9.832
13080W        W81309  13.834  19.542  11.450
13081W        W81310  21.183  16.027   3.924
13082W        W81311  35.308  25.785   4.040
13083W        W81312  18.096  31.902   3.240
13084W        W81313  35.549  12.370  12.595
13085W        W81314  42.090  44.437  11.896
13086W        W81315  24.003  43.407   0.315
13087W        W81316  27.796  30.337  14.933
13088W        W81317   0.542  21.157   4.522
13089W        W81318  28.721  35.086   4.885
13090W        W81319  23.772  33.468   1.821
13091W        W81320  23.020  17.742  12.362
13092W        W81321  13.797   2.874   3.491
13093W        W81322   0.994  21.631   3.402
13094W        W81323   6.399  20.518   3.559
13095W        W81324  24.521  40.750   2.778
13096W        W81325  40.877  15.405   1.778
13097W        W81326  25.330  11.184  11.978
13098W        W81327  15.183  14.673  14.234
13099W        W81328  31.544   6.255   2.204
13100W        W81329   4.031  26.106   0.937
13101W        W81330  29.911  26.951   2.681
13102W        W81331  25.678  12.327  12.623
13103W        W81332   5.201  29.449   3.061
13104W        W81333   3.292   7.764  13.489
13105W        W81334  43.385   5.410  13.933
13106W        W81335  16.206  15.395  14.968
13107W        W81336  24.924  17.822   3.342
13108W        W81337  16.027  42.651  11.116
13109W        W81338  33.286   4.929  11.102
13110W        W81339  17.507  21.961  11.947
13111W        W81340  44.541  36.228  11.501
13112W        W81341  33.511  38.860  10.518
13113W        W81342  42.798  37.632  14.906
13114W        W81343  43.675   8.776  13.322
13115W        W81344  33.490  25.393  11.599
13116W        W81345   8.250  42.710   2.296
13117W        W81346  27.658  38.063  13.927
13118W        W81347   0.877  23.814  12.659
13119W        W81348  40.504  17.176  14.275
13120W        W81349  22.124  42.284   0.406
13121W        W81350  31.119  24.454   2.215
13122W        W81351  22.547  29.359  14.311
13123W        W81352   5.912  25.660  12.520
13124W        W81353  15.637  43.377   2.852
13125W        W81354   5.236  24.557  10.698
13126W        W81355  38.234  27.463  10.304
13127W        W81356  32.466  25.092  12.885
13128W        W81357  43.428  26.567   4.507
13129W        W81358   0.347  14.232   2.835
13130W        W81359  30.669  25.072   1.478
13131W        W81360  11.836  42.750   4.288
13132W        W81361  11.772  25.611  10.508
13133W        W81362  16.705  36.884  13.051
13134W        W81363  41.535  28.209  14.097
13135W        W81364  32.536  44.831   1.559
13136W        W81365  13.231   7.921  12.948
13137W        W81366  16.813  34.120  14.343
13138W        W81367  17.234  43.386  14.337
13139W        W81368  32.096  23.215  13.029
13140W        W81369   9.094  16.308   1.706
13141W        W81370  19.597  23.149  13.950
13142W        W81371  15.605  28.711  14.165
13143W        W81372  19.059  43.916  14.034
13144W        W81373   8.478  24.969   2.245
13145W        W81374  19.018   4.075   4.275
13146W        W81375  19.814  12.316   1.681
13147W        W81376  22.732   9.233   4.218
13148W        W81377   9.842   8.714  12.952
13149W        W81378  20.557  32.281   1.146
13150W        W81379   9.733  23.727  13.718
13151W        W81380   7.707  28.705  11.903
13152W        W81381  25.928  39.252  11.131
13153W        W81382  17.880  31.404  10.321
13154W        W81383   2.949  21.590   1.933
13155W        W81384   1.048  11.250  10.429
13156W        W81385  24.472  42.756   4.613
13157W        W81386   3.813  31.940   4.674
13158W        W81387  18.182  23.013  14.800
13159W        W81388  30.417  25.036   1.928
13160W        W81389  37.397  11.416  12.024
13161W        W81390   6.437  18.266   3.278
13162W        W81391   6.347  28.110   3.621
13163W        W81392  14.671  20.576   4.181
13164W        W81393  17.535   7.128  10.686
13165W        W81394   0.968  44.740  11.043
13166W        W81395  36.472   4.383  12.532
13167W        W81396   7.625  13.238  11.454
13168W        W81397  32.781  13.387   2.571
13169W        W81398  41.592  13.610   0.055
13170W        W81399   2.572  43.030  10.501
13171W        W81400  16.074  31.469  10.431
13172W        W81401  42.858   1.877   4.660
13173W        W81402  24.294   6.451  12.402
13174W        W81403   4.842  23.279   3.831
13175W        W81404   1.606   0.367  12.089
13176W        W81405  27.993  37.270   4.605
13177W        W81406  25.478  17.195  12.677
13178W        W81407  23.620  13.588  11.208
13179W        W81408  24.064  29.156   3.582
13180W        W81409  20.836  20.272   3.828
13181W        W81410  33.521  29.453   0.536
13182W        W81411  19.526  31.948   2.225
13183W        W81412  25.974  12.928  13.103
13184W        W81413  10.308  41.227   2.601
13185W        W81414   5.223  42.292  12.717
13186W        W81415  22.553  40.935  11.390
13187W        W81416   0.638  25.292  11.184
13188W        W81417  41.571  25.562  13.172
13189W        W81418  37.963  36.869  11.713
13190W        W81419   6.795  44.359  14.808
13191W        W81420  22.108  32.923   2.833
13192W        W81421  27.259  10.446  11.569
13193W        W81422  17.581   6.373   3.683
13194W        W81423  41.553  30.216  11.112
13195W        W81424  14.141  44.587   2.252
13196W        W81425  29.403   4.397   1.312
13197W        W81426  43.817   2.573  10.658
13198W        W81427  13.526  16.338  13.144
13199W        W81428  43.044   6.409   5.200
13200W        W81429   4.392   1.977  14.411
13201W        W81430   0.078  31.499   0.931
13202W        W81431   8.358  12.216   2.844
13203W        W81432  36.781  13.034   4.705
13204W        W81433  26.298  20.696  14.376
13205W        W81434   9.733  11.270  10.019
13206W        W81435  13.673   8.178  12.688
13207W        W81436  15.921   6.112   4.145
13208W        W81437  40.308  22.759   0.376
13209W        W81438  28.692  18.247  11.472
13210W        W81439  43.830  42.698  14.743
13211W        W81440  11.167  22.085   3.376
13212W        W81441   7.752  17.820  11.616
13213W        W81442  31.454   1.496  13.105
13214W        W81443  15.770  32.456  13.905
13215W        W81444  20.127  15.191  13.623
13216W        W81445  18.574   3.403  10.560
13217W        W81446  30.449  20.958   1.275
13218W        W81447  14.554  22.084   3.618
13219W        W81448  18.311   5.524   1.750
13220W        W81449  40.769  22.720   4.438
13221W        W81450  31.920  14.295  12.299
13222W        W81451   7.417  16.139  11.867
13223W        W81452  44.261  13.171   5.024
13224W        W81453  38.099  18.201   0.871
13225W        W81454  44.664  15.485  14.494
13226W        W81455  19.242  17.615  11.072
13227W        W81456  38.377  24.022   2.891
13228W        W81457  32.946  35.542  10.689
13229W        W81458  17.381  42.596  12.061
13230W        W81459  19.379  39.125   0.436
13231W        W81460  19.345  27.679  13.583
13232W        W81461  43.411   5.897  13.793
13233W        W81462  23.480  34.363   4.073
13234W        W81463  23.743  20.547   2.745
13235W        W81464  16.009  35.499   2.611
13236W        W81465  15.913   5.367   2.639
13237W        W81466  21.271  41.714  14.001
13238W        W81467  12.784  20.821  12.359
13239W        W81468  44.523  43.747   3.263
13240W        W81469  35.656  27.126   4.172
13241W        W81470  20.283   7.207   0.287
13242W        W81471  25.185  21.683   0.241
13243W        W81472   0.485  10.160  12.280
13244W        W81473  34.641  39.438  10.421
13245W        W81474   5.470  39.276   0.284
13246W        W81475  25.642  18.711  14.521
13247W        W81476   2.329  41.227   3.322
13248W        W81477  29.912  15.642  11.119
13249W        W81478   6.168  42.881   1.419
13250W        W81479  35.099   3.770   2.352
13251W        W81480  21.604  28.187   4.164
13252W        W81481  12.255   2.208   2.889
13253W        W81482  30.877  18.233   4.113
13254W        W81483   1.355  33.606  10.718
13255W        W81484   7.174  12.655   3.702
13256W        W81485  14.324  44.468  14.331
13257W        W81486   3.347  16.086   3.777
13258W        W81487  10.804  34.288   1.854
13259W        W81488   2.431  33.238   0.602
13260W        W81489  16.497  34.758   9.969
13261W        W81490  41.047  10.316  10.554
13262W        W81491  19.808  36.148   2.625
13263W        W81492  25.914   3.346  14.668
13264W        W81493  39.900  16.070  12.437
13265W        W81494  27.014   8.864   2.742
13266W        W81495  13.346   1.020   2.415
13267W        W81496  11.785   9.812  11.115
13268W        W81497  12.487  11.463   4.869
13269W        W81498  35.980  31.918   1.633
13270W        W81499  14.556  44.386  11.556
13271W        W81500  13.345   7.999  11.034
13272W        W81501  30.927  25.472   4.291
13273W        W81502  26.475  31.002   2.153
13274W        W81503  31.237   3.462  12.401
13275W        W81504  43.746   3.293   4.531
13276W        W81505  33.878  43.508   0.989
13277W        W81506  13.875  42.427  14.725
13278W        W81507   3.717  10.372   2.141
13279W        W81508  13.611  13.698  11.423
13280W        W81509  21.254  44.045  13.261
13281W        W81510  42.930  44.407   2.661
13282W        W81511  34.359  18.661  13.218
13283W        W81512  15.130  17.142   4.080
13284W        W81513  19.621  34.964  11.875
13285W        W81514   2.434  37.124  12.152
13286W        W81515   3.461   2.872  11.542
13287W        W81516  36.111  40.968  10.534
13288W        W81517  32.674  12.307   2.235
13289W        W81518   7.816  41.072   4.438
13290W        W81519  20.298  23.809  10.548
13291W        W81520   3.720  14.799  11.216
13292W        W81521   5.123  22.604  14.393
13293W        W81522  38.975  31.425  11.216
13294W        W81523  27.585  35.494  10.112
13295W        W81524   3.303  17.484  12.458
13296W        W81525  22.278  25.954  13.912
13297W        W81526  19.771   2.402  12.200
13298W        W81527  20.295  17.401  11.718
13299W        W81528  23.066   0.894   4.070
13300W        W81529  27.584  38.568  13.949
13301W        W81530  44.029  12.390   2.548
13302W        W81531  40.349  38.403   3.421
13303W        W81532  36.964  37.248  14.223
13304W        W81533  23.141  33.416  12.977
13305W        W81534  10.587  32.094  11.005
13306W        W81535   4.371   1.637  14.792
13307W        W81536  40.359  37.280   0.011
13308W        W81537  40.109   1.899  14.324
13309W        W81538  41.784  25.522   2.732
13310W        W81539  19.256  17.811  14.380
13311W        W81540   2.989   4.938   4.654
13312W        W81541  15.560  29.346   1.135
13313W        W81542  38.511   9.179  13.007
13314W        W81543  39.014   9.871  12.439
13315W        W81544  30.595  25.160   0.440
13316W        W81545  24.105  40.157   1.466
13317W        W81546  18.599  15.548   4.103
13318W        W81547   2.336  31.438  10.691
13319W        W81548   5.177  10.201   2.346
13320W        W81549  10.302   2.037  11.523
13321W        W81550   2.058  30.464   4.631
13322W        W81551  16.300  12.139   1.782
13323W        W81552  41.066  34.462   4.851
13324W        W81553  36.101   3.131   3.827
13325W        W81554  23.936  11.534  12.375
13326W        W81555   8.259  38.313  13.161
13327W        W81556   7.833   1.789   0.812
13328W        W81557  24.335  42.967  13.585
13329W        W81558   3.788   1.429   3.720
13330W        W81559   2.873   2.526  10.589
13331W        W81560  18.326   3.518  12.453
13332W        W81561  11.165  28.046  13.558
13333W        W81562  12.699  15.145   4.958
13334W        W81563  16.646   1.057   3.006
13335W        W81564  21.284   3.372   0.298
13336W        W81565   6.951  22.046  12.600
13337W        W81566   6.286   4.499   3.653
13338W        W81567  12.535   6.791   1.544
13339W        W81568  33.062  13.542   3.432
13340W        W81569  31.138  20.685  11.138
13341W        W81570  17.163  44.598  14.979
13342W        W81571  42.385   8.252   1.506
13343W        W81572  42.527  37.408   3.590
13344W        W81573  43.912  35.664   4.842
13345W        W81574   6.758   5.317   4.093
13346W        W81575  43.406   8.057   0.997
13347W        W81576   8.717   0.606   0.417
13348W        W81577  31.407  15.937   4.498
13349W        W81578   2.472   9.747   3.675
13350W        W81579   8.760  25.628  14.963
13351W        W81580  31.058  16.218  14.343
13352W        W81581  32.759  36.907  14.400
13353W        W81582  22.128  42.243  11.123
13354W        W81583  32.161  41.583   1.295
13355W        W81584   9.251  21.226  13.066
13356W        W81585  40.235  31.109  12.363
13357W        W81586  39.144   1.631   3.518
13358W        W81587  32.187  35.657  11.177
13359W        W81588  14.217   8.459  11.472
13360W        W81589  23.962  42.303  10.625
13361W        W81590   7.376  10.153  13.100
13362W        W81591  12.775   3.943   3.256
13363W        W81592  34.315  43.904  14.021
13364W        W81593  36.040  32.900   1.832
13365W        W81594  39.495  22.646  11.586
13366W        W81595  36.439  19.574   0.447
13367W        W81596  19.172   0.846  11.382
13368W        W81597  24.994  43.323   4.212
13369W        W81598  26.820  43.051   1.158
13370W        W81599  19.261  28.984  14.828
13371W        W81600  14.893   4.671   1.398
13372W        W81601   9.365   6.634   4.607
13373W        W81602  37.566  26.886  13.500
13374W        W81603  42.782  32.997   2.912
13375W        W81604  25.620   4.929  14.831
13376W        W81605   1.896  23.089   1.718
13377W        W81606  27.766  16.774   0.088
13378W        W81607  38.255  30.395  11.573
13379W        W81608   9.326  31.641  14.809
13380W        W81609  24.183  22.199  14.450
13381W        W81610  19.497  34.164   1.807
13382W        W81611  33.931  43.889  12.930
13383W        W81612  24.038  29.880  11.064
13384W        W81613  13.438  27.034  14.217
13385W        W81614  13.241  39.016  14.840
13386W        W81615  23.416   6.234   2.821
13387W        W81616  17.118   8.897  11.639
13388W        W81617  24.086  36.082   1.371
13389W        W81618   1.398   1.943   2.850
13390W        W81619  21.416  27.258  14.893
13391W        W81620   9.036   5.682   2.726
13392W        W81621  17.462   0.257  12.502
13393W        W81622   0.893  16.101   0.508
13394W        W81623  11.610  28.966   1.585
13395W        W81624  26.431  21.522  14.678
13396W        W81625  25.238  28.118   3.778
13397W        W81626  23.767  22.093   0.271
13398W        W81627  34.945   3.733  12.915
13399W        W81628  37.341  39.804   0.578
13400W        W81629  16.306   1.988  13.512
13401W        W81630  10.798   0.478  13.066
13402W        W81631  15.641  31.408   2.245
13403W        W81632  15.857  12.366  10.423
13404W        W81633  27.684  17.481  10.861
13405W        W81634  13.224  34.048   3.465
13406W        W81635   4.112   3.513  11.947
13407W        W81636  44.324  21.726  13.577
13408W        W81637   7.778  16.662   3.299
13409W        W81638  43.752   5.236   1.285
13410W        W81639  14.489  22.292   1.703
13411W        W81640  44.148  40.820   0.718
13412W        W81641  33.594  29.818   4.668
13413W        W81642  17.679  26.655   0.402
13414W        W81643   7.507  27.919  12.966
13415W        W81644  22.857  40.927   2.582
13416W        W81645  17.537  21.962   3.560
13417W        W81646  44.973  41.459   2.055
13418W        W81647  24.204   6.826  13.880
13419W        W81648  32.950  33.021   3.761
13420W        W81649  10.196  14.995   0.337
13421W        W81650  17.595   1.797  14.546
13422W        W81651  10.907  34.232  14.929
13423W        W81652  20.603   8.130  10.778
13424W        W81653  38.276   5.834  12.817
13425W        W81654  10.729  22.155   2.317
13426W        W81655  27.160  30.587  12.442
13427W        W81656  37.293  38.019   2.773
13428W        W81657   1.268  24.695   4.056
13429W        W81658  38.659  31.072   3.609
13430W        W81659  22.145  11.122   4.217
13431W        W81660   8.080   4.655   0.189
13432W        W81661  24.747   2.169   1.445
13433W        W81662  16.731  39.339  11.145
13434W        W81663  37.217  44.831   2.619
13435W        W81664  36.903  32.455  10.187
13436W        W81665   4.482  24.950   3.303
13437W        W81666  11.740  27.676  12.579
13438W        W81667  12.112  25.096  12.578
13439W        W81668  33.031  36.749  13.985
13440W        W81669  12.119  18.209   2.347
13441W        W81670   8.272  39.460   2.431
13442W        W81671   1.015  17.597  14.854
13443W        W81672  26.316  20.174  11.171
13444W        W81673   7.884  42.370   2.106
13445W        W81674  14.130  16.491  12.036
13446W        W81675  30.626  14.566   1.380
13447W        W81676  39.110  23.399   2.632
13448W        W81677  23.295  34.974   1.356
13449W        W81678  41.811  20.131   0.097
13450W        W81679  32.537   6.011   0.250
13451W        W81680  28.163  16.098   2.804
13452W        W81681  39.611   0.444   4.226
13453W        W81682  43.478  16.587  13.464
13454W        W81683   4.161   4.738  11.501
13455W        W81684  30.725  33.547  10.678
13456W        W81685  28.915  14.066  11.595
13457W        W81686  28.164  24.965   4.007
13458W        W81687  28.625  33.189  13.434
13459W        W81688   9.274   5.929  14.722
13460W        W81689  41.941  13.704  13.149
13461W        W81690  20.970  32.095  14.981
13462W        W81691  14.511  26.113  14.652
13463W        W81692  41.278   4.719  14.941
13464W        W81693  23.193   1.456   0.412
13465W        W81694  43.134   0.733  11.509
13466W        W81695  16.815   4.988   1.359
13467W        W81696  32.012  42.768  12.052
13468W        W81697  11.629  41.660   2.003
13469W        W81698   6.334   8.108   2.379
13470W        W81699  38.320  37.350  11.992
13471W        W81700   7.871  42.543  10.587
13472W        W81701   8.090  16.137  12.860
13473W        W81702  44.327  37.328   4.124
13474W        W81703  26.242  30.633  13.731
13475W        W81704  24.447  39.414  11.598
13476W        W81705  33.802  18.625  13.538
13477W        W81706   2.524  14.155   3.764
13478W        W81707  30.090  25.821   4.959
13479W        W81708  28.963   7.193   3.465
13480W        W81709  30.906   6.932   3.679
13481W        W81710  18.137  10.733  13.351
13482W        W81711   0.409  24.762   3.648
13483W        W81712   6.551  18.158   1.441
13484W        W81713  38.058  40.023   3.357
13485W        W81714  26.931   2.327   3.338
13486W        W81715  28.097  34.438   3.172
13487W        W81716  37.418  43.227   3.328
13488W        W81717  32.638  44.384   1.832
13489W        W81718  10.603  36.479  13.555
13490W        W81719   9.685  43.060  13.942
13491W        W81720  20.838  13.228   0.468
13492W        W81721  22.860  34.156  12.853
13493W        W81722  13.065  40.726   4.542
13494W        W81723  25.223  29.873  13.557
13495W        W81724  15.625  23.174  12.101
13496W        W81725   1.462  10.724   3.282
13497W        W81726  12.990  42.827  10.776
13498W        W81727  10.608  38.285  11.675
13499W        W81728  27.252  41.520   5.146
13500W        W81729   3.419  43.832  12.679
13501W        W81730  30.211  14.162   2.698
13502W        W81731  38.983  37.925  11.533
13503W        W81732  44.100  10.151  12.162
13504W        W81733  19.062  10.460   4.982
13505W        W81734  17.226  32.254   3.330
13506W        W81735  41.468   1.748  12.905
13507W        W81736  28.666  14.760   2.011
13508W        W81737  21.578  29.582  12.560
13509W        W81738  28.453  32.925  13.881
13510W        W81739  13.134   4.741  11.560
13511W        W81740  44.100  22.985  10.748
13512W        W81741   0.224  30.152   0.696
13513W        W81742  31.554  14.383   4.636
13514W        W81743  19.510  24.677   3.002
13515W        W81744   5.275   1.924  14.727
13516W        W81745  15.852  21.651  10.540
13517W        W81746  10.861  10.636   2.216
13518W        W81747  25.731  32.070   2.721
13519W        W81748  12.391  14.299   1.712
13520W        W81749  17.613  42.714  13.859
13521W        W81750  24.688   7.270   4.818
13522W        W81751  13.155   8.425   0.731
13523W        W81752   5.472  36.438   0.006
13524W        W81753  10.338  37.374   1.375
13525W        W81754  31.621  37.070  12.144
13526W        W81755  34.638  39.954   3.781
13527W        W81756  39.549  21.024  11.473
13528W        W81757  42.898   2.762   4.635
13529W        W81758   3.586  33.437   3.659
13530W        W81759  33.959  37.448   4.592
13531W        W81760  37.536   1.293   1.218
13532W        W81761  29.189   6.733   0.865
13533W        W81762   4.468   4.266  12.187
13534W        W81763  21.650   9.716   0.270
13535W        W81764   0.503  27.634   2.689
13536W        W81765  22.969  36.522   2.761
13537W        W81766   3.814  28.635   0.260
13538W        W81767  40.945   1.986   3.253
13539W        W81768  13.227  34.911   1.822
13540W        W81769  27.762  21.461   2.734
13541W        W81770  28.722  41.543  11.529
13542W        W81771  34.349  26.630   4.532
13543W        W81772   7.191  43.008  10.622
13544W        W81773  15.222   0.310  11.566
13545W        W81774  17.331  14.187   3.686
13546W        W81775  36.607  13.285  12.177
13547W        W81776   2.547  39.558  11.955
13548W        W81777  30.008  23.430   0.547
13549W        W81778  10.715  39.315  13.498
13550W        W81779  13.585  35.878  10.961
13551W        W81780  21.019  10.849   3.716
13552W        W81781  28.004  25.720  12.635
13553W        W81782  12.128   6.376   4.907
13554W        W81783  38.883  34.698   2.158
13555W        W81784  24.062  33.310  13.057
13556W        W81785  42.466   9.674   0.909
13557W        W81786  24.206  16.258   1.345
13558W        W81787   1.555  28.687  13.981
13559W        W81788  15.906  40.880   1.706
13560W        W81789  35.055  24.964   4.675
13561W        W81790  11.936  43.314   3.180
13562W        W81791  41.787  11.357  11.760
13563W        W81792  21.701  38.946  10.282
13564W        W81793  24.597  43.831   1.603
13565W        W81794   5.406   1.186   1.107
13566W        W81795  31.653   3.820  10.388
13567W        W81796  25.294  37.854   0.220
13568W        W81797  41.573  38.565  11.730
13569W        W81798  25.673  26.358   2.812
13570W        W81799  17.074  10.698   5.028
13571W        W81800  39.143   7.754  13.331
13572W        W81801  14.475  19.496   1.400
13573W        W81802   4.030  32.517   0.020
13574W        W81803   9.874  29.228   4.228
13575W        W81804  24.014  42.487   4.531
13576W        W81805  31.012  27.684   0.009
13577W        W81806   6.070  11.798   1.934
13578W        W81807   0.293  21.725   2.074
13579W        W81808  17.087   5.341  12.550
13580W        W81809  13.856  43.832  11.160
13581W        W81810  27.422   7.476  14.382
13582W        W81811  18.748  16.864  12.032
13583W        W81812  39.476  28.131   3.715
13584W        W81813  35.096   6.752  11.525
13585W        W81814  29.488  39.093  14.389
13586W        W81815  19.550   8.562   1.934
13587W        W81816  36.920   1.701  14.841
13588W        W81817  37.361   7.783  11.952
13589W        W81818   4.839  27.114   4.031
13590W        W81819  42.278  26.597   0.291
13591W        W81820   3.959  37.570   1.928
13592W        W81821   1.116  12.338  11.851
13593W        W81822  32.868   5.940  13.143
13594W        W81823  12.653   2.825  13.875
13595W        W81824  12.935  37.944  14.224
13596W        W81825  35.297  35.344   2.794
13597W        W81826   1.196  20.343  11.698
13598W        W81827  30.951   1.946  11.532
13599W        W81828   4.276  25.423   2.234
13600W        W81829  18.928   1.756  12.706
13601W        W81830  26.093   1.457   3.443
13602W        W81831  34.528  43.501   0.281
13603W        W81832  41.582   9.776  13.351
13604W        W81833  37.751  10.265  11.414
13605W        W81834   2.281  28.859  10.311
13606W        W81835  31.968  15.541   3.662
13607W        W81836  41.901  11.722   4.560
13608W        W81837  36.576  10.918   2.667
13609W        W81838  37.340   5.392   0.115
13610W        W81839  27.056  16.160  11.176
13611W        W81840  21.691  16.689  12.843
13612W        W81841   0.440  11.695  10.866
13613W        W81842   5.150   4.143   0.759
13614W        W81843  28.435  35.382  11.142
13615W        W81844   6.873  34.038  14.986
13616W        W81845  22.971  27.055  13.007
13617W        W81846   9.376  13.319   2.815
13618W        W81847  22.168  27.667  14.130
13619W        W81848  39.544  27.520  13.525
13620W        W81849  34.140   7.412  12.838
13621W        W81850  10.787   6.384   2.935
13622W        W81851  40.345   9.377  11.713
13623W        W81852  22.722  41.404  11.211
13624W        W81853   2.330  30.161  13.784
13625W        W81854  22.537   1.444  10.198
13626W        W81855  13.160  44.961  12.818
13627W        W81856  36.448  32.215  10.085
13628W        W81857  28.246  42.610   2.228
13629W        W81858   9.086   0.378   2.658
13630W        W81859  40.106  31.736   1.420
13631W        W81860  31.219  42.918   1.412
13632W        W81861  25.539  18.073  14.392
13633W        W81862  24.251   4.199  11.917
13634W        W81863  38.388  38.847  10.988
13635W        W81864  26.766  40.284  14.793
13636W        W81865  17.058  44.931   3.746
13637W        W81866  33.423  29.865   3.173
13638W        W81867  32.631  41.386   0.796
13639W        W81868  37.238  14.188  14.418
13640W        W81869  39.430  35.790   0.077
13641W        W81870  38.889  11.022   5.214
13642W        W81871  34.956  34.543   2.783
13643W        W81872  43.243  34.506   1.078
13644W        W81873  36.336  34.887   4.904
13645W        W81874  37.310  18.108  14.916
13646W        W81875  41.280  22.602   1.181
13647W        W81876  43.354   1.510   2.855
13648W        W81877  23.045  18.987   4.567
13649W        W81878  39.447  19.188  11.212
13650W        W81879  30.070  36.832   0.450
13651W        W81880  44.492  39.417   0.825
13652W        W81881  13.751   2.130  12.045
13653W        W81882  35.185   1.899   1.388
13654W        W81883  32.578  26.072  13.936
13655W        W81884  16.461  42.887   1.721
13656W        W81885  41.755  41.422  11.945
13657W        W81886  33.844   2.492  14.333
13658W        W81887  34.884  23.656  13.104
13659W        W81888  40.336  32.915  14.774
13660W        W81889  41.854  42.014  12.584
13661W        W81890  39.938   2.449   2.954
13662W        W81891  22.985   7.789   3.483
13663W        W81892   7.725  43.446  11.561
13664W        W81893  39.512  32.566   5.037
13665W        W81894   4.219  33.595  14.470
13666W        W81895  33.506  31.495   0.819
13667W        W81896  15.021  26.916  14.296
13668W        W81897   3.720   8.387  13.457
13669W        W81898  16.892  23.305   1.167
13670W        W81899  22.501  17.165   2.451
13671W        W81900  21.909  25.803  10.989
13672W        W81901  44.148  29.109  12.559
13673W        W81902  43.881  30.676  13.067
13674W        W81903  13.350  31.132   0.698
13675W        W81904   4.659   4.835   2.349
13676W        W81905  23.182  44.412  12.351
13677W        W81906  12.318  22.594   1.236
13678W        W81907  22.010   0.257  14.937
13679W        W81908  33.070  44.693   0.447
13680W        W81909  20.578  22.755   4.679
13681W        W81910  18.466   1.265  11.527
13682W        W81911  11.862   7.285  13.869
13683W        W81912  43.918  33.924  13.201
13684W        W81913   0.235  19.533   2.663
13685W        W81914  20.251   0.756   1.753
13686W        W81915  36.367  40.623   0.775
13687W        W81916  35.581  34.409   0.385
13688W        W81917  44.631  20.463   4.389
13689W        W81918  40.985  20.673  10.811
13690W        W81919  24.225  15.298   0.724
13691W        W81920  18.239   4.017  12.648
13692W        W81921  42.238  39.947  12.499
13693W        W81922  25.728   6.922  11.005
13694W        W81923   4.792  19.562  14.904
13695W        W81924  43.539  19.195   0.934
13696W        W81925  23.628  32.322  10.109
13697W        W81926  11.413  31.542  13.666
13698W        W81927   8.030   5.846   0.427
13699W        W81928  32.052   2.902   4.699
13700W        W81929  28.442  31.545  14.816
13701W        W81930  19.346  21.981  12.560
13702W        W81931  35.040  15.629  13.868
13703W        W81932  10.705  11.861  12.045
13704W        W81933  12.237  14.923  12.889
13705W        W81934   9.155  34.510  13.709
13706W        W81935  10.871  42.883   4.556
13707W        W81936  37.045  42.557  14.098
13708W        W81937  29.995   0.772   3.640
13709W        W81938  37.011  19.988  14.714
13710W        W81939  33.655   5.196   0.797
13711W        W81940  40.379  10.347  11.939
13712W        W81941   9.583  31.678  12.543
13713W        W81942  14.852  31.875   4.122
13714W        W81943   1.182  12.197  11.347
13715W        W81944   9.146  21.265   0.098
13716W        W81945   8.301  16.311   2.836
13717W        W81946  34.176  39.134   1.699
13718W        W81947  44.401   3.016  13.967
13719W        W81948  28.912  29.573   2.246
13720W        W81949  28.945   3.903  11.499
13721W        W81950  26.575  33.561   3.303
13722W        W81951  21.142  28.158  14.273
13723W        W81952  37.603  30.949   0.363
13724W        W81953  37.754  23.241   3.116
13725W        W81954  21.503  38.254   4.248
13726W        W81955  40.317  23.072   2.655
13727W        W81956  18.638   5.730   0.901
13728W        W81957  10.111  20.569   1.224
13729W        W81958  19.259  32.389  14.426
13730W        W81959  34.536   3.964   0.158
13731W        W81960  18.075  31.461   0.684
13732W        W81961   6.912  25.293   3.313
13733W        W81962  11.707   5.163  13.387
13734W        W81963  10.920  32.068   2.781
13735W        W81964  27.542  22.135   4.359
13736W        W81965  30.155  35.993  10.708
13737W        W81966  23.329  33.354  14.897
13738W        W81967  18.732  14.714  14.832
13739W        W81968   8.175   3.307   3.628
13740W        W81969   0.261  30.387   2.795
13741W        W81970  39.405  25.989   2.729
13742W        W81971  26.140  25.931  13.813
13743W        W81972  22.726  42.871  10.568
13744W        W81973  22.405  18.222   1.303
13745W        W81974  42.111   2.551  11.118
13746W        W81975  37.891  14.240  12.962
13747W        W81976  42.515   1.356  11.046
13748W        W81977  15.368   9.095  11.911
13749W        W81978   1.278  30.382  14.174
13750W        W81979  28.219   3.522   4.664
13751W        W81980  38.830  26.957  11.593
13752W        W81981   1.844  17.942  13.293
13753W        W81982  27.565  39.077   4.068
13754W        W81983  11.865  19.844  13.717
13755W        W81984  27.490  13.851  14.753
13756W        W81985   5.749   1.822   2.780
13757W        W81986   1.888  41.114   1.697
13758W        W81987  21.768  26.215  13.186
13759W        W81988   3.499  24.035  14.121
13760W        W81989  16.555  16.470  14.900
13761W        W81990  31.205  41.605  11.711
13762W        W81991   8.417  41.012  14.389
13763W        W81992  33.111  14.043  10.739
13764W        W81993  15.287  37.580   0.354
13765W        W81994  28.129  11.287  13.436
13766W        W81995  37.832   0.735  10.187
13767W        W81996  14.095  13.193  12.192
13768W        W81997   4.318  25.716   0.309
13769W        W81998  16.400  31.088  10.301
13770W        W81999   7.248  28.764  14.475
13771W        W82000  44.241   3.307   1.277
13772W        W82001  37.437  23.189  13.383
13773W        W82002   4.142  24.694  11.658
13774W        W82003  34.276  20.299   2.801
13775W        W82004  35.610  25.927  11.514
13776W        W82005  35.037  21.180  11.113
13777W        W82006  27.507   3.394  10.675
13778W        W82007  37.991  10.792  12.134
13779W        W82008  27.930  29.484   2.194
13780W        W82009  24.513  34.869   3.754
13781W        W82010  38.489  22.923   4.748
13782W        W82011  20.086   7.190  12.136
13783W        W82012  43.311  14.068   1.356
13784W        W82013  26.186  44.857  14.403
13785W        W82014  25.136   4.712  12.911
13786W        W82015  32.340  26.506  13.749
13787W        W82016  35.384   9.316   1.065
13788W        W82017   7.211  17.213  10.504
13789W        W82018  28.161  20.097  12.986
13790W        W82019  13.391   9.736  11.352
13791W        W82020  10.563  37.847   1.296
13792W        W82021   1.248   8.142  12.114
13793W        W82022   6.349  23.121   2.837
13794W        W82023  36.038  29.548  14.347
13795W        W82024  43.950  26.637   1.312
13796W        W82025  36.105  16.774   4.641
13797W        W82026   0.883  20.168   0.234
13798W        W82027   2.940  29.129  10.705
13799W        W82028  22.606  10.922   1.772
13800W        W82029  39.397  27.310   3.228
13801W        W82030   4.164  21.165  14.025
13802W        W82031   0.099  15.480  11.389
13803W        W82032  25.033  43.518   2.312
13804W        W82033  36.329  24.487   0.405
13805W        W82034  36.398  33.960   1.248
13806W        W82035   9.400   7.398  11.328
13807W        W82036  30.799  41.756   2.820
13808W        W82037  18.498   0.580  13.789
13809W        W82038  21.249  21.800  13.510
13810W        W82039  24.454   3.114   3.992
13811W        W82040  17.474  16.530  12.405
13812W        W82041   9.462  44.922   1.702
13813W        W82042  23.100  37.635  14.839
13814W        W82043  20.237  22.065  12.788
13815W        W82044  15.136   1.897  14.967
13816W        W82045  19.665  13.898  13.772
13817W        W82046  39.334   0.234  11.150
13818W        W82047   3.733  23.992   4.613
13819W        W82048  27.516  17.178  13.376
13820W        W82049   7.334   1.244  13.372
13821W        W82050  22.442  23.102  11.994
13822W        W82051   2.887  29.995   4.301
13823W        W82052  22.824  44.479   3.919
13824W        W82053  37.895  16.359  10.779
13825W        W82054  30.994  38.885  11.497
13826W        W82055  21.452  29.934  14.426
13827W        W82056  11.717  15.377  10.584
13828W        W82057   3.364   8.921  14.794
13829W        W82058  13.683  28.672   1.437
13830W        W82059  29.852  18.546   3.230
13831W        W82060  23.511  24.957   0.862
13832W        W82061  36.114  17.379  14.856
13833W        W82062  33.558  22.235   2.022
13834W        W82063   9.433  13.702  12.448
13835W        W82064  13.207  21.516   2.678
13836W        W82065  20.758  32.580   2.245
13837W        W82066   0.852  40.720   4.826
13838W        W82067  36.952  16.473   1.166
13839W        W82068  31.881  41.416   3.277
13840W        W82069  11.001   8.857   3.705
13841W        W82070  26.188   8.151  14.429
13842W        W82071  38.683  25.958   4.941
13843W        W82072  22.668  31.864   0.245
13844W        W82073  41.246  21.103  10.858
13845W        W82074  41.788  16.808   2.312
13846W        W82075  44.454   5.263   0.276
13847W        W82076   5.242  39.562   2.824
13848W        W82077   1.297   5.251   3.602
13849W        W82078  29.641  22.966   2.836
13850W        W82079  41.397  42.567   4.198
13851W        W82080   0.334  25.014  11.591
13852W        W82081  21.689  16.738   0.948
13853W        W82082   8.888  33.449   4.077
13854W        W82083  33.628   7.752   4.600
13855W        W82084   5.141   1.438  11.128
13856W        W82085  31.453  34.863  13.321
13857W        W82086  11.212  22.887   0.741
13858W        W82087  34.847  44.171   5.146
13859W        W82088  17.344  24.649   0.945
13860W        W82089  25.530  26.262   1.298
13861W        W82090  38.599  12.331   4.837
13862W        W82091   2.555  24.108   3.354
13863W        W82092   4.793  11.109  12.470
13864W        W82093   6.852  40.326   0.997
13865W        W82094   4.879   5.715  14.350
13866W        W82095  24.487  40.764   3.633
13867W        W82096  34.045   8.202   1.509
13868W        W82097   6.776  24.279   1.143
13869W        W82098  44.888  36.298   1.208
13870W        W82099  41.406   7.330   2.406
13871W        W82100  35.974  30.407   1.379
13872W        W82101  36.599  20.037   0.311
13873W        W82102   1.972  30.216  12.442
13874W        W82103  18.285  43.388   1.752
13875W        W82104  40.229  33.594   3.363
13876W        W82105   4.761  21.575  10.727
13877W        W82106  17.828  17.662   2.735
13878W        W82107  15.575  41.743   3.344
13879W        W82108  42.537  17.821  11.884
13880W        W82109  19.663  33.219   1.822
13881W        W82110  33.979  38.515   2.829
13882W        W82111   3.517  18.216  11.150
13883W        W82112  19.958   6.299  12.485
13884W        W82113  36.878  35.812   3.683
13885W        W82114  38.953   0.291  11.937
13886W        W82115  33.097  20.938  12.925
13887W        W82116  34.519   0.935   2.806
13888W        W82117   6.696  38.850   1.476
13889W        W82118   0.693  18.506  13.020
13890W        W82119  16.749   9.236   0.924
13891W        W82120  18.371  20.174   5.211
13892W        W82121  28.386  42.197   4.493
13893W        W82122  31.031  15.084   1.450
13894W        W82123   3.937  39.900   4.130
13895W        W82124  25.402  10.268  12.885
13896W        W82125   2.460  38.054  14.897
13897W        W82126   4.413  41.309   3.808
13898W        W82127  42.413   6.460  13.082
13899W        W82128  40.830  13.681  11.246
13900W        W82129  21.283  43.871   0.388
13901W        W82130   2.266   6.265  14.867
13902W        W82131  19.761   9.851   4.745
13903W        W82132  21.897   4.210  14.459
13904W        W82133  18.313  26.157   2.214
13905W        W82134  13.235  16.046  14.998
13906W        W82135  18.157  18.104   2.213
13907W        W82136   9.421  16.818  13.014
13908W        W82137  39.090  17.584  10.844
13909W        W82138   9.202  31.225   4.555
13910W        W82139  43.733  21.604   4.203
13911W        W82140   8.646  23.529   2.922
13912W        W82141  15.881  34.744  11.236
13913W        W82142   1.990   8.920   2.313
13914W        W82143  17.142  38.583   0.980
13915W        W82144  19.885  36.453   5.043
13916W        W82145  13.179  11.175   4.188
13917W        W82146   3.125   3.705  14.019
13918W        W82147   2.582  20.821  12.867
13919W        W82148  10.564  43.856   4.551
13920W        W82149  42.394  19.154   1.935
13921W        W82150  14.933  31.726   2.752
13922W        W82151  20.693   5.924   4.568
13923W        W82152  17.670  36.278  14.834
13924W        W82153   3.703   1.963   3.730
13925W        W82154  36.659  22.658   0.931
13926W        W82155   9.171   0.267  11.849
13927W        W82156   3.898  42.165  11.727
13928W        W82157   1.831   4.860  14.191
13929W        W82158  13.758  44.982   0.923
13930W        W82159   1.705  20.743  12.430
13931W        W82160   8.383  26.311  11.085
13932W        W82161  23.715   8.893   2.763
13933W        W82162  29.332  22.642   0.978
13934W        W82163  16.776  21.942   4.475
13935W        W82164  21.698  26.076  14.900
13936W        W82165   0.486  41.604   1.990
13937W        W82166  29.938  15.572   2.856
13938W        W82167  42.750  33.868  12.154
13939W        W82168  16.152  31.468   4.018
13940W        W82169  36.320   3.181   0.865
13941W        W82170  30.444  23.630   4.482
13942W        W82171  37.681  34.342   4.318
13943W        W82172  31.146  38.209   4.610
13944W        W82173  20.571   2.365   2.540
13945W        W82174  19.306  36.105  11.115
13946W        W82175  44.055  16.700  14.608
13947W        W82176  37.334  40.265   0.253
13948W        W82177  12.832  16.783   1.572
13949W        W82178   9.918  44.405   0.958
13950W        W82179   0.291  19.936  12.494
13951W        W82180  17.256  30.080   2.318
13952W        W82181   5.931  32.521   0.483
13953W        W82182   3.168  31.982  11.116
13954W        W82183   7.894  12.325  14.979
13955W        W82184  36.353  30.052   0.735
13956W        W82185  33.108  17.667   0.160
13957W        W82186   4.933  44.950  12.068
13958W        W82187   8.403  16.776   3.087
13959W        W82188  23.952  32.375  10.997
13960W        W82189  30.438  15.430  11.910
13961W        W82190  19.059  43.798   1.431
13962W        W82191  28.110  33.891   1.382
13963W        W82192  33.499  29.430  13.514
13964W        W82193   9.133  44.469   0.402
13965W        W82194  19.450  31.056  13.842
13966W        W82195  12.240  34.651  13.298
13967W        W82196  18.267  36.799  11.069
13968W        W82197   4.788  29.178  13.980
13969W        W82198   0.421  40.364   3.549
13970W        W82199   1.872   7.847   4.134
13971W        W82200  28.553  19.289  14.498
13972W        W82201  16.320   0.807  12.980
13973W        W82202  44.919  18.300  12.508
13974W        W82203  32.892   6.064   5.010
13975W        W82204  40.503   0.315   4.279
13976W        W82205  14.062  20.970   4.573
13977W        W82206  35.437   1.493  11.532
13978W        W82207  22.017  13.338  10.458
13979W        W82208  38.763  11.905  14.072
13980W        W82209  11.707  25.559   0.978
13981W        W82210  31.316  32.472  10.815
13982W        W82211  32.946  26.508   2.917
13983W        W82212  39.332  20.529   3.758
13984W        W82213  11.923   0.462  14.747
13985W        W82214  42.725  19.205  10.909
13986W        W82215  23.948  10.595   4.661
13987W        W82216  37.821  21.825   2.883
13988W        W82217  20.059  38.105   0.577
13989W        W82218   5.067  37.931   1.447
13990W        W82219  22.509  26.428   2.785
13991W        W82220  14.208  38.486  14.327
13992W        W82221  30.094  18.084   3.324
13993W        W82222  29.348  21.711   0.138
13994W        W82223  24.776   0.467   1.695
13995W        W82224  39.821  15.102   4.009
13996W        W82225   1.310  28.659   1.221
13997W        W82226  37.093  43.856  13.375
13998W        W82227  13.273  35.879  13.395
13999W        W82228  12.795   3.100   2.876
14000W        W82229  21.188  16.900  11.041
14001W        W82230   2.712  11.581  13.508
14002W        W82231  27.933  25.134   0.321
14003W        W82232  17.583  37.940   4.752
14004W        W82233  33.148   1.085   3.390
14005W        W82234  40.844  40.334   3.536
14006W        W82235  29.725  36.559   0.119
14007W        W82236  25.367  25.319  11.628
14008W        W82237  32.924  19.184   5.038
14009W        W82238  44.776  30.944  12.819
14010W        W82239  30.180  10.621   0.294
14011W        W82240   9.844  41.067   1.812
14012W        W82241  42.461  25.193   2.267
14013W        W82242   3.634  12.691   1.367
14014W        W82243   2.477  14.535  11.241
14015W        W82244  26.098  19.204   4.077
14016W        W82245  38.431  32.262   0.140
14017W        W82246  29.087   2.304   0.986
14018W        W82247  13.326  32.839   0.205
14019W        W82248  17.732  16.894   2.814
14020W        W82249  35.426  40.028   3.374
14021W        W82250  30.676  31.655  14.757
14022W        W82251  21.550   1.815   0.478
14023W        W82252  12.083  12.618  12.011
14024W        W82253  16.978  25.610  10.874
14025W        W82254  40.307  43.085  13.364
14026W        W82255  16.262  22.985   0.374
14027W        W82256  27.408  38.117  14.411
14028W        W82257   4.782  12.072  10.467
14029W        W82258   7.805  39.116   1.750
14030W        W82259  37.376  39.990  12.063
14031W        W82260  32.389  18.675  11.970
14032W        W82261  38.979  34.838   4.086
14033W        W82262  15.556   0.042  12.464
14034W        W82263  17.134  44.053  14.792
14035W        W82264   0.380   9.775  11.205
14036W        W82265  35.826  34.625  14.962
14037W        W82266  14.814  21.611  13.554
14038W        W82267   3.310  23.086  13.235
14039W        W82268  27.638  19.348   1.835
14040W        W82269  16.578  16.029  12.300
14041W        W82270  30.346  19.704   4.847
14042W        W82271  21.193   5.715  10.637
14043W        W82272  34.703  21.322   4.731
14044W        W82273  28.682  30.957   3.856
14045W        W82274  41.272   2.463   0.070
14046W        W82275  11.549  37.396  11.431
14047W        W82276   8.245   4.023  11.169
14048W        W82277   1.667  32.061   2.292
14049W        W82278  43.870  18.075   1.949
14050W        W82279  30.610  23.674  13.338
14051W        W82280  19.250  37.040   0.853
14052W        W82281   1.877  20.985   0.288
14053W        W82282  18.657  16.211  14.956
14054W        W82283  41.268   2.855  11.384
14055W        W82284   4.603  31.976   4.073
14056W        W82285  35.841  10.030   4.268
14057W        W82286  26.929  12.230   3.764
14058W        W82287   8.222  32.395   1.462
14059W        W82288  28.378  21.708  13.235
14060W        W82289  28.157  43.990  13.478
14061W        W82290  22.095  30.570  12.316
14062W        W82291  20.095  22.208   1.964
14063W        W82292   2.145  32.141  11.161
14064W        W82293  13.062  39.805  13.782
14065W        W82294  42.764  32.566   4.182
14066W        W82295   9.290  25.629   1.386
14067W        W82296  16.728  29.247  11.021
14068W        W82297  12.207  37.075  11.211
14069W        W82298   7.392  35.078   1.368
14070W        W82299  24.242  12.862   1.877
14071W        W82300   4.659  31.863  11.969
14072W        W82301  32.070  33.543   3.988
14073W        W82302   2.760  26.039  13.269
14074W        W82303  16.993  35.042  14.758
14075W        W82304   2.076   1.248  12.086
14076W        W82305  17.099  38.782   2.281
14077W        W82306  24.913  27.215  14.844
14078W        W82307  10.717   0.732  11.675
14079W        W82308   6.695   7.168  12.147
14080W        W82309  12.531  33.492  10.545
14081W        W82310  22.092  27.425   1.932
14082W        W82311   6.414   9.679   4.004
14083W        W82312   9.760  24.501   1.829
14084W        W82313   8.718  32.454  14.014
14085W        W82314  37.838  38.464   1.157
14086W        W82315  12.877  26.144   1.743
14087W        W82316  44.213  25.560   2.234
14088W        W82317  20.776   4.690   1.347
14089W        W82318  10.706   1.058   3.686
14090W        W82319   3.217  22.893  10.881
14091W        W82320   1.030   0.327  14.112
14092W        W82321  12.208  11.203   3.069
14093W        W82322  23.689  34.981  12.876
14094W        W82323   5.733  32.067  14.730
14095W        W82324  16.575   1.051  14.199
14096W        W82325  33.000   1.253  14.798
14097W        W82326  29.388   9.330   4.238
14098W        W82327  13.809   2.409  11.604
14099W        W82328   1.426   3.496   0.012
14100W        W82329  41.058  31.622  13.601
14101W        W82330  40.275  15.222   4.238
14102W        W82331  40.617  42.519  14.683
14103W        W82332  31.872   7.112  10.825
14104W        W82333  37.479  24.541  13.850
14105W        W82334   9.095   9.298   1.479
14106W        W82335   3.922  18.113  11.484
14107W        W82336  31.000  28.239   3.348
14108W        W82337  18.986  24.738   1.715
14109W        W82338  28.152   0.886  10.836
14110W        W82339  23.375  36.296  11.544
14111W        W82340   2.442  25.238   1.896
14112W        W82341  30.293  10.685   0.805
14113W        W82342  18.839   9.308  14.028
14114W        W82343  28.505  34.248   4.522
14115W        W82344  43.800   7.276  13.982
14116W        W82345  26.602  33.456   0.405
14117W        W82346  33.602  30.600   3.711
14118W        W82347  11.878  41.893   3.282
14119W        W82348  41.147   9.578   3.611
14120W        W82349  34.998  37.292   4.216
14121W        W82350  30.082  19.789   3.550
14122W        W82351  16.345  22.642  12.464
14123W        W82352  40.425  18.430   2.082
14124W        W82353   8.039   0.195   4.607
14125W        W82354   3.786  24.536  12.389
14126W        W82355  34.099  16.136   2.347
14127W        W82356  12.985  18.055  14.354
14128W        W82357   3.324  19.272   0.122
14129W        W82358  25.328  40.025  14.925
14130W        W82359  10.215  39.751   4.303
14131W        W82360  28.506   0.518  14.584
14132W        W82361   5.727  40.883   4.474
14133W        W82362  41.900  35.969  12.174
14134W        W82363  34.866  27.902   0.385
14135W        W82364   7.193  23.446  12.649
14136W        W82365  42.726  21.780   3.068
14137W        W82366  40.159   8.300  14.019
14138W        W82367  12.617  34.920  10.690
14139W        W82368  21.325  19.088  11.086
14140W        W82369   2.195  25.452  13.877
14141W        W82370  29.372  30.647   1.935
14142W        W82371  42.894   5.430   2.108
14143W        W82372  28.423  43.434   3.731
14144W        W82373  15.167   2.905  11.217
14145W        W82374  39.611  15.735   2.658
14146W        W82375  21.913  23.835  11.133
14147W        W82376  32.495  32.497  11.219
14148W        W82377  41.087  16.722  11.160
14149W        W82378   3.093  38.526   2.683
14150W        W82379   1.030  34.020   0.109
14151W        W82380  30.415  35.726  12.555
14152W        W82381  17.137  11.402   2.316
14153W        W82382  15.671  43.782  13.407
14154W        W82383  26.554  41.081   3.140
14155W        W82384   5.313  11.816   4.519
14156W        W82385  20.018  20.748   2.217
14157W        W82386   4.937  24.924  14.521
14158W        W82387  44.308  29.853  11.150
14159W        W82388  15.601  23.022   0.743
14160W        W82389  37.576   0.522   0.601
14161W        W82390   8.275  33.975   0.667
14162W        W82391  31.498   4.061   4.107
14163W        W82392  42.547  12.286  14.882
14164W        W82393  17.048  10.641  14.240
14165W        W82394   2.176  35.515   3.235
14166W        W82395   7.779  42.327   3.786
14167W        W82396  35.122  16.805  11.494
14168W        W82397   2.406  28.147   4.664
14169W        W82398  22.956  20.253  11.247
14170W        W82399   2.825  31.167  10.638
14171W        W82400   6.810   3.701  13.077
14172W        W82401  15.889  10.865   0.713
14173W        W82402   1.496  13.259   4.271
14174W        W82403  14.642  24.483  13.568
14175W        W82404  40.098  13.297   0.207
14176W        W82405  15.847  13.879  12.088
14177W        W82406   7.288  19.805   3.280
14178W        W82407  26.510   7.477  10.045
14179W        W82408  27.500  13.753   1.680
14180W        W82409  24.123  35.893   4.550
14181W        W82410   9.800  14.324   0.802
14182W        W82411   1.943   0.750  12.007
14183W        W82412  35.212  32.669  10.728
14184W        W82413  42.238  29.596  11.175
14185W        W82414   3.854  18.077  10.284
14186W        W82415  38.460  39.586   2.836
14187W        W82416   8.407  21.672  11.314
14188W        W82417  41.434  11.143   4.130
14189W        W82418  43.994  29.364   4.623
14190W        W82419  34.606  17.021  11.099
14191W        W82420  27.877  17.803   1.027
14192W        W82421  11.129  35.002   0.960
14193W        W82422  26.708  42.949  14.873
14194W        W82423  20.339  44.079  12.655
14195W        W82424   4.402  31.658  12.380
14196W        W82425  32.560   7.627  11.172
14197W        W82426  13.863  40.519  12.030
14198W        W82427  13.692  33.398   3.733
14199W        W82428  32.853  34.344  13.906
14200W        W82429  17.292  35.142   2.659
14201W        W82430  32.421  34.911  13.326
14202W        W82431  26.009  30.067  13.916
14203W        W82432  42.347  20.119   4.294
14204W        W82433  42.086   6.439  12.056
14205W        W82434  21.123   7.304   0.861
14206W        W82435  17.620  33.103  14.322
14207W        W82436   1.561  28.808   4.167
14208W        W82437  28.050  21.642  13.867
14209W        W82438  29.090  40.095  13.584
14210W        W82439  43.106  19.691  11.672
14211W        W82440   2.851  32.925   2.759
14212W        W82441  16.182  35.346  11.825
14213W        W82442  16.060  25.727   0.357
14214W        W82443  22.745  23.174   2.426
14215W        W82444  16.297  15.509  14.038
14216W        W82445  36.385  19.583  11.485
14217W        W82446  14.120  11.276   3.347
14218W        W82447  40.148  28.487  13.009
14219W        W82448   4.906   7.366  14.126
14220W        W82449  36.596  11.433   2.614
14221W        W82450  16.469  22.650  13.470
14222W        W82451  14.112  44.009   0.256
14223W        W82452  28.648   8.676  10.610
14224W        W82453  35.698  32.193   4.130
14225W        W82454  42.540  37.304  11.152
14226W        W82455  24.219  39.999   3.245
14227W        W82456  23.024   1.864   1.354
14228W        W82457  14.238  22.012   0.874
14229W        W82458  17.754  37.980   0.713
14230W        W82459  42.754  30.232  11.970
14231W        W82460  22.487  36.432  12.913
14232W        W82461  42.279  28.720  13.832
14233W        W82462   9.828  41.546  12.023
14234W        W82463  37.595  40.959   1.970
14235W        W82464   7.811  40.977   2.548
14236W        W82465  20.274  36.967  13.164
14237W        W82466  12.784   7.766   2.915
14238W        W82467  10.232  35.492   3.058
14239W        W82468   3.182  20.333  10.745
14240W        W82469   4.287   7.975   2.667
14241W        W82470  11.315   1.363   1.247
14242W        W82471  16.625  19.022   1.447
14243W        W82472  33.561  44.743  12.005
14244W        W82473  28.019  27.119   1.662
14245W        W82474   6.736  30.687   2.685
14246W        W82475  38.156  44.978   2.140
14247W        W82476  14.655  40.914  10.746
14248W        W82477  29.628  21.096  13.444
14249W        W82478   8.385  35.083   3.267
14250W        W82479   0.918  40.417  11.019
14251W        W82480  13.418  11.751   2.241
14252W        W82481  34.576   8.875  10.250
14253W        W82482  17.613   5.493   4.026
14254W        W82483  30.173  42.550   3.205
14255W        W82484   5.703  23.532  12.098
14256W        W82485   1.719  44.525  14.086
14257W        W82486  31.865   4.953  11.205
14258W        W82487  36.490  36.890   3.581
14259W        W82488  34.508   1.524   1.934
14260W        W82489  44.887   1.986  14.729
14261W        W82490  42.387  12.369   1.539
14262W        W82491   7.738  31.201   2.298
14263W        W82492  25.074  37.760   3.250
14264W        W82493  26.469  26.075  11.439
14265W        W82494   5.409  35.589  10.714
14266W        W82495   0.976   1.739   2.656
14267W        W82496  33.987  31.545   2.865
14268W        W82497  35.568  41.824   2.194
14269W        W82498  33.003  19.193   0.193
14270W        W82499  28.460  37.481   1.685
14271W        W82500  42.903  18.329  10.601
14272W        W82501   9.933  28.425  10.693
14273W        W82502  29.023   4.567   0.732
14274W        W82503  34.428   4.994   1.725
14275W        W82504  22.729  11.187   4.242
14276W        W82505   9.267  34.029  13.524
14277W        W82506   8.336  42.204   2.263
14278W        W82507  14.733  11.830  12.496
14279W        W82508  10.235   9.107   2.606
14280W        W82509  42.397  33.696   3.661
14281W        W82510  20.194   1.226   1.490
14282W        W82511  14.166   5.323   1.410
14283W        W82512  13.101   3.811   4.708
14284W        W82513  24.577  41.206   0.256
14285W        W82514  18.391  42.328   0.871
14286W        W82515  18.769  24.700   3.322
14287W        W82516   4.241  19.617  14.860
14288W        W82517  36.335  38.028   1.852
14289W        W82518  22.230  41.583   3.782
14290W        W82519   2.340  40.734   2.439
14291W        W82520  28.048   7.927   2.383
14292W        W82521  16.329   1.483   0.917
14293W        W82522  30.132  33.653  11.013
14294W        W82523  22.742  18.974   4.124
14295W        W82524  19.535  10.396   3.628
14296W        W82525  26.523   5.922   1.935
14297W        W82526  31.313  10.621   0.848
14298W        W82527   7.149  35.476   3.181
14299W        W82528  42.486  40.071   4.143
14300W        W82529  24.366  11.142  10.590
14301W        W82530  41.537  22.173   3.648
14302W        W82531  27.493  17.503   1.297
14303W        W82532  28.520  34.442   4.056
14304W        W82533  16.797   0.729  13.336
14305W        W82534   1.306  29.613  13.945
14306W        W82535  41.023   3.002  12.184
14307W        W82536  41.688  17.264  13.480
14308W        W82537  13.667  38.068  13.765
14309W        W82538  23.660  37.507   3.132
14310W        W82539  22.127  35.004   3.848
14311W        W82540  13.147  40.081   4.100
14312W        W82541  31.442  14.070  14.062
14313W        W82542  17.084  22.013   0.327
14314W        W82543   1.312   6.672   4.572
14315W        W82544  37.765   9.173  14.998
14316W        W82545  11.055   4.247   4.504
14317W        W82546  36.025   0.894  12.126
14318W        W82547  21.799  17.845  14.873
14319W        W82548  14.188  31.682  11.075
14320W        W82549  34.439   6.504  13.406
14321W        W82550  44.341  35.573  10.315
14322W        W82551  17.646  44.731  13.475
14323W        W82552  40.208  31.459   0.710
14324W        W82553  20.518  10.166  11.673
14325W        W82554  44.385  15.414   1.398
14326W        W82555  37.527   5.451   3.203
14327W        W82556  29.114  21.993  11.568
14328W        W82557  15.067  23.630   2.677
14329W        W82558  38.109  41.386   2.763
14330W        W82559   2.176  35.712  10.288
14331W        W82560  14.299  21.010  12.332
14332W        W82561  23.524  44.370  14.467
14333W        W82562  36.349  36.668  10.536
14334W        W82563  41.137   4.723   3.917
14335W        W82564  40.542   4.828  14.255
14336W        W82565  33.353  17.522   1.290
14337W        W82566  29.455  25.987  13.908
14338W        W82567   0.997  39.793  14.093
14339W        W82568  19.480  27.535   0.434
14340W        W82569  24.966  43.435   1.380
14341W        W82570  23.149  23.204   0.790
14342W        W82571  12.893   5.288  13.096
14343W        W82572  18.050  40.549   0.013
14344W        W82573  15.350  30.882  12.012
14345W        W82574  28.571  38.136  10.473
14346W        W82575  28.456  14.958  13.035
14347W        W82576  42.189  14.133   4.073
14348W        W82577  10.207  18.155  13.027
14349W        W82578  41.373   3.909  10.640
14350W        W82579  26.756   2.786   1.186
14351W        W82580  11.291  33.417  13.938
14352W        W82581  41.374  17.490  13.055
14353W        W82582  11.316  38.924  14.059
14354W        W82583  21.000   2.305  12.547
14355W        W82584  34.679  43.916  11.661
14356W        W82585  26.434  20.485  11.841
14357W        W82586   3.313  39.964   1.189
14358W        W82587   9.751  43.469  12.441
14359W        W82588  12.568   1.352   0.775
14360W        W82589  33.586  19.531   5.005
14361W        W82590   2.623  15.763  13.093
14362W        W82591  20.673  41.327   1.724
14363W        W82592  15.089  40.349   0.010
14364W        W82593  39.760   6.379   0.210
14365W        W82594   1.893   4.743   3.231
14366W        W82595  12.585  35.561  12.988
14367W        W82596   0.727  27.052   3.794
14368W        W82597  13.320   8.927   0.755
14369W        W82598  22.671   8.208   0.400
14370W        W82599  25.645  44.088  14.272
14371W        W82600  23.234  39.888  12.574
14372W        W82601  31.396  19.276   0.868
14373W        W82602  22.319  26.948   1.957
14374W        W82603  41.407   1.835   1.288
14375W        W82604  26.966  37.875   2.325
14376W        W82605  16.396  38.102  12.931
14377W        W82606  28.049  39.820  12.856
14378W        W82607  29.694  28.078   4.666
14379W        W82608  15.183   5.683   2.862
14380W        W82609  24.939  35.592  12.355
14381W        W82610  22.291   1.176  13.882
14382W        W82611  33.161   5.456   0.922
14383W        W82612  23.047  41.004  11.206
14384W        W82613   9.834  44.234   2.823
14385W        W82614  17.563   4.318  12.831
14386W        W82615  33.896  35.961  13.367
14387W        W82616  38.086  44.082  13.222
14388W        W82617  37.948  28.672   3.684
14389W        W82618  39.971  21.537  12.845
14390W        W82619  43.494  36.654  14.366
14391W        W82620  39.469  42.828   4.601
14392W        W82621  17.409  29.690  10.707
14393W        W82622  22.434  32.807   4.727
14394W        W82623  41.920  30.505  10.099
14395W        W82624  41.619   6.423  14.948
14396W        W82625  25.139  10.150   0.219
14397W        W82626  25.168  17.303  10.817
14398W        W82627  38.277  25.982  11.576
14399W        W82628  29.957   2.222  12.403
14400W        W82629   5.698   2.974   4.341
14401W        W82630  15.280  25.493  12.097
14402W        W82631  42.504  17.529  11.097
14403W        W82632   3.264  43.932   4.641
14404W        W82633  10.559  24.383  10.501
14405W        W82634  19.238  25.456  12.394
14406W        W82635  33.369  14.819  11.137
14407W        W82636   0.589  30.165  10.837
14408W        W82637  28.683  20.115   0.734
14409W        W82638  21.161   2.132  14.747
14410W        W82639  11.267  10.967   3.226
14411W        W82640  42.537  31.443   0.936
14412W        W82641  19.716  29.099  12.070
14413W        W82642   5.893   0.275   4.156
14414W        W82643   1.199  36.359  12.864
14415W        W82644   0.257  25.287   3.554
14416W        W82645  13.836   0.378   1.339
14417W        W82646   5.966  20.077   1.239
14418W        W82647   0.853  11.087   4.380
14419W        W82648  29.530  22.187   0.802
14420W        W82649  34.511  11.145  10.488
14421W        W82650   8.538   4.373  11.699
14422W        W82651  28.704  41.123   4.395
14423W        W82652   8.354   0.533  14.508
14424W        W82653   1.243  13.089  13.923
14425W        W82654  31.120  24.478   1.378
14426W        W82655   0.511   3.855  12.452
14427W        W82656  39.372  39.982   2.213
14428W        W82657  10.086  10.349   4.306
14429W        W82658  26.492  19.015   1.287
14430W        W82659   3.378  13.741   2.119
14431W        W82660  31.212  35.882  14.403
14432W        W82661  35.466  26.695   2.895
14433W        W82662   1.698   7.547  12.426
14434W        W82663  40.098  40.547   2.208
14435W        W82664  25.572  22.020  10.756
14436W        W82665  31.896   5.781   3.284
14437W        W82666  35.459  10.598  13.038
14438W        W82667  19.625  42.260   1.780
14439W        W82668  44.305  23.016   1.267
14440W        W82669  21.787  31.877   1.119
14441W        W82670  35.627  29.025  14.784
14442W        W82671  24.481  11.525   0.780
14443W        W82672  20.584   6.330   2.354
14444W        W82673  22.741  23.007  11.559
14445W        W82674  31.583   3.114  14.535
14446W        W82675  27.950  34.018  12.310
14447W        W82676  43.773   4.922   2.763
14448W        W82677  44.171  38.495   2.296
14449W        W82678  38.088  15.183  13.881
14450W        W82679   6.753   6.602   2.477
14451W        W82680  36.983  41.909   3.131
14452W        W82681   2.845  22.160   0.761
14453W        W82682  43.435  15.601   0.413
14454W        W82683  30.149  23.967  11.180
14455W        W82684  16.714  34.583  10.430
14456W        W82685  19.183  37.365  12.943
14457W        W82686  13.337   3.996  13.344
14458W        W82687  22.162   2.073  11.169
14459W        W82688   9.416   3.351   4.764
14460W        W82689  11.803  22.233  12.468
14461W        W82690  40.048   8.799   1.416
14462W        W82691  26.069  15.337   4.993
14463W        W82692   8.159  10.245  11.752
14464W        W82693  39.361  31.683  12.175
14465W        W82694  20.764   6.896  14.843
14466W        W82695  29.685  39.552   1.101
14467W        W82696   8.515  25.083   0.959
14468W        W82697   8.214  26.752   3.402
14469W        W82698  11.936  13.342   3.218
14470W        W82699   4.765   7.330   4.891
14471W        W82700   3.774  32.063  12.355
14472W        W82701  13.438  32.103  11.522
14473W        W82702  12.572  41.783  14.369
14474W        W82703  34.138  13.025  11.238
14475W        W82704  25.222  14.127   5.537
14476W        W82705  14.127  23.202   0.451
14477W        W82706  27.410   8.356  11.965
14478W        W82707   3.215  29.573  10.547
14479W        W82708  23.562  43.075   4.287
14480W        W82709  26.658  44.646   1.014
14481W        W82710  16.156  29.027  14.709
14482W        W82711  26.218  26.608   1.815
14483W        W82712  41.085  43.834   4.896
14484W        W82713   5.212  41.772   0.151
14485W        W82714  36.648  12.167   1.289
14486W        W82715  21.228  30.180  10.757
14487W        W82716  44.872  10.132  14.577
14488W        W82717  13.872  30.975  14.011
14489W        W82718  39.342  27.931  11.620
14490W        W82719   5.406  10.882  13.019
14491W        W82720   3.722  23.198   2.958
14492W        W82721  37.900  15.217   4.225
14493W        W82722  36.378  13.142   4.365
14494W        W82723  19.717  29.744   0.047
14495W        W82724   6.997  13.188  10.638
14496W        W82725  44.299  33.155  12.045
14497W        W82726  44.699  44.797   2.809
14498W        W82727  13.221  26.942   1.303
14499W        W82728  17.422  34.968   3.695
14500W        W82729  42.876  44.705   3.265
14501W        W82730  21.790  24.681   3.558
14502W        W82731  32.122  39.534   3.343
14503W        W82732  34.769  30.849   4.893
14504W        W82733   5.647  38.124   3.584
14505W        W82734  38.914  33.687  13.211
14506W        W82735   2.453   7.010   2.727
14507W        W82736  15.170  26.802  14.793
14508W        W82737  20.809  27.167   1.819
14509W        W82738  43.389  40.446   0.787
14510W        W82739  15.246  15.123   1.925
14511W        W82740  13.911  43.995  12.224
14512W        W82741  16.521   3.765  11.092
14513W        W82742  22.101  36.894   3.626
14514W        W82743  13.510  32.960   1.721
14515W        W82744  31.865  14.835  12.931
14516W        W82745  33.051  14.046  13.939
14517W        W82746  30.629  23.480   0.122
14518W        W82747   5.041  13.460   3.923
14519W        W82748  18.533  35.860   3.112
14520W        W82749  42.078  27.092  13.278
14521W        W82750  17.943   3.529  14.831
14522W        W82751   3.293  34.901  13.472
14523W        W82752  42.159  10.386  10.728
14524W        W82753  39.817  12.417  12.886
14525W        W82754  17.357  33.713  11.925
14526W        W82755  38.618  41.843  12.970
14527W        W82756  23.685  35.695  14.531
14528W        W82757  43.639  17.732   0.276
14529W        W82758   7.111  10.177   0.465
14530W        W82759  27.056   6.340   3.294
14531W        W82760  23.782  25.259   4.101
14532W        W82761  28.093  19.628   0.023
14533W        W82762  30.197  43.294   4.300
14534W        W82763  11.144  40.572  11.587
14535W        W82764  24.626  24.141  13.338
14536W        W82765  27.653  34.600   2.857
14537W        W82766  27.097  43.870   4.438
14538W        W82767  31.516  25.120   4.779
14539W        W82768  43.197  38.898   1.692
14540W        W82769  31.571  14.071   2.406
14541W        W82770  10.758  27.120   0.037
14542W        W82771  26.100  40.075  10.733
14543W        W82772  41.244  15.113  14.538
14544W        W82773   5.352  34.007  14.099
14545W        W82774  36.842  33.511  12.564
14546W        W82775  25.297  17.127   2.722
14547W        W82776  33.174   0.714   3.744
14548W        W82777   0.457   8.223   3.692
14549W        W82778  12.391  29.123  13.768
14550W        W82779  16.800  31.384   3.266
14551W        W82780   2.311   1.781  14.009
14552W        W82781  18.290  38.033   0.552
14553W        W82782   6.684  25.182  14.288
14554W        W82783  10.425  32.436  14.807
14555W        W82784   1.425   4.407  13.871
14556W        W82785  18.274  28.830   3.666
14557W        W82786  44.372  44.999   4.622
14558W        W82787   8.984  22.546   3.237
14559W        W82788  34.937  31.943  14.802
14560W        W82789   5.349   8.580   0.342
14561W        W82790  32.605  12.784  10.502
14562W        W82791  19.513  22.039  14.670
14563W        W82792  29.497  24.956   0.660
14564W        W82793  44.602   5.544  12.660
14565W        W82794  24.762  18.377   0.941
14566W        W82795  40.889   5.252   1.316
14567W        W82796  15.101   9.293   1.897
14568W        W82797   8.379   4.643   4.301
14569W        W82798  44.868  40.900  13.900
14570W        W82799  14.824  29.650  11.661
14571W        W82800  13.246   9.660   4.633
14572W        W82801  35.984  17.284  10.499
14573W        W82802  10.340   6.121   2.758
14574W        W82803  14.762   9.859  12.800
14575W        W82804  16.986  29.987  14.246
14576W        W82805   4.746  17.859  11.096
14577W        W82806  44.995   8.912   1.887
14578W        W82807  14.045   1.427   2.362
14579W        W82808  38.381  18.906   0.321
14580W        W82809  29.417  17.338   4.038
14581W        W82810  29.718  23.781   1.475
14582W        W82811   2.480  33.481  14.927
14583W        W82812  30.139  44.569  14.835
14584W        W82813  44.712  18.053   1.512
14585W        W82814  12.710  15.079   2.700
14586W        W82815  29.683   4.199   2.336
14587W        W82816  13.579  13.171  12.137
14588W        W82817   0.688  34.893  12.249
14589W        W82818  16.149  22.656   9.868
14590W        W82819  11.393  32.930  11.566
14591W        W82820  32.702   1.945   4.200
14592W        W82821  34.801   9.303  11.580
14593W        W82822  35.185  38.045  13.449
14594W        W82823  19.572  21.294   3.885
14595W        W82824  34.104  25.685   0.310
14596W        W82825  43.955  28.656  13.443
14597W        W82826  22.202  25.678   1.798
14598W        W82827  33.718  14.607  14.749
14599W        W82828  33.115  20.240   3.043
14600W        W82829  13.330   6.055  13.018
14601W        W82830  21.010  32.303  12.516
14602W        W82831  18.666  35.999  10.302
14603W        W82832  10.231  36.077   0.953
14604W        W82833   7.523  44.286  11.468
14605W        W82834  35.013   7.998   1.941
14606W        W82835  18.244  29.537   1.607
14607W        W82836   4.185   4.617  13.416
14608W        W82837  32.633   3.984   4.976
14609W        W82838   4.170  38.867   3.349
14610W        W82839  34.990  26.584  11.670
14611W        W82840  32.299  25.266   4.270
14612W        W82841  35.553  24.985   4.527
14613W        W82842  40.393  44.006   3.826
14614W        W82843  28.006  38.199   1.199
14615W        W82844   0.995  22.058  11.317
14616W        W82845  16.541   6.198  10.709
14617W        W82846  28.190  20.552   1.604
14618W        W82847   0.959   8.633   0.213
14619W        W82848  13.827   4.017  11.162
14620W        W82849  14.854  34.393  12.849
14621W        W82850  36.412   2.859  10.759
14622W        W82851  21.542   7.718  12.834
14623W        W82852  22.235  29.585   2.898
14624W        W82853   3.660  44.981   2.323
14625W        W82854  13.071   8.199   2.824
14626W        W82855   9.349  39.380   2.422
14627W        W82856   8.071  15.933  13.943
14628W        W82857  22.757  37.072  10.621
14629W        W82858  15.745  39.099   4.525
14630W        W82859  20.093  23.554   4.603
14631W        W82860  14.323  10.235  11.600
14632W        W82861  34.508  10.715   2.980
14633W        W82862  19.087  18.190  13.635
14634W        W82863  42.877  40.956   2.309
14635W        W82864  33.685  11.542   1.448
14636W        W82865  42.199  21.268  13.471
14637W        W82866   1.258   5.859  13.436
14638W        W82867  32.011  37.641   4.677
14639W        W82868  28.025  37.239   1.825
14640W        W82869  22.080  28.548  14.234
14641W        W82870  28.213   4.186  14.001
14642W        W82871  30.553   2.967  10.782
14643W        W82872   2.268  36.429   3.185
14644W        W82873  28.432   3.034  14.856
14645W        W82874  17.156  16.563   9.879
14646W        W82875   0.929  14.532  12.881
14647W        W82876   4.879  44.461   3.096
14648W        W82877  37.589  38.062   2.346
14649W        W82878  36.011  44.956   4.684
14650W        W82879  10.875  23.588   1.911
14651W        W82880  36.328  17.104  10.156
14652W        W82881  26.537  13.116  14.316
14653W        W82882   3.350  37.777  11.136
14654W        W82883  43.819   2.710   3.085
14655W        W82884   6.281  17.558   3.815
14656W        W82885   5.420  28.096  11.999
14657W        W82886  15.636  44.530   3.247
14658W        W82887   1.976  34.500   3.694
14659W        W82888  20.178  41.116   1.738
14660W        W82889   1.534   6.954  13.522
14661W        W82890  34.568  17.040  14.960
14662W        W82891  13.341  14.074   5.092
14663W        W82892  10.935  26.436   3.689
14664W        W82893   1.908  35.855  12.433
14665W        W82894  40.992  44.994   1.635
14666W        W82895  29.113   2.918  10.990
14667W        W82896  21.306  19.037   0.768
14668W        W82897  31.787  41.142   0.406
14669W        W82898  28.087  26.736  12.604
14670W        W82899  32.300  43.469  12.448
14671W        W82900   3.465   7.088  11.090
14672W        W82901  26.021  17.206  12.851
14673W        W82902  20.614  13.181  13.438
14674W        W82903   6.776  11.771   1.761
14675W        W82904  24.487  10.866   2.593
14676W        W82905  14.642   7.456   2.112
14677W        W82906  44.998  29.463   2.063
14678W        W82907   6.220  30.356  13.001
14679W        W82908  44.819   5.691  13.654
14680W        W82909  18.381   4.911   5.041
14681W        W82910  38.903   7.919   1.164
14682W        W82911  29.142  22.386   3.186
14683W        W82912  39.080  44.751   1.688
14684W        W82913  19.103   4.596  12.560
14685W        W82914  38.984  26.504  13.899
14686W        W82915  11.861  19.011   1.551
14687W        W82916  43.362  38.866  12.878
14688W        W82917  18.644  31.798  11.013
14689W        W82918   9.168   6.860   3.622
14690W        W82919  17.293  26.376  11.039
14691W        W82920  19.535   0.370   0.181
14692W        W82921  40.754   5.723   4.112
14693W        W82922  14.855  11.458  14.510
14694W        W82923  38.927   5.363   4.874
14695W        W82924   1.384  43.125   1.223
14696W        W82925  25.068   8.270   0.049
14697W        W82926  21.020  25.181   0.973
14698W        W82927   8.696  25.595  11.428
14699W        W82928   9.314  25.158   4.617
14700W        W82929   6.201  27.438  11.011
14701W        W82930  20.567  16.089  13.346
14702W        W82931  13.804  32.965   0.371
14703W        W82932  16.697  41.563  10.931
14704W        W82933   5.322  12.249  13.552
14705W        W82934  40.437  27.359   4.399
14706W        W82935  27.221  30.626   1.353
14707W        W82936  15.587   3.024  12.318
14708W        W82937  14.031   9.791   2.303
14709W        W82938   7.622  17.248  14.941
14710W        W82939  29.037  26.105   0.430
14711W        W82940  22.538  39.371   3.923
14712W        W82941  22.132  43.503  11.583
14713W        W82942   4.271   8.966   3.621
14714W        W82943  13.851   0.184  10.741
14715W        W82944  15.116  41.916   0.660
14716W        W82945  44.724  24.708   1.883
14717W        W82946  44.023   8.214   2.746
14718W        W82947   8.242  41.331  12.830
14719W        W82948   4.303  42.255   2.784
14720W        W82949  41.797  14.066  11.186
14721W        W82950  27.672  21.996   2.716
14722W        W82951   6.342   0.996  13.997
14723W        W82952  32.112  32.996  10.709
14724W        W82953  20.101   4.198  14.500
14725W        W82954  15.345  35.627  14.107
14726W        W82955  17.386  40.220  11.915
14727W        W82956  17.709  43.465   0.801
14728W        W82957  24.026  40.018  10.918
14729W        W82958  28.937  32.407   3.534
14730W        W82959  16.340  34.862   1.992
14731W        W82960  19.745   6.187   0.359
14732W        W82961  21.059  19.541  12.408
14733W        W82962  18.082   4.295   3.668
14734W        W82963  43.365   5.541  10.731
14735W        W82964  44.886  32.416  11.471
14736W        W82965   9.759  10.725   5.225
14737W        W82966  17.635  11.999   2.869
14738W        W82967  18.300  16.811   2.015
14739W        W82968  22.436  33.069   3.779
14740W        W82969  35.918  10.638  11.709
14741W        W82970  25.192   8.935   0.811
14742W        W82971  12.316   2.963   4.243
14743W        W82972  41.329  21.019   0.559
14744W        W82973  25.866  24.770  12.517
14745W        W82974  44.729  22.804   4.187
14746W        W82975  23.134   8.023  13.912
14747W        W82976  23.336   4.405   3.598
14748W        W82977  16.384  11.649   3.404
14749W        W82978  15.113   4.469  13.935
14750W        W82979  23.140  44.238  10.493
14751W        W82980  42.786   7.632   1.532
14752W        W82981   9.743   6.461  11.464
14753W        W82982  24.599   2.650   2.272
14754W        W82983  15.716  10.961  12.185
14755W        W82984  43.946  28.064   4.793
14756W        W82985  31.549  21.012   0.358
14757W        W82986   8.229  21.247  14.276
14758W        W82987  29.177  13.399   0.856
14759W        W82988  24.429  41.820  11.459
14760W        W82989  21.405  22.139  11.374
14761W        W82990  36.130  21.065  11.715
14762W        W82991  39.998  21.160   1.537
14763W        W82992  16.721  26.503   3.617
14764W        W82993   4.990  12.451   1.895
14765W        W82994  33.360  31.458   2.256
14766W        W82995  44.263  35.001  12.127
14767W        W82996   1.966  22.757  14.307
14768W        W82997  42.830  38.417  14.485
14769W        W82998   2.821  28.949  13.562
14770W        W82999  43.583  23.702   1.383
14771W        W83000  25.794  43.432   4.622
14772W        W83001  39.521   3.956  11.904
14773W        W83002  13.145   2.908  13.993
14774W        W83003  15.230  16.010   0.070
14775W        W83004   3.834  13.649  11.855
14776W        W83005  41.218  11.465  14.496
14777W        W83006  13.562  22.987  14.331
14778W        W83007  35.025  37.454  14.739
14779W        W83008  32.627  10.023  12.482
14780W        W83009  44.849  25.094   3.300
14781W        W83010   8.636  28.975   1.913
14782W        W83011   2.311   3.233  10.738
14783W        W83012  20.664  25.578   4.411
14784W        W83013  11.094  38.254   1.787
14785W        W83014  30.986  28.604  10.070
14786W        W83015  33.522  33.213  14.838
14787W        W83016   9.140  37.749  14.945
14788W        W83017   9.321  29.139   4.169
14789W        W83018  37.443   5.285  14.608
14790W        W83019  30.203  17.152  13.870
14791W        W83020   4.383   0.118  11.649
14792W        W83021   9.618   9.417  10.480
14793W        W83022  16.864  37.926   2.189
14794W        W83023   7.636  32.096   5.128
14795W        W83024  40.548  40.376   4.574
14796W        W83025  40.518  19.159  13.950
14797W        W83026  29.483  26.531  10.647
14798W        W83027  28.676  13.264  14.903
14799W        W83028  30.049  43.639  14.705
14800W        W83029  15.637   3.493  12.559
14801W        W83030  17.357  43.935  12.822
14802W        W83031   0.044  38.074  11.947
14803W        W83032  33.082  39.509   4.087
14804W        W83033  40.493  35.682   4.839
14805W        W83034  37.866   7.159   0.324
14806W        W83035   2.045  43.844  10.472
14807W        W83036   2.930  18.549  10.545
14808W        W83037  27.964   9.826   1.752
14809W        W83038  33.971  19.608  12.691
14810W        W83039   5.689   9.883  12.863
14811W        W83040  43.420   0.804  12.118
14812W        W83041  11.587  36.992  12.885
14813W        W83042  42.843  31.230   4.747
14814W        W83043  22.575  29.391   0.710
14815W        W83044  27.289  20.156  14.847
14816W        W83045   4.050  29.948   2.245
14817W        W83046  41.472  30.571  12.492
14818W        W83047  24.105   6.721  12.019
14819W        W83048  13.180  30.442  14.323
14820W        W83049   6.787   4.332   1.328
14821W        W83050  40.959   3.918  14.691
14822W        W83051   7.391  42.249   1.403
14823W        W83052  38.313  34.109  12.081
14824W        W83053  36.221   2.506   0.288
14825W        W83054   4.921   1.029  12.919
14826W        W83055  29.308  37.196  14.588
14827W        W83056  44.021  22.170  14.257
14828W        W83057   2.473   3.689  11.647
14829W        W83058   1.887  40.912  10.644
14830W        W83059  44.945   8.546  11.498
14831W        W83060   9.087  13.355   3.693
14832W        W83061  12.178  21.835   1.931
14833W        W83062   4.033   7.719  10.744
14834W        W83063  39.431  17.316  12.405
14835W        W83064  14.785  30.635  12.921
14836W        W83065  27.420  16.007   3.200
14837W        W83066   2.905   3.410   0.289
14838W        W83067  36.379  15.900   3.048
14839W        W83068  12.773   3.812   0.414
14840W        W83069  42.061  26.032  13.978
14841W        W83070  40.023  42.972   1.883
14842W        W83071   0.859   9.743   2.283
14843W        W83072   6.223   0.888   0.752
14844W        W83073  30.712   6.006  13.279
14845W        W83074  39.529  14.802   2.799
14846W        W83075  20.475  32.199  12.464
14847W        W83076   6.281  13.805   2.335
14848W        W83077  27.901   6.655   9.941
14849W        W83078  16.793  13.583   0.851
14850W        W83079  44.702  19.717   4.641
14851W        W83080  43.840  31.046   2.898
14852W        W83081  36.153  34.522  14.472
14853W        W83082  43.054  39.985   2.132
14854W        W83083  44.352  27.540  13.971
14855W        W83084  33.847   7.281  12.067
14856W        W83085  10.401  16.933  13.345
14857W        W83086  21.848  41.507   0.194
14858W        W83087  27.656  30.310   0.452
14859W        W83088   9.903  18.836  11.196
14860W        W83089  10.384  35.110   2.210
14861W        W83090  44.139   7.216  13.585
14862W        W83091  14.170  16.833   0.890
14863W        W83092  24.069  31.693  13.543
14864W        W83093   1.896  30.743  11.563
14865W        W83094  13.604  44.252   0.411
14866W        W83095   2.392   2.475  14.345
14867W        W83096  33.997  43.422   0.299
14868W        W83097  27.191  34.426  11.863
14869W        W83098   1.308  38.297  14.718
14870W        W83099   5.456  30.718  14.509
14871W        W83100  36.332   0.247  11.472
14872W        W83101   5.239  38.928  11.110
14873W        W83102   5.907  38.290   2.832
14874W        W83103  44.835  19.695  14.618
14875W        W83104  36.342   2.332  14.406
14876W        W83105  11.878  44.804  13.470
14877W        W83106  20.222  34.653   4.717
14878W        W83107  10.135  43.708  10.255
14879W        W83108  11.093  14.144   2.821
14880W        W83109  12.211   8.260  12.912
14881W        W83110  28.753   4.690  10.851
14882W        W83111  13.097  31.183  11.683
14883W        W83112  34.151   9.876   1.698
14884W        W83113   4.236  33.367  11.954
14885W        W83114  11.656  31.691  11.795
14886W        W83115  22.259  16.523  14.488
14887W        W83116  44.428   2.119  13.041
14888W        W83117   4.761  19.537  12.640
14889W        W83118   0.799  36.883  11.261
14890W        W83119  10.295  40.972  11.555
14891W        W83120  14.791  22.822  11.282
14892W        W83121  37.496  29.108   0.283
14893W        W83122  11.579  44.811   1.811
14894W        W83123  17.701   4.020  10.638
14895W        W83124   7.553  39.527   1.976
14896W        W83125   2.694   3.356   3.279
14897W        W83126  15.858  39.851  14.964
14898W        W83127   5.301  26.495  11.248
14899W        W83128  34.509  39.357  11.851
14900W        W83129  13.775  38.657  10.345
14901W        W83130  14.455  25.968   0.971
14902W        W83131  40.921   9.591  14.446
14903W        W83132  39.868  31.739  12.210
14904W        W83133  14.806  14.250  11.556
14905W        W83134   7.058  31.592  11.193
14906W        W83135  39.584  14.170   3.642
14907W        W83136  20.869  39.161  14.910
14908W        W83137  10.661  14.101  13.042
14909W        W83138   3.290  33.200  12.993
14910W        W83139  10.850  22.653  14.866
14911W        W83140  31.042   0.380   4.473
14912W        W83141  39.438  16.623   0.332
14913W        W83142  41.697  25.187  10.415
14914W        W83143  11.883  22.555  13.854
14915W        W83144  37.870  25.304  14.885
14916W        W83145  31.210  22.342  11.053
14917W        W83146  29.693  19.639  14.986
14918W        W83147   1.463  25.966   1.693
14919W        W83148  43.896  14.031   0.780
14920W        W83149  19.367  14.726  13.455
14921W        W83150  22.604  25.414   2.568
14922W        W83151  18.772   4.910   2.786
14923W        W83152   8.431  30.042  13.525
14924W        W83153  39.037  22.526  14.604
14925W        W83154  43.105  21.336  13.448
14926W        W83155  16.005  13.326  13.071
14927W        W83156   0.536  27.143   1.898
14928W        W83157  22.607  37.607   5.010
14929W        W83158  29.625  21.995  12.087
14930W        W83159  26.149   6.571  13.558
14931W        W83160  32.968  37.686  13.821
14932W        W83161   3.484  21.152   5.103
14933W        W83162   9.332  40.347   3.174
14934W        W83163  29.698  14.222  11.182
14935W        W83164  27.158  16.910   2.861
14936W        W83165  33.370  23.132  11.529
14937W        W83166  20.717   9.270   3.807
14938W        W83167  31.869  30.030  10.651
14939W        W83168  39.332  19.050   2.997
14940W        W83169  27.711  31.589   4.977
14941W        W83170   2.365  17.294  14.609
14942W        W83171  27.888  13.658  13.102
14943W        W83172  41.293  41.391   4.660
14944W        W83173  35.966   2.607  12.080
14945W        W83174   9.941  34.870  10.385
14946W        W83175  23.942  30.092   3.217
14947W        W83176  40.839   1.241   0.345
14948W        W83177  26.449  22.323   2.250
14949W        W83178   7.628  31.565  12.058
14950W        W83179  10.177   1.497  10.604
14951W        W83180   6.663  41.135   4.086
14952W        W83181   7.533   4.257   1.749
14953W        W83182  36.083   6.839   0.743
14954W        W83183   1.352  30.475  13.608
14955W        W83184  18.839  25.202   1.913
14956W        W83185   7.631  22.589   1.396
14957W        W83186   3.824  27.421  11.074
14958W        W83187  28.176  41.133   1.291
14959W        W83188  30.200  34.659  11.126
14960W        W83189   4.711   9.109   3.843
14961W        W83190  18.259  11.586  10.734
14962W        W83191   8.419  29.824   2.317
14963W        W83192  35.887   7.197  12.478
14964W        W83193  14.724  18.691  12.631
14965W        W83194  17.827   7.640  11.509
14966W        W83195   6.514  18.275  11.158
14967W        W83196  27.023  26.513  13.872
14968W        W83197   4.209  20.083   1.984
14969W        W83198  22.892  37.059   3.992
14970W        W83199  24.238   3.995  13.570
14971W        W83200  42.573   2.783  11.171
14972W        W83201  29.982  24.714  14.441
14973W        W83202  32.808   9.206   5.057
14974W        W83203  43.426  22.674   1.328
14975W        W83204   3.923  29.883   0.889
14976W        W83205  11.084  35.119  14.862
14977W        W83206  42.235   6.382   1.142
14978W        W83207  44.794  44.265  11.939
14979W        W83208   1.409   3.448   4.108
14980W        W83209  38.864  42.883   4.639
14981W        W83210  31.857  32.188  10.960
14982W        W83211   9.281   8.230   3.703
14983W        W83212  28.982  31.271   2.776
14984W        W83213  11.391  43.204   2.576
14985W        W83214  42.032  23.765   0.560
14986W        W83215   8.621  24.392   3.987
14987W        W83216  43.512  26.735   0.807
14988W        W83217  40.579   9.137   2.094
14989W        W83218   1.234  18.849  12.236
14990W        W83219  36.610  40.837  11.347
14991W        W83220  34.891   6.756   3.698
14992W        W83221   2.363   3.394  14.066
14993W        W83222  43.265  21.757  14.807
14994W        W83223  43.495   6.630  14.511
14995W        W83224  21.278  10.443  14.237
14996W        W83225  18.251  15.215   0.897
14997W        W83226  31.372   3.608   0.451
14998W        W83227  24.576   0.092  13.354
14999W        W83228  10.655  30.718  13.808
15000W        W83229  18.078  11.372   3.343
15001W        W83230  27.339  22.263  11.967
15002W        W83231   5.014  35.601  12.029
15003W        W83232  14.083   4.408  10.877
15004W        W83233  33.594  24.210  11.147
15005W        W83234   5.148  10.629  13.423
15006W        W83235  42.617  36.708   1.177
15007W        W83236  35.461  36.826  13.624
15008W        W83237  27.598  44.634   0.043
15009W        W83238  28.521  43.919   4.624
15010W        W83239  42.401   3.323   4.401
15011W        W83240  22.848  24.156   4.104
15012W        W83241  32.708   1.806   1.414
15013W        W83242  34.036  30.645  10.692
15014W        W83243  40.432  31.365  14.862
15015W        W83244   5.806   9.176   4.643
15016W        W83245  31.456  36.583  12.047
15017W        W83246  30.518   8.127   4.963
15018W        W83247   6.698  22.012   2.745
15019W        W83248  23.272  16.272  12.403
15020W        W83249  39.385  10.185   3.220
15021W        W83250   1.709   4.406   2.001
15022W        W83251   8.152   3.207   0.918
15023W        W83252   2.508  10.949  13.034
15024W        W83253   9.251   7.885   3.294
15025W        W83254  28.731  23.920  11.576
15026W        W83255  25.248  43.749  14.413
15027W        W83256  13.753  24.536  10.643
15028W        W83257  21.403   6.320   0.991
15029W        W83258   8.439  38.728  14.480
15030W        W83259  22.214  27.377   0.121
15031W        W83260  34.537  10.340   2.642
15032W        W83261  25.664  33.325   4.650
15033W        W83262  33.483  31.346  13.262
15034W        W83263  16.375  34.383  13.800
15035W        W83264  20.171  28.500  11.156
15036W        W83265  34.065  11.129   4.191
15037W        W83266  21.128  42.923  12.186
15038W        W83267   9.873  32.914   0.440
15039W        W83268   2.344  28.793  13.755
15040W        W83269  18.279  25.679   2.501
15041W        W83270   8.768  12.407  13.995
15042W        W83271   9.930  20.541  12.534
15043W        W83272  28.148  34.169   1.829
15044W        W83273  29.507  36.460   2.118
15045W        W83274  18.295  19.642   3.487
15046W        W83275  14.580   8.440  14.575
15047W        W83276  25.138  39.531  12.891
15048W        W83277  14.608  35.976   2.941
15049W        W83278  34.654  24.859  12.630
15050W        W83279  41.979   7.947   1.296
15051W        W83280  27.400   1.174   3.790
15052W        W83281  19.030  12.370   3.609
15053W        W83282  24.668   7.460   3.601
15054W        W83283  10.280  28.987   3.389
15055W        W83284  22.208  42.435  12.596
15056W        W83285   1.810  18.966  14.185
15057W        W83286   6.582  18.516   0.381
15058W        W83287  41.522   6.295  11.604
15059W        W83288   7.852  19.140  12.946
15060W        W83289   8.885   2.958  10.755
15061W        W83290  37.902  20.745  10.785
15062W        W83291  19.276  30.031   5.023
15063W        W83292  35.337   1.896  12.986
15064W        W83293  35.673  21.726   2.332
15065W        W83294   4.662  27.190   0.373
15066W        W83295  22.692  36.025  11.517
15067W        W83296   5.741  44.272  13.225
15068W        W83297   9.911  21.155  11.671
15069W        W83298  24.338   6.932  10.471
15070W        W83299  11.573   0.464   2.464
15071W        W83300  43.445  11.587  12.050
15072W        W83301   0.948   3.808   0.854
15073W        W83302  14.148  11.070  10.552
15074W        W83303   9.192  13.252  13.112
15075W        W83304  11.156   5.367   2.250
15076W        W83305  30.648   4.427  11.180
15077W        W83306  10.038  12.762  14.864
15078W        W83307   7.617  16.299  12.629
15079W        W83308  26.905  11.614  13.107
15080W        W83309  11.419  24.601   3.734
15081W        W83310  30.459   3.394   4.662
15082W        W83311  11.879  41.487  12.525
15083W        W83312  18.244  34.665   0.787
15084W        W83313   8.231  21.602  13.824
15085W        W83314  39.093   4.285   4.072
15086W        W83315   4.861   1.484   2.774
15087W        W83316  28.067  40.342  12.938
15088W        W83317   5.905   9.690   4.778
15089W        W83318   5.398  23.082  14.389
15090W        W83319  25.446  15.087  11.431
15091W        W83320  36.809   6.742   1.743
15092W        W83321  19.644  28.671  10.716
15093W        W83322   5.258  29.440  11.990
15094W        W83323   6.766   9.306   0.003
15095W        W83324   2.250  24.556  13.910
15096W        W83325  42.595  11.146  14.733
15097W        W83326  41.780  31.732   0.475
15098W        W83327   7.193  27.941  12.093
15099W        W83328  41.419  37.726   1.710
15100W        W83329  11.826  39.837   2.313
15101W        W83330  32.550  21.692  11.170
15102W        W83331  36.365  22.654  14.055
15103W        W83332  36.548  22.238  10.752
15104W        W83333  36.124   6.287  13.934
15105W        W83334  14.657  13.590  12.987
15106W        W83335  18.659  18.096   2.502
15107W        W83336  25.332   9.828  12.556
15108W        W83337   4.188  29.582   1.711
15109W        W83338  43.453  28.951   1.444
15110W        W83339  43.565  28.294  13.434
15111W        W83340  30.560  22.116   3.801
15112W        W83341   7.406  38.060   4.622
15113W        W83342  16.269   1.336   2.745
15114W        W83343  33.170  14.787  12.435
15115W        W83344  40.272  33.655   4.381
15116W        W83345   5.256  15.697   0.716
15117W        W83346  34.963  20.956   3.935
15118W        W83347   1.720  14.224  12.035
15119W        W83348  42.429  27.135   3.969
15120W        W83349  34.344   9.395   4.145
15121W        W83350  32.864   1.383   2.233
15122W        W83351  42.343   1.002   4.120
15123W        W83352  34.846  20.500  13.955
15124W        W83353  22.198  26.143  14.973
15125W        W83354   4.704  14.739  14.275
15126W        W83355  26.326  15.579  13.786
15127W        W83356  16.389   5.735   4.205
15128W        W83357  29.223  15.813  11.973
15129W        W83358   5.346  23.142   1.991
15130W        W83359   8.575  13.662  13.417
15131W        W83360   2.542  14.545  11.991
15132W        W83361  20.093   0.505  14.026
15133W        W83362   1.920  24.954  12.961
15134W        W83363  34.073  12.087   4.596
15135W        W83364  20.435  37.343  13.461
15136W        W83365  14.088  25.484  10.329
15137W        W83366  39.069   7.330   0.941
15138W        W83367  35.817  30.991   3.263
15139W        W83368  16.564  12.821   3.700
15140W        W83369  44.845  42.928   4.906
15141W        W83370   6.827  11.548   3.318
15142W        W83371  16.291  35.397   4.590
15143W        W83372   1.030  26.626  11.195
15144W        W83373   1.920  44.514  14.923
15145W        W83374  12.725  14.310  13.923
15146W        W83375  18.290  27.659  12.065
15147W        W83376  21.550   7.285  14.680
15148W        W83377  17.102  37.591   1.225
15149W        W83378  39.251  32.534   3.616
15150W        W83379   5.596  42.387   1.817
15151W        W83380  13.456  19.859   3.124
15152W        W83381  14.236   5.806   1.244
15153W        W83382  39.520  43.421  13.636
15154W        W83383   4.713   1.786   1.814
15155W        W83384   1.558  29.944  10.821
15156W        W83385  14.116   2.326   2.698
15157W        W83386   8.911  18.759  13.917
15158W        W83387  19.246   0.407   4.596
15159W        W83388  20.135  11.543   3.797
15160W        W83389   4.557  20.424   0.144
15161W        W83390  34.278  33.343   1.259
15162W        W83391  38.025   1.380  11.395
15163W        W83392  28.128  22.146  14.491
15164W        W83393  18.845  16.122  10.794
15165W        W83394  31.039  11.756   3.807
15166W        W83395  16.023  28.621   1.343
15167W        W83396  14.743  31.406  12.436
15168W        W83397  13.624  34.192  11.103
15169W        W83398  21.219  27.406   1.317
15170W        W83399  24.915  11.755  14.396
15171W        W83400  20.106   3.578  12.554
15172W        W83401  44.845  16.591   4.733
15173W        W83402  43.224  29.513   4.946
15174W        W83403  41.863   9.809  10.688
15175W        W83404   0.638  23.786  13.942
15176W        W83405  24.961  14.158  10.285
15177W        W83406  20.526   3.256  13.455
15178W        W83407   0.756  26.727   0.353
15179W        W83408   7.317  43.457   3.623
15180W        W83409   9.560  16.234   1.929
15181W        W83410  34.386  39.044   1.233
15182W        W83411  34.536  16.680   3.731
15183W        W83412   9.098  27.022   2.828
15184W        W83413  14.172   1.028  13.270
15185W        W83414   2.018  17.132   1.125
15186W        W83415  38.558  38.429  14.532
15187W        W83416  28.707  27.677   1.411
15188W        W83417  32.122   1.211   0.986
15189W        W83418  17.283  43.848   2.746
15190W        W83419  33.152   9.628   1.647
15191W        W83420   3.696   3.827  11.688
15192W        W83421  20.708  38.588   0.259
15193W        W83422  37.501   1.043  10.447
15194W        W83423  43.512   8.416   0.239
15195W        W83424  28.068  27.401  14.896
15196W        W83425  33.450   2.463   2.836
15197W        W83426  32.708  16.787   1.222
15198W        W83427  18.744  32.091   1.710
15199W        W83428  38.921  32.929  13.882
15200W        W83429  17.239   2.080  13.357
15201W        W83430  29.886  43.869   0.874
15202W        W83431   4.749  10.274  11.428
15203W        W83432  18.866  27.474  13.482
15204W        W83433  14.361  15.597   3.575
15205W        W83434  38.394  23.261  11.185
15206W        W83435  38.524   7.954   2.228
15207W        W83436  37.959  10.688   3.573
15208W        W83437  21.186  23.713  12.090
15209W        W83438   6.290  25.179  10.383
15210W        W83439  37.302  28.628   0.173
15211W        W83440   6.880   8.961   0.624
15212W        W83441  20.506  43.649  11.923
15213W        W83442  40.706  14.221  10.513
15214W        W83443  16.302   8.688   1.590
15215W        W83444  40.955  38.850   2.286
15216W        W83445  38.024  11.142  13.748
15217W        W83446  27.643  20.826  14.359
15218W        W83447   9.187   9.236  11.219
15219W        W83448  25.054  27.105  12.195
15220W        W83449  41.429   4.167   4.135
15221W        W83450   5.125   5.250  14.281
15222W        W83451   9.288  10.290  12.354
15223W        W83452  32.171  32.203   2.212
15224W        W83453  26.966  13.916   5.064
15225W        W83454  30.164  30.960   1.730
15226W        W83455  23.826  32.335  14.403
15227W        W83456   5.623  32.848   0.228
15228W        W83457  35.412  32.184   2.872
15229W        W83458  23.965  30.780  12.665
15230W        W83459  28.411  21.074   3.262
15231W        W83460   4.928  35.148  12.888
15232W        W83461   4.037  23.177   3.387
15233W        W83462   2.331  20.986  11.027
15234W        W83463  31.385  31.206  13.521
15235W        W83464  41.339  12.593   0.279
15236W        W83465  19.524  22.030   2.320
15237W        W83466  29.738  34.025   1.725
15238W        W83467  27.886  16.156   2.346
15239W        W83468  31.288  23.745   4.117
15240W        W83469  39.894  14.673  12.530
15241W        W83470  26.699   9.868  12.372
15242W        W83471  36.102   4.294  14.406
15243W        W83472  44.502   0.952  12.417
15244W        W83473  39.570  41.082   0.174
15245W        W83474   3.845   2.714   3.243
15246W        W83475  11.277  22.559   3.604
15247W        W83476  35.433  28.639   0.617
15248W        W83477  42.914   2.746   3.111
15249W        W83478  25.478  30.083  13.940
15250W        W83479   6.844  22.970  13.883
15251W        W83480  35.760  20.924  14.877
15252W        W83481  34.672  41.327  13.803
15253W        W83482  20.293  33.326   9.917
15254W        W83483  26.095  28.171   0.790
15255W        W83484  28.179   7.361   2.675
15256W        W83485  40.215  17.869   2.739
15257W        W83486  40.275  41.471   3.227
15258W        W83487  33.286   2.423  14.414
15259W        W83488   9.275  27.530   3.053
15260W        W83489  17.814  10.010  11.604
15261W        W83490  21.742  13.320   0.616
15262W        W83491  42.310  31.885   3.124
15263W        W83492  25.340   0.834   1.981
15264W        W83493  40.489  31.412   4.117
15265W        W83494  34.043  28.564   3.127
15266W        W83495  27.577  21.718  14.052
15267W        W83496  40.331   4.623   2.669
15268W        W83497  41.811   1.962   4.041
15269W        W83498   4.288  29.743  10.844
15270W        W83499  34.034  15.489  11.032
15271W        W83500  17.388  37.302  10.679
15272W        W83501  15.423  19.255  11.554
15273W        W83502   6.903  16.832  14.026
15274W        W83503  42.688  41.979  14.721
15275W        W83504  16.182  27.670   4.274
15276W        W83505  29.215  19.166  11.730
15277W        W83506  31.505   0.797   1.839
15278W        W83507   4.847   0.440   3.665
15279W        W83508  36.562  17.102   0.755
15280W        W83509  36.268  24.701   1.373
15281W        W83510  43.766  28.001   1.158
15282W        W83511  22.127  11.600   3.993
15283W        W83512  23.691   6.965   3.263
15284W        W83513   0.898  28.134  12.811
15285W        W83514  15.338  32.162   3.397
15286W        W83515  16.563  14.156  11.034
15287W        W83516   8.611  32.982   0.996
15288W        W83517   1.866  21.010   4.181
15289W        W83518   2.954  40.971  12.132
15290W        W83519  25.034  37.862   0.673
15291W        W83520   0.274  43.342  10.587
15292W        W83521  19.073   0.785   4.941
15293W        W83522  32.575  41.290   1.446
15294W        W83523   7.506   6.974   4.880
15295W        W83524  36.921   2.895  12.909
15296W        W83525   1.436   1.378  10.949
15297W        W83526  22.342  34.069  14.469
15298W        W83527  16.826  25.601   4.608
15299W        W83528  25.306  19.079   0.439
15300W        W83529  31.523   6.438  11.693
15301W        W83530  30.034  42.228  12.435
15302W        W83531  34.219  26.084  12.547
15303W        W83532   3.915  11.957  11.534
15304W        W83533  22.581  42.366  14.581
15305W        W83534  42.730  17.206  12.591
15306W        W83535  13.583  24.440   1.263
15307W        W83536  18.536   4.854  11.521
15308W        W83537  17.954  32.893   3.319
15309W        W83538  35.917  41.245  13.159
15310W        W83539  22.492  32.032   1.740
15311W        W83540  18.184  41.438   0.535
15312W        W83541  10.728  44.614   4.186
15313W        W83542  30.595   9.204   0.992
15314W        W83543  10.857  29.998   4.459
15315W        W83544  39.498  29.140   3.704
15316W        W83545  38.510  18.586  11.504
15317W        W83546  41.980  44.348   2.348
15318W        W83547  38.077  16.925  14.306
15319W        W83548  21.490  38.050   3.564
15320W        W83549  32.890  42.392  11.206
15321W        W83550  15.517  37.738   2.805
15322W        W83551  38.405  22.739  11.068
15323W        W83552  30.513  21.183   3.750
15324W        W83553  10.894  41.086  13.036
15325W        W83554  16.573  26.118  12.370
15326W        W83555   4.113  33.115   1.707
15327W        W83556  17.090  44.868  12.070
15328W        W83557  40.497   1.663  10.733
15329W        W83558  34.613  11.080   4.709
15330W        W83559  27.349  26.315   3.831
15331W        W83560  17.083  41.812  13.927
15332W        W83561  43.882  31.622   3.731
15333W        W83562   2.740  19.596  10.915
15334W        W83563  20.731  10.286   2.798
15335W        W83564  22.811   9.451   4.683
15336W        W83565   6.914  19.158   3.332
15337W        W83566  36.611  41.863  12.461
15338W        W83567  11.896  42.394  13.023
15339W        W83568   9.792  38.167  14.418
15340W        W83569  15.897  15.853  12.170
15341W        W83570  31.280  33.874  10.854
15342W        W83571  33.743  30.199  12.363
15343W        W83572  12.322  44.305   4.859
15344W        W83573  36.476  11.576   1.343
15345W        W83574  13.335  12.644   1.623
15346W        W83575  31.561  16.257  14.504
15347W        W83576  42.599   0.468  11.071
15348W        W83577  37.753  26.264   3.859
15349W        W83578  14.006   3.432  13.263
15350W        W83579  24.094  38.644   3.164
15351W        W83580  38.796  14.145  12.190
15352W        W83581  43.277  29.252  12.477
15353W        W83582  33.116  11.642   2.852
15354W        W83583  37.611  12.048   3.610
15355W        W83584  18.281  20.317   0.913
15356W        W83585  15.328  10.399   0.083
15357W        W83586  14.120  40.899   0.984
15358W        W83587  38.002  14.311   4.528
15359W        W83588  33.367  13.284   4.684
15360W        W83589  10.297  14.149   1.706
15361W        W83590  41.478   5.487   0.886
15362W        W83591  13.080  28.132  13.310
15363W        W83592  17.775  14.250   3.418
15364W        W83593  23.198  30.380  10.719
15365W        W83594   6.828  24.003   2.824
15366W        W83595   3.403  42.463   2.443
15367W        W83596  32.861   4.268  14.955
15368W        W83597  42.288  12.209  14.439
15369W        W83598  15.320  14.721  11.889
15370W        W83599  44.075  34.823  13.058
15371W        W83600  26.211   6.336   4.661
15372W        W83601   3.344  35.411  14.069
15373W        W83602  38.362  33.670   1.806
15374W        W83603  40.820   7.446  11.143
15375W        W83604   1.106  26.723  12.512
15376W        W83605   7.458  16.632   0.315
15377W        W83606  29.491  11.846  11.074
15378W        W83607  27.361  39.358  10.736
15379W        W83608  15.825  42.776   5.081
15380W        W83609   9.716  30.892  10.927
15381W        W83610  25.167  40.547  12.426
15382W        W83611  41.510  19.207  14.980
15383W        W83612  36.875  10.285   2.174
15384W        W83613  39.447  23.633  11.585
15385W        W83614  26.217  43.064   0.140
15386W        W83615  41.140   6.177  12.142
15387W        W83616   5.212   4.427  14.356
15388W        W83617  33.594  12.235   3.257
15389W        W83618   0.734   2.201  11.152
15390W        W83619  39.350  25.734   4.762
15391W        W83620  34.163   2.412   0.696
15392W        W83621  31.801  33.907  10.785
15393W        W83622  31.943  10.686  12.137
15394W        W83623  37.188  28.268   5.756
15395W        W83624  40.303  24.559   3.158
15396W        W83625   5.426  25.140   0.751
15397W        W83626   3.201  12.172  14.072
15398W        W83627  42.295  12.038   0.835
15399W        W83628  21.062  13.318  11.596
15400W        W83629  42.811  24.865  12.947
15401W        W83630  43.940  32.127  10.670
15402W        W83631   6.943  38.701   3.596
15403W        W83632  24.381   8.946  12.642
15404W        W83633   1.930  36.015   3.110
15405W        W83634   2.649  32.856  11.062
15406W        W83635  15.926  33.051  14.569
15407W        W83636  37.610  40.431  12.985
15408W        W83637  22.876  26.730   1.160
15409W        W83638  42.328  23.571  10.471
15410W        W83639  34.056  40.581  13.631
15411W        W83640   0.807  43.800   0.271
15412W        W83641   3.510   3.184  11.136
15413W        W83642  18.854  33.713   3.613
15414W        W83643  40.521   3.648   2.638
15415W        W83644  24.208  29.210   4.470
15416W        W83645  37.313   7.113   2.390
15417W        W83646   1.497  11.206  13.961
15418W        W83647  37.401  20.643  10.973
15419W        W83648  21.542  43.521  13.592
15420W        W83649  37.843   3.262  10.670
15421W        W83650  38.048   7.332  11.976
15422W        W83651  29.354  33.865   4.142
15423W        W83652  38.991  15.805  13.909
15424W        W83653  22.748  14.475  10.465
15425W        W83654   8.291  40.500  13.823
15426W        W83655  14.675  29.488  14.952
15427W        W83656  30.437  17.806   4.591
15428W        W83657  29.694  41.481  10.701
15429W        W83658   7.586   9.397   1.489
15430W        W83659  36.102  42.920  11.807
15431W        W83660  20.989  43.392   1.649
15432W        W83661   9.313  26.238  13.059
15433W        W83662  17.594  15.329  12.076
15434W        W83663   7.882  26.419   4.286
15435W        W83664  42.739  40.471  11.195
15436W        W83665  25.979  16.966   0.678
15437W        W83666  19.572   6.209  14.860
15438W        W83667  43.269  33.487  12.809
15439W        W83668  17.002  24.273  13.468
15440W        W83669  31.991  30.949   4.898
15441W        W83670  24.171  11.953  14.900
15442W        W83671  38.448  19.540  14.499
15443W        W83672  32.374   4.155   3.900
15444W        W83673  15.372  10.366  13.802
15445W        W83674  40.074  30.445   3.554
15446W        W83675  18.313  10.137  11.509
15447W        W83676  26.573  29.929   4.527
15448W        W83677  27.677  35.150   1.326
15449W        W83678  17.735  29.079   1.021
15450W        W83679  22.208  33.922  11.445
15451W        W83680  17.278  33.471   1.309
15452W        W83681  43.797  15.064   3.615
15453W        W83682  44.539  15.772  10.701
15454W        W83683  20.138  12.249  11.540
15455W        W83684  32.138  19.973   0.922
15456W        W83685  32.675  11.741  11.185
15457W        W83686  26.576   0.800  13.558
15458W        W83687  12.488   6.730  11.264
15459W        W83688  37.511  15.445   5.067
15460W        W83689  39.819  30.805   0.233
15461W        W83690  28.107  43.515   2.667
15462W        W83691  34.146  41.330  12.485
15463W        W83692   8.633  16.781  10.646
15464W        W83693  11.757  25.666  12.784
15465W        W83694  11.813  31.358   1.428
15466W        W83695   7.010  15.657   3.616
15467W        W83696  32.202  27.950  12.042
15468W        W83697  43.598  26.523  13.027
15469W        W83698   5.983  37.041  11.278
15470W        W83699  43.980   7.543   3.408
15471W        W83700  29.902  44.669   1.800
15472W        W83701  18.355  22.130  10.630
15473W        W83702  40.016  20.068   4.771
15474W        W83703  43.771  38.142   4.088
15475W        W83704   3.916  23.691   2.801
15476W        W83705  19.133   2.690  11.572
15477W        W83706  26.560  28.981  12.583
15478W        W83707  30.903  18.242  14.464
15479W        W83708   8.718  28.075   3.695
15480W        W83709  10.227   1.243   3.688
15481W        W83710  17.639  17.721   3.203
15482W        W83711  13.368  25.451   4.322
15483W        W83712  15.118  14.145  12.507
15484W        W83713  24.362   2.703  12.213
15485W        W83714  13.817  18.652  14.504
15486W        W83715   0.850  39.001   0.829
15487W        W83716  13.335   3.075   4.337
15488W        W83717  37.323  10.094  10.665
15489W        W83718   0.481   6.767   3.734
15490W        W83719  15.724  17.107  12.363
15491W        W83720   0.872  36.387   3.871
15492W        W83721  22.385   4.072  14.506
15493W        W83722  43.376  26.724  13.487
15494W        W83723  19.993  19.986   2.823
15495W        W83724  44.396  36.474  13.343
15496W        W83725  36.799  38.561  14.010
15497W        W83726  20.878   8.403   3.686
15498W        W83727  20.503  32.668  13.869
15499W        W83728  31.730  20.762  13.940
15500W        W83729  42.346  29.482  13.410
15501W        W83730  39.455   6.884  10.163
15502W        W83731  38.130  33.037   4.637
15503W        W83732  12.332  24.997   3.082
15504W        W83733   3.993  16.715  13.369
15505W        W83734  31.833  21.070  10.738
15506W        W83735   6.382  43.889  11.147
15507W        W83736  41.567  30.871   4.988
15508W        W83737   3.252  41.973  11.230
15509W        W83738   5.264   5.341   4.140
15510W        W83739  34.489  44.373  13.316
15511W        W83740  15.634  41.514  12.427
15512W        W83741  43.426  44.262  13.920
15513W        W83742  40.944  42.853  14.418
15514W        W83743   1.324  13.314  14.896
15515W        W83744   1.955  32.595  10.439
15516W        W83745  22.522  18.328   0.501
15517W        W83746  41.721  40.676   0.981
15518W        W83747  44.265  27.265   4.081
15519W        W83748   7.894  12.208  12.066
15520W        W83749   0.910   8.981  13.045
15521W        W83750  35.688   6.805  13.372
15522W        W83751  41.481  39.903  11.115
15523W        W83752  25.228  36.580  14.153
15524W        W83753  24.708   3.251   4.499
15525W        W83754  38.418  32.345  11.003
15526W        W83755  10.633   4.373   4.210
15527W        W83756  39.122  38.161   0.883
15528W        W83757  12.609  36.499   2.613
15529W        W83758   2.054  17.656  13.984
15530W        W83759  16.279  43.952   0.276
15531W        W83760  38.763  31.651   1.402
15532W        W83761   8.701   6.347   2.119
15533W        W83762  15.344   8.370   4.540
15534W        W83763   8.764  38.649   3.755
15535W        W83764   2.887  34.052   3.616
15536W        W83765  36.880  33.473   3.746
15537W        W83766  18.682  40.879  13.126
15538W        W83767  13.172  22.492  12.617
15539W        W83768   4.174   2.774  13.137
15540W        W83769  16.480   8.722   5.011
15541W        W83770  10.029   4.578   2.755
15542W        W83771  44.215  34.973   1.370
15543W        W83772  12.718  42.701  13.798
15544W        W83773  23.465  11.345   5.485
15545W        W83774  23.567  24.455   0.983
15546W        W83775  10.742  29.340   1.670
15547W        W83776  28.167  33.088  14.890
15548W        W83777  10.177  21.338   3.790
15549W        W83778  25.379  31.512  12.376
15550W        W83779   0.717  15.622   1.189
15551W        W83780   6.180  12.332   4.211
15552W        W83781  10.612   6.826  10.421
15553W        W83782   8.147  18.275  13.005
15554W        W83783  21.322  21.101   4.709
15555W        W83784  26.757  36.846   4.205
15556W        W83785  20.054  11.116   1.709
15557W        W83786  18.700  24.935   2.836
15558W        W83787  27.064  22.751   0.232
15559W        W83788  38.868  36.286  12.589
15560W        W83789  24.463  17.665  11.242
15561W        W83790  24.410  17.031  11.630
15562W        W83791  23.023  38.287   0.560
15563W        W83792   0.263  26.830  11.820
15564W        W83793  14.967  39.866  12.432
15565W        W83794  25.990  14.120   1.953
15566W        W83795  24.119  39.037  11.497
15567W        W83796  14.677  31.858  11.028
15568W        W83797  15.874   7.897  11.595
15569W        W83798  28.184  23.501  12.435
15570W        W83799  44.983  14.701   1.293
15571W        W83800   8.615  27.141  14.237
15572W        W83801  39.556  33.870   0.715
15573W        W83802  26.493  44.830  10.664
15574W        W83803   1.748  17.554  11.995
15575W        W83804   7.128  40.506  12.018
15576W        W83805   2.213  30.365   1.247
15577W        W83806  22.584  20.602   3.344
15578W        W83807   6.180   7.165  13.574
15579W        W83808  41.516   9.761  12.428
15580W        W83809  38.296  27.476  13.949
15581W        W83810  28.380  14.157   2.142
15582W        W83811  31.619   6.730   0.947
15583W        W83812   5.714  21.301  11.580
15584W        W83813  21.110  26.488   3.597
15585W        W83814   2.042  26.459  14.779
15586W        W83815  44.767  37.047   5.248
15587W        W83816  39.472  16.218  10.654
15588W        W83817   4.471  39.096  11.294
15589W        W83818  36.796  28.535  12.073
15590W        W83819   8.413   7.188   2.353
15591W        W83820  29.976   9.291   2.802
15592W        W83821  35.007  33.188  11.625
15593W        W83822  22.528  31.833  12.491
15594W        W83823  38.062  32.859   1.898
15595W        W83824  30.881   9.333   0.234
15596W        W83825  29.870  39.341   2.250
15597W        W83826  42.160  40.820  13.061
15598W        W83827  10.638   5.357  12.654
15599W        W83828   9.294   3.817  11.044
15600W        W83829  25.748  31.029   3.966
15601W        W83830  32.302  33.386  11.611
15602W        W83831  33.905  11.679  14.239
15603W        W83832  43.541  19.606   3.113
15604W        W83833   5.967  43.471  12.429
15605W        W83834  18.342   0.969  10.726
15606W        W83835  11.353  27.759   1.786
15607W        W83836  16.742   1.755   4.289
15608W        W83837  21.533   4.906   4.960
15609W        W83838  21.387  30.874  13.802
15610W        W83839  29.188  27.282   3.369
15611W        W83840  34.617  28.936   1.488
15612W        W83841  33.791  18.878   0.521
15613W        W83842  28.382  37.436  11.970
15614W        W83843  21.058  15.718   4.342
15615W        W83844  40.807   8.722  10.560
15616W        W83845   5.838   9.877  12.324
15617W        W83846  14.713  10.857   2.124
15618W        W83847  11.620  25.444  14.941
15619W        W83848  32.113  15.277  13.938
15620W        W83849  21.504  23.646  13.307
15621W        W83850  11.264  39.898  12.615
15622W        W83851   4.797  28.245   1.204
15623W        W83852   2.643  22.029  14.054
15624W        W83853  25.655  14.837  11.021
15625W        W83854   6.442  17.411  12.002
15626W        W83855  20.458  13.778  14.818
15627W        W83856  32.127  36.514  10.758
15628W        W83857  39.020   5.876  13.935
15629W        W83858  13.260  21.445   4.120
15630W        W83859   2.511   8.840   4.005
15631W        W83860  27.493   9.476   3.161
15632W        W83861  12.660  32.971   3.664
15633W        W83862  31.022  15.583  13.969
15634W        W83863  35.563  30.904   3.721
15635W        W83864  35.380  21.706  13.729
15636W        W83865  39.827   8.963  14.949
15637W        W83866  17.142  36.898   3.289
15638W        W83867  29.952  24.774   0.865
15639W        W83868  14.763  11.008   2.605
15640W        W83869   7.126  21.616  13.039
15641W        W83870  18.966  22.822  11.572
15642W        W83871  22.144  24.651   1.836
15643W        W83872   7.889  35.900   2.272
15644W        W83873  21.341   2.686   2.831
15645W        W83874   3.369  23.527   0.489
15646W        W83875  36.805  20.707  13.143
15647W        W83876  25.652  15.814  14.956
15648W        W83877  27.934  28.302  11.777
15649W        W83878  13.649  21.559   0.236
15650W        W83879  38.603  28.791   2.693
15651W        W83880  38.557  25.350   4.126
15652W        W83881  23.285   7.766  13.464
15653W        W83882  17.594  15.452   0.225
15654W        W83883  21.217  15.071   3.540
15655W        W83884  36.116  19.593   3.549
15656W        W83885   3.280  44.421   4.461
15657W        W83886  12.678  31.638  13.944
15658W        W83887  26.935  11.444   4.060
15659W        W83888   2.954   5.675   2.684
15660W        W83889  17.519  42.470   1.014
15661W        W83890   6.260  39.941   1.874
15662W        W83891  37.374  27.564  14.334
15663W        W83892  21.435   9.329   4.568
15664W        W83893   4.331  41.100  12.934
15665W        W83894  29.375  12.095  11.506
15666W        W83895  22.656  42.028  14.164
15667W        W83896  10.371  16.266  12.152
15668W        W83897  31.359  30.020  10.682
15669W        W83898  18.739   1.971  10.142
15670W        W83899  41.455   6.336   4.453
15671W        W83900  18.127  39.370  14.831
15672W        W83901  31.720  28.013   0.042
15673W        W83902  42.291  30.541   3.715
15674W        W83903   8.660  23.622   3.880
15675W        W83904  11.441  25.492  10.045
15676W        W83905  25.664  16.069   4.167
15677W        W83906  31.063   3.296   0.736
15678W        W83907  26.267  44.745  12.592
15679W        W83908   0.960  43.709  11.654
15680W        W83909  13.817  27.471  11.256
15681W        W83910  23.208  40.272   0.951
15682W        W83911  10.638   7.171   3.379
15683W        W83912  24.652  33.983  12.983
15684W        W83913  14.623  10.233   0.952
15685W        W83914  13.165  29.023   3.176
15686W        W83915  17.601  21.252  14.880
15687W        W83916  17.089   5.769  12.176
15688W        W83917   4.927  40.542   0.852
15689W        W83918   9.075  13.116  10.580
15690W        W83919   6.274  42.804  10.127
15691W        W83920  21.217  24.757  14.953
15692W        W83921   9.117  38.319  12.099
15693W        W83922   4.484   2.938  11.521
15694W        W83923   6.939  24.648  12.461
15695W        W83924  18.100  33.197   0.512
15696W        W83925  23.108  12.543   1.286
15697W        W83926  23.567  39.826  14.351
15698W        W83927  12.823  12.652  14.419
15699W        W83928   6.842  31.171  10.826
15700W        W83929  26.577  34.574  11.510
15701W        W83930  41.047  27.335   2.175
15702W        W83931  25.300  37.125   4.201
15703W        W83932  10.140  18.520   1.846
15704W        W83933  29.941  35.585   3.642
15705W        W83934   4.794  19.278  14.395
15706W        W83935  20.711   2.722  10.751
15707W        W83936  44.311  26.701   3.233
15708W        W83937  34.637  32.606  14.396
15709W        W83938   9.791  39.498   4.164
15710W        W83939   7.671  32.907  11.706
15711W        W83940  35.116  35.613   2.367
15712W        W83941  28.956  21.393   0.810
15713W        W83942  41.893  19.144   1.779
15714W        W83943   4.369  26.980   3.106
15715W        W83944  43.001  37.036   3.125
15716W        W83945  23.680  23.114  14.310
15717W        W83946   0.354  19.743  14.992
15718W        W83947  37.585  15.804   3.623
15719W        W83948  10.705  18.223  11.211
15720W        W83949  21.051  11.388   3.696
15721W        W83950  43.178  26.511   0.450
15722W        W83951   7.267  22.941  12.634
15723W        W83952  33.757  26.034  10.793
15724W        W83953  43.162   4.417  13.756
15725W        W83954   6.251  43.396   4.425
15726W        W83955  36.059   6.354   1.031
15727W        W83956  29.311  21.895  10.255
15728W        W83957  28.377  25.750  13.442
15729W        W83958  24.447  27.398  13.962
15730W        W83959  38.068   4.377  10.645
15731W        W83960  14.827  18.705   0.892
15732W        W83961  28.834  18.750   4.575
15733W        W83962  19.704  19.089   2.345
15734W        W83963  33.573  26.445   0.906
15735W        W83964  40.467  10.560   3.071
15736W        W83965  44.174  35.470   1.616
15737W        W83966  11.103  31.926  13.826
15738W        W83967   0.504   9.813  14.891
15739W        W83968  17.260  18.124   1.701
15740W        W83969  34.744  29.568   5.050
15741W        W83970  37.060  16.330  14.869
15742W        W83971   7.084   8.853  13.841
15743W        W83972  33.997   3.858   0.958
15744W        W83973  20.268  36.318   2.422
15745W        W83974  21.379  13.017  13.857
15746W        W83975  18.993  33.114   4.041
15747W        W83976  14.839  21.475   0.043
15748W        W83977  28.355  12.090  13.970
15749W        W83978   7.879  43.659  14.490
15750W        W83979  13.798  32.969  14.825
15751W        W83980  27.544   7.351  12.067
15752W        W83981  11.588  40.344   0.258
15753W        W83982  17.697  19.681  12.378
15754W        W83983  19.351  15.223  13.611
15755W        W83984  31.984  29.608   2.714
15756W        W83985   3.353  33.320   4.537
15757W        W83986  13.629  24.076   2.220
15758W        W83987   0.373  11.792   4.178
15759W        W83988  35.355  34.098  13.092
15760W        W83989  36.444  16.258  11.591
15761W        W83990  28.048   7.185  13.351
15762W        W83991   2.217  32.491   3.474
15763W        W83992  36.051   0.190   0.203
15764W        W83993  18.742   9.288  12.213
15765W        W83994  36.839  41.419   3.249
15766W        W83995   7.620  27.705   3.622
15767W        W83996  33.220  35.533   4.804
15768W        W83997  30.538  39.923   2.600
15769W        W83998  22.413  13.049   1.766
15770W        W83999  22.287  31.859  12.940
15771W        W84000   3.849  31.479  11.077
15772W        W84001  29.048  25.318   4.405
15773W        W84002  35.002   6.165  10.701
15774W        W84003  12.237   2.483  10.808
15775W        W84004  33.578  13.197  12.612
15776W        W84005  13.948   8.228  13.949
15777W        W84006  33.144  42.394   4.186
15778W        W84007   2.323  28.422  11.058
15779W        W84008   6.801   8.828   3.587
15780W        W84009  32.124   8.174   3.199
15781W        W84010  26.463   4.507   3.263
15782W        W84011   8.301   7.138  11.630
15783W        W84012  29.608  29.899  14.486
15784W        W84013   7.874  34.562  12.461
15785W        W84014  14.367  11.479  10.324
15786W        W84015  12.248  41.279   4.944
15787W        W84016  18.523  39.678  14.971
15788W        W84017  36.587  20.268  10.781
15789W        W84018  43.399  29.620  13.013
15790W        W84019  32.577  35.405  13.475
15791W        W84020  43.145  40.484   2.259
15792W        W84021  31.201   7.868  12.027
15793W        W84022  22.830   0.142   4.611
15794W        W84023  16.820  36.834   0.773
15795W        W84024  25.693   3.711  14.383
15796W        W84025  24.621  27.705   0.228
15797W        W84026  18.199   7.884   4.596
15798W        W84027  22.561  39.891   0.258
15799W        W84028   2.886  28.952   1.034
15800W        W84029  28.933  23.410   3.638
15801W        W84030   1.616   7.831   1.368
15802W        W84031   7.404   4.926   4.276
15803W        W84032  33.355  36.383  12.847
15804W        W84033  38.951  11.229  13.311
15805W        W84034  14.129  31.895  12.546
15806W        W84035  22.789  13.295  14.755
15807W        W84036  31.171  39.969  12.161
15808W        W84037  21.227  41.019  13.382
15809W        W84038   5.883  23.146   4.747
15810W        W84039  18.062  44.678  11.070
15811W        W84040   6.411  12.643  12.369
15812W        W84041  14.400  18.271  14.245
15813W        W84042   7.629  26.399  12.620
15814W        W84043   6.523  34.690   3.549
15815W        W84044   2.415  15.166   4.582
15816W        W84045  25.068  44.735  14.069
15817W        W84046  15.820  23.514   3.708
15818W        W84047   0.915  29.071   2.925
15819W        W84048  39.422  17.699   2.226
15820W        W84049  19.855   6.636  14.689
15821W        W84050   3.788   2.165  13.073
15822W        W84051  32.154   8.969  11.120
15823W        W84052  42.172  13.614   4.526
15824W        W84053  20.824  35.471  13.660
15825W        W84054  32.021  12.886  12.974
15826W        W84055  25.281   0.420   0.732
15827W        W84056  41.887   1.751   4.480
15828W        W84057  13.240  28.875  12.906
15829W        W84058   2.405  44.704  11.340
15830W        W84059  24.977  43.258  12.904
15831W        W84060  15.756  17.892  13.563
15832W        W84061  23.120  18.742   2.395
15833W        W84062   1.763  13.293  13.303
15834W        W84063  23.518   2.476   3.023
15835W        W84064  35.534  31.415   3.673
15836W        W84065  25.464   6.759   2.668
15837W        W84066  36.264   8.224   0.802
15838W        W84067  23.694  21.231  14.936
15839W        W84068  40.701   6.859  13.520
15840W        W84069  38.248  42.782   0.973
15841W        W84070  42.857  15.539  14.027
15842W        W84071  19.133   5.982  14.078
15843W        W84072  23.974  12.348  11.461
15844W        W84073  44.280  10.553   4.593
15845W        W84074  11.782  14.065  13.946
15846W        W84075  30.061  32.656  11.279
15847W        W84076  36.308  15.591   2.181
15848W        W84077  41.057  10.241  14.826
15849W        W84078  24.241   7.407  10.710
15850W        W84079  35.413  25.206  13.291
15851W        W84080   9.776  37.716   4.355
15852W        W84081  18.602  21.676   4.312
15853W        W84082  40.523  37.996  14.407
15854W        W84083  32.449  25.136   3.126
15855W        W84084  21.146   5.664  13.359
15856W        W84085  14.756  37.660  14.304
15857W        W84086  35.619  24.061   1.011
15858W        W84087  22.994  18.658   2.976
15859W        W84088   1.716  24.476   4.190
15860W        W84089  14.801  17.626   0.934
15861W        W84090   2.996  11.580   0.416
15862W        W84091   9.273  34.429   1.228
15863W        W84092  28.443  34.911  12.528
15864W        W84093  18.990  11.756  12.059
15865W        W84094  12.630  41.917  12.426
15866W        W84095  28.532  27.132  13.396
15867W        W84096  28.167   4.219  13.437
15868W        W84097  20.683   2.972  11.202
15869W        W84098  37.133  37.972   3.809
15870W        W84099  14.593  23.325   0.654
15871W        W84100  30.009   0.910   2.576
15872W        W84101  38.290  42.505  14.881
15873W        W84102  41.506  10.294   0.085
15874W        W84103  37.159  20.303  12.065
15875W        W84104  13.108  20.657  12.880
15876W        W84105   8.069  43.480  11.934
15877W        W84106  19.804  13.171  11.590
15878W        W84107   4.034  37.039  10.627
15879W        W84108  21.685  38.947  14.330
15880W        W84109   7.759   4.489   1.338
15881W        W84110   9.410   1.306   0.478
15882W        W84111  17.780   2.794   0.302
15883W        W84112  33.550  36.786   0.696
15884W        W84113  24.073  10.368  12.430
15885W        W84114   8.855   5.460   2.281
15886W        W84115   9.097  36.324  13.529
15887W        W84116  43.360  30.283  12.543
15888W        W84117  43.613  19.689   4.542
15889W        W84118  39.881  40.437   2.666
15890W        W84119  15.160  13.087  12.652
15891W        W84120  42.256  12.424  11.141
15892W        W84121  35.942   7.344   1.116
15893W        W84122  33.520  36.633   4.178
15894W        W84123   3.615  37.947  12.921
15895W        W84124  25.938  43.793   1.850
15896W        W84125  16.772   8.261  10.906
15897W        W84126   1.969   8.359  14.365
15898W        W84127   0.733   8.357   2.325
15899W        W84128  28.482   1.221   5.014
15900W        W84129  14.925   5.338  10.676
15901W        W84130  39.290  19.407  14.252
15902W        W84131  17.863  33.814  12.001
15903W        W84132  25.280  14.710   1.930
15904W        W84133  14.757  13.574   3.595
15905W        W84134  25.774   8.893  14.928
15906W        W84135  24.139  39.124  14.470
15907W        W84136  42.852  30.156  13.404
15908W        W84137  37.876  11.669  12.101
15909W        W84138  33.465  35.982   1.299
15910W        W84139  42.801  37.333  14.489
15911W        W84140  24.246  29.590  14.026
15912W        W84141  43.687  21.688  14.002
15913W        W84142  34.098  26.613  13.380
15914W        W84143   4.277  12.903   0.377
15915W        W84144  21.557  15.585  13.834
15916W        W84145   1.356  37.389   0.844
15917W        W84146   5.300  11.096  12.556
15918W        W84147  34.851  29.705  13.325
15919W        W84148  33.475  25.753  14.045
15920W        W84149  34.882   1.417   5.249
15921W        W84150  26.782   4.737  11.571
15922W        W84151   0.321  18.357  14.828
15923W        W84152  12.617  40.287   1.774
15924W        W84153   8.900  20.011   0.734
15925W        W84154   7.300  31.994  11.857
15926W        W84155  14.520  19.698  14.951
15927W        W84156   2.233  21.789   4.319
15928W        W84157   2.947   1.691  11.683
15929W        W84158  19.707  33.505   1.389
15930W        W84159  32.622  41.203  10.677
15931W        W84160  29.361  26.598   3.446
15932W        W84161  18.716   6.584  12.418
15933W        W84162  28.741  30.984   0.883
15934W        W84163   1.513   7.917   2.324
15935W        W84164  22.577  39.421  12.027
15936W        W84165  39.889  12.073  11.583
15937W        W84166   7.979  30.061   4.551
15938W        W84167  29.198  35.349  12.463
15939W        W84168  20.461  28.856  13.824
15940W        W84169  21.514  32.108  12.491
15941W        W84170  42.463  22.978   1.971
15942W        W84171  18.072  44.180   3.037
15943W        W84172   9.837  30.525  13.362
15944W        W84173  39.433  25.603   2.356
15945W        W84174  23.953  38.945   9.806
15946W        W84175  10.720  14.339  10.391
15947W        W84176  21.134  30.095   4.814
15948W        W84177  41.818   3.832  11.388
15949W        W84178  33.915  15.435   2.831
15950W        W84179   2.983  24.972   3.127
15951W        W84180  36.398   0.647   3.396
15952W        W84181   8.243  25.114   4.535
15953W        W84182  42.378  32.875   1.100
15954W        W84183  13.233  24.412  10.773
15955W        W84184   1.317  35.202  11.533
15956W        W84185  32.109  24.892   3.955
15957W        W84186  16.826  20.247  13.377
15958W        W84187  44.719  18.246   2.939
15959W        W84188  19.176  24.034   2.650
15960W        W84189  34.190  11.313  12.097
15961W        W84190   3.374  30.982  12.582
15962W        W84191  20.312   3.174   3.770
15963W        W84192  37.328  26.356  14.021
15964W        W84193  12.300  41.041   2.903
15965W        W84194  17.429  24.380  14.800
15966W        W84195   9.359  38.052   4.199
15967W        W84196  23.149  15.438   2.843
15968W        W84197  42.592  22.521   2.220
15969W        W84198  29.030   2.336   0.402
15970W        W84199  31.412  21.769   4.199
15971W        W84200  29.694  26.855  14.178
15972W        W84201   4.265  39.014   4.962
15973W        W84202  33.677  14.597  10.780
15974W        W84203  37.915  23.577   2.412
15975W        W84204  17.075  17.473  13.567
15976W        W84205  11.863   3.292  14.508
15977W        W84206  18.986  42.519  13.978
15978W        W84207  43.887   2.769  12.036
15979W        W84208  10.897   2.020  14.710
15980W        W84209  26.152  16.968  11.517
15981W        W84210  38.203  18.819   2.403
15982W        W84211   4.830  39.704  12.035
15983W        W84212  38.234  16.080  11.128
15984W        W84213   4.518  25.968  11.438
15985W        W84214  37.920   5.930  11.819
15986W        W84215  29.520  22.774  11.320
15987W        W84216  12.151  13.167  10.261
15988W        W84217  20.019  29.367   2.257
15989W        W84218  14.390  26.831   2.669
15990W        W84219  21.561   4.213   3.222
15991W        W84220  17.765  38.850   0.972
15992W        W84221  38.364  16.193   1.923
15993W        W84222  42.429  33.152   2.148
15994W        W84223  39.345  14.596  14.990
15995W        W84224  20.600  21.696  11.266
15996W        W84225   4.954   0.266  12.475
15997W        W84226   3.543  43.282  11.421
15998W        W84227   4.940  12.867  11.673
15999W        W84228  43.643   2.442   0.039
16000W        W84229  34.982  42.462  13.094
16001W        W84230  14.048  26.307   3.882
16002W        W84231   4.886  30.940   0.498
16003W        W84232  25.933  18.368  14.257
16004W        W84233  20.663  40.150   3.283
16005W        W84234  31.153  30.442   2.464
16006W        W84235   9.295  39.737   0.954
16007W        W84236  25.041   4.697   3.511
16008W        W84237  20.286  13.843  12.937
16009W        W84238   7.895  26.935   4.216
16010W        W84239  13.776  20.609  12.483
16011W        W84240  33.393  19.530   4.124
16012W        W84241   4.312  19.352  12.880
16013W        W84242   5.892  29.986   2.290
16014W        W84243  31.150  40.887   2.411
16015W        W84244  39.949  23.037  12.921
16016W        W84245  19.204  32.910   3.622
16017W        W84246   0.497   2.985   2.857
16018W        W84247  15.274  13.135  10.860
16019W        W84248   8.096  42.685  11.057
16020W        W84249   8.527  14.913  11.174
16021W        W84250   8.792  41.046  14.809
16022W        W84251  26.602  30.267  11.889
16023W        W84252  37.758  11.747  14.462
16024W        W84253  43.857  27.539  12.560
16025W        W84254   6.950  26.536  10.530
16026W        W84255  42.820  25.654   3.746
16027W        W84256   4.647  23.588   0.931
16028W        W84257  37.116  30.957   0.171
16029W        W84258  17.226  31.951  13.949
16030W        W84259  37.033  44.388  14.520
16031W        W84260  26.075  35.029   2.833
16032W        W84261  33.508   2.737   3.307
16033W        W84262  24.487   3.585   2.271
16034W        W84263  21.655  17.650  11.327
16035W        W84264  38.815  27.983   2.828
16036W        W84265   0.489  20.231  14.915
16037W        W84266  33.884  23.432   0.738
16038W        W84267  23.552  10.644   3.234
16039W        W84268   1.845  39.071  14.961
16040W        W84269   4.597  27.216  13.464
16041W        W84270  35.394  34.913   4.195
16042W        W84271   3.942   3.799   1.847
16043W        W84272   0.280  41.404   3.729
16044W        W84273  38.088  22.010   2.201
16045W        W84274  25.197  31.755   3.494
16046W        W84275  13.824  29.385  13.043
16047W        W84276  31.517  15.679   0.087
16048W        W84277   4.987  43.290   2.127
16049W        W84278  23.194  26.072  12.814
16050W        W84279  34.352  35.754   2.851
16051W        W84280  18.240  36.890   4.866
16052W        W84281  44.228  16.862   3.618
16053W        W84282  18.561  25.156  14.807
16054W        W84283   1.347  39.608   4.151
16055W        W84284   8.798  12.538   4.444
16056W        W84285  15.304   4.557  12.572
16057W        W84286  22.650  12.230   2.174
16058W        W84287   8.073   8.572  13.901
16059W        W84288  41.236   5.877  10.662
16060W        W84289   5.070  17.987   1.346
16061W        W84290  42.421  23.924   0.895
16062W        W84291  32.878   4.850   1.205
16063W        W84292  24.286  29.630  10.668
16064W        W84293  43.765  19.047   2.440
16065W        W84294   0.835  41.061   0.193
16066W        W84295  13.769  32.114  14.235
16067W        W84296  43.625  39.961  14.377
16068W        W84297  30.936  21.255   0.782
16069W        W84298  16.128  33.292   3.146
16070W        W84299  10.895  37.656   4.926
16071W        W84300  30.656  27.965  12.932
16072W        W84301  39.478   7.678  12.163
16073W        W84302  18.011  18.738   2.443
16074W        W84303   8.419  41.350  13.921
16075W        W84304  35.417  36.432  13.100
16076W        W84305   3.547  31.681   2.797
16077W        W84306  34.051  26.802   2.771
16078W        W84307  17.092   9.411  13.556
16079W        W84308   8.663  43.431   3.457
16080W        W84309  36.005   8.141   3.846
16081W        W84310  15.182  15.089   3.409
16082W        W84311  11.715  10.709   3.086
16083W        W84312  29.001  29.182  12.423
16084W        W84313  24.042  28.215  12.555
16085W        W84314  44.013  19.187  13.506
16086W        W84315  21.188  38.564  13.283
16087W        W84316  37.842   8.740  14.505
16088W        W84317   7.901  10.285   0.919
16089W        W84318  19.043  44.557   0.924
16090W        W84319  15.773  28.014  14.855
16091W        W84320  42.376   6.042   3.489
16092W        W84321   6.352  41.841   3.638
16093W        W84322  41.324  40.130   3.556
16094W        W84323  15.250  18.678   0.299
16095W        W84324  42.344  20.169   2.321
16096W        W84325  22.101  19.890  10.728
16097W        W84326  35.874  35.360   0.342
16098W        W84327  33.496   1.443   3.208
16099W        W84328  36.872  40.097   1.347
16100W        W84329  43.836  22.725  11.997
16101W        W84330  37.151  39.838   3.750
16102W        W84331  38.964  25.592   3.868
16103W        W84332  38.783  24.649  12.730
16104W        W84333  18.208   0.479  10.672
16105W        W84334  44.549  13.022  13.380
16106W        W84335  29.964  31.051   0.223
16107W        W84336  41.368  40.745   0.025
16108W        W84337   4.907  43.417  13.045
16109W        W84338   9.113   3.161   2.305
16110W        W84339  31.015  19.792  13.468
16111W        W84340  26.149  16.438  11.544
16112W        W84341  28.962  27.453  14.547
16113W        W84342  23.618  15.142  13.479
16114W        W84343  36.624  23.753  14.931
16115W        W84344  43.950  17.676   2.756
16116W        W84345   8.070  30.375   3.717
16117W        W84346  43.038  31.578   0.050
16118W        W84347  18.096  28.333   3.587
16119W        W84348  42.693  24.962   3.902
16120W        W84349  15.723  36.590   3.195
16121W        W84350  37.913  34.415  13.046
16122W        W84351  43.827  10.913   1.800
16123W        W84352  18.073  31.532   1.302
16124W        W84353  18.680  22.082  11.972
16125W        W84354  21.031  43.322  10.988
16126W        W84355  43.291  44.062  14.796
16127W        W84356  42.417  26.757   2.360
16128W        W84357  33.593  36.573  14.657
16129W        W84358  35.142   5.955  11.158
16130W        W84359  25.583   9.683   2.647
16131W        W84360  40.297  23.637  12.116
16132W        W84361  19.514  11.787  13.911
16133W        W84362  32.118  27.638  11.633
16134W        W84363  31.380  20.960   3.790
16135W        W84364  44.282   1.163   1.801
16136W        W84365  33.675  42.727   1.295
16137W        W84366  42.507   7.683   4.593
16138W        W84367  40.399  12.067  12.081
16139W        W84368   9.056   8.372  13.805
16140W        W84369  11.912  21.713  11.068
16141W        W84370  41.895  26.520  13.136
16142W        W84371  35.228  29.163   4.284
16143W        W84372  40.513  25.518  13.499
16144W        W84373   5.212  31.428  11.470
16145W        W84374   5.276   9.281  13.539
16146W        W84375  11.602  39.319   0.542
16147W        W84376  32.770  39.000  13.393
16148W        W84377   1.645  12.084  14.899
16149W        W84378  28.993  40.624  13.512
16150W        W84379  37.716  25.123   4.581
16151W        W84380  25.595  12.174  14.630
16152W        W84381   2.899  16.147  11.564
16153W        W84382  36.247  26.424   9.911
16154W        W84383  15.756  15.139   1.311
16155W        W84384  12.198  44.595  13.850
16156W        W84385  35.584  43.048  12.050
16157W        W84386  23.580  37.071  11.652
16158W        W84387  14.161   9.393  11.488
16159W        W84388  10.315   9.461  12.946
16160W        W84389  37.023  28.138   0.837
16161W        W84390  43.571   7.006   0.834
16162W        W84391  26.006  31.656   2.839
16163W        W84392  29.736  20.632  11.520
16164W        W84393  10.171   6.953   1.796
16165W        W84394   7.283  16.784   4.571
16166W        W84395  27.133  32.609   3.487
16167W        W84396  19.759  25.667   1.394
16168W        W84397  24.185  10.412   0.991
16169W        W84398   8.175   0.667   1.297
16170W        W84399  42.022  31.009  10.199
16171W        W84400  17.819  14.115  13.507
16172W        W84401   8.560  44.266  14.543
16173W        W84402  20.007  35.001  12.682
16174W        W84403  44.661  36.592  12.426
16175W        W84404  20.210  22.911   4.334
16176W        W84405  18.775  20.542  13.062
16177W        W84406  34.925  33.563   0.484
16178W        W84407  40.777   5.854  12.388
16179W        W84408  30.950  21.067   4.101
16180W        W84409   9.438  33.086   3.689
16181W        W84410  19.533  36.244  14.851
16182W        W84411   7.319  21.563   0.513
16183W        W84412   6.307   3.704   4.015
16184W        W84413  42.222  21.179  14.380
16185W        W84414  28.405  24.379  12.413
16186W        W84415   2.679   0.107  13.606
16187W        W84416  28.567  33.309   4.942
16188W        W84417  16.255  27.894  13.611
16189W        W84418  41.479  38.090  12.444
16190W        W84419  11.313   2.858   4.178
16191W        W84420  44.533  16.124  12.856
16192W        W84421  43.269  11.196   0.593
16193W        W84422  36.796  44.151  10.779
16194W        W84423  41.446   2.311  10.690
16195W        W84424  16.422   6.089  13.352
16196W        W84425  19.284   4.557   4.236
16197W        W84426  32.818  14.415  14.956
16198W        W84427  43.945  17.013  11.603
16199W        W84428  22.353   6.524   1.823
16200W        W84429  19.346  41.743  11.138
16201W        W84430  30.099  11.386  14.457
16202W        W84431  15.627   8.332  10.784
16203W        W84432   9.621   7.483  13.758
16204W        W84433  41.826   3.966  13.842
16205W        W84434   5.858  11.648  11.422
16206W        W84435  41.285   7.202  11.086
16207W        W84436  21.621   4.443  13.129
16208W        W84437  33.123   5.332  10.161
16209W        W84438  42.928  13.640  14.721
16210W        W84439  37.504  43.839  11.585
16211W        W84440  33.617   2.899  13.548
16212W        W84441   1.847  18.818   2.800
16213W        W84442  42.627  20.238  11.128
16214W        W84443  28.527  35.781   2.251
16215W        W84444  40.664   6.655   3.234
16216W        W84445  10.918  14.192  12.371
16217W        W84446   5.401  40.394  10.741
16218W        W84447  28.155  42.242   2.588
16219W        W84448  36.959  30.222   3.686
16220W        W84449  26.594  16.559   4.303
16221W        W84450  13.351  24.077   5.099
16222W        W84451  35.027  10.159  12.547
16223W        W84452  14.644  31.441   3.164
16224W        W84453  22.463  39.276   2.841
16225W        W84454   4.276  35.572   4.968
16226W        W84455  30.223  38.333  10.697
16227W        W84456  18.631  18.223  13.850
16228W        W84457  32.542  44.248  14.883
16229W        W84458  16.425  29.894   0.692
16230W        W84459   6.843   5.790   3.298
16231W        W84460  25.218  26.515   1.629
16232W        W84461  34.630  27.363  13.334
16233W        W84462  17.267   4.750   1.341
16234W        W84463   2.467  30.425  12.439
16235W        W84464  11.770  10.431   1.930
16236W        W84465  39.385   8.159  13.580
16237W        W84466  26.956   9.663  10.678
16238W        W84467  40.900  18.069   1.294
16239W        W84468  21.755   3.209   2.182
16240W        W84469  13.384   3.274   0.097
16241W        W84470   0.072  26.285   1.820
16242W        W84471  25.107  26.528   1.118
16243W        W84472  14.873  20.867  10.203
16244W        W84473  28.458  16.636  12.218
16245W        W84474  30.027  33.901  14.533
16246W        W84475  37.887  24.124   3.143
16247W        W84476  41.254  32.116   0.214
16248W        W84477  11.639  34.384   4.741
16249W        W84478   0.448  15.415  11.869
16250W        W84479  16.729   8.158  10.409
16251W        W84480  42.368   2.416   3.544
16252W        W84481  33.927  11.160   2.503
16253W        W84482  15.183  29.382  11.961
16254W        W84483  42.029   1.203  10.950
16255W        W84484   6.840  42.406  12.407
16256W        W84485   4.898  30.512  12.179
16257W        W84486  33.065   4.357  11.377
16258W        W84487  35.165  39.346  14.068
16259W        W84488  10.600  27.163  13.817
16260W        W84489  22.816  31.605  12.050
16261W        W84490  36.324   7.668  11.097
16262W        W84491  19.082  36.167   5.189
16263W        W84492  27.036  23.604   2.266
16264W        W84493  36.606   4.347  14.297
16265W        W84494   0.077  42.244   0.907
16266W        W84495   0.069  38.325  12.828
16267W        W84496  19.232   9.805  11.514
16268W        W84497  44.068  32.336   1.695
16269W        W84498  20.946  44.518  14.854
16270W        W84499  23.514   2.219  14.116
16271W        W84500  16.863   1.410  13.956
16272W        W84501  17.283  44.728  12.528
16273W        W84502  22.104  27.956  11.111
16274W        W84503  31.865  35.065  14.484
16275W        W84504  20.132   4.341  10.603
16276W        W84505  25.980  39.569  10.691
16277W        W84506  29.418  30.101   0.437
16278W        W84507  33.367   4.878  13.536
16279W        W84508  13.240  22.552   4.043
16280W        W84509  41.726  15.055  10.952
16281W        W84510  11.195   8.784   0.793
16282W        W84511   3.341  20.500   2.635
16283W        W84512   4.288  42.906  12.838
16284W        W84513  25.583  38.350   1.327
16285W        W84514  21.478   9.357  13.515
16286W        W84515  21.365  33.782  12.900
16287W        W84516  28.376  42.547  13.993
16288W        W84517  17.219  36.322  14.528
16289W        W84518   6.788  34.108   4.916
16290W        W84519  40.385  44.682  11.647
16291W        W84520  16.090   0.274  13.850
16292W        W84521  12.195  11.113  12.068
16293W        W84522  41.904   3.714  14.311
16294W        W84523  17.221  41.801   2.911
16295W        W84524   8.884  26.979   4.680
16296W        W84525  37.798  31.947   1.365
16297W        W84526  38.282  36.855   2.907
16298W        W84527  40.119   3.944  14.092
16299W        W84528  30.428  17.617  13.802
16300W        W84529  26.686  26.625   3.235
16301W        W84530   5.128  32.430   1.414
16302W        W84531  40.097  30.613  13.451
16303W        W84532   2.223  42.493  11.683
16304W        W84533  30.761  36.975  14.407
16305W        W84534   9.851  17.526   4.700
16306W        W84535  18.529   5.468  14.525
16307W        W84536  34.777  13.053  10.527
16308W        W84537  32.230   2.353   1.451
16309W        W84538  28.917  14.868  11.950
16310W        W84539   1.918  26.606   1.911
16311W        W84540  10.863  10.679  10.833
16312W        W84541   6.194  28.202   5.148
16313W        W84542  23.760  35.482  12.955
16314W        W84543   6.870  34.097   2.918
16315W        W84544   3.850  15.649   0.466
16316W        W84545  20.815  12.110  14.971
16317W        W84546  23.989   6.670   0.823
16318W        W84547  31.354  25.078  11.873
16319W        W84548  42.254  38.004   2.372
16320W        W84549   9.396   9.456   3.714
16321W        W84550  21.275  44.438  11.138
16322W        W84551  22.696   9.720  12.580
16323W        W84552  26.997  25.974   4.052
16324W        W84553   8.222  44.079  11.114
16325W        W84554  15.284   6.282  11.111
16326W        W84555  12.221  15.065   1.482
16327W        W84556  13.712   5.645  13.858
16328W        W84557  22.708  37.470  11.582
16329W        W84558  16.686   6.620  13.842
16330W        W84559  22.100  40.579  12.977
16331W        W84560   1.744  15.544  11.762
16332W        W84561   5.344  36.147   4.510
16333W        W84562   3.415  31.880   5.065
16334W        W84563  28.422  12.692  11.065
16335W        W84564  18.126  43.759   4.373
16336W        W84565   6.760   1.736   5.121
16337W        W84566  44.480  13.752   4.234
16338W        W84567  20.046  15.373  14.096
16339W        W84568  28.414  22.274  14.984
16340W        W84569  11.740  22.784  14.288
16341W        W84570  26.381  30.963   3.329
16342W        W84571  12.699  41.808   1.896
16343W        W84572   5.065  18.705  11.176
16344W        W84573  26.906  18.190  12.855
16345W        W84574  38.342  26.077   0.347
16346W        W84575  33.138   2.485   1.822
16347W        W84576  34.105  25.521   0.890
16348W        W84577   1.527  44.419   1.109
16349W        W84578  25.595   8.710   4.108
16350W        W84579  27.695  40.942   1.305
16351W        W84580   0.919  11.339   2.187
16352W        W84581  11.582  23.025  12.822
16353W        W84582  12.327  25.056  13.799
16354W        W84583   1.239  29.147  11.151
16355W        W84584   8.223  43.229  11.439
16356W        W84585  39.558  21.751  13.978
16357W        W84586  18.452   2.970   0.940
16358W        W84587  41.096   9.898   0.256
16359W        W84588  12.313  39.066  13.807
16360W        W84589  31.166  23.008   2.355
16361W        W84590  10.275  27.283   1.825
16362W        W84591   9.774   6.324   4.629
16363W        W84592  23.610  29.690  12.818
16364W        W84593  12.741  44.747   4.174
16365W        W84594   2.984   4.218  13.960
16366W        W84595  30.914   3.294  11.806
16367W        W84596  19.838   5.385   3.757
16368W        W84597  20.935  42.029  12.595
16369W        W84598  31.531  28.668  14.261
16370W        W84599  29.519   2.257   2.288
16371W        W84600  31.777   8.711  11.364
16372W        W84601  27.171  41.391   4.086
16373W        W84602  39.444  41.817   4.733
16374W        W84603   3.192  28.050  13.341
16375W        W84604  27.231  25.148  12.428
16376W        W84605  35.563  20.509   2.690
16377W        W84606   7.159  22.287   2.666
16378W        W84607  37.917   3.033   3.256
16379W        W84608  41.768  39.364   1.776
16380W        W84609  24.739  43.827   4.064
16381W        W84610  44.555   0.513  10.664
16382W        W84611  40.446   5.597   0.823
16383W        W84612  15.896  16.579   0.572
16384W        W84613  28.536   9.156   1.270
16385W        W84614  29.085  35.901   4.386
16386W        W84615  22.190   3.807   3.093
16387W        W84616   5.920  23.963   2.436
16388W        W84617  29.189   9.028  12.765
16389W        W84618  10.726  24.149   0.860
16390W        W84619  30.143   1.350  13.406
16391W        W84620   8.297  21.087   0.379
16392W        W84621   5.163  37.853  14.257
16393W        W84622  39.763  15.337  11.981
16394W        W84623  13.917   5.528   2.863
16395W        W84624  22.627  22.680  10.172
16396W        W84625  32.216  37.443  12.033
16397W        W84626  39.257  25.457  14.800
16398W        W84627  16.852  40.845  14.933
16399W        W84628   8.760  29.389   4.584
16400W        W84629  29.725  20.228   3.675
16401W        W84630  11.061   9.132   4.232
16402W        W84631  18.981  13.398   1.292
16403W        W84632  44.754  22.953  10.965
16404W        W84633  37.524  12.163   0.313
16405W        W84634  10.269  43.373   1.829
16406W        W84635  34.912  17.121   4.208
16407W        W84636  36.695  20.987   4.485
16408W        W84637  36.591  10.365  10.139
16409W        W84638  12.587  37.096   1.430
16410W        W84639  38.081   7.826  12.544
16411W        W84640  21.198   5.615   4.562
16412W        W84641  26.410  17.004   4.117
16413W        W84642   5.980  24.297  12.744
16414W        W84643  29.049  27.942  13.512
16415W        W84644   6.950   1.395   1.821
16416W        W84645  42.309  18.760  14.458
16417W        W84646  28.675  34.438   2.720
16418W        W84647  17.102  28.622  14.970
16419W        W84648   9.736  14.348   4.210
16420W        W84649  31.744  44.415  14.350
16421W        W84650  42.376   2.927   4.733
16422W        W84651   4.664  19.235  11.012
16423W        W84652  32.588  18.817   9.720
16424W        W84653  20.306  18.998   0.906
16425W        W84654  44.275  18.842   0.301
16426W        W84655  43.940  43.246   4.624
16427W        W84656   2.618  39.252  10.242
16428W        W84657  27.216   7.220   4.434
16429W        W84658  37.737  25.946  14.221
16430W        W84659  35.977  10.130   1.296
16431W        W84660  20.240  18.165   3.607
16432W        W84661  42.952  20.510   3.110
16433W        W84662  18.757  21.127   3.313
16434W        W84663  22.159  23.874   2.198
16435W        W84664  38.748  32.324  12.639
16436W        W84665   5.348  23.429   3.800
16437W        W84666  30.477  17.787  11.516
16438W        W84667  36.035   8.269  12.063
16439W        W84668   3.360   4.000   2.915
16440W        W84669  17.592  34.876  10.998
16441W        W84670  13.514  18.597  10.829
16442W        W84671   4.765  34.143   2.172
16443W        W84672  12.385   9.836  10.278
16444W        W84673  20.125  37.255   1.626
16445W        W84674  19.617  11.827   1.776
16446W        W84675  20.207   1.915  11.710
16447W        W84676  39.368  29.882   3.159
16448W        W84677  41.218   9.706   1.251
16449W        W84678  11.770  44.689  12.528
16450W        W84679  31.834  37.722   2.396
16451W        W84680  37.911  28.624   0.981
16452W        W84681   5.753  24.122   4.606
16453W        W84682  22.691  19.762  12.483
16454W        W84683  26.559   2.619  11.198
16455W        W84684  38.746  12.274  11.124
16456W        W84685  33.141  22.297  13.373
16457W        W84686  22.211  30.692   4.421
16458W        W84687  42.887  20.311   1.374
16459W        W84688   5.700   5.311   3.363
16460W        W84689  42.361  13.877  12.475
16461W        W84690  10.337  33.812  14.449
16462W        W84691  42.126  40.581   5.097
16463W        W84692  31.596  31.859   3.313
16464W        W84693  29.119  30.899  13.376
16465W        W84694  44.248  25.183   9.989
16466W        W84695   1.691  40.561   3.088
16467W        W84696  16.990  23.256   4.440
16468W        W84697   8.803  39.831   1.791
16469W        W84698  36.042  11.609   3.831
16470W        W84699  29.418  34.367   1.517
16471W        W84700  28.394  36.015   1.776
16472W        W84701  40.562  21.353   4.856
16473W        W84702  40.078  13.844  14.042
16474W        W84703  33.474  31.082   0.504
16475W        W84704   6.238  18.238   4.553
16476W        W84705   5.185  37.285   0.954
16477W        W84706  23.468  27.004  14.837
16478W        W84707  41.779  16.690  13.963
16479W        W84708  34.504   6.109   4.192
16480W        W84709  10.513  14.519  13.350
16481W        W84710  12.300  24.756  11.944
16482W        W84711  14.197  22.506  12.475
16483W        W84712  18.859  33.631   0.696
16484W        W84713   1.516   9.344  10.797
16485W        W84714   6.634   9.196   2.828
16486W        W84715   1.084   0.580  11.404
16487W        W84716   9.795  27.603  12.426
16488W        W84717   1.883  17.730   0.461
16489W        W84718  30.146  41.650   3.779
16490W        W84719  38.733   3.828  11.116
16491W        W84720  10.330  27.481  13.441
16492W        W84721  36.130   1.471   0.419
16493W        W84722  44.138  39.123  11.183
16494W        W84723  24.291  35.587   0.130
16495W        W84724  19.739  36.622  11.667
16496W        W84725  26.306  16.168   4.793
16497W        W84726  42.539  35.661   1.399
16498W        W84727   0.373  18.455  13.430
16499W        W84728  41.376  33.631   4.487
16500W        W84729  27.144  44.398   0.837
16501W        W84730  42.498  42.843  10.738
16502W        W84731  14.626  21.525  11.554
16503W        W84732   2.360  25.244  10.972
16504W        W84733  14.582   9.709   3.586
16505W        W84734  33.369   8.196  10.287
16506W        W84735   5.632  38.881  13.952
16507W        W84736  10.483   8.471   1.520
16508W        W84737   8.246  31.336   2.287
16509W        W84738  37.535  13.787   2.440
16510W        W84739  35.635  20.395  11.111
16511W        W84740  13.660   2.026   0.002
16512W        W84741  28.685   3.990   4.636
16513W        W84742   7.634  34.140  13.378
16514W        W84743   5.130  26.451   0.955
16515W        W84744  32.565  19.555  11.515
16516W        W84745  36.998  16.960  10.693
16517W        W84746  37.711  15.082  11.123
16518W        W84747  43.363  43.273   3.771
16519W        W84748   1.866  23.155  13.448
16520W        W84749  28.483  42.774   2.669
16521W        W84750  16.495   6.403   4.636
16522W        W84751  29.384  23.646  13.063
16523W        W84752  15.694  32.940  13.105
16524W        W84753  14.419   3.201   1.089
16525W        W84754  27.931  32.023   4.757
16526W        W84755  38.081  32.859  12.459
16527W        W84756   6.796   8.405  13.750
16528W        W84757   1.829  42.024   3.389
16529W        W84758  43.728  29.005  14.732
16530W        W84759  11.188   4.872  10.378
16531W        W84760   3.923  26.895  10.707
16532W        W84761  24.109  44.344  11.150
16533W        W84762  19.330  26.992  11.297
16534W        W84763  40.332  29.340   1.895
16535W        W84764  27.651  36.633   4.164
16536W        W84765   0.733   4.387   3.908
16537W        W84766   1.862   5.243   0.438
16538W        W84767  18.139  37.391  11.152
16539W        W84768   8.273  12.145  13.394
16540W        W84769  12.102  31.885  12.010
16541W        W84770   5.958  44.382  14.148
16542W        W84771  18.621  31.504  11.610
16543W        W84772  26.346  12.099  11.956
16544W        W84773  18.287   4.795  13.170
16545W        W84774  36.178  21.744   2.337
16546W        W84775   7.200  14.258  13.960
16547W        W84776  18.224  34.304   1.160
16548W        W84777  21.637  36.379  12.459
16549W        W84778   2.250  18.335  12.107
16550W        W84779  15.017   6.339  14.876
16551W        W84780  36.924  14.376  14.831
16552W        W84781  20.042  20.009   0.863
16553W        W84782  26.187  30.395   0.367
16554W        W84783  20.711  42.711   1.300
16555W        W84784   7.336  37.916  12.188
16556W        W84785  16.226  27.576   0.989
16557W        W84786  19.242   4.960  11.184
16558W        W84787  41.940  36.018  10.213
16559W        W84788   9.150  30.940  14.543
16560W        W84789  28.694  29.386  11.042
16561W        W84790  36.599  32.474   0.656
16562W        W84791  15.255  32.880  10.453
16563W        W84792   6.844  42.507  14.920
16564W        W84793   8.513  44.001   2.653
16565W        W84794  24.252  14.322   0.542
16566W        W84795  16.779  26.001   0.382
16567W        W84796   4.322  34.662   3.613
16568W        W84797   3.684  23.156  14.585
16569W        W84798   1.433  15.080  13.901
16570W        W84799  26.175  11.961   4.057
16571W        W84800  34.947  12.818  14.491
16572W        W84801  17.357  13.298  14.798
16573W        W84802   2.847  11.355   4.245
16574W        W84803   5.217  17.890  13.386
16575W        W84804  36.610  31.699  12.511
16576W        W84805  21.120  26.191  10.980
16577W        W84806  39.306  20.050   3.109
16578W        W84807  17.570  38.270  12.810
16579W        W84808  41.382  44.304   1.422
16580W        W84809  17.124  15.081   5.307
16581W        W84810  44.139  40.283  14.085
16582W        W84811  11.761  14.525   4.156
16583W        W84812  27.923  13.365   3.328
16584W        W84813   0.821   8.989  13.935
16585W        W84814  40.938  16.220  14.271
16586W        W84815  44.395   9.239  14.728
16587W        W84816  20.684  41.517   1.248
16588W        W84817  19.527  35.846   3.420
16589W        W84818   1.788  19.104  13.092
16590W        W84819  43.164  13.429   5.142
16591W        W84820  29.406  27.083  11.389
16592W        W84821  33.594   3.737  14.839
16593W        W84822  28.866  18.743   3.108
16594W        W84823  30.903  21.731   1.002
16595W        W84824   5.726  26.439   2.391
16596W        W84825  18.669  32.101  13.846
16597W        W84826  42.833   0.938  11.145
16598W        W84827  34.421   4.706   1.290
16599W        W84828  23.247  43.922   4.553
16600W        W84829   2.654  44.992  10.907
16601W        W84830  23.069   0.672   0.373
16602W        W84831   5.264  18.805   1.916
16603W        W84832  30.681  32.700  11.988
16604W        W84833   7.851  23.964   4.303
16605W        W84834  11.097  39.023   3.152
16606W        W84835   1.091  26.704   2.574
16607W        W84836  21.304   9.320   0.813
16608W        W84837  37.286  39.858   1.100
16609W        W84838  27.518   1.312   4.669
16610W        W84839  19.298  38.875  13.425
16611W        W84840  42.387  31.879   1.328
16612W        W84841  15.947  21.908   1.616
16613W        W84842  12.834  13.812  10.673
16614W        W84843   0.835  39.600  14.991
16615W        W84844   2.791   5.385   4.347
16616W        W84845  44.858   6.821  11.467
16617W        W84846  12.143   3.457   4.125
16618W        W84847  43.342  21.130   2.193
16619W        W84848  24.589  30.912   4.785
16620W        W84849  33.131   3.985  14.051
16621W        W84850  15.061  38.899  13.808
16622W        W84851  21.303  17.743   0.020
16623W        W84852  26.145  17.833   0.440
16624W        W84853   6.179  33.544   0.077
16625W        W84854   5.240  31.219  11.947
16626W        W84855  32.902  13.048   3.419
16627W        W84856  44.402  22.315  11.498
16628W        W84857  44.501   8.300  14.387
16629W        W84858  31.423   7.787  14.842
16630W        W84859  38.278  19.076  12.718
16631W        W84860  35.370  43.995  12.426
16632W        W84861  29.931  16.863  11.497
16633W        W84862  13.693   2.210  13.040
16634W        W84863  40.581  33.834  11.594
16635W        W84864  44.952  42.618   4.523
16636W        W84865  41.865  38.765   2.388
16637W        W84866   6.878   4.397   4.189
16638W        W84867   1.444  28.493   0.752
16639W        W84868  19.660  29.386   1.019
16640W        W84869  36.908  37.249   2.399
16641W        W84870  40.499  17.900   3.211
16642W        W84871  12.469  25.797  11.197
16643W        W84872  40.584  30.140   1.817
16644W        W84873  36.794   8.219   0.808
16645W        W84874  16.298  33.783  11.137
16646W        W84875  27.542  43.350  10.499
16647W        W84876  37.076  44.860   0.695
16648W        W84877  36.553  15.701   4.604
16649W        W84878  18.281   1.936   0.129
16650W        W84879  24.660  37.980   1.629
16651W        W84880   9.163  33.879   4.134
16652W        W84881  23.567   8.349  11.891
16653W        W84882  29.230  38.832  11.415
16654W        W84883  33.205  32.166   4.561
16655W        W84884   9.151   9.127  12.564
16656W        W84885  13.618  16.790  12.876
16657W        W84886   8.154  27.717  11.080
16658W        W84887  44.228   1.885   0.447
16659W        W84888  12.832  32.367  12.357
16660W        W84889  19.632   4.434  14.351
16661W        W84890  29.700  32.359   2.929
16662W        W84891   4.824  26.503  12.905
16663W        W84892  44.446  44.823  10.155
16664W        W84893  25.007  11.855   4.099
16665W        W84894   2.901   8.249   1.639
16666W        W84895  19.068  38.295  12.785
16667W        W84896  17.146  23.158   4.956
16668W        W84897  40.300   6.601   4.671
16669W        W84898  22.931   2.695   0.946
16670W        W84899  38.452   1.911   1.831
16671W        W84900  18.227   4.198  10.717
16672W        W84901   8.193  19.165  11.550
16673W        W84902  36.004  14.930   2.215
16674W        W84903  40.385  38.128   2.141
16675W        W84904  33.108  20.029   1.793
16676W        W84905  13.213   7.394  13.628
16677W        W84906  12.841   1.639  12.862
16678W        W84907   9.130  23.564   3.105
16679W        W84908  31.656  43.438   3.661
16680W        W84909  37.062   8.838   5.024
16681W        W84910   2.487  24.901   4.564
16682W        W84911  29.491   8.306  10.813
16683W        W84912  31.639  44.925   0.336
16684W        W84913  23.068  35.072   0.026
16685W        W84914  24.127  44.581  14.583
16686W        W84915  18.204  15.723   2.891
16687W        W84916   9.176  27.057  11.497
16688W        W84917   4.018  19.353   1.602
16689W        W84918   4.996  16.294   4.500
16690W        W84919  11.445  42.421   4.042
16691W        W84920  32.605  28.064   1.371
16692W        W84921  14.635   0.055  12.414
16693W        W84922  38.444  12.899   0.488
16694W        W84923  24.239   7.339  12.610
16695W        W84924  17.108  19.538  10.715
16696W        W84925   0.513   7.651   0.016
16697W        W84926  31.653   9.292   2.274
16698W        W84927  19.675  20.635   2.611
16699W        W84928  40.388  17.858  11.116
16700W        W84929  25.693  27.125   4.835
16701W        W84930  23.735   0.247  13.086
16702W        W84931  18.741  10.410  11.635
16703W        W84932  15.422  42.082  14.931
16704W        W84933   1.277  38.590  14.273
16705W        W84934  40.886  37.831   1.660
16706W        W84935  16.018   8.700  12.044
16707W        W84936  13.515  42.726  12.453
16708W        W84937   2.739  34.923  14.309
16709W        W84938  42.995  27.804   4.056
16710W        W84939  16.565  37.917  11.604
16711W        W84940  33.959  35.643  12.363
16712W        W84941  23.563   4.374  11.076
16713W        W84942  42.008  23.341  13.095
16714W        W84943   8.764   8.407   2.611
16715W        W84944  35.829  13.017   5.122
16716W        W84945  18.895  22.219  12.438
16717W        W84946  41.328  17.788  14.340
16718W        W84947   8.213  37.403   0.514
16719W        W84948  17.253  15.865   4.082
16720W        W84949  10.577   0.502   2.801
16721W        W84950   5.398  40.479  13.501
16722W        W84951  13.295  16.567   2.390
16723W        W84952  42.855  39.980   1.250
16724W        W84953  15.709   4.480   2.189
16725W        W84954   9.927  22.297   2.692
16726W        W84955  32.454   4.618   3.681
16727W        W84956  11.261  44.542   2.545
16728W        W84957  13.407  16.105   1.450
16729W        W84958   2.734  35.522   2.336
16730W        W84959   5.269  13.289   1.741
16731W        W84960   4.787  37.618   3.692
16732W        W84961  12.726  36.430  12.917
16733W        W84962  40.474   3.832  10.693
16734W        W84963   6.957  37.899  12.543
16735W        W84964  32.504   3.327   0.890
16736W        W84965  35.700  17.639  11.354
16737W        W84966   5.395   3.325   4.582
16738W        W84967   6.827  34.617   4.725
16739W        W84968  29.467  38.599   0.576
16740W        W84969  13.632  25.657   0.916
16741W        W84970  31.506  25.602  10.725
16742W        W84971  20.666  26.045   1.042
16743W        W84972  31.475   7.166  11.142
16744W        W84973   3.810   8.338  14.892
16745W        W84974   4.348  13.251   2.903
16746W        W84975   8.833  25.176  13.501
16747W        W84976  31.395  13.688  11.802
16748W        W84977  40.283  21.203  13.527
16749W        W84978  31.138  28.528   4.577
16750W        W84979   9.707  21.805  13.481
16751W        W84980  25.614  38.259  11.574
16752W        W84981  33.616   6.690   2.187
16753W        W84982  42.777  39.923  12.495
16754W        W84983  10.963   1.976   5.007
16755W        W84984  38.350   7.964  14.335
16756W        W84985  38.912  38.983   3.278
16757W        W84986  25.486  43.058  11.428
16758W        W84987  16.831  36.334   0.826
16759W        W84988  11.803  40.954  11.178
16760W        W84989  35.389  11.002   0.417
16761W        W84990   2.700  22.991   2.429
16762W        W84991  42.030  16.593  11.711
16763W        W84992  37.762   1.617  11.750
16764W        W84993  23.170  29.774  13.983
16765W        W84994  27.477   3.146  14.784
16766W        W84995  20.082  28.054   3.650
16767W        W84996  25.044  40.043  12.647
16768W        W84997  10.807  22.602   1.003
16769W        W84998  42.509  12.777  14.143
16770W        W84999  25.972  26.548  12.500
16771W        W85000  26.887  29.040   0.436
16772W        W85001  12.593  44.823   2.831
16773W        W85002  19.769  14.531  12.360
16774W        W85003  10.771  18.743  13.335
16775W        W85004  35.048  11.648  10.686
16776W        W85005  31.412  37.330  11.530
16777W        W85006  40.030  28.866  14.363
16778W        W85007  11.181  30.484   0.111
16779W        W85008  43.732  29.374   1.320
16780W        W85009  43.298  43.243  12.108
16781W        W85010   2.438   1.395   3.241
16782W        W85011  22.647  40.471   1.808
16783W        W85012  29.613  27.568   3.449
16784W        W85013  42.352  12.761   0.621
16785W        W85014  11.716  13.346   2.499
16786W        W85015  37.586  20.563   3.147
16787W        W85016   4.760   1.622   0.965
16788W        W85017  25.460  16.138   3.688
16789W        W85018  36.827   7.829   2.608
16790W        W85019   2.539  42.527  11.162
16791W        W85020   6.458  42.500   0.310
16792W        W85021  38.858  31.682  12.049
16793W        W85022  23.437  41.845  11.658
16794W        W85023  17.123  19.724   2.442
16795W        W85024  21.698  19.745   0.926
16796W        W85025  13.181   3.811  12.365
16797W        W85026  40.505   1.081  11.464
16798W        W85027   3.444  21.191   4.554
16799W        W85028  25.223  22.327   3.580
16800W        W85029  15.552  25.712   0.584
16801W        W85030  31.137  39.582   0.073
16802W        W85031   0.455   9.376   2.305
16803W        W85032   8.528  26.250  13.427
16804W        W85033  21.526  19.983   2.722
16805W        W85034  23.938   0.735   3.012
16806W        W85035  44.975  37.303   0.466
16807W        W85036  41.990  13.259   0.154
16808W        W85037  16.105  14.888   3.847
16809W        W85038  24.150  36.987   3.764
16810W        W85039   4.260  27.899   4.157
16811W        W85040  35.976   1.535   1.452
16812W        W85041  15.935   4.403   3.707
16813W        W85042  25.220  39.457  10.438
16814W        W85043  13.256  39.144  14.350
16815W        W85044  17.650  12.368  14.379
16816W        W85045  23.625  21.356   2.325
16817W        W85046  17.577  25.310   3.749
16818W        W85047  11.834  15.335   4.582
16819W        W85048   3.167  31.930   3.233
16820W        W85049  31.528  42.596  12.073
16821W        W85050  41.475  12.167  12.872
16822W        W85051  26.356  44.320   4.794
16823W        W85052  41.916   1.945  14.664
16824W        W85053   2.748  29.031   3.685
16825W        W85054  23.675   5.675  10.764
16826W        W85055   0.549   9.151  10.915
16827W        W85056  44.759  10.150   0.080
16828W        W85057  34.677  41.927   5.111
16829W        W85058  18.753  43.200   3.741
16830W        W85059  27.591  21.269  13.530
16831W        W85060  11.799   3.055   1.461
16832W        W85061  19.873  39.393  11.570
16833W        W85062  17.207  43.189  11.263
16834W        W85063  13.899  44.444   4.950
16835W        W85064  22.457  43.959  12.465
16836W        W85065   4.474  43.367   4.518
16837W        W85066   9.673  39.037  10.658
16838W        W85067  31.854  21.114   3.898
16839W        W85068  15.989  44.213   5.103
16840W        W85069  42.992   7.585  14.926
16841W        W85070  15.204  13.014  11.368
16842W        W85071  21.189  16.217  12.892
16843W        W85072  26.296  41.980   3.188
16844W        W85073  42.835  21.809  13.434
16845W        W85074   3.689  17.664   2.369
16846W        W85075  26.018  32.926   1.437
16847W        W85076  43.392  12.380   4.597
16848W        W85077   6.742   8.221  12.955
16849W        W85078  38.477  32.777   0.305
16850W        W85079  33.151  27.429   2.227
16851W        W85080  20.099  39.774  13.773
16852W        W85081  40.037  16.810   1.962
16853W        W85082  37.339  28.750  14.665
16854W        W85083  17.085   1.827   1.201
16855W        W85084  35.289   3.280  14.016
16856W        W85085  14.514  13.782   0.915
16857W        W85086  10.149  19.623   9.812
16858W        W85087   7.921  36.835  12.392
16859W        W85088  26.585   2.699   2.836
16860W        W85089  41.232  26.040  11.208
16861W        W85090  32.378  14.602  11.090
16862W        W85091  15.174  39.829  14.760
16863W        W85092  27.631  19.135  11.583
16864W        W85093  39.520  28.601   0.783
16865W        W85094  19.141  44.586  13.923
16866W        W85095  38.516  21.736  10.882
16867W        W85096  33.552   8.650  14.444
16868W        W85097  23.796  33.155   2.348
16869W        W85098  23.630  36.599  11.854
16870W        W85099  14.284  38.298  11.974
16871W        W85100  29.289  17.329  13.742
16872W        W85101  15.337  13.355  11.734
16873W        W85102  14.206   7.333   3.811
16874W        W85103  16.999   4.901   4.567
16875W        W85104  34.411  25.180   0.649
16876W        W85105  40.513  42.947  10.287
16877W        W85106  12.649   5.757   2.755
16878W        W85107  16.571  43.872  13.297
16879W        W85108  34.101  29.037  13.911
16880W        W85109  10.229   8.274  10.705
16881W        W85110  23.989   5.142   3.215
16882W        W85111  28.580  23.189  10.752
16883W        W85112   4.486  43.771  13.588
16884W        W85113  19.127  29.621  10.449
16885W        W85114  37.130   4.416   3.744
16886W        W85115   6.223  35.389   9.993
16887W        W85116   4.177   3.013  12.021
16888W        W85117  42.420  10.525   0.737
16889W        W85118  25.054   3.920  10.685
16890W        W85119  28.330  34.132  10.972
16891W        W85120  44.333   5.100   2.642
16892W        W85121  44.050   8.232  11.768
16893W        W85122  16.505  36.505  11.042
16894W        W85123   3.511  28.125  11.623
16895W        W85124  23.481   6.940  12.445
16896W        W85125  24.531  40.408  13.840
16897W        W85126   5.391   5.473  13.902
16898W        W85127  16.274  15.338   3.656
16899W        W85128   9.763  14.220  11.278
16900W        W85129  39.252  44.820  14.843
16901W        W85130   3.695  42.521   3.431
16902W        W85131  33.086  11.269   0.668
16903W        W85132  23.035   1.881   4.891
16904W        W85133  28.097  33.153  10.774
16905W        W85134   5.615  29.205  11.704
16906W        W85135   0.295  27.343  11.714
16907W        W85136   9.268  40.797   0.732
16908W        W85137  35.494  36.307   3.188
16909W        W85138  42.760  38.866   2.717
16910W        W85139   1.827  29.083   2.425
16911W        W85140  10.194  35.068  14.818
16912W        W85141  29.546  36.168  13.811
16913W        W85142  40.744   9.915   2.443
16914W        W85143  30.592   1.490   0.022
16915W        W85144  26.570  20.541   2.375
16916W        W85145   2.754  26.088  10.388
16917W        W85146   5.506  33.035  11.150
16918W        W85147  14.744  35.853  14.946
16919W        W85148  20.249  32.862   0.370
16920W        W85149  21.590  17.215  11.591
16921W        W85150  44.388  35.664  14.310
16922W        W85151  38.998  38.435  13.933
16923W        W85152   2.184  44.252  11.562
16924W        W85153  33.263   8.275  11.602
16925W        W85154  36.162  17.093  13.996
16926W        W85155  26.085  33.887  12.574
16927W        W85156  42.486  44.361   0.079
16928W        W85157  43.235  27.102  13.817
16929W        W85158  41.199  31.556  10.850
16930W        W85159  29.594  24.289   1.414
16931W        W85160  22.609  36.656   3.879
16932W        W85161  15.859   0.983   1.335
16933W        W85162  41.629   9.400   3.676
16934W        W85163  25.382  38.015   2.202
16935W        W85164  36.503   9.638   2.481
16936W        W85165   9.341  34.820   3.224
16937W        W85166  15.329   2.909  12.880
16938W        W85167  13.080  43.887  12.141
16939W        W85168  17.144  14.523  14.304
16940W        W85169  23.254  15.031   0.815
16941W        W85170  20.704  21.044   2.752
16942W        W85171  22.704  17.807   1.306
16943W        W85172   3.141   2.951   0.426
16944W        W85173  15.038  17.151  13.477
16945W        W85174  26.534   4.130  12.933
16946W        W85175  10.948  18.135   4.021
16947W        W85176   1.442  40.292  12.288
16948W        W85177   2.267  29.524  13.139
16949W        W85178  31.919  28.146   4.382
16950W        W85179  42.516   4.434   0.440
16951W        W85180  42.376  28.118  12.711
16952W        W85181  28.136  39.026   4.553
16953W        W85182  15.119  29.396   2.704
16954W        W85183  13.054   7.303  14.521
16955W        W85184  21.558  29.717  14.878
16956W        W85185   7.187   1.797  11.215
16957W        W85186  39.066  18.043  11.558
16958W        W85187  29.310  20.736  14.241
16959W        W85188  16.188  35.668  13.012
16960W        W85189  20.277  21.486   1.793
16961W        W85190  24.210   2.818   3.151
16962W        W85191   0.377  25.093  13.122
16963W        W85192  13.639   9.227  11.460
16964W        W85193  25.066  25.048  10.885
16965W        W85194  29.695  13.610   0.741
16966W        W85195  19.511  18.154   4.011
16967W        W85196  11.912   8.910  10.652
16968W        W85197  12.323  18.961   1.786
16969W        W85198  26.157  34.122   2.793
16970W        W85199  24.125  22.225  13.438
16971W        W85200  39.494  19.215   1.508
16972W        W85201  12.203   0.503  13.295
16973W        W85202   6.575  13.948   3.136
16974W        W85203  30.601  12.853   4.594
16975W        W85204  41.082  29.021   4.781
16976W        W85205   6.600  29.017  11.468
16977W        W85206  18.504  38.031   4.098
16978W        W85207  26.496  26.072  10.928
16979W        W85208   5.453  19.312   0.506
16980W        W85209  18.734  24.583   3.851
16981W        W85210  15.671  41.227   0.942
16982W        W85211   0.907  20.010   4.174
16983W        W85212  17.027  35.098   5.050
16984W        W85213  29.743   6.428   4.695
16985W        W85214  22.215  32.379   3.389
16986W        W85215  20.848  31.403  11.202
16987W        W85216  35.087   7.585   1.127
16988W        W85217  41.425  17.004   1.945
16989W        W85218  33.565  39.396   2.313
16990W        W85219  15.181  11.749  12.100
16991W        W85220  25.221  38.885   3.720
16992W        W85221  40.489  44.099  13.097
16993W        W85222  43.742  42.559  12.660
16994W        W85223  33.974  35.559  11.494
16995W        W85224  12.345  41.444   2.032
16996W        W85225  12.669  30.093  14.043
16997W        W85226   4.930  40.777  12.365
16998W        W85227   5.935  12.608  12.524
16999W        W85228  20.689  13.658  11.703
17000W        W85229  31.034  43.671   4.745
17001W        W85230  44.051   1.273   0.466
17002W        W85231   7.272  24.560  14.053
17003W        W85232   4.277   7.937   1.596
17004W        W85233  13.045  37.158  12.848
17005W        W85234  12.656  36.931  14.716
17006W        W85235  28.982  40.502  12.658
17007W        W85236  26.167  11.592  12.631
17008W        W85237  43.225  28.086  12.371
17009W        W85238  13.729  10.920   3.432
17010W        W85239  11.626  39.842  13.998
17011W        W85240   0.860   2.820   4.572
17012W        W85241  26.551  44.358  12.840
17013W        W85242  17.242  36.479   3.885
17014W        W85243  15.075  28.546   3.275
17015W        W85244  43.188  19.919   4.877
17016W        W85245  31.641  16.723   0.159
17017W        W85246  12.868  13.381   3.083
17018W        W85247  32.057  26.965   3.696
17019W        W85248   8.436   6.818   0.378
17020W        W85249  28.213  35.801  14.303
17021W        W85250   9.343   5.446  11.177
17022W        W85251  25.046  38.746   0.311
17023W        W85252  32.471   6.075  11.344
17024W        W85253  17.118   4.948   5.108
17025W        W85254  41.327  21.706   1.294
17026W        W85255  11.273  26.899  14.944
17027W        W85256  23.669  15.780  14.402
17028W        W85257  19.912  37.243   1.149
17029W        W85258  38.586  31.496  10.390
17030W        W85259  35.446  38.334   0.780
17031W        W85260  32.426  19.014  11.533
17032W        W85261  29.829  17.246  11.169
17033W        W85262  14.154  31.713   3.203
17034W        W85263  38.421   2.673   1.381
17035W        W85264  44.059  44.339   1.277
17036W        W85265  26.551   9.421  12.616
17037W        W85266  26.093  23.078  13.133
17038W        W85267   1.739  39.941  14.638
17039W        W85268  15.352   9.756   1.892
17040W        W85269   6.095  35.420   3.180
17041W        W85270  44.481  35.180  14.353
17042W        W85271  23.445   5.198  10.777
17043W        W85272  12.150  34.014  14.725
17044W        W85273  20.680  25.538  13.546
17045W        W85274  42.545  33.771  13.121
17046W        W85275  31.654  32.898   3.239
17047W        W85276  17.118  24.043   2.264
17048W        W85277  15.612  38.209   1.670
17049W        W85278  31.523   7.271  12.935
17050W        W85279   5.762  36.634  10.897
17051W        W85280  23.526  31.634   0.790
17052W        W85281  29.805  33.099   3.228
17053W        W85282   4.217  35.466   3.151
17054W        W85283  10.063  27.065   2.760
17055W        W85284   4.415  18.820  11.173
17056W        W85285  16.737  44.772   0.749
17057W        W85286  30.635   0.209  11.245
17058W        W85287  44.251  27.603   4.480
17059W        W85288   8.320  13.699   1.306
17060W        W85289  20.769  20.695   4.112
17061W        W85290  12.182   6.193  10.671
17062W        W85291  23.003   6.743  13.443
17063W        W85292  14.272  34.339   3.663
17064W        W85293  40.402  25.002   0.445
17065W        W85294  30.202  32.753   2.703
17066W        W85295  20.951  37.884   1.787
17067W        W85296  31.462  14.013  13.559
17068W        W85297   1.849  28.123  13.262
17069W        W85298  24.426  33.510  10.111
17070W        W85299  35.498  19.383   0.258
17071W        W85300  18.826   0.494  14.310
17072W        W85301  43.872  19.781  12.461
17073W        W85302   6.620   3.734  14.454
17074W        W85303   4.213  31.996  13.838
17075W        W85304  25.646   3.795   4.559
17076W        W85305  38.045  42.031  10.794
17077W        W85306  35.353   5.156   2.335
17078W        W85307  39.397  11.624  11.244
17079W        W85308  10.494  39.134  14.311
17080W        W85309  23.282  24.990   2.906
17081W        W85310  43.850  32.021  11.656
17082W        W85311  36.552  24.005  13.340
17083W        W85312  41.473   4.675   4.763
17084W        W85313  31.179  30.133   2.894
17085W        W85314  17.240  10.814   3.434
17086W        W85315  41.632  34.650  11.470
17087W        W85316  13.825  30.886   0.754
17088W        W85317  19.729  27.431  13.353
17089W        W85318   6.867  23.057   1.538
17090W        W85319  22.918  28.531   4.677
17091W        W85320  15.556  41.354   4.179
17092W        W85321  20.324  34.853   0.713
17093W        W85322  32.021   5.496   0.304
17094W        W85323  11.840  44.818   3.159
17095W        W85324  24.686  27.543   2.365
17096W        W85325   7.213  21.541   1.385
17097W        W85326  36.020  29.491  10.190
17098W        W85327  29.489  41.242   0.768
17099W        W85328  25.701  16.582   3.545
17100W        W85329   7.779  35.368   3.973
17101W        W85330  23.647  36.771   3.161
17102W        W85331  31.888   4.866  12.594
17103W        W85332  36.436   8.503   1.688
17104W        W85333  35.480  24.570   3.664
17105W        W85334  18.136   9.446  11.008
17106W        W85335  30.377  23.068  14.786
17107W        W85336   4.028   3.869  14.034
17108W        W85337  30.039  30.106   1.138
17109W        W85338  23.573   9.183  14.969
17110W        W85339  39.828  29.636   3.197
17111W        W85340  31.468  41.470  12.532
17112W        W85341  40.313  17.717  12.948
17113W        W85342  25.390   0.332   3.195
17114W        W85343  35.445  33.185  13.359
17115W        W85344   7.823  22.442  14.704
17116W        W85345  25.691  26.970  10.893
17117W        W85346  14.067  36.835   0.231
17118W        W85347   4.694  14.584   2.324
17119W        W85348  26.821  37.358   4.166
17120W        W85349  20.559  35.256   0.461
17121W        W85350  10.225  12.694   4.061
17122W        W85351  43.105  36.321  14.466
17123W        W85352  44.825   1.944  12.485
17124W        W85353  34.665  20.245  14.381
17125W        W85354   5.249   6.658   4.487
17126W        W85355  16.585   3.460  12.827
17127W        W85356  34.983  18.099  12.426
17128W        W85357  22.231   0.439  10.899
17129W        W85358  29.116  36.272  14.086
17130W        W85359  25.185  25.268   0.357
17131W        W85360  39.231  10.657  11.488
17132W        W85361  30.333  12.925   0.804
17133W        W85362  33.334  21.259  13.972
17134W        W85363  30.929  32.848   3.641
17135W        W85364  42.820  41.455   3.673
17136W        W85365  39.515   6.691   5.039
17137W        W85366  35.974   8.994  11.101
17138W        W85367  16.819  24.934   2.189
17139W        W85368  36.954  10.062   0.765
17140W        W85369   9.433  44.986  12.975
17141W        W85370   0.121  43.352  14.431
17142W        W85371   3.956   6.517  12.525
17143W        W85372  21.754  13.273   4.246
17144W        W85373  34.906  22.957   0.754
17145W        W85374  27.448   6.834   1.713
17146W        W85375  43.306  37.047  14.098
17147W        W85376  10.210  31.386   0.317
17148W        W85377  18.179  39.842   0.319
17149W        W85378   6.275   0.853  11.697
17150W        W85379  16.586  16.201  10.162
17151W        W85380   0.884  16.820  14.394
17152W        W85381  32.423  23.517   0.225
17153W        W85382  33.054  10.420  14.973
17154W        W85383  38.939  13.410  11.165
17155W        W85384  27.939  43.430   3.999
17156W        W85385  27.082  13.795   1.977
17157W        W85386  17.306  29.835   0.756
17158W        W85387  18.371  35.416   2.173
17159W        W85388  12.762  22.428   2.917
17160W        W85389  15.085  13.718   3.942
17161W        W85390   6.822  24.451  12.003
17162W        W85391  36.366  40.077   1.780
17163W        W85392  34.953  13.628   4.291
17164W        W85393  20.258  26.241  11.047
17165W        W85394  23.141  26.447  14.051
17166W        W85395  11.727  22.172  14.909
17167W        W85396  34.530  28.629  14.752
17168W        W85397  22.778  36.414  14.029
17169W        W85398  22.870  25.773  10.272
17170W        W85399  13.415  42.421   1.504
17171W        W85400   2.882  44.116   3.031
17172W        W85401  17.647  22.545  13.623
17173W        W85402  39.822  42.873  13.447
17174W        W85403  30.057   0.450   2.837
17175W        W85404  43.237  26.243  13.336
17176W        W85405  25.019  17.166   4.512
17177W        W85406  35.345  41.219   4.165
17178W        W85407  20.229  29.575   1.825
17179W        W85408  43.526  39.071   0.666
17180W        W85409  11.206  33.459  13.417
17181W        W85410   8.685  37.900   3.298
17182W        W85411   4.758   8.202   2.816
17183W        W85412   8.708  11.065   0.394
17184W        W85413  33.214  21.363  12.170
17185W        W85414  40.029   3.665   1.652
17186W        W85415  24.754  42.493  12.517
17187W        W85416  10.330  33.515   0.665
17188W        W85417  36.845   9.530  13.928
17189W        W85418  15.388  23.956  11.757
17190W        W85419  32.170  19.897  11.477
17191W        W85420   3.748  30.072  11.445
17192W        W85421  20.606  33.517   2.744
17193W        W85422  31.128  32.108   2.315
17194W        W85423  15.389  12.158  12.379
17195W        W85424  26.063  22.762  13.939
17196W        W85425  19.140  21.500   4.201
17197W        W85426  23.616  31.166  13.006
17198W        W85427   0.033   1.413   0.324
17199W        W85428  25.312  37.340   1.482
17200W        W85429  40.924  30.550   9.884
17201W        W85430  10.975  17.722  12.044
17202W        W85431   2.712  25.394   4.534
17203W        W85432  22.698  26.191  14.941
17204W        W85433   4.709  33.422  14.568
17205W        W85434  25.113  14.459  10.674
17206W        W85435  27.930  25.056  11.314
17207W        W85436   8.158  34.069   3.271
17208W        W85437  17.610  36.545   1.758
17209W        W85438  16.020  29.995  14.886
17210W        W85439  41.634   2.431  13.219
17211W        W85440  27.062  32.267   2.499
17212W        W85441   3.865  31.621  12.569
17213W        W85442   1.425   9.889   3.864
17214W        W85443  22.651  13.791  14.472
17215W        W85444  17.876  43.307   3.638
17216W        W85445   0.469  19.300   4.618
17217W        W85446   9.783  44.034   1.348
17218W        W85447  10.295  13.737   2.004
17219W        W85448   7.210  36.190   4.187
17220W        W85449  38.971  16.398   4.668
17221W        W85450  43.116  18.756   4.108
17222W        W85451   7.423   9.175   3.233
17223W        W85452  39.903  11.887   0.295
17224W        W85453   4.309  28.083  10.717
17225W        W85454  18.573  42.823   0.798
17226W        W85455  38.868  39.343   2.524
17227W        W85456   7.943  29.387   0.247
17228W        W85457  29.821  30.553  12.790
17229W        W85458  35.588  32.603   1.813
17230W        W85459  31.591   4.684   3.676
17231W        W85460  12.613  19.000   2.679
17232W        W85461  13.872  35.677  12.371
17233W        W85462  38.797  18.187   2.929
17234W        W85463  41.469   5.198  14.273
17235W        W85464   6.982   0.945  11.929
17236W        W85465  19.610  31.867  14.980
17237W        W85466  35.596  26.035   3.138
17238W        W85467  12.129  19.949   3.134
17239W        W85468   1.442  38.862   3.478
17240W        W85469  27.248  11.654   3.711
17241W        W85470  39.366  32.547  12.197
17242W        W85471  43.465   5.240   0.247
17243W        W85472  14.990  15.825   4.393
17244W        W85473   3.695  26.013  11.734
17245W        W85474  22.176   6.778  13.016
17246W        W85475  27.440  28.561  13.301
17247W        W85476  37.086  27.073  10.819
17248W        W85477  24.633  35.383  13.130
17249W        W85478  27.681   2.751   3.108
17250W        W85479  26.164  35.869   1.676
17251W        W85480  39.151  19.578   4.636
17252W        W85481   0.611  14.799   0.044
17253W        W85482  42.920  11.596  11.989
17254W        W85483  17.398   6.190  13.432
17255W        W85484   2.187  30.994   3.874
17256W        W85485   8.620  21.010   3.818
17257W        W85486  44.834   7.163   2.600
17258W        W85487  37.141  28.719  13.364
17259W        W85488  23.233  17.327  10.780
17260W        W85489  31.151  23.548  11.420
17261W        W85490   8.800  14.380  12.580
17262W        W85491  31.473  33.835  14.096
17263W        W85492  23.089  12.507   4.282
17264W        W85493  10.719  35.443  13.334
17265W        W85494  35.316   9.121   0.593
17266W        W85495  22.292  37.525  11.884
17267W        W85496  33.636  24.219   3.278
17268W        W85497   9.218  42.043   0.343
17269W        W85498  27.671   0.280   1.415
17270W        W85499   8.643  30.071  12.133
17271W        W85500  14.998  15.107  14.979
17272W        W85501  19.703  40.067   3.505
17273W        W85502  12.740  21.589  10.552
17274W        W85503   6.636  16.767  13.293
17275W        W85504   0.841   8.534   3.541
17276W        W85505  20.307  43.482   3.144
17277W        W85506  19.242   7.952  11.126
17278W        W85507  14.033  14.741   5.025
17279W        W85508   5.198  37.976   3.305
17280W        W85509  16.419  30.661  12.412
17281W        W85510  27.621  35.627   4.204
17282W        W85511  17.280  11.346  14.949
17283W        W85512  23.165   8.758  14.603
17284W        W85513  15.807  38.410  13.995
17285W        W85514  42.422  22.496  12.978
17286W        W85515   8.615  43.184  13.946
17287W        W85516  20.049  39.748   0.114
17288W        W85517  31.485  33.368   0.007
17289W        W85518  28.144  42.739  13.082
17290W        W85519  29.761  34.073   2.227
17291W        W85520  43.914  37.083   4.667
17292W        W85521  31.848  28.583   4.101
17293W        W85522  13.957  29.097  11.578
17294W        W85523   1.663  25.367   2.869
17295W        W85524  34.859  12.738  12.524
17296W        W85525  15.326  31.344   3.595
17297W        W85526   0.532  27.389  13.023
17298W        W85527  43.510  35.971   4.954
17299W        W85528  43.397  43.435  12.583
17300W        W85529  40.982   8.017  11.267
17301W        W85530   4.525  27.816  14.981
17302W        W85531  29.659   5.272  11.566
17303W        W85532   6.483  38.475   3.531
17304W        W85533  18.669  27.703  11.015
17305W        W85534   6.693  27.167  12.415
17306W        W85535   1.859  41.528  11.532
17307W        W85536  33.941  19.101  11.439
17308W        W85537   5.298  33.190   3.671
17309W        W85538  10.653  22.599   0.506
17310W        W85539  18.901  38.093  11.855
17311W        W85540   8.491  43.662   1.719
17312W        W85541  21.705  44.436  10.712
17313W        W85542  42.412  23.625   4.023
17314W        W85543  35.664  36.339   1.468
17315W        W85544  30.506  11.911   4.457
17316W        W85545  13.576  42.588   1.042
17317W        W85546  42.826   0.211   3.192
17318W        W85547  40.337   9.255   2.739
17319W        W85548  25.997  42.493  12.155
17320W        W85549  16.863  20.592  12.410
17321W        W85550  11.150   0.463  11.543
17322W        W85551  13.431  20.669   1.854
17323W        W85552  41.818  44.080  14.826
17324W        W85553  11.340  30.667   3.307
17325W        W85554   7.571  29.511   2.426
17326W        W85555  11.668  16.322  10.612
17327W        W85556  22.658  41.465  10.153
17328W        W85557  10.822  41.767   3.801
17329W        W85558  28.666   8.698  11.933
17330W        W85559   1.746  44.494   3.692
17331W        W85560  41.563  35.917  14.878
17332W        W85561  30.041   9.370   0.870
17333W        W85562  16.879  16.698   1.388
17334W        W85563   6.229  23.638   2.676
17335W        W85564  36.713  30.882  10.743
17336W        W85565  41.373   8.197  11.890
17337W        W85566  24.679  32.623  14.852
17338W        W85567  24.554   0.253   3.803
17339W        W85568  42.892   3.883  10.711
17340W        W85569   1.695  13.577  12.888
17341W        W85570  42.755  39.729   2.463
17342W        W85571  20.817  17.158  10.708
17343W        W85572   0.486  35.560  14.430
17344W        W85573  37.949  40.515  11.715
17345W        W85574   6.890  41.206  10.995
17346W        W85575  13.712  20.482  11.628
17347W        W85576   9.232  27.938  14.560
17348W        W85577   5.138  10.207   4.682
17349W        W85578  27.090   2.410  11.483
17350W        W85579  39.091  37.589   4.568
17351W        W85580   2.810  19.138  11.139
17352W        W85581  22.484  41.215  12.592
17353W        W85582  37.531  14.095   3.665
17354W        W85583  21.426  20.753   2.367
17355W        W85584   3.818  23.036  13.065
17356W        W85585  11.297  43.477  11.109
17357W        W85586   0.810   7.704  11.921
17358W        W85587  32.659  36.923   4.712
17359W        W85588   4.771  14.078  11.060
17360W        W85589  36.478   9.120   3.970
17361W        W85590   1.272  38.501   0.220
17362W        W85591  38.159   6.693   2.342
17363W        W85592  12.536  44.271   4.154
17364W        W85593  44.492   0.034  13.660
17365W        W85594  13.788  24.699   1.634
17366W        W85595  44.842  17.709  11.397
17367W        W85596  31.607  44.469  13.344
17368W        W85597  17.595  23.740   3.144
17369W        W85598  19.550   6.850   0.459
17370W        W85599  15.599   7.668   0.162
17371W        W85600  31.616  41.605   1.447
17372W        W85601  37.342   9.796   1.569
17373W        W85602  40.596  40.021  10.509
17374W        W85603  29.181  16.531  14.885
17375W        W85604   8.156  30.173  14.532
17376W        W85605  18.788  22.706  12.705
17377W        W85606  28.443  39.522  12.067
17378W        W85607  31.643  15.561   3.145
17379W        W85608  26.736  10.984   2.330
17380W        W85609  12.811  15.553   1.846
17381W        W85610  20.794  23.521   3.299
17382W        W85611  37.014  20.210  10.492
17383W        W85612   1.228  41.525  14.085
17384W        W85613  31.568  34.694   1.946
17385W        W85614  26.355  11.221  11.924
17386W        W85615  20.604  20.710   0.468
17387W        W85616  44.298  24.727   2.685
17388W        W85617   6.701  37.818  11.197
17389W        W85618  42.214  18.237   3.126
17390W        W85619  16.283  36.565  13.027
17391W        W85620  31.073  33.030  11.898
17392W        W85621  25.730  31.082   2.591
17393W        W85622   2.330  38.944   4.979
17394W        W85623  34.211  41.492  11.387
17395W        W85624  22.740  15.214   4.840
17396W        W85625  13.165  12.104   1.868
17397W        W85626  23.658  36.844  14.972
17398W        W85627  40.767  42.040   4.576
17399W        W85628   4.353  40.668  14.406
17400W        W85629  24.496   9.557   0.600
17401W        W85630   1.243  43.715   0.615
17402W        W85631  18.946  36.115  11.991
17403W        W85632  23.049  32.893   4.702
17404W        W85633  10.230   0.770   1.182
17405W        W85634  25.657  22.770   2.605
17406W        W85635  11.257   2.478  14.683
17407W        W85636  24.869   6.639   2.662
17408W        W85637  14.599  32.502  14.469
17409W        W85638   3.982  36.138  11.481
17410W        W85639   4.317  20.975   2.510
17411W        W85640  29.107  25.764   2.836
17412W        W85641   3.453  38.283  11.050
17413W        W85642  37.953  21.562   0.988
17414W        W85643   5.159  32.070   1.802
17415W        W85644  25.929  20.727  11.865
17416W        W85645  37.431  39.392  11.999
17417W        W85646  12.633  13.812   5.387
17418W        W85647  27.057   5.362   4.164
17419W        W85648  21.620  16.702  10.852
17420W        W85649  20.304  29.027   0.936
17421W        W85650  31.107  37.084   2.684
17422W        W85651  24.499  29.242  11.609
17423W        W85652  27.338  15.880   2.328
17424W        W85653  34.409  17.079  13.141
17425W        W85654  13.638  14.209  14.622
17426W        W85655  14.632   2.069  14.906
17427W        W85656  23.227  21.132  11.126
17428W        W85657  20.966  21.279  10.439
17429W        W85658  16.292  34.577  10.745
17430W        W85659  11.573   6.130  14.961
17431W        W85660  10.633  24.783   4.756
17432W        W85661  13.281   6.804   3.569
17433W        W85662  22.624  28.015   0.285
17434W        W85663   0.368  17.746  10.618
17435W        W85664  31.522  36.243  13.489
17436W        W85665  20.546  11.880   0.380
17437W        W85666  30.435   3.404  14.085
17438W        W85667   6.172  37.423   0.674
17439W        W85668  25.009  36.504   1.303
17440W        W85669   5.013  33.281  12.981
17441W        W85670  38.347  19.040  14.568
17442W        W85671  42.852  38.448  10.201
17443W        W85672   4.703  20.044   4.682
17444W        W85673  39.933  12.412  11.969
17445W        W85674   8.395  25.427  12.878
17446W        W85675  40.091  12.743   3.723
17447W        W85676  21.367  43.847   4.903
17448W        W85677  26.983  25.628  10.666
17449W        W85678  20.148  26.252  13.670
17450W        W85679   5.627   8.919   5.050
17451W        W85680  25.623  28.417   4.972
17452W        W85681  19.695   5.316  12.414
17453W        W85682  29.229  30.946  10.682
17454W        W85683  25.559  36.147   4.223
17455W        W85684  23.316  26.583  11.125
17456W        W85685  40.243  10.753   1.222
17457W        W85686  32.430  26.468  14.280
17458W        W85687  43.945  28.043   0.664
17459W        W85688  13.190  37.208  14.578
17460W        W85689  12.609  12.409   1.796
17461W        W85690  29.181  38.587   1.798
17462W        W85691  25.705  10.411   2.381
17463W        W85692  26.881  25.172   5.154
17464W        W85693  35.621  11.133  12.115
17465W        W85694  30.795  10.645   0.838
17466W        W85695  34.321  29.014   4.645
17467W        W85696   5.435  11.200  14.377
17468W        W85697   5.811  11.684   3.156
17469W        W85698  12.384  30.599  11.938
17470W        W85699  33.345   4.597   1.362
17471W        W85700   1.530  31.104  12.431
17472W        W85701  33.891  34.519   3.347
17473W        W85702  44.030  32.472   0.721
17474W        W85703  41.456  39.514  13.355
17475W        W85704  20.630  42.724   2.763
17476W        W85705  33.358   6.199   1.826
17477W        W85706  28.425   6.196   1.493
17478W        W85707  26.657   2.804  10.728
17479W        W85708  11.664  31.172   4.723
17480W        W85709  22.271   5.240   2.884
17481W        W85710  17.276  36.273  12.716
17482W        W85711  29.288   8.689   0.637
17483W        W85712  34.673   1.820   1.510
17484W        W85713  16.019  15.387  12.606
17485W        W85714  28.672   0.258   1.434
17486W        W85715   2.254  41.995   2.782
17487W        W85716  11.670   7.213   3.120
17488W        W85717  36.095  17.938  10.636
17489W        W85718  42.700  31.928   2.286
17490W        W85719   5.131  20.490   4.144
17491W        W85720   3.771  32.850  10.451
17492W        W85721  42.315  38.104  10.729
17493W        W85722  16.561  19.693  12.027
17494W        W85723  13.093  16.762   2.836
17495W        W85724   9.395  23.272  12.924
17496W        W85725   7.421   7.113  10.662
17497W        W85726  14.693  21.275  12.553
17498W        W85727   2.387  19.258  14.688
17499W        W85728   8.181  27.631   4.849
17500W        W85729   9.791   6.867   4.778
17501W        W85730  17.051  29.358   2.838
17502W        W85731  33.653  11.440  10.198
17503W        W85732   4.763  11.638  14.823
17504W        W85733  36.935  24.416  13.822
17505W        W85734   5.507   2.227  13.187
17506W        W85735  22.793  17.179  11.604
17507W        W85736  29.005  17.757   0.959
17508W        W85737  26.232  24.003  12.645
17509W        W85738  16.180  11.858  13.979
17510W        W85739  26.380  21.991  14.430
17511W        W85740   8.336  42.724  11.523
17512W        W85741   7.136   4.290  14.403
17513W        W85742  14.544  32.904  14.100
17514W        W85743  43.045  40.375  12.559
17515W        W85744  26.059  10.870   2.008
17516W        W85745  28.808  23.146  12.039
17517W        W85746   8.322  30.665  13.029
17518W        W85747  22.237  24.108  10.764
17519W        W85748  23.073  40.190   1.902
17520W        W85749  41.245  36.854  12.911
17521W        W85750  18.135  15.698  10.752
17522W        W85751  15.874  14.230  11.423
17523W        W85752  34.895  15.417  10.699
17524W        W85753  23.739  44.199   3.679
17525W        W85754  17.793   3.018  14.790
17526W        W85755  23.523  44.113  11.600
17527W        W85756  11.412  43.734   3.628
17528W        W85757   0.746  18.796  10.666
17529W        W85758   6.303  11.452  13.994
17530W        W85759  18.716  11.282   2.471
17531W        W85760  22.225   5.890  14.836
17532W        W85761  21.285  38.092  12.080
17533W        W85762  18.837   4.377   0.931
17534W        W85763   6.836  37.143   1.668
17535W        W85764  30.902  40.990   1.431
17536W        W85765  25.851  39.272  13.813
17537W        W85766  35.014   2.441   1.323
17538W        W85767  20.478  12.155   3.917
17539W        W85768  37.509  27.596  11.671
17540W        W85769  39.589  24.569   2.781
17541W        W85770  35.014   5.002   3.147
17542W        W85771   3.678  36.628  14.447
17543W        W85772  17.232  33.178   0.648
17544W        W85773  43.770   5.396  14.462
17545W        W85774  40.626  31.860  13.400
17546W        W85775  22.701  27.952   2.709
17547W        W85776   2.721  19.685  11.413
17548W        W85777  44.884   7.929  14.508
17549W        W85778  23.332  37.304   0.205
17550W        W85779  26.019  22.010   0.430
17551W        W85780   3.721  12.144   2.778
17552W        W85781  16.699  18.480  13.406
17553W        W85782  41.756  12.570   2.373
17554W        W85783  30.939  31.163  14.854
17555W        W85784  33.041  41.485   4.969
17556W        W85785  21.620  27.687  12.870
17557W        W85786   4.718  23.540  14.887
17558W        W85787  38.504  39.923  11.522
17559W        W85788  26.146   1.890  10.979
17560W        W85789  43.894   5.863  12.587
17561W        W85790  41.936  10.051  10.227
17562W        W85791  35.692  23.150  12.032
17563W        W85792  18.160   2.674  14.946
17564W        W85793  35.866  25.440  10.734
17565W        W85794  18.678  11.089   4.121
17566W        W85795  26.167   4.240   2.298
17567W        W85796   5.035  28.931   4.798
17568W        W85797  30.167  25.293  12.017
17569W        W85798  35.415   7.241  13.369
17570W        W85799  23.465  40.511  13.791
17571W        W85800  12.309   0.799  12.064
17572W        W85801  39.823  17.129   2.331
17573W        W85802  17.597   1.496   0.043
17574W        W85803  41.968  20.635  10.759
17575W        W85804  12.072   4.939  10.795
17576W        W85805  10.853  17.738   3.160
17577W        W85806  41.311   4.570   0.444
17578W        W85807  17.855  10.726   4.253
17579W        W85808   2.776  10.355   0.882
17580W        W85809  34.098  36.512  14.734
17581W        W85810  10.089  34.995  10.867
17582W        W85811   6.637  16.165  12.962
17583W        W85812  10.863  28.656   2.433
17584W        W85813  16.740  18.388  10.723
17585W        W85814  11.238  28.487   4.165
17586W        W85815  25.209  30.660  11.926
17587W        W85816  18.704  33.206   3.616
17588W        W85817  39.977  28.644   4.179
17589W        W85818  32.700  19.043   1.006
17590W        W85819  26.566   1.489  13.028
17591W        W85820  20.497  41.619   4.161
17592W        W85821  16.370  19.524  10.759
17593W        W85822  18.271  10.276   3.239
17594W        W85823   5.740  13.411  14.270
17595W        W85824  25.285  13.023   2.845
17596W        W85825  38.031  40.961   3.805
17597W        W85826  10.154  33.051  12.831
17598W        W85827  37.301  41.874   2.729
17599W        W85828  26.901  17.149  11.107
17600W        W85829   1.952  40.305  14.346
17601W        W85830  21.632  31.485  11.626
17602W        W85831  13.819  30.590   1.248
17603W        W85832  41.148  34.528  11.543
17604W        W85833  16.377  19.474   1.401
17605W        W85834  27.541  31.624   3.984
17606W        W85835  39.923  17.571   1.369
17607W        W85836  23.120  37.811  14.274
17608W        W85837  18.634  15.024   0.235
17609W        W85838  26.994  38.068  12.034
17610W        W85839  17.133  37.622   4.586
17611W        W85840  31.208   5.804   2.990
17612W        W85841   3.374  26.418   1.891
17613W        W85842  26.630  29.065   4.670
17614W        W85843  25.742  23.630  14.984
17615W        W85844  24.420  19.667  10.742
17616W        W85845   3.180  27.774   4.853
17617W        W85846  29.888  22.323  11.239
17618W        W85847  23.022   8.452   1.772
17619W        W85848  25.809  15.170   0.333
17620W        W85849  40.124   3.329   1.229
17621W        W85850  14.672   0.325  10.498
17622W        W85851  26.856  30.496  12.901
17623W        W85852   1.501  26.664  10.464
17624W        W85853  43.155   8.741  13.413
17625W        W85854  14.309  23.758   1.808
17626W        W85855  25.154  19.237   0.916
17627W        W85856   9.860   5.653   3.991
17628W        W85857  29.785   5.260  14.105
17629W        W85858   7.707   5.262  10.682
17630W        W85859  29.489   7.234   1.985
17631W        W85860  10.900  31.506  13.591
17632W        W85861  26.000   7.893  13.982
17633W        W85862  34.898  24.969  11.543
17634W        W85863  35.302  13.121   1.416
17635W        W85864  21.469  14.101  11.684
17636W        W85865  26.351  16.708   4.735
17637W        W85866  26.318  32.601  13.823
17638W        W85867  15.765  17.818   3.662
17639W        W85868  39.404  12.669   0.721
17640W        W85869  18.986  17.724  13.421
17641W        W85870  19.243  18.482   4.961
17642W        W85871  35.890   5.878   1.184
17643W        W85872   1.423  31.652   1.708
17644W        W85873  19.159   4.422  13.039
17645W        W85874  19.635  28.480  11.209
17646W        W85875  36.814  26.552  13.956
17647W        W85876  11.255  14.849  11.497
17648W        W85877   3.246  20.831  14.937
17649W        W85878  42.868  18.673  14.522
17650W        W85879   1.184   6.704   1.928
17651W        W85880  27.502  19.767   0.164
17652W        W85881  14.056  38.310   0.056
17653W        W85882  37.090  20.288   3.775
17654W        W85883  42.894  33.550   3.180
17655W        W85884   6.383  17.130  11.557
17656W        W85885  42.813  21.646  11.485
17657W        W85886  38.830  34.373   1.207
17658W        W85887  11.216  22.342   0.721
17659W        W85888  11.845   9.626   5.361
17660W        W85889   5.494  38.116   1.239
17661W        W85890   8.770   5.295  14.866
17662W        W85891  21.399  16.292  11.079
17663W        W85892  37.808   6.759   2.754
17664W        W85893  31.091  19.312  11.848
17665W        W85894  37.150  11.296   3.862
17666W        W85895  15.314  14.236  11.467
17667W        W85896  30.533  23.048   2.504
17668W        W85897  20.221  25.061   0.359
17669W        W85898  13.892  10.758  12.917
17670W        W85899   4.172   0.902   1.511
17671W        W85900  15.294  19.710  11.334
17672W        W85901  12.421  38.803   0.728
17673W        W85902  44.780  28.001   3.339
17674W        W85903  38.607  38.718  11.751
17675W        W85904  26.498  43.008   4.191
17676W        W85905  34.426  32.622  13.523
17677W        W85906   6.858  33.536   4.212
17678W        W85907  35.126  42.703  10.433
17679W        W85908  36.498  11.273  11.946
17680W        W85909  12.222  14.831  12.359
17681W        W85910  26.126  11.069   2.831
17682W        W85911  32.912  17.558  14.248
17683W        W85912  34.332  24.723  11.065
17684W        W85913  26.093  32.046  13.169
17685W        W85914  32.665  36.996   1.758
17686W        W85915  32.533  41.408  11.147
17687W        W85916  36.121  41.635  12.230
17688W        W85917  16.618  14.025  14.879
17689W        W85918   5.420  41.399  13.393
17690W        W85919  24.227   4.321  13.972
17691W        W85920   9.934  13.023  12.123
17692W        W85921   3.316  12.378  13.631
17693W        W85922   5.093  37.569   0.514
17694W        W85923  23.587  15.854  11.662
17695W        W85924  15.235  43.519  13.448
17696W        W85925  24.756  25.707  14.301
17697W        W85926   1.309  39.790  11.076
17698W        W85927  15.574  27.661  13.264
17699W        W85928  37.392  32.827   0.290
17700W        W85929   0.647   1.231  12.877
17701W        W85930  36.554  42.746  14.586
17702W        W85931   8.462  39.048   2.827
17703W        W85932  10.296   1.738   3.778
17704W        W85933  10.691  41.274   2.245
17705W        W85934   6.323  27.530  12.467
17706W        W85935  11.224  35.045   1.470
17707W        W85936   3.072  10.094  10.622
17708W        W85937  13.654  15.391   4.017
17709W        W85938  42.352  37.500  14.282
17710W        W85939  17.827  15.555   1.976
17711W        W85940   0.589  37.014   2.133
17712W        W85941  15.563  20.305   4.202
17713W        W85942  25.504  29.640   0.487
17714W        W85943  43.458   1.437  12.085
17715W        W85944  11.927  26.249   1.262
17716W        W85945  29.474  20.740   2.780
17717W        W85946   3.652  32.085   3.112
17718W        W85947  43.769  37.824  12.564
17719W        W85948  14.661  34.529  12.387
17720W        W85949  39.729  24.644  13.005
17721W        W85950  38.324  13.197  11.948
17722W        W85951  28.366  30.998   3.420
17723W        W85952   5.573  22.883   2.916
17724W        W85953  25.552   9.479   3.606
17725W        W85954   3.500  32.342   4.810
17726W        W85955   8.871  19.233  12.972
17727W        W85956  18.728  15.037  11.619
17728W        W85957  31.922  24.230   1.816
17729W        W85958  42.513  44.792   2.853
17730W        W85959  42.728  33.583   2.309
17731W        W85960  38.590  10.145   4.091
17732W        W85961  26.539  28.254   1.022
17733W        W85962  19.175  38.513   3.635
17734W        W85963  38.115  37.967  11.537
17735W        W85964  20.242  20.707  12.810
17736W        W85965  29.259  14.748   4.992
17737W        W85966  40.230  30.630  11.639
17738W        W85967   8.417  30.799   2.354
17739W        W85968  40.915  33.121  11.898
17740W        W85969  10.974  18.274   0.340
17741W        W85970  12.135  19.500  14.938
17742W        W85971  41.498  24.507  10.414
17743W        W85972  44.501  10.588  12.997
17744W        W85973  38.486  10.885  12.293
17745W        W85974  12.837  42.113  11.983
17746W        W85975  20.119  18.756  11.474
17747W        W85976  37.278  35.344  11.566
17748W        W85977  40.431  21.525  13.917
17749W        W85978  26.044  13.973   2.504
17750W        W85979   4.376  17.224  14.977
17751W        W85980  39.273  32.093   5.070
17752W        W85981  36.912   3.430   3.739
17753W        W85982  36.927  21.710   2.725
17754W        W85983  14.396   1.299   0.326
17755W        W85984  17.670  14.074   0.127
17756W        W85985  29.192  27.849   1.361
17757W        W85986  19.816  20.923  10.786
17758W        W85987  34.363   9.897  12.009
17759W        W85988  21.498  10.124   0.982
17760W        W85989  17.400  18.393   1.273
17761W        W85990  19.604  37.386   1.526
17762W        W85991  35.597  30.238   2.263
17763W        W85992  12.714  43.772   4.176
17764W        W85993  19.110  42.055   2.839
17765W        W85994   7.386  21.976  12.326
17766W        W85995  18.119  44.750   1.302
17767W        W85996   4.405   2.176  14.916
17768W        W85997   5.273   1.924  10.921
17769W        W85998  17.348  42.688  11.212
17770W        W85999  27.716  28.265   3.554
17771W        W86000  42.029  15.210  13.236
17772W        W86001  37.329  30.421   4.295
17773W        W86002  21.492  17.296   4.101
17774W        W86003  42.892   7.524   4.303
17775W        W86004  29.417  24.935   4.503
17776W        W86005  14.514  31.021  11.590
17777W        W86006  10.826  24.217   3.154
17778W        W86007   9.535  21.093   1.275
17779W        W86008   3.933  37.923   4.491
17780W        W86009  10.409  36.414   1.369
17781W        W86010  31.639   1.933   2.533
17782W        W86011   2.802   0.553  10.992
17783W        W86012   5.393  42.571   4.262
17784W        W86013  39.058   7.694   3.880
17785W        W86014   4.942   6.270  12.136
17786W        W86015  26.535   0.963  13.064
17787W        W86016  27.014  43.453   2.284
17788W        W86017  34.412  11.913   0.445
17789W        W86018  16.645  17.510   3.217
17790W        W86019   8.126   6.764   4.754
17791W        W86020   7.610   9.448   2.785
17792W        W86021  36.327  15.202   4.705
17793W        W86022  28.197  16.095   0.954
17794W        W86023  21.165  40.705  11.421
17795W        W86024  12.532  24.586  13.265
17796W        W86025   0.740   6.563  11.180
17797W        W86026   2.426   4.940   1.708
17798W        W86027  33.914  33.496  14.602
17799W        W86028   0.333  26.970   2.886
17800W        W86029  25.489   4.596   0.867
17801W        W86030  12.774  43.781   3.682
17802W        W86031  11.888  10.918  13.746
17803W        W86032  10.666  35.799   1.656
17804W        W86033   3.678  40.114   3.732
17805W        W86034  22.590  42.076   1.295
17806W        W86035  17.006  20.113   3.811
17807W        W86036   4.170  27.057  12.055
17808W        W86037  21.186  32.966  13.695
17809W        W86038  41.385  18.592  13.928
17810W        W86039   7.322  36.872   1.963
17811W        W86040  17.736  44.756   3.644
17812W        W86041  12.737   6.949   0.071
17813W        W86042  40.821   8.799  13.030
17814W        W86043  10.191  22.620  13.111
17815W        W86044  44.221  26.227   1.479
17816W        W86045   5.368  18.087   5.020
17817W        W86046  28.461  19.790   2.876
17818W        W86047   8.411  24.597   1.206
17819W        W86048  25.787  13.759   1.605
17820W        W86049  22.932  33.980   2.750
17821W        W86050  18.708  16.818   1.322
17822W        W86051  35.371  38.914  13.854
17823W        W86052  31.556  24.733   2.182
17824W        W86053  14.479  37.088  12.905
17825W        W86054  16.027  24.247  13.367
17826W        W86055  20.079  39.118   4.344
17827W        W86056   0.811   5.239   3.806
17828W        W86057  36.084  20.375   2.769
17829W        W86058  26.939  22.333   3.059
17830W        W86059  44.831  32.466   3.325
17831W        W86060  44.928   2.477  11.953
17832W        W86061  17.850  25.956   2.411
17833W        W86062  18.511  16.661   0.877
17834W        W86063  10.147  42.905  12.059
17835W        W86064  34.917  42.971   4.741
17836W        W86065  30.061  19.081  13.133
17837W        W86066  34.409  13.232   0.030
17838W        W86067   1.407   8.508   0.438
17839W        W86068  29.089   8.421   1.466
17840W        W86069  19.221  23.237   0.447
17841W        W86070  10.600  38.780   1.267
17842W        W86071  18.781  43.970  10.992
17843W        W86072  11.171  12.745   2.843
17844W        W86073  43.404  24.786   2.613
17845W        W86074  32.999  39.026  13.924
17846W        W86075   3.986  17.606   2.806
17847W        W86076   9.671  44.799   0.673
17848W        W86077  40.621  25.540  12.544
17849W        W86078   4.424  23.995   2.236
17850W        W86079   9.904   3.931   4.213
17851W        W86080  12.177  21.668  12.902
17852W        W86081  14.560  11.096   3.083
17853W        W86082  37.219  31.634   3.204
17854W        W86083  38.891  12.793   3.397
17855W        W86084   8.271  25.671   2.258
17856W        W86085  28.954  28.757   1.693
17857W        W86086  31.866   9.865   4.902
17858W        W86087  18.827   5.489   3.468
17859W        W86088  24.437  29.504   3.438
17860W        W86089  42.873  30.620  14.097
17861W        W86090  27.162  11.809   1.867
17862W        W86091   8.944  39.382  12.974
17863W        W86092   9.398  15.834  10.708
17864W        W86093  28.094  34.504  14.997
17865W        W86094  39.932  40.479  12.741
17866W        W86095   8.159  17.505  11.576
17867W        W86096  31.560  27.521  13.406
17868W        W86097  33.491   0.235   4.480
17869W        W86098  11.297  16.059   1.901
17870W        W86099  12.715  27.547   3.101
17871W        W86100  34.531  12.250  12.990
17872W        W86101   5.616  19.786  12.423
17873W        W86102  28.116  44.244   4.659
17874W        W86103  40.899  12.617  12.515
17875W        W86104  42.618  21.400  13.217
17876W        W86105   5.176  15.253  12.647
17877W        W86106  31.938  11.595   2.196
17878W        W86107  10.346   1.196  11.000
17879W        W86108  24.695  27.271  11.230
17880W        W86109   0.571  14.565   2.453
17881W        W86110  14.994  24.028  12.201
17882W        W86111  20.607  17.520  14.315
17883W        W86112   3.875  14.208   1.636
17884W        W86113   3.467  37.566   3.303
17885W        W86114   3.228  41.301   2.317
17886W        W86115   4.388  32.662   1.625
17887W        W86116   6.414  26.509  13.980
17888W        W86117  27.619  34.594   4.175
17889W        W86118  37.494  13.379  12.148
17890W        W86119  33.471   9.717   3.425
17891W        W86120   1.327   1.382  13.433
17892W        W86121   0.048  13.753  12.200
17893W        W86122  28.649   5.040  13.571
17894W        W86123   6.440  11.736  12.450
17895W        W86124   3.521  19.954   4.373
17896W        W86125  39.931   2.727  12.006
17897W        W86126  40.867  32.997  12.398
17898W        W86127   8.351  39.776   3.280
17899W        W86128  29.498   2.008   3.728
17900W        W86129   1.212   8.848   1.298
17901W        W86130  22.264  16.875   3.694
17902W        W86131  11.138  37.407  12.129
17903W        W86132  36.192  41.873   3.098
17904W        W86133  11.661   1.853   4.564
17905W        W86134  29.238  31.454  14.328
17906W        W86135   8.262  17.471   4.115
17907W        W86136  27.749   3.668  12.925
17908W        W86137  22.513   7.314   2.888
17909W        W86138  37.145  28.496   4.351
17910W        W86139  19.599   5.965  14.385
17911W        W86140  10.657   1.463   4.009
17912W        W86141   7.370   9.577   4.065
17913W        W86142  29.785  34.993  11.105
17914W        W86143  39.199  22.014  14.272
17915W        W86144  40.671  24.805   2.877
17916W        W86145  11.907  12.650   1.674
17917W        W86146  25.863  25.258  11.466
17918W        W86147  42.507  33.067   1.627
17919W        W86148  31.698  40.253   3.762
17920W        W86149  26.892  25.117  12.873
17921W        W86150   4.296  28.039   1.414
17922W        W86151  27.060   4.149   3.871
17923W        W86152  42.135  14.271   2.233
17924W        W86153  23.704  23.552   0.499
17925W        W86154  44.570  11.252   1.856
17926W        W86155   2.181  22.532  11.415
17927W        W86156  21.145  21.497   3.969
17928W        W86157  14.637  33.962   3.086
17929W        W86158  20.823  24.757   2.253
17930W        W86159  30.497  13.534  11.068
17931W        W86160  27.380  31.942   4.677
17932W        W86161  34.056  22.172   1.948
17933W        W86162   1.286   1.593  11.641
17934W        W86163  22.501  25.720   0.069
17935W        W86164   1.044  28.677  13.973
17936W        W86165  24.626   6.907  12.857
17937W        W86166  18.688  37.858   3.196
17938W        W86167  23.677  36.856   1.350
17939W        W86168  29.137  24.648  11.421
17940W        W86169  36.673  36.059  12.993
17941W        W86170   0.248  41.196  10.667
17942W        W86171  18.185  40.669  13.548
17943W        W86172  36.564  42.605  12.977
17944W        W86173  13.376  19.361   3.263
17945W        W86174   6.311  19.794   0.735
17946W        W86175  26.816   4.265   2.770
17947W        W86176  19.242  27.904  11.094
17948W        W86177  21.730  20.003  11.095
17949W        W86178  33.309   7.899  12.502
17950W        W86179  30.069  31.986  14.770
17951W        W86180  10.718  14.673   5.484
17952W        W86181  22.032   2.968  10.746
17953W        W86182  31.965  40.460  13.463
17954W        W86183  38.975   3.253   0.356
17955W        W86184   6.898  16.013   4.976
17956W        W86185  29.593  19.273   1.820
17957W        W86186   9.971  26.704  12.156
17958W        W86187  10.253  42.050   2.150
17959W        W86188  29.691  28.618  12.466
17960W        W86189   2.447   2.747  10.783
17961W        W86190  21.257  40.793   1.139
17962W        W86191   7.857   4.928  13.343
17963W        W86192   2.475  19.299  13.018
17964W        W86193   5.269  34.850  13.586
17965W        W86194  31.955  18.743   1.222
17966W        W86195   9.693  11.758  10.237
17967W        W86196  14.178  12.287   1.891
17968W        W86197  19.190  37.545   0.386
17969W        W86198   3.804  30.948  10.855
17970W        W86199  33.860  37.672   2.268
17971W        W86200  42.989  43.975  11.925
17972W        W86201  18.546  15.505   0.385
17973W        W86202  44.501  33.615  12.107
17974W        W86203   9.805   2.390   0.355
17975W        W86204  43.253  14.801  10.772
17976W        W86205  30.847   8.147  12.247
17977W        W86206  30.998  39.756   4.352
17978W        W86207  36.405   9.755   0.503
17979W        W86208  17.744   6.276   0.380
17980W        W86209   3.536  31.492   4.751
17981W        W86210   4.154  16.642   0.730
17982W        W86211  16.082  24.483   3.761
17983W        W86212   9.941  40.154  14.965
17984W        W86213  40.947  14.890   1.782
17985W        W86214  36.428  44.464  12.071
17986W        W86215  12.618   1.929  11.272
17987W        W86216   5.056  17.898  10.194
17988W        W86217  14.812  31.458  14.992
17989W        W86218   2.963  18.544  12.929
17990W        W86219   9.389  34.841  14.307
17991W        W86220  20.115  41.416  14.925
17992W        W86221  23.301   1.417   1.313
17993W        W86222   5.276  38.768  12.060
17994W        W86223  34.872   2.217   3.697
17995W        W86224   5.629  36.604   2.398
17996W        W86225   3.574  21.239  14.941
17997W        W86226   2.806  21.131   0.643
17998W        W86227  13.797  38.411   1.393
17999W        W86228  23.183  44.579  12.841
18000W        W86229   2.624   7.983   1.274
18001W        W86230  29.176   7.630   1.855
18002W        W86231   5.876  38.416   1.430
18003W        W86232  33.988  34.918   2.605
18004W        W86233  37.037   2.553  13.454
18005W        W86234  36.587   2.797  13.544
18006W        W86235   2.377  37.077   0.499
18007W        W86236  37.982   4.878   0.213
18008W        W86237  21.478  19.153  13.777
18009W        W86238  14.393  22.687  12.050
18010W        W86239   2.675  16.250   1.821
18011W        W86240  16.426  21.711   1.645
18012W        W86241  40.574  18.682  12.989
18013W        W86242  41.302  37.540  12.365
18014W        W86243  12.156  26.626   4.539
18015W        W86244  14.285  12.651   1.226
18016W        W86245  33.046  17.405  14.712
18017W        W86246  13.108  18.710  10.521
18018W        W86247   7.296  24.002   4.586
18019W        W86248  29.563   8.032  14.586
18020W        W86249  18.620  20.442  14.106
18021W        W86250  36.998  33.593   0.477
18022W        W86251  15.795  36.904  11.138
18023W        W86252  20.247  37.035   0.840
18024W        W86253  38.256  26.264  13.401
18025W        W86254  38.434  15.628  10.980
18026W        W86255  24.516   0.040   0.890
18027W        W86256   5.932  17.287   3.214
18028W        W86257  26.685  19.751   2.885
18029W        W86258  26.017  11.396   1.958
18030W        W86259   6.598  33.273  14.936
18031W        W86260   7.294  23.292   1.733
18032W        W86261   5.271  25.606  10.597
18033W        W86262  18.579  42.070  13.424
18034W        W86263  17.585  10.569   2.337
18035W        W86264   5.610  11.757   2.695
18036W        W86265  44.151  23.060  14.396
18037W        W86266  40.680  15.697   0.781
18038W        W86267  27.592   6.242  12.954
18039W        W86268  20.331  36.920  11.996
18040W        W86269  22.200  39.131  11.820
18041W        W86270   0.034  29.522  13.365
18042W        W86271  22.651   9.168   3.237
18043W        W86272  15.989  26.107  12.258
18044W        W86273  31.162   5.366  14.578
18045W        W86274  41.740   0.411   1.909
18046W        W86275  44.770  19.015   0.787
18047W        W86276   9.193  11.429   3.225
18048W        W86277  44.524  22.814   5.042
18049W        W86278  32.433  29.055   4.597
18050W        W86279  34.900  24.552   4.362
18051W        W86280  15.198   4.685   4.878
18052W        W86281  27.516  44.946   0.458
18053W        W86282  24.260  22.851  12.121
18054W        W86283   4.484   4.400  11.701
18055W        W86284  32.165   1.394  11.075
18056W        W86285  31.694  41.810   2.455
18057W        W86286  19.630  15.218   1.273
18058W        W86287  21.761  16.701   3.673
18059W        W86288  44.318  32.870  11.089
18060W        W86289   7.969  41.415  11.773
18061W        W86290  42.900  28.005   2.317
18062W        W86291  11.166  25.656  11.924
18063W        W86292   6.457  21.057  11.195
18064W        W86293   9.692  17.603  13.420
18065W        W86294  44.375  42.079  10.562
18066W        W86295   7.252  39.942  13.240
18067W        W86296  10.360  22.530   2.239
18068W        W86297  31.480   9.175   3.708
18069W        W86298   1.378  32.115   1.432
18070W        W86299  21.173  21.044   1.975
18071W        W86300  44.045  30.955   1.417
18072W        W86301  23.027  43.294  12.624
18073W        W86302  27.636  14.136   0.221
18074W        W86303   3.383  20.046   1.833
18075W        W86304   9.143  27.948   3.374
18076W        W86305  27.172  37.108   1.032
18077W        W86306  21.115  35.848  13.456
18078W        W86307  21.214  27.968  13.306
18079W        W86308   1.383   0.751   0.977
18080W        W86309   9.888  43.918   1.947
18081W        W86310   9.482  12.569   1.046
18082W        W86311  34.617  37.857  10.786
18083W        W86312  19.458  28.168   1.760
18084W        W86313  24.266  42.684  14.166
18085W        W86314  18.586   1.870  12.332
18086W        W86315  15.171  21.114   0.802
18087W        W86316  29.862  12.817   1.067
18088W        W86317  30.791  23.982  10.608
18089W        W86318  22.506  25.637   3.533
18090W        W86319  17.959   9.009   2.586
18091W        W86320  26.068  11.933  11.187
18092W        W86321  22.160  32.123   2.161
18093W        W86322   3.961  17.275  14.665
18094W        W86323  36.003  31.545   2.423
18095W        W86324  36.297  44.335   9.946
18096W        W86325  30.469  42.023   2.063
18097W        W86326  23.718  33.456   2.757
18098W        W86327  32.958  21.189   2.371
18099W        W86328   1.512  17.213   1.891
18100W        W86329   5.835  14.617   4.098
18101W        W86330  32.472  15.098  11.165
18102W        W86331  20.767  23.294   0.382
18103W        W86332   4.574  33.981  14.929
18104W        W86333   7.232  10.786   3.868
18105W        W86334  39.986  33.517   4.800
18106W        W86335  38.856  13.035   4.136
18107W        W86336  28.880  14.255   0.667
18108W        W86337  24.475  19.996  11.133
18109W        W86338  22.617  44.379   0.717
18110W        W86339   0.858  25.043  12.111
18111W        W86340   8.734  36.425  11.411
18112W        W86341  14.957  19.748   4.418
18113W        W86342  33.995  31.150  10.613
18114W        W86343   1.142  26.553  13.017
18115W        W86344  21.041  42.395   4.074
18116W        W86345  40.583  14.625   0.835
18117W        W86346  13.521  14.484   2.774
18118W        W86347   8.201  11.211  12.895
18119W        W86348  29.950   7.131  10.753
18120W        W86349  12.884  42.426   3.376
18121W        W86350  27.475  23.248   1.413
18122W        W86351   0.402  44.206   2.386
18123W        W86352  43.479  24.800  12.597
18124W        W86353  41.049   7.462   1.409
18125W        W86354   2.818  31.406   4.293
18126W        W86355   1.801  18.090   2.254
18127W        W86356  32.426   8.431  11.560
18128W        W86357  10.478  17.662   2.787
18129W        W86358   1.263  34.385   4.034
18130W        W86359  22.313  24.981  10.652
18131W        W86360  22.038  17.638  14.427
18132W        W86361   1.765  44.244  12.960
18133W        W86362  39.423  30.504  11.178
18134W        W86363  38.311  18.281  11.975
18135W        W86364  37.362   4.700   0.844
18136W        W86365  15.075   8.368   1.807
18137W        W86366  22.151   2.813   4.407
18138W        W86367   6.377  13.873  13.781
18139W        W86368  26.944  33.845   0.466
18140W        W86369  21.435  12.359   4.221
18141W        W86370   2.921  40.420  14.039
18142W        W86371  26.677   0.286   4.504
18143W        W86372  30.388   0.446   2.071
18144W        W86373  34.052  18.276   0.874
18145W        W86374  30.210  27.616   2.462
18146W        W86375   7.311   9.828  14.477
18147W        W86376   5.014  16.356   2.716
18148W        W86377   9.572  16.010   2.409
18149W        W86378   6.581  19.777  10.361
18150W        W86379  14.607  33.413   1.373
18151W        W86380  34.862  31.396   3.269
18152W        W86381   4.892   7.704  12.070
18153W        W86382  38.515  44.120   2.859
18154W        W86383  27.642   1.333   1.357
18155W        W86384  30.875  29.969  10.966
18156W        W86385  13.418  22.199   2.816
18157W        W86386   0.774  16.119  10.913
18158W        W86387  44.724  24.051   1.330
18159W        W86388  18.093  27.995   1.890
18160W        W86389  14.583   0.045   2.834
18161W        W86390  32.123  21.762  14.712
18162W        W86391  38.999   6.959  14.852
18163W        W86392   5.545  20.325   2.040
18164W        W86393   6.694  36.037  14.555
18165W        W86394  29.312  27.083  14.440
18166W        W86395  12.135  34.433   2.497
18167W        W86396  16.607  44.733  12.242
18168W        W86397  35.368  36.459   4.641
18169W        W86398  43.355  19.270   0.455
18170W        W86399  35.504  12.577  11.198
18171W        W86400   7.344  16.047   1.684
18172W        W86401   1.974  41.797  13.038
18173W        W86402  33.158  10.688  12.985
18174W        W86403   9.618  24.776   1.397
18175W        W86404  19.156   8.931  11.115
18176W        W86405   7.155  27.416  12.080
18177W        W86406  38.364   4.666  14.876
18178W        W86407  27.069  21.956  14.814
18179W        W86408  35.098  23.915   4.132
18180W        W86409   0.013   0.370   4.565
18181W        W86410  29.095  32.852  11.918
18182W        W86411  36.605   2.778   1.769
18183W        W86412  27.452   8.161  13.889
18184W        W86413  25.747  23.905   0.780
18185W        W86414  37.271   7.312   0.987
18186W        W86415  33.128  15.459  13.144
18187W        W86416  38.889  22.650   2.267
18188W        W86417  17.661   0.510  11.173
18189W        W86418   5.122   6.245   3.659
18190W        W86419  31.718  33.413   0.785
18191W        W86420   0.889  18.596  12.540
18192W        W86421  36.702  38.666  10.324
18193W        W86422   9.340   7.520   4.129
18194W        W86423   2.315   9.818   3.191
18195W        W86424  38.071   9.754  10.729
18196W        W86425  43.075  11.895  11.143
18197W        W86426  38.909  43.241  14.912
18198W        W86427  44.758  44.410  13.811
18199W        W86428   0.627  29.993   1.450
18200W        W86429   8.332  42.098  12.542
18201W        W86430  16.492  40.988   1.247
18202W        W86431  38.812  28.905  11.551
18203W        W86432  41.223   6.802  10.768
18204W        W86433  10.269  25.109   4.551
18205W        W86434  19.587  26.462   4.583
18206W        W86435   8.640  41.474  14.389
18207W        W86436   8.935  18.162  11.538
18208W        W86437  16.001  31.274   3.067
18209W        W86438  17.471  20.163   0.506
18210W        W86439  25.574  25.023   1.821
18211W        W86440  34.387   7.762  14.911
18212W        W86441   9.156  35.142   0.915
18213W        W86442  27.554  10.444   3.436
18214W        W86443  13.222  12.250   0.786
18215W        W86444  44.760  33.036   3.718
18216W        W86445  32.679  29.594  10.653
18217W        W86446  42.369  15.673  14.477
18218W        W86447   4.208  14.752  10.682
18219W        W86448   2.360  20.053   1.580
18220W        W86449   9.857  22.633   3.664
18221W        W86450  25.437  42.346  13.060
18222W        W86451  32.475   4.660   3.167
18223W        W86452   1.352  18.129  10.739
18224W        W86453  39.851   8.505  14.462
18225W        W86454  44.320  39.295  13.980
18226W        W86455  15.741  27.746   2.194
18227W        W86456   0.840  25.399  12.548
18228W        W86457  33.734  33.525  12.688
18229W        W86458  22.651  27.517  14.370
18230W        W86459  27.169  16.540   4.303
18231W        W86460  17.223  19.507   4.370
18232W        W86461   5.491   5.232  11.145
18233W        W86462  26.444   1.996  13.132
18234W        W86463  30.723  26.637   1.590
18235W        W86464  27.672   9.642  13.908
18236W        W86465  37.265   3.908   4.553
18237W        W86466   3.391  14.944   0.153
18238W        W86467   5.233  23.907   2.785
18239W        W86468  36.483  14.122  11.008
18240W        W86469  13.368  44.966  11.950
18241W        W86470  27.128  42.681   1.694
18242W        W86471  40.737  28.151  11.523
18243W        W86472  29.021   2.207  14.874
18244W        W86473  33.476  14.158  14.672
18245W        W86474  42.065  11.015  11.499
18246W        W86475  39.247  27.773   1.865
18247W        W86476  22.566  38.469  13.894
18248W        W86477  41.061   3.065  13.496
18249W        W86478   2.505  18.782  12.978
18250W        W86479  27.030  30.961  10.873
18251W        W86480  22.223  26.437  11.920
18252W        W86481  27.895  22.129  14.026
18253W        W86482  23.569   4.745  14.573
18254W        W86483  30.543  19.547   3.462
18255W        W86484  38.349  31.666  11.997
18256W        W86485  16.546  20.332   3.910
18257W        W86486  17.154  40.331  11.469
18258W        W86487  28.574  33.603  14.319
18259W        W86488  25.019   2.369   1.847
18260W        W86489  13.223   3.362   5.346
18261W        W86490  15.274  37.287  14.517
18262W        W86491   5.670  41.818  11.475
18263W        W86492  31.975  14.951  10.048
18264W        W86493   6.827   0.710  10.916
18265W        W86494   1.776   0.764   4.495
18266W        W86495  36.981  42.527   1.736
18267W        W86496  44.185   1.796  13.609
18268W        W86497  43.489   2.926  13.987
18269W        W86498  41.828  35.127   0.869
18270W        W86499  23.215  42.887  12.906
18271W        W86500  43.797  16.526   1.809
18272W        W86501  31.380   7.774   3.449
18273W        W86502  40.197  25.732   1.107
18274W        W86503   0.839  15.093  10.708
18275W        W86504  25.056  15.522   0.529
18276W        W86505  17.274  27.451  12.123
18277W        W86506  19.306  26.967   1.549
18278W        W86507  44.109  41.823   1.623
18279W        W86508  27.269  28.928  11.111
18280W        W86509  29.993  23.056  12.645
18281W        W86510  28.461  41.227  11.178
18282W        W86511  24.573  23.790  11.944
18283W        W86512  18.775  43.357   1.519
18284W        W86513  15.224  10.258   4.077
18285W        W86514  43.246  32.656   5.027
18286W        W86515  13.198  41.300  12.037
18287W        W86516  14.226  12.873  14.759
18288W        W86517   9.626  23.507   1.301
18289W        W86518  25.235  27.084  10.646
18290W        W86519  42.624  27.162  13.026
18291W        W86520  29.167  35.384  14.074
18292W        W86521  24.658  20.372   3.117
18293W        W86522  17.392   1.346  13.802
18294W        W86523   9.072  27.286   3.846
18295W        W86524   2.031  41.446   4.653
18296W        W86525  40.951  39.175  13.285
18297W        W86526  21.317   0.237   2.656
18298W        W86527  40.375  12.753   3.270
18299W        W86528  19.581  33.991   2.285
18300W        W86529  29.536  32.541  10.891
18301W        W86530  30.586  28.738  13.758
18302W        W86531   1.771   1.932   0.676
18303W        W86532  30.105   9.764  11.264
18304W        W86533  23.444  21.738  10.637
18305W        W86534  21.023   3.824   3.789
18306W        W86535  40.332   7.989   1.905
18307W        W86536  38.292  35.390  11.464
18308W        W86537   3.457  37.037   2.807
18309W        W86538  31.343  39.899  13.973
18310W        W86539   9.799  36.491  13.153
18311W        W86540  10.159  39.803   1.274
18312W        W86541  32.565  31.487   4.494
18313W        W86542   4.342   5.668  12.586
18314W        W86543   8.060  33.372   2.849
18315W        W86544   0.775  31.139  14.298
18316W        W86545  33.209  43.414   3.650
18317W        W86546  41.877   6.646  10.784
18318W        W86547  37.328   9.161  10.311
18319W        W86548  31.542  23.979   4.757
18320W        W86549  38.221  16.067   2.453
18321W        W86550  39.503  31.699   2.714
18322W        W86551  30.408   0.160   1.083
18323W        W86552  36.560  34.964  13.124
18324W        W86553  13.829   9.896  13.275
18325W        W86554  42.373  20.035  11.540
18326W        W86555   6.765  12.151  11.573
18327W        W86556  21.630  14.674   4.175
18328W        W86557  44.899  36.459  10.744
18329W        W86558  28.276  37.208   1.305
18330W        W86559   4.589  14.988   3.502
18331W        W86560  18.810  39.765   0.950
18332W        W86561  43.912  16.501   2.847
18333W        W86562  15.102  31.216   3.144
18334W        W86563  19.269  41.552   1.434
18335W        W86564  25.651  27.889  10.451
18336W        W86565  40.414  39.357  14.356
18337W        W86566  20.732  15.488  12.420
18338W        W86567  11.796  40.295   0.742
18339W        W86568  25.734  24.171   3.098
18340W        W86569   2.958  15.142   0.383
18341W        W86570  25.016   4.728  11.266
18342W        W86571  38.075   5.937   5.389
18343W        W86572   8.785  24.491  14.304
18344W        W86573  10.472  25.453  14.008
18345W        W86574   0.501   3.221  12.788
18346W        W86575  42.906  29.063   4.232
18347W        W86576  25.427  30.934   3.561
18348W        W86577  41.794  40.523  12.891
18349W        W86578  28.874  31.384   3.649
18350W        W86579  23.444   2.571  14.748
18351W        W86580  25.700   5.711   4.068
18352W        W86581  29.555  19.882  10.429
18353W        W86582  17.902   8.191   2.212
18354W        W86583   5.446  12.761  14.871
18355W        W86584  17.746  13.592   0.988
18356W        W86585  14.441   9.850   3.113
18357W        W86586  29.122   0.012   1.335
18358W        W86587   3.402  12.311  10.702
18359W        W86588  22.156  42.921   4.535
18360W        W86589  21.117  29.531   3.640
18361W        W86590  19.293   4.124  13.433
18362W        W86591  11.887  18.773  12.421
18363W        W86592  18.678  32.451  12.914
18364W        W86593  34.455  30.856   3.987
18365W        W86594  32.544   8.662   3.649
18366W        W86595  40.381  15.957  12.515
18367W        W86596  29.686  44.446  10.758
18368W        W86597   5.931  20.161  11.086
18369W        W86598  44.690   1.096  10.649
18370W        W86599   3.779   9.552  11.090
18371W        W86600  13.411  34.531   0.933
18372W        W86601  33.940  38.652   1.786
18373W        W86602  22.624  29.930   0.487
18374W        W86603  21.288   0.842  14.856
18375W        W86604  23.758  13.791   2.354
18376W        W86605  28.687  14.821  13.977
18377W        W86606  39.388  24.922   0.350
18378W        W86607  11.787  21.607   3.953
18379W        W86608  39.009  41.100   3.430
18380W        W86609  19.566  35.352   0.857
18381W        W86610  17.675   1.318  13.299
18382W        W86611   3.986  33.844  12.018
18383W        W86612   0.019  10.064   4.119
18384W        W86613  15.894  13.065   0.428
18385W        W86614   0.418  16.338  10.609
18386W        W86615  19.834  37.333   4.620
18387W        W86616  10.586  11.742   4.378
18388W        W86617  42.256  26.841  11.924
18389W        W86618   9.424  21.147  12.572
18390W        W86619  18.813  24.060  14.452
18391W        W86620  11.103  43.874   4.546
18392W        W86621   3.656  39.590   0.972
18393W        W86622  18.667   0.808   2.591
18394W        W86623   4.451   3.773  12.266
18395W        W86624  19.859   8.434  14.365
18396W        W86625  43.409  17.884  14.135
18397W        W86626  38.182  27.699   1.382
18398W        W86627  27.422  39.996   2.894
18399W        W86628  37.286  28.518   2.211
18400W        W86629  22.961  38.837  13.847
18401W        W86630  17.233  25.491  12.115
18402W        W86631  39.184   8.911  12.064
18403W        W86632  42.843  42.533  13.855
18404W        W86633  37.873  33.074  12.019
18405W        W86634  41.006  42.071  13.938
18406W        W86635  16.635  17.465  11.970
18407W        W86636   8.726  24.475   1.666
18408W        W86637   2.308  21.075  14.259
18409W        W86638  39.365   6.858  12.052
18410W        W86639  34.167  30.516   2.723
18411W        W86640  42.069   7.795   4.797
18412W        W86641  39.352  38.827  13.021
18413W        W86642  44.403  33.140  13.419
18414W        W86643  33.484  40.599   3.406
18415W        W86644  24.022  37.938   1.311
18416W        W86645  30.230  17.981  12.527
18417W        W86646   8.415  14.612   1.436
18418W        W86647  29.650   3.190  14.043
18419W        W86648  39.758  27.799   2.874
18420W        W86649  25.701  36.531  12.050
18421W        W86650  30.917  10.448   1.299
18422W        W86651  20.432  42.912  10.333
18423W        W86652  34.351  23.533   0.294
18424W        W86653   4.892  38.123  13.746
18425W        W86654  41.854  44.243   3.222
18426W        W86655  38.429   8.828  13.867
18427W        W86656  20.078   1.811   3.700
18428W        W86657  11.872  36.080  12.997
18429W        W86658  41.049   8.270  14.246
18430W        W86659   9.339  39.012   9.976
18431W        W86660  28.447  19.053   3.089
18432W        W86661  11.237  15.586  12.834
18433W        W86662  17.997   4.285   2.667
18434W        W86663  22.960   5.532   2.341
18435W        W86664  30.975   9.166  13.495
18436W        W86665  29.119  36.894  13.368
18437W        W86666  13.589  33.842  12.597
18438W        W86667  42.083  24.024  11.113
18439W        W86668  29.625  11.471  10.754
18440W        W86669  27.075  23.256   3.247
18441W        W86670   9.346  37.048  12.866
18442W        W86671  20.513  43.394   1.913
18443W        W86672  32.593  17.172  13.906
18444W        W86673  43.867   1.187   3.215
18445W        W86674   8.704  20.070  13.615
18446W        W86675  12.559  26.518   1.903
18447W        W86676  37.006   6.178   4.527
18448W        W86677   9.536  19.798  11.211
18449W        W86678  42.981   7.111   4.612
18450W        W86679   2.897  17.837  14.169
18451W        W86680  23.635   5.995  12.136
18452W        W86681   2.398   9.209  14.829
18453W        W86682  22.925  27.372   3.596
18454W        W86683  43.475  38.217   3.591
18455W        W86684  44.477  35.649  13.470
18456W        W86685  36.958  43.085   1.659
18457W        W86686  25.285   5.174   2.576
18458W        W86687  23.700  14.237  14.844
18459W        W86688  26.672  21.975   3.876
18460W        W86689  27.412  36.280  10.751
18461W        W86690  27.880  27.710  10.873
18462W        W86691  20.971  34.599   4.265
18463W        W86692  17.473  44.928   2.706
18464W        W86693  23.561   0.958   1.285
18465W        W86694  14.715   5.316   0.862
18466W        W86695   4.643  42.277   4.564
18467W        W86696  25.757  41.957   3.165
18468W        W86697  33.797  33.160   1.211
18469W        W86698  32.172  16.861   1.155
18470W        W86699  33.677   2.429   1.853
18471W        W86700  32.262  16.218   3.997
18472W        W86701   9.429  31.347  11.657
18473W        W86702  17.837  20.562   0.647
18474W        W86703  34.843  13.316  14.295
18475W        W86704  13.475  31.608   0.530
18476W        W86705  34.843  19.225   3.681
18477W        W86706   9.768   1.861  13.259
18478W        W86707  20.054   6.269   1.018
18479W        W86708  24.604  11.554  13.549
18480W        W86709  28.506  41.851   1.782
18481W        W86710  36.398  10.811  13.945
18482W        W86711  29.506  43.725   4.424
18483W        W86712  22.130   0.014   4.112
18484W        W86713  31.957  14.379  11.268
18485W        W86714  31.207   5.360   2.345
18486W        W86715  42.691  30.585   3.043
18487W        W86716  21.296  29.841  11.660
18488W        W86717  27.997  27.081  13.270
18489W        W86718  18.699  32.370  14.716
18490W        W86719  43.978  19.799   4.117
18491W        W86720   6.449   2.042   4.813
18492W        W86721   2.269  40.000   1.946
18493W        W86722  20.480   3.290   2.811
18494W        W86723  41.466  17.540   4.651
18495W        W86724  35.754  25.608   2.824
18496W        W86725   4.977  31.463  14.550
18497W        W86726   3.317  15.095  11.177
18498W        W86727  15.370  14.191  14.944
18499W        W86728   9.070  40.168  14.766
18500W        W86729  22.587  35.879  10.664
18501W        W86730  40.528  26.873  13.422
18502W        W86731  18.134   2.892   4.972
18503W        W86732  18.757  20.299   3.658
18504W        W86733   8.973  25.425  12.161
18505W        W86734  23.536  43.866  14.724
18506W        W86735  30.972   1.755  14.399
18507W        W86736  10.341   6.111   1.552
18508W        W86737  28.115  10.201  10.753
18509W        W86738   1.632  37.412   4.933
18510W        W86739  38.463  32.050  12.988
18511W        W86740   8.643   9.759   4.759
18512W        W86741  20.127   8.855  12.958
18513W        W86742  36.483   8.108   3.600
18514W        W86743  18.127  30.569  14.021
18515W        W86744  39.567  18.505  10.652
18516W        W86745  34.908  34.793   4.098
18517W        W86746  10.200  39.048  13.411
18518W        W86747  11.303  42.541  12.274
18519W        W86748  14.687  38.659  14.334
18520W        W86749   7.479  27.683   0.017
18521W        W86750  44.550   2.352   2.832
18522W        W86751  18.340  20.224  13.258
18523W        W86752  16.114  15.849   3.632
18524W        W86753  26.789  38.876   4.532
18525W        W86754  35.913  44.779  13.888
18526W        W86755  14.316  25.434  12.880
18527W        W86756  16.727  18.638   0.600
18528W        W86757  14.294   1.858   2.492
18529W        W86758   6.895   0.223   0.377
18530W        W86759  17.698  34.103   0.392
18531W        W86760  11.771  19.331  13.815
18532W        W86761  32.363  20.294  10.971
18533W        W86762   5.129  30.870  13.457
18534W        W86763  15.558   4.368  13.005
18535W        W86764  10.868  20.346  10.582
18536W        W86765   3.226  10.626   2.124
18537W        W86766   4.246   1.777   0.282
18538W        W86767  37.849  37.623   2.465
18539W        W86768  33.872  38.804  13.920
18540W        W86769  35.248  12.252   0.471
18541W        W86770  36.585   8.732   4.284
18542W        W86771   1.519  38.955   2.235
18543W        W86772  32.481  41.747  10.743
18544W        W86773  43.907  44.364  12.772
18545W        W86774  20.998  34.329  14.413
18546W        W86775   8.164  10.566   2.305
18547W        W86776  24.049  30.082   1.503
18548W        W86777  40.829   6.799   0.742
18549W        W86778  37.043  12.550   4.113
18550W        W86779  37.113   4.767   1.416
18551W        W86780  43.428  29.321   3.563
18552W        W86781   8.198  23.699  14.258
18553W        W86782  35.388  32.836  12.101
18554W        W86783  16.581   6.329   3.650
18555W        W86784  25.948  44.060   3.647
18556W        W86785  17.315  14.149   1.419
18557W        W86786   2.224  35.396  12.529
18558W        W86787  28.127  20.020  11.470
18559W        W86788  10.979  13.243  11.928
18560W        W86789  33.119   7.228  13.811
18561W        W86790  19.200  37.889  11.430
18562W        W86791  35.084  34.926   0.440
18563W        W86792   4.936  32.719  11.954
18564W        W86793  40.100   7.058  13.095
18565W        W86794  11.126   8.099   3.082
18566W        W86795  34.165  21.506   3.571
18567W        W86796  30.529   7.249   4.227
18568W        W86797  13.111  25.679   1.715
18569W        W86798  25.558   4.653   2.779
18570W        W86799  28.127  31.979   3.858
18571W        W86800  29.115  13.547   3.816
18572W        W86801  33.061   7.719   3.319
18573W        W86802   9.347  23.141   2.891
18574W        W86803  35.394  17.230  12.567
18575W        W86804   1.328  44.836   0.876
18576W        W86805  29.369  42.768  10.469
18577W        W86806  18.278   5.398  12.373
18578W        W86807   4.465  22.268  13.314
18579W        W86808  14.590  17.007   5.334
18580W        W86809  41.751  41.511   2.280
18581W        W86810  31.114  38.304   2.245
18582W        W86811   2.945  35.331   1.897
18583W        W86812  27.226  27.520   1.221
18584W        W86813  37.308  35.132   3.286
18585W        W86814   4.275  36.947  13.972
18586W        W86815   2.582   9.259  12.453
18587W        W86816  37.845  25.958  13.379
18588W        W86817  44.846  39.792  13.149
18589W        W86818  36.398  16.432   3.248
18590W        W86819  12.261  42.952   4.103
18591W        W86820   4.099  32.442  13.587
18592W        W86821  14.560  34.051  12.537
18593W        W86822  30.487  43.817  12.939
18594W        W86823   1.425  31.774   3.305
18595W        W86824  40.486  36.495  12.617
18596W        W86825  26.441   5.342   1.772
18597W        W86826  31.686   1.906  13.316
18598W        W86827   1.711  39.616   3.356
18599W        W86828  44.232  27.043   4.556
18600W        W86829  32.137   7.818  12.893
18601W        W86830  16.797   9.875   4.688
18602W        W86831  36.023  31.331   3.824
18603W        W86832   0.934  12.270   1.148
18604W        W86833  26.121  13.171   3.643
18605W        W86834  22.491  18.303  14.983
18606W        W86835  37.386  17.767   3.816
18607W        W86836   6.307  25.663   1.745
18608W        W86837  16.525   2.898  14.239
18609W        W86838  18.682   9.303   3.074
18610W        W86839  12.822   4.976   2.335
18611W        W86840   7.977  22.795   4.610
18612W        W86841  23.084  42.197   1.452
18613W        W86842  15.228  35.363   3.186
18614W        W86843  32.496  14.280   4.172
18615W        W86844  34.400  38.009   4.177
18616W        W86845   4.366   6.349  10.393
18617W        W86846   3.264  12.691  14.842
18618W        W86847  12.828  32.745  12.011
18619W        W86848   6.725  17.076   0.038
18620W        W86849  42.867  21.312   2.348
18621W        W86850  18.472   1.856  14.555
18622W        W86851  23.153  29.032  13.005
18623W        W86852   5.953  39.100  14.343
18624W        W86853  35.071  34.665  10.107
18625W        W86854   8.184   6.794   4.233
18626W        W86855  10.563  23.498   4.239
18627W        W86856  30.083  27.010   4.558
18628W        W86857   1.217  37.983   4.428
18629W        W86858  36.240   0.466  13.168
18630W        W86859  18.898  17.978   5.056
18631W        W86860  18.710  18.718   1.322
18632W        W86861  29.552  40.462   2.357
18633W        W86862  13.585   2.003  12.553
18634W        W86863   9.393   3.938   4.075
18635W        W86864  29.529   3.895  12.297
18636W        W86865  15.396  30.311   0.782
18637W        W86866  15.498  15.312   5.003
18638W        W86867  24.554  30.447  13.229
18639W        W86868   6.760  13.126   1.376
18640W        W86869  21.248   8.461  12.586
18641W        W86870  26.936   1.764   1.815
18642W        W86871   9.866  37.062   4.690
18643W        W86872  39.009  44.009   1.270
18644W        W86873   2.785   7.120  10.767
18645W        W86874  10.162  22.194  14.745
18646W        W86875  18.730  33.380  11.242
18647W        W86876  34.351  36.427   0.412
18648W        W86877  40.440  22.301  14.487
18649W        W86878  21.047  43.056   2.812
18650W        W86879  30.444  25.147   4.664
18651W        W86880  27.099   6.420   1.154
18652W        W86881  12.389  17.645  14.412
18653W        W86882  41.548  42.612   0.162
18654W        W86883  41.242  35.458  10.679
18655W        W86884   1.977  41.999  10.663
18656W        W86885  10.841  25.881  13.797
18657W        W86886  16.582   5.887  11.473
18658W        W86887  36.822  29.410   0.300
18659W        W86888  42.958   0.259  10.601
18660W        W86889  39.023  35.470   2.723
18661W        W86890  24.315  33.137  14.127
18662W        W86891  23.624  23.586  10.713
18663W        W86892  10.883  35.592  14.852
18664W        W86893  11.313  28.515   0.426
18665W        W86894  40.952  44.336  12.944
18666W        W86895  31.336  15.625  12.918
18667W        W86896  17.604  42.122   2.758
18668W        W86897  40.007  36.109  10.653
18669W        W86898  10.818  15.804   1.927
18670W        W86899  37.162  38.271   0.376
18671W        W86900   0.434   6.907  14.539
18672W        W86901  40.319  40.049   2.179
18673W        W86902  12.612  25.757   0.833
18674W        W86903  39.901  34.551  13.061
18675W        W86904  24.616   6.189   1.875
18676W        W86905  42.948  33.546  13.525
18677W        W86906  21.895  20.035  14.902
18678W        W86907  44.684   0.935   3.469
18679W        W86908  18.586  40.417  12.864
18680W        W86909   4.889  38.388  13.191
18681W        W86910  25.917  44.143   4.989
18682W        W86911   5.320  36.467   2.804
18683W        W86912  23.285  14.587  14.887
18684W        W86913  11.564  16.027   1.428
18685W        W86914   2.159   4.514   1.805
18686W        W86915   1.441  21.582   1.775
18687W        W86916  16.586  24.194   3.715
18688W        W86917  42.917  12.136   0.191
18689W        W86918  31.474  14.862  10.278
18690W        W86919  26.617   4.629   0.855
18691W        W86920  33.159  40.703  13.137
18692W        W86921  44.528   1.947  13.987
18693W        W86922   4.921  33.007  14.299
18694W        W86923   6.762  44.795  11.649
18695W        W86924  29.833  25.647  11.879
18696W        W86925   6.780  25.808   3.273
18697W        W86926  18.999  31.287   4.786
18698W        W86927   6.919   8.138   4.278
18699W        W86928  14.394  23.088   0.019
18700W        W86929   7.454  11.368   0.768
18701W        W86930   5.972  44.215  10.736
18702W        W86931  11.472  24.715   3.212
18703W        W86932  27.729   9.146  11.417
18704W        W86933  18.821  25.586   4.840
18705W        W86934   7.684  33.560   1.209
18706W        W86935  17.785  28.918   2.373
18707W        W86936   5.586  10.064   1.489
18708W        W86937  14.120   3.308   3.616
18709W        W86938   2.669  37.853   4.223
18710W        W86939  22.964  22.637   2.446
18711W        W86940  29.712  14.793  13.886
18712W        W86941   7.274  42.453   3.895
18713W        W86942  12.296   2.426  14.360
18714W        W86943  18.298  19.140  13.385
18715W        W86944  31.380  36.710  11.183
18716W        W86945  41.328  29.063  10.534
18717W        W86946  15.331  18.133   4.000
18718W        W86947   6.798   6.439   0.958
18719W        W86948   6.827   4.139   2.312
18720W        W86949  15.799  20.074   2.466
18721W        W86950  18.901  30.081  10.895
18722W        W86951  36.076  17.029  10.918
18723W        W86952  28.016   0.343  13.405
18724W        W86953   7.281   5.705   4.083
18725W        W86954  13.114  15.027   4.147
18726W        W86955  42.775   3.341   2.521
18727W        W86956  11.526  16.096   4.349
18728W        W86957  22.118  23.226   2.676
18729W        W86958  28.128  25.934  11.516
18730W        W86959  28.726  29.054  14.957
18731W        W86960  37.270  10.314   1.388
18732W        W86961   5.853  14.059   2.445
18733W        W86962  23.239  18.161   3.689
18734W        W86963   9.469  26.087   0.775
18735W        W86964  31.455  24.219  10.866
18736W        W86965  42.853  21.960  11.086
18737W        W86966  38.797   4.618   3.627
18738W        W86967  19.337  18.268  14.634
18739W        W86968  43.465  12.945   3.032
18740W        W86969  41.978  36.078   4.627
18741W        W86970  39.652   8.292   0.386
18742W        W86971  42.922  34.138   3.836
18743W        W86972  28.952  38.288   2.419
18744W        W86973   1.999   9.786   4.557
18745W        W86974  23.558   3.150  11.185
18746W        W86975  14.628  16.813  10.123
18747W        W86976  20.577  11.262  12.097
18748W        W86977   6.683   2.309   1.838
18749W        W86978  36.330  18.172   1.302
18750W        W86979  39.202   0.016   3.524
18751W        W86980  40.342  40.835   4.443
18752W        W86981   0.439  35.651   3.241
18753W        W86982  36.750  44.767  13.534
18754W        W86983  30.100  18.089   0.324
18755W        W86984  24.982  20.365   3.821
18756W        W86985  31.587  38.895  10.651
18757W        W86986  36.370  10.462   2.817
18758W        W86987  20.086  26.513  11.872
18759W        W86988  31.767  10.950   0.853
18760W        W86989  43.207   3.167   0.981
18761W        W86990  41.331   7.680  11.893
18762W        W86991  23.229  20.665  11.375
18763W        W86992  24.769   5.711   1.800
18764W        W86993   5.714   6.213  11.161
18765W        W86994  15.576  16.217  11.123
18766W        W86995  27.435  43.440   3.702
18767W        W86996   7.648  21.561  12.993
18768W        W86997   6.277  30.004  12.640
18769W        W86998   6.461  29.003   3.077
18770W        W86999  14.471   3.775  11.599
18771W        W87000  14.782   1.802   2.389
18772W        W87001  26.230  30.805   3.806
18773W        W87002  29.427  31.053   4.461
18774W        W87003  22.696   4.764  11.161
18775W        W87004  40.779  38.726   3.182
18776W        W87005  31.832  41.452  14.417
18777W        W87006   7.696  16.166   4.597
18778W        W87007   1.288  10.679  11.944
18779W        W87008  39.340   9.045   4.440
18780W        W87009   1.372  43.301   2.210
18781W        W87010   0.427   6.411   2.400
18782W        W87011  37.900  31.601   3.487
18783W        W87012  34.052  17.171   4.364
18784W        W87013  30.640  43.424   0.480
18785W        W87014  28.030  30.632  13.467
18786W        W87015  41.473  23.496  10.719
18787W        W87016   4.396   7.200  13.425
18788W        W87017   3.527   4.172  13.064
18789W        W87018   7.811  23.058  13.831
18790W        W87019  32.351  30.766  11.241
18791W        W87020   0.418  34.878   2.156
18792W        W87021  10.207  34.096   4.110
18793W        W87022  41.543   3.823  12.918
18794W        W87023  10.180  19.643  11.965
18795W        W87024  36.388   7.856  12.821
18796W        W87025  17.705  30.468  14.746
18797W        W87026  30.008  43.445  10.668
18798W        W87027  21.725  20.157  13.385
18799W        W87028  33.046  44.251  14.734
18800W        W87029  16.700  29.959  11.481
18801W        W87030  33.466  24.224   0.888
18802W        W87031  38.276  32.565   4.389
18803W        W87032  21.519   6.655  12.401
18804W        W87033   0.185  30.752   5.011
18805W        W87034  28.906  17.640   1.914
18806W        W87035   8.228  10.453  14.042
18807W        W87036  44.014  39.673  14.196
18808W        W87037  23.665  44.910   0.232
18809W        W87038  14.761  11.743   0.874
18810W        W87039  28.198  10.097   0.212
18811W        W87040  38.356  13.837   4.147
18812W        W87041  17.475   7.257  14.607
18813W        W87042  10.887  31.994  13.357
18814W        W87043  25.547  32.021  13.987
18815W        W87044  13.241  34.534   3.596
18816W        W87045  44.451  19.030  12.553
18817W        W87046  38.831   9.121  13.550
18818W        W87047   6.723  15.910   2.806
18819W        W87048  12.217   2.249   3.975
18820W        W87049  20.540  22.111   4.105
18821W        W87050  25.516  25.921   0.828
18822W        W87051  36.412   5.780  10.521
18823W        W87052   0.636  34.382  12.308
18824W        W87053  22.720  36.205  11.031
18825W        W87054  16.383   7.867   1.948
18826W        W87055  18.682  42.434   1.282
18827W        W87056  21.285  33.652   5.110
18828W        W87057   5.199   7.448  14.977
18829W        W87058   1.455   2.275  14.779
18830W        W87059   5.807   6.865   4.698
18831W        W87060  25.930  25.878   0.505
18832W        W87061  10.093  25.774   3.707
18833W        W87062   5.851   0.531   0.727
18834W        W87063  41.061  35.251   4.132
18835W        W87064  42.615  19.343  13.456
18836W        W87065  23.153  12.403  14.984
18837W        W87066  21.226  12.207   0.965
18838W        W87067  22.230   6.552   4.583
18839W        W87068   8.409  43.723   4.746
18840W        W87069  25.206   1.808   3.559
18841W        W87070  27.774   4.853   4.593
18842W        W87071  42.648  10.175  13.301
18843W        W87072   0.799  36.459  14.982
18844W        W87073   6.516  37.256   5.186
18845W        W87074  14.741  21.491  14.550
18846W        W87075  18.224  28.286  11.155
18847W        W87076  10.835  35.019  13.016
18848W        W87077  42.959  35.158   2.436
18849W        W87078  23.792  37.516   1.490
18850W        W87079  34.619  11.335   1.138
18851W        W87080  29.434   2.162   5.153
18852W        W87081   7.034  33.449   2.821
18853W        W87082  32.525   5.493   0.252
18854W        W87083   1.565   0.049   1.298
18855W        W87084  36.329  39.405  11.219
18856W        W87085  14.715   9.665  13.827
18857W        W87086  32.729  19.384   5.473
18858W        W87087  18.809   3.895   0.324
18859W        W87088  14.891  36.876   1.863
18860W        W87089   1.541  21.562   3.350
18861W        W87090  21.613  18.086   0.304
18862W        W87091  17.234  31.895   4.277
18863W        W87092  39.856  14.780   1.817
18864W        W87093   7.825   6.104  13.058
18865W        W87094  35.893  39.306  11.660
18866W        W87095   8.411  12.307   4.188
18867W        W87096   7.619   9.290   3.707
18868W        W87097  39.955  19.093   1.279
18869W        W87098  14.302  12.979  13.156
18870W        W87099  23.599  32.864   3.925
18871W        W87100  34.221  34.971   2.141
18872W        W87101  26.344  19.018   3.117
18873W        W87102  42.745  19.355   1.271
18874W        W87103  14.677   0.197   1.928
18875W        W87104  40.856  15.271  12.091
18876W        W87105   5.745  12.266   3.909
18877W        W87106  13.670  40.945  12.575
18878W        W87107  23.164   3.214   0.973
18879W        W87108  25.322  15.520   2.579
18880W        W87109  32.432  28.129  10.151
18881W        W87110   2.723  14.724  12.437
18882W        W87111   8.613   0.368   1.695
18883W        W87112  36.299  37.982  11.101
18884W        W87113  39.562  41.323   1.768
18885W        W87114  21.161  20.127  10.496
18886W        W87115   5.794  16.280   2.330
18887W        W87116   0.373   4.259  14.797
18888W        W87117  38.592   0.265  13.556
18889W        W87118  15.712  22.301   2.304
18890W        W87119  17.814  36.468   0.764
18891W        W87120  38.639   1.761   3.591
18892W        W87121  28.073  40.615  12.512
18893W        W87122  35.291   2.491   3.634
18894W        W87123  16.648  28.443  11.639
18895W        W87124   2.344  11.683  14.809
18896W        W87125  19.481  21.102  12.836
18897W        W87126   7.760  18.656   2.378
18898W        W87127  10.311  26.443  11.214
18899W        W87128   6.268  42.261   3.303
18900W        W87129  15.699  13.833   1.682
18901W        W87130  17.114  11.087   3.853
18902W        W87131  20.155  17.301   3.798
18903W        W87132  16.493   9.164   0.493
18904W        W87133   8.367  43.438  12.737
18905W        W87134   6.979  19.695   4.044
18906W        W87135  40.462  43.791   1.448
18907W        W87136  42.783  43.665   1.397
18908W        W87137   6.222  13.985  12.746
18909W        W87138  19.195  43.281  10.764
18910W        W87139  33.113  41.805  12.813
18911W        W87140  19.998  11.224  10.849
18912W        W87141   6.170  32.731  10.151
18913W        W87142  21.244  22.424   4.240
18914W        W87143   2.545  11.842  11.564
18915W        W87144  34.429  40.484  12.391
18916W        W87145  37.086  41.709   1.347
18917W        W87146  27.943   3.925   3.124
18918W        W87147  11.646  38.615   3.896
18919W        W87148  35.987   2.705  14.085
18920W        W87149  18.051  35.615   1.780
18921W        W87150   8.259  18.612   3.317
18922W        W87151  32.520  37.856   2.317
18923W        W87152  42.557  25.873  12.935
18924W        W87153  32.997  31.950  14.001
18925W        W87154  41.272  13.825   0.981
18926W        W87155  38.864  14.341  13.488
18927W        W87156   7.875  25.893   4.161
18928W        W87157  26.093  29.622   2.679
18929W        W87158   4.518   7.644  11.622
18930W        W87159   4.181  17.831   3.221
18931W        W87160  12.301   0.767  14.950
18932W        W87161  20.002  37.054   0.385
18933W        W87162   6.826  15.874  13.476
18934W        W87163  16.772  25.089  14.955
18935W        W87164  23.221  17.485  14.638
18936W        W87165  38.087  28.968   2.292
18937W        W87166  43.441  21.003   1.151
18938W        W87167  17.672   0.552   4.086
18939W        W87168  12.436  33.571   3.415
18940W        W87169  27.768  38.557  14.437
18941W        W87170  22.702   0.346   3.334
18942W        W87171   6.453  14.180  10.731
18943W        W87172  23.899  35.465   0.468
18944W        W87173   0.313  15.962   1.169
18945W        W87174   2.842  38.342   9.752
18946W        W87175  36.844   1.441  11.984
18947W        W87176  44.210   0.521   4.067
18948W        W87177   8.891  34.382  11.769
18949W        W87178  20.490  18.107   3.147
18950W        W87179  29.429   0.360   3.715
18951W        W87180  37.927  44.065   1.238
18952W        W87181  35.960  35.433  14.029
18953W        W87182  16.218  40.236  11.409
18954W        W87183  29.727   2.703   3.208
18955W        W87184  28.557  40.796  10.914
18956W        W87185  27.232  26.161  12.483
18957W        W87186  11.867  10.160   0.528
18958W        W87187  36.516  43.215   3.275
18959W        W87188  18.276  44.107   3.508
18960W        W87189  33.522   2.188  11.061
18961W        W87190  19.184  16.863   2.641
18962W        W87191   6.407  25.478  13.964
18963W        W87192  11.712  21.980   4.723
18964W        W87193   1.841  25.265   1.258
18965W        W87194   0.852   0.386   2.300
18966W        W87195  32.205  39.938  11.980
18967W        W87196  37.534   5.295  11.767
18968W        W87197  21.146   3.157  13.955
18969W        W87198  42.913   1.945  12.417
18970W        W87199  27.671  11.213   2.396
18971W        W87200  42.820  33.931  14.872
18972W        W87201  40.122  20.994   3.340
18973W        W87202   6.127  19.478   1.523
18974W        W87203  44.623  18.051  12.923
18975W        W87204  36.774  17.789  12.489
18976W        W87205  13.187  11.302  13.604
18977W        W87206  11.144  13.628   2.353
18978W        W87207  30.391  14.191   3.759
18979W        W87208  16.532  43.873   4.258
18980W        W87209  37.915  29.477   3.076
18981W        W87210  38.011  18.519   4.181
18982W        W87211  37.058  22.184  12.493
18983W        W87212   7.710   0.816   0.596
18984W        W87213  28.688  38.358   4.729
18985W        W87214   7.431   4.211  13.975
18986W        W87215  16.723   4.193  14.829
18987W        W87216  23.963  28.721  12.647
18988W        W87217  19.309  12.284  12.208
18989W        W87218  20.587  32.679  11.644
18990W        W87219  20.063  20.506   2.905
18991W        W87220  24.720  35.942   0.327
18992W        W87221  43.265   9.292  12.340
18993W        W87222  41.391  41.378  12.860
18994W        W87223  20.083   9.765   2.381
18995W        W87224  40.952  39.502   2.935
18996W        W87225   9.110  25.758  11.792
18997W        W87226  15.880  16.816   2.194
18998W        W87227  19.225   1.229  12.095
18999W        W87228  28.961  23.016   3.985
19000W        W87229  33.940  17.788   2.829
19001W        W87230   0.810   5.336   2.505
19002W        W87231  28.132   1.090   1.361
19003W        W87232  12.573  15.729   0.396
19004W        W87233  27.615  31.801  13.773
19005W        W87234   3.393  12.647  12.937
19006W        W87235  26.573  42.537   4.689
19007W        W87236  43.359   5.878   3.224
19008W        W87237  26.266   7.935  12.554
19009W        W87238   8.501  44.277  11.526
19010W        W87239  44.022  33.921   2.148
19011W        W87240  12.756  23.523   0.252
19012W        W87241  40.809  38.918   1.775
19013W        W87242  20.975  19.691  14.762
19014W        W87243  17.142   2.590   0.703
19015W        W87244   4.635  16.747   0.888
19016W        W87245  16.539   8.052  13.106
19017W        W87246   7.907  31.053   2.778
19018W        W87247  23.374  44.065   3.152
19019W        W87248   8.706  21.762  12.007
19020W        W87249  12.584  10.892   0.395
19021W        W87250  29.260  18.688  14.234
19022W        W87251  15.221  44.559  13.332
19023W        W87252  13.582  41.462   4.523
19024W        W87253   0.749  36.346   2.393
19025W        W87254  10.710   1.569   4.497
19026W        W87255  35.430  29.317   3.621
19027W        W87256  13.145  22.561  13.473
19028W        W87257   7.784  22.255  12.500
19029W        W87258   6.640  16.100  14.725
19030W        W87259  14.553  25.710  10.194
19031W        W87260  13.245  38.900   0.335
19032W        W87261  29.204  12.288  11.041
19033W        W87262  11.287   9.084  11.964
19034W        W87263  30.209  19.747  14.973
19035W        W87264  19.722  16.207   4.420
19036W        W87265  14.128  34.614   3.218
19037W        W87266  24.458  25.083   0.739
19038W        W87267  19.820  42.239  10.720
19039W        W87268   7.259  41.558  14.024
19040W        W87269  33.568  32.206  12.370
19041W        W87270  37.611  20.965  12.565
19042W        W87271   8.950   8.929  11.580
19043W        W87272  32.524  28.311  14.463
19044W        W87273   5.318  30.209   1.752
19045W        W87274   6.620  43.513   3.482
19046W        W87275   8.695  27.951  11.675
19047W        W87276  25.163   6.711   3.075
19048W        W87277   9.645  40.293   1.284
19049W        W87278  42.036   7.792   4.274
19050W        W87279  41.289  11.631  13.657
19051W        W87280  33.134   5.874  13.583
19052W        W87281  28.965   3.254   2.858
19053W        W87282  31.511  39.688   2.290
19054W        W87283   5.161  34.502   2.003
19055W        W87284  38.149   1.290  11.932
19056W        W87285  28.344   7.794   4.011
19057W        W87286  28.186  18.168   0.443
19058W        W87287  35.009  42.685   5.174
19059W        W87288   7.944   1.539   2.785
19060W        W87289  26.805  23.417   0.712
19061W        W87290  32.800  16.415  13.338
19062W        W87291   5.988  18.475  14.491
19063W        W87292  10.714  19.975  12.601
19064W        W87293  11.737   6.324  11.410
19065W        W87294   0.968  42.511   2.108
19066W        W87295  12.402  36.028  13.079
19067W        W87296  10.688  29.117   1.164
19068W        W87297  23.230  18.534  13.351
19069W        W87298  20.800  27.845   4.880
19070W        W87299  27.062  31.958  14.324
19071W        W87300   7.352  39.559  13.963
19072W        W87301  35.367  43.484  12.617
19073W        W87302  27.720   5.960   0.751
19074W        W87303   5.292  35.695  13.192
19075W        W87304  18.708  23.894   2.817
19076W        W87305   6.838  18.097  13.431
19077W        W87306  19.477  27.923   3.244
19078W        W87307  19.912  22.522   0.266
19079W        W87308  18.272  28.404  14.386
19080W        W87309  11.587  36.161  13.449
19081W        W87310  39.913   9.140  11.550
19082W        W87311  17.696  12.149   4.378
19083W        W87312  39.480  12.274   4.251
19084W        W87313  17.164  37.133  12.933
19085W        W87314  17.030  37.142   0.403
19086W        W87315  36.296  13.144   4.884
19087W        W87316  21.568  30.292  11.523
19088W        W87317  44.042   6.687   0.176
19089W        W87318  31.343  43.814   3.880
19090W        W87319  41.364  36.561   1.460
19091W        W87320  39.808  14.844   4.898
19092W        W87321   8.844  21.693  13.465
19093W        W87322   2.381  21.078   1.937
19094W        W87323  10.348   4.176   2.786
19095W        W87324  22.714  42.845  12.767
19096W        W87325  26.118  13.096   2.088
19097W        W87326  12.728  12.962  14.021
19098W        W87327  12.373  41.067   1.380
19099W        W87328  27.418  32.323  11.966
19100W        W87329  44.320  20.732   2.779
19101W        W87330  28.285  37.056   4.084
19102W        W87331  42.086  16.720  12.270
19103W        W87332   4.317   1.465  13.453
19104W        W87333  29.966  12.285  12.199
19105W        W87334   4.347  40.932  11.992
19106W        W87335   3.753   0.341  14.217
19107W        W87336  14.614   4.602   3.323
19108W        W87337   4.187  25.161  11.459
19109W        W87338  34.758  40.289   4.974
19110W        W87339  14.294   3.558   3.178
19111W        W87340  42.812  43.040   1.311
19112W        W87341   6.915   0.723   0.331
19113W        W87342  22.368  27.092   0.549
19114W        W87343  36.845  35.978   0.782
19115W        W87344  29.071  44.809  13.104
19116W        W87345   1.876  39.053   3.703
19117W        W87346  37.401  11.175  10.575
19118W        W87347  16.334  37.772   3.400
19119W        W87348   0.516  37.422  13.439
19120W        W87349   3.685  14.658   2.479
19121W        W87350  27.610  26.398   2.310
19122W        W87351  21.126  34.353  13.515
19123W        W87352  31.976   1.174   2.500
19124W        W87353  38.410  41.876   0.812
19125W        W87354  41.780  26.909   3.179
19126W        W87355   9.183  43.037   2.338
19127W        W87356  41.441  44.979   1.929
19128W        W87357   8.047   1.111  12.687
19129W        W87358   4.885  38.489   4.469
19130W        W87359  26.482  43.563  11.643
19131W        W87360   3.353  44.310   0.690
19132W        W87361  32.877   5.475   3.170
19133W        W87362  38.541  12.114   3.879
19134W        W87363  28.251  20.618   4.608
19135W        W87364  42.490   6.385   3.142
19136W        W87365   3.230  37.538   4.758
19137W        W87366  32.212   6.886  11.437
19138W        W87367  17.306  34.032   2.236
19139W        W87368  13.695  31.411   3.889
19140W        W87369  19.620  25.666  12.095
19141W        W87370   7.664  26.238   4.738
19142W        W87371  29.461  37.455   4.569
19143W        W87372  16.769  17.163  11.569
19144W        W87373  25.801  43.911  12.021
19145W        W87374   5.934  22.168  13.443
19146W        W87375  24.173  20.303   2.296
19147W        W87376  21.706  37.145   3.373
19148W        W87377  43.569  35.255   4.175
19149W        W87378  43.983  30.854   3.376
19150W        W87379  30.453  37.622  11.521
19151W        W87380  20.775  44.440  14.353
19152W        W87381  23.268  14.786   3.712
19153W        W87382  23.102  34.336  14.697
19154W        W87383  38.466  35.834  14.057
19155W        W87384   1.530  23.989  13.993
19156W        W87385  41.449   2.674   3.684
19157W        W87386  40.645  10.764  12.539
19158W        W87387  39.118  28.548   4.502
19159W        W87388  39.958  25.140   1.735
19160W        W87389  21.182  33.658   1.472
19161W        W87390  29.470   6.836   4.430
19162W        W87391  20.715  17.526   2.235
19163W        W87392  37.388  43.822  12.912
19164W        W87393   5.278   1.431   1.566
19165W        W87394   6.628  34.549   2.635
19166W        W87395  28.340   0.978   0.369
19167W        W87396  20.922  32.819   5.282
19168W        W87397  15.149  20.229  10.617
19169W        W87398  36.133  38.496  11.156
19170W        W87399  44.301  32.089   1.178
19171W        W87400  22.351  30.018  12.535
19172W        W87401  12.656  31.575   0.867
19173W        W87402  15.991  20.834  14.463
19174W        W87403  37.381  15.248  12.478
19175W        W87404   4.948  37.414   1.437
19176W        W87405  24.943  11.115   2.483
19177W        W87406   0.028  22.659  13.393
19178W        W87407   0.325  27.552   0.451
19179W        W87408  33.657  20.619   2.376
19180W        W87409   1.685  13.746  13.616
19181W        W87410  44.951  36.754  12.028
19182W        W87411  38.443  33.602  14.860
19183W        W87412   2.884  17.098   2.235
19184W        W87413  26.431   4.936   4.279
19185W        W87414  44.437  12.488  11.537
19186W        W87415   9.090   0.895  11.065
19187W        W87416  36.224  33.135   1.282
19188W        W87417  11.159  12.919  11.152
19189W        W87418  41.910  31.980  13.575
19190W        W87419  31.058  30.231  11.645
19191W        W87420   2.960  17.678  11.560
19192W        W87421  41.580  29.542   3.244
19193W        W87422  11.104   0.979  11.461
19194W        W87423  19.625   0.179  12.786
19195W        W87424  20.403  20.485  14.102
19196W        W87425  33.404  17.766   1.929
19197W        W87426   3.293  11.527   4.544
19198W        W87427  40.744   4.230  13.038
19199W        W87428  21.944   2.657   1.315
19200W        W87429  26.652  12.797  12.386
19201W        W87430  12.621   9.289  12.846
19202W        W87431   1.808  34.243   4.106
19203W        W87432  17.746  27.288   1.369
19204W        W87433  40.813  30.455   2.590
19205W        W87434  17.376  37.937  13.175
19206W        W87435  33.546   3.505   2.278
19207W        W87436  19.245  39.573   2.922
19208W        W87437  13.454  22.337  11.320
19209W        W87438  16.596  21.555  13.459
19210W        W87439  40.061   2.479  12.439
19211W        W87440  12.131  15.180  14.870
19212W        W87441  36.875  23.272  14.888
19213W        W87442  14.755   7.107   0.900
19214W        W87443  25.222  41.564   0.941
19215W        W87444   3.190   2.302   1.161
19216W        W87445  30.343  13.292   4.778
19217W        W87446   4.958  16.095   3.207
19218W        W87447  25.838  10.693  11.683
19219W        W87448  40.142  33.123  14.321
19220W        W87449  31.631  30.499  10.643
19221W        W87450   5.773  29.663   3.683
19222W        W87451  29.194  38.329   0.939
19223W        W87452  25.168   6.387   4.626
19224W        W87453  25.088  11.104   0.292
19225W        W87454  17.111  13.103  11.614
19226W        W87455  43.749  27.585   4.655
19227W        W87456  35.938  17.716   1.501
19228W        W87457  32.797   3.316  12.136
19229W        W87458  19.276  19.374   2.516
19230W        W87459  40.146  43.056  11.358
19231W        W87460  37.580  17.103   1.635
19232W        W87461  37.593  19.191   2.883
19233W        W87462  33.415  27.695  10.694
19234W        W87463   9.219  28.401  13.863
19235W        W87464   4.183  25.948  11.885
19236W        W87465  17.626  40.094   4.106
19237W        W87466  37.904  25.965   2.951
19238W        W87467  18.715  44.269  13.906
19239W        W87468  19.268  27.806  12.034
19240W        W87469  10.000  12.697   3.227
19241W        W87470   0.766   1.278   1.731
19242W        W87471  36.054  35.591  11.149
19243W        W87472  43.977  18.414  11.058
19244W        W87473   2.309   9.334  12.013
19245W        W87474   4.919  26.739  14.964
19246W        W87475  38.334  13.838   0.034
19247W        W87476  10.727   1.338  11.326
19248W        W87477  43.862   3.538   4.076
19249W        W87478  44.724  18.839  12.967
19250W        W87479  21.707   6.152   0.607
19251W        W87480   2.955  21.487  12.475
19252W        W87481  11.910   9.820  12.129
19253W        W87482  43.976  24.751   1.364
19254W        W87483   4.514  15.193  11.232
19255W        W87484  19.641  13.391  14.454
19256W        W87485   8.194  38.350   0.453
19257W        W87486  43.694  19.178   3.430
19258W        W87487  32.680   5.471   4.331
19259W        W87488   1.264  27.598   3.930
19260W        W87489   2.800  30.248  12.847
19261W        W87490   4.691   4.840   9.996
19262W        W87491  20.134  24.612  11.627
19263W        W87492  40.837  43.732   0.229
19264W        W87493  19.727  11.356   2.022
19265W        W87494   8.807  38.112   2.434
19266W        W87495  44.920  18.033   3.777
19267W        W87496  23.039  30.134   3.803
19268W        W87497  30.080  24.125   3.234
19269W        W87498   0.866  18.646  11.134
19270W        W87499   1.984  27.820  12.036
19271W        W87500   2.853  24.255  12.457
19272W        W87501  34.910   7.844   0.689
19273W        W87502  40.893   6.991  13.990
19274W        W87503   4.799  24.097  11.603
19275W        W87504   7.157  15.626   1.444
19276W        W87505  11.273  38.982  12.422
19277W        W87506  33.562  30.456  12.784
19278W        W87507  17.824   2.638  11.575
19279W        W87508  16.552  31.392  11.649
19280W        W87509  28.816  21.656  14.198
19281W        W87510  41.091  28.951  10.994
19282W        W87511  10.222  34.570   0.012
19283W        W87512   2.996  41.296   4.830
19284W        W87513   3.211  39.910   3.618
19285W        W87514  24.268  15.757  13.835
19286W        W87515  25.148  40.863   3.840
19287W        W87516   2.023   7.647  13.923
19288W        W87517   2.798  34.615   2.340
19289W        W87518  29.390  38.524   0.040
19290W        W87519  16.155  22.521   3.589
19291W        W87520  13.871  21.710  12.028
19292W        W87521   7.258  28.617  13.976
19293W        W87522  17.589  22.661   2.309
19294W        W87523  39.542  30.125   2.721
19295W        W87524  36.073  21.847  14.764
19296W        W87525  39.676  11.798  10.731
19297W        W87526  20.250   7.327  11.683
19298W        W87527  36.728  22.544  13.543
19299W        W87528  43.731  11.685  13.210
19300W        W87529  10.303  18.984   2.082
19301W        W87530  30.152   3.665  12.168
19302W        W87531  27.269  12.293   1.716
19303W        W87532   1.558  18.190  12.958
19304W        W87533  11.324  25.272   0.749
19305W        W87534  18.120  11.419   0.794
19306W        W87535  35.040   3.416   1.308
19307W        W87536   9.567   3.854  11.480
19308W        W87537   5.978  19.085  11.018
19309W        W87538  35.550  34.007  11.572
19310W        W87539  27.509  39.517  13.556
19311W        W87540  27.528   6.479   0.764
19312W        W87541  37.850   6.093   4.926
19313W        W87542   4.419  39.287   3.156
19314W        W87543  33.437  25.499  14.492
19315W        W87544  44.762   2.465  12.435
19316W        W87545  28.067  42.973   4.631
19317W        W87546   8.894  16.797  14.035
19318W        W87547  36.876  18.084  12.897
19319W        W87548  18.056  19.268  11.965
19320W        W87549   7.471  39.623  12.265
19321W        W87550  35.156  37.611   3.365
19322W        W87551   7.205  34.872  14.818
19323W        W87552  42.940  19.809   2.290
19324W        W87553   3.395  25.497  14.421
19325W        W87554  23.621  24.216  13.895
19326W        W87555  43.728  17.074  14.414
19327W        W87556  32.884  41.463  14.380
19328W        W87557  35.431  37.380  10.746
19329W        W87558  41.055  39.777   1.897
19330W        W87559  26.417  10.723   4.664
19331W        W87560   9.381  29.675  10.558
19332W        W87561   9.192  15.664   4.072
19333W        W87562  26.789  37.905   4.370
19334W        W87563  15.230  10.725  11.249
19335W        W87564  28.208  32.914  11.208
19336W        W87565   8.828  19.958  14.937
19337W        W87566   1.245  44.347   3.690
19338W        W87567   6.753  22.223   4.156
19339W        W87568  22.412  44.840   3.118
19340W        W87569   1.663  29.127   3.790
19341W        W87570  27.684  35.004  10.262
19342W        W87571  14.102  42.631   1.007
19343W        W87572   9.378  38.055   0.949
19344W        W87573  41.878  30.935  13.865
19345W        W87574  33.873  11.241  11.117
19346W        W87575  42.926  12.304  12.028
19347W        W87576  17.301  11.874   4.171
19348W        W87577  36.903  32.463   3.543
19349W        W87578  19.739  10.870  11.107
19350W        W87579  42.266  20.986   3.701
19351W        W87580  13.021  42.232   1.770
19352W        W87581  31.749  11.920  11.095
19353W        W87582   2.767  12.525  13.596
19354W        W87583  36.208  19.081   2.342
19355W        W87584  30.084   2.673   4.165
19356W        W87585  10.639   2.276  13.566
19357W        W87586  31.366  29.580  12.611
19358W        W87587   1.504   7.200  14.767
19359W        W87588  36.550   7.343  11.490
19360W        W87589  12.898  10.721   2.138
19361W        W87590  34.963  41.536  12.745
19362W        W87591  16.190  33.618  11.993
19363W        W87592  27.278  38.733   1.698
19364W        W87593   9.845  13.068  13.007
19365W        W87594  36.504  35.301  11.134
19366W        W87595   1.265  41.490  12.565
19367W        W87596  43.734  31.650  13.008
19368W        W87597  18.304  37.448   3.685
19369W        W87598   6.786  30.953   2.062
19370W        W87599  19.670  23.073   3.415
19371W        W87600  43.438  30.965   4.637
19372W        W87601   8.124  26.004  13.624
19373W        W87602  42.723  15.744   0.866
19374W        W87603  35.121  28.434   2.762
19375W        W87604   6.906  33.402   0.817
19376W        W87605  30.939  14.753  14.382
19377W        W87606  14.831  27.163  13.886
19378W        W87607  42.552  24.583  10.558
19379W        W87608  14.087  38.321   2.724
19380W        W87609   5.856   5.719  12.522
19381W        W87610  36.098  36.582   4.270
19382W        W87611  39.350  34.538  10.764
19383W        W87612  31.825  39.411   2.659
19384W        W87613  38.947  40.978   1.034
19385W        W87614  22.574  40.604   3.700
19386W        W87615  43.652  12.795   3.890
19387W        W87616  13.851  35.431  10.916
19388W        W87617  28.614  22.707  13.346
19389W        W87618   3.329  16.914  13.897
19390W        W87619  22.230  24.162   1.764
19391W        W87620  14.670  41.768   3.855
19392W        W87621  43.339  13.004   4.394
19393W        W87622   1.782  33.410  14.974
19394W        W87623  25.464  17.266   2.238
19395W        W87624  35.055  13.133   3.188
19396W        W87625  38.054   6.733  14.778
19397W        W87626  19.286  23.081   2.909
19398W        W87627  26.188  29.213   0.932
19399W        W87628   4.285  42.779  12.322
19400W        W87629  40.303  27.629   3.585
19401W        W87630  29.652  13.543  12.458
19402W        W87631   4.658  11.341   4.177
19403W        W87632  21.586  35.590  13.367
19404W        W87633  21.370  22.566   0.388
19405W        W87634  44.257   5.151   3.676
19406W        W87635  34.917  38.416   2.796
19407W        W87636  32.455  40.756   2.293
19408W        W87637   3.219   6.459  14.782
19409W        W87638  40.072  22.538   4.150
19410W        W87639  16.049   7.450  14.993
19411W        W87640  36.349  19.737   1.786
19412W        W87641   1.050  15.285   1.380
19413W        W87642   8.423   9.149   3.097
19414W        W87643  39.296   6.177  12.688
19415W        W87644  16.186   2.851   4.560
19416W        W87645   6.854  30.233  12.055
19417W        W87646  23.930  15.451  11.563
19418W        W87647   8.836  15.678   3.164
19419W        W87648  20.588   0.757   2.869
19420W        W87649  27.653  13.158  11.049
19421W        W87650  23.628   0.839   2.619
19422W        W87651  25.385  26.114  14.877
19423W        W87652  16.465  39.471   3.687
19424W        W87653  12.527  27.483   4.555
19425W        W87654   9.721   1.917   3.179
19426W        W87655   2.139  23.526  12.396
19427W        W87656   4.262   6.756   2.097
19428W        W87657  31.473   8.300  14.838
19429W        W87658  36.325  10.520   1.314
19430W        W87659  42.499  39.834  12.925
19431W        W87660  28.383   9.594   1.597
19432W        W87661   8.294  29.915   3.846
19433W        W87662  27.352  25.353   5.036
19434W        W87663  21.174  24.971  10.716
19435W        W87664  13.092   3.159   3.323
19436W        W87665  32.572  23.745   1.358
19437W        W87666  22.357  39.813  13.261
19438W        W87667   6.220  14.208  10.006
19439W        W87668  20.740  24.611   4.552
19440W        W87669   9.248  26.262   0.309
19441W        W87670  17.648  24.377  12.121
19442W        W87671  26.966  35.854   1.214
19443W        W87672  18.648   2.393   2.340
19444W        W87673   8.246  12.768  14.246
19445W        W87674   4.518  34.438   4.076
19446W        W87675  27.503   9.140  11.871
19447W        W87676  26.709  44.976  14.528
19448W        W87677  44.969  14.799   3.145
19449W        W87678  20.620  14.049  13.999
19450W        W87679   5.441  14.405  12.494
19451W        W87680  21.576  25.957   2.826
19452W        W87681   9.398  13.683   2.458
19453W        W87682  25.434  17.910   1.683
19454W        W87683  11.231  10.946  14.431
19455W        W87684  35.861  28.099  12.825
19456W        W87685  11.631  38.194  14.737
19457W        W87686  30.090   1.474  10.714
19458W        W87687  28.419  44.369   2.137
19459W        W87688  44.693  13.660   3.744
19460W        W87689  36.395   8.835  10.211
19461W        W87690  17.343  44.424   4.451
19462W        W87691  11.186  39.769   0.308
19463W        W87692  30.138  38.804   1.407
19464W        W87693   4.729  25.422  14.463
19465W        W87694  16.587  41.472   2.888
19466W        W87695  24.235  22.312   0.334
19467W        W87696   5.968  41.433   3.647
19468W        W87697  37.355  34.344   0.941
19469W        W87698  29.983  42.529   1.917
19470W        W87699  25.820  40.224  14.806
19471W        W87700  39.887  41.093   3.713
19472W        W87701  29.906  28.409   3.213
19473W        W87702   6.710   2.140   3.910
19474W        W87703  19.790   6.731  13.881
19475W        W87704   1.707  18.611  11.069
19476W        W87705  13.870  26.927   2.644
19477W        W87706  22.982   3.779   2.773
19478W        W87707  43.796  32.610   3.247
19479W        W87708  37.102  10.270   0.249
19480W        W87709   1.663  30.956   3.808
19481W        W87710  27.922  44.959   2.319
19482W        W87711  16.090  12.371  13.103
19483W        W87712  11.674  43.104  11.090
19484W        W87713  39.874  12.414   0.811
19485W        W87714   5.626  31.588  12.056
19486W        W87715   0.979  36.115   3.166
19487W        W87716   8.819  23.560  12.140
19488W        W87717   0.996   6.156  12.066
19489W        W87718  31.547  40.981  14.491
19490W        W87719   8.189   9.928   4.296
19491W        W87720  18.916  18.804  10.204
19492W        W87721  25.697  40.935   0.730
19493W        W87722   0.914  14.804  13.621
19494W        W87723  17.175  22.211   3.256
19495W        W87724  11.808  36.306   2.090
19496W        W87725  44.697  20.671  10.899
19497W        W87726  38.074  44.710   4.228
19498W        W87727  17.572  41.009   3.682
19499W        W87728  21.720   2.750   3.185
19500W        W87729   2.977  10.197   0.416
19501W        W87730  26.630  14.317  11.750
19502W        W87731  39.518  28.634   1.911
19503W        W87732  20.068  23.925   0.280
19504W        W87733   2.789   7.991  11.577
19505W        W87734  29.537  36.324  14.681
19506W        W87735  25.697   0.467   2.093
19507W        W87736  19.240  23.286  11.601
19508W        W87737  40.841  21.396  13.566
19509W        W87738  42.421  28.165  14.626
19510W        W87739  39.468  31.424   3.154
19511W        W87740  43.609   6.864  11.993
19512W        W87741  18.129   5.486  10.968
19513W        W87742  21.589  39.105   1.093
19514W        W87743  15.415  22.731   2.411
19515W        W87744  13.469  30.250  10.750
19516W        W87745  11.087  13.634   0.884
19517W        W87746   1.917   3.479  12.961
19518W        W87747  27.538  14.609  11.342
19519W        W87748   0.425   3.428  11.793
19520W        W87749  20.431  30.830   4.821
19521W        W87750  14.879  42.275   2.962
19522W        W87751  20.457  21.080  12.495
19523W        W87752   7.965  24.772  12.433
19524W        W87753   0.273  23.749  12.073
19525W        W87754  22.737  39.972   4.676
19526W        W87755  15.254  13.079   1.763
19527W        W87756   3.842  34.550  11.547
19528W        W87757  37.271   1.426  11.683
19529W        W87758  16.828  24.767  13.622
19530W        W87759  37.109   5.453   4.090
19531W        W87760  21.456  32.044   2.183
19532W        W87761  17.269  18.787   3.714
19533W        W87762  43.948  31.090  11.260
19534W        W87763  25.728  18.000  12.931
19535W        W87764  31.510   8.714   3.480
19536W        W87765  29.552  13.338   1.199
19537W        W87766   5.735  14.679   3.227
19538W        W87767  22.194   0.318   0.728
19539W        W87768  22.496  18.679  11.348
19540W        W87769  21.738  40.801   4.283
19541W        W87770  10.927  19.475   4.497
19542W        W87771  23.156  44.919   1.206
19543W        W87772  25.233  15.802   1.354
19544W        W87773   5.767  17.501  13.098
19545W        W87774  40.739  35.933  11.183
19546W        W87775   1.680   8.347   4.117
19547W        W87776  20.319   4.752   0.448
19548W        W87777  19.672  15.840   1.434
19549W        W87778  29.122  40.216  11.521
19550W        W87779  10.219  21.755   4.098
19551W        W87780  15.641  20.206   3.337
19552W        W87781  26.238   2.305  14.439
19553W        W87782  36.848  39.572   1.261
19554W        W87783  38.006  40.022  11.665
19555W        W87784  29.141  34.074   2.840
19556W        W87785  17.334  34.561  13.866
19557W        W87786   8.670  35.096  14.638
19558W        W87787  40.746   9.245   4.581
19559W        W87788  27.236   3.168   3.659
19560W        W87789  37.276  18.736  10.602
19561W        W87790  11.633   1.473  14.757
19562W        W87791   7.403  38.880  11.054
19563W        W87792  34.577  26.993   2.830
19564W        W87793   0.906  18.969  12.982
19565W        W87794  24.693  14.738   4.913
19566W        W87795  25.614   8.526  12.919
19567W        W87796   4.444  26.999  13.920
19568W        W87797  39.972  21.664   0.304
19569W        W87798  24.926   3.289  11.484
19570W        W87799   0.005  42.464  12.763
19571W        W87800   8.599  33.212  12.570
19572W        W87801  35.509  40.268  13.942
19573W        W87802  17.313  23.129  11.112
19574W        W87803   4.767  15.804   0.928
19575W        W87804   5.230  11.522   3.650
19576W        W87805   0.365  15.281  10.939
19577W        W87806   0.980  37.075   1.804
19578W        W87807  36.468  29.901   4.893
19579W        W87808  36.576  15.293  11.884
19580W        W87809  32.629  36.844   2.664
19581W        W87810  29.858  42.024  10.784
19582W        W87811  33.352  25.328  13.131
19583W        W87812  32.502  12.309  14.354
19584W        W87813   4.723  10.180  12.593
19585W        W87814  10.714  34.721  14.906
19586W        W87815   2.809  40.889   2.265
19587W        W87816  19.014  31.369   1.192
19588W        W87817  12.688  25.183   4.368
19589W        W87818  25.527  27.744   1.332
19590W        W87819  10.706  36.129   0.720
19591W        W87820  19.140  36.474   5.717
19592W        W87821  18.034   2.174  14.684
19593W        W87822   8.849  16.445  11.224
19594W        W87823  43.902  36.172  12.811
19595W        W87824  26.066   7.785  11.212
19596W        W87825  34.845  12.335  14.326
19597W        W87826  43.786   5.471  12.225
19598W        W87827  42.137  22.287  10.605
19599W        W87828  41.319   3.798  13.921
19600W        W87829  20.112   8.247  11.320
19601W        W87830   2.618  36.432  13.020
19602W        W87831   1.165  23.704  14.811
19603W        W87832  10.003  11.079   3.642
19604W        W87833  28.161   5.740   4.250
19605W        W87834  24.580  37.559   4.947
19606W        W87835   5.237  40.861   4.664
19607W        W87836  34.522  14.065   2.622
19608W        W87837  20.491  20.263   3.411
19609W        W87838  13.922  33.135  12.996
19610W        W87839  31.950   8.859  13.760
19611W        W87840  20.748  31.027   0.375
19612W        W87841  41.974  21.089   2.270
19613W        W87842  13.468  27.879   4.222
19614W        W87843  19.617  10.818   1.896
19615W        W87844  23.281  36.505  14.096
19616W        W87845  19.548  43.043  14.031
19617W        W87846   3.735   7.168   1.547
19618W        W87847   3.462  37.817   0.579
19619W        W87848  16.279  13.300   3.629
19620W        W87849  38.011  37.313  12.682
19621W        W87850   3.417   5.772   1.893
19622W        W87851   9.831  38.343   1.291
19623W        W87852   8.656  38.613  13.383
19624W        W87853   5.435  24.160   4.146
19625W        W87854   8.053  41.783  12.123
19626W        W87855  26.026  16.218  13.715
19627W        W87856  10.270  21.567  13.505
19628W        W87857  44.899   0.286  13.840
19629W        W87858  43.020  32.926   1.616
19630W        W87859  44.071  42.831  12.004
19631W        W87860   0.457  20.287   4.152
19632W        W87861  29.927  26.074   4.520
19633W        W87862  15.360  28.841   5.216
19634W        W87863  44.390  22.230   3.682
19635W        W87864  25.871  43.431   0.354
19636W        W87865  27.714  29.955  13.251
19637W        W87866  27.549  38.291   4.546
19638W        W87867  36.584  38.032  10.616
19639W        W87868  41.557  29.205   4.619
19640W        W87869  12.226  44.018   0.482
19641W        W87870   0.767  25.172  14.174
19642W        W87871   3.415  13.549  12.779
19643W        W87872  31.961  40.114   0.907
19644W        W87873  31.448   9.912   1.744
19645W        W87874  44.540   4.203   2.601
19646W        W87875  31.463  29.040  12.453
19647W        W87876  10.350  41.377  14.312
19648W        W87877  24.921   6.293   4.159
19649W        W87878  27.807  19.267  13.413
19650W        W87879  44.337  42.993   2.131
19651W        W87880  44.903   7.139   3.093
19652W        W87881  18.726   1.412  14.441
19653W        W87882  19.066  37.665  13.929
19654W        W87883  10.710   5.013  11.629
19655W        W87884  43.057  24.548  10.631
19656W        W87885  44.870  26.737   3.711
19657W        W87886  25.163   9.219  11.998
19658W        W87887  32.840  27.449   2.635
19659W        W87888  41.011   2.015   4.709
19660W        W87889  38.641  15.677   1.603
19661W        W87890  22.262  41.902  13.854
19662W        W87891   8.403  11.569  11.126
19663W        W87892  25.976  27.623   2.607
19664W        W87893  34.994  31.213   0.372
19665W        W87894  18.408   7.251   2.238
19666W        W87895  33.816  35.242  10.149
19667W        W87896  43.034   5.989   0.896
19668W        W87897  28.187  33.123   1.914
19669W        W87898   0.236  31.586  11.028
19670W        W87899  23.323  22.537   2.811
19671W        W87900  25.264   2.914  11.422
19672W        W87901  17.743  43.845   0.402
19673W        W87902  30.291  21.989  12.534
19674W        W87903  25.391  18.943  12.115
19675W        W87904  34.938  26.458   5.019
19676W        W87905  20.618  21.078  13.515
19677W        W87906  27.983   9.547  12.784
19678W        W87907  27.659   0.694   3.804
19679W        W87908  16.738  35.833  14.039
19680W        W87909  23.873  16.616  12.218
19681W        W87910  42.280   9.990   0.463
19682W        W87911  14.511   9.195  13.963
19683W        W87912   5.317  19.814   3.335
19684W        W87913  36.299  10.328  14.928
19685W        W87914  41.623   2.642  11.053
19686W        W87915  18.679  26.705   5.041
19687W        W87916  31.624  32.355   4.126
19688W        W87917  36.470  35.340   4.658
19689W        W87918   0.760   3.686   1.315
19690W        W87919  14.673  43.497  14.403
19691W        W87920  40.965  22.550   0.745
19692W        W87921  29.905  28.559   3.701
19693W        W87922  28.398  15.193  10.487
19694W        W87923  15.988   6.641  14.503
19695W        W87924  14.634  10.812   0.363
19696W        W87925   5.643  22.966  11.102
19697W        W87926   6.343  33.054   0.770
19698W        W87927  13.244  36.358   3.839
19699W        W87928   7.492  31.151   0.735
19700W        W87929  27.097   3.861   0.348
19701W        W87930  17.222  24.229  11.857
19702W        W87931  27.793   2.966  12.498
19703W        W87932   3.259  16.966  12.491
19704W        W87933  41.697  15.558   1.674
19705W        W87934  24.985  21.295  12.402
19706W        W87935   4.463  34.079  14.437
19707W        W87936  22.962  10.813   4.611
19708W        W87937  28.029   2.491  12.531
19709W        W87938  23.080  29.776   4.176
19710W        W87939  15.644  44.741  14.532
19711W        W87940  35.275  14.646  11.130
19712W        W87941  36.506   7.250   3.700
19713W        W87942   5.384   3.266  11.636
19714W        W87943  29.041  34.603  10.164
19715W        W87944  37.903   5.248   4.674
19716W        W87945  21.603  16.258   0.725
19717W        W87946  14.767  32.646  10.553
19718W        W87947  28.191  34.982   1.353
19719W        W87948  20.752   2.407   0.966
19720W        W87949   3.730  41.363  13.522
19721W        W87950  26.338  18.447   2.316
19722W        W87951  31.312  44.277   1.847
19723W        W87952  10.733  28.674  11.096
19724W        W87953  38.213  26.673  14.908
19725W        W87954   6.158  16.688  13.391
19726W        W87955  26.035  40.290   2.270
19727W        W87956   9.018   3.321   3.355
19728W        W87957  13.468  22.300   3.660
19729W        W87958  16.729  28.051  13.409
19730W        W87959  40.354  10.591  13.914
19731W        W87960  35.042   7.274   1.577
19732W        W87961  44.611  18.108  12.155
19733W        W87962  38.813   0.939  14.750
19734W        W87963  24.139   6.009   1.173
19735W        W87964  41.260  38.197   2.581
19736W        W87965   9.544  20.562   3.989
19737W        W87966   2.300  39.838  13.470
19738W        W87967   0.864   3.568   4.181
19739W        W87968  18.508   5.986   1.686
19740W        W87969  35.077  41.228   2.865
19741W        W87970  26.993  27.653   0.771
19742W        W87971  10.307  23.216  12.786
19743W        W87972   8.415  30.799   1.061
19744W        W87973  33.470  43.486  12.420
19745W        W87974   6.746   3.824   1.497
19746W        W87975  17.185  32.652  12.858
19747W        W87976  25.087  26.798   4.219
19748W        W87977  31.820  18.315   4.304
19749W        W87978  39.453   7.151  14.683
19750W        W87979   6.727  31.347  14.951
19751W        W87980   3.275  41.470   1.810
19752W        W87981   1.662  25.487  11.623
19753W        W87982  14.249  31.177  11.174
19754W        W87983   9.194   4.547  12.633
19755W        W87984  12.343  30.418   0.293
19756W        W87985   5.301   7.914  11.175
19757W        W87986   1.553  19.319  14.499
19758W        W87987  19.265  24.457   2.063
19759W        W87988   7.936  24.588   1.434
19760W        W87989   9.199  11.962  12.853
19761W        W87990  30.074  15.792  11.845
19762W        W87991  12.858  32.486  13.354
19763W        W87992  28.448  32.530   2.449
19764W        W87993  30.669   7.266   1.838
19765W        W87994  21.082  19.120  14.909
19766W        W87995  24.691  41.259   2.749
19767W        W87996  10.024   8.651   5.005
19768W        W87997  27.953  15.640   3.679
19769W        W87998   5.933   4.787  13.404
19770W        W87999  22.737   9.758  11.181
19771W        W88000  40.423   9.982   1.640
19772W        W88001  16.230  37.437  14.465
19773W        W88002  31.041  24.188  11.149
19774W        W88003  42.050  11.587  13.385
19775W        W88004  19.080   8.326  13.975
19776W        W88005  38.785  36.136  11.135
19777W        W88006  28.849   0.898  14.462
19778W        W88007   8.088   7.164  13.851
19779W        W88008  33.779  24.172   2.384
19780W        W88009  32.898   7.233  10.709
19781W        W88010  32.412  35.935   2.678
19782W        W88011   0.844  39.121  10.610
19783W        W88012  33.043   2.406  12.143
19784W        W88013  30.718  29.776  12.898
19785W        W88014   7.453  22.137   3.568
19786W        W88015  26.154   9.753   3.321
19787W        W88016  13.127   7.327   3.689
19788W        W88017  25.996  41.094  10.750
19789W        W88018  13.607  33.349   2.363
19790W        W88019   6.273   4.431  14.898
19791W        W88020  32.696  17.173   0.009
19792W        W88021  25.580   4.525  13.585
19793W        W88022  30.399  33.592   0.350
19794W        W88023  40.436  44.865   2.346
19795W        W88024   5.925  20.808  11.637
19796W        W88025  26.644  43.043   4.691
19797W        W88026  30.640  16.316  11.409
19798W        W88027  17.693   3.447   2.790
19799W        W88028  36.092   2.722   4.184
19800W        W88029   1.859   2.698  12.561
19801W        W88030  20.653  11.618   0.824
19802W        W88031  23.211  35.491  11.169
19803W        W88032  13.176  20.812  14.988
19804W        W88033  14.158  22.763   5.011
19805W        W88034  20.787  44.698   1.384
19806W        W88035   5.558  32.589   4.447
19807W        W88036  23.675  38.406  14.735
19808W        W88037  20.111  41.100  10.110
19809W        W88038  12.273  26.977   2.452
19810W        W88039  34.459  10.862  12.147
19811W        W88040   9.223  39.340  11.824
19812W        W88041  28.268  42.635   4.261
19813W        W88042  28.380  37.531  13.200
19814W        W88043   1.793  31.335  11.868
19815W        W88044  15.321  30.400  10.713
19816W        W88045  25.611  19.591   1.161
19817W        W88046  22.137  25.645   2.872
19818W        W88047  32.206  35.811   2.219
19819W        W88048  20.694  15.473   4.620
19820W        W88049   4.678  14.423   0.938
19821W        W88050  12.874  38.299  11.107
19822W        W88051  31.162  12.015  13.489
19823W        W88052  19.770  24.632   1.235
19824W        W88053   8.276  11.870   1.727
19825W        W88054  25.194   1.524  12.451
19826W        W88055  28.102  43.529   2.157
19827W        W88056  21.524   8.471  12.118
19828W        W88057  16.174  21.179   9.462
19829W        W88058   0.194  22.149   1.787
19830W        W88059   9.121  27.566  11.052
19831W        W88060  37.723  10.507  14.384
19832W        W88061   7.000  18.252  11.927
19833W        W88062  16.128  26.217  11.634
19834W        W88063  34.179  28.552  12.034
19835W        W88064   4.294   4.832   3.692
19836W        W88065  44.071  12.123   2.041
19837W        W88066  26.551   4.817  10.045
19838W        W88067  33.624  26.468   2.696
19839W        W88068   8.423   9.861   0.342
19840W        W88069  27.117  41.726   1.895
19841W        W88070  40.491  19.353  10.363
19842W        W88071  35.451  43.119   2.980
19843W        W88072  26.660  11.845  11.546
19844W        W88073  29.102  33.824   0.516
19845W        W88074  19.260  37.957   0.957
19846W        W88075   1.327  18.712   2.791
19847W        W88076  17.988  38.359   3.394
19848W        W88077  27.606  30.251  12.822
19849W        W88078  33.765   3.827   4.932
19850W        W88079  19.203  27.429   4.553
19851W        W88080  18.322  28.169   4.079
19852W        W88081  44.021  10.778  12.859
19853W        W88082  21.112  18.226   0.406
19854W        W88083  34.871  40.621   0.339
19855W        W88084  20.573  32.017   4.579
19856W        W88085  19.545  39.569   0.009
19857W        W88086  18.630  35.868   0.917
19858W        W88087   5.745   5.714   1.158
19859W        W88088   9.632  28.936   2.811
19860W        W88089   0.307   8.676  13.111
19861W        W88090  33.742  10.110   4.981
19862W        W88091  35.563  43.047  12.978
19863W        W88092  16.277  17.029  11.659
19864W        W88093  23.240   9.117   2.848
19865W        W88094  25.191   1.280   0.763
19866W        W88095   8.938  23.840   0.873
19867W        W88096   2.151  44.961  12.693
19868W        W88097  29.693  37.411  14.837
19869W        W88098  32.822  38.444   1.128
19870W        W88099  36.004   6.685   9.878
19871W        W88100  43.020   5.973  14.137
19872W        W88101  28.590   7.688   1.253
19873W        W88102  42.823  11.732  10.723
19874W        W88103  23.654  12.109   0.864
19875W        W88104   8.254  11.749  13.998
19876W        W88105   4.002  13.665   0.735
19877W        W88106  21.775  44.414  11.239
19878W        W88107  13.316  40.731  13.936
19879W        W88108  27.370  34.997   1.788
19880W        W88109  40.891   8.317  13.263
19881W        W88110  22.529  41.830  11.732
19882W        W88111   7.295  33.206   1.119
19883W        W88112   9.921  30.500  14.258
19884W        W88113  36.118   1.884  11.094
19885W        W88114  32.955  13.113  14.786
19886W        W88115  33.961  29.041  11.991
19887W        W88116  37.976  40.064  13.944
19888W        W88117  12.237   4.332  13.396
19889W        W88118  30.150  43.440   0.702
19890W        W88119  10.728  35.939  11.683
19891W        W88120  15.207  35.063   1.377
19892W        W88121  18.294  15.298  11.588
19893W        W88122   2.396  44.424   3.139
19894W        W88123  36.999  16.626   4.567
19895W        W88124  17.280   8.802   4.606
19896W        W88125   2.933  17.082  12.913
19897W        W88126  25.400  44.710  11.375
19898W        W88127  17.523  11.101  13.598
19899W        W88128  16.021   7.244  12.735
19900W        W88129  31.097  41.783  14.907
19901W        W88130   0.338  17.381   2.804
19902W        W88131  39.127   4.453   2.200
19903W        W88132  36.996   7.373  11.216
19904W        W88133  42.986  25.710  12.704
19905W        W88134  36.484  42.412  10.596
19906W        W88135  34.665  30.651  13.947
19907W        W88136  11.172  29.164   4.898
19908W        W88137  33.538   1.973   2.641
19909W        W88138  42.734  39.793   2.968
19910W        W88139  42.652  37.219   1.263
19911W        W88140  31.102  38.048  13.840
19912W        W88141  26.476  19.061  14.814
19913W        W88142  34.178   5.362  12.030
19914W        W88143  16.741   8.549  12.973
19915W        W88144  35.651   0.545  11.925
19916W        W88145  41.239   1.560   0.286
19917W        W88146  23.762  42.793  14.330
19918W        W88147  36.029  38.347   4.503
19919W        W88148   9.297   9.002  12.096
19920W        W88149  37.477  19.660   4.778
19921W        W88150   1.520   2.379   2.299
19922W        W88151  32.961  40.645   3.291
19923W        W88152  22.250  20.205   3.750
19924W        W88153  43.630   2.499   2.655
19925W        W88154  15.157  15.160  13.996
19926W        W88155  29.297  23.955  13.487
19927W        W88156   8.910  17.128  13.459
19928W        W88157  30.001  42.527  11.076
19929W        W88158  37.933  36.328   4.617
19930W        W88159  14.802  12.746   0.896
19931W        W88160  22.571  16.184   4.847
19932W        W88161  15.077   6.739  11.188
19933W        W88162  17.034  26.888   0.199
19934W        W88163   9.105   3.163  13.143
19935W        W88164  40.404  24.113   3.434
19936W        W88165   7.732   1.986   1.862
19937W        W88166  20.608   7.297   0.757
19938W        W88167  11.015   5.182  11.241
19939W        W88168  35.427   4.123   3.138
19940W        W88169  39.858  21.334  13.820
19941W        W88170  16.338  43.589  14.336
19942W        W88171  41.712   6.128  10.301
19943W        W88172  43.501   1.845  12.902
19944W        W88173  40.969  35.128   1.094
19945W        W88174  14.708  42.942  11.697
19946W        W88175  14.743  27.301   4.235
19947W        W88176  22.611  30.977  12.860
19948W        W88177  42.862  23.891  12.895
19949W        W88178  36.833  19.678   1.946
19950W        W88179   9.650  39.254  11.569
19951W        W88180  39.270   5.775   2.816
19952W        W88181  32.199   5.628   4.134
19953W        W88182  16.020  31.850  13.252
19954W        W88183   5.729  34.965   2.493
19955W        W88184  44.174  20.603   4.652
19956W        W88185   3.805  21.481   0.395
19957W        W88186  22.489   9.648   2.299
19958W        W88187   1.848  19.742   3.798
19959W        W88188  30.710  12.093  13.754
19960W        W88189  17.857   4.307  13.811
19961W        W88190   9.178  20.089   0.291
19962W        W88191   4.014   9.446   2.715
19963W        W88192  17.179  14.205   0.178
19964W        W88193  20.763  19.966   4.599
19965W        W88194  25.953  30.128   4.223
19966W        W88195  32.051  17.337   0.711
19967W        W88196  28.213  22.410  13.226
19968W        W88197   1.890  13.759  12.067
19969W        W88198  31.550  10.701   3.640
19970W        W88199  21.746  25.030  10.686
19971W        W88200  41.566  19.241  13.502
19972W        W88201  16.434  10.882   0.657
19973W        W88202   5.260  33.996   2.159
19974W        W88203  10.958   2.453  12.426
19975W        W88204  18.732  13.782   3.760
19976W        W88205  37.425  31.988  12.084
19977W        W88206  17.174  30.472  14.342
19978W        W88207  24.010  37.931   3.707
19979W        W88208   4.845  20.771   2.418
19980W        W88209  28.334  27.272   2.274
19981W        W88210   5.539  40.020  13.203
19982W        W88211  42.366  35.338  12.861
19983W        W88212  33.336  15.630  11.533
19984W        W88213  17.571  11.883  13.054
19985W        W88214  30.675   0.905   1.417
19986W        W88215  37.860  34.736  12.597
19987W        W88216  31.597  38.473   4.544
19988W        W88217  24.917   6.236  12.878
19989W        W88218  11.936  14.145   0.534
19990W        W88219   6.284  20.117  10.682
19991W        W88220   9.193  20.627  10.947
19992W        W88221   2.447  15.244   1.730
19993W        W88222  41.906  31.812  13.080
19994W        W88223  11.187  18.168   1.876
19995W        W88224   5.946  16.823   1.307
19996W        W88225  22.616  35.914   0.249
19997W        W88226  39.771  41.394   4.596
19998W        W88227   8.364  11.033  11.188
19999W        W88228   9.774   4.777  13.917
20000W        W88229  31.111  23.455   1.509
20001W        W88230   0.657  37.979  11.092
20002W        W88231  10.166  10.680  13.396
20003W        W88232   0.957  36.795  12.113
20004W        W88233   5.305  36.503  14.514
20005W        W88234  11.133   5.328  12.902
20006W        W88235   4.991  39.898  14.069
20007W        W88236  35.927   7.714   4.162
20008W        W88237  44.002  16.311  14.982
20009W        W88238  32.914  11.701   3.854
20010W        W88239  41.496  12.996   4.188
20011W        W88240   6.302   7.236   1.879
20012W        W88241   4.432   8.733  12.876
20013W        W88242  18.553  22.232   2.184
20014W        W88243  13.870  19.216  12.435
20015W        W88244  29.498   4.409  12.073
20016W        W88245  20.661  23.496  13.515
20017W        W88246  20.601  25.930   2.836
20018W        W88247  22.138  39.684  14.367
20019W        W88248  42.893  11.994   4.468
20020W        W88249   1.413  44.444  11.088
20021W        W88250  27.680   1.671   3.715
20022W        W88251  20.741  43.839   1.771
20023W        W88252  26.448  28.366  11.277
20024W        W88253  13.899  17.258   4.949
20025W        W88254   8.962  27.735  10.607
20026W        W88255  20.570  16.668   2.289
20027W        W88256   6.653   9.704  12.787
20028W        W88257  32.346   0.895  11.057
20029W        W88258  33.330  19.168   1.767
20030W        W88259  36.585  13.748   3.636
20031W        W88260   5.921  37.349   3.943
20032W        W88261  10.319  28.544  13.390
20033W        W88262   3.527  17.356   5.129
20034W        W88263  29.499  19.028  13.889
20035W        W88264  23.406  11.612   1.172
20036W        W88265  28.644  36.324  11.015
20037W        W88266   7.374   0.019  11.944
20038W        W88267  25.406   4.662  14.428
20039W        W88268  35.851  44.908   3.236
20040W        W88269  10.489   0.208  12.489
20041W        W88270  25.151  36.519  14.664
20042W        W88271  25.227  14.832  12.625
20043W        W88272  37.510  44.738  13.049
20044W        W88273  15.755  11.147   1.708
20045W        W88274  29.077   9.805   0.378
20046W        W88275  42.727  14.798  10.795
20047W        W88276  20.971  11.893  12.289
20048W        W88277   1.293  31.892  14.031
20049W        W88278   5.108  24.281  12.496
20050W        W88279  41.090   2.805   1.173
20051W        W88280  13.699  44.327   2.270
20052W        W88281  27.387  22.085   0.788
20053W        W88282   9.186   8.157  10.697
20054W        W88283  32.409  11.517  13.107
20055W        W88284  19.133  36.177   3.280
20056W        W88285  29.755  11.592   2.698
20057W        W88286   3.375  43.472   4.842
20058W        W88287  33.569   7.681  14.522
20059W        W88288  14.938  14.463   1.324
20060W        W88289  23.169  17.319  14.130
20061W        W88290   0.586  24.620   2.420
20062W        W88291  28.402  30.913   4.304
20063W        W88292  29.159  28.006  11.967
20064W        W88293  38.215  33.263   9.823
20065W        W88294  39.017  30.551   0.273
20066W        W88295  30.525  29.798  14.826
20067W        W88296   8.676   8.985  10.734
20068W        W88297   3.170  30.342  13.778
20069W        W88298  37.299  41.866   1.805
20070W        W88299  26.770  16.211   0.481
20071W        W88300   4.456  28.692  14.494
20072W        W88301  16.455  44.281   1.307
20073W        W88302  38.284   8.652   3.270
20074W        W88303  10.136   7.864  11.630
20075W        W88304  35.659   0.865   2.407
20076W        W88305   8.459  43.557  12.249
20077W        W88306   5.117  17.635   3.195
20078W        W88307  37.044  11.671  12.519
20079W        W88308   4.984   3.360   4.933
20080W        W88309  37.966  30.414   1.283
20081W        W88310  26.703  32.391  10.661
20082W        W88311   5.879   4.938   2.555
20083W        W88312  37.381  42.359   2.006
20084W        W88313   6.515  38.228  13.066
20085W        W88314   5.986  41.868  11.084
20086W        W88315  22.481  36.021   4.572
20087W        W88316  12.067  44.954  11.564
20088W        W88317  43.608  40.284  13.394
20089W        W88318  17.849  25.765   3.654
20090W        W88319   6.281   8.175   0.361
20091W        W88320  28.928  38.413  11.532
20092W        W88321  25.923  23.318  14.122
20093W        W88322  17.225  26.996  13.954
20094W        W88323  40.407   2.439   3.605
20095W        W88324  24.703  40.823   1.447
20096W        W88325  40.866   1.488   1.862
20097W        W88326  32.009   2.835  13.624
20098W        W88327  38.793  29.017   1.884
20099W        W88328  20.228  32.840   2.780
20100W        W88329  41.522  35.265  12.534
20101W        W88330  14.646  12.920  14.421
20102W        W88331  25.194   9.195   1.859
20103W        W88332  11.484   4.279   4.235
20104W        W88333  19.622  11.447   3.741
20105W        W88334  19.324  38.071   4.388
20106W        W88335   6.274  41.381  13.839
20107W        W88336  28.706   6.490  11.050
20108W        W88337  42.786  41.479  13.157
20109W        W88338  27.043   0.906  13.293
20110W        W88339  20.046  23.509  10.187
20111W        W88340  19.748  19.236   4.635
20112W        W88341  44.783  26.828  10.564
20113W        W88342  31.838  40.999  14.909
20114W        W88343  31.070   1.069   1.769
20115W        W88344  22.032   0.730  13.369
20116W        W88345   1.883   3.400   0.301
20117W        W88346   4.218  13.164  14.896
20118W        W88347  35.756  35.555   2.786
20119W        W88348   1.639   4.321   3.404
20120W        W88349  32.408  33.139   1.505
20121W        W88350  29.660  12.806   2.791
20122W        W88351  29.210  17.090   3.555
20123W        W88352  30.918   9.973  12.825
20124W        W88353  37.795   9.032  10.168
20125W        W88354  27.561   4.068   0.417
20126W        W88355  23.598  44.274  12.084
20127W        W88356  10.618  43.820   0.533
20128W        W88357  32.432  36.873   2.203
20129W        W88358  13.235  15.847   1.881
20130W        W88359  42.409   9.809  13.593
20131W        W88360  39.761   3.274   1.882
20132W        W88361  36.446   4.227   1.170
20133W        W88362  37.597  31.107   2.703
20134W        W88363  31.852   3.135   4.267
20135W        W88364  43.968  35.362  11.163
20136W        W88365  22.066  24.333   4.447
20137W        W88366  15.024  11.937  10.698
20138W        W88367  29.743   8.785  14.778
20139W        W88368  24.377  35.545   0.661
20140W        W88369   0.790   6.990   1.630
20141W        W88370   9.166  17.693   0.285
20142W        W88371  44.019  16.118   0.811
20143W        W88372   4.654   5.264   0.301
20144W        W88373  34.171   3.000   2.720
20145W        W88374  26.645  17.498   2.196
20146W        W88375   7.411  22.476   0.027
20147W        W88376  34.440  24.179   1.687
20148W        W88377   6.431  26.588   9.837
20149W        W88378  12.258  19.237  14.516
20150W        W88379  19.277  26.834  14.404
20151W        W88380  24.338   0.381   0.041
20152W        W88381   7.031   9.326   1.406
20153W        W88382  40.426  21.693  13.401
20154W        W88383  27.152  15.090   2.859
20155W        W88384  39.065  32.949   1.008
20156W        W88385  26.435  10.803  12.508
20157W        W88386  44.849  42.107   4.658
20158W        W88387   1.340  20.308   4.029
20159W        W88388   5.799  19.119   0.829
20160W        W88389  44.456  24.894  11.547
20161W        W88390  43.983  36.331   1.391
20162W        W88391   8.680  41.068   2.601
20163W        W88392   1.916  39.626   1.867
20164W        W88393  12.264  20.765  12.447
20165W        W88394   8.336  24.379  11.501
20166W        W88395   0.449  19.983   2.742
20167W        W88396   9.715  31.667  13.064
20168W        W88397  11.583  21.017  11.980
20169W        W88398  42.781  31.325   1.437
20170W        W88399  33.700  36.525   1.323
20171W        W88400  30.529   1.354   2.607
20172W        W88401  36.155   2.981   1.818
20173W        W88402  22.090   9.757  11.955
20174W        W88403  33.687  11.230  11.976
20175W        W88404  34.248  24.341   0.421
20176W        W88405  24.771  13.308   3.064
20177W        W88406  32.023  15.274  11.906
20178W        W88407  40.723  16.144   3.251
20179W        W88408  19.044   2.648  12.434
20180W        W88409  39.842   5.175  10.438
20181W        W88410  43.232  37.442   2.127
20182W        W88411  27.695  30.693  13.054
20183W        W88412  34.872  44.428  12.258
20184W        W88413  23.755  31.542   4.131
20185W        W88414  32.542   1.395   0.055
20186W        W88415  21.736  18.081   2.738
20187W        W88416  17.130  29.929   1.731
20188W        W88417  40.023   3.453   4.429
20189W        W88418  43.989   1.964   0.919
20190W        W88419   9.919  27.500  14.919
20191W        W88420  18.195  43.850   2.624
20192W        W88421  12.832   4.245   4.850
20193W        W88422   9.942  16.237  13.521
20194W        W88423  25.129  43.893   3.368
20195W        W88424  35.909   3.512  12.288
20196W        W88425  37.543   7.251  10.757
20197W        W88426  14.037  25.805  11.610
20198W        W88427  28.123  12.455   0.971
20199W        W88428  18.985   1.016   0.396
20200W        W88429  39.462   1.026  12.016
20201W        W88430  39.638  29.487  12.952
20202W        W88431  15.182   2.847   0.511
20203W        W88432  25.436  28.391  11.175
20204W        W88433   6.762  28.707  13.855
20205W        W88434  30.659  16.764  13.606
20206W        W88435  36.416  44.590   0.181
20207W        W88436  26.013  33.990  14.946
20208W        W88437  18.521  20.574  11.544
20209W        W88438  20.706  16.265  11.995
20210W        W88439  14.671   2.864   0.756
20211W        W88440  43.442  25.514  10.998
20212W        W88441  10.695  38.227  10.725
20213W        W88442  42.306  22.930  14.878
20214W        W88443   3.906   6.872   0.357
20215W        W88444  11.454  13.800   4.506
20216W        W88445  10.688   0.114   0.720
20217W        W88446  20.576   7.958  11.276
20218W        W88447   7.422   3.332  12.011
20219W        W88448   2.095  20.939  13.777
20220W        W88449  19.775  19.058   0.874
20221W        W88450  28.050  10.906  11.359
20222W        W88451  22.566  44.082   3.674
20223W        W88452   6.132  16.234  13.082
20224W        W88453  26.879  16.040   3.146
20225W        W88454  16.397  34.391   0.801
20226W        W88455  40.358  38.455   3.931
20227W        W88456  37.921  33.927  13.861
20228W        W88457  25.802  15.499  13.087
20229W        W88458  36.775  41.774   4.232
20230W        W88459  27.645  36.138   4.296
20231W        W88460  11.138  13.837   3.244
20232W        W88461  16.578  13.080   3.239
20233W        W88462  24.962  18.107  12.985
20234W        W88463  38.894  42.386   2.405
20235W        W88464  28.512  31.551  13.845
20236W        W88465  26.075  12.434   3.139
20237W        W88466  36.442  17.158   4.690
20238W        W88467  44.425  28.298   0.799
20239W        W88468  12.606  40.796   1.751
20240W        W88469  28.181   5.385  11.422
20241W        W88470  17.830   9.276  12.160
20242W        W88471  13.722  26.977   1.474
20243W        W88472  43.440  37.406   4.189
20244W        W88473  29.510  30.550   2.747
20245W        W88474  27.407   2.331   4.538
20246W        W88475  35.321   9.312   4.336
20247W        W88476   9.569  27.125   3.898
20248W        W88477  20.552  36.836   2.727
20249W        W88478   3.839  30.934   2.325
20250W        W88479  16.662  34.541  12.001
20251W        W88480  34.837  29.627  12.783
20252W        W88481  14.796   9.043  11.113
20253W        W88482  28.687  39.412  13.040
20254W        W88483   6.361  36.656   2.812
20255W        W88484  10.802  28.015   9.904
20256W        W88485   6.189  12.001   3.785
20257W        W88486  36.629  39.201  14.866
20258W        W88487  44.602  44.713   2.011
20259W        W88488   2.910   2.282   0.299
20260W        W88489  17.321  44.178  10.264
20261W        W88490  43.810  25.313   4.527
20262W        W88491  18.687  41.789   3.720
20263W        W88492  10.635   7.198   1.852
20264W        W88493   2.417  21.512  11.489
20265W        W88494  29.437  27.907  13.868
20266W        W88495  11.648  14.297   4.626
20267W        W88496  29.560  25.443   2.107
20268W        W88497  16.242  20.836   1.365
20269W        W88498  39.510  25.430   0.285
20270W        W88499  19.327  33.846   1.424
20271W        W88500   3.537  42.398  14.916
20272W        W88501   8.729  35.600   0.171
20273W        W88502  24.502  17.276   4.551
20274W        W88503  13.282  17.827  14.707
20275W        W88504  26.623  25.251   0.174
20276W        W88505  10.869   3.858  10.999
20277W        W88506  19.757  26.620  14.502
20278W        W88507  30.423  25.027  13.042
20279W        W88508  21.040  30.659   0.118
20280W        W88509  39.593  26.534  13.646
20281W        W88510  36.615  35.567   3.178
20282W        W88511  15.628  16.248   1.369
20283W        W88512  40.491  34.126   1.785
20284W        W88513  39.242  23.172  11.529
20285W        W88514   6.187  30.663   5.072
20286W        W88515  20.181   9.281  14.261
20287W        W88516   0.385  36.087  11.921
20288W        W88517  21.964  37.431  13.061
20289W        W88518  40.390  13.920  12.019
20290W        W88519  10.256   7.132  12.639
20291W        W88520  41.472   4.929   2.440
20292W        W88521  28.637   3.764  12.863
20293W        W88522  27.988  43.108  13.461
20294W        W88523   9.883  42.032   3.549
20295W        W88524  37.170  32.112   3.874
20296W        W88525  38.493   6.912  13.522
20297W        W88526  16.632  10.928  14.704
20298W        W88527  19.375  35.589   1.365
20299W        W88528   9.841  13.971  11.739
20300W        W88529  13.564  20.377   9.952
20301W        W88530   2.820  11.086   3.761
20302W        W88531  41.031  30.102   4.576
20303W        W88532  11.741  41.651  14.431
20304W        W88533   1.980  13.869   1.980
20305W        W88534  29.422  19.748   3.618
20306W        W88535  36.036  14.774   4.939
20307W        W88536  22.146  36.699   4.095
20308W        W88537  14.879   7.605   0.833
20309W        W88538  44.498  30.954  11.868
20310W        W88539   7.994  29.469  10.464
20311W        W88540  31.617  15.344  11.170
20312W        W88541  29.322   0.690  12.903
20313W        W88542   4.672   9.306  10.932
20314W        W88543  35.656  40.794  14.762
20315W        W88544  10.691  40.112  13.822
20316W        W88545  10.936   6.730   3.303
20317W        W88546   6.571  10.123   3.775
20318W        W88547  27.476  37.465   4.365
20319W        W88548  30.008  37.895  10.880
20320W        W88549  15.379   8.803  10.678
20321W        W88550  26.725   7.188  12.572
20322W        W88551  18.340  41.407   3.721
20323W        W88552  33.594   4.801   3.287
20324W        W88553  40.288   5.579   4.858
20325W        W88554  41.442  17.292  14.320
20326W        W88555  44.785  31.845  13.904
20327W        W88556   6.367  27.067  11.643
20328W        W88557   3.498  41.306   4.983
20329W        W88558  25.422  36.689   2.545
20330W        W88559  40.941  29.375  14.236
20331W        W88560  15.286  17.178  12.076
20332W        W88561  42.050  35.918   2.227
20333W        W88562  42.562   6.050   1.401
20334W        W88563  18.005  29.236  14.682
20335W        W88564  32.013  25.229  13.480
20336W        W88565  23.401  28.101  11.185
20337W        W88566  35.962  23.155  10.733
20338W        W88567  26.567  23.788   1.563
20339W        W88568   7.628   5.676  12.866
20340W        W88569  19.436   7.796  12.543
20341W        W88570  33.653  20.656   3.359
20342W        W88571  32.184  42.372  13.829
20343W        W88572  12.900  13.825   4.524
20344W        W88573   0.532  19.236  10.804
20345W        W88574  28.022  44.461   2.490
20346W        W88575  13.673   4.362  13.447
20347W        W88576   7.278  35.361   1.788
20348W        W88577  26.516  40.407  10.830
20349W        W88578  38.023   4.340  14.429
20350W        W88579  39.841  25.638  12.422
20351W        W88580  28.537  27.234  14.766
20352W        W88581  10.578  11.460  12.893
20353W        W88582  44.005  20.673  12.018
20354W        W88583  37.085   5.700   1.359
20355W        W88584  40.824  16.706  10.716
20356W        W88585  41.247  24.571  14.416
20357W        W88586  10.857  16.877  13.123
20358W        W88587  20.517  39.352   3.633
20359W        W88588  13.641   1.029   3.240
20360W        W88589  10.447  18.217   4.156
20361W        W88590  40.945  20.717  11.691
20362W        W88591  23.257  41.767   3.584
20363W        W88592  31.396  26.474   3.099
20364W        W88593  44.054  23.638   2.301
20365W        W88594  30.629  23.928  14.840
20366W        W88595   0.069  34.629  10.902
20367W        W88596   1.931  14.244   2.353
20368W        W88597  13.947   5.352  11.510
20369W        W88598  33.825  34.887  12.561
20370W        W88599  14.100  39.299  13.881
20371W        W88600   4.361   8.267  14.843
20372W        W88601  39.448  12.269   3.321
20373W        W88602  29.948  40.772   0.283
20374W        W88603   5.591  41.584  12.468
20375W        W88604  30.443  34.513  10.681
20376W        W88605  25.098  19.434  14.546
20377W        W88606   5.857  44.324   4.162
20378W        W88607  26.616   2.972   2.366
20379W        W88608  18.545  12.476   0.959
20380W        W88609  36.945  24.440  14.918
20381W        W88610   2.961  18.783   4.789
20382W        W88611  25.475  28.012   4.669
20383W        W88612  44.241  15.390   3.682
20384W        W88613  26.109  39.420   3.794
20385W        W88614  34.867  44.923  12.366
20386W        W88615  44.759  25.078   4.706
20387W        W88616   9.336   0.508  11.431
20388W        W88617  36.757   9.114   0.804
20389W        W88618   8.225  35.465   4.245
20390W        W88619  44.556  31.004   1.488
20391W        W88620  20.589  26.609   1.013
20392W        W88621  37.912  30.968   1.307
20393W        W88622  10.166   5.324   0.393
20394W        W88623  39.902   7.912  12.381
20395W        W88624   4.497  38.947   2.312
20396W        W88625  29.587  10.266   9.892
20397W        W88626  13.337  15.542   2.326
20398W        W88627  35.704  41.780  12.527
20399W        W88628   6.405  21.794   1.925
20400W        W88629   2.951  36.144   3.062
20401W        W88630  19.948  38.589   4.225
20402W        W88631  31.499  18.055   2.991
20403W        W88632  35.171  19.774  11.759
20404W        W88633  20.414  38.816   2.497
20405W        W88634  44.900  11.637  12.538
20406W        W88635  41.344  29.357  11.155
20407W        W88636   4.564  16.596  14.346
20408W        W88637  29.632   8.091   2.266
20409W        W88638  41.531  30.138  14.963
20410W        W88639  39.484  33.505  13.157
20411W        W88640  29.877   6.435  11.207
20412W        W88641   5.827  23.033  12.017
20413W        W88642  13.303   1.649   3.231
20414W        W88643  39.302  44.520   2.490
20415W        W88644  11.066  40.333   4.035
20416W        W88645  41.347   3.420   1.005
20417W        W88646  39.431  30.927   3.098
20418W        W88647   1.933  25.421   1.793
20419W        W88648   2.319  20.587   1.737
20420W        W88649  36.503   1.811  11.984
20421W        W88650  33.512   0.150  14.003
20422W        W88651  34.153  29.654   1.874
20423W        W88652  10.004   2.379   3.182
20424W        W88653  44.471  28.986   0.369
20425W        W88654  12.313  36.271  11.669
20426W        W88655  29.446   2.771   2.294
20427W        W88656   6.643  31.853   4.124
20428W        W88657  13.235   7.871   3.711
20429W        W88658  36.233  12.872   0.474
20430W        W88659  25.267  15.956   2.295
20431W        W88660  23.714   5.925  11.253
20432W        W88661   7.915   0.369  11.921
20433W        W88662  21.679  21.304  14.240
20434W        W88663  17.517  34.941   1.288
20435W        W88664   6.480  37.799   4.565
20436W        W88665  44.955   8.716   3.191
20437W        W88666  16.198   3.941   1.151
20438W        W88667   9.190  44.939  14.349
20439W        W88668  32.955   7.337   0.379
20440W        W88669  18.578  39.919  11.694
20441W        W88670  15.739  15.245   3.684
20442W        W88671   2.710  28.443  13.763
20443W        W88672  22.209  43.532  14.393
20444W        W88673  19.497  44.776   2.022
20445W        W88674  38.608  33.710  12.794
20446W        W88675  31.649  26.517   0.503
20447W        W88676   7.757  30.260   2.588
20448W        W88677  39.972  44.440   0.048
20449W        W88678  44.911  36.558  13.202
20450W        W88679  22.723  34.423   3.662
20451W        W88680  37.471   6.300   0.862
20452W        W88681  33.865  31.541  13.537
20453W        W88682  20.213  22.458   2.786
20454W        W88683  20.941   9.544   4.179
20455W        W88684  40.921   1.920   0.997
20456W        W88685  14.202  12.668   0.250
20457W        W88686  36.549  40.215  14.913
20458W        W88687  35.084  16.354  12.554
20459W        W88688   8.583  41.990  13.443
20460W        W88689  18.856  28.506  12.637
20461W        W88690  25.577  14.591  12.989
20462W        W88691  15.414  11.589  11.529
20463W        W88692  29.117   8.233  11.170
20464W        W88693  34.588   8.559  11.566
20465W        W88694  41.145   1.721   2.864
20466W        W88695  20.099  10.710  13.803
20467W        W88696  15.160   9.631  12.017
20468W        W88697  22.359  27.033   4.171
20469W        W88698  18.109   5.944   0.843
20470W        W88699  22.204  19.052   2.664
20471W        W88700   3.856  30.400   2.430
20472W        W88701  12.246  31.303  13.386
20473W        W88702  24.669  12.364   2.728
20474W        W88703  17.188  36.964   2.365
20475W        W88704  22.958  43.680  11.794
20476W        W88705  11.578  34.382   3.242
20477W        W88706  29.763  28.277   4.154
20478W        W88707  17.271   2.276   3.179
20479W        W88708  35.582  11.576  13.004
20480W        W88709  12.327   9.703   3.177
20481W        W88710  14.236  32.073  14.534
20482W        W88711  13.115  22.248   3.279
20483W        W88712   0.776   3.379   3.690
20484W        W88713  23.760  18.208  14.543
20485W        W88714  20.544  28.146  14.888
20486W        W88715  12.445  22.564  14.819
20487W        W88716  14.326  12.369  11.929
20488W        W88717  17.218  28.989  10.336
20489W        W88718  41.995  20.257  12.526
20490W        W88719  41.250  36.826  14.293
20491W        W88720  28.001   0.469   0.838
20492W        W88721  10.657  10.957   0.804
20493W        W88722  35.590   3.312  10.264
20494W        W88723  32.328   3.013  11.150
20495W        W88724  42.426   4.324   3.627
20496W        W88725  40.702  21.036   4.052
20497W        W88726  17.278   0.312  14.275
20498W        W88727   7.320  21.999  14.741
20499W        W88728   1.825  19.697  11.403
20500W        W88729   0.263  11.764   4.682
20501W        W88730  23.203   4.114   4.000
20502W        W88731  14.240   9.882   1.153
20503W        W88732  20.681  17.421  11.134
20504W        W88733  35.386   8.439  13.254
20505W        W88734   4.681  23.181  11.083
20506W        W88735  17.659  22.292   3.164
20507W        W88736   0.897  21.154   3.217
20508W        W88737  22.671  10.089   0.343
20509W        W88738   1.316  20.319  10.663
20510W        W88739  19.097  33.057  12.040
20511W        W88740  12.318  37.055   3.309
20512W        W88741  27.893  21.147   2.343
20513W        W88742  10.070   0.802  11.167
20514W        W88743  28.033   1.282  14.609
20515W        W88744   7.596  13.241  13.815
20516W        W88745  18.114   8.919   1.706
20517W        W88746  21.264  19.121   1.802
20518W        W88747  30.104  32.576  11.785
20519W        W88748  21.067   6.132   2.317
20520W        W88749  26.794   9.307   3.833
20521W        W88750  18.766  21.796  11.522
20522W        W88751  42.751   3.351  10.672
20523W        W88752  42.576  14.840   2.792
20524W        W88753  11.252  21.611   1.180
20525W        W88754  19.190   3.554   1.176
20526W        W88755  14.319  23.926   5.475
20527W        W88756  17.729   1.040   3.919
20528W        W88757  12.832  29.574   0.473
20529W        W88758  31.602   8.398  10.472
20530W        W88759  44.841  28.489  11.560
20531W        W88760  14.653  22.273  12.612
20532W        W88761  33.621  26.429  11.672
20533W        W88762  37.813   0.586  11.600
20534W        W88763  41.064  11.153  10.713
20535W        W88764   7.641  34.046   3.311
20536W        W88765   8.238  25.791   1.750
20537W        W88766   1.298  39.035   0.241
20538W        W88767  16.605  18.299  12.921
20539W        W88768  13.588  16.717   4.595
20540W        W88769  10.030  11.294   2.256
20541W        W88770   0.962  23.760   1.430
20542W        W88771  41.663   6.779   3.047
20543W        W88772   9.277  39.790   3.241
20544W        W88773  34.124  13.744   2.426
20545W        W88774  13.077  42.490   0.335
20546W        W88775  29.038  19.538  11.435
20547W        W88776  37.273   8.536   4.053
20548W        W88777  17.282  23.276  13.583
20549W        W88778  32.346  38.811  14.806
20550W        W88779  29.257  24.514   0.415
20551W        W88780  42.716  21.651   4.072
20552W        W88781   4.466  36.087  10.665
20553W        W88782  12.455  41.961  13.889
20554W        W88783   3.913  16.809  11.111
20555W        W88784  31.509  42.479  14.959
20556W        W88785  27.527  17.079  11.182
20557W        W88786  31.542  35.507   0.797
20558W        W88787   7.418   8.294   2.688
20559W        W88788  21.001  26.513  12.318
20560W        W88789  43.249  17.401   3.711
20561W        W88790  41.767  21.534   0.046
20562W        W88791  16.740  23.138   2.486
20563W        W88792  18.527   2.972  13.268
20564W        W88793  34.462  36.248   2.696
20565W        W88794  43.848  33.048  10.707
20566W        W88795  35.419  28.169  14.954
20567W        W88796   0.442   1.780  14.343
20568W        W88797  17.342   1.415  11.176
20569W        W88798  42.919   4.874  10.545
20570W        W88799   2.708  30.228   3.443
20571W        W88800  15.882  36.919  12.051
20572W        W88801  39.273  34.017   4.689
20573W        W88802   9.766   1.413   3.585
20574W        W88803   7.837  10.674   1.371
20575W        W88804  18.546   1.712   4.170
20576W        W88805   3.203  25.916   1.764
20577W        W88806  16.289  39.450   0.297
20578W        W88807  36.997  10.018  13.900
20579W        W88808   7.742  34.819   0.688
20580W        W88809  22.982  38.558  10.812
20581W        W88810   5.758  15.833   0.666
20582W        W88811  44.726  40.313   0.458
20583W        W88812  19.067  20.674  10.673
20584W        W88813  17.679  27.636   2.756
20585W        W88814   6.694   6.072   2.392
20586W        W88815  14.935  32.389  13.013
20587W        W88816   3.947  10.200   1.695
20588W        W88817  41.578  26.607   5.014
20589W        W88818  43.819  28.670  11.154
20590W        W88819   2.988  29.970   3.791
20591W        W88820  38.427  41.787  11.080
20592W        W88821  34.079   2.893   4.558
20593W        W88822  34.858  29.190  13.404
20594W        W88823  18.186  17.233   4.473
20595W        W88824   7.085   9.723   0.728
20596W        W88825  16.553  43.277   4.888
20597W        W88826  35.746  27.459  11.184
20598W        W88827  44.211  18.922   2.772
20599W        W88828  32.955  39.281   4.535
20600W        W88829  12.289   1.997  13.585
20601W        W88830   2.263  40.715   4.204
20602W        W88831  23.965  23.137   1.640
20603W        W88832  31.039  17.246   0.447
20604W        W88833  40.856  13.147   1.511
20605W        W88834  44.330  42.738  13.348
20606W        W88835  26.363  19.269  11.020
20607W        W88836   3.409  12.854   0.332
20608W        W88837  20.756   3.516  12.020
20609W        W88838  43.737  30.143  14.291
20610W        W88839   5.007  41.730  11.087
20611W        W88840  31.971   9.864   4.334
20612W        W88841  24.108  15.518  14.419
20613W        W88842  44.905  28.544   0.782
20614W        W88843  21.977  13.257   1.525
20615W        W88844  43.945  15.529  14.009
20616W        W88845  28.207   4.371  11.071
20617W        W88846  13.702   8.701  11.924
20618W        W88847  37.046  21.183  13.272
20619W        W88848   7.101  30.474   3.780
20620W        W88849   7.138   2.718  12.498
20621W        W88850  32.586  10.866   4.658
20622W        W88851   2.827  44.666   4.552
20623W        W88852  19.897  40.482  14.355
20624W        W88853  32.946  23.966   0.873
20625W        W88854   5.260  40.043   2.499
20626W        W88855  36.913   2.689  14.793
20627W        W88856  21.005  43.440   3.618
20628W        W88857  34.947  36.073  14.405
20629W        W88858  22.106  15.330   3.789
20630W        W88859   1.246   8.059   4.153
20631W        W88860   9.869  12.608   3.716
20632W        W88861   4.782  19.134   3.355
20633W        W88862  11.727  10.052   2.274
20634W        W88863  38.068   1.626  14.495
20635W        W88864  28.893  13.748  11.154
20636W        W88865  30.877  17.463  11.388
20637W        W88866   9.607  28.710  12.012
20638W        W88867  20.574  26.449   4.818
20639W        W88868  26.176  12.056   1.416
20640W        W88869   8.735  26.665  11.764
20641W        W88870  31.568  33.641   3.689
20642W        W88871  33.269  34.060  14.111
20643W        W88872  33.893  44.163   2.448
20644W        W88873  34.326   6.996  14.006
20645W        W88874  34.438   0.171  11.111
20646W        W88875  38.375  30.754  11.955
20647W        W88876   5.334  23.144   4.738
20648W        W88877  11.269  36.887  14.680
20649W        W88878  30.657  20.293  11.487
20650W        W88879  34.551  26.637  10.921
20651W        W88880  44.363  19.603  14.858
20652W        W88881  30.296   9.111   4.218
20653W        W88882   9.336  42.456  12.090
20654W        W88883  25.001   3.896   0.404
20655W        W88884   8.953  15.459   4.820
20656W        W88885   2.497  44.965  14.546
20657W        W88886  34.010  28.592   2.280
20658W        W88887  43.485  17.368  11.518
20659W        W88888   8.598  37.769   2.786
20660W        W88889  30.399   2.308   4.691
20661W        W88890  23.579  35.673   3.627
20662W        W88891  32.373  18.304   1.226
20663W        W88892  12.710   8.750   2.860
20664W        W88893  44.950  16.739  11.708
20665W        W88894  12.123  11.170   0.363
20666W        W88895  33.034  15.409  10.694
20667W        W88896   2.563  28.619   4.492
20668W        W88897  19.309  43.243   4.620
20669W        W88898   3.929  27.780  13.593
20670W        W88899  15.872   6.468   2.351
20671W        W88900  17.262  38.886   3.341
20672W        W88901  18.946   9.719   2.956
20673W        W88902  30.833  12.394  13.327
20674W        W88903  14.814   2.762  13.394
20675W        W88904  14.555  32.675   2.368
20676W        W88905  38.133   0.977   1.912
20677W        W88906  40.839  25.191  10.714
20678W        W88907   7.171  38.806  13.983
20679W        W88908  42.444  41.503  10.451
20680W        W88909  34.700  43.336   3.216
20681W        W88910  30.587   4.864  10.905
20682W        W88911  30.887   6.637   3.247
20683W        W88912  23.990  29.594   1.746
20684W        W88913  34.793  44.698   0.743
20685W        W88914  21.547  40.388   2.866
20686W        W88915  18.231  19.567   2.970
20687W        W88916  11.409  32.275  12.451
20688W        W88917  20.307  16.185  11.307
20689W        W88918   2.048   2.890   4.632
20690W        W88919  25.471  33.506   3.843
20691W        W88920  44.325  41.574   0.412
20692W        W88921   6.342  16.844   4.577
20693W        W88922  16.229  20.323   2.658
20694W        W88923   9.431  35.390   1.388
20695W        W88924   1.852  27.003   4.534
20696W        W88925   3.971  42.988   3.220
20697W        W88926   6.358   3.033  11.468
20698W        W88927   4.689   0.757  13.329
20699W        W88928  38.616  39.567  12.795
20700W        W88929  32.689   5.483  14.348
20701W        W88930  23.716  22.206  14.752
20702W        W88931  34.902   3.932   2.837
20703W        W88932   4.836  42.423   1.269
20704W        W88933  38.486   6.676  13.021
20705W        W88934  39.537  41.901  11.400
20706W        W88935  42.886  20.760   4.553
20707W        W88936  26.406   0.034  13.963
20708W        W88937  42.839   7.794  10.693
20709W        W88938  19.360   5.132  14.791
20710W        W88939  23.170  20.493   1.899
20711W        W88940  22.366  13.289  13.847
20712W        W88941  34.144  38.046  10.654
20713W        W88942  41.708   5.887   4.595
20714W        W88943  41.453  32.571   1.003
20715W        W88944  14.773  37.342   1.655
20716W        W88945  35.871  25.410   4.640
20717W        W88946  31.049   7.378  11.975
20718W        W88947  14.999  29.666   4.075
20719W        W88948  31.125  39.975   1.638
20720W        W88949   9.968  40.011  14.304
20721W        W88950  43.798   7.866  12.623
20722W        W88951  20.437  19.948  12.882
20723W        W88952  17.738  10.835  14.046
20724W        W88953  16.218  22.348   1.260
20725W        W88954  24.453  42.309  12.892
20726W        W88955  26.125  25.142  10.555
20727W        W88956  28.292   9.347  12.452
20728W        W88957  31.852  12.171   3.082
20729W        W88958   0.342   2.267   3.139
20730W        W88959   6.142  14.729  14.340
20731W        W88960  42.789  14.264  10.750
20732W        W88961   4.355   6.284   2.288
20733W        W88962  19.756  37.817   3.693
20734W        W88963   4.198  23.780   4.537
20735W        W88964  14.504  39.549  13.056
20736W        W88965   4.275  34.358   4.547
20737W        W88966  18.256   1.150  12.171
20738W        W88967  19.723  24.798  11.895
20739W        W88968  38.721   1.696  12.937
20740W        W88969  37.257  36.987  12.837
20741W        W88970   7.666   8.720   3.275
20742W        W88971  17.514   6.739  14.464
20743W        W88972   4.314  16.565   3.152
20744W        W88973  42.061  20.205  13.609
20745W        W88974   2.126   9.888   0.279
20746W        W88975  14.745  34.684  13.482
20747W        W88976  44.547  44.058  14.707
20748W        W88977   3.747  17.618   0.710
20749W        W88978  23.643  15.103   1.140
20750W        W88979   8.667  29.370   2.311
20751W        W88980  41.463  20.699  10.594
20752W        W88981  23.620  22.992  12.428
20753W        W88982  26.944   7.303  12.125
20754W        W88983  35.486  33.188   4.746
20755W        W88984  28.126  25.109  14.422
20756W        W88985  19.153  22.352  12.880
20757W        W88986  28.717   3.497   3.258
20758W        W88987  42.495   0.497  14.063
20759W        W88988  19.451  27.708   2.750
20760W        W88989  21.938  30.231  13.464
20761W        W88990   2.401  13.212   4.041
20762W        W88991  24.647   4.857  10.739
20763W        W88992   3.633  13.646  14.356
20764W        W88993  24.134   0.966  14.442
20765W        W88994   0.744   3.738   0.379
20766W        W88995  31.700  12.811  12.550
20767W        W88996   3.465  21.070   1.339
20768W        W88997  23.144   0.684  13.804
20769W        W88998  26.750  30.371  13.490
20770W        W88999  30.538  20.035   3.321
20771W        W89000   6.078  25.829  11.172
20772W        W89001  41.020  38.100  14.446
20773W        W89002  16.623  36.581   5.013
20774W        W89003   5.191  20.948   0.745
20775W        W89004  37.929  32.577  14.503
20776W        W89005  34.802  32.354  13.877
20777W        W89006  25.555   0.354  12.861
20778W        W89007   4.693  40.279   1.415
20779W        W89008   3.504  30.491  12.563
20780W        W89009  31.196  25.090  10.840
20781W        W89010   5.940   5.786  14.305
20782W        W89011  24.277  13.115  11.214
20783W        W89012  20.468  22.652  11.965
20784W        W89013  39.874  25.105   0.458
20785W        W89014  36.526  32.933  11.673
20786W        W89015  39.560  32.706  12.646
20787W        W89016  17.774  35.825   3.598
20788W        W89017  31.171  39.383   1.479
20789W        W89018  28.654  21.987  10.717
20790W        W89019  31.415  24.471   0.958
20791W        W89020  23.071  44.733  11.959
20792W        W89021  44.373  33.625   0.707
20793W        W89022  15.033  33.105   2.895
20794W        W89023  12.875  24.880  14.818
20795W        W89024  26.072   8.007   2.422
20796W        W89025  25.224  25.441  14.376
20797W        W89026   0.849  38.605  10.460
20798W        W89027   8.371  17.670  14.822
20799W        W89028  19.081  36.108   0.678
20800W        W89029  18.694   5.679  14.079
20801W        W89030  14.039  18.177   0.682
20802W        W89031  39.475   7.846  11.123
20803W        W89032   3.143  11.060   3.333
20804W        W89033  16.689  35.743   4.549
20805W        W89034  23.581  13.776  13.327
20806W        W89035  10.935   3.263   1.998
20807W        W89036  41.495  19.202   0.521
20808W        W89037  15.335  30.573  12.440
20809W        W89038  31.447  20.084   5.437
20810W        W89039  15.587  17.222  14.356
20811W        W89040  10.188  17.346   3.975
20812W        W89041  10.945  37.589   2.691
20813W        W89042  37.812   0.862   0.274
20814W        W89043  10.771  15.392  14.845
20815W        W89044  44.028  18.670  13.453
20816W        W89045  17.641  26.892   0.881
20817W        W89046  36.948   8.616   1.655
20818W        W89047   9.244  27.459   2.536
20819W        W89048  19.928  35.850  12.049
20820W        W89049  43.622  40.724   4.250
20821W        W89050  19.065  44.379  10.849
20822W        W89051  18.599  10.887   3.666
20823W        W89052   0.879  17.918   2.005
20824W        W89053   8.303   5.055  14.859
20825W        W89054  12.362   1.989  10.749
20826W        W89055  23.662   8.641   1.487
20827W        W89056  25.134  35.866   2.530
20828W        W89057  43.539  25.095  11.305
20829W        W89058  23.597  25.313   2.651
20830W        W89059  27.688   9.978  13.480
20831W        W89060   4.400  36.412  12.002
20832W        W89061  40.976  23.763   1.882
20833W        W89062  36.054  21.945   1.407
20834W        W89063   9.809  30.637   2.233
20835W        W89064  28.776  23.056   0.772
20836W        W89065  25.564  17.791   0.784
20837W        W89066  23.216  18.515  14.812
20838W        W89067  35.887  24.768   0.367
20839W        W89068  11.401  40.245  14.329
20840W        W89069  14.585  28.716   3.311
20841W        W89070  15.628   0.624  11.586
20842W        W89071  13.974  12.870   9.756
20843W        W89072  12.963  28.148   1.919
20844W        W89073   9.843   2.192  14.870
20845W        W89074  36.939   6.236  13.529
20846W        W89075  40.740  15.060  10.874
20847W        W89076   3.328   2.570   2.751
20848W        W89077  31.512  44.367  12.428
20849W        W89078   4.289  30.403   2.115
20850W        W89079   0.742  12.852  11.158
20851W        W89080  18.987   3.677  14.845
20852W        W89081   1.621  44.299  11.555
20853W        W89082  27.936   5.763   0.291
20854W        W89083  25.412  11.118   2.742
20855W        W89084  34.807  37.454   3.744
20856W        W89085   1.507  24.072   0.909
20857W        W89086  44.387  20.345  14.285
20858W        W89087   1.668   9.624   1.612
20859W        W89088  16.577  42.335   3.167
20860W        W89089  15.836  36.007   0.649
20861W        W89090  38.480   4.539  12.897
20862W        W89091   7.788  17.618   3.254
20863W        W89092  41.009   6.191  11.654
20864W        W89093  40.079  21.803  11.407
20865W        W89094  38.536  37.945   3.706
20866W        W89095  34.454  32.100  14.395
20867W        W89096  20.940  16.870  13.997
20868W        W89097  31.640  41.925  12.403
20869W        W89098  10.661  40.839  12.463
20870W        W89099  34.500  28.935   0.964
20871W        W89100  38.718  18.647   4.679
20872W        W89101   5.904  27.948  12.114
20873W        W89102  35.836  40.166   1.897
20874W        W89103  44.177  37.841  13.816
20875W        W89104  18.620  26.411   3.713
20876W        W89105   8.575  19.238   2.609
20877W        W89106  43.845  23.493  11.625
20878W        W89107   3.772   0.300   1.912
20879W        W89108  32.004  18.310   3.814
20880W        W89109  22.253  22.214  14.859
20881W        W89110  41.686  15.788   0.835
20882W        W89111  18.693  24.734  13.877
20883W        W89112  18.184  18.999  11.483
20884W        W89113  25.107  20.061   3.262
20885W        W89114  12.542  20.334  11.156
20886W        W89115  42.444  33.100   3.720
20887W        W89116   7.189  35.520  11.693
20888W        W89117  16.333  41.344  12.828
20889W        W89118  39.816  22.647  11.999
20890W        W89119  28.174  19.326   1.831
20891W        W89120  19.644  26.837  14.019
20892W        W89121   4.408  10.163   0.919
20893W        W89122  40.493  32.900  11.643
20894W        W89123  43.801   9.909  11.058
20895W        W89124  29.621   0.671  11.714
20896W        W89125   4.014  25.426  11.903
20897W        W89126  16.098  13.333  14.473
20898W        W89127   1.638  17.912   4.318
20899W        W89128  37.066  22.941   0.712
20900W        W89129  14.750   3.040   0.250
20901W        W89130  15.334  15.058   4.546
20902W        W89131   6.178  10.709  13.362
20903W        W89132  36.847  25.218  11.085
20904W        W89133  12.587   3.272   0.533
20905W        W89134  14.721  31.116   1.343
20906W        W89135  21.507  16.618  14.955
20907W        W89136  14.578  10.965  10.259
20908W        W89137  24.781  26.919  12.616
20909W        W89138  26.463  27.197   0.348
20910W        W89139  44.360  36.905   3.870
20911W        W89140   5.507   5.253   1.195
20912W        W89141  43.000  23.935  10.696
20913W        W89142  32.179  31.409  13.679
20914W        W89143   1.334  39.845   1.646
20915W        W89144  10.689  21.535   4.027
20916W        W89145   9.965  16.883   2.804
20917W        W89146   6.921  33.612   1.762
20918W        W89147  12.614  34.001  10.652
20919W        W89148  16.817   3.009  12.917
20920W        W89149  37.396  36.392  12.440
20921W        W89150  17.534  27.195   3.588
20922W        W89151  24.358  10.798  12.434
20923W        W89152  10.884  26.970  14.578
20924W        W89153   7.656  25.377  13.494
20925W        W89154  35.564  36.486   0.975
20926W        W89155   2.817  39.133  12.094
20927W        W89156  15.599  43.004  10.428
20928W        W89157  18.149  44.193   1.314
20929W        W89158  38.016   3.053  11.981
20930W        W89159  15.289   1.675  13.497
20931W        W89160  10.279  14.567  12.896
20932W        W89161  43.242   2.389  12.373
20933W        W89162  40.988  11.863   3.517
20934W        W89163  37.498  18.808  12.962
20935W        W89164   9.279  11.771  11.182
20936W        W89165  17.239   3.473  14.393
20937W        W89166  32.357  17.264   2.232
20938W        W89167  21.538  29.903   5.084
20939W        W89168  42.909  30.567  13.075
20940W        W89169  30.862  24.563  13.842
20941W        W89170  12.429   7.268  11.570
20942W        W89171  15.739  32.580   1.789
20943W        W89172  17.171  33.111   0.115
20944W        W89173  35.067  43.440  13.925
20945W        W89174  22.451   5.777   2.180
20946W        W89175  28.754   1.086  14.000
20947W        W89176  27.409   6.701   4.268
20948W        W89177  13.240  16.311  11.551
20949W        W89178  19.237  16.602   4.412
20950W        W89179  40.409  32.420   1.948
20951W        W89180  44.314  10.896  11.648
20952W        W89181   1.342   6.279   1.643
20953W        W89182  32.898  34.082   0.237
20954W        W89183   1.113  44.159  11.428
20955W        W89184   2.262  38.377   5.034
20956W        W89185   3.939  28.217   2.255
20957W        W89186  15.663  20.554   1.875
20958W        W89187  20.157  42.531  11.614
20959W        W89188   3.060  35.522   2.762
20960W        W89189  27.449  34.853  13.918
20961W        W89190  33.879  20.617   2.893
20962W        W89191  28.210  15.357  13.241
20963W        W89192  35.385  36.968  14.138
20964W        W89193   2.254  27.652   4.736
20965W        W89194  30.606  38.867   3.079
20966W        W89195   2.374  11.654   0.992
20967W        W89196  27.503  19.449  12.992
20968W        W89197  12.656   6.998   2.433
20969W        W89198  38.753  24.167  12.046
20970W        W89199  26.588   6.704   2.444
20971W        W89200   8.311  39.822   4.166
20972W        W89201   7.862  31.621   3.188
20973W        W89202  37.060  31.064  14.264
20974W        W89203  21.034  33.904  14.816
20975W        W89204   9.257  43.444   0.165
20976W        W89205  42.469  10.768  10.904
20977W        W89206  32.456  44.064  10.868
20978W        W89207  36.958  15.454  12.711
20979W        W89208  19.657   3.807   2.803
20980W        W89209  31.536   0.358  14.608
20981W        W89210   9.349  14.775   4.120
20982W        W89211  41.101  22.567  10.726
20983W        W89212  39.880   1.708  14.788
20984W        W89213  20.719   4.226   3.646
20985W        W89214  12.872  15.875   2.242
20986W        W89215  18.075  24.395  11.554
20987W        W89216  21.280  29.986  12.673
20988W        W89217  33.532  27.213  13.866
20989W        W89218  40.782  19.901  13.441
20990W        W89219  33.446  39.555   3.311
20991W        W89220   4.636  15.183   0.380
20992W        W89221  25.223  37.497   9.990
20993W        W89222   6.111  42.512   1.830
20994W        W89223  12.360  14.660   4.749
20995W        W89224  27.446  38.394  14.858
20996W        W89225  13.941   0.879   3.654
20997W        W89226  30.378  13.203  12.447
20998W        W89227  42.554  23.723   2.253
20999W        W89228  34.641  35.501  13.356
21000W        W89229  15.121   2.470   2.780
21001W        W89230  28.189  37.912  13.959
21002W        W89231   1.553  17.361  14.266
21003W        W89232  19.275  16.057   1.138
21004W        W89233  24.527   4.133   4.480
21005W        W89234   6.518  26.048   3.835
21006W        W89235  30.216   6.344   3.802
21007W        W89236  38.942   2.026   3.227
21008W        W89237  11.186  15.732  13.833
21009W        W89238  30.863  40.945  14.034
21010W        W89239  29.261  41.636   2.807
21011W        W89240  37.958  35.557  11.077
21012W        W89241  43.192  19.137  11.113
21013W        W89242  19.402  43.190   4.120
21014W        W89243  17.320   2.830   3.809
21015W        W89244  27.361  28.408  11.072
21016W        W89245  34.251   8.654   0.056
21017W        W89246  43.814  40.752  11.649
21018W        W89247   6.990  26.088   2.190
21019W        W89248   0.898   8.896  11.216
21020W        W89249  18.171  16.607  11.025
21021W        W89250  35.856  18.416  14.860
21022W        W89251   1.548  20.196   0.317
21023W        W89252  17.286  34.078   4.035
21024W        W89253  41.768  36.836  12.935
21025W        W89254  21.275  41.436   3.730
21026W        W89255  22.069  18.776   4.746
21027W        W89256  35.324  39.927  10.523
21028W        W89257   7.347  32.897  11.014
21029W        W89258  43.214  17.037  13.422
21030W        W89259   5.845  44.444   3.648
21031W        W89260   4.276   7.276  12.393
21032W        W89261  24.093   6.379   4.562
21033W        W89262  29.686  37.504  11.026
21034W        W89263  29.575   9.655   4.644
21035W        W89264  25.011  36.077  13.087
21036W        W89265  16.786  41.123   2.099
21037W        W89266  25.457  41.473  14.465
21038W        W89267   4.296   7.222  11.393
21039W        W89268  27.942   9.743  14.771
21040W        W89269   5.695  11.421   4.366
21041W        W89270   4.777  26.252   4.097
21042W        W89271   8.669  37.155   0.431
21043W        W89272  12.568  44.240   3.611
21044W        W89273  42.591  14.856   4.085
21045W        W89274   3.236   2.829  12.849
21046W        W89275   4.872  43.377  11.734
21047W        W89276  34.348  28.823  10.713
21048W        W89277  22.119  20.852   1.227
21049W        W89278  21.062   3.667   0.809
21050W        W89279   6.205  21.351   0.349
21051W        W89280  25.499  36.877  13.002
21052W        W89281  36.312  25.972   3.736
21053W        W89282   4.975  14.566  12.327
21054W        W89283  20.963   1.317   1.792
21055W        W89284  22.971  29.015   2.297
21056W        W89285  31.355  35.504  14.755
21057W        W89286  23.985  42.788   4.126
21058W        W89287  23.025   9.178   1.382
21059W        W89288  22.311  33.485  13.971
21060W        W89289  33.421  41.841   0.936
21061W        W89290  21.642  33.826   3.986
21062W        W89291  12.261  34.001   3.217
21063W        W89292  25.622  27.528  11.166
21064W        W89293  40.623  44.374  13.922
21065W        W89294  44.250  34.466  11.955
21066W        W89295  31.004   8.629   3.238
21067W        W89296  30.499  44.724  10.478
21068W        W89297  31.566  11.147   3.206
21069W        W89298  42.813  24.175  13.321
21070W        W89299  17.111  10.363   2.146
21071W        W89300  44.271  20.655   0.882
21072W        W89301   9.334  19.937   2.628
21073W        W89302   2.895  28.528   2.664
21074W        W89303  40.292   6.250  14.795
21075W        W89304   7.530  21.614   0.985
21076W        W89305   2.861  37.292  11.642
21077W        W89306   6.164   8.238  10.862
21078W        W89307  11.476   0.809   2.862
21079W        W89308  22.073   1.027   0.345
21080W        W89309  28.362   7.533   3.137
21081W        W89310  16.908  11.685   0.791
21082W        W89311  33.002  37.578  11.515
21083W        W89312   9.404  29.395  13.813
21084W        W89313  36.083  44.963  13.042
21085W        W89314   2.708  25.147  12.240
21086W        W89315  15.680  39.190   4.021
21087W        W89316  32.084  24.008   3.186
21088W        W89317  42.395  23.274   0.276
21089W        W89318   8.487   3.759   1.976
21090W        W89319  21.751   0.930   1.916
21091W        W89320  14.262   9.594   2.717
21092W        W89321  26.867  27.101  14.045
21093W        W89322  36.827  34.492   3.682
21094W        W89323   6.173  27.490  12.947
21095W        W89324  15.794  33.974  12.072
21096W        W89325   2.844  34.421  12.424
21097W        W89326  37.386  31.154   1.356
21098W        W89327  38.752  15.264  11.161
21099W        W89328   0.456  10.641  14.173
21100W        W89329   0.596   7.330  13.406
21101W        W89330  21.730  15.305  12.028
21102W        W89331  39.226  21.920   3.769
21103W        W89332  31.949   1.113   1.467
21104W        W89333  30.665  16.823  14.946
21105W        W89334  33.545  44.535  14.213
21106W        W89335   6.273   5.670   1.146
21107W        W89336  11.286  40.999  10.654
21108W        W89337  27.906   4.268   0.054
21109W        W89338  43.726  10.797  11.433
21110W        W89339   8.701  27.708   0.479
21111W        W89340  22.691  17.043   3.915
21112W        W89341  15.335  29.092   0.757
21113W        W89342  16.596   1.925  11.014
21114W        W89343  15.610  17.116   1.254
21115W        W89344  24.459  44.986  14.699
21116W        W89345  25.617  32.621  14.772
21117W        W89346   6.500  26.456   4.189
21118W        W89347  12.354  37.415  10.845
21119W        W89348   8.203  27.973   0.413
21120W        W89349  11.079  32.981  11.165
21121W        W89350  17.601  26.953  12.086
21122W        W89351  17.206  39.481   4.430
21123W        W89352  14.321   3.377  14.203
21124W        W89353  22.085  15.838   3.652
21125W        W89354  36.328  20.578  11.616
21126W        W89355  37.549  37.853   1.304
21127W        W89356  40.576  14.813   4.295
21128W        W89357  19.632  21.305  13.291
21129W        W89358  42.404  43.174  13.478
21130W        W89359   6.154   5.323  14.384
21131W        W89360   8.814  14.106  10.838
21132W        W89361  31.964  40.505   2.407
21133W        W89362  23.546   3.623   0.812
21134W        W89363  41.742   8.786   0.817
21135W        W89364   2.323   6.272   4.691
21136W        W89365  10.632  36.910   2.253
21137W        W89366  28.072   3.404  14.913
21138W        W89367  15.447   4.224   0.431
21139W        W89368  20.018  21.061   4.526
21140W        W89369  23.776  27.207  11.084
21141W        W89370  12.485  37.351  11.567
21142W        W89371  40.815  16.484   2.224
21143W        W89372  28.579  32.559  11.243
21144W        W89373   5.312  16.967   0.431
21145W        W89374   3.063   0.105  11.187
21146W        W89375   2.774  25.805   1.121
21147W        W89376  18.904   6.126  13.646
21148W        W89377  30.273   5.322   2.717
21149W        W89378  17.756  18.657   3.768
21150W        W89379   0.205  42.108  11.050
21151W        W89380  12.408  21.635  11.931
21152W        W89381  11.646  11.365   0.794
21153W        W89382  30.608   2.797   4.798
21154W        W89383   4.962  23.531  12.947
21155W        W89384  30.588  40.080  13.543
21156W        W89385  18.323  30.684  12.570
21157W        W89386  36.764  15.208  14.280
21158W        W89387  24.604   0.539  13.806
21159W        W89388  44.188  42.997   1.629
21160W        W89389  13.638  19.779  10.120
21161W        W89390   3.885   6.499  10.277
21162W        W89391   4.802  41.435  14.329
21163W        W89392  43.839  10.282  12.607
21164W        W89393  26.128  19.697  11.683
21165W        W89394  23.477  42.505   0.294
21166W        W89395  43.760   2.478  13.416
21167W        W89396  35.431  21.066  12.942
21168W        W89397  37.308  33.349  11.559
21169W        W89398  20.281  32.460   4.544
21170W        W89399  25.271  21.618   3.473
21171W        W89400  38.989  24.884   1.419
21172W        W89401  18.185  12.391  12.699
21173W        W89402  43.697   6.335  14.939
21174W        W89403  41.252  23.037  12.639
21175W        W89404  16.148  37.277   1.400
21176W        W89405  44.410  42.396  14.986
21177W        W89406   4.997  21.182   3.568
21178W        W89407  23.099  34.229   9.870
21179W        W89408  34.493  28.417   0.791
21180W        W89409  16.620   8.847   2.386
21181W        W89410   2.754   6.750  12.111
21182W        W89411   8.718  19.012   3.815
21183W        W89412  29.053  37.304   3.105
21184W        W89413  21.253   2.489   3.297
21185W        W89414  19.341  22.306   1.890
21186W        W89415  27.472  26.373   1.492
21187W        W89416  14.528   7.784  14.974
21188W        W89417   4.831  19.723   0.626
21189W        W89418  26.901   8.429  13.024
21190W        W89419  16.022  42.506  11.716
21191W        W89420  28.660  43.264  11.113
21192W        W89421  16.891  25.320   5.028
21193W        W89422  14.324  24.459  13.983
21194W        W89423   8.778  13.779   3.678
21195W        W89424  20.209  19.088  12.275
21196W        W89425  22.516  29.179   3.140
21197W        W89426  23.679  33.550   1.316
21198W        W89427  12.796  36.428  11.545
21199W        W89428  41.771  36.907   3.684
21200W        W89429  41.947  11.503   9.972
21201W        W89430  26.964   0.021   2.429
21202W        W89431  34.867  24.215   1.391
21203W        W89432  25.834   4.840   1.235
21204W        W89433  17.612  21.768   3.104
21205W        W89434   5.216  29.144  10.040
21206W        W89435   2.942  42.080  14.357
21207W        W89436  39.252  40.490  11.541
21208W        W89437  44.151  10.096  14.103
21209W        W89438  41.843  35.978  14.441
21210W        W89439  24.760  44.103   0.142
21211W        W89440  33.482  32.196  14.048
21212W        W89441  38.387  33.167  12.168
21213W        W89442  24.484  18.336  13.091
21214W        W89443  14.991  33.408   4.875
21215W        W89444   2.448  22.796   3.635
21216W        W89445  44.351  34.598  12.443
21217W        W89446  19.867  19.309  10.897
21218W        W89447  22.031  25.110   3.760
21219W        W89448   7.741  18.765   3.689
21220W        W89449  32.836  33.621   2.247
21221W        W89450  23.516  37.863  13.922
21222W        W89451  28.547  26.332   2.405
21223W        W89452  26.052  27.633   3.602
21224W        W89453  36.450  39.408   0.307
21225W        W89454  36.867  27.712   4.794
21226W        W89455  40.875  37.417  14.905
21227W        W89456  19.594  26.893   2.414
21228W        W89457  14.311  28.706   1.905
21229W        W89458  38.419  17.845   0.359
21230W        W89459  25.761  19.559   2.738
21231W        W89460  20.542  12.178   2.280
21232W        W89461  31.117  18.767  11.924
21233W        W89462  23.708  31.438   3.139
21234W        W89463   9.849  19.162   2.819
21235W        W89464   6.424  12.065  12.933
21236W        W89465  36.559  24.978  14.315
21237W        W89466  20.302  31.409  12.060
21238W        W89467   3.162  37.661  10.252
21239W        W89468  11.453  12.718   1.965
21240W        W89469  36.113  12.177  14.055
21241W        W89470  15.668  28.531   1.757
21242W        W89471  38.740  38.492  13.117
21243W        W89472   7.702  12.290  12.597
21244W        W89473   8.366  15.138  14.800
21245W        W89474   0.318  34.918  14.787
21246W        W89475  24.075  37.159   1.240
21247W        W89476  39.289  42.023   2.387
21248W        W89477  34.103  13.606  13.015
21249W        W89478  37.701   3.552   4.285
21250W        W89479  18.529  35.100  14.031
21251W        W89480   2.858  27.452  11.983
21252W        W89481  15.644   5.667  13.383
21253W        W89482   7.627  31.602  13.806
21254W        W89483  18.802  15.724  14.987
21255W        W89484  40.930  37.565  10.670
21256W        W89485  10.168   7.712   5.041
21257W        W89486  13.725  38.310   4.145
21258W        W89487  26.440  28.033   3.410
21259W        W89488  30.580  18.602   1.111
21260W        W89489  33.578  24.653   2.175
21261W        W89490  12.865  33.077   0.348
21262W        W89491  30.706  25.941   3.154
21263W        W89492  24.452  31.744   0.054
21264W        W89493  32.970  13.180  13.769
21265W        W89494   5.700  44.793   4.334
21266W        W89495   7.252  41.057  13.888
21267W        W89496  42.537  42.957  13.957
21268W        W89497   3.431  38.544   1.780
21269W        W89498  37.249  41.986   4.263
21270W        W89499   4.343  34.940   3.162
21271W        W89500  15.112  18.315   2.171
21272W        W89501  42.243  38.820   0.566
21273W        W89502  44.533  20.039  10.923
21274W        W89503   0.630  34.383  14.873
21275W        W89504  30.408  35.486  10.745
21276W        W89505   1.611  37.272   3.693
21277W        W89506  23.692  14.221  11.666
21278W        W89507  30.425  23.733   3.291
21279W        W89508  31.751   7.675   4.719
21280W        W89509  33.798  14.349   0.941
21281W        W89510  16.204  32.369   4.897
21282W        W89511  10.745  25.402   0.514
21283W        W89512  21.924  43.301  12.025
21284W        W89513   1.715  35.356  12.552
21285W        W89514  40.050  41.943  12.059
21286W        W89515   8.984   2.418  14.898
21287W        W89516  42.332   7.094   2.797
21288W        W89517  24.997   7.910  14.265
21289W        W89518  22.346  32.003   2.614
21290W        W89519  35.331  14.369   2.624
21291W        W89520  36.435  25.226  11.364
21292W        W89521  42.017  23.666   1.095
21293W        W89522   1.394  21.927   0.784
21294W        W89523  32.376  13.022  14.850
21295W        W89524  27.460  13.025   5.280
21296W        W89525  27.181  13.152   3.753
21297W        W89526  10.131   7.336   3.288
21298W        W89527  43.992  41.374  11.105
21299W        W89528  29.093  22.990   3.237
21300W        W89529  33.606  42.180   4.224
21301W        W89530  12.203  18.010  11.104
21302W        W89531   3.758  27.965   2.681
21303W        W89532  43.979  34.974   0.913
21304W        W89533  18.591  36.676  13.238
21305W        W89534  22.662  35.940   5.031
21306W        W89535  42.986  27.946  12.843
21307W        W89536  13.878  11.753  14.768
21308W        W89537  23.059   8.101   2.670
21309W        W89538  37.239  25.527  12.518
21310W        W89539  25.697   8.201   1.202
21311W        W89540   5.653  37.914  11.981
21312W        W89541  13.427  40.441   1.017
21313W        W89542  23.768   1.304   2.292
21314W        W89543  23.048  25.855  12.248
21315W        W89544  43.297  44.882  10.724
21316W        W89545  36.748  31.920  14.800
21317W        W89546  34.410   5.959  14.015
21318W        W89547  35.342   2.437  14.619
21319W        W89548  33.537  34.492  14.236
21320W        W89549  43.871  29.575  11.880
21321W        W89550  29.878  17.211   4.211
21322W        W89551  36.253  30.296   5.155
21323W        W89552  12.181  37.589   4.316
21324W        W89553  19.942   7.849  12.525
21325W        W89554  25.099  17.304   3.199
21326W        W89555  32.296  16.115  10.989
21327W        W89556   6.164   5.928   4.936
21328W        W89557  10.402  27.658   3.767
21329W        W89558  30.587  30.433  11.562
21330W        W89559  42.370  42.552   0.537
21331W        W89560  39.822   1.737   1.707
21332W        W89561  29.878  34.980   1.041
21333W        W89562  29.519  16.082   0.503
21334W        W89563  10.423  20.353   3.856
21335W        W89564   8.296   9.355  12.038
21336W        W89565   8.355   3.529  11.171
21337W        W89566   5.331  14.943  11.051
21338W        W89567  23.042  21.176   2.285
21339W        W89568  37.501   4.757   3.563
21340W        W89569  18.139  38.459  13.393
21341W        W89570   4.541  32.362  12.010
21342W        W89571   8.252  15.093  12.429
21343W        W89572  39.518  12.980  14.932
21344W        W89573   7.860  11.168   0.505
21345W        W89574  18.836  26.669   2.387
21346W        W89575  39.934  11.229  12.702
21347W        W89576   2.287  19.641  11.705
21348W        W89577  20.718  37.662   0.754
21349W        W89578  14.764  36.779   5.382
21350W        W89579   1.645  16.232   3.681
21351W        W89580  21.485  18.589  10.968
21352W        W89581  11.655  43.819   1.366
21353W        W89582  21.252   2.656  13.796
21354W        W89583  36.308  28.677  12.094
21355W        W89584  17.687  19.207  13.454
21356W        W89585  43.017  17.615  11.186
21357W        W89586   9.585  43.777   0.378
21358W        W89587  38.680  28.140   4.163
21359W        W89588  16.535  42.000   1.878
21360W        W89589  15.584  10.638  13.376
21361W        W89590  15.000  28.300  14.382
21362W        W89591  39.928  23.872  13.129
21363W        W89592  33.910  16.789  12.073
21364W        W89593  27.180  24.691  10.696
21365W        W89594  10.761  19.468   1.015
21366W        W89595  23.724  43.513  14.355
21367W        W89596  10.904   2.858   2.323
21368W        W89597  20.999  18.213   3.979
21369W        W89598  38.574  11.605   0.985
21370W        W89599  20.121  42.893   2.705
21371W        W89600  18.725  20.729  14.524
21372W        W89601  30.952   7.757  10.706
21373W        W89602  24.209  34.070  13.300
21374W        W89603   8.804  26.054  12.911
21375W        W89604  42.518  29.643  12.902
21376W        W89605  36.682  28.957  12.379
21377W        W89606   5.025  17.186   5.154
21378W        W89607  36.175  22.712   0.812
21379W        W89608   4.451  29.935  13.533
21380W        W89609  39.248  33.830  11.208
21381W        W89610   3.302  16.196   0.972
21382W        W89611  39.816  21.495   0.965
21383W        W89612  41.014  30.632  12.278
21384W        W89613   0.201  41.210  11.532
21385W        W89614  21.715  34.430  12.177
21386W        W89615  19.313  44.987   1.027
21387W        W89616  30.019  30.798   2.737
21388W        W89617  22.047  34.411  13.124
21389W        W89618  25.140  42.034   2.282
21390W        W89619  33.274  30.598   2.469
21391W        W89620   5.225  22.629  12.538
21392W        W89621  36.439  32.084  11.592
21393W        W89622  13.738  35.443   2.608
21394W        W89623  28.468  31.417   1.819
21395W        W89624  42.192  37.611  13.715
21396W        W89625   4.378   3.254   3.750
21397W        W89626   4.607  27.918   5.011
21398W        W89627  12.646   3.203  10.158
21399W        W89628   5.669  37.375   2.394
21400W        W89629   6.023  22.237  10.509
21401W        W89630   1.440  21.226   2.158
21402W        W89631  19.301   3.290  11.002
21403W        W89632  34.424  19.079   3.418
21404W        W89633   7.166   7.271  14.905
21405W        W89634  44.334  34.582   4.305
21406W        W89635  33.314  20.258   2.578
21407W        W89636  38.410  14.258  10.431
21408W        W89637   0.555  40.779   2.240
21409W        W89638  16.690  22.309   3.133
21410W        W89639  33.118  38.413   0.088
21411W        W89640  34.406  12.042   2.833
21412W        W89641  42.539   9.696  14.084
21413W        W89642   1.315  38.498  13.140
21414W        W89643  40.532  43.394  13.704
21415W        W89644  17.219  40.947  14.580
21416W        W89645  21.530   3.910   0.749
21417W        W89646   5.641   3.537  12.159
21418W        W89647  42.750  37.570  12.470
21419W        W89648  19.953  44.850   2.810
21420W        W89649  43.761  33.474  13.009
21421W        W89650  10.413   9.203  10.761
21422W        W89651  16.571  38.477  14.497
21423W        W89652   7.824  24.996   1.757
21424W        W89653  44.948  14.196  12.921
21425W        W89654   9.793  14.067   3.723
21426W        W89655  41.779  27.416   1.531
21427W        W89656  10.406  34.571   2.309
21428W        W89657  41.007  44.937  11.185
21429W        W89658  12.855   2.809  10.426
21430W        W89659  34.186  21.290   4.043
21431W        W89660  42.158  14.015   0.739
21432W        W89661   6.329  22.111   2.354
21433W        W89662  10.437  42.437   4.209
21434W        W89663  43.919  26.959   0.539
21435W        W89664  25.480  22.825  14.798
21436W        W89665   3.306  32.487   0.416
21437W        W89666  39.507   1.253   3.605
21438W        W89667  15.179  33.870  10.594
21439W        W89668   8.951  16.687   2.827
21440W        W89669   4.270  37.601  10.769
21441W        W89670   2.278   6.261  11.298
21442W        W89671   1.750  13.065  12.825
21443W        W89672  23.748  40.345  11.834
21444W        W89673  42.245  38.096  13.954
21445W        W89674  18.441   3.907  13.120
21446W        W89675  12.821  31.615   0.001
21447W        W89676   8.229   7.100   1.865
21448W        W89677  36.215  16.483   0.577
21449W        W89678  37.428  13.538   0.020
21450W        W89679  44.398  41.961  11.606
21451W        W89680   8.073  23.506   4.285
21452W        W89681  36.385  28.882  10.804
21453W        W89682  18.795  24.651  14.697
21454W        W89683  28.034   2.219  10.360
21455W        W89684  33.537  11.971   2.789
21456W        W89685  35.997  25.435   1.976
21457W        W89686  37.740  24.622   1.463
21458W        W89687  12.650   7.422  10.767
21459W        W89688   0.392  24.812  14.095
21460W        W89689  41.035  35.929  14.864
21461W        W89690  16.595   9.131   1.918
21462W        W89691  34.721   8.062  11.530
21463W        W89692  21.820   3.685  13.491
21464W        W89693  40.544  28.544  12.633
21465W        W89694   8.807  25.153  14.023
21466W        W89695  19.828   6.176   1.868
21467W        W89696  33.915  33.323   0.297
21468W        W89697  26.343  16.836  11.958
21469W        W89698   6.043  39.899  14.775
21470W        W89699   0.300   0.991  11.106
21471W        W89700  24.300  13.162  11.984
21472W        W89701   2.793  14.198  12.993
21473W        W89702   8.690  17.076   1.394
21474W        W89703  36.486  20.092   2.173
21475W        W89704  10.409  20.858   3.894
21476W        W89705   8.727  28.002  14.683
21477W        W89706  38.520  16.706   3.786
21478W        W89707  33.501  25.514  12.136
21479W        W89708  12.148  38.022   0.331
21480W        W89709  18.257   8.239   3.751
21481W        W89710   5.544  13.274   0.558
21482W        W89711  17.097  27.857  14.292
21483W        W89712  30.941  28.835   4.973
21484W        W89713  30.870  42.348  13.089
21485W        W89714  13.554  43.935  11.858
21486W        W89715   4.962   8.298   0.034
21487W        W89716  14.777   0.523   2.896
21488W        W89717   7.999  41.934   4.132
21489W        W89718  26.515  13.823  14.409
21490W        W89719  26.191   9.207  12.924
21491W        W89720  11.808  35.006  14.422
21492W        W89721  19.933  28.356  13.680
21493W        W89722  35.641   5.770  14.372
21494W        W89723  44.325  37.907   3.375
21495W        W89724  24.096  37.867   2.838
21496W        W89725   5.190  19.196  11.158
21497W        W89726   9.869  37.136  14.426
21498W        W89727  43.574  38.457  13.445
21499W        W89728  43.074  11.753   2.663
21500W        W89729  32.982  27.081  13.893
21501W        W89730  24.699   5.975   0.017
21502W        W89731  19.975  11.344   3.343
21503W        W89732  30.098  27.434   3.295
21504W        W89733  32.964  21.259   4.655
21505W        W89734   0.411   2.017   0.961
21506W        W89735   3.830  42.232  13.102
21507W        W89736   2.236  35.911   3.544
21508W        W89737  13.263  41.335   1.845
21509W        W89738  39.898  43.052  10.912
21510W        W89739  17.748  23.626   4.391
21511W        W89740  24.269  33.071   3.170
21512W        W89741  27.702  14.743   1.638
21513W        W89742   2.975   6.878  13.044
21514W        W89743  11.694  36.054   0.739
21515W        W89744  36.073  11.806  10.436
21516W        W89745  31.656  31.166  10.771
21517W        W89746  20.042   0.806   2.751
21518W        W89747  42.309  18.962  11.121
21519W        W89748  28.426  41.003   0.742
21520W        W89749   5.265  21.928   4.198
21521W        W89750  23.107  24.499  11.977
21522W        W89751   6.467   0.707  14.402
21523W        W89752  44.477  23.935   2.228
21524W        W89753  15.558  38.911  11.895
21525W        W89754  39.633  41.690  12.988
21526W        W89755  41.852  10.775  10.529
21527W        W89756   0.754  36.433   4.394
21528W        W89757  34.872  20.549   0.495
21529W        W89758  31.883  10.974  14.880
21530W        W89759  43.005  41.013   4.124
21531W        W89760   0.847  18.058  12.512
21532W        W89761   5.570  34.337  11.536
21533W        W89762  41.813  15.101  14.564
21534W        W89763   3.011  28.381  12.955
21535W        W89764  40.730  29.520  11.941
21536W        W89765  41.878  40.877  14.958
21537W        W89766  13.328  30.702  13.880
21538W        W89767   8.732  17.307   1.909
21539W        W89768   1.222  20.561   1.493
21540W        W89769   6.060   8.802  12.795
21541W        W89770  23.611  38.547  11.941
21542W        W89771  34.482  30.089   2.820
21543W        W89772  10.329  21.978   1.349
21544W        W89773   3.711  30.693  13.012
21545W        W89774   4.711  35.380   1.320
21546W        W89775  20.941  20.630   1.738
21547W        W89776  32.125  39.139   4.352
21548W        W89777  14.076  12.768  13.973
21549W        W89778   6.736  11.667  13.785
21550W        W89779  37.874   2.331  12.482
21551W        W89780  19.118  42.036   4.652
21552W        W89781  25.945  32.561  11.839
21553W        W89782  34.426  14.099   0.028
21554W        W89783   4.374  24.483   3.710
21555W        W89784  24.505  15.275  13.917
21556W        W89785  23.979  19.205   0.736
21557W        W89786  21.986  31.826   1.784
21558W        W89787  40.787  41.585   3.351
21559W        W89788   3.842  31.367  10.565
21560W        W89789   4.226  30.679  10.837
21561W        W89790  41.639   1.049  14.346
21562W        W89791  33.986   2.869  10.680
21563W        W89792  42.647  21.849  13.932
21564W        W89793  37.957  14.953   3.775
21565W        W89794  33.437  26.048   0.378
21566W        W89795  12.300  31.476   1.225
21567W        W89796   8.863  27.720   2.778
21568W        W89797   5.186  33.038   1.699
21569W        W89798  36.900   8.221   3.894
21570W        W89799  20.618  32.363   5.406
21571W        W89800   1.719  24.499  13.999
21572W        W89801  36.095   7.652  11.551
21573W        W89802   0.498  12.689   4.160
21574W        W89803  42.244  17.640  10.683
21575W        W89804  20.069  41.099   2.556
21576W        W89805  31.827   1.040   2.989
21577W        W89806  39.244  17.617  13.556
21578W        W89807   6.341  32.674   4.127
21579W        W89808  28.196  14.908   1.791
21580W        W89809   4.666   6.151   4.909
21581W        W89810  28.907  17.023   1.347
21582W        W89811  20.008   9.887  12.858
21583W        W89812  35.536  41.479  13.420
21584W        W89813  15.650  14.704  14.028
21585W        W89814  25.655  34.081   2.616
21586W        W89815   3.070   2.378   3.225
21587W        W89816   0.270   7.443   2.793
21588W        W89817  12.296  37.163   3.847
21589W        W89818   2.451  24.495  13.428
21590W        W89819  43.949  36.645   4.956
21591W        W89820   2.573  30.556   4.719
21592W        W89821  12.702  19.041  10.966
21593W        W89822   2.478   6.682  13.605
21594W        W89823   9.127   9.807  12.841
21595W        W89824   1.842  44.393  12.022
21596W        W89825  15.680  16.752  14.568
21597W        W89826  23.650  21.062  12.528
21598W        W89827   4.367  17.589  14.459
21599W        W89828  18.373  16.195   3.620
21600W        W89829  41.941  22.450   2.313
21601W        W89830  35.126   9.264  12.924
21602W        W89831  18.754  33.391   3.122
21603W        W89832  14.416  23.942   3.760
21604W        W89833  13.371  21.727   3.116
21605W        W89834  33.663  26.557   5.112
21606W        W89835  22.482  32.405  14.944
21607W        W89836  33.356  37.869  10.300
21608W        W89837  26.156  41.192   0.758
21609W        W89838  44.372  32.351  14.777
21610W        W89839  14.130  21.351  10.347
21611W        W89840  40.926   0.534   4.073
21612W        W89841  27.622   7.960  14.376
21613W        W89842   6.953  11.705   2.436
21614W        W89843  43.802  32.670   3.762
21615W        W89844  38.441  37.448  13.515
21616W        W89845  23.750   4.424  14.181
21617W        W89846  37.633   1.846  14.263
21618W        W89847  29.580  27.935  11.219
21619W        W89848  29.631  35.619  12.608
21620W        W89849   4.713  22.927  14.211
21621W        W89850  19.797  40.442   3.133
21622W        W89851   4.826  21.144  10.422
21623W        W89852   5.197  28.015  13.446
21624W        W89853  43.907  14.792   1.212
21625W        W89854   4.700   5.008  13.849
21626W        W89855  30.663  29.985  14.315
21627W        W89856   6.996  16.439  14.339
21628W        W89857  39.028  18.710  12.927
21629W        W89858  36.269  28.498   0.438
21630W        W89859  15.101  13.654  13.888
21631W        W89860  42.330   0.885  11.241
21632W        W89861  28.021   5.792  14.212
21633W        W89862  19.608  13.911   4.211
21634W        W89863  20.613  27.420  12.770
21635W        W89864  19.099   0.064   1.815
21636W        W89865  39.335  41.268  12.935
21637W        W89866  11.805   2.240  13.002
21638W        W89867  29.248   2.929  13.798
21639W        W89868  27.089  40.682   1.889
21640W        W89869  32.686  21.125   0.954
21641W        W89870   1.141  24.586  12.939
21642W        W89871  20.202   9.713  10.809
21643W        W89872  38.573  35.037  13.015
21644W        W89873  30.595  35.932   3.213
21645W        W89874  20.221   1.289   4.819
21646W        W89875  35.912  40.473  14.278
21647W        W89876   6.842  39.328   2.279
21648W        W89877  26.725  32.449  12.510
21649W        W89878  33.998  42.435   2.730
21650W        W89879  12.313  15.293  13.842
21651W        W89880  41.754  22.626  11.935
21652W        W89881   8.968  43.881   2.431
21653W        W89882  39.444  33.776  12.415
21654W        W89883  39.505  10.792  11.068
21655W        W89884  22.739  39.731   3.179
21656W        W89885  29.525  41.847   1.652
21657W        W89886   5.137  44.279  13.855
21658W        W89887  27.497  44.222   3.311
21659W        W89888  13.587  19.485  10.573
21660W        W89889  10.183   5.427   1.851
21661W        W89890   9.558  29.586   3.978
21662W        W89891   2.540   7.238   0.791
21663W        W89892  11.464  23.653   2.668
21664W        W89893   8.923  27.755   0.943
21665W        W89894   4.976  15.323   1.896
21666W        W89895  37.815  24.619   3.302
21667W        W89896  13.370  10.352  12.086
21668W        W89897  40.776  11.367  12.828
21669W        W89898  44.244   5.472  11.740
21670W        W89899  25.195  17.145   4.037
21671W        W89900  40.831  25.265   1.692
21672W        W89901  21.525  24.482   2.829
21673W        W89902  20.918  10.054   0.183
21674W        W89903  17.384  37.867  14.385
21675W        W89904  35.548  39.586   0.787
21676W        W89905   5.876  41.365  11.066
21677W        W89906  17.470  26.197   0.251
21678W        W89907  19.512  41.507   0.014
21679W        W89908  31.418   3.613   2.760
21680W        W89909  42.817  25.374   4.187
21681W        W89910  10.784  16.761   2.815
21682W        W89911   6.760  15.367   2.738
21683W        W89912  27.991  34.504   9.573
21684W        W89913  41.341  19.248  11.032
21685W        W89914  41.843  44.282   0.719
21686W        W89915  14.253  20.797  13.262
21687W        W89916  26.505   8.046   3.924
21688W        W89917   8.637  32.535   2.820
21689W        W89918   9.182  36.592  11.623
21690W        W89919  33.378  16.142   1.297
21691W        W89920  18.071  43.742   3.857
21692W        W89921  20.691  16.777  12.055
21693W        W89922  11.581  42.616  11.041
21694W        W89923  34.941  38.539  12.031
21695W        W89924  24.827   0.921  11.256
21696W        W89925   8.800   5.777  14.484
21697W        W89926  22.478  39.759   4.278
21698W        W89927  14.227  18.733   4.687
21699W        W89928  14.921  37.057   4.948
21700W        W89929  11.675  33.472  13.121
21701W        W89930  14.371  13.859  14.534
21702W        W89931  38.446  17.619   1.315
21703W        W89932  10.795  29.170   4.557
21704W        W89933   6.856  17.255   4.201
21705W        W89934   6.655  37.653  11.923
21706W        W89935  14.738  31.301  10.965
21707W        W89936  25.278  13.341   3.247
21708W        W89937  41.518  32.838  10.446
21709W        W89938  17.167   0.006   0.923
21710W        W89939  16.843  25.755   0.884
21711W        W89940  25.006  10.743  11.167
21712W        W89941  36.400   8.158  13.547
21713W        W89942   6.021   9.840  11.847
21714W        W89943  38.438  10.334   4.962
21715W        W89944   7.521  11.639   1.245
21716W        W89945  24.613  22.000   0.485
21717W        W89946  41.050  17.502  11.276
21718W        W89947   7.976  40.083  10.170
21719W        W89948  13.410   8.751  13.191
21720W        W89949   2.920  20.149  11.635
21721W        W89950  18.219  25.702   0.736
21722W        W89951  27.503   0.780  14.063
21723W        W89952   8.616   3.963  14.401
21724W        W89953   5.641   9.076   3.759
21725W        W89954   2.985   7.801  14.824
21726W        W89955  37.560  31.975  14.492
21727W        W89956  11.917  41.308   1.257
21728W        W89957  40.431   8.732   0.320
21729W        W89958  44.771  41.822  11.966
21730W        W89959  19.630  36.305   3.596
21731W        W89960  39.163   8.385  12.033
21732W        W89961  36.070  43.926   4.821
21733W        W89962   1.752   0.100   0.169
21734W        W89963   2.341  31.029  11.528
21735W        W89964  26.433  31.058   1.232
21736W        W89965  20.751  19.066   1.851
21737W        W89966  28.488  40.035   3.664
21738W        W89967  40.360  14.532   2.635
21739W        W89968  26.408  34.889  13.528
21740W        W89969  31.986  28.901  14.241
21741W        W89970   9.416   2.491  11.478
21742W        W89971  25.523  10.300   4.730
21743W        W89972   0.561  34.566  10.865
21744W        W89973   7.942  30.526  13.411
21745W        W89974  36.424   3.188   2.661
21746W        W89975  11.134  32.835  14.965
21747W        W89976   4.672  11.850  13.423
21748W        W89977   2.535  20.727   0.442
21749W        W89978  29.462   6.708   3.422
21750W        W89979  42.514  42.024   1.545
21751W        W89980  38.857   2.532  11.164
21752W        W89981   1.159  18.163  11.654
21753W        W89982  36.363  13.476  13.459
21754W        W89983  14.622  41.267   2.665
21755W        W89984  21.652  40.407  13.893
21756W        W89985  35.696  13.532   0.338
21757W        W89986  32.002  38.164   0.280
21758W        W89987  28.627  42.083   0.419
21759W        W89988  36.376  23.023   1.784
21760W        W89989  14.701  26.691   0.075
21761W        W89990  19.520   9.080   1.840
21762W        W89991   7.292  32.998   4.600
21763W        W89992  25.712  23.716   2.154
21764W        W89993  12.959   1.172  11.630
21765W        W89994   7.028   0.407   1.746
21766W        W89995  23.056  34.654   4.064
21767W        W89996  37.728  43.612  11.176
21768W        W89997  18.267  42.530   2.159
21769W        W89998   6.441   0.515   0.449
21770W        W89999  33.066  15.876   0.067
21771W        W90000   2.850  27.062   3.856
21772W        W90001  38.691  34.105  13.525
21773W        W90002   5.638  11.115   2.336
21774W        W90003  23.952  44.246   2.292
21775W        W90004   3.944  36.523  14.873
21776W        W90005  32.026  44.126   4.651
21777W        W90006   0.054   3.359  14.980
21778W        W90007  25.143  31.265   3.254
21779W        W90008  31.583  18.387   4.853
21780W        W90009   3.750   0.258   2.880
21781W        W90010   6.483  43.416  12.399
21782W        W90011  16.802  37.893  11.150
21783W        W90012  33.098   9.287  12.847
21784W        W90013  22.767  32.471   4.515
21785W        W90014   5.379  39.861   3.742
21786W        W90015  24.682  24.011   4.345
21787W        W90016   3.936  33.320   1.244
21788W        W90017  26.922  37.710   2.824
21789W        W90018   1.641  20.656  11.720
21790W        W90019  42.273  16.130  11.581
21791W        W90020  13.611  19.965   0.111
21792W        W90021   7.454  29.425   4.622
21793W        W90022  12.236   2.457   0.943
21794W        W90023   8.630  31.100   3.192
21795W        W90024   3.346   5.986  14.557
21796W        W90025   2.981  13.660  11.947
21797W        W90026  33.623   4.578   4.498
21798W        W90027  26.409   2.541  12.184
21799W        W90028  13.545  34.676  10.997
21800W        W90029  28.871  26.263   2.843
21801W        W90030  18.064   2.208   1.134
21802W        W90031  21.138  32.582  11.003
21803W        W90032  11.249   1.755  13.445
21804W        W90033  24.752  23.002  12.180
21805W        W90034  25.371  11.260   2.244
21806W        W90035  20.065  39.938  14.295
21807W        W90036  16.760  17.688  11.097
21808W        W90037  37.823  27.181   2.854
21809W        W90038   7.720   9.354  10.792
21810W        W90039  10.909  35.081  11.450
21811W        W90040  32.509   4.351   0.825
21812W        W90041  24.228  38.624  10.725
21813W        W90042  40.942  26.670   1.418
21814W        W90043  20.227   4.195   3.833
21815W        W90044  12.928   7.342   2.682
21816W        W90045  15.275  25.039  14.935
21817W        W90046  13.388  37.930  10.789
21818W        W90047  30.686  28.184   3.772
21819W        W90048  11.420  36.649  13.600
21820W        W90049   3.146  21.954  11.078
21821W        W90050  43.482  15.681   1.364
21822W        W90051  10.158  42.435   0.251
21823W        W90052   6.325  23.598  13.834
21824W        W90053   0.203  13.321  12.855
21825W        W90054   7.769  36.302   0.749
21826W        W90055  14.799  21.509   4.919
21827W        W90056  24.993  13.889  14.256
21828W        W90057  12.417  15.863  14.352
21829W        W90058  38.146   5.483   4.267
21830W        W90059  23.059  36.329  10.398
21831W        W90060  19.714  29.702  14.507
21832W        W90061  13.595  38.591   1.833
21833W        W90062  12.837   6.709   3.828
21834W        W90063  37.134  26.103  11.094
21835W        W90064  37.068  44.893   1.725
21836W        W90065  39.799  27.141  11.905
21837W        W90066  30.981  20.319   3.259
21838W        W90067  30.238  12.150   1.425
21839W        W90068  13.010  17.830   0.651
21840W        W90069  30.178  19.312   2.667
21841W        W90070  40.442   6.611  11.008
21842W        W90071  39.230  16.658  12.533
21843W        W90072  28.634  37.885   5.100
21844W        W90073  33.595  23.750  12.525
21845W        W90074  32.629  16.070   0.925
21846W        W90075  39.976   0.818   4.278
21847W        W90076  38.448  38.900   9.741
21848W        W90077  19.187  22.090   2.818
21849W        W90078  42.478  36.884  13.475
21850W        W90079  43.341  26.170   3.140
21851W        W90080  22.528   9.160   1.241
21852W        W90081  35.599  42.361  14.727
21853W        W90082   2.997  12.443  14.463
21854W        W90083   9.366  23.918   3.943
21855W        W90084   9.140   6.369   2.374
21856W        W90085  33.573  39.470  13.353
21857W        W90086  44.510  10.238   4.089
21858W        W90087  12.816  37.717   5.037
21859W        W90088  44.335  21.128   9.991
21860W        W90089   2.369  38.383  13.560
21861W        W90090   9.173   4.755  11.225
21862W        W90091   9.381  25.952  12.177
21863W        W90092  35.842  17.045   4.261
21864W        W90093  16.115  19.072   1.670
21865W        W90094   3.836  24.731   0.811
21866W        W90095  18.156   2.806   4.456
21867W        W90096   5.967  27.948  11.224
21868W        W90097   4.443  44.361   4.440
21869W        W90098  42.804  18.508   4.443
21870W        W90099   6.889  20.309  14.683
21871W        W90100  28.953  19.128  11.068
21872W        W90101  18.708  23.559   4.200
21873W        W90102  27.999   6.499   1.435
21874W        W90103  12.814  37.891   4.292
21875W        W90104   4.930  14.261  10.601
21876W        W90105  20.466  26.559   3.383
21877W        W90106  43.697  25.075  10.824
21878W        W90107  27.033  44.186  12.736
21879W        W90108  33.557  15.645   4.558
21880W        W90109  43.326  15.272   3.347
21881W        W90110  24.556  13.413  11.561
21882W        W90111  33.835   1.799   3.055
21883W        W90112  18.278   9.209  11.910
21884W        W90113  30.244   3.814  10.761
21885W        W90114  20.240  37.975  13.015
21886W        W90115  37.823  21.495   0.440
21887W        W90116   8.168  42.397  14.335
21888W        W90117  21.122  37.297  13.155
21889W        W90118  23.081  12.026   1.285
21890W        W90119  35.348  13.882   4.068
21891W        W90120  36.922  38.393  12.185
21892W        W90121  44.831  16.052   4.647
21893W        W90122  24.441   5.654   1.391
21894W        W90123  20.149  19.020   3.839
21895W        W90124  27.479  41.407   2.139
21896W        W90125  37.224   5.150   1.045
21897W        W90126  35.246  29.847  14.277
21898W        W90127  36.108  13.059   1.948
21899W        W90128   2.352  30.985   2.419
21900W        W90129  44.492  17.801   3.533
21901W        W90130  26.143   8.223   0.292
21902W        W90131   9.416  43.267  13.401
21903W        W90132  17.294  25.638   5.514
21904W        W90133  42.857  38.796   1.280
21905W        W90134  30.713   8.417   3.623
21906W        W90135  31.202   9.381  11.133
21907W        W90136  41.023  29.129  13.762
21908W        W90137  21.647  10.130  14.972
21909W        W90138  42.752  35.667  13.040
21910W        W90139  33.473  12.536   1.329
21911W        W90140  37.940  41.292   1.427
21912W        W90141  27.639   8.247   2.343
21913W        W90142  14.359  26.182  10.278
21914W        W90143  15.224  17.181   3.577
21915W        W90144  11.772  25.557  11.816
21916W        W90145  20.381  25.462  14.344
21917W        W90146  31.054  14.266  13.776
21918W        W90147   9.404  34.389   2.315
21919W        W90148  33.091  30.696  12.872
21920W        W90149   7.648  43.984  12.295
21921W        W90150   1.266  44.900  13.416
21922W        W90151  42.937  26.525   1.456
21923W        W90152   1.791  20.768   3.738
21924W        W90153   2.190  23.258   4.849
21925W        W90154   8.633  36.893  14.483
21926W        W90155  12.197  36.149  12.597
21927W        W90156  43.398  23.570   4.151
21928W        W90157   4.347  33.565   1.481
21929W        W90158  22.680   2.156   2.253
21930W        W90159  28.972  19.307  14.997
21931W        W90160  38.969  15.501   0.790
21932W        W90161  31.383   2.287   3.293
21933W        W90162  40.371  39.464  12.479
21934W        W90163   1.544  29.026   0.380
21935W        W90164  34.285   7.685   1.488
21936W        W90165  20.392  19.538   1.210
21937W        W90166   6.661  28.912   0.238
21938W        W90167  32.765  10.627   1.336
21939W        W90168  26.813  20.614   1.014
21940W        W90169  38.395  33.604  10.197
21941W        W90170   5.119  18.394  13.445
21942W        W90171  31.958   7.630  10.772
21943W        W90172  36.500  12.746   2.914
21944W        W90173  42.725   3.236  11.944
21945W        W90174  40.091  18.978  14.762
21946W        W90175  11.828  40.929  10.626
21947W        W90176  11.947  28.989  13.956
21948W        W90177  43.567  12.852  11.994
21949W        W90178  36.671  43.525   1.815
21950W        W90179  28.459  34.859   0.022
21951W        W90180  31.980  11.327  12.377
21952W        W90181  16.201  27.409   3.790
21953W        W90182  13.839  10.750  13.533
21954W        W90183  32.629   3.875  13.411
21955W        W90184  21.649  29.070   3.490
21956W        W90185  34.840  22.276   3.652
21957W        W90186  27.985  37.583  14.539
21958W        W90187  32.314  17.106  11.641
21959W        W90188  10.200  27.965  13.298
21960W        W90189   3.618  38.149   4.149
21961W        W90190  19.207  18.261  12.094
21962W        W90191  35.549  39.915  11.852
21963W        W90192  31.691  14.863   4.572
21964W        W90193   7.625  23.574  12.101
21965W        W90194  19.496   9.100   4.195
21966W        W90195  41.990  10.366  11.741
21967W        W90196  16.235  30.881   0.698
21968W        W90197  34.122  20.307  12.167
21969W        W90198  33.306  12.442   2.893
21970W        W90199  30.464  29.035  11.215
21971W        W90200  38.927   8.628   4.646
21972W        W90201  12.593  28.533   3.681
21973W        W90202  44.027  14.570  13.054
21974W        W90203   3.916  22.637  10.351
21975W        W90204  35.326  27.416  12.028
21976W        W90205  32.013   2.822  14.486
21977W        W90206  19.471  28.917   1.207
21978W        W90207  30.155   4.623   1.620
21979W        W90208  30.958  11.969   2.194
21980W        W90209  17.562  43.913   2.202
21981W        W90210  20.027   4.488   1.431
21982W        W90211   8.035   0.407  11.418
21983W        W90212  31.869  43.802   2.713
21984W        W90213  15.315   2.687  13.498
21985W        W90214   6.372  23.082  13.602
21986W        W90215   6.242  31.455  10.791
21987W        W90216  22.073  40.226   1.390
21988W        W90217  19.174  43.514   2.757
21989W        W90218  15.827  11.365   5.113
21990W        W90219  10.611  35.502  12.803
21991W        W90220   0.156   4.788  11.882
21992W        W90221  38.859  44.372  11.355
21993W        W90222  38.845  10.318   3.668
21994W        W90223  43.012  26.872   4.506
21995W        W90224  28.955  25.529   0.321
21996W        W90225  39.006   6.322   4.359
21997W        W90226  23.100   8.775   2.180
21998W        W90227  41.423  20.660  12.852
21999W        W90228  35.870   6.260  11.023
22000W        W90229  36.653   3.326  13.011
22001W        W90230   2.392   3.954  11.186
22002W        W90231   2.913  15.214  12.377
22003W        W90232  34.508  11.329  11.456
22004W        W90233  15.227  34.875   3.308
22005W        W90234  20.045  16.206  13.195
22006W        W90235  39.120  20.011  11.981
22007W        W90236   1.744  28.997   4.605
22008W        W90237   0.681  43.822   2.678
22009W        W90238  42.906  28.663  14.783
22010W        W90239  36.016  30.040   2.483
22011W        W90240   2.206   0.006   4.245
22012W        W90241  17.627  23.500  11.847
22013W        W90242  11.714  19.815  14.205
22014W        W90243  22.511  28.928  13.927
22015W        W90244  37.638   1.330  14.431
22016W        W90245  22.110   8.087  12.666
22017W        W90246  25.446   5.007   3.584
22018W        W90247  25.706   6.263  14.528
22019W        W90248   3.478   2.914   3.937
22020W        W90249  33.529  36.392  10.471
22021W        W90250  13.273  26.685  12.432
22022W        W90251  18.353  28.472  12.586
22023W        W90252   5.231  13.246  10.979
22024W        W90253   8.814   2.722  13.249
22025W        W90254   3.798   5.747  12.338
22026W        W90255  18.619   3.863  12.165
22027W        W90256   6.813  31.002   1.551
22028W        W90257  17.109  43.669   2.258
22029W        W90258   2.547   9.229  10.732
22030W        W90259  37.778  27.713   2.841
22031W        W90260  29.520  21.188   5.088
22032W        W90261  39.296   3.764   3.811
22033W        W90262  39.032   7.249   0.402
22034W        W90263  36.237  30.721   2.205
22035W        W90264  24.486  26.257   1.806
22036W        W90265  16.538   0.930   4.583
22037W        W90266  36.790  25.621  13.416
22038W        W90267  14.781  12.588  12.073
22039W        W90268  21.064  17.804  12.552
22040W        W90269   8.463   8.949  11.744
22041W        W90270  26.228  15.847   3.142
22042W        W90271  38.460  16.689  14.571
22043W        W90272  15.291  31.771   2.343
22044W        W90273  23.508  44.536   2.252
22045W        W90274  16.055  25.060  13.041
22046W        W90275   0.937  22.057  14.021
22047W        W90276  24.461  14.595   2.344
22048W        W90277  33.214  43.002   3.082
22049W        W90278   2.316  36.951   1.602
22050W        W90279   5.286  31.455  12.438
22051W        W90280  40.792  32.931  10.954
22052W        W90281  23.850  43.665  11.651
22053W        W90282  32.243  43.223   4.148
22054W        W90283   5.958  19.698   3.688
22055W        W90284  24.131  13.603  11.122
22056W        W90285  39.762  29.909  13.956
22057W        W90286  16.710  39.505   1.282
22058W        W90287  15.241  28.854   2.876
22059W        W90288  11.471   4.019  13.414
22060W        W90289  22.235  13.081  13.391
22061W        W90290  27.501  37.250   1.923
22062W        W90291   8.304   1.016   3.156
22063W        W90292  14.302  42.290  14.043
22064W        W90293   2.529  34.470  11.019
22065W        W90294  11.794  43.026   4.736
22066W        W90295  21.427   7.803   4.910
22067W        W90296  22.524   1.269   0.806
22068W        W90297  16.241  18.045   1.782
22069W        W90298  24.895  42.269  14.004
22070W        W90299  12.846  12.871   1.716
22071W        W90300  11.363   0.920   0.949
22072W        W90301  12.644  16.704   0.297
22073W        W90302  24.170  27.072  11.724
22074W        W90303  10.947   1.875  13.869
22075W        W90304  44.993   9.709  14.888
22076W        W90305  36.824  22.419   4.842
22077W        W90306  40.607   9.063   0.725
22078W        W90307   6.690  25.996  11.960
22079W        W90308   7.578  36.078   0.000
22080W        W90309  25.347  29.242  14.240
22081W        W90310  29.062  17.460  11.434
22082W        W90311  25.665  24.444   0.867
22083W        W90312  14.014  28.748   2.321
22084W        W90313  27.710  27.002   0.787
22085W        W90314  41.187   1.898   1.760
22086W        W90315   6.037  20.169   2.210
22087W        W90316   0.003  15.699  10.950
22088W        W90317  35.146  13.730   2.208
22089W        W90318  27.629  42.505  13.362
22090W        W90319  21.214  29.187   3.156
22091W        W90320  28.696   7.948  11.115
22092W        W90321  39.697  30.171   0.886
22093W        W90322  14.336  41.512  14.361
22094W        W90323  28.533  25.127   4.635
22095W        W90324  39.964  11.720   1.295
22096W        W90325  38.993  23.824  13.410
22097W        W90326  43.348   0.847  13.118
22098W        W90327  33.805  12.659  11.391
22099W        W90328  38.324  35.488  12.853
22100W        W90329  24.791  15.242  14.907
22101W        W90330   7.273  28.247  14.366
22102W        W90331   5.108  29.616  10.966
22103W        W90332  38.295  37.564   2.205
22104W        W90333  16.509  33.111  13.573
22105W        W90334   6.303  42.417  11.481
22106W        W90335  37.352  38.497   2.565
22107W        W90336  14.740  25.490  10.618
22108W        W90337   4.849  32.382  10.748
22109W        W90338  16.796  14.881   1.205
22110W        W90339  35.447  24.828  12.913
22111W        W90340   7.246  35.441   0.746
22112W        W90341  37.083  14.575   4.276
22113W        W90342  44.744  42.473   1.274
22114W        W90343  31.632  28.984  13.840
22115W        W90344  33.974  19.527   3.745
22116W        W90345  19.128  37.364  14.340
22117W        W90346   5.406  22.422   0.823
22118W        W90347  17.360  31.306   2.688
22119W        W90348  20.863  11.420  12.482
22120W        W90349  41.098  38.784  11.811
22121W        W90350  15.375  14.232   0.930
22122W        W90351  23.760  10.732  14.207
22123W        W90352  40.569   5.932   5.133
22124W        W90353  10.442  42.619   1.042
22125W        W90354  35.970  37.081   4.330
22126W        W90355  28.361   4.787  12.648
22127W        W90356   3.538   3.327   3.590
22128W        W90357  11.856  22.107  10.712
22129W        W90358  19.904  36.125   1.878
22130W        W90359  26.823  11.196   4.507
22131W        W90360   0.446  37.901   0.880
22132W        W90361   8.144  32.050  13.365
22133W        W90362  32.135  31.412  10.658
22134W        W90363  21.843  18.304  11.719
22135W        W90364  24.411  31.496  14.605
22136W        W90365   7.678   2.655   0.381
22137W        W90366  19.254  32.143   3.212
22138W        W90367  33.942  43.699  12.462
22139W        W90368  19.304  38.055   1.875
22140W        W90369  18.575   8.236  11.529
22141W        W90370  20.232  11.910   0.840
22142W        W90371   3.036   8.264   1.147
22143W        W90372  34.145  13.535   2.897
22144W        W90373  23.554  11.760   2.016
22145W        W90374  20.002  40.547  13.084
22146W        W90375  37.655  28.717   2.690
22147W        W90376  11.435  15.559   1.201
22148W        W90377  33.930  11.880  10.358
22149W        W90378   1.543  19.246   2.737
22150W        W90379  31.102  16.557   3.573
22151W        W90380  16.960  14.114  11.413
22152W        W90381  18.686  12.333  14.916
22153W        W90382  28.993  15.334   3.225
22154W        W90383  27.593  38.378   3.351
22155W        W90384   3.525  41.852   5.067
22156W        W90385   3.046   8.579   0.742
22157W        W90386  37.513  18.123  12.459
22158W        W90387  20.936  22.925   1.290
22159W        W90388  30.868  15.744  14.478
22160W        W90389  27.398  42.058  13.505
22161W        W90390  22.633  42.997  13.257
22162W        W90391  25.557  36.684   4.425
22163W        W90392  34.431  28.093  14.796
22164W        W90393  18.830  13.337   4.481
22165W        W90394  19.538  40.115  14.283
22166W        W90395  36.560  25.926   3.194
22167W        W90396  34.311   1.437   2.820
22168W        W90397  38.373   8.915   1.450
22169W        W90398  30.894  13.556   1.357
22170W        W90399  37.862  34.863  14.776
22171W        W90400  18.282   9.123   3.356
22172W        W90401  28.292  18.145   4.027
22173W        W90402   9.600  37.850   1.375
22174W        W90403  26.079  29.885  13.142
22175W        W90404  13.118   1.753  11.250
22176W        W90405  21.689  35.125  14.986
22177W        W90406   3.932  11.047  14.385
22178W        W90407  19.586  29.892   0.951
22179W        W90408  18.268  10.614  11.738
22180W        W90409  35.921  23.253   1.352
22181W        W90410  22.225  44.563  10.736
22182W        W90411   6.544   7.265  13.188
22183W        W90412  28.818  21.313  14.994
22184W        W90413  39.466  32.385   1.379
22185W        W90414   9.721  42.212  11.245
22186W        W90415  36.412   4.505  14.815
22187W        W90416  20.238  36.328  13.370
22188W        W90417  17.438   1.221  11.645
22189W        W90418  25.620  13.948   5.804
22190W        W90419  42.853  17.484   2.837
22191W        W90420  25.393  27.379  10.213
22192W        W90421  10.149   7.022   2.873
22193W        W90422   1.844  15.639   2.728
22194W        W90423   0.491  23.470   2.035
22195W        W90424   8.672  43.321  13.124
22196W        W90425  17.388  20.276  10.326
22197W        W90426  35.971  35.179   4.654
22198W        W90427  13.864  33.880  13.971
22199W        W90428  12.800  18.585   0.557
22200W        W90429  31.425  40.541  14.258
22201W        W90430  42.325  26.641   3.815
22202W        W90431   4.346   7.466   1.390
22203W        W90432  25.036   2.234  12.158
22204W        W90433  30.643  16.626  11.002
22205W        W90434  16.524  25.135  13.334
22206W        W90435  18.564   4.950  14.405
22207W        W90436  21.423  36.684  14.358
22208W        W90437  36.263  19.143   3.193
22209W        W90438   5.944  32.332   4.185
22210W        W90439   0.781  43.612   4.061
22211W        W90440  26.224  14.553   1.805
22212W        W90441  21.324  42.821   4.251
22213W        W90442  43.223  37.501  12.187
22214W        W90443  21.842  12.205   0.222
22215W        W90444  24.500  21.147   3.585
22216W        W90445  24.065  25.904   0.592
22217W        W90446  12.781  26.584  11.740
22218W        W90447  40.729  12.020   0.327
22219W        W90448  13.239  13.391  13.969
22220W        W90449  29.458  25.738  11.163
22221W        W90450  39.061  33.066   4.236
22222W        W90451  31.235  16.980  14.109
22223W        W90452  17.603  18.832   3.287
22224W        W90453   6.491  17.915   0.942
22225W        W90454   6.317  28.401  13.076
22226W        W90455  17.697  32.037   3.556
22227W        W90456  19.618  33.568  14.049
22228W        W90457  23.491  28.192   3.205
22229W        W90458   2.361  26.529  12.554
22230W        W90459  24.039  16.010   1.788
22231W        W90460  42.875   1.930  13.098
22232W        W90461  42.008  34.879   4.308
22233W        W90462  44.271  35.120   3.716
22234W        W90463  17.413  30.111  11.033
22235W        W90464  35.429  37.482   4.392
22236W        W90465   6.611   9.305   3.711
22237W        W90466  25.407  14.623  12.209
22238W        W90467  10.360  21.762  13.014
22239W        W90468  44.841  10.791   1.759
22240W        W90469  13.544  11.100  12.542
22241W        W90470  44.594  34.343   1.375
22242W        W90471  24.590  36.100  10.644
22243W        W90472  21.689   4.737   4.465
22244W        W90473  12.178  41.381  14.541
22245W        W90474   7.217   9.785   2.640
22246W        W90475  19.213  18.715   1.716
22247W        W90476   2.971  33.678  12.884
22248W        W90477  29.245  44.220  13.823
22249W        W90478   4.912  20.725   0.371
22250W        W90479  25.470  24.751   2.270
22251W        W90480  34.533  17.813   0.406
22252W        W90481   2.020  35.366   0.840
22253W        W90482   7.828   3.637  12.011
22254W        W90483  16.079  16.838   3.663
22255W        W90484  15.191  25.271  10.754
22256W        W90485   5.765  23.015   1.216
22257W        W90486  35.588  15.225   2.840
22258W        W90487   1.926   1.389   4.307
22259W        W90488   9.766  26.899  14.075
22260W        W90489  11.723   3.887  12.363
22261W        W90490  39.830   6.077  12.929
22262W        W90491   3.711  18.796  13.361
22263W        W90492  31.637  28.593   4.571
22264W        W90493  28.698  33.569   3.804
22265W        W90494   9.098  23.498   4.137
22266W        W90495   6.238  15.555   3.879
22267W        W90496  32.623  13.674  13.880
22268W        W90497  12.105  13.831   1.754
22269W        W90498  18.508  25.102  13.038
22270W        W90499  36.794  35.567   2.689
22271W        W90500  32.067   5.181   1.181
22272W        W90501  12.185  29.374   0.923
22273W        W90502   8.185  16.980  12.317
22274W        W90503  37.048  13.029  14.787
22275W        W90504   8.414  31.221   0.774
22276W        W90505  23.839  24.544   3.777
22277W        W90506  42.193  19.788  12.360
22278W        W90507  21.724  18.878   1.747
22279W        W90508  35.110  41.815  14.430
22280W        W90509   4.847  10.856   4.099
22281W        W90510  15.062  43.050   1.864
22282W        W90511  36.381  40.381  11.159
22283W        W90512  32.572   9.826   2.913
22284W        W90513  29.885  42.402  11.603
22285W        W90514  15.312  27.962   2.405
22286W        W90515   2.041  17.476  13.283
22287W        W90516   8.450  12.888   4.139
22288W        W90517  34.225  36.539   1.391
22289W        W90518   2.203  30.030   3.571
22290W        W90519  16.106  43.673  11.054
22291W        W90520   1.256  33.473   4.638
22292W        W90521  28.834   4.034   1.774
22293W        W90522  35.138  34.593   4.859
22294W        W90523  39.181  35.876  12.842
22295W        W90524  32.004   3.692  10.734
22296W        W90525   3.256  36.371   9.813
22297W        W90526  22.276  30.908   0.409
22298W        W90527  18.792  40.288   0.890
22299W        W90528   0.209  11.306   4.927
22300W        W90529  15.087   5.875  12.665
22301W        W90530  17.470  20.849   9.923
22302W        W90531   6.435   3.496   5.015
22303W        W90532  18.212  35.600   2.746
22304W        W90533   3.669  25.323  12.852
22305W        W90534   4.896  22.538   0.351
22306W        W90535  43.757   9.848   1.902
22307W        W90536  22.473  37.089   0.099
22308W        W90537  33.115  22.451  10.762
22309W        W90538  40.691  14.347  12.107
22310W        W90539  40.506  43.296   1.304
22311W        W90540  41.615  38.068  11.582
22312W        W90541  12.645  17.804  12.670
22313W        W90542   5.330   9.545   0.681
22314W        W90543  15.635  13.733   2.684
22315W        W90544  16.642   8.586   2.847
22316W        W90545  32.378   3.880   1.224
22317W        W90546   5.237   5.837  12.527
22318W        W90547  34.006  31.150  14.481
22319W        W90548  18.304  13.574  12.081
22320W        W90549  17.643   2.454   1.340
22321W        W90550  18.961  27.961  13.739
22322W        W90551  37.913   6.388  10.652
22323W        W90552  11.300  22.808   2.703
22324W        W90553  19.965  28.523   3.904
22325W        W90554  12.817  21.984  11.891
22326W        W90555  14.042  41.873  11.866
22327W        W90556  36.484  26.796  12.507
22328W        W90557  11.424  35.679   2.668
22329W        W90558  35.885  23.266   4.033
22330W        W90559  20.675  41.283   0.791
22331W        W90560  29.858  29.959  11.115
22332W        W90561   6.382  27.196   1.800
22333W        W90562  44.964  15.005  11.463
22334W        W90563  14.359  29.484   3.323
22335W        W90564   8.850  17.643  12.078
22336W        W90565  14.536  27.125  10.728
22337W        W90566  36.821  16.672  12.006
22338W        W90567  28.121   7.525  13.779
22339W        W90568  26.495  10.700   2.873
22340W        W90569   5.427  17.181   3.282
22341W        W90570   6.683   7.713  14.488
22342W        W90571   2.920  11.742  13.980
22343W        W90572  33.391  41.276  11.987
22344W        W90573  43.734  40.424  12.066
22345W        W90574   2.967  29.257   3.248
22346W        W90575  18.339  17.558  10.993
22347W        W90576   4.340  16.521   0.227
22348W        W90577  17.889  14.612  13.595
22349W        W90578   3.355  36.119   0.309
22350W        W90579   4.883  17.553  14.223
22351W        W90580  41.247   7.590  11.403
22352W        W90581   1.183  25.713   0.502
22353W        W90582  41.373  13.596   3.319
22354W        W90583  44.434  39.034  10.749
22355W        W90584  41.105  17.133  10.607
22356W        W90585  35.640  23.591   2.737
22357W        W90586  14.837  16.906   1.354
22358W        W90587  15.782  21.534   0.039
22359W        W90588  13.158  11.436  12.630
22360W        W90589  17.611  18.577  12.336
22361W        W90590   0.510  20.347  11.098
22362W        W90591   2.871  24.145  14.364
22363W        W90592  23.648  30.855   1.960
22364W        W90593  34.014  18.746   2.964
22365W        W90594  24.665  42.249   3.705
22366W        W90595  28.998  16.837  10.167
22367W        W90596  37.361  42.289  10.607
22368W        W90597  20.500  41.951  14.459
22369W        W90598  20.154  30.891   0.657
22370W        W90599  29.574   5.737  11.790
22371W        W90600  13.051   0.586   0.566
22372W        W90601  15.077   2.848  14.523
22373W        W90602   8.913  34.752  12.532
22374W        W90603  43.843  17.627   4.264
22375W        W90604  35.013   1.518   4.254
22376W        W90605  19.987  31.959  10.405
22377W        W90606  10.398  33.152   1.300
22378W        W90607  18.297  23.194   3.157
22379W        W90608  32.247  38.653  10.144
22380W        W90609  30.729  21.226  13.101
22381W        W90610  39.251  19.660   1.405
22382W        W90611  40.170  19.555   4.762
22383W        W90612  32.195  42.897  11.578
22384W        W90613  21.726  42.950   3.331
22385W        W90614   2.269   2.491  12.049
22386W        W90615  13.075   5.541   4.476
22387W        W90616  17.620  10.181   3.872
22388W        W90617  36.661  23.944  11.484
22389W        W90618  10.786  37.744  14.484
22390W        W90619  33.393  40.184  11.370
22391W        W90620  17.431   4.320  11.596
22392W        W90621  35.182  29.573   1.910
22393W        W90622  35.429  27.849   3.687
22394W        W90623  43.103  15.436   1.783
22395W        W90624  12.546  40.502  10.982
22396W        W90625  16.124   1.415   1.385
22397W        W90626  25.712  20.015   1.426
22398W        W90627   5.965   6.123   4.453
22399W        W90628  31.332  39.026  12.464
22400W        W90629   6.617  29.435   4.212
22401W        W90630  34.990  34.633   1.382
22402W        W90631  22.474  10.198  11.162
22403W        W90632  20.073  18.185   1.256
22404W        W90633   6.321  11.821  10.104
22405W        W90634  10.355  38.321   1.286
22406W        W90635  31.504  11.187  12.588
22407W        W90636  39.548  41.943   1.922
22408W        W90637  25.067  30.908   0.862
22409W        W90638  19.974  30.645   5.105
22410W        W90639  18.386   6.033  13.465
22411W        W90640   2.282  19.674  10.690
22412W        W90641  25.706  43.690  13.419
22413W        W90642   5.793   3.192  14.147
22414W        W90643  40.536  37.743   0.196
22415W        W90644  29.052  26.241   1.529
22416W        W90645  19.708  10.348   1.372
22417W        W90646  26.447  10.731   1.518
22418W        W90647  40.756  44.936   0.685
22419W        W90648  37.050  29.059  14.975
22420W        W90649  40.342  20.462  14.972
22421W        W90650  38.548   6.702  14.980
22422W        W90651  44.900  21.712   4.238
22423W        W90652   7.713  34.240   4.721
22424W        W90653  14.643   2.415   2.205
22425W        W90654  42.882  37.597  12.986
22426W        W90655  42.614  21.714   1.221
22427W        W90656  27.389  40.846   3.224
22428W        W90657  25.953  16.653   1.409
22429W        W90658  26.817   6.846  14.714
22430W        W90659  13.590  29.468   4.652
22431W        W90660  20.685  13.545   3.639
22432W        W90661  42.720  34.548  13.354
22433W        W90662   3.860  24.818  12.865
22434W        W90663  23.991   9.792   2.392
22435W        W90664  12.914   0.371  11.520
22436W        W90665  15.424  33.704   4.757
22437W        W90666   1.884  37.479   0.966
22438W        W90667  36.882  39.088   3.110
22439W        W90668  15.101  35.359   0.409
22440W        W90669  25.111  33.087  12.130
22441W        W90670   3.471  34.427   1.183
22442W        W90671  38.510  27.127  12.503
22443W        W90672  15.439  44.540   2.743
22444W        W90673  15.027   2.201  10.407
22445W        W90674  37.491  13.048   3.708
22446W        W90675  19.060  27.353   2.729
22447W        W90676  44.321  14.515   0.445
22448W        W90677   2.471   3.174  12.558
22449W        W90678  43.879   2.761   0.370
22450W        W90679  11.251  33.986   3.439
22451W        W90680  25.227  30.232  14.372
22452W        W90681   9.311  34.302  14.157
22453W        W90682   5.618  31.948   4.067
22454W        W90683  23.128   1.430  10.624
22455W        W90684  18.547  38.946   1.353
22456W        W90685  31.016  12.732   2.867
22457W        W90686  43.423  42.858   2.292
22458W        W90687   2.970   3.892   1.005
22459W        W90688  43.930   1.031  11.629
22460W        W90689  43.760  30.675  11.505
22461W        W90690  36.876  23.487   3.840
22462W        W90691   6.284  34.384  12.511
22463W        W90692  12.148  19.136   2.484
22464W        W90693   4.032  29.207   5.258
22465W        W90694  19.153  30.874   4.535
22466W        W90695  12.733  33.476   1.694
22467W        W90696  19.127  19.812   1.682
22468W        W90697  12.033  39.813  10.676
22469W        W90698  34.565  26.428   2.831
22470W        W90699  10.835  19.965   0.931
22471W        W90700   5.515  28.406  10.411
22472W        W90701  30.653   2.405   0.412
22473W        W90702  34.040  40.766   0.906
22474W        W90703   8.151   3.655   0.579
22475W        W90704  40.141  26.304   2.629
22476W        W90705  15.224   0.880   4.057
22477W        W90706  15.099   0.473   1.794
22478W        W90707   7.282  20.062  12.056
22479W        W90708  33.802  17.710  13.317
22480W        W90709  13.384   0.319  14.157
22481W        W90710  13.744   2.777   1.765
22482W        W90711   3.111   3.045   3.584
22483W        W90712   3.785  41.953  12.660
22484W        W90713  28.375   6.787   1.660
22485W        W90714  16.661  34.036   2.724
22486W        W90715  33.487  11.691   3.223
22487W        W90716   2.994  17.333   4.365
22488W        W90717  35.989  40.394   4.796
22489W        W90718  38.989  32.623   2.507
22490W        W90719  33.052  24.236   1.317
22491W        W90720  41.098  42.846  12.037
22492W        W90721   5.256  42.267  14.387
22493W        W90722  41.837  41.314  14.533
22494W        W90723  15.733  36.387   4.251
22495W        W90724  13.624  37.418   1.102
22496W        W90725  14.529  37.296  11.698
22497W        W90726  36.090  33.023  12.544
22498W        W90727  32.459  39.946   0.648
22499W        W90728  22.618  28.872   3.563
22500W        W90729   6.716  14.147  11.597
22501W        W90730   3.045  20.701   0.434
22502W        W90731   2.512  19.120   4.783
22503W        W90732  38.085   2.271   4.175
22504W        W90733  41.267  42.935  12.934
22505W        W90734   8.384  34.620   1.290
22506W        W90735  13.997  30.598  11.974
22507W        W90736  44.044  21.637   0.463
22508W        W90737  11.752  21.499   1.803
22509W        W90738  36.526  24.059  10.652
22510W        W90739  30.530   8.613   5.107
22511W        W90740   1.251   7.314  12.571
22512W        W90741  44.746   6.470  14.809
22513W        W90742  19.952   6.716   3.940
22514W        W90743  40.447  39.408   2.850
22515W        W90744  36.320  39.573   3.451
22516W        W90745  32.076  44.341  10.665
22517W        W90746  26.235  35.690   4.957
22518W        W90747  32.231  34.332  11.929
22519W        W90748  14.586   5.170  12.420
22520W        W90749  41.310  27.497   0.363
22521W        W90750  38.205  34.790   0.960
22522W        W90751  36.566  31.480  14.059
22523W        W90752  40.229  41.031   0.690
22524W        W90753  18.683   2.772   3.691
22525W        W90754  28.166  43.874  11.736
22526W        W90755   6.102  40.029  10.804
22527W        W90756  28.395  44.291  12.596
22528W        W90757  41.823  28.053   0.885
22529W        W90758  40.915  18.838  13.862
22530W        W90759  14.825  14.652  11.864
22531W        W90760  14.285   7.877  14.277
22532W        W90761  11.382   5.478  12.475
22533W        W90762  34.025   7.211  13.643
22534W        W90763  39.402  29.366  12.516
22535W        W90764   8.457  30.484   1.487
22536W        W90765  20.006  25.043   1.448
22537W        W90766  28.986  44.394  14.995
22538W        W90767   2.149  22.113   3.803
22539W        W90768   2.214  21.219  10.568
22540W        W90769   7.835  13.619  11.689
22541W        W90770  14.002  31.453   1.359
22542W        W90771   6.218   0.438  11.993
22543W        W90772  30.965   9.126  12.489
22544W        W90773  25.440  27.948  10.922
22545W        W90774  23.224  17.149   4.054
22546W        W90775  33.401   1.850  12.718
22547W        W90776   3.901  22.634  13.869
22548W        W90777  12.804  32.789   2.222
22549W        W90778  35.607   3.763  13.766
22550W        W90779  35.919  37.936  14.809
22551W        W90780  35.598  11.898   3.746
22552W        W90781   4.714  31.441   3.974
22553W        W90782  17.695  23.120  11.452
22554W        W90783  37.594  14.775   2.653
22555W        W90784  40.281  15.751  12.979
22556W        W90785  20.078  17.755   4.873
22557W        W90786  31.606  11.565  14.049
22558W        W90787   2.369  41.497   3.749
22559W        W90788  43.453   3.881  13.492
22560W        W90789   9.318  42.912  12.546
22561W        W90790   6.812  16.902  14.543
22562W        W90791   5.453  10.171  12.452
22563W        W90792  36.724  31.274   4.922
22564W        W90793  32.568  11.802  12.111
22565W        W90794  31.582  29.182  14.365
22566W        W90795  12.398  32.148   4.205
22567W        W90796  29.026  33.627  10.855
22568W        W90797  44.540  36.850  14.869
22569W        W90798  20.527  25.022   3.686
22570W        W90799  42.083   1.908  14.164
22571W        W90800  32.025  21.724   1.768
22572W        W90801  39.443  37.459  10.842
22573W        W90802  24.294   9.860  14.074
22574W        W90803  23.859  43.489   2.904
22575W        W90804  32.351   0.841  12.812
22576W        W90805  14.000  32.705   0.822
22577W        W90806  10.839  17.698   3.714
22578W        W90807   8.770   8.916   1.325
22579W        W90808  24.775  18.413  11.284
22580W        W90809  32.323  10.880   1.159
22581W        W90810  40.618  37.003  11.472
22582W        W90811  26.940  42.124  12.258
22583W        W90812  35.950  35.805  14.387
22584W        W90813  42.741  13.554  10.854
22585W        W90814   3.933  12.230   1.438
22586W        W90815  18.576  39.038   4.231
22587W        W90816   1.302  29.691  12.619
22588W        W90817   5.228  22.665  10.280
22589W        W90818   9.994  27.640  12.907
22590W        W90819  24.444  34.928  13.451
22591W        W90820   3.416  41.197   0.396
22592W        W90821  25.630  15.141   2.831
22593W        W90822   5.620   2.480   2.282
22594W        W90823  11.384  13.328  10.859
22595W        W90824  22.803  37.761  12.003
22596W        W90825  19.092  27.227   3.629
22597W        W90826  13.172   5.893   2.583
22598W        W90827   0.148  38.347   5.715
22599W        W90828  37.949  31.327   0.162
22600W        W90829  17.916  20.852   3.239
22601W        W90830   6.205   1.067   1.933
22602W        W90831  42.841  30.317   1.444
22603W        W90832  33.488   2.574  12.870
22604W        W90833  12.127  36.066  11.192
22605W        W90834  16.465  26.248  14.972
22606W        W90835  25.762  33.635   4.262
22607W        W90836  25.506  44.483   4.514
22608W        W90837  13.387  21.574   1.177
22609W        W90838  43.729  23.011   3.861
22610W        W90839  38.849   2.834   1.753
22611W        W90840  38.268  15.586   3.087
22612W        W90841   2.444  22.799  14.070
22613W        W90842  44.553   6.158   4.587
22614W        W90843  26.447  14.534  13.007
22615W        W90844  27.687   7.141  11.580
22616W        W90845   8.217  43.414   3.683
22617W        W90846   4.085  25.005  12.352
22618W        W90847  24.106  21.545  11.642
22619W        W90848  20.443  14.132   1.973
22620W        W90849   3.241  29.966  12.011
22621W        W90850   4.229   5.194  10.636
22622W        W90851  28.869  25.800   1.323
22623W        W90852   5.419  42.707   0.927
22624W        W90853  34.130   4.186  14.576
22625W        W90854  33.414  28.941   0.455
22626W        W90855  18.948  29.728  11.286
22627W        W90856  28.207  16.097   3.721
22628W        W90857  41.501  39.278   0.059
22629W        W90858  29.722  40.548  12.068
22630W        W90859  42.373  29.671  14.766
22631W        W90860   1.067  15.781  11.180
22632W        W90861  24.287  12.733   3.232
22633W        W90862  29.883   9.813   1.880
22634W        W90863   2.412  40.734  10.627
22635W        W90864   1.898  35.257   0.350
22636W        W90865  35.174  40.053  14.395
22637W        W90866   2.348  20.395   0.791
22638W        W90867  37.945  42.238   0.156
22639W        W90868  30.294   1.001   4.365
22640W        W90869  41.851   8.832  11.517
22641W        W90870  39.907  38.678   3.305
22642W        W90871  19.629  22.217   3.992
22643W        W90872  33.827  11.252  12.474
22644W        W90873  28.606  24.677   4.907
22645W        W90874  25.744   3.625   0.760
22646W        W90875  40.035   2.715   2.517
22647W        W90876  23.689   1.177  11.164
22648W        W90877  21.189  43.503   3.109
22649W        W90878  17.243   2.161  12.666
22650W        W90879   7.006  32.227   2.118
22651W        W90880  36.301  12.347  11.842
22652W        W90881  11.991  40.393   1.217
22653W        W90882  30.266  26.034   2.393
22654W        W90883  43.200   1.958  11.977
22655W        W90884   0.542   0.859  10.630
22656W        W90885  15.479  25.153   3.721
22657W        W90886  12.159  13.526  13.846
22658W        W90887  44.704  16.700   4.243
22659W        W90888  11.684  25.640   3.450
22660W        W90889   4.204  11.258   3.589
22661W        W90890  33.179  26.709   1.280
22662W        W90891  39.979  41.566   1.254
22663W        W90892  36.846  31.515  12.056
22664W        W90893  11.667  25.264   1.439
22665W        W90894  11.822   0.837  11.933
22666W        W90895  36.912  10.064   1.695
22667W        W90896  12.641  31.941  12.056
22668W        W90897  23.676   4.034   0.170
22669W        W90898  41.768  31.193   0.681
22670W        W90899  26.393  25.551  13.527
22671W        W90900  34.817  22.586   4.565
22672W        W90901  17.521  37.092  12.523
22673W        W90902  15.199  16.837  10.807
22674W        W90903  25.433  30.975  14.003
22675W        W90904  20.338  20.783  11.375
22676W        W90905   4.440  31.236   0.404
22677W        W90906  23.702  38.010   3.198
22678W        W90907  16.645  30.597  10.363
22679W        W90908  44.022  35.330  12.500
22680W        W90909  17.369  25.641  11.630
22681W        W90910  43.821   3.359  14.473
22682W        W90911  42.278  32.132   2.663
22683W        W90912  11.540  10.057  13.516
22684W        W90913  40.789   5.921  13.295
22685W        W90914  11.411   3.052  14.372
22686W        W90915  41.973  22.780  10.643
22687W        W90916  11.228   6.923  12.563
22688W        W90917  14.582   2.418  10.557
22689W        W90918  18.442  13.125  10.493
22690W        W90919  16.714  39.974  13.901
22691W        W90920  33.017  27.818  14.091
22692W        W90921  43.811  22.093   0.318
22693W        W90922   7.402  11.090  14.760
22694W        W90923  27.528  17.773   3.673
22695W        W90924  10.189   7.486   1.745
22696W        W90925  19.597  31.061  13.353
22697W        W90926  17.613  18.305  11.872
22698W        W90927  15.359  13.190   4.117
22699W        W90928  18.625   2.272  10.568
22700W        W90929  32.376  21.513   0.114
22701W        W90930  10.551  41.598  13.877
22702W        W90931  43.077   4.994  13.891
22703W        W90932   6.425  23.972  14.727
22704W        W90933  15.687  32.428   3.125
22705W        W90934  19.095  15.237   4.141
22706W        W90935  17.137   6.617  12.049
22707W        W90936  20.444  26.040   0.153
22708W        W90937  37.909  43.273   4.759
22709W        W90938   8.689  14.084   1.780
22710W        W90939  43.507  42.056  11.496
22711W        W90940  35.499  12.302   1.972
22712W        W90941  13.197  30.940   3.890
22713W        W90942   7.407  21.033  13.838
22714W        W90943  15.690  17.970   0.456
22715W        W90944  18.074  15.710   0.280
22716W        W90945  16.763   8.681  13.864
22717W        W90946  32.602  35.514   4.127
22718W        W90947   1.228   6.852   0.908
22719W        W90948   5.807  18.258  10.558
22720W        W90949   5.359  21.128  14.261
22721W        W90950  11.492   7.774   3.786
22722W        W90951  27.898  30.928   3.202
22723W        W90952  33.594   7.384   0.349
22724W        W90953   6.746  12.926  11.091
22725W        W90954  20.599  34.486   2.565
22726W        W90955  28.464  41.963  10.670
22727W        W90956  43.287  40.352  14.356
22728W        W90957  44.797  16.008  12.443
22729W        W90958  44.489   1.026   4.487
22730W        W90959   4.736   0.712  11.605
22731W        W90960  14.101  15.702  11.624
22732W        W90961   6.929   6.252  12.445
22733W        W90962  44.748  33.482  14.238
22734W        W90963  43.429   3.147  12.885
22735W        W90964  40.951   4.308   0.038
22736W        W90965  27.269  17.829  11.490
22737W        W90966  36.607   0.333  12.399
22738W        W90967   3.992  35.187   1.828
22739W        W90968  16.434  21.705   4.818
22740W        W90969  26.200  30.238  12.309
22741W        W90970  16.035  38.553   3.823
22742W        W90971   4.180  42.835   3.676
22743W        W90972  38.494  19.557  11.913
22744W        W90973  32.587  22.216   3.341
22745W        W90974   4.483   9.298  12.693
22746W        W90975  23.606   6.453  13.636
22747W        W90976   4.907  27.291  12.522
22748W        W90977  16.208  25.167   0.375
22749W        W90978  22.414  18.760   0.228
22750W        W90979  44.181   4.448   0.847
22751W        W90980  20.415  14.139  10.455
22752W        W90981  20.956  11.244  11.087
22753W        W90982   8.942  39.677  12.545
22754W        W90983  17.760   4.499  11.964
22755W        W90984   3.973  24.057   3.155
22756W        W90985  43.796  40.269   2.911
22757W        W90986  13.171  40.014   2.336
22758W        W90987  14.754  14.786  11.031
22759W        W90988  44.931  13.767   1.801
22760W        W90989  19.135  24.160  10.161
22761W        W90990  16.227  26.279   0.976
22762W        W90991  42.101  33.911  13.928
22763W        W90992   5.894  35.016   1.994
22764W        W90993  20.051  19.292  13.421
22765W        W90994  27.980  29.883  12.803
22766W        W90995  10.274   1.160   1.552
22767W        W90996  32.201  40.372   3.705
22768W        W90997   7.474  35.877  12.005
22769W        W90998  11.364  37.443   1.368
22770W        W90999  18.172  40.474   3.126
22771W        W91000  23.413  22.729  12.854
22772W        W91001   6.176  44.680  10.708
22773W        W91002  19.250  10.491   0.198
22774W        W91003  23.570  26.163  12.484
22775W        W91004  18.035   1.774  14.286
22776W        W91005  22.282  13.809  11.555
22777W        W91006  16.233  31.846  10.831
22778W        W91007  10.573  40.404   3.808
22779W        W91008  44.131  43.469   2.250
22780W        W91009   7.253   6.461   1.811
22781W        W91010  40.169  39.614   1.837
22782W        W91011  40.479  37.461   2.429
22783W        W91012  27.173  11.344   4.959
22784W        W91013   4.944  41.273   4.649
22785W        W91014  16.028  18.756  14.903
22786W        W91015   1.153  31.907   0.041
22787W        W91016  36.054  30.161   4.719
22788W        W91017   9.288  11.684   4.703
22789W        W91018   2.579  29.192  12.871
22790W        W91019   0.068  37.027   2.271
22791W        W91020  10.655  41.762  11.266
22792W        W91021   4.976  10.483   2.717
22793W        W91022  35.964   9.888   0.840
22794W        W91023   4.455  40.282   3.635
22795W        W91024  13.637   5.345  11.082
22796W        W91025  33.405  12.878   1.708
22797W        W91026  24.313   0.299   3.358
22798W        W91027  20.269   8.681   2.301
22799W        W91028  27.480  29.292   3.758
22800W        W91029   3.503   8.202  13.009
22801W        W91030  41.057  30.977  14.406
22802W        W91031  42.220  27.234   2.982
22803W        W91032   8.201  21.021  10.987
22804W        W91033  32.131  12.768   0.251
22805W        W91034  17.605   1.778  14.024
22806W        W91035  30.133  18.705   2.393
22807W        W91036  12.268  25.259  12.046
22808W        W91037  26.147  37.313   2.566
22809W        W91038  43.534   6.712   1.305
22810W        W91039  40.234   9.493  10.068
22811W        W91040  39.527  19.959   2.186
22812W        W91041  19.975  33.390  13.277
22813W        W91042  31.918  12.400   1.885
22814W        W91043  44.538  43.105  13.060
22815W        W91044  41.249  30.839   2.535
22816W        W91045   3.875   0.775  12.871
22817W        W91046  23.547   9.678  11.009
22818W        W91047  25.217  36.040   0.578
22819W        W91048  13.535  23.028   4.846
22820W        W91049  29.072  16.334   0.386
22821W        W91050  26.673  21.502   4.105
22822W        W91051  11.289  29.986   4.757
22823W        W91052  35.409  25.356  12.796
22824W        W91053  35.106  16.601   2.640
22825W        W91054  32.602  31.386  12.182
22826W        W91055  43.915  24.121  13.054
22827W        W91056  18.159  25.798   4.344
22828W        W91057   5.384  29.874   3.415
22829W        W91058  40.922  34.388   1.944
22830W        W91059  42.332   7.857   0.229
22831W        W91060   6.353  38.506  14.745
22832W        W91061  32.013  23.469  11.802
22833W        W91062  29.401  37.602  13.439
22834W        W91063  35.191  28.676  14.698
22835W        W91064  19.927   9.144   1.038
22836W        W91065  17.838  22.440   2.703
22837W        W91066   8.775  24.213   1.226
22838W        W91067  31.618  31.914  11.438
22839W        W91068  14.796  28.204   9.940
22840W        W91069  25.939  42.287  13.113
22841W        W91070   4.461  34.951   1.847
22842W        W91071  29.095  18.256  10.412
22843W        W91072  14.515  43.306   4.586
22844W        W91073  25.689   1.489   1.304
22845W        W91074  16.807   3.638  11.561
22846W        W91075  35.918  10.197  13.350
22847W        W91076  16.084  23.712   3.291
22848W        W91077  26.181  13.599  12.291
22849W        W91078   4.473  43.496   2.342
22850W        W91079  12.101   0.429   2.397
22851W        W91080  21.536  12.112  14.224
22852W        W91081  26.758   3.349   3.649
22853W        W91082  15.839  41.387  11.953
22854W        W91083  35.473   6.712  14.912
22855W        W91084  29.279  32.640   2.679
22856W        W91085  18.589  15.373  12.017
22857W        W91086  35.719  31.000   4.601
22858W        W91087  37.415  20.090   2.434
22859W        W91088  43.361  39.341   1.487
22860W        W91089  18.745  23.495  14.501
22861W        W91090  39.897  43.988  14.812
22862W        W91091  34.119   4.362   3.924
22863W        W91092  27.040  19.729   2.188
22864W        W91093  19.504  31.400   4.709
22865W        W91094  41.042   2.953   3.570
22866W        W91095  22.231   9.250  13.135
22867W        W91096   9.348  38.688  10.447
22868W        W91097  28.961  16.706  12.344
22869W        W91098  27.147  41.757  13.163
22870W        W91099  18.307  41.012  12.004
22871W        W91100  14.043  30.970  12.530
22872W        W91101  33.924   8.505  12.352
22873W        W91102   3.413   1.393   0.016
22874W        W91103  12.083   1.945  14.505
22875W        W91104   4.624  34.115   4.877
22876W        W91105  33.542  31.841  14.432
22877W        W91106  18.347  25.144   9.570
22878W        W91107  41.011  33.406  14.935
22879W        W91108  11.678   0.365   0.448
22880W        W91109  26.011  38.602   3.251
22881W        W91110  44.887  43.660   4.708
22882W        W91111  27.664  18.132   0.529
22883W        W91112  24.998   1.728  14.839
22884W        W91113  37.480  40.125  13.421
22885W        W91114  44.554  39.277   2.804
22886W        W91115  32.869  42.713  12.510
22887W        W91116   5.238   7.881   3.204
22888W        W91117  35.354  26.554  13.078
22889W        W91118  28.254  21.740  10.993
22890W        W91119  39.570  23.495   1.077
22891W        W91120   8.299   4.834  12.393
22892W        W91121  14.606   4.106   0.704
22893W        W91122  19.641  41.933  12.011
22894W        W91123   9.790   0.554   3.234
22895W        W91124   6.816   4.381   3.672
22896W        W91125  15.691   5.128   4.067
22897W        W91126   1.249  43.712   3.196
22898W        W91127   3.829   2.181   3.258
22899W        W91128  24.694   5.816   4.073
22900W        W91129  26.977  28.200  13.145
22901W        W91130  35.532   7.899   1.183
22902W        W91131  17.635  36.895  12.985
22903W        W91132  24.797  32.082  14.861
22904W        W91133  43.705  26.288   2.246
22905W        W91134  37.153   2.181   1.303
22906W        W91135  13.353  30.657  11.023
22907W        W91136  44.268  10.850  13.378
22908W        W91137  12.602  42.569  11.933
22909W        W91138   6.960  42.360   0.411
22910W        W91139  15.534  35.532   2.819
22911W        W91140  29.986  27.930   3.381
22912W        W91141  16.558  37.476  12.386
22913W        W91142   7.872  18.637  14.968
22914W        W91143  38.127  14.588   0.419
22915W        W91144  19.493  36.812  12.570
22916W        W91145  20.459   8.382  13.592
22917W        W91146   5.399   2.395  10.747
22918W        W91147  13.590  41.240  13.356
22919W        W91148  26.920  10.893   1.838
22920W        W91149   7.252  23.785   2.626
22921W        W91150  19.168  22.492  14.722
22922W        W91151   8.471  11.284  13.853
22923W        W91152   2.977   9.944   4.790
22924W        W91153   8.520   1.716  10.752
22925W        W91154  34.524  41.188  11.022
22926W        W91155  20.635  29.459  14.651
22927W        W91156  25.567  11.094  11.513
22928W        W91157  22.475  26.684  11.529
22929W        W91158  32.341  20.713   0.788
22930W        W91159  25.438  23.823  10.812
22931W        W91160   9.580   4.696   3.767
22932W        W91161  22.441  30.461   2.897
22933W        W91162  23.113  35.850  10.659
22934W        W91163  35.724  44.740  13.390
22935W        W91164  30.415  34.522   0.423
22936W        W91165  14.758  30.807   4.049
22937W        W91166  11.708  43.791  12.709
22938W        W91167  31.739  42.964  10.718
22939W        W91168  36.970  42.679  10.460
22940W        W91169  37.234  33.060  10.659
22941W        W91170  23.686  15.264   0.632
22942W        W91171  21.665  23.456   2.880
22943W        W91172  12.358  30.249  11.141
22944W        W91173   8.671   6.121   0.416
22945W        W91174  17.287   5.211  13.002
22946W        W91175  12.078  33.344  11.479
22947W        W91176   5.918  12.129   2.912
22948W        W91177  35.407  36.443  12.582
22949W        W91178  20.919  16.617   3.185
22950W        W91179  27.251   0.952   3.327
22951W        W91180  30.417  43.331  11.448
22952W        W91181  15.996  22.821   4.244
22953W        W91182  25.235  19.995  11.227
22954W        W91183  37.579  28.554   4.068
22955W        W91184  11.114  27.054  12.572
22956W        W91185  15.876  12.283  14.072
22957W        W91186  24.391  25.074  12.425
22958W        W91187   1.889  14.035  12.950
22959W        W91188  24.491  24.503  12.437
22960W        W91189  29.632   1.227   1.445
22961W        W91190  34.663  18.006  11.998
22962W        W91191   0.545  14.013  12.339
22963W        W91192  17.852  31.348   0.068
22964W        W91193  32.617  16.070   9.880
22965W        W91194  32.357  23.040   3.740
22966W        W91195  24.806  44.553   0.401
22967W        W91196  30.016  31.603   0.912
22968W        W91197  25.435  25.138   3.369
22969W        W91198  42.415  13.586   0.897
22970W        W91199  36.976  42.988   3.120
22971W        W91200  35.310  19.725   4.278
22972W        W91201  21.908  26.114   4.031
22973W        W91202   6.179  41.898   1.030
22974W        W91203  20.119  13.247   0.871
22975W        W91204   0.513  21.350  11.171
22976W        W91205   7.113  33.094   4.097
22977W        W91206  43.128  15.503  12.907
22978W        W91207  41.653  36.803  14.679
22979W        W91208  43.051  38.444  13.583
22980W        W91209   7.445  26.145  11.779
22981W        W91210  40.893  15.891  12.560
22982W        W91211   5.386  22.616   2.105
22983W        W91212  43.226  24.906   0.716
22984W        W91213   5.548  43.343   0.750
22985W        W91214   7.298  29.644  11.668
22986W        W91215   7.302   4.582   3.100
22987W        W91216  26.526  39.041   0.645
22988W        W91217  29.129  33.727  10.367
22989W        W91218  21.667  23.515   4.913
22990W        W91219  40.136  24.318  12.916
22991W        W91220  33.734  30.918  11.015
22992W        W91221   8.698  26.724   2.678
22993W        W91222  41.296  19.870  12.392
22994W        W91223  20.846   1.790  13.830
22995W        W91224  13.086   8.819  11.142
22996W        W91225  32.074  12.411  12.542
22997W        W91226  38.361  19.744   0.905
22998W        W91227  30.609  20.087  13.238
22999W        W91228  16.132  18.598   1.386
23000W        W91229  27.461   4.330   0.888
23001W        W91230  32.516  37.898  12.156
23002W        W91231  22.130  32.569  12.422
23003W        W91232  22.130  30.635   3.907
23004W        W91233   2.222  31.738   1.701
23005W        W91234  30.140  36.295   4.952
23006W        W91235  38.507  18.613  12.866
23007W        W91236   8.072  13.227   3.980
23008W        W91237  27.926  27.542   4.217
23009W        W91238  25.178  43.071  10.561
23010W        W91239  25.565   9.346   0.082
23011W        W91240  18.692   4.431  14.402
23012W        W91241  29.609  39.844  12.450
23013W        W91242  13.537  19.185  14.401
23014W        W91243  10.295   7.797  12.123
23015W        W91244   7.702  10.869   2.337
23016W        W91245  44.516  37.783   3.982
23017W        W91246   9.802  10.137   0.710
23018W        W91247  15.020  38.140   3.033
23019W        W91248   4.836   8.692   4.101
23020W        W91249  30.115  15.526  14.950
23021W        W91250  40.073   0.437  11.223
23022W        W91251   7.504  42.387   4.724
23023W        W91252  43.997  33.517   3.233
23024W        W91253  24.097   6.369  12.864
23025W        W91254  19.282  40.974   0.719
23026W        W91255  19.209  10.342  10.437
23027W        W91256  44.191  44.455   4.667
23028W        W91257  33.903  32.957   3.926
23029W        W91258  24.450  21.398  13.558
23030W        W91259   7.338  29.460  12.150
23031W        W91260   5.447  15.279  11.418
23032W        W91261   0.598   0.176  14.337
23033W        W91262   2.765  18.752   1.352
23034W        W91263   0.552  20.227  13.953
23035W        W91264  37.957  44.440  12.508
23036W        W91265  29.409  25.646  14.287
23037W        W91266  30.264  35.924   2.259
23038W        W91267  35.854   8.082  12.545
23039W        W91268  11.813  16.890   0.618
23040W        W91269   4.970  44.126  13.305
23041W        W91270  36.125  41.653   0.914
23042W        W91271  36.879  36.903   4.411
23043W        W91272  16.908  31.616   1.795
23044W        W91273  35.905  36.832   2.285
23045W        W91274  30.416  28.105   1.712
23046W        W91275  18.776  37.960   1.861
23047W        W91276  19.268  37.609  11.015
23048W        W91277  32.020  44.985   3.648
23049W        W91278   6.243  35.719  14.872
23050W        W91279  21.528  14.107   2.850
23051W        W91280  26.988   4.945   1.208
23052W        W91281   3.270  28.994   3.597
23053W        W91282  13.363  39.098   4.069
23054W        W91283  18.216  30.697   4.521
23055W        W91284  14.285  39.292  11.957
23056W        W91285  15.933   7.790   3.767
23057W        W91286  10.668  15.172   4.774
23058W        W91287   6.419  36.607   1.412
23059W        W91288   8.364  19.075   3.049
23060W        W91289  35.856   7.169   2.107
23061W        W91290  34.671  33.017   1.980
23062W        W91291  19.824  19.641  14.433
23063W        W91292  30.601   9.266   3.665
23064W        W91293  44.937  38.954  12.537
23065W        W91294   7.720  35.481   0.501
23066W        W91295  29.593  11.523   4.963
23067W        W91296  40.167   2.748  14.455
23068W        W91297   5.897   6.538  11.979
23069W        W91298  24.557  25.730   4.597
23070W        W91299  10.793   9.999   3.311
23071W        W91300  28.476  29.446  13.387
23072W        W91301  39.324   5.334   1.236
23073W        W91302  31.640  31.606   4.622
23074W        W91303  42.547  17.018  14.016
23075W        W91304  16.365  39.873  14.854
23076W        W91305  13.128  40.741  11.433
23077W        W91306  29.483  22.490   2.819
23078W        W91307  24.495  26.913  14.813
23079W        W91308  42.539  38.647  14.853
23080W        W91309  26.707  41.824   0.757
23081W        W91310  37.930  20.271   2.824
23082W        W91311   5.371  30.620   4.190
23083W        W91312  16.912  40.096   3.313
23084W        W91313  15.102   2.178   2.345
23085W        W91314  38.124  15.662   1.737
23086W        W91315   5.461   8.236   1.255
23087W        W91316  12.261  21.760  10.691
23088W        W91317  10.438  26.042  11.590
23089W        W91318  41.083  15.391  14.053
23090W        W91319  19.497  20.023   3.310
23091W        W91320  19.820  13.091  13.005
23092W        W91321  42.230   1.059   0.327
23093W        W91322  35.084  14.748   4.268
23094W        W91323  33.300   3.441   2.783
23095W        W91324   1.451  31.659   4.652
23096W        W91325  19.967  19.657  13.067
23097W        W91326  23.937   8.930  14.532
23098W        W91327  25.937  29.018   0.210
23099W        W91328  11.564  41.897  12.482
23100W        W91329  44.542  42.054  13.049
23101W        W91330  27.165  37.803  11.448
23102W        W91331  34.911  10.144  14.438
23103W        W91332  30.370  16.674   4.425
23104W        W91333   8.838   7.132   0.234
23105W        W91334  31.576   1.015   5.003
23106W        W91335   1.742  26.739   1.434
23107W        W91336  42.248   9.178  12.471
23108W        W91337  17.797  24.181   1.583
23109W        W91338  30.136  38.588   1.900
23110W        W91339  28.614   9.188   1.829
23111W        W91340   6.226  27.327   1.279
23112W        W91341  19.167   6.224  14.531
23113W        W91342  37.685  30.239  12.485
23114W        W91343   9.222  38.197  10.662
23115W        W91344  31.970  15.625   1.305
23116W        W91345  44.380  16.026   2.290
23117W        W91346  20.532  44.661   4.026
23118W        W91347  21.088  27.422  12.109
23119W        W91348  16.545  21.212   1.725
23120W        W91349  10.301  38.507  14.927
23121W        W91350  19.470  22.532   1.358
23122W        W91351   0.975  13.847  11.811
23123W        W91352  30.181  31.297   2.870
23124W        W91353  33.492  44.738  13.286
23125W        W91354  39.523  25.732  12.009
23126W        W91355  14.855  32.965  14.516
23127W        W91356  12.174  19.780   0.462
23128W        W91357   7.920   7.069   1.440
23129W        W91358  34.611   9.800  13.523
23130W        W91359  11.686  21.518   4.462
23131W        W91360  26.617  19.756   3.772
23132W        W91361  24.809  18.550   3.175
23133W        W91362   7.445  40.969   2.109
23134W        W91363   6.928  14.341   5.362
23135W        W91364  35.318   9.911  11.456
23136W        W91365  39.601  31.108  12.773
23137W        W91366  38.445   9.753   0.382
23138W        W91367  37.622   7.149   1.400
23139W        W91368   3.027   8.425   2.623
23140W        W91369  17.970  40.603  12.038
23141W        W91370  15.084   8.335  11.526
23142W        W91371   7.650  16.912   2.823
23143W        W91372  33.389   9.297   1.972
23144W        W91373  20.723  10.922   3.322
23145W        W91374  20.638  40.983  14.043
23146W        W91375   4.445  24.073   3.410
23147W        W91376  37.399  22.015  13.810
23148W        W91377  16.155  18.172   4.300
23149W        W91378  41.116  19.984  13.031
23150W        W91379   3.845  10.133  14.434
23151W        W91380   8.609  12.464   2.434
23152W        W91381  16.713  12.719   0.092
23153W        W91382  14.735   2.911  10.456
23154W        W91383  27.110  24.078   3.634
23155W        W91384  20.276  15.092  14.459
23156W        W91385  23.131  18.914   3.620
23157W        W91386  21.223  44.369   0.267
23158W        W91387   6.858  38.080  12.089
23159W        W91388  25.744  26.653   9.920
23160W        W91389  33.408  18.737   4.570
23161W        W91390  31.600  12.618  13.039
23162W        W91391  34.952  30.885  11.108
23163W        W91392  39.199  20.048   2.582
23164W        W91393  29.336  33.681   1.778
23165W        W91394  31.376  27.558  12.896
23166W        W91395  37.073  43.490   0.145
23167W        W91396  10.410  17.493  11.202
23168W        W91397  25.830  12.972   4.094
23169W        W91398  10.947  42.542   4.122
23170W        W91399  12.313  26.732  13.921
23171W        W91400   1.142   0.395  12.315
23172W        W91401  29.814  44.522   0.220
23173W        W91402  22.517  10.704  12.910
23174W        W91403  19.825  11.834   3.456
23175W        W91404  20.478  11.765   2.949
23176W        W91405  13.823  19.754   3.547
23177W        W91406  42.475   8.957   3.228
23178W        W91407  11.603  25.641   1.802
23179W        W91408  15.737  36.306  12.651
23180W        W91409  14.124  36.672  11.150
23181W        W91410  13.582  22.746   2.707
23182W        W91411  37.973  35.809   1.858
23183W        W91412  44.907  36.051   2.004
23184W        W91413   1.212  37.546   1.809
23185W        W91414  33.647  35.521  12.772
23186W        W91415   0.719  14.236   1.599
23187W        W91416   5.005  44.219   0.735
23188W        W91417   5.871  10.413  12.122
23189W        W91418   2.628  24.201  13.890
23190W        W91419  39.806  21.933  11.000
23191W        W91420  26.786  35.710  14.039
23192W        W91421  24.647   5.276   2.411
23193W        W91422  35.111  25.998  14.289
23194W        W91423  42.606  30.845   4.360
23195W        W91424   4.403  19.946  14.497
23196W        W91425   2.461  15.063   3.667
23197W        W91426  18.018  20.553  10.702
23198W        W91427  41.824  31.409  11.447
23199W        W91428  30.620  24.193   3.203
23200W        W91429  29.988  25.559   2.949
23201W        W91430  43.671  37.875  13.939
23202W        W91431  43.345   2.571   4.477
23203W        W91432   1.263   8.377   2.347
23204W        W91433  32.332   7.719   3.080
23205W        W91434   6.221  44.211  13.038
23206W        W91435  14.751   1.210  11.569
23207W        W91436  31.125   2.955   1.729
23208W        W91437   4.908  33.104   2.163
23209W        W91438  32.091  16.507  10.708
23210W        W91439  14.276  18.853  10.861
23211W        W91440  12.053  33.528  14.887
23212W        W91441  15.195  19.801  13.650
23213W        W91442  34.362  12.869  11.675
23214W        W91443  39.039  38.658  10.991
23215W        W91444  43.336  26.960  12.960
23216W        W91445  16.892   1.451  10.931
23217W        W91446  19.199  25.614  12.888
23218W        W91447  19.773  19.601   3.159
23219W        W91448  40.035  10.644  11.103
23220W        W91449  25.034  33.129  10.739
23221W        W91450   8.605  17.769  11.619
23222W        W91451  20.719  15.086   1.887
23223W        W91452  41.962  13.097   3.950
23224W        W91453  29.614  42.006   2.359
23225W        W91454   9.455  12.118  11.978
23226W        W91455  29.952  31.652  12.677
23227W        W91456  18.545  21.086   4.984
23228W        W91457  43.249  32.101  10.376
23229W        W91458  41.911   9.062   0.058
23230W        W91459   3.907   6.987  13.455
23231W        W91460   1.700   4.826  12.885
23232W        W91461   0.999  13.362   3.659
23233W        W91462  14.584   5.903  13.726
23234W        W91463  37.502  25.946  13.765
23235W        W91464   2.663  10.682   1.307
23236W        W91465  43.885  13.024   0.929
23237W        W91466   8.769  25.593   1.744
23238W        W91467  19.305  34.594  13.998
23239W        W91468  14.829  23.209  12.609
23240W        W91469   5.683   6.835  13.203
23241W        W91470  31.152  10.092  13.407
23242W        W91471  38.048  35.430  11.923
23243W        W91472  17.749   5.230  11.673
23244W        W91473  22.154  42.795   1.824
23245W        W91474   4.383  39.922   4.431
23246W        W91475   1.860   7.359   4.435
23247W        W91476  28.431  17.621  13.698
23248W        W91477   6.884   8.608  13.291
23249W        W91478   5.258  15.473   0.217
23250W        W91479  13.144  18.531   3.687
23251W        W91480   4.794  34.426   3.604
23252W        W91481  28.319   6.161  11.093
23253W        W91482  41.713  13.598  11.396
23254W        W91483  28.817  32.035   1.223
23255W        W91484  44.933  11.682  13.070
23256W        W91485  33.594  35.628   4.065
23257W        W91486   3.150   1.496  13.031
23258W        W91487  30.933   8.394   2.689
23259W        W91488  40.251  17.249   4.190
23260W        W91489   8.834   4.531   1.825
23261W        W91490  36.573  44.336   3.220
23262W        W91491  33.466  13.218   0.981
23263W        W91492  19.245  35.489   4.462
23264W        W91493  42.335  18.527   2.548
23265W        W91494   8.797   6.433  13.408
23266W        W91495  12.127  14.847   0.985
23267W        W91496  10.791  12.591  11.386
23268W        W91497  37.754  26.970  11.443
23269W        W91498  35.498   5.410  11.396
23270W        W91499  44.742  24.717   2.985
23271W        W91500   4.441   9.461   1.268
23272W        W91501  12.653   4.770  12.471
23273W        W91502  31.016   6.703  14.876
23274W        W91503  34.087  17.172   1.701
23275W        W91504  25.722   5.007   3.137
23276W        W91505  40.287  34.357  11.201
23277W        W91506   3.393  14.265  13.346
23278W        W91507  35.898  37.334  14.335
23279W        W91508  38.912  32.395  11.243
23280W        W91509  20.369   6.826   3.658
23281W        W91510  37.970  13.830  11.531
23282W        W91511   7.387  11.598   2.132
23283W        W91512  43.440  14.101  10.662
23284W        W91513   1.942  29.171   3.371
23285W        W91514  30.485  40.859   3.194
23286W        W91515  33.067  11.072  14.355
23287W        W91516  12.106   0.837   2.004
23288W        W91517  24.703  12.939   3.449
23289W        W91518   7.943  37.863  12.843
23290W        W91519   6.820  24.118   0.025
23291W        W91520  14.982  15.823  13.378
23292W        W91521  26.432  11.209   0.788
23293W        W91522  37.356   1.928  11.623
23294W        W91523  19.459   2.410  12.603
23295W        W91524  19.826  17.545   4.121
23296W        W91525  40.950   9.698  10.850
23297W        W91526  28.459   3.526   3.739
23298W        W91527  12.911   6.531   3.299
23299W        W91528   9.337  18.278  11.236
23300W        W91529  30.396   3.301  11.887
23301W        W91530  16.291  13.772   0.734
23302W        W91531  25.609  12.173  14.118
23303W        W91532  23.180  38.362  13.999
23304W        W91533   1.924   2.421   0.541
23305W        W91534   3.827  28.459   1.808
23306W        W91535  43.404  16.343   2.126
23307W        W91536  22.588  24.886   1.680
23308W        W91537  43.754  40.234   4.218
23309W        W91538  12.999  30.642  14.764
23310W        W91539   4.937  17.042  14.347
23311W        W91540  20.188   7.893  10.496
23312W        W91541   6.469  43.049   2.759
23313W        W91542  15.223  26.018  12.961
23314W        W91543   6.185  14.258  14.131
23315W        W91544  18.157   3.707  10.525
23316W        W91545  20.680  26.644   2.334
23317W        W91546  27.091  28.635  12.903
23318W        W91547  34.087  42.184   4.419
23319W        W91548  21.536   0.258  13.637
23320W        W91549  22.954  12.768  11.098
23321W        W91550   7.233  30.011  12.353
23322W        W91551  22.936  18.341  10.719
23323W        W91552   0.597  16.657  14.805
23324W        W91553  27.898  20.173   3.847
23325W        W91554  33.446   4.340  13.344
23326W        W91555  34.680  16.109  11.107
23327W        W91556   9.433  37.633  10.771
23328W        W91557  31.802  37.572  13.380
23329W        W91558  22.238  26.091  12.392
23330W        W91559  24.204  25.213  13.036
23331W        W91560  18.559   7.779   2.278
23332W        W91561  30.979  24.449  10.700
23333W        W91562  25.122  33.666  14.533
23334W        W91563  29.197  30.020  11.881
23335W        W91564   9.367  41.952   1.260
23336W        W91565  30.407  11.763  12.895
23337W        W91566  44.586  44.325   2.373
23338W        W91567  25.796   9.855   4.624
23339W        W91568  23.672  12.306  14.868
23340W        W91569  39.148  42.369   3.334
23341W        W91570  31.426  26.078  14.745
23342W        W91571   4.886  40.003   3.722
23343W        W91572  21.676  38.828   3.849
23344W        W91573  34.848  16.800   1.759
23345W        W91574  21.433  38.225   1.272
23346W        W91575   9.236  18.969  14.846
23347W        W91576  11.045  35.374  13.812
23348W        W91577  42.784  24.188   2.094
23349W        W91578  10.156  42.507  11.120
23350W        W91579  20.591  30.426  10.202
23351W        W91580  40.322  23.030   4.108
23352W        W91581  44.789  38.539  11.326
23353W        W91582  13.085   9.278  11.402
23354W        W91583  14.145   7.475   2.845
23355W        W91584   5.385  16.643   4.407
23356W        W91585  28.626  15.616   0.696
23357W        W91586   3.221  23.562   3.209
23358W        W91587  38.393   8.470  14.229
23359W        W91588  23.339   1.131  13.503
23360W        W91589  27.612  10.329  10.789
23361W        W91590  24.138  43.363  13.898
23362W        W91591  18.148  40.988   3.301
23363W        W91592  15.595  33.955  13.996
23364W        W91593  11.678   4.755   0.157
23365W        W91594  30.181  11.438  12.519
23366W        W91595  34.479  23.206   2.894
23367W        W91596   0.545  41.029  13.026
23368W        W91597  42.449  19.048  14.942
23369W        W91598  26.269  19.273  10.521
23370W        W91599   8.340   0.346   2.145
23371W        W91600  23.579  44.788  12.165
23372W        W91601  18.061  19.414  13.738
23373W        W91602   6.793   2.345  14.324
23374W        W91603  37.896  41.734  14.997
23375W        W91604   2.470  30.094  13.257
23376W        W91605  44.489  34.675  14.359
23377W        W91606  25.692   4.717  10.760
23378W        W91607  24.662  33.411  11.082
23379W        W91608  41.252   6.971   1.611
23380W        W91609  22.672  39.306   0.514
23381W        W91610   8.807  19.682   2.482
23382W        W91611  41.339   7.570  13.245
23383W        W91612  24.750  14.650  10.966
23384W        W91613   5.022  44.549   1.147
23385W        W91614  34.998  37.966   2.562
23386W        W91615  25.715  32.548   0.750
23387W        W91616  35.995  29.682  13.817
23388W        W91617  23.451  27.095  12.833
23389W        W91618  15.914   9.418   3.700
23390W        W91619  43.621  26.590   2.667
23391W        W91620  44.180   6.876   1.887
23392W        W91621  40.616  13.088   2.930
23393W        W91622  42.790   8.645  13.054
23394W        W91623  20.974  37.289   0.320
23395W        W91624  13.891   2.743   0.446
23396W        W91625   6.446  23.074   3.384
23397W        W91626  23.191  37.059  10.909
23398W        W91627   2.726   3.160  14.868
23399W        W91628  22.249  33.016   4.250
23400W        W91629   6.584  39.002   4.268
23401W        W91630  44.015   6.271  12.939
23402W        W91631  11.274  34.547   1.830
23403W        W91632  10.167  40.291   1.516
23404W        W91633   1.252  10.149  11.232
23405W        W91634   7.774  32.172  10.194
23406W        W91635  13.882  18.161  14.290
23407W        W91636   7.239  37.664   2.443
23408W        W91637   7.770   8.579  12.537
23409W        W91638  43.711  21.975  10.687
23410W        W91639   8.821   7.726  12.998
23411W        W91640  42.937  42.939   3.151
23412W        W91641  15.642  43.754   3.826
23413W        W91642  33.060   5.997   0.206
23414W        W91643   7.327  35.786  13.757
23415W        W91644   6.791  37.808   3.093
23416W        W91645  31.965  10.172  11.775
23417W        W91646  36.461  20.611   2.276
23418W        W91647  14.643  14.224  12.117
23419W        W91648  29.115  21.105   2.708
23420W        W91649  26.764  26.163   2.173
23421W        W91650  37.446  22.039  11.076
23422W        W91651  17.843  14.510  14.928
23423W        W91652  34.406  29.906  10.471
23424W        W91653  35.696  41.726   0.306
23425W        W91654   0.366  18.327   0.738
23426W        W91655  28.061  39.106   5.059
23427W        W91656  44.245  34.507   0.349
23428W        W91657  38.071  23.955  14.410
23429W        W91658   7.364  18.121  13.469
23430W        W91659   6.192   2.060   1.697
23431W        W91660  41.105  28.501  11.611
23432W        W91661  43.801  34.670   2.795
23433W        W91662  32.056  27.016  14.275
23434W        W91663  12.164  30.468   3.704
23435W        W91664  35.416   9.639  13.918
23436W        W91665  40.413  34.084   0.321
23437W        W91666  39.502  39.787  13.045
23438W        W91667  23.868  39.936  13.455
23439W        W91668  21.538  13.814  10.488
23440W        W91669  28.953  13.119  13.907
23441W        W91670   9.403  24.297  12.987
23442W        W91671   6.363  34.452   4.519
23443W        W91672   3.339   9.688  13.068
23444W        W91673   5.277  36.622   3.688
23445W        W91674  32.065  33.563   3.496
23446W        W91675   1.622  13.220  11.991
23447W        W91676  16.619   0.879   2.015
23448W        W91677  40.829  15.404  11.237
23449W        W91678   2.204   9.890   4.085
23450W        W91679  41.519  13.680  12.862
23451W        W91680  18.589  18.043   3.957
23452W        W91681  28.118  26.894  14.789
23453W        W91682  23.255   2.226   0.076
23454W        W91683  31.253  35.062  12.017
23455W        W91684   3.729  22.737  14.961
23456W        W91685  11.246   8.555  11.039
23457W        W91686   3.009  43.052   0.290
23458W        W91687  15.818   5.365  12.005
23459W        W91688   1.822  36.288  13.512
23460W        W91689  21.810  15.353  11.090
23461W        W91690  41.561   1.372   4.593
23462W        W91691  27.576   3.738   0.812
23463W        W91692  21.593  24.131   4.589
23464W        W91693  18.564  39.391   1.692
23465W        W91694  44.181  42.507  10.332
23466W        W91695   6.503  17.777  14.967
23467W        W91696  11.228   6.731   2.872
23468W        W91697  36.898   8.710   3.103
23469W        W91698  40.525  20.552   2.365
23470W        W91699  19.232   7.792  10.623
23471W        W91700  37.669   4.279   0.898
23472W        W91701  43.184  38.503   2.270
23473W        W91702  40.861   4.780   0.224
23474W        W91703   9.780   8.700   4.085
23475W        W91704  40.015  34.316   4.969
23476W        W91705  32.804   9.298   4.140
23477W        W91706  22.475  35.698  13.337
23478W        W91707  13.372   3.352   4.842
23479W        W91708  28.516   0.438   1.914
23480W        W91709  39.865   3.198   2.382
23481W        W91710   0.087  18.012   4.245
23482W        W91711  36.589   6.783  12.850
23483W        W91712  32.419  21.147  13.591
23484W        W91713  22.593  17.814  13.517
23485W        W91714   3.970  13.293   2.106
23486W        W91715  44.449  36.514   5.049
23487W        W91716   5.401  35.085  12.022
23488W        W91717  43.895   3.957  13.249
23489W        W91718  27.842  44.260   1.561
23490W        W91719  37.769  20.812  11.278
23491W        W91720  13.695   2.547  14.071
23492W        W91721  13.748  12.639  14.946
23493W        W91722   4.316  37.838   3.669
23494W        W91723  33.609  39.937  13.083
23495W        W91724  25.087  12.228   1.282
23496W        W91725  37.463   1.543  12.621
23497W        W91726  36.217  31.308  12.484
23498W        W91727  39.650   8.310  14.008
23499W        W91728  25.891  14.858  11.491
23500W        W91729  17.760  43.737   1.745
23501W        W91730  44.453  17.958  13.434
23502W        W91731   9.656  24.512   0.414
23503W        W91732   7.414   6.431  13.086
23504W        W91733   2.847  44.613  14.375
23505W        W91734   5.153  31.740  12.876
23506W        W91735   6.426   4.000   3.614
23507W        W91736  15.340  31.615   1.838
23508W        W91737  19.239  12.603   2.722
23509W        W91738   5.899  18.149  13.775
23510W        W91739  37.115  42.252   0.461
23511W        W91740  43.408  26.183   4.159
23512W        W91741  13.325  33.387  12.568
23513W        W91742  38.125  12.853  11.610
23514W        W91743  33.596  33.606   4.230
23515W        W91744  24.616   3.657  10.585
23516W        W91745  13.388  26.127   1.798
23517W        W91746  37.076   1.249   0.071
23518W        W91747  36.089  43.167  14.465
23519W        W91748  44.957   6.485   0.311
23520W        W91749  39.553  35.180   1.553
23521W        W91750  34.316  37.925  12.459
23522W        W91751  22.220  31.906   0.502
23523W        W91752  39.940  16.107   3.655
23524W        W91753  44.571  27.911   2.338
23525W        W91754  30.189  14.596  14.839
23526W        W91755  19.676  14.468  11.059
23527W        W91756  41.249  10.009  14.406
23528W        W91757   8.308  33.981   1.949
23529W        W91758  22.506  14.193  10.092
23530W        W91759  44.071  39.406   0.211
23531W        W91760  20.857  19.608  14.241
23532W        W91761  41.313  19.613  13.983
23533W        W91762  35.630  17.940   4.474
23534W        W91763  32.964  44.045   3.269
23535W        W91764  14.650   0.930  13.442
23536W        W91765  37.341  31.130   3.159
23537W        W91766   6.241  17.561  12.891
23538W        W91767  18.582  28.431  13.077
23539W        W91768  10.771  26.209   4.280
23540W        W91769  18.072  10.937   1.667
23541W        W91770  33.515  14.372   5.211
23542W        W91771  42.196  33.584   2.325
23543W        W91772  29.416  36.143   0.257
23544W        W91773  34.121  23.971   2.045
23545W        W91774  36.965  10.323  14.310
23546W        W91775  29.667  31.164  14.045
23547W        W91776   2.754  14.941  13.440
23548W        W91777  20.571  43.541   0.421
23549W        W91778   9.422  43.880   3.795
23550W        W91779  19.058   2.742  14.197
23551W        W91780  33.496  35.879  10.621
23552W        W91781   5.790   4.783   0.241
23553W        W91782  25.900   0.010  13.055
23554W        W91783   0.123  32.986   2.463
23555W        W91784  12.625  43.688  13.049
23556W        W91785  35.284  42.045   4.561
23557W        W91786  21.581  26.516   1.752
23558W        W91787  11.874   8.890   4.519
23559W        W91788  11.175  32.559   3.744
23560W        W91789  29.039  12.791   3.189
23561W        W91790  25.197   5.816  14.927
23562W        W91791   2.788  13.435  14.203
23563W        W91792  16.137  26.709   4.249
23564W        W91793   3.893  40.451  13.147
23565W        W91794  26.689  20.507  14.071
23566W        W91795  42.483  11.898   3.542
23567W        W91796   8.783  11.865  11.268
23568W        W91797  28.958  30.503  11.955
23569W        W91798  21.492  24.399   4.100
23570W        W91799  25.597  11.739  13.294
23571W        W91800  21.423  44.708   3.511
23572W        W91801  14.885  18.447  13.632
23573W        W91802  22.217  13.143   2.472
23574W        W91803  40.504   7.144  12.810
23575W        W91804  17.675  21.301  12.886
23576W        W91805  30.135  19.256   3.614
23577W        W91806  35.470  23.132   4.344
23578W        W91807  17.494  28.031   4.741
23579W        W91808   7.736  11.987  11.631
23580W        W91809  41.300   2.334  14.041
23581W        W91810   3.226   0.258   2.779
23582W        W91811  31.473  36.036  13.981
23583W        W91812   8.805  21.490  12.990
23584W        W91813  24.588  44.532  14.923
23585W        W91814  39.562  21.691  14.507
23586W        W91815  32.419  35.005  12.273
23587W        W91816   2.557  42.494   3.672
23588W        W91817  30.877  22.607   0.745
23589W        W91818  25.085  13.819  13.276
23590W        W91819  34.371  41.831  13.615
23591W        W91820  14.762   4.336  11.243
23592W        W91821   3.752  16.351   4.859
23593W        W91822  15.140  21.481  12.739
23594W        W91823  37.340  12.085   1.781
23595W        W91824  14.221  35.669   3.189
23596W        W91825  21.089  23.598  10.745
23597W        W91826   6.171  36.958  11.873
23598W        W91827  14.082  17.777   4.966
23599W        W91828  16.566  18.619  11.498
23600W        W91829   0.819  20.936   3.675
23601W        W91830  31.360   4.860   2.243
23602W        W91831   9.025  12.813   1.159
23603W        W91832  18.924   4.585   3.790
23604W        W91833   4.889  43.372  13.919
23605W        W91834  15.673  30.664  12.873
23606W        W91835  13.785  30.467  14.005
23607W        W91836  38.036   5.244  11.599
23608W        W91837  27.897  43.999  13.985
23609W        W91838  27.206  42.708  11.137
23610W        W91839  15.761  30.429   4.627
23611W        W91840  14.796  11.800   9.802
23612W        W91841   4.073  11.726   4.229
23613W        W91842  29.640  19.084   0.890
23614W        W91843   6.341  38.545   1.675
23615W        W91844  31.015   6.006   3.826
23616W        W91845  22.962  11.574  13.063
23617W        W91846  23.139  30.873   2.129
23618W        W91847  35.965  15.786   1.227
23619W        W91848  20.222  15.994   2.849
23620W        W91849  31.042  10.725  10.815
23621W        W91850  36.848  29.723   4.574
23622W        W91851  19.726  16.180  10.647
23623W        W91852   5.182   3.803   4.658
23624W        W91853  13.885  26.722   0.835
23625W        W91854  41.635  15.093   1.428
23626W        W91855  40.080  40.936  10.584
23627W        W91856  34.821  36.872  11.119
23628W        W91857  18.875  13.051  10.768
23629W        W91858  11.119  24.908   4.604
23630W        W91859  12.136  36.586   3.168
23631W        W91860   8.501  34.133   1.484
23632W        W91861  44.946  22.138   1.044
23633W        W91862  41.430  27.736  14.311
23634W        W91863  40.595  28.936   2.172
23635W        W91864  20.043  24.045   2.186
23636W        W91865  32.680  23.660  12.558
23637W        W91866  33.814  14.589   1.803
23638W        W91867  44.582  36.949  13.391
23639W        W91868   7.011   7.229  12.966
23640W        W91869   1.493  23.529  10.629
23641W        W91870  43.780  14.754  10.749
23642W        W91871  41.061  30.078  10.658
23643W        W91872  21.809  23.234   0.394
23644W        W91873  22.128  33.599   3.856
23645W        W91874  41.501  30.796  10.235
23646W        W91875  15.273  36.174  14.401
23647W        W91876  15.206   9.746  14.489
23648W        W91877   6.520   3.675  12.661
23649W        W91878  14.246   7.936   3.122
23650W        W91879  26.770   4.769  13.494
23651W        W91880  10.177   1.700  14.490
23652W        W91881  10.304  22.225  12.803
23653W        W91882  19.562  14.809   3.735
23654W        W91883  43.511  13.259  11.613
23655W        W91884  31.132  40.661  12.078
23656W        W91885  41.851  10.683   3.279
23657W        W91886  31.875  25.655  11.689
23658W        W91887  42.569  19.344   4.499
23659W        W91888  26.966   4.965  11.091
23660W        W91889  32.899  26.932  12.376
23661W        W91890  20.321   5.176   3.632
23662W        W91891  22.633   8.263  13.906
23663W        W91892  25.402   3.320   1.689
23664W        W91893  42.795  33.400  11.416
23665W        W91894  44.760  41.106   3.679
23666W        W91895  38.025  10.170  13.595
23667W        W91896  23.314   1.948  10.661
23668W        W91897  23.317  41.031   0.355
23669W        W91898  41.400  39.530  14.090
23670W        W91899  36.286  34.066  14.237
23671W        W91900  16.182   2.010   0.860
23672W        W91901  27.415  33.355  11.435
23673W        W91902  21.764  16.086   2.901
23674W        W91903   1.803  20.212   2.868
23675W        W91904   5.688  38.603  12.639
23676W        W91905  21.477  24.779  13.310
23677W        W91906  17.522  26.894   3.153
23678W        W91907   4.271   6.379  12.919
23679W        W91908  30.974   7.140   3.188
23680W        W91909  31.028  20.738  12.667
23681W        W91910  17.893  17.550   4.154
23682W        W91911  35.534  30.812  12.981
23683W        W91912  37.970   0.460  14.325
23684W        W91913  10.337   9.910  11.033
23685W        W91914   5.347   8.656  13.419
23686W        W91915  12.321  12.153   3.718
23687W        W91916  13.837   6.768   4.663
23688W        W91917   3.482  18.263   4.289
23689W        W91918  25.617   2.754  13.043
23690W        W91919  19.544  25.237  11.032
23691W        W91920  30.952  26.501   4.871
23692W        W91921  28.249  24.059  11.691
23693W        W91922   4.910   8.302  13.509
23694W        W91923  23.503  29.714  11.911
23695W        W91924   9.154  13.543  11.542
23696W        W91925  37.498  25.709   3.704
23697W        W91926   6.792  29.546  11.487
23698W        W91927  35.191  43.438   4.741
23699W        W91928  41.718   6.274   1.484
23700W        W91929  44.796   1.878   0.235
23701W        W91930  17.495   8.101   1.332
23702W        W91931  38.537  19.786   0.353
23703W        W91932  44.163  44.879  11.072
23704W        W91933   4.911   2.785  13.780
23705W        W91934   0.236  35.126   3.631
23706W        W91935  41.006  39.483  12.869
23707W        W91936  12.096  21.942   3.247
23708W        W91937   2.411  29.122   1.217
23709W        W91938  39.435  17.639   4.065
23710W        W91939  35.140  29.185  14.786
23711W        W91940   5.892  32.920  10.750
23712W        W91941  20.097  10.352  11.427
23713W        W91942  14.893  15.591  13.838
23714W        W91943  11.891  38.885  14.060
23715W        W91944  17.593  44.908   2.159
23716W        W91945  19.204  38.068   0.447
23717W        W91946  15.598   1.761   1.308
23718W        W91947  32.823  29.685  12.444
23719W        W91948  29.747  44.047   4.778
23720W        W91949  36.875  20.211  12.992
23721W        W91950   4.715  33.622   0.835
23722W        W91951   2.073  36.340   2.181
23723W        W91952  40.462  10.006  13.974
23724W        W91953  22.175  19.301  13.486
23725W        W91954   3.386  19.312  13.035
23726W        W91955  33.569  30.650   1.462
23727W        W91956   3.954  30.160   3.852
23728W        W91957  40.759  22.460  11.156
23729W        W91958  16.715  15.771  10.565
23730W        W91959  41.110   9.622   2.184
23731W        W91960  18.458  38.530   1.641
23732W        W91961  39.890  18.346   1.908
23733W        W91962  26.224  33.977   3.799
23734W        W91963   8.649   9.440  11.661
23735W        W91964  19.601  12.281   0.737
23736W        W91965  23.275  13.518   4.036
23737W        W91966  24.507   5.316   3.652
23738W        W91967  24.172   8.113   2.778
23739W        W91968  27.229  42.200   2.170
23740W        W91969  28.245  18.039   5.066
23741W        W91970  37.443  15.226  10.689
23742W        W91971  31.036  26.033  11.238
23743W        W91972   3.962  26.093  13.951
23744W        W91973  37.362  23.798   4.741
23745W        W91974  33.980  18.874  11.960
23746W        W91975   5.719  38.253   0.369
23747W        W91976  34.393  31.590   3.185
23748W        W91977   8.228  26.530   0.474
23749W        W91978  13.248  44.004   4.583
23750W        W91979  23.329   0.463  11.584
23751W        W91980  31.670  42.247   4.635
23752W        W91981   7.900  27.084   3.719
23753W        W91982   9.932  36.038   4.560
23754W        W91983  31.800  29.935  11.389
23755W        W91984  20.557  18.178   0.307
23756W        W91985  37.955   1.256  14.833
23757W        W91986  44.445  12.278  12.863
23758W        W91987   7.134  31.373  13.804
23759W        W91988  12.600  17.708   4.944
23760W        W91989   6.728  43.852   0.003
23761W        W91990  31.304  20.200   2.129
23762W        W91991  40.316  39.405   4.380
23763W        W91992  38.748  20.554  13.029
23764W        W91993   1.274  44.736  12.312
23765W        W91994  16.626  15.149  12.075
23766W        W91995  21.577   0.845   0.301
23767W        W91996  36.507  31.161  12.078
23768W        W91997  30.511  27.618  14.896
23769W        W91998  37.101  23.770   3.035
23770W        W91999  43.418   8.312  13.497
23771W        W92000  30.197  44.827   4.758
23772W        W92001  43.845  21.724  14.480
23773W        W92002   6.372  36.823  13.816
23774W        W92003  41.745  43.899   2.254
23775W        W92004  16.338  40.878  14.867
23776W        W92005  16.279  14.709  12.550
23777W        W92006   4.883   9.741  10.660
23778W        W92007  44.317  43.225  12.606
23779W        W92008  36.954  16.519  13.841
23780W        W92009  39.624   4.476   2.418
23781W        W92010  18.267  35.611  10.894
23782W        W92011   2.759   8.740  10.652
23783W        W92012   3.096  29.119   4.090
23784W        W92013  17.279  17.645   0.793
23785W        W92014  29.132   3.698   4.800
23786W        W92015  12.609   6.893  10.791
23787W        W92016  25.632  13.150  14.341
23788W        W92017  30.005  40.194  12.430
23789W        W92018  11.277  15.128   0.936
23790W        W92019  36.454   9.269   2.988
23791W        W92020  16.227   1.409  12.331
23792W        W92021  40.851  29.414  11.051
23793W        W92022  14.815  13.112   2.690
23794W        W92023   8.303   5.827  13.962
23795W        W92024  31.989   3.304  14.821
23796W        W92025  18.733   1.025  12.064
23797W        W92026  35.560  11.329   2.453
23798W        W92027   3.960   6.485  13.336
23799W        W92028   5.410   4.143  11.481
23800W        W92029  32.508  44.549  12.398
23801W        W92030   1.210  37.221  11.148
23802W        W92031  16.627  26.446  12.766
23803W        W92032  16.609  39.140   2.268
23804W        W92033  29.770  18.841  12.029
23805W        W92034  18.190  16.774   1.376
23806W        W92035  28.443  43.398   1.778
23807W        W92036  34.875  26.009   3.848
23808W        W92037   4.711  37.060   1.142
23809W        W92038  20.636  14.353  14.969
23810W        W92039  41.048  41.335   2.594
23811W        W92040  25.194  20.121  12.879
23812W        W92041  44.477  12.281   2.829
23813W        W92042  34.182  15.148   0.823
23814W        W92043   4.307  34.982  13.479
23815W        W92044  27.489   1.939  11.099
23816W        W92045  22.087  41.945   1.352
23817W        W92046  21.001  21.982   1.853
23818W        W92047  41.712  32.269   0.399
23819W        W92048   9.498  28.656   4.064
23820W        W92049  33.645  35.853   2.296
23821W        W92050  13.788  25.079   2.883
23822W        W92051  43.090  16.129   2.484
23823W        W92052  28.356   5.937   4.687
23824W        W92053  40.149  11.605  11.970
23825W        W92054  28.119   6.274   1.914
23826W        W92055   0.276  13.643   0.856
23827W        W92056  29.495  23.686  10.617
23828W        W92057  41.331  42.934  14.786
23829W        W92058  18.047  12.745   0.962
23830W        W92059  13.213   7.487  12.616
23831W        W92060  19.135  24.327   3.098
23832W        W92061  22.728  23.427   1.964
23833W        W92062  22.467   3.266  11.626
23834W        W92063   6.076  32.572   3.703
23835W        W92064   1.236   7.618  12.164
23836W        W92065  33.364  40.094   3.301
23837W        W92066  23.984  36.746  10.277
23838W        W92067  34.604  37.415   1.896
23839W        W92068  44.564  38.196  12.870
23840W        W92069  35.273  37.292  13.752
23841W        W92070  18.038   1.978  13.796
23842W        W92071  34.007  14.380   3.820
23843W        W92072  16.965  31.488  14.166
23844W        W92073   5.814   8.630   0.026
23845W        W92074   4.697  35.169   2.291
23846W        W92075   4.901  25.584   1.393
23847W        W92076  43.326  43.284   5.068
23848W        W92077  37.703  11.766   4.938
23849W        W92078   4.709  20.161   3.306
23850W        W92079  23.801   7.295  14.376
23851W        W92080   1.547   7.230   0.715
23852W        W92081  24.999  37.083  11.704
23853W        W92082  17.828  41.998   2.311
23854W        W92083  10.824  40.295   4.496
23855W        W92084   0.417  15.277  12.848
23856W        W92085  13.693   6.642  12.377
23857W        W92086  10.961   2.808   1.784
23858W        W92087   6.829  40.863  12.265
23859W        W92088  42.753  43.821  13.741
23860W        W92089  32.206  23.523   4.203
23861W        W92090  40.529  23.723   4.909
23862W        W92091   9.911  33.065   4.820
23863W        W92092  42.148  40.910   3.165
23864W        W92093  38.021  28.067  13.332
23865W        W92094  42.379  31.818  13.392
23866W        W92095   3.773  11.718  12.634
23867W        W92096  15.755  43.401   0.793
23868W        W92097   4.862  30.532   4.091
23869W        W92098  24.894  20.385  12.430
23870W        W92099  13.406  12.268   2.818
23871W        W92100   3.656  43.035   2.241
23872W        W92101  34.576   1.488   4.580
23873W        W92102  11.667  10.750   4.097
23874W        W92103   1.937  40.397   3.514
23875W        W92104  44.007  20.093  12.901
23876W        W92105  12.639  10.101  10.946
23877W        W92106  41.533   3.331  14.632
23878W        W92107  41.435  39.570   2.261
23879W        W92108   3.755  33.830  14.370
23880W        W92109  21.294  14.148   0.174
23881W        W92110  18.343  31.649   2.716
23882W        W92111  25.162  33.888  12.965
23883W        W92112  13.781  25.930   1.338
23884W        W92113  12.621  24.085  11.020
23885W        W92114  28.224  39.014   3.094
23886W        W92115  36.293  21.715   0.513
23887W        W92116  20.561  31.551   2.428
23888W        W92117   7.001   7.599  11.989
23889W        W92118  39.487  30.296   1.357
23890W        W92119  28.854  44.028  10.673
23891W        W92120   6.265  34.874   2.335
23892W        W92121  21.971  27.079  11.164
23893W        W92122  26.063  26.679   0.841
23894W        W92123  12.560  25.595  10.726
23895W        W92124  32.031  39.528   2.164
23896W        W92125  21.483  21.947   0.939
23897W        W92126  39.435  32.435  14.877
23898W        W92127  30.673  39.780   0.284
23899W        W92128  40.548  27.986   1.186
23900W        W92129  25.191   3.493  13.513
23901W        W92130  23.539  15.096  10.666
23902W        W92131  17.509  36.962  14.507
23903W        W92132  43.862   9.122  14.528
23904W        W92133  19.412  12.733   1.018
23905W        W92134  28.667  13.043   0.394
23906W        W92135  13.169  19.090  11.741
23907W        W92136  23.807  12.535  13.854
23908W        W92137   5.154  29.407  14.780
23909W        W92138  35.839  34.658   2.646
23910W        W92139  38.941  21.301  12.448
23911W        W92140  31.570  15.226   3.655
23912W        W92141  14.710  39.942   1.285
23913W        W92142  28.761  25.308   1.166
23914W        W92143  30.183  19.823   2.712
23915W        W92144  11.944  25.015  14.942
23916W        W92145  12.136  41.045  12.478
23917W        W92146  31.206  42.887  11.452
23918W        W92147   3.727  32.902   2.636
23919W        W92148  19.741  12.499   4.576
23920W        W92149  18.067  27.866  14.510
23921W        W92150  28.861  37.316  10.692
23922W        W92151  40.361  20.467   4.690
23923W        W92152   2.963   1.195  11.794
23924W        W92153  20.648  38.119   4.589
23925W        W92154   6.724   5.915  13.284
23926W        W92155  30.136   2.706   1.701
23927W        W92156  39.214  25.694  11.600
23928W        W92157  35.855   9.374   0.843
23929W        W92158   4.699  33.044  11.603
23930W        W92159  32.338  43.455  11.584
23931W        W92160  39.926  21.543  13.350
23932W        W92161  15.549   0.076   2.766
23933W        W92162  37.968  25.280  12.929
23934W        W92163  26.930  25.194  14.428
23935W        W92164   3.251  36.819  14.735
23936W        W92165  12.519  29.040  10.628
23937W        W92166   5.787  20.573   1.268
23938W        W92167  12.358   5.294   3.190
23939W        W92168  39.881  25.164  13.997
23940W        W92169  41.771  33.568  14.265
23941W        W92170   5.016   1.205   2.370
23942W        W92171   6.443  16.208  11.585
23943W        W92172   9.190   4.198   3.077
23944W        W92173  43.288  18.878   3.636
23945W        W92174   1.493  13.601   3.303
23946W        W92175   0.011   8.787  12.100
23947W        W92176  37.533  41.510  11.093
23948W        W92177   1.383  24.149  12.622
23949W        W92178  21.531   5.104   3.378
23950W        W92179  29.560  44.049  12.502
23951W        W92180  12.127  23.373   1.878
23952W        W92181  31.135  14.602   1.254
23953W        W92182  22.087  22.397   1.282
23954W        W92183  25.037  15.394   3.106
23955W        W92184  43.072  10.415  13.063
23956W        W92185  12.873  23.903  14.397
23957W        W92186  32.896  33.613  12.493
23958W        W92187  31.054  42.262   0.148
23959W        W92188  22.552  15.564   3.601
23960W        W92189  44.684  27.223   4.406
23961W        W92190  39.286   3.509  12.031
23962W        W92191   9.248  11.780  13.345
23963W        W92192  36.341  24.803  13.858
23964W        W92193  12.874  16.499   3.261
23965W        W92194  39.432  26.265  14.063
23966W        W92195  10.668  19.638   1.499
23967W        W92196   5.784  31.539   1.391
23968W        W92197  15.125  43.844   4.051
23969W        W92198  14.138  10.900   0.260
23970W        W92199  44.125   6.397   2.772
23971W        W92200   2.363  10.028  12.883
23972W        W92201  24.259   4.297   4.884
23973W        W92202   8.631  15.416   4.366
23974W        W92203  19.646  16.450  13.448
23975W        W92204   4.793  12.420   4.340
23976W        W92205  13.089  26.358   4.194
23977W        W92206   2.952  36.273  11.657
23978W        W92207  11.110  17.051  13.576
23979W        W92208  11.350   7.539  13.423
23980W        W92209  38.395  39.370   1.307
23981W        W92210  16.271  30.426  14.772
23982W        W92211  25.208   8.837  11.620
23983W        W92212   1.465  38.951  13.411
23984W        W92213  36.560  24.779   2.745
23985W        W92214  16.454  41.848   3.233
23986W        W92215   7.811  20.809   0.402
23987W        W92216   6.875  18.169  12.888
23988W        W92217  43.008  13.915  11.075
23989W        W92218  23.552   0.368   1.033
23990W        W92219  43.521  13.563   2.333
23991W        W92220  14.608  29.978  12.992
23992W        W92221  31.963   7.846  14.332
23993W        W92222  15.879  15.667   4.999
23994W        W92223   6.109  10.780  12.492
23995W        W92224   1.380  27.151   4.645
23996W        W92225  18.825  35.079  10.755
23997W        W92226  33.114   5.814  12.611
23998W        W92227   0.391   3.121   1.958
23999W        W92228  15.773  43.364  10.821
24000W        W92229  15.021  19.007   4.958
24001W        W92230  15.760  20.323  10.197
24002W        W92231  28.629  37.443   0.274
24003W        W92232  28.484  41.511   2.189
24004W        W92233  17.687  40.425  12.443
24005W        W92234  15.551  40.497   0.233
24006W        W92235  12.181  10.382  11.593
24007W        W92236  26.831  43.498   4.869
24008W        W92237  32.456   8.132   2.791
24009W        W92238  23.603  20.188  13.860
24010W        W92239  14.179   8.783  14.718
24011W        W92240  14.614  17.870   0.518
24012W        W92241  13.775  17.181   4.462
24013W        W92242   6.708  13.818   0.755
24014W        W92243  20.232  38.939  12.922
24015W        W92244  33.779  39.036  12.987
24016W        W92245   8.928  11.858   0.933
24017W        W92246  37.673  36.105  13.028
24018W        W92247  17.823  25.556  11.374
24019W        W92248  37.781   7.262  10.287
24020W        W92249   8.334  29.807  12.822
24021W        W92250  20.396  33.887   1.801
24022W        W92251  19.433  35.721  14.844
24023W        W92252  20.366  15.386   3.646
24024W        W92253  11.702  10.854   0.680
24025W        W92254  24.731  37.269  12.948
24026W        W92255  26.725   1.626  13.918
24027W        W92256  39.915   1.230   2.902
24028W        W92257  32.241  36.045  14.351
24029W        W92258  42.742  32.582  13.908
24030W        W92259  43.741  23.079   1.334
24031W        W92260   5.659  34.540   2.169
24032W        W92261  44.408  31.932   1.736
24033W        W92262  33.495  22.734   2.164
24034W        W92263  24.954  30.105  13.958
24035W        W92264  44.787  14.620  10.631
24036W        W92265  11.597  37.469  13.109
24037W        W92266   9.649  24.574   2.843
24038W        W92267  36.621  16.724  10.425
24039W        W92268  18.405  21.692   4.828
24040W        W92269  13.379   7.863  13.454
24041W        W92270   0.081  43.313   2.178
24042W        W92271  21.980  35.458   2.608
24043W        W92272  30.222  10.296  10.652
24044W        W92273  23.174  18.205  11.161
24045W        W92274  30.532  24.592   1.641
24046W        W92275  28.298  35.495   1.426
24047W        W92276  14.623   0.389  13.509
24048W        W92277  14.608  26.882  11.647
24049W        W92278  12.749  23.772   3.260
24050W        W92279  26.058   4.333  13.662
24051W        W92280  16.490   3.320  13.710
24052W        W92281  22.080  37.576  14.893
24053W        W92282  37.297  38.829  13.980
24054W        W92283  15.226  31.046   1.257
24055W        W92284  15.693  11.681  14.938
24056W        W92285  35.840  26.580  14.985
24057W        W92286  18.124  14.818  14.015
24058W        W92287  12.650  40.716  11.706
24059W        W92288  39.731   8.657   3.082
24060W        W92289  26.049  31.480   5.375
24061W        W92290  43.435  44.596   2.743
24062W        W92291   2.889  26.245   2.551
24063W        W92292  31.987  35.612  10.672
24064W        W92293  36.121  14.993   0.827
24065W        W92294  18.105  44.311  12.481
24066W        W92295  10.994  23.639   2.451
24067W        W92296  36.039  15.595   4.557
24068W        W92297  30.974  16.237  12.363
24069W        W92298  25.603  17.240  10.515
24070W        W92299  14.314  26.198   0.486
24071W        W92300  19.265  24.966  10.682
24072W        W92301  13.781  26.902  13.351
24073W        W92302  27.682  32.457   4.594
24074W        W92303  14.734  27.751  12.803
24075W        W92304   7.800  43.466   3.391
24076W        W92305  25.973  41.547  13.595
24077W        W92306  30.580  40.594  11.645
24078W        W92307  42.433  34.369   2.961
24079W        W92308  13.227  14.893   4.737
24080W        W92309   8.601   3.497   0.790
24081W        W92310  19.728  44.928  13.481
24082W        W92311   2.845  32.401   2.778
24083W        W92312  15.889  21.703   3.057
24084W        W92313  23.202  27.623   2.226
24085W        W92314  12.707   4.760  14.887
24086W        W92315  11.392  44.151   3.331
24087W        W92316  23.984  34.434   0.979
24088W        W92317  21.454   3.428  10.209
24089W        W92318  43.893  11.060  10.443
24090W        W92319  27.540   3.689   2.814
24091W        W92320  43.886  32.172   3.552
24092W        W92321  11.067  13.788  11.563
24093W        W92322  24.614  14.258  13.747
24094W        W92323  23.102   7.325   3.678
24095W        W92324  30.047   4.845   2.707
24096W        W92325  20.767   9.337   2.659
24097W        W92326  38.095  36.567  12.133
24098W        W92327  16.874   5.601  13.900
24099W        W92328  33.115  40.888   3.730
24100W        W92329  30.260  24.643   4.694
24101W        W92330  37.449  28.191   1.809
24102W        W92331  20.912  41.009   3.784
24103W        W92332  23.708  41.647   4.582
24104W        W92333  17.272  26.461   3.296
24105W        W92334  27.383  22.421   1.813
24106W        W92335  15.117   4.660   1.933
24107W        W92336  30.464  24.634   3.674
24108W        W92337  43.329  33.886  12.498
24109W        W92338  22.658   3.729   0.669
24110W        W92339  18.806  37.966  12.343
24111W        W92340  19.520   0.371  10.682
24112W        W92341  21.702  20.702   3.253
24113W        W92342  14.276  10.950   2.448
24114W        W92343  16.214   9.362   0.867
24115W        W92344   1.473   8.667   0.908
24116W        W92345  41.328  42.938   3.117
24117W        W92346  11.051  11.629  13.043
24118W        W92347  39.110  16.061   1.234
24119W        W92348  41.295  36.081   0.314
24120W        W92349  29.982   7.484  14.332
24121W        W92350   3.182  34.048   4.055
24122W        W92351  24.518  14.985  13.456
24123W        W92352  39.039  34.030   2.917
24124W        W92353   7.841  41.064  11.391
24125W        W92354  37.569  16.816   9.995
24126W        W92355  17.191  19.365  10.246
24127W        W92356  39.025  29.537  14.332
24128W        W92357  37.962  44.920  14.280
24129W        W92358  39.965  40.942   4.752
24130W        W92359  30.105  30.912  13.829
24131W        W92360  37.061  31.280   3.589
24132W        W92361  15.712  14.493   3.184
24133W        W92362  20.489  35.201   3.111
24134W        W92363  29.705   9.731   2.865
24135W        W92364  23.210   2.949   4.618
24136W        W92365  44.243  31.594  14.278
24137W        W92366   8.240  20.621   3.926
24138W        W92367  26.278   1.055   1.735
24139W        W92368  43.399   2.836  13.327
24140W        W92369  41.223  15.751   1.626
24141W        W92370  33.945   9.931  11.655
24142W        W92371  21.545  44.872  10.941
24143W        W92372  16.298   0.535  14.281
24144W        W92373   0.485  23.408  14.270
24145W        W92374  30.189  11.118  13.075
24146W        W92375  43.947  32.095   5.047
24147W        W92376  29.968  39.951   0.842
24148W        W92377   3.266  10.436  10.952
24149W        W92378  39.072  23.638   0.769
24150W        W92379   9.979  12.825   1.521
24151W        W92380  31.470  36.382   2.163
24152W        W92381  36.498  18.319   0.831
24153W        W92382  25.970  23.848  11.638
24154W        W92383  19.583  35.935   2.220
24155W        W92384  24.636   6.507   3.205
24156W        W92385  43.785  35.272   1.303
24157W        W92386  35.578   3.258   4.048
24158W        W92387   6.773  15.814   1.746
24159W        W92388  10.808  18.015  13.840
24160W        W92389   0.201  22.723  11.155
24161W        W92390  10.021   0.750  13.687
24162W        W92391  19.691  36.334  12.643
24163W        W92392   0.566  27.332   1.360
24164W        W92393  43.770  20.545  12.945
24165W        W92394  26.023  23.196   3.176
24166W        W92395  24.536   5.405  11.182
24167W        W92396  37.100  25.662   1.606
24168W        W92397  15.041  41.866  14.118
24169W        W92398  41.814  35.702  12.615
24170W        W92399  20.820   7.634   3.123
24171W        W92400  17.980  16.705  12.379
24172W        W92401  10.731  34.100   4.225
24173W        W92402  39.787  30.281   3.962
24174W        W92403  31.148  26.445  10.455
24175W        W92404  36.751  36.921  14.607
24176W        W92405  24.304  16.033  14.937
24177W        W92406  34.387  14.302   0.521
24178W        W92407  28.678   5.715   4.123
24179W        W92408   6.271  15.088   1.680
24180W        W92409  13.846  10.849  14.843
24181W        W92410  24.569   9.163   4.480
24182W        W92411   3.970  24.079  14.939
24183W        W92412  40.143  16.431   4.468
24184W        W92413  36.813  38.953   3.604
24185W        W92414  12.022  42.307  10.873
24186W        W92415  32.129   9.464  11.231
24187W        W92416  20.808  13.251  10.747
24188W        W92417   2.500  13.696  12.191
24189W        W92418  33.356  22.957   3.814
24190W        W92419   9.100   4.116  12.319
24191W        W92420  36.993  41.021  12.546
24192W        W92421  25.993   2.860   0.291
24193W        W92422  27.949  32.485  14.964
24194W        W92423  38.404  25.660   1.428
24195W        W92424   3.410  30.875   0.325
24196W        W92425  38.706  33.148   0.041
24197W        W92426  36.200  14.644  10.836
24198W        W92427  31.009  14.189   4.073
24199W        W92428  25.289  32.855  13.134
24200W        W92429  33.114  33.445   2.655
24201W        W92430  32.822   1.734   4.677
24202W        W92431  22.429  33.960   1.751
24203W        W92432   8.482  10.831  10.505
24204W        W92433  17.791  31.044  14.297
24205W        W92434   6.350  30.909  13.859
24206W        W92435  11.589   1.761  13.065
24207W        W92436  21.918   2.531  10.455
24208W        W92437  15.199  10.192  11.142
24209W        W92438  34.375   4.257  11.121
24210W        W92439   4.896  33.743   9.994
24211W        W92440  35.336  11.822   4.621
24212W        W92441  26.610  33.649   4.372
24213W        W92442  42.514  42.373   2.457
24214W        W92443  43.201  16.990  14.375
24215W        W92444  38.839   0.309  11.424
24216W        W92445  20.618  17.437  13.066
24217W        W92446  24.836  28.514  10.403
24218W        W92447  23.947  10.718   1.359
24219W        W92448  39.899  41.415   2.255
24220W        W92449   1.900   7.081  12.402
24221W        W92450  41.310  36.185   2.667
24222W        W92451  42.064  19.232   0.892
24223W        W92452  31.067  43.781  13.432
24224W        W92453  20.963   6.713  13.419
24225W        W92454   8.947  18.009   2.883
24226W        W92455  31.074  19.512   2.740
24227W        W92456  23.078   9.726  12.174
24228W        W92457  34.139   9.934  14.385
24229W        W92458  28.647   9.199  14.490
24230W        W92459  19.781  30.640   1.906
24231W        W92460  31.137  15.064  13.987
24232W        W92461   4.103   3.997   2.296
24233W        W92462  28.060  27.984  14.874
24234W        W92463  37.484  20.809   0.766
24235W        W92464   0.378  33.112  13.440
24236W        W92465  37.158  32.960   3.068
24237W        W92466  34.605  10.371  12.078
24238W        W92467  33.052  23.161  11.945
24239W        W92468  15.628   7.939   4.598
24240W        W92469   4.457  37.653   4.116
24241W        W92470  31.633   6.177  10.524
24242W        W92471  25.028  19.617  12.989
24243W        W92472  33.689  41.080  12.532
24244W        W92473   8.169  24.036  10.595
24245W        W92474  32.640   2.517  12.446
24246W        W92475  42.253  21.215  10.792
24247W        W92476   0.550  36.468  11.564
24248W        W92477  28.565  23.367  14.354
24249W        W92478  15.297  27.760  14.969
24250W        W92479  21.806  11.715  11.933
24251W        W92480  16.323  37.010   4.844
24252W        W92481  16.609  21.958  11.848
24253W        W92482  33.617   5.256   1.646
24254W        W92483   1.848  16.656  14.452
24255W        W92484   8.244   6.887  11.037
24256W        W92485  14.615  20.645  10.665
24257W        W92486  35.029  27.909  10.906
24258W        W92487  29.891   4.808  13.815
24259W        W92488   6.711  36.136   4.689
24260W        W92489  43.227  13.851  12.591
24261W        W92490  32.665  24.457  14.192
24262W        W92491  10.762  24.466   2.011
24263W        W92492   4.212  35.587   1.349
24264W        W92493   4.600   8.052  12.373
24265W        W92494  43.227  33.589  10.118
24266W        W92495  44.530  40.136  12.847
24267W        W92496  32.136  29.370  14.411
24268W        W92497   0.931  20.149   2.638
24269W        W92498   9.384   0.090   3.906
24270W        W92499  11.637  29.345  13.253
24271W        W92500  17.031  26.079   5.627
24272W        W92501   2.254  28.046  13.578
24273W        W92502  14.520  12.858   4.095
24274W        W92503  39.570  36.132  13.087
24275W        W92504  43.857  13.587  12.841
24276W        W92505  30.390  15.819   5.031
24277W        W92506   1.887  24.468   2.855
24278W        W92507  20.723  39.403   4.405
24279W        W92508  11.116   3.842   2.663
24280W        W92509   8.537   5.376   4.363
24281W        W92510  38.798  32.523   1.175
24282W        W92511  10.602  21.023  13.885
24283W        W92512   2.875   2.148   1.966
24284W        W92513  38.404  21.966  14.852
24285W        W92514   4.219  32.952  13.760
24286W        W92515  17.980  41.247   1.320
24287W        W92516  14.120  32.202  11.062
24288W        W92517  34.609  10.632   1.956
24289W        W92518  24.730  35.176   0.849
24290W        W92519  42.767  26.047  13.399
24291W        W92520  22.176  42.984  13.021
24292W        W92521  29.109  37.101  11.641
24293W        W92522  29.552  33.389   4.106
24294W        W92523  40.156  41.325   2.742
24295W        W92524  36.134   6.855  12.189
24296W        W92525  43.322  15.029  11.998
24297W        W92526  17.769  34.597  11.748
24298W        W92527  38.530  38.349  10.936
24299W        W92528  18.171  30.379  13.538
24300W        W92529  35.604  35.397  14.458
24301W        W92530  40.340   5.140  13.815
24302W        W92531   0.955  40.292  11.992
24303W        W92532   0.803  16.565   0.754
24304W        W92533  34.189  36.047  14.965
24305W        W92534  36.305  42.095   2.644
24306W        W92535   3.426  42.395  13.897
24307W        W92536  17.024   4.303   1.144
24308W        W92537  20.967   9.235  14.933
24309W        W92538  31.067  36.566   0.396
24310W        W92539  19.060  20.525  11.514
24311W        W92540   5.229   2.849   3.048
24312W        W92541  10.322  32.511  13.973
24313W        W92542  41.454  14.763   4.481
24314W        W92543   7.368   6.002   2.702
24315W        W92544  17.983  37.039   2.904
24316W        W92545  35.409  24.994   0.460
24317W        W92546  35.457  23.080  13.301
24318W        W92547  40.277  10.081   3.757
24319W        W92548  17.668  18.640  13.861
24320W        W92549  16.139   9.810  14.013
24321W        W92550  28.175  43.857   1.753
24322W        W92551   8.441  27.953  13.799
24323W        W92552  38.116  41.091  13.970
24324W        W92553  18.051  26.966  13.028
24325W        W92554  44.500  39.664  14.357
24326W        W92555   3.921  30.589   0.240
24327W        W92556  31.106  34.902   2.666
24328W        W92557  17.487   0.767  14.544
24329W        W92558  22.039  20.102   2.888
24330W        W92559  40.107  29.486   0.868
24331W        W92560  39.018  18.860   4.232
24332W        W92561   5.022  29.673  12.395
24333W        W92562  22.044  11.247  11.965
24334W        W92563  32.339   8.388  14.960
24335W        W92564  31.107  11.047   3.442
24336W        W92565  33.596  43.654  11.910
24337W        W92566   5.298  24.294   0.234
24338W        W92567  41.815  10.400   3.765
24339W        W92568  28.781   8.917   3.160
24340W        W92569  17.699  44.474   1.200
24341W        W92570  13.229   2.217   3.243
24342W        W92571  21.380  14.742   1.159
24343W        W92572  26.514  39.312   4.736
24344W        W92573  11.870  13.406   1.993
24345W        W92574  27.910  29.467  10.364
24346W        W92575  37.929  40.448  10.848
24347W        W92576   8.570  38.816   4.192
24348W        W92577  41.567   8.704  11.919
24349W        W92578   8.848  35.036   2.463
24350W        W92579  12.869  21.188  11.461
24351W        W92580   1.182  23.184  14.451
24352W        W92581  43.323  15.339  13.941
24353W        W92582  23.268   1.717   0.881
24354W        W92583  10.306  21.517  11.663
24355W        W92584  33.158  37.381  11.061
24356W        W92585  38.988  27.026   3.053
24357W        W92586  16.605   6.246   1.864
24358W        W92587  25.099  24.132  13.529
24359W        W92588  34.603   3.602   4.294
24360W        W92589  10.428  15.569  12.956
24361W        W92590  21.587  40.852  11.664
24362W        W92591  35.013  26.606  10.665
24363W        W92592  33.181   9.280   3.303
24364W        W92593  40.168  43.287  10.540
24365W        W92594  37.538  32.654   3.277
24366W        W92595  16.787   4.215  11.157
24367W        W92596  20.194  26.695   0.721
24368W        W92597   6.445   1.171  14.600
24369W        W92598   0.878  11.787   5.014
24370W        W92599  15.754  35.360  14.810
24371W        W92600  22.031  37.137  13.913
24372W        W92601   1.660   1.840   4.330
24373W        W92602  10.156  30.452   4.803
24374W        W92603   7.671  12.547   3.629
24375W        W92604   1.035   3.693  13.338
24376W        W92605  37.145  30.223  12.539
24377W        W92606   5.761  13.004   1.376
24378W        W92607  11.136  40.273   4.919
24379W        W92608  13.718  25.220  10.087
24380W        W92609   5.812  21.865  13.051
24381W        W92610   3.441  29.106  10.529
24382W        W92611  23.249   6.117  13.452
24383W        W92612  32.552  16.725   2.097
24384W        W92613  32.023  44.593  13.955
24385W        W92614   0.066  21.078  11.018
24386W        W92615  32.535   5.198   2.436
24387W        W92616  18.577  33.005   4.896
24388W        W92617  42.263  42.185  13.502
24389W        W92618  34.330  41.974   2.688
24390W        W92619  15.229   0.476   2.676
24391W        W92620   7.233  17.105   0.271
24392W        W92621  26.013  20.565  13.960
24393W        W92622  15.336  22.515   1.935
24394W        W92623  41.021  37.500   2.022
24395W        W92624  11.061  37.961  14.105
24396W        W92625  10.243  40.592   0.012
24397W        W92626  20.061   6.230  14.430
24398W        W92627  42.545   5.593  13.351
24399W        W92628  32.294   7.147   2.290
24400W        W92629  15.705  42.542   3.149
24401W        W92630  40.420  20.152  11.982
24402W        W92631  39.554  32.114  12.412
24403W        W92632  39.554   6.040  11.172
24404W        W92633  29.938  43.798   4.112
24405W        W92634  35.467  33.419  14.359
24406W        W92635  31.064  15.809   0.931
24407W        W92636  28.107  32.819   1.509
24408W        W92637  10.871  37.293  10.776
24409W        W92638   4.483   1.417  12.910
24410W        W92639  39.508   6.014   2.430
24411W        W92640  41.751  19.823   5.013
24412W        W92641  44.213  19.082   3.344
24413W        W92642  43.244   2.203   4.104
24414W        W92643  37.518  33.884   2.732
24415W        W92644  20.593   5.662  12.800
24416W        W92645  34.067  34.993  13.934
24417W        W92646  32.216   4.401  12.952
24418W        W92647  33.422  36.264  10.958
24419W        W92648  22.541   9.597   0.377
24420W        W92649  41.465   7.725  13.967
24421W        W92650  36.824   3.206  14.846
24422W        W92651  12.538  27.862  12.476
24423W        W92652  33.478  22.872  14.426
24424W        W92653  19.148  18.657   3.613
24425W        W92654  35.458  33.357  11.252
24426W        W92655  39.380   7.982   4.205
24427W        W92656   2.832  16.159  10.664
24428W        W92657  33.923  37.013  14.892
24429W        W92658   9.916  42.018   0.001
24430W        W92659   6.835  21.243   3.795
24431W        W92660  18.130   8.174  14.741
24432W        W92661  19.704  16.135   0.823
24433W        W92662  32.184  14.474   4.694
24434W        W92663   2.285   6.396  12.692
24435W        W92664  29.296  12.777  12.795
24436W        W92665  29.705   3.998   2.831
24437W        W92666  44.884  32.178  14.367
24438W        W92667  31.197   4.456   2.567
24439W        W92668  28.592  15.693   4.798
24440W        W92669  35.055  14.764  12.417
24441W        W92670  14.711  20.063   3.729
24442W        W92671   6.172  25.580  14.955
24443W        W92672  30.451  16.785  11.459
24444W        W92673   6.863  22.819  11.992
24445W        W92674  14.622  21.813  11.121
24446W        W92675   8.255  21.122  12.406
24447W        W92676  19.267  16.259   9.973
24448W        W92677  44.745  25.327  12.387
24449W        W92678  17.132  18.779  13.563
24450W        W92679   6.822  31.443  13.384
24451W        W92680   7.730   2.492   1.903
24452W        W92681  23.705  35.362  11.181
24453W        W92682  13.674  20.708  11.153
24454W        W92683  28.966   4.694   2.628
24455W        W92684  13.799  11.116  12.054
24456W        W92685  14.867   3.481  11.695
24457W        W92686  13.766  37.367  14.075
24458W        W92687  12.998  11.149  11.883
24459W        W92688  12.714   1.832   4.308
24460W        W92689   0.338  17.985  12.480
24461W        W92690   2.497  38.069  11.429
24462W        W92691  12.287  41.770   4.765
24463W        W92692  26.784  17.032   5.070
24464W        W92693  24.637   0.329  14.307
24465W        W92694   1.362  11.590  12.974
24466W        W92695   9.877   0.178   4.172
24467W        W92696  37.534  25.606   2.735
24468W        W92697   6.280  29.059   4.034
24469W        W92698  35.628  34.476  14.489
24470W        W92699  20.534   3.707   3.699
24471W        W92700  19.821  43.479   4.487
24472W        W92701   7.336  28.640   2.263
24473W        W92702  43.034  13.089   1.178
24474W        W92703   2.896  41.366  14.974
24475W        W92704   6.131  40.971  10.843
24476W        W92705   5.192  37.609  10.650
24477W        W92706  39.883  24.239   4.867
24478W        W92707  42.360  20.289  10.694
24479W        W92708  34.201   6.090   3.496
24480W        W92709  41.080  15.324   0.836
24481W        W92710  24.182   8.773  10.377
24482W        W92711   2.664  37.506   0.315
24483W        W92712  13.263  25.330   0.720
24484W        W92713   6.073  15.362  12.901
24485W        W92714   6.899  27.852  11.339
24486W        W92715  14.649   7.951   2.178
24487W        W92716  27.514  18.053  12.897
24488W        W92717  27.038  20.825  12.789
24489W        W92718   2.617  40.544   4.560
24490W        W92719  44.705  41.121   1.713
24491W        W92720  13.490  29.065  12.500
24492W        W92721  28.715  37.939  14.067
24493W        W92722  10.128  19.992   2.126
24494W        W92723  14.848  27.834  11.645
24495W        W92724  28.016  20.923  11.164
24496W        W92725  30.551  24.361  11.055
24497W        W92726  34.494  37.484  12.776
24498W        W92727  26.982   3.557  10.629
24499W        W92728  22.149  32.410   2.872
24500W        W92729  35.096  40.382  14.890
24501W        W92730  26.777  35.921  11.506
24502W        W92731  12.390  17.014  12.653
24503W        W92732  32.559  30.312   0.907
24504W        W92733  35.606   1.181  11.106
24505W        W92734  19.273  30.534  10.883
24506W        W92735  30.703  19.853  14.897
24507W        W92736  43.884   7.854   0.860
24508W        W92737   4.415  15.093   1.462
24509W        W92738  19.644  34.817  10.414
24510W        W92739  34.103  35.588  14.715
24511W        W92740   1.635  32.554   1.609
24512W        W92741  44.388  25.485  12.020
24513W        W92742  19.311   7.736   1.977
24514W        W92743   8.732  39.549   0.306
24515W        W92744  27.317  23.867   4.082
24516W        W92745  15.498  19.108  13.156
24517W        W92746   9.847  13.559   2.203
24518W        W92747  17.062  35.631  13.122
24519W        W92748  26.086  10.814   4.222
24520W        W92749  10.425  18.197  12.548
24521W        W92750  44.968  12.832   2.227
24522W        W92751  41.405  27.734   0.847
24523W        W92752  18.537  41.422   2.651
24524W        W92753  29.998  26.460  14.400
24525W        W92754   9.665   4.864   0.323
24526W        W92755  31.519  44.009  14.096
24527W        W92756  16.838   0.167   3.139
24528W        W92757  21.457  33.963   0.768
24529W        W92758  35.042  43.984   3.001
24530W        W92759  33.042   7.095  12.483
24531W        W92760   5.941   0.324   2.362
24532W        W92761  15.767   5.742   0.372
24533W        W92762   0.014   9.040   5.181
24534W        W92763  36.364   8.013   4.185
24535W        W92764  18.285  38.983   1.822
24536W        W92765  35.077  33.633  13.852
24537W        W92766  23.587  21.797   2.631
24538W        W92767  38.148  34.529   4.171
24539W        W92768  44.188  43.296   4.162
24540W        W92769  20.218  23.760  13.463
24541W        W92770   9.780  22.784   0.841
24542W        W92771   9.383  34.913  13.047
24543W        W92772   8.591  25.770  13.640
24544W        W92773  13.309  37.516   2.371
24545W        W92774  40.069  42.602  11.129
24546W        W92775   4.380  10.276   1.966
24547W        W92776  10.892   3.835   4.246
24548W        W92777  15.127  25.197   3.342
24549W        W92778  37.062   3.633   3.296
24550W        W92779  23.982  20.991  14.140
24551W        W92780  10.271   3.171  13.564
24552W        W92781  26.726  43.483  12.113
24553W        W92782   1.766  19.349  12.639
24554W        W92783  33.491  44.905   2.117
24555W        W92784   5.202  13.880  10.841
24556W        W92785  35.775  10.332  14.977
24557W        W92786  17.717  12.252   0.860
24558W        W92787  38.402  27.699   1.874
24559W        W92788  44.979  35.552  13.502
24560W        W92789  41.362  15.664   3.597
24561W        W92790  31.334  28.116   2.260
24562W        W92791  25.025  44.442  13.029
24563W        W92792  25.723  10.621   5.598
24564W        W92793   0.490  15.031   4.208
24565W        W92794  19.072  22.121  14.357
24566W        W92795  15.786  10.198   2.401
24567W        W92796  43.503   0.221   3.596
24568W        W92797  38.453  35.157  14.046
24569W        W92798   2.374  28.258   0.883
24570W        W92799   3.691  29.533   1.863
24571W        W92800  25.016  24.918   3.152
24572W        W92801  20.953  23.687   0.654
24573W        W92802  39.327  31.866  10.646
24574W        W92803  11.762  22.238  13.474
24575W        W92804  41.601  10.835   4.647
24576W        W92805   0.735  18.848  12.086
24577W        W92806  44.967  18.034  14.464
24578W        W92807  44.266   1.264  14.613
24579W        W92808  32.190  36.088  12.421
24580W        W92809  39.384  36.100   0.972
24581W        W92810  31.465  30.098  12.567
24582W        W92811  31.070  18.020   2.723
24583W        W92812  21.253  38.079  11.146
24584W        W92813  32.052  25.262   0.375
24585W        W92814  13.773  41.465  14.119
24586W        W92815   5.944  11.687  12.560
24587W        W92816  23.758   7.735   3.937
24588W        W92817  10.883  23.654   0.903
24589W        W92818  27.151  30.911   1.826
24590W        W92819   5.683   3.367   2.716
24591W        W92820  27.420  15.234  10.577
24592W        W92821  29.515  16.693   1.028
24593W        W92822  33.070  10.257   4.338
24594W        W92823  25.307  12.862   4.019
24595W        W92824  20.649  10.925  13.522
24596W        W92825  44.380  30.527  10.590
24597W        W92826   3.528   6.194  13.383
24598W        W92827  35.350  34.606   0.817
24599W        W92828   3.890  19.130   2.914
24600W        W92829  32.392  12.503  13.861
24601W        W92830   3.807  38.382  14.276
24602W        W92831  13.417  37.795   3.739
24603W        W92832  35.579   3.439  14.414
24604W        W92833  30.414   2.497   0.862
24605W        W92834  22.586  37.848   9.901
24606W        W92835  18.313   1.264   4.413
24607W        W92836  28.141  20.064  10.941
24608W        W92837   5.976  25.478   4.388
24609W        W92838  44.962  22.562  12.497
24610W        W92839  31.651  36.369   1.245
24611W        W92840  31.607  34.734   3.557
24612W        W92841  16.225  32.435   3.044
24613W        W92842  10.204   8.639   0.268
24614W        W92843  20.765  17.332  13.805
24615W        W92844  27.412  16.123   1.854
24616W        W92845  41.817  36.122  13.500
24617W        W92846  36.907  41.311  14.485
24618W        W92847  13.352  13.790   1.129
24619W        W92848  11.104  15.128  14.389
24620W        W92849   2.886  40.523  10.601
24621W        W92850   0.260   6.553   4.173
24622W        W92851  17.329  19.238   0.194
24623W        W92852  11.140   7.677   0.393
24624W        W92853  42.806  41.364  11.742
24625W        W92854  12.902  35.342   2.178
24626W        W92855  21.001   5.165   1.244
24627W        W92856  15.876   5.602   4.188
24628W        W92857   3.264  23.672  14.978
24629W        W92858  34.879   9.497   9.901
24630W        W92859  38.253   6.675  11.504
24631W        W92860   8.319  42.475  13.450
24632W        W92861  37.231  22.327   2.690
24633W        W92862  29.664  34.427  14.484
24634W        W92863  19.135  30.038   3.628
24635W        W92864  13.273  31.880  14.882
24636W        W92865  34.889   4.320  11.027
24637W        W92866  31.240  32.868  12.344
24638W        W92867  40.845  23.285   2.073
24639W        W92868  30.999  42.217   2.395
24640W        W92869  27.778   1.816  13.377
24641W        W92870   9.427  22.697   1.952
24642W        W92871   2.914  21.763   3.404
24643W        W92872  37.634  30.237   2.683
24644W        W92873  15.583   7.828   2.386
24645W        W92874  18.271  44.839  12.301
24646W        W92875  31.641  26.611  11.287
24647W        W92876  35.384  23.660  12.970
24648W        W92877  13.952  20.230   0.424
24649W        W92878  29.648   6.266   1.681
24650W        W92879   4.875   5.464  14.854
24651W        W92880   2.445  13.676   1.755
24652W        W92881   2.032  20.021  11.929
24653W        W92882  37.286  44.309  14.098
24654W        W92883  29.512  21.902  12.979
24655W        W92884  39.618  11.283   4.576
24656W        W92885  16.988  33.293  13.325
24657W        W92886  15.350  28.802   4.114
24658W        W92887   2.306  43.508  14.995
24659W        W92888  13.454  12.762   3.006
24660W        W92889  21.906  22.298  11.261
24661W        W92890   6.716  27.882   3.344
24662W        W92891  12.794   1.700   3.307
24663W        W92892  40.349  39.401  11.617
24664W        W92893  22.239  14.828   3.605
24665W        W92894  14.699  11.576  13.826
24666W        W92895  25.482   2.375   2.393
24667W        W92896  34.117  14.296  10.743
24668W        W92897  16.842  34.664  12.492
24669W        W92898   0.600  11.810   3.702
24670W        W92899  21.065  13.252   3.855
24671W        W92900  15.820  17.079  12.908
24672W        W92901  10.140   2.811   4.578
24673W        W92902   1.360   3.541   3.395
24674W        W92903   0.561  11.124   1.866
24675W        W92904   9.080  29.801  11.388
24676W        W92905  18.288   2.783   1.854
24677W        W92906  32.047  39.056   2.356
24678W        W92907  11.871   3.906   3.329
24679W        W92908  37.596  26.148  10.778
24680W        W92909   0.238   7.817  13.080
24681W        W92910  33.998  36.845  13.837
24682W        W92911  30.162  33.501   3.926
24683W        W92912  42.839   5.464  13.986
24684W        W92913  27.773  19.957  14.762
24685W        W92914   1.341  18.127  13.426
24686W        W92915  30.902   1.226  11.154
24687W        W92916  41.882  11.731  12.806
24688W        W92917  29.674   4.455   1.858
24689W        W92918  42.800  24.205  12.492
24690W        W92919  13.766  27.922  12.337
24691W        W92920   9.751  33.576  13.531
24692W        W92921  18.119  12.632  11.846
24693W        W92922  14.758  42.938   0.213
24694W        W92923   9.967  31.188   1.296
24695W        W92924   1.566  40.070   0.132
24696W        W92925  44.900  25.972   0.038
24697W        W92926  16.127  11.703   4.757
24698W        W92927  36.964  32.658  11.162
24699W        W92928  36.660  14.912  10.828
24700W        W92929  44.377  37.379  14.800
24701W        W92930  32.735  22.195  10.463
24702W        W92931  42.226   1.000   3.569
24703W        W92932   1.694  34.103   1.206
24704W        W92933  18.582  44.172   5.155
24705W        W92934  33.013  41.969   0.398
24706W        W92935   0.394  14.156  14.748
24707W        W92936  10.061  44.959  11.038
24708W        W92937  44.967  38.312   1.745
24709W        W92938  42.165  18.158  11.607
24710W        W92939   1.708   8.195  14.983
24711W        W92940  38.883  40.418  10.544
24712W        W92941  17.804   1.463   1.760
24713W        W92942  41.777  12.730  14.939
24714W        W92943  41.933   2.747   3.397
24715W        W92944  33.688  26.665   1.371
24716W        W92945  11.725   6.634   4.697
24717W        W92946  22.494  22.445   2.576
24718W        W92947  18.617  40.949   0.380
24719W        W92948  34.364  27.061  11.697
24720W        W92949  31.002   9.199  11.580
24721W        W92950  34.115   5.873   0.320
24722W        W92951  22.922  21.224  10.707
24723W        W92952  21.623  28.137  14.802
24724W        W92953  22.133  27.273  12.756
24725W        W92954  42.612  35.043  13.318
24726W        W92955  35.052   5.134   4.567
24727W        W92956  40.553  19.380   0.354
24728W        W92957   1.850   0.203  13.375
24729W        W92958  15.574  42.894   0.719
24730W        W92959  44.326  28.130  10.722
24731W        W92960  31.512  30.364  13.933
24732W        W92961  39.244  35.992  12.348
24733W        W92962  26.169   7.998  13.456
24734W        W92963  13.289  39.415  13.457
24735W        W92964  17.572  28.824   4.497
24736W        W92965  28.385   4.430  14.962
24737W        W92966  23.624  25.178  12.234
24738W        W92967   4.357  43.421  13.005
24739W        W92968  13.667  11.148  10.750
24740W        W92969  28.032   6.603   5.197
24741W        W92970  23.101  10.911   3.288
24742W        W92971  25.357   7.335   4.103
24743W        W92972  14.325  33.661  12.161
24744W        W92973  11.260  25.078   3.617
24745W        W92974   3.947  14.039  14.257
24746W        W92975  14.456  29.407   4.997
24747W        W92976  32.727  29.101   4.139
24748W        W92977  43.814   8.725  12.094
24749W        W92978  42.094  22.766   9.815
24750W        W92979  11.381  18.556   4.082
24751W        W92980  21.188  33.855   4.429
24752W        W92981  15.561  23.392   0.372
24753W        W92982   4.401  33.072   0.689
24754W        W92983  36.387  33.012   4.292
24755W        W92984  23.072  42.848   4.539
24756W        W92985  43.597  41.508  13.896
24757W        W92986  13.128   4.890   4.098
24758W        W92987  22.172  38.514   0.980
24759W        W92988  27.137  31.060  10.387
24760W        W92989   6.391  10.438  10.955
24761W        W92990  42.781  34.439  10.646
24762W        W92991   5.247  37.624   1.826
24763W        W92992  11.836  28.084   9.792
24764W        W92993  37.338  31.719   0.973
24765W        W92994   5.110  23.548   3.345
24766W        W92995  25.746  27.781  14.971
24767W        W92996   6.272   9.878   1.041
24768W        W92997  41.317  34.683   1.196
24769W        W92998   0.835  13.290  14.208
24770W        W92999  35.133  25.574  13.492
24771W        W93000  21.561  25.816  13.894
24772W        W93001  44.736  31.866  13.003
24773W        W93002   6.136  34.178  12.984
24774W        W93003  34.374   9.262  12.440
24775W        W93004   6.763  14.090  12.132
24776W        W93005   7.701  27.688   1.302
24777W        W93006   0.434  40.093   0.347
24778W        W93007   3.343  38.513  10.584
24779W        W93008  23.575  30.148  11.089
24780W        W93009  36.860  25.711   1.094
24781W        W93010  42.657   8.780  13.546
24782W        W93011   8.414   0.388   0.048
24783W        W93012  12.652   4.216  13.701
24784W        W93013  27.892  22.232  11.960
24785W        W93014  39.299  39.862   0.439
24786W        W93015  31.407   0.425   0.112
24787W        W93016   2.831  31.110   2.301
24788W        W93017  19.609  34.607   4.141
24789W        W93018  34.460  22.821   1.192
24790W        W93019  14.296  22.022   2.610
24791W        W93020  10.145  13.675  11.476
24792W        W93021   5.753  27.193   4.105
24793W        W93022  18.011  20.935   2.710
24794W        W93023  43.265  39.389  14.601
24795W        W93024  18.026  10.462   3.658
24796W        W93025  30.646  18.661   4.249
24797W        W93026  25.005  18.739  10.787
24798W        W93027  42.522  14.642   4.567
24799W        W93028  40.282  32.985  11.064
24800W        W93029   3.719  30.877  14.858
24801W        W93030   1.032  20.800   2.873
24802W        W93031   3.724  39.424  13.859
24803W        W93032  27.888  17.167  12.528
24804W        W93033  28.042   8.793  11.257
24805W        W93034  32.607  20.009  12.523
24806W        W93035  21.172  10.265  14.736
24807W        W93036  11.661   7.249   4.093
24808W        W93037  28.530   7.293  14.033
24809W        W93038  19.646  31.111   0.519
24810W        W93039  42.418  20.811  10.513
24811W        W93040   9.878  35.553   1.186
24812W        W93041  33.855  13.132  13.049
24813W        W93042  16.342  44.423   4.299
24814W        W93043   5.158  34.303  10.904
24815W        W93044  39.799  10.655  13.929
24816W        W93045   5.176  16.894   2.903
24817W        W93046   1.382  22.097  14.360
24818W        W93047   8.270  41.814  11.632
24819W        W93048  42.608  18.093  12.665
24820W        W93049  30.770  40.474   0.368
24821W        W93050  13.760  18.561   1.933
24822W        W93051  10.264  12.068   0.503
24823W        W93052  12.933  27.033  14.362
24824W        W93053  34.978  37.565  10.523
24825W        W93054  14.768  26.819   0.937
24826W        W93055  43.053  40.536  10.766
24827W        W93056   9.015   8.849   2.321
24828W        W93057   0.206  24.960  13.606
24829W        W93058  26.700  26.919  12.532
24830W        W93059   4.731  26.487  10.462
24831W        W93060   7.388   6.945  11.509
24832W        W93061  10.287  27.577   2.687
24833W        W93062  35.307  14.509  12.037
24834W        W93063  20.000  40.246   0.244
24835W        W93064  40.730   9.843   1.222
24836W        W93065  34.860  11.772   0.231
24837W        W93066  28.571   8.640  13.446
24838W        W93067  41.969  43.169  11.776
24839W        W93068   6.464  27.086  13.142
24840W        W93069   0.326  37.090  11.116
24841W        W93070  10.603  33.422   1.669
24842W        W93071  32.441  30.350  13.455
24843W        W93072  42.027  39.056   3.352
24844W        W93073  39.444   6.546   4.548
24845W        W93074   6.786  23.319  14.275
24846W        W93075  35.315  13.286   0.900
24847W        W93076   0.078  16.748   1.407
24848W        W93077  28.133  26.030   2.420
24849W        W93078  29.877  31.629   3.639
24850W        W93079  40.537   1.392   2.272
24851W        W93080  40.409  17.813   1.353
24852W        W93081   7.303  23.616   3.543
24853W        W93082   1.447   8.735  14.983
24854W        W93083  14.051  27.272  10.840
24855W        W93084  21.688   1.195   4.110
24856W        W93085   6.283  32.117  11.560
24857W        W93086  25.874  35.303   2.366
24858W        W93087  23.526  29.790  13.574
24859W        W93088   6.425  16.530  10.765
24860W        W93089  29.736  16.594  11.913
24861W        W93090  11.786  28.566  12.621
24862W        W93091  41.432  22.903   4.339
24863W        W93092  11.163  43.858  14.045
24864W        W93093  10.237   0.647  12.397
24865W        W93094   2.817  13.853   4.558
24866W        W93095  20.605  42.498  11.870
24867W        W93096   6.226  13.876   0.035
24868W        W93097  33.546  41.543  12.981
24869W        W93098  18.427  18.701  10.321
24870W        W93099  13.913  28.468   0.233
24871W        W93100  35.689  25.627  13.643
24872W        W93101   5.852  23.423  11.021
24873W        W93102  14.175   6.934  12.750
24874W        W93103  34.514  11.345   2.353
24875W        W93104  40.976  37.053  10.664
24876W        W93105  15.292  33.499   2.580
24877W        W93106  19.570  17.074   3.096
24878W        W93107   9.575   0.762  11.071
24879W        W93108   3.955  39.926  14.933
24880W        W93109  27.210  16.649   1.870
24881W        W93110  41.403  41.242  14.802
24882W        W93111   8.848  30.905   0.787
24883W        W93112  41.312  14.677   1.375
24884W        W93113  15.352  26.017   0.974
24885W        W93114  35.936  18.851  11.583
24886W        W93115  11.892  16.922  12.528
24887W        W93116  32.993  22.909   0.887
24888W        W93117  13.591   4.481  11.117
24889W        W93118  43.485  22.111  13.784
24890W        W93119  36.626   7.692  12.393
24891W        W93120  12.688  26.605  14.258
24892W        W93121  14.804   4.201  12.078
24893W        W93122  22.455  21.132  13.384
24894W        W93123  26.714  23.511  14.847
24895W        W93124  18.479   2.285   3.751
24896W        W93125  31.696   1.419  10.809
24897W        W93126  10.817   0.036  13.990
24898W        W93127   6.152  17.457   2.312
24899W        W93128  22.017  12.124   4.888
24900W        W93129  19.761  17.102  10.644
24901W        W93130  10.367  37.837  13.009
24902W        W93131   4.022  14.600  13.038
24903W        W93132  28.766  38.004   0.969
24904W        W93133  25.655  20.332   3.294
24905W        W93134   9.058  37.376  12.594
24906W        W93135  43.422  13.637  14.473
24907W        W93136  40.878  40.586   4.925
24908W        W93137  34.896   4.150  14.332
24909W        W93138  13.178   1.737  13.473
24910W        W93139  10.586   4.647   2.156
24911W        W93140  27.146  10.232   2.406
24912W        W93141  27.903  10.265  11.240
24913W        W93142  20.114  12.740   3.280
24914W        W93143  37.883  12.313   0.722
24915W        W93144   7.186  21.136  11.694
24916W        W93145  25.463  44.100  14.752
24917W        W93146  33.697   0.251   3.994
24918W        W93147  26.626  23.035  11.917
24919W        W93148  11.862  25.903   3.019
24920W        W93149   4.218  38.146   3.290
24921W        W93150  33.599   2.420  11.912
24922W        W93151  13.472  42.347   2.005
24923W        W93152   4.889  28.130   3.205
24924W        W93153  43.166  27.168  12.081
24925W        W93154  41.775  15.411  14.998
24926W        W93155  36.285  21.532   1.884
24927W        W93156  27.985  11.045   0.471
24928W        W93157   4.911  42.729  11.177
24929W        W93158   6.011  28.452  13.479
24930W        W93159  14.711   7.756  13.424
24931W        W93160  17.189  22.103   5.162
24932W        W93161  41.586  16.710  11.079
24933W        W93162  26.094  22.204  10.716
24934W        W93163  12.060  41.240  13.663
24935W        W93164  24.032  38.541   4.128
24936W        W93165   0.815  15.773   2.818
24937W        W93166  18.869  35.631   1.316
24938W        W93167  17.175   0.185   2.174
24939W        W93168  33.371  33.087  11.112
24940W        W93169   7.868  44.409  12.018
24941W        W93170   0.281  28.477   4.133
24942W        W93171   7.167  36.314  11.979
24943W        W93172   6.881  23.924  12.875
24944W        W93173  14.069  39.435   0.772
24945W        W93174  23.196  36.479   3.241
24946W        W93175  20.971  36.577   2.845
24947W        W93176  30.274  11.572   2.691
24948W        W93177   8.333  26.902  12.949
24949W        W93178  31.031  40.819  12.596
24950W        W93179  17.603  12.896  14.552
24951W        W93180  33.426  18.336  12.419
24952W        W93181  15.498   3.382  14.876
24953W        W93182  38.318   2.021  14.732
24954W        W93183  13.994  37.807   2.566
24955W        W93184   9.784  27.181   4.391
24956W        W93185  18.159  17.535   3.321
24957W        W93186  10.895  30.461   4.170
24958W        W93187   2.416   9.932  14.293
24959W        W93188  39.587  31.859   1.389
24960W        W93189  25.042  16.865  12.709
24961W        W93190  38.556  16.028  12.963
24962W        W93191  22.156  31.627   2.310
24963W        W93192  13.355  32.001  10.653
24964W        W93193   1.798  25.461  14.796
24965W        W93194  12.829  23.278   4.183
24966W        W93195  39.581  16.667  13.468
24967W        W93196  20.886   0.014   1.895
24968W        W93197  16.169  38.822  14.418
24969W        W93198  15.986   6.461   4.536
24970W        W93199  41.732   7.353  11.998
24971W        W93200   7.454  40.143  12.370
24972W        W93201  25.485  20.765  12.844
24973W        W93202  10.015  32.077  12.264
24974W        W93203  29.008  20.821   0.064
24975W        W93204  19.610  25.178   2.943
24976W        W93205  43.495  32.471  10.634
24977W        W93206  42.148  16.279  14.026
24978W        W93207  18.492  42.364  12.510
24979W        W93208  19.731  12.879   4.209
24980W        W93209   4.278   7.587  14.616
24981W        W93210  21.333  33.450  11.931
24982W        W93211  41.967  25.043  14.221
24983W        W93212  42.268  13.740   1.373
24984W        W93213  21.086  23.025  14.932
24985W        W93214  15.652  13.988   3.135
24986W        W93215   3.505  21.325  10.948
24987W        W93216  34.078  10.724  13.052
24988W        W93217  31.272   7.542   1.138
24989W        W93218   2.903  26.881  14.445
24990W        W93219   6.982   0.541  12.412
24991W        W93220  24.554  44.791   3.487
24992W        W93221  26.725  10.123  13.349
24993W        W93222  29.223  26.710   2.642
24994W        W93223  16.257  31.646  14.324
24995W        W93224  28.490  30.679  13.205
24996W        W93225  29.524   9.821   2.368
24997W        W93226  35.010  10.608   3.803
24998W        W93227  41.867  17.865   0.701
24999W        W93228  40.404  18.529  14.752
25000W        W93229  16.531  26.286  13.237
25001W        W93230   0.356   6.697   1.507
25002W        W93231  40.284  41.031   2.320
25003W        W93232  22.658  32.092   3.609
25004W        W93233  31.648  32.897  12.672
25005W        W93234  11.558  22.582  10.573
25006W        W93235   5.908  35.913   2.239
25007W        W93236  31.363  42.098   1.149
25008W        W93237  29.168  40.808   3.529
25009W        W93238  15.181  31.408  13.828
25010W        W93239   7.167   2.253   2.749
25011W        W93240  37.316   2.351   2.915
25012W        W93241   0.449  42.258  12.520
25013W        W93242  43.730  13.258   4.126
25014W        W93243  19.346  10.342   1.801
25015W        W93244   6.856  34.634  12.152
25016W        W93245   8.555  40.202   5.048
25017W        W93246  37.352   1.789   2.202
25018W        W93247  30.635   1.131  12.495
25019W        W93248  18.200   8.893   0.297
25020W        W93249  29.559  44.712  13.093
25021W        W93250  39.932   3.349   3.913
25022W        W93251  14.430  28.692   3.810
25023W        W93252  20.639  28.439  14.490
25024W        W93253  22.734  24.977   4.150
25025W        W93254   1.489  31.691   0.871
25026W        W93255  16.529  26.144   3.250
25027W        W93256  17.625  39.005  11.221
25028W        W93257  11.040   0.305  12.033
25029W        W93258  38.910  28.415  10.727
25030W        W93259  13.325  42.959  14.444
25031W        W93260  37.675  13.136  11.205
25032W        W93261   0.496  38.887  11.542
25033W        W93262  32.158  15.142   5.251
25034W        W93263  23.926   4.979   0.224
25035W        W93264   5.750  22.658  12.484
25036W        W93265   1.153  27.555  11.176
25037W        W93266  23.608  21.508   4.453
25038W        W93267   9.286  29.016  10.704
25039W        W93268   2.168  14.716  14.325
25040W        W93269  28.229  40.492   3.731
25041W        W93270  14.023  11.197  12.630
25042W        W93271  17.535  43.673  13.216
25043W        W93272  26.915  24.103   1.326
25044W        W93273   6.751  37.439  12.397
25045W        W93274  44.318   4.267  10.848
25046W        W93275   4.990  28.500  13.344
25047W        W93276  24.336  25.950   3.706
25048W        W93277  32.482  15.529   5.332
25049W        W93278   3.631  44.914   3.264
25050W        W93279  40.010  10.205  13.865
25051W        W93280  33.524  44.879   1.594
25052W        W93281  15.203   3.983  11.056
25053W        W93282  10.844   0.865  14.702
25054W        W93283  20.147  37.843   3.335
25055W        W93284  28.737   4.296   4.199
25056W        W93285  13.902  18.808   2.817
25057W        W93286  35.522  25.703  13.152
25058W        W93287  12.581   5.209   0.440
25059W        W93288   6.846  32.031   4.556
25060W        W93289  31.072  36.637   3.478
25061W        W93290  37.490  21.129   3.736
25062W        W93291  26.873  36.514  12.949
25063W        W93292  44.910  25.119   2.254
25064W        W93293  40.836  18.592   0.365
25065W        W93294  16.325  12.734  12.479
25066W        W93295  39.492   1.829  11.289
25067W        W93296  19.597   5.953   0.847
25068W        W93297  13.578  12.391  10.709
25069W        W93298  19.739  34.538  12.657
25070W        W93299  40.422  11.115  11.108
25071W        W93300  33.171   9.762   2.145
25072W        W93301  39.195  17.787  11.974
25073W        W93302  29.446  20.286  14.504
25074W        W93303  28.880  24.636  12.348
25075W        W93304  31.422  44.856  10.863
25076W        W93305  12.540  13.197  13.385
25077W        W93306  13.551   8.397   2.803
25078W        W93307   6.896  34.234   0.484
25079W        W93308  34.595  16.320   1.666
25080W        W93309  15.062  27.955   0.694
25081W        W93310  17.234  43.702  11.214
25082W        W93311  25.971  20.299   1.057
25083W        W93312   3.465   1.725   4.744
25084W        W93313  44.253   1.694  11.225
25085W        W93314  33.720  21.693   3.752
25086W        W93315  26.524  15.494   4.291
25087W        W93316  15.343  32.442  11.918
25088W        W93317  40.435  16.484   1.863
25089W        W93318  26.948  44.115   3.363
25090W        W93319  30.913  22.145  14.795
25091W        W93320   2.260  12.764   4.671
25092W        W93321  42.853   1.970  13.613
25093W        W93322  26.707   7.779  14.776
25094W        W93323   3.353   7.278   4.110
25095W        W93324   8.251  42.611  12.526
25096W        W93325  20.877   8.105  13.519
25097W        W93326  13.322  20.826  10.243
25098W        W93327  27.620  10.328   3.923
25099W        W93328  11.766  24.674   2.103
25100W        W93329  24.012  20.273  13.526
25101W        W93330  20.588   1.354  10.621
25102W        W93331  15.490   6.073   4.954
25103W        W93332  39.283  20.637   1.269
25104W        W93333  25.808  12.263  12.121
25105W        W93334  39.310  15.526   3.231
25106W        W93335  38.523  16.166  11.543
25107W        W93336  15.279  34.034   3.868
25108W        W93337  32.328  34.476   2.287
25109W        W93338  34.029  40.491  10.717
25110W        W93339  42.367   1.685  11.999
25111W        W93340  28.546  15.361  10.951
25112W        W93341  29.633  31.672   3.179
25113W        W93342   9.373   1.068  10.672
25114W        W93343  26.456   0.650  11.174
25115W        W93344  44.399   6.109  12.535
25116W        W93345  20.971  35.466  11.617
25117W        W93346  26.071   1.981   4.757
25118W        W93347   5.677  32.114   1.799
25119W        W93348   5.738  29.533   1.802
25120W        W93349   6.473  37.970  14.839
25121W        W93350  22.632  36.601  13.577
25122W        W93351  36.644  28.185   1.341
25123W        W93352   5.056   4.286  13.034
25124W        W93353  13.780   6.141   1.762
25125W        W93354  27.174   7.681   1.763
25126W        W93355  42.436  12.910  11.629
25127W        W93356  23.512  40.007  13.877
25128W        W93357  16.903  16.131   9.731
25129W        W93358  24.417   8.747  14.465
25130W        W93359  44.038  13.308  14.589
25131W        W93360  13.790   9.145   4.588
25132W        W93361  22.748  39.594   0.953
25133W        W93362   3.220  36.004   0.817
25134W        W93363   8.976  24.536  12.135
25135W        W93364  29.210   1.898   4.347
25136W        W93365  15.351  21.994  11.596
25137W        W93366  26.589  39.559  11.337
25138W        W93367   2.405   0.338  14.164
25139W        W93368  21.344  24.676   2.322
25140W        W93369  27.567  38.931  11.995
25141W        W93370  29.426  13.302   1.702
25142W        W93371  15.027   7.224   3.035
25143W        W93372  43.417   6.392  10.778
25144W        W93373   2.816  43.369  14.846
25145W        W93374  40.559  24.534   2.045
25146W        W93375   4.322   1.682   2.173
25147W        W93376  15.172  33.937   2.324
25148W        W93377  24.719  14.770  13.875
25149W        W93378  11.720  41.155  14.731
25150W        W93379  44.698   5.061  11.884
25151W        W93380  11.738  39.075   3.605
25152W        W93381  11.932   5.795  12.824
25153W        W93382  39.428  18.657   2.694
25154W        W93383  42.409   6.071  13.591
25155W        W93384  14.003  32.333   0.475
25156W        W93385  34.898  32.905  13.139
25157W        W93386  18.296  23.847   2.010
25158W        W93387  16.351  43.004  13.498
25159W        W93388  22.003  28.510  14.731
25160W        W93389  12.314  12.737  14.241
25161W        W93390   0.411  11.313   0.548
25162W        W93391  22.999  16.661  14.854
25163W        W93392   5.450  19.551   0.969
25164W        W93393   4.331  11.889   0.261
25165W        W93394  38.897  16.185   0.723
25166W        W93395  44.820   0.939   1.435
25167W        W93396  30.982   4.481  10.519
25168W        W93397  37.070  14.435  12.585
25169W        W93398  34.959   6.150   0.341
25170W        W93399  29.798  33.491  11.418
25171W        W93400  28.469  19.519  11.551
25172W        W93401   1.958  14.054  10.661
25173W        W93402  26.219  35.981   3.342
25174W        W93403  34.935  19.301  10.589
25175W        W93404  13.127  17.339   0.868
25176W        W93405  37.494  29.747  14.645
25177W        W93406  13.408   0.887   3.692
25178W        W93407  38.751  15.114  12.127
25179W        W93408  16.582  23.135   0.788
25180W        W93409  34.067  43.335   3.718
25181W        W93410  29.995   3.002  10.680
25182W        W93411  42.009  43.762   0.851
25183W        W93412  31.085  44.943   2.564
25184W        W93413   7.910  39.950   3.856
25185W        W93414   9.529  11.586   5.421
25186W        W93415  35.161  23.725   2.585
25187W        W93416   8.057  17.798  12.512
25188W        W93417  44.725  13.507   2.760
25189W        W93418  27.455   2.376  12.432
25190W        W93419  29.555  20.505  12.905
25191W        W93420  17.644  43.797  10.944
25192W        W93421   4.146   8.447   5.062
25193W        W93422  37.786  15.167  13.438
25194W        W93423   5.676  13.574  13.408
25195W        W93424  36.430  32.544  11.364
25196W        W93425  21.241  42.350  10.847
25197W        W93426   6.382  15.647  11.083
25198W        W93427  10.429   1.836  11.990
25199W        W93428  20.298  24.057   1.688
25200W        W93429  19.396  34.056  11.744
25201W        W93430  39.324  25.615  10.706
25202W        W93431  29.124  39.826   0.486
25203W        W93432   4.294  11.873  10.454
25204W        W93433  27.064  28.631  12.382
25205W        W93434  11.843  30.601   0.880
25206W        W93435   1.936  21.676  11.606
25207W        W93436  20.118  36.403   1.005
25208W        W93437   6.298  39.317   3.133
25209W        W93438  43.465  10.792   2.769
25210W        W93439  17.530   5.138  13.450
25211W        W93440  26.489  26.163   3.349
25212W        W93441   4.006  34.569   3.147
25213W        W93442  24.266   9.900  12.395
25214W        W93443  15.610  35.363  11.148
25215W        W93444  20.765  26.090  12.828
25216W        W93445  20.461  35.643  11.644
25217W        W93446  15.588  31.639   4.660
25218W        W93447   8.919  23.716  11.622
25219W        W93448  28.539  36.639  14.340
25220W        W93449  40.844   1.522   3.761
25221W        W93450  22.604   0.251   4.173
25222W        W93451  25.677  36.012   1.338
25223W        W93452  43.021  41.479   2.314
25224W        W93453  25.941  44.581   0.875
25225W        W93454  33.106  35.805  11.966
25226W        W93455  13.780   4.277   1.190
25227W        W93456  30.759  39.753  11.921
25228W        W93457   2.676  23.049   2.934
25229W        W93458  29.139  39.579  12.435
25230W        W93459  43.950  37.391  14.010
25231W        W93460  26.276  38.837   4.524
25232W        W93461  24.154  27.425   0.417
25233W        W93462  12.731  10.560  14.590
25234W        W93463  18.541  34.121   3.639
25235W        W93464  35.974  35.119   0.794
25236W        W93465  17.687  36.040   0.290
25237W        W93466  33.978   1.987  12.285
25238W        W93467   7.187  35.303  13.863
25239W        W93468  34.895  30.602  12.815
25240W        W93469  31.094   7.637  12.884
25241W        W93470  41.444   9.510  14.344
25242W        W93471  23.108  25.773   1.920
25243W        W93472  39.892  24.180  13.966
25244W        W93473  33.518  10.221  12.871
25245W        W93474  30.662  23.452  14.598
25246W        W93475  19.958  22.616   1.212
25247W        W93476  41.475   1.174  12.089
25248W        W93477  24.596  17.888   0.817
25249W        W93478  34.403  27.246  14.571
25250W        W93479   8.229  30.085   1.891
25251W        W93480  19.708  24.844   2.559
25252W        W93481   8.772  20.487  14.844
25253W        W93482  35.452   3.526  12.059
25254W        W93483  15.727  11.908   5.034
25255W        W93484   6.605   9.908   0.649
25256W        W93485  41.737  38.417   4.716
25257W        W93486   6.722  22.036  11.832
25258W        W93487  19.983   0.837   3.683
25259W        W93488  42.803   5.182  13.105
25260W        W93489  28.676  19.560  12.420
25261W        W93490  31.061   9.435   2.913
25262W        W93491  19.173  23.073  12.721
25263W        W93492  16.451  11.870  11.538
25264W        W93493  10.105  26.699  11.615
25265W        W93494  38.876  35.410  12.806
25266W        W93495  37.606  33.957   0.723
25267W        W93496   1.113  15.638  12.592
25268W        W93497   3.939  11.548  14.384
25269W        W93498  19.135  30.136   0.850
25270W        W93499  24.780  23.687  13.547
25271W        W93500  14.264   5.852   2.674
25272W        W93501  26.151  44.270   3.221
25273W        W93502  36.337  34.652   1.737
25274W        W93503  20.420   6.639   0.932
25275W        W93504  42.374  32.113  12.390
25276W        W93505  21.226  29.326   1.770
25277W        W93506  16.335  17.669   2.135
25278W        W93507  15.672  18.707  13.989
25279W        W93508  11.957  30.602  12.933
25280W        W93509  12.466  30.611   3.306
25281W        W93510  42.355  19.066  13.097
25282W        W93511  10.884  12.041  11.586
25283W        W93512   9.890   7.007   1.352
25284W        W93513  35.328  13.745  11.068
25285W        W93514  11.088  39.515   0.756
25286W        W93515  42.399   4.954  14.560
25287W        W93516  40.993  17.299  14.055
25288W        W93517   4.963   4.835   1.911
25289W        W93518  40.044  23.689  13.587
25290W        W93519   6.821   2.852   1.796
25291W        W93520  33.992  28.510  14.017
25292W        W93521  35.924  26.107  13.637
25293W        W93522  10.349  12.737  12.862
25294W        W93523   2.175  43.892   1.917
25295W        W93524  21.125   2.012   4.195
25296W        W93525  17.131  44.721   2.379
25297W        W93526  20.938  28.909  10.615
25298W        W93527  43.309  24.099   4.465
25299W        W93528   5.292  14.151  14.121
25300W        W93529  27.945  42.098  13.420
25301W        W93530  30.643  17.048   1.713
25302W        W93531  32.949  25.234   0.213
25303W        W93532   1.305  38.473   2.258
25304W        W93533  29.230  31.543   4.502
25305W        W93534  27.708  24.641  10.809
25306W        W93535  12.551  42.788   3.713
25307W        W93536  23.802  21.568  12.573
25308W        W93537   8.995   7.148   4.017
25309W        W93538  37.407  44.440  14.940
25310W        W93539  12.601  31.806   2.193
25311W        W93540  42.693   2.722   2.621
25312W        W93541   2.347  26.318  10.611
25313W        W93542  28.740  40.782   1.830
25314W        W93543  31.723  17.725  12.481
25315W        W93544  38.432  39.695  10.606
25316W        W93545  12.096  34.900  10.696
25317W        W93546  12.196  10.933   0.834
25318W        W93547   8.782  37.911  11.970
25319W        W93548  40.326  25.069  12.061
25320W        W93549  13.936  22.357   2.762
25321W        W93550  21.833  22.141  10.787
25322W        W93551  21.953  22.738  12.571
25323W        W93552  40.960  21.609  10.727
25324W        W93553  39.649   2.653  14.452
25325W        W93554  32.532  39.610   1.892
25326W        W93555  33.904  36.293  12.950
25327W        W93556  22.021   9.402   1.323
25328W        W93557   9.938  18.227  14.400
25329W        W93558   9.141  17.723  12.535
25330W        W93559  33.795  36.319   3.627
25331W        W93560  23.566  32.235   2.214
25332W        W93561   4.072  26.569  11.877
25333W        W93562  39.863  31.388  13.123
25334W        W93563  17.004   9.476   1.844
25335W        W93564  14.017  18.118   5.366
25336W        W93565  16.693  24.190  13.868
25337W        W93566  37.353  33.512  11.050
25338W        W93567  35.804  44.039  10.953
25339W        W93568  30.324   1.348   2.119
25340W        W93569  11.882  34.980   2.407
25341W        W93570  34.359   6.723   4.157
25342W        W93571  36.841  22.829  13.984
25343W        W93572  12.846  17.042  14.929
25344W        W93573  31.876  29.592  11.739
25345W        W93574   8.265  10.820  14.402
25346W        W93575  34.359  12.714  12.670
25347W        W93576   9.392  13.854   2.949
25348W        W93577  32.971  40.377  11.578
25349W        W93578   6.273   9.740   3.032
25350W        W93579  35.677  13.342   2.761
25351W        W93580   5.333  43.609  11.658
25352W        W93581  18.251  19.208  14.692
25353W        W93582  42.974  31.712   4.923
25354W        W93583  20.544  31.443  12.909
25355W        W93584  17.079  24.592  14.467
25356W        W93585  43.349   1.562  14.447
25357W        W93586  32.631   0.078  12.569
25358W        W93587  29.404   7.451  11.931
25359W        W93588  40.994  21.267  14.078
25360W        W93589  25.977  24.003  10.720
25361W        W93590  13.248   4.774  13.980
25362W        W93591  24.951  34.294  13.873
25363W        W93592  23.077  32.235   4.164
25364W        W93593  30.848  34.102  10.706
25365W        W93594  12.744   3.229  10.681
25366W        W93595  43.447  30.621   0.823
25367W        W93596   7.778  35.175   1.692
25368W        W93597  11.909   5.454  12.432
25369W        W93598  21.090  39.836   3.276
25370W        W93599  37.098   8.344   1.240
25371W        W93600  41.021  13.163  10.690
25372W        W93601  43.020  34.543  12.858
25373W        W93602  31.352  36.800   1.261
25374W        W93603  12.727  14.937  12.758
25375W        W93604  13.912  43.320   2.766
25376W        W93605  38.094  31.441  13.319
25377W        W93606  19.845  22.921   5.238
25378W        W93607  35.809  12.860   2.332
25379W        W93608  35.683   2.121  12.203
25380W        W93609  25.116   5.645  10.659
25381W        W93610  13.685  14.888   4.056
25382W        W93611  42.454  23.858   2.779
25383W        W93612   8.348  11.622   4.890
25384W        W93613  35.848  37.084   1.853
25385W        W93614   8.755   6.672  11.164
25386W        W93615   5.704  29.121  14.022
25387W        W93616  40.467   3.134  13.880
25388W        W93617  18.777  37.202   3.740
25389W        W93618   3.921  23.084  13.590
25390W        W93619  11.668  20.014   4.423
25391W        W93620  10.282  43.478   0.330
25392W        W93621  29.844  19.064   3.246
25393W        W93622  12.695  36.954   2.957
25394W        W93623  28.807  36.080   2.639
25395W        W93624   6.193  24.277   3.606
25396W        W93625  41.300   2.164  11.916
25397W        W93626  42.817  23.635   1.824
25398W        W93627  23.018  13.654   1.698
25399W        W93628  13.553  37.045   4.209
25400W        W93629  34.104  22.135   1.429
25401W        W93630   1.199   7.189   2.806
25402W        W93631  20.701  27.978  13.347
25403W        W93632  16.759  28.854   4.279
25404W        W93633   2.024  39.465  12.003
25405W        W93634  38.621   0.863  13.043
25406W        W93635  38.853  11.919   4.975
25407W        W93636  18.669  27.443   3.838
25408W        W93637   7.654  40.714  14.109
25409W        W93638  31.455  20.130   3.125
25410W        W93639  28.152  23.842  13.686
25411W        W93640   5.778  33.832  13.862
25412W        W93641   8.829  25.621   4.091
25413W        W93642  38.033  20.012   1.744
25414W        W93643  30.410  44.263  11.324
25415W        W93644   8.394  27.668   2.508
25416W        W93645  21.629  23.980   2.869
25417W        W93646   5.362  16.313  13.533
25418W        W93647   2.147  38.957  14.023
25419W        W93648  37.837   8.642   5.422
25420W        W93649   7.321  22.164  10.977
25421W        W93650  36.721   5.979  11.405
25422W        W93651  10.867  39.314  11.616
25423W        W93652   8.206  21.757  10.861
25424W        W93653   9.521  34.671  10.075
25425W        W93654  16.531  42.639   3.581
25426W        W93655  37.496  36.973   3.863
25427W        W93656  14.273  33.111   4.447
25428W        W93657  18.050  10.252   4.125
25429W        W93658  35.966  12.607   4.871
25430W        W93659   4.419  10.907   1.389
25431W        W93660  33.722  10.169   3.288
25432W        W93661  42.652   6.707   4.679
25433W        W93662  29.198  30.585  14.184
25434W        W93663  25.026  38.057  14.796
25435W        W93664  36.583   6.272  10.511
25436W        W93665  35.051  16.497   1.398
25437W        W93666  32.971  10.157  13.881
25438W        W93667  32.991  19.829  11.397
25439W        W93668  11.020  20.995   1.796
25440W        W93669  10.563  37.894   2.877
25441W        W93670  34.981   9.657   1.170
25442W        W93671   5.085   1.446   3.599
25443W        W93672  35.863  28.848  13.485
25444W        W93673  40.809  39.603   4.666
25445W        W93674  38.921  33.953  13.978
25446W        W93675   5.271  22.195  12.242
25447W        W93676   1.037  19.161   2.701
25448W        W93677  22.797  43.084   1.251
25449W        W93678  18.018  40.990  10.622
25450W        W93679  33.868  35.480   0.287
25451W        W93680  22.303  11.822  13.973
25452W        W93681  27.299  19.227  13.437
25453W        W93682   8.309   9.867  14.418
25454W        W93683   4.902  30.518  13.183
25455W        W93684  13.269   8.736  13.700
25456W        W93685  14.659  22.076  13.089
25457W        W93686   2.919   4.852   3.380
25458W        W93687  23.157  19.545  12.442
25459W        W93688   8.569   2.349   4.179
25460W        W93689   6.839  16.859  10.675
25461W        W93690  26.755   8.399   4.240
25462W        W93691   6.388  22.576   4.593
25463W        W93692  18.797  33.476   1.215
25464W        W93693  24.492  34.464  13.714
25465W        W93694  42.898  18.858  11.747
25466W        W93695  39.306  18.706  11.030
25467W        W93696  24.014  30.431  14.012
25468W        W93697  25.361  35.897  11.118
25469W        W93698   5.790  29.002   2.013
25470W        W93699  14.526  18.263   0.869
25471W        W93700  21.045  25.610  12.401
25472W        W93701   6.832   4.794   0.370
25473W        W93702  36.384  35.955   1.006
25474W        W93703  34.775  16.741  14.081
25475W        W93704   5.308  15.896   2.752
25476W        W93705   7.301   4.952   4.807
25477W        W93706   7.376  18.765  13.884
25478W        W93707  39.340  23.474  13.554
25479W        W93708   4.471  30.530   4.458
25480W        W93709  22.103  41.818  12.054
25481W        W93710   7.990  20.158  13.933
25482W        W93711  40.008   0.560   1.257
25483W        W93712  15.780  39.703  12.601
25484W        W93713  26.139  40.123   3.322
25485W        W93714  21.709   3.717   2.157
25486W        W93715  34.382  28.210   2.225
25487W        W93716  23.038  10.387  13.592
25488W        W93717  26.147  28.870  14.453
25489W        W93718  17.649   8.595  10.357
25490W        W93719  29.466  20.414  10.584
25491W        W93720  29.060  38.467   4.368
25492W        W93721  37.015  24.695  11.944
25493W        W93722  30.642   9.909   0.124
25494W        W93723  12.528  22.886  12.143
25495W        W93724  24.694   8.316  14.382
25496W        W93725   4.965   8.241  14.512
25497W        W93726   5.397   3.506   1.551
25498W        W93727   5.462  27.428   3.273
25499W        W93728  26.743   0.438  13.983
25500W        W93729  33.119  39.548  11.167
25501W        W93730  18.464  19.137  12.880
25502W        W93731  20.032  15.160  14.979
25503W        W93732  15.489   7.384   1.830
25504W        W93733   7.278  35.184   3.903
25505W        W93734  22.022  23.406  12.068
25506W        W93735  23.592  13.339   0.320
25507W        W93736  27.752  40.377  12.162
25508W        W93737  25.126  27.745  14.476
25509W        W93738  35.824  26.478   0.810
25510W        W93739  18.089  21.440  14.906
25511W        W93740  38.415   4.342  13.475
25512W        W93741  32.199  15.028   4.746
25513W        W93742   2.647  24.577   3.155
25514W        W93743  17.964  37.470   3.269
25515W        W93744  24.305  36.123  12.411
25516W        W93745  23.764  26.277   2.396
25517W        W93746  15.508  27.110   0.327
25518W        W93747  10.860  42.818  12.336
25519W        W93748  15.503  20.212   5.380
25520W        W93749  39.265  22.636  12.042
25521W        W93750   9.594  19.337   0.976
25522W        W93751  12.119   9.796  10.720
25523W        W93752   4.334   8.814   4.123
25524W        W93753  13.798  38.830   4.086
25525W        W93754  20.309   2.992  13.875
25526W        W93755  23.003  34.144   4.083
25527W        W93756  28.709  10.327   3.320
25528W        W93757  20.555   0.647  11.649
25529W        W93758  42.651  13.380   1.388
25530W        W93759  33.175  22.410   0.809
25531W        W93760   9.196  41.424  13.059
25532W        W93761  36.298  38.893  12.128
25533W        W93762  31.598   5.261   1.981
25534W        W93763  19.733   4.726  13.083
25535W        W93764  10.695  37.761  10.936
25536W        W93765  33.456  43.002  11.158
25537W        W93766   8.870   2.646   1.017
25538W        W93767  32.420   8.738  13.004
25539W        W93768  39.124  29.010  14.252
25540W        W93769  18.226  11.091   0.358
25541W        W93770   8.968   5.951   3.636
25542W        W93771   9.932  14.711  11.222
25543W        W93772  35.645  15.433  14.997
25544W        W93773  13.603  30.711  14.433
25545W        W93774  44.070  40.376  10.746
25546W        W93775  31.705  28.362  11.160
25547W        W93776  37.965  37.144   2.275
25548W        W93777  29.314  27.149  13.244
25549W        W93778  14.446  30.045  10.748
25550W        W93779  33.182  30.057  12.431
25551W        W93780  35.980  20.501  13.901
25552W        W93781  34.970  40.121  13.030
25553W        W93782  21.253  36.983   3.562
25554W        W93783   4.744  24.491   3.229
25555W        W93784   7.972  15.677  13.056
25556W        W93785  18.980   0.408  11.577
25557W        W93786  23.014  39.785   1.580
25558W        W93787   6.769  16.744   4.242
25559W        W93788   9.183  44.023   0.626
25560W        W93789  24.099  42.594   1.942
25561W        W93790  21.565   8.728   4.999
25562W        W93791  13.757  37.920  14.274
25563W        W93792  39.780  43.981   3.186
25564W        W93793  22.960  14.240   0.941
25565W        W93794   4.783  31.589   3.092
25566W        W93795   1.776  13.837   3.677
25567W        W93796  28.450  28.982  12.538
25568W        W93797  20.642  42.564   3.793
25569W        W93798   6.238  10.651   4.378
25570W        W93799  14.384  35.036   0.273
25571W        W93800  20.627  10.813   2.839
25572W        W93801   2.321   2.330  12.893
25573W        W93802  14.568  16.129   4.277
25574W        W93803   4.694  22.273   3.281
25575W        W93804  44.431   7.636   3.653
25576W        W93805   3.613  15.436  12.975
25577W        W93806  32.937   1.688  14.423
25578W        W93807  16.769  25.436   1.924
25579W        W93808  14.907  38.009  12.953
25580W        W93809  19.848  41.719   4.156
25581W        W93810  28.553  12.215   0.773
25582W        W93811  24.075  14.057  11.970
25583W        W93812   5.745   6.640  14.848
25584W        W93813  30.237  36.922  14.447
25585W        W93814  29.232   4.455   4.159
25586W        W93815  20.923  18.317   1.326
25587W        W93816  21.090  16.145  14.369
25588W        W93817   8.209  26.531   4.748
25589W        W93818   5.384   5.219   0.687
25590W        W93819  24.522   5.449  12.070
25591W        W93820  37.580  12.662   0.476
25592W        W93821   3.614  32.443   1.307
25593W        W93822   1.200   2.595   3.352
25594W        W93823  20.057  19.752  12.574
25595W        W93824   5.740   6.247  12.545
25596W        W93825  40.477  25.565  12.040
25597W        W93826  42.499  32.102   1.827
25598W        W93827  16.435  21.073  14.394
25599W        W93828  27.725  35.148   2.190
25600W        W93829   2.704  37.121  14.947
25601W        W93830  37.930  36.798  12.575
25602W        W93831  26.694  35.427   5.068
25603W        W93832  17.034  12.725   4.558
25604W        W93833   3.262  25.987  12.049
25605W        W93834  35.859  26.467  14.003
25606W        W93835  29.895  32.975   0.854
25607W        W93836   3.758  11.104  12.566
25608W        W93837  44.900  37.055  12.449
25609W        W93838  33.063  34.349   1.864
25610W        W93839  40.980   7.518  14.032
25611W        W93840  11.521   7.798  13.968
25612W        W93841  22.973   6.939  12.443
25613W        W93842  18.968  20.022   3.269
25614W        W93843  21.722   8.586  13.451
25615W        W93844  28.455  33.151  12.570
25616W        W93845  41.902  43.474   3.557
25617W        W93846   9.338  20.760   2.948
25618W        W93847   9.209  38.366  14.082
25619W        W93848  39.370  14.677  12.586
25620W        W93849   0.177   9.256   0.884
25621W        W93850  27.857  13.277  14.302
25622W        W93851  13.750  39.675  13.344
25623W        W93852  16.063  17.990  11.417
25624W        W93853  19.037  22.810   1.252
25625W        W93854   5.371  28.146   1.654
25626W        W93855  29.442  33.163  13.811
25627W        W93856  18.986  17.954   0.487
25628W        W93857  37.142  22.824  12.669
25629W        W93858  19.775  33.935  14.413
25630W        W93859   9.653  42.499  12.539
25631W        W93860  32.970  17.020  14.230
25632W        W93861  20.480   4.222  12.320
25633W        W93862  11.314  11.415  12.456
25634W        W93863  12.354   3.106  12.754
25635W        W93864  39.618   8.855  10.264
25636W        W93865  21.573  34.263  10.263
25637W        W93866  18.098  44.902  13.280
25638W        W93867  13.754  18.302  12.934
25639W        W93868  37.567  17.873   4.299
25640W        W93869  16.918  18.756   4.084
25641W        W93870  37.535  23.710   2.744
25642W        W93871  41.660  26.768  11.245
25643W        W93872  30.088   5.009   1.249
25644W        W93873  44.211  35.507   4.429
25645W        W93874  28.462  25.980  12.888
25646W        W93875  35.768  27.579   1.288
25647W        W93876  29.509  25.451   4.590
25648W        W93877  28.706   9.111   0.365
25649W        W93878  24.347  34.870  12.516
25650W        W93879  40.965   2.850   3.066
25651W        W93880  16.710  32.560   2.915
25652W        W93881   3.069   6.763   1.814
25653W        W93882  31.951  32.897   1.405
25654W        W93883  25.453   6.229  14.066
25655W        W93884  10.580  24.548  11.083
25656W        W93885   7.241   8.112  10.724
25657W        W93886  19.128  25.470  14.800
25658W        W93887  37.431  31.720   3.658
25659W        W93888  44.195  24.567   0.853
25660W        W93889  15.537   2.110   2.659
25661W        W93890  15.352  43.900  14.849
25662W        W93891   9.833  25.373  14.082
25663W        W93892  31.040  11.218  10.614
25664W        W93893  21.851  39.014  12.172
25665W        W93894  40.216  14.224  10.654
25666W        W93895   1.461  25.459   0.941
25667W        W93896  40.533   1.282   1.508
25668W        W93897  37.858  16.641  13.767
25669W        W93898  40.329  28.549  12.163
25670W        W93899  10.765  32.457   4.558
25671W        W93900  31.318  15.217   0.274
25672W        W93901  36.792  21.651   0.498
25673W        W93902  16.645  39.312   1.780
25674W        W93903  35.033  33.724  12.898
25675W        W93904  36.123  27.096  11.160
25676W        W93905  41.861   0.103   1.419
25677W        W93906  40.810  38.537   3.703
25678W        W93907  17.601  29.831  12.744
25679W        W93908  27.949   3.909  11.159
25680W        W93909  29.906  41.703  13.525
25681W        W93910  42.932  15.120   0.839
25682W        W93911   9.287   9.125   2.787
25683W        W93912  30.538  11.616   3.144
25684W        W93913  12.832   5.205  10.767
25685W        W93914  40.735  15.989   2.385
25686W        W93915  30.886  24.147  13.531
25687W        W93916   1.778  40.840   0.226
25688W        W93917  21.269  37.340   3.157
25689W        W93918   3.235  29.222  14.037
25690W        W93919  16.683  15.447   5.405
25691W        W93920  15.560  11.214   3.211
25692W        W93921  32.082  39.625   0.901
25693W        W93922  37.379   6.253  13.012
25694W        W93923  22.147  32.183  13.336
25695W        W93924  14.355   4.750  11.177
25696W        W93925  15.151  33.496   1.273
25697W        W93926  32.416  27.051  11.147
25698W        W93927  44.081   0.370   4.859
25699W        W93928   6.696  18.383   4.789
25700W        W93929  35.201   9.803   4.189
25701W        W93930   8.425   0.470   4.360
25702W        W93931  26.758   0.183  11.301
25703W        W93932  22.739   1.752   0.920
25704W        W93933  19.596  32.588   3.745
25705W        W93934  34.957  28.359   3.240
25706W        W93935  28.245  23.035   0.872
25707W        W93936  11.727  40.075  11.036
25708W        W93937  23.792   5.283   2.694
25709W        W93938  31.750  16.930  14.072
25710W        W93939   9.409  39.351  14.251
25711W        W93940   4.171  29.923  13.101
25712W        W93941  30.888   4.282  12.970
25713W        W93942   2.315  34.130   4.274
25714W        W93943  15.797   1.534  10.022
25715W        W93944  16.205  39.952   0.857
25716W        W93945  29.103   5.005  11.055
25717W        W93946  40.557  16.112  11.668
25718W        W93947   6.332   4.291   3.178
25719W        W93948  12.660  22.306  11.001
25720W        W93949  24.263  30.050   0.995
25721W        W93950  17.638   8.845  14.083
25722W        W93951  31.179  35.464  11.249
25723W        W93952  29.652  37.779  11.800
25724W        W93953  24.954   6.830   4.791
25725W        W93954   3.335  12.489   2.305
25726W        W93955  33.085  25.482  13.820
25727W        W93956  39.940   3.196   3.429
25728W        W93957  31.165  32.030  12.450
25729W        W93958  29.461   7.210   3.661
25730W        W93959   7.933  26.757   1.394
25731W        W93960  17.797  41.026  11.763
25732W        W93961  40.274  19.620  13.979
25733W        W93962   3.180  23.390   1.362
25734W        W93963  19.530  43.870   3.631
25735W        W93964  15.713  27.002  12.089
25736W        W93965  24.762  10.345  10.613
25737W        W93966  12.371  22.724   3.663
25738W        W93967  16.182  42.551  14.333
25739W        W93968  32.610  24.949  14.337
25740W        W93969   6.689  14.267  12.628
25741W        W93970  32.154  15.173   2.932
25742W        W93971  22.571  21.101   0.269
25743W        W93972  35.808   6.818   3.544
25744W        W93973  24.742   8.087   2.313
25745W        W93974  19.309  40.184   2.228
25746W        W93975  17.644  15.990  10.344
25747W        W93976   3.193   7.772   0.298
25748W        W93977  10.801  15.239   1.117
25749W        W93978  13.846  16.826  11.121
25750W        W93979  23.647   6.947  11.974
25751W        W93980  25.684  11.121  10.179
25752W        W93981  27.632  18.607   3.532
25753W        W93982  28.068  26.223  12.617
25754W        W93983  22.730  40.123   3.542
25755W        W93984  24.192  14.585   1.879
25756W        W93985  17.370  30.638   3.730
25757W        W93986  20.938  14.271   1.838
25758W        W93987  17.543  25.174  13.389
25759W        W93988  18.118  43.299   4.640
25760W        W93989  39.051  11.196   4.223
25761W        W93990  27.198   0.433  14.900
25762W        W93991  29.913  30.547  13.301
25763W        W93992  37.591  41.384   0.694
25764W        W93993  29.072  18.717   5.052
25765W        W93994  31.829  36.427   0.329
25766W        W93995  33.981  31.132  11.594
25767W        W93996  43.551  36.547  12.854
25768W        W93997  25.553  32.080  12.380
25769W        W93998  29.519  15.875   5.028
25770W        W93999  19.184   8.459   0.863
25771W        W94000  16.004  14.649   0.398
25772W        W94001  44.430  13.679   2.006
25773W        W94002  20.126   3.988   1.507
25774W        W94003  43.983  41.062  13.746
25775W        W94004   5.889  20.905  10.365
25776W        W94005   9.380   8.961  13.003
25777W        W94006  39.523  20.469   2.246
25778W        W94007  15.514   2.877  10.798
25779W        W94008  15.734  39.409  11.715
25780W        W94009  22.610  13.964   3.457
25781W        W94010  13.089  39.241   4.493
25782W        W94011  28.415  43.935  13.964
25783W        W94012  41.589   0.060  14.330
25784W        W94013   7.393  30.130  11.381
25785W        W94014   0.491  39.456  11.170
25786W        W94015  10.916   5.554  11.617
25787W        W94016  11.724  40.989   3.281
25788W        W94017  35.171   6.564   0.892
25789W        W94018  35.051  17.033   2.177
25790W        W94019  43.225  38.016   1.932
25791W        W94020  33.022  29.030   4.540
25792W        W94021  15.214  27.304  14.646
25793W        W94022  13.822   4.225  14.477
25794W        W94023  18.566  35.534  13.731
25795W        W94024   6.160  25.145  14.297
25796W        W94025  42.554  27.286  11.063
25797W        W94026   3.382  19.102   0.617
25798W        W94027  40.079  33.542  14.008
25799W        W94028   0.535   2.839  14.423
25800W        W94029  35.092  43.484   2.937
25801W        W94030  37.491  41.437   0.166
25802W        W94031  23.618  43.278   4.789
25803W        W94032  14.988  39.457   4.777
25804W        W94033  31.522  42.489  10.726
25805W        W94034   1.923   3.460   1.927
25806W        W94035  11.511  10.469   4.970
25807W        W94036  35.488  26.320  14.483
25808W        W94037   2.617  43.537  10.583
25809W        W94038  44.559  44.378   0.371
25810W        W94039   2.857   4.373  10.710
25811W        W94040  21.251  33.855  10.232
25812W        W94041   2.202  15.500  14.888
25813W        W94042  31.880  22.650  12.174
25814W        W94043  32.304  27.870   2.149
25815W        W94044   6.294  11.904   3.258
25816W        W94045  13.048  40.447   3.765
25817W        W94046  27.597  28.767  12.828
25818W        W94047  19.164   8.565  12.991
25819W        W94048  27.344  43.450  11.380
25820W        W94049   1.057  19.038   1.821
25821W        W94050  28.622   7.066  11.613
25822W        W94051  43.603   5.277   4.819
25823W        W94052  29.512  19.746  14.468
25824W        W94053  34.064  32.207  12.813
25825W        W94054   7.878  19.692   5.051
25826W        W94055  30.524   6.645  13.872
25827W        W94056  27.498  29.490  13.369
25828W        W94057  34.663  15.733  12.997
25829W        W94058  19.620  23.271  12.914
25830W        W94059  36.958  13.076   4.203
25831W        W94060  12.400  14.290   3.521
25832W        W94061  37.072  17.796  14.592
25833W        W94062  33.080  23.490  13.994
25834W        W94063  35.110  22.003  11.611
25835W        W94064  14.766  21.982   4.088
25836W        W94065  39.579  37.029  11.587
25837W        W94066  11.662   1.958   3.191
25838W        W94067  19.712  29.958   4.370
25839W        W94068  18.711  38.689   3.852
25840W        W94069  35.977   3.315  12.799
25841W        W94070  17.714  21.633  14.481
25842W        W94071   1.876   4.183   2.442
25843W        W94072   8.464  13.350   0.594
25844W        W94073  38.914  21.811  12.474
25845W        W94074  19.133  44.024   1.904
25846W        W94075  11.899  32.169  14.787
25847W        W94076  21.750  23.770   3.317
25848W        W94077  31.991  25.458  10.569
25849W        W94078  37.858  19.349  10.765
25850W        W94079   9.897  14.867  14.916
25851W        W94080  20.123  10.635   1.595
25852W        W94081   7.259  41.750  11.845
25853W        W94082   0.440  13.032  11.569
25854W        W94083  41.165  11.733  12.855
25855W        W94084  31.174  28.046   0.909
25856W        W94085  23.840  10.192  10.688
25857W        W94086  33.492   1.990  11.537
25858W        W94087  21.533   2.668  12.646
25859W        W94088   9.371   8.755  11.108
25860W        W94089  33.070  26.053   3.169
25861W        W94090   5.466  25.565   1.394
25862W        W94091  24.534  30.600   3.553
25863W        W94092   3.016  11.103   1.262
25864W        W94093   2.006   5.353   0.919
25865W        W94094  35.502  31.696   3.228
25866W        W94095  44.313   2.199  11.227
25867W        W94096  27.159  40.606  14.976
25868W        W94097   4.234  14.884  13.430
25869W        W94098  41.806  38.538   1.483
25870W        W94099  16.612  11.856  14.813
25871W        W94100  23.045   6.431   1.023
25872W        W94101  42.588  10.387  12.103
25873W        W94102  17.829  28.524  12.578
25874W        W94103   5.397   1.852  12.839
25875W        W94104  27.904  42.869  12.645
25876W        W94105   8.818  21.552   2.762
25877W        W94106   3.723  29.368   4.265
25878W        W94107  18.605  44.874   0.027
25879W        W94108  17.823  30.056  13.971
25880W        W94109   3.997   0.009  14.525
25881W        W94110  33.646   0.204   0.424
25882W        W94111  15.138  22.476  11.491
25883W        W94112  33.668   7.756  12.070
25884W        W94113  27.226  35.981   3.451
25885W        W94114  16.642  25.699   4.153
25886W        W94115  23.117  44.025  14.480
25887W        W94116  10.206   9.985   3.100
25888W        W94117  29.280  33.531  11.290
25889W        W94118  19.173  16.811  13.442
25890W        W94119   7.417   1.756   1.172
25891W        W94120   4.895   4.936   0.677
25892W        W94121  34.549  10.143   2.165
25893W        W94122   2.146  18.812  13.351
25894W        W94123  10.190   0.849   0.348
25895W        W94124  29.538  26.770  13.561
25896W        W94125  19.277  17.716   2.402
25897W        W94126  42.100  37.908  11.551
25898W        W94127  29.202   8.967   2.342
25899W        W94128   3.381  22.761  10.412
25900W        W94129   1.566  33.296   5.620
25901W        W94130  31.905  18.834  12.870
25902W        W94131   0.663  18.181   3.356
25903W        W94132  42.276   0.806  10.735
25904W        W94133  18.466  42.385   3.085
25905W        W94134  39.316   6.344  10.848
25906W        W94135   9.933   0.239  14.791
25907W        W94136  20.435  24.715   3.274
25908W        W94137  12.064  39.543  13.877
25909W        W94138   5.663  44.755  10.769
25910W        W94139  43.553  35.695  14.350
25911W        W94140  44.727   9.454   1.110
25912W        W94141  12.028  27.193  13.862
25913W        W94142  10.230  10.223  14.865
25914W        W94143  38.400  29.741  13.613
25915W        W94144  35.675  39.343  13.737
25916W        W94145  44.807  23.768   1.778
25917W        W94146  42.996   9.942  12.897
25918W        W94147  20.830  41.022  12.086
25919W        W94148  23.143   6.176  12.137
25920W        W94149  31.354  23.500   2.288
25921W        W94150   8.828   6.253   2.783
25922W        W94151  13.196  15.283  11.585
25923W        W94152  35.593  23.247  13.779
25924W        W94153  38.303  21.596   1.439
25925W        W94154   8.106   8.877  12.142
25926W        W94155   9.876  21.943  12.990
25927W        W94156  39.006   4.833   0.367
25928W        W94157  20.108  10.768   2.093
25929W        W94158  10.206   1.727  13.522
25930W        W94159  16.424  22.737  14.851
25931W        W94160  39.689  33.951  13.399
25932W        W94161   1.439  40.293  10.977
25933W        W94162   9.267  38.176  13.588
25934W        W94163  27.505  39.914  12.143
25935W        W94164  15.150   2.292  12.100
25936W        W94165  22.189  38.283   2.612
25937W        W94166  29.984  16.691  12.365
25938W        W94167  16.387  43.775   1.300
25939W        W94168  11.223   3.860  14.812
25940W        W94169  39.433  35.138   0.744
25941W        W94170  28.500   2.727   1.938
25942W        W94171  44.848  31.952   3.653
25943W        W94172  22.596  41.181   3.838
25944W        W94173   9.894   6.438  10.600
25945W        W94174  11.086  39.843   3.273
25946W        W94175  10.240  16.147  11.173
25947W        W94176  26.522  20.540  14.987
25948W        W94177  42.063  19.608  10.618
25949W        W94178  37.888  33.480  10.156
25950W        W94179  16.870  15.212   4.471
25951W        W94180  17.831  19.765  11.881
25952W        W94181  31.971  39.674   5.181
25953W        W94182  42.744  20.331  12.075
25954W        W94183  16.609  15.323   0.348
25955W        W94184   5.267   5.366   4.674
25956W        W94185  35.930  34.953  13.809
25957W        W94186  24.950  23.590  14.354
25958W        W94187  18.411  30.739   1.290
25959W        W94188  15.044   6.478   0.406
25960W        W94189  33.553  30.902  14.542
25961W        W94190  41.153   5.905  12.903
25962W        W94191  25.701  38.449   4.148
25963W        W94192  31.404  18.796  14.952
25964W        W94193  32.036  16.146  10.325
25965W        W94194  29.460  32.757   4.799
25966W        W94195  27.079  28.569   0.394
25967W        W94196  39.525  26.307  12.921
25968W        W94197   8.441   6.818  14.509
25969W        W94198  11.831  27.489   3.211
25970W        W94199  40.714  21.746   3.763
25971W        W94200  25.533   2.152  12.278
25972W        W94201  40.686  44.135  11.013
25973W        W94202   0.703   9.752   1.248
25974W        W94203  21.269  31.038   0.448
25975W        W94204  37.464  24.668   4.699
25976W        W94205  16.347  24.524  13.674
25977W        W94206  39.332  28.921  11.569
25978W        W94207   0.889  19.709  14.993
25979W        W94208  35.593   5.246  10.394
25980W        W94209  32.760  23.162  12.369
25981W        W94210  40.601  26.954   2.189
25982W        W94211  22.174  25.168   1.813
25983W        W94212  22.185  30.253   4.730
25984W        W94213  34.698  38.628   1.212
25985W        W94214  32.405  33.598   0.299
25986W        W94215  20.226  27.319  14.520
25987W        W94216  34.526  32.914   0.745
25988W        W94217  44.765  21.444  11.227
25989W        W94218  42.025  21.012  11.208
25990W        W94219  24.614  18.349   5.182
25991W        W94220   1.996  10.849  13.109
25992W        W94221   9.220  32.562  14.835
25993W        W94222  15.709  16.711   0.098
25994W        W94223  43.278   7.719   1.402
25995W        W94224   4.183  29.843  12.132
25996W        W94225  30.613   3.816   3.917
25997W        W94226   2.223  38.004  13.152
25998W        W94227  27.515  40.955   1.822
25999W        W94228  17.685  30.643   0.713
26000W        W94229   5.289  18.498   3.743
26001W        W94230  41.348   9.197   1.265
26002W        W94231  44.856  10.639  12.360
26003W        W94232  42.862   5.296  11.214
26004W        W94233  43.078   7.194   0.793
26005W        W94234  26.417   2.525   4.607
26006W        W94235   5.347  13.204   2.745
26007W        W94236  27.299  40.427  14.494
26008W        W94237  17.977  14.799   3.697
26009W        W94238  26.442  14.620  14.815
26010W        W94239  11.696  11.176   2.881
26011W        W94240  27.581  15.273   3.837
26012W        W94241  18.291   4.456   0.035
26013W        W94242  34.350  44.458   0.351
26014W        W94243  11.803   3.973   0.394
26015W        W94244  12.365   2.768   1.910
26016W        W94245  14.847   1.549  12.574
26017W        W94246  30.007  18.049   1.260
26018W        W94247  32.422  37.876   4.363
26019W        W94248  36.603  30.398  13.895
26020W        W94249  44.249   6.342   0.739
26021W        W94250  14.851  16.870   2.417
26022W        W94251   3.697   8.867   4.907
26023W        W94252  13.697  12.865   5.495
26024W        W94253  21.989   8.634   4.719
26025W        W94254  44.772  37.168   3.693
26026W        W94255  24.130  23.552  11.565
26027W        W94256  31.516  21.421  12.805
26028W        W94257   1.280   2.606  11.331
26029W        W94258  31.345   4.788  12.655
26030W        W94259  42.881  24.117  13.820
26031W        W94260  16.163  26.952  10.093
26032W        W94261  44.811  34.388  12.532
26033W        W94262  25.755  38.819   4.548
26034W        W94263  40.389  40.991  12.086
26035W        W94264  11.658   8.614   2.211
26036W        W94265  29.110   9.436  12.438
26037W        W94266   5.394  23.192  12.873
26038W        W94267  44.653  22.182  10.603
26039W        W94268  42.693  44.568  11.107
26040W        W94269  43.053  31.109   4.293
26041W        W94270  16.771  27.492   0.347
26042W        W94271  41.238  17.616   2.644
26043W        W94272  34.544  28.516  13.911
26044W        W94273  41.770   1.249   0.200
26045W        W94274   9.196  26.321   3.560
26046W        W94275  36.608  25.017   4.476
26047W        W94276   9.955  32.540   3.263
26048W        W94277  39.356  31.386   2.175
26049W        W94278   6.199  19.534   4.246
26050W        W94279   7.489  25.465   1.420
26051W        W94280  16.191  34.296  11.161
26052W        W94281  27.838  26.138  10.705
26053W        W94282  29.626  41.222   2.739
26054W        W94283  43.724   4.786  11.458
26055W        W94284  18.110  11.587   0.300
26056W        W94285  41.991   8.012   2.406
26057W        W94286  41.235  38.824   0.703
26058W        W94287   8.104  28.742   4.658
26059W        W94288   4.721  28.191   2.684
26060W        W94289  44.278  29.374  12.137
26061W        W94290   8.396  18.209   4.089
26062W        W94291  18.142  21.761   3.157
26063W        W94292  31.524  15.451  13.928
26064W        W94293  19.059  30.132   1.815
26065W        W94294  43.767  32.137   3.031
26066W        W94295  39.792  15.033  14.299
26067W        W94296  20.190   3.070  10.552
26068W        W94297  23.550  38.317   2.805
26069W        W94298  34.913  19.619   2.015
26070W        W94299  14.080   2.415   1.283
26071W        W94300  15.708  15.332  14.750
26072W        W94301  25.146   7.424   0.045
26073W        W94302   2.387  10.830  14.006
26074W        W94303  32.129  34.348   4.117
26075W        W94304  13.625   4.226   0.346
26076W        W94305  14.906   2.109  11.438
26077W        W94306  20.109  12.821  12.379
26078W        W94307  16.659  16.360   0.397
26079W        W94308  41.237  19.411  12.629
26080W        W94309   8.396  16.002   0.955
26081W        W94310  11.088   6.794  10.660
26082W        W94311  38.484  40.507   2.330
26083W        W94312  21.418  19.210  11.579
26084W        W94313  15.944  22.030   3.628
26085W        W94314  20.796  10.246  13.350
26086W        W94315   1.092  13.870   5.030
26087W        W94316  27.181  11.922   4.135
26088W        W94317  27.056  40.946  11.543
26089W        W94318  21.449  20.274   0.293
26090W        W94319  20.030  10.346   4.565
26091W        W94320   1.351  18.653  13.641
26092W        W94321  26.981  37.061   0.531
26093W        W94322  28.147  15.349   3.175
26094W        W94323  16.945  35.168   3.822
26095W        W94324  42.835  12.547  12.478
26096W        W94325  25.887   0.410   4.234
26097W        W94326   8.003  38.169  11.478
26098W        W94327  21.584  24.109   3.675
26099W        W94328  40.144   4.421   2.248
26100W        W94329   0.534   7.404   0.858
26101W        W94330  44.765  25.190   2.782
26102W        W94331  32.830  36.360   1.919
26103W        W94332  25.802  33.403  10.350
26104W        W94333  25.412  28.435  14.552
26105W        W94334  29.999  33.667   2.438
26106W        W94335  31.969  14.693   2.835
26107W        W94336  12.824  40.867  13.997
26108W        W94337  44.819   2.440   1.481
26109W        W94338   6.278   2.191   3.071
26110W        W94339  38.566   5.719  14.979
26111W        W94340  41.762  24.594  14.483
26112W        W94341  31.432  38.073  11.090
26113W        W94342  32.169  22.452   0.838
26114W        W94343   7.753  27.058  14.307
26115W        W94344   4.200  34.443  13.404
26116W        W94345   3.040  43.253  11.300
26117W        W94346   9.882  25.150   0.044
26118W        W94347  28.967  17.672  10.957
26119W        W94348  41.325  17.254   0.408
26120W        W94349  22.279  39.551   0.729
26121W        W94350  13.426   0.310  11.572
26122W        W94351  23.991  10.026   1.919
26123W        W94352  11.341  27.570  14.363
26124W        W94353   6.161  37.853  11.995
26125W        W94354  20.782  34.522  13.885
26126W        W94355  27.972  24.502   4.157
26127W        W94356  38.436   4.219   1.460
26128W        W94357  41.468   7.803   1.155
26129W        W94358  37.767  26.441  12.428
26130W        W94359  15.573  22.482   2.836
26131W        W94360  21.351  19.655   1.320
26132W        W94361  37.597  28.024   2.272
26133W        W94362  40.961  37.810  12.629
26134W        W94363   6.918  12.765   4.147
26135W        W94364   5.079  30.401   5.058
26136W        W94365  29.305  31.170   3.199
26137W        W94366  35.106  34.452  14.483
26138W        W94367   6.996  44.320  10.647
26139W        W94368  36.449  31.488   4.548
26140W        W94369  38.913  12.341   1.798
26141W        W94370  31.105  33.005   4.109
26142W        W94371   5.260  10.955  14.817
26143W        W94372  18.044  34.659   4.843
26144W        W94373  19.184  17.881   2.909
26145W        W94374  38.985  15.693   0.271
26146W        W94375  25.444  10.357  11.994
26147W        W94376  18.562   2.806  12.452
26148W        W94377  41.066  22.136   1.177
26149W        W94378   5.497  13.185   2.241
26150W        W94379  38.597  25.700  14.231
26151W        W94380  12.788  36.243  13.992
26152W        W94381  33.133   9.756  14.300
26153W        W94382  24.746  36.668   4.337
26154W        W94383  37.231   2.341   4.566
26155W        W94384  35.431  40.475   3.117
26156W        W94385   5.324  36.809   0.843
26157W        W94386  44.540  17.236  13.985
26158W        W94387  11.943  35.453   3.896
26159W        W94388  40.039  42.790  12.451
26160W        W94389  15.568  24.708  14.559
26161W        W94390  27.969  39.228   2.393
26162W        W94391  36.192   2.820  14.556
26163W        W94392  42.093  16.076   1.851
26164W        W94393  32.508  28.955  12.650
26165W        W94394   7.689  12.027   3.579
26166W        W94395  38.572   9.327  14.545
26167W        W94396  42.481   9.301   2.264
26168W        W94397   6.316  15.288  14.825
26169W        W94398  44.697   6.543  11.069
26170W        W94399  44.124  28.558  12.598
26171W        W94400  21.890  43.594   4.070
26172W        W94401  15.587  39.746  12.103
26173W        W94402   8.416  27.020  14.728
26174W        W94403  31.332  27.674  14.253
26175W        W94404  36.241  15.874   4.993
26176W        W94405  17.763  12.213  12.406
26177W        W94406  35.098  20.287  12.912
26178W        W94407  10.159  21.343  12.135
26179W        W94408  34.073  18.092   1.862
26180W        W94409   1.928  11.498   3.993
26181W        W94410  21.742  31.175   2.820
26182W        W94411   7.821  43.230   1.194
26183W        W94412  12.791  24.810   4.740
26184W        W94413   9.308  31.537   0.360
26185W        W94414  39.975  32.543  11.010
26186W        W94415  38.481  34.926  11.521
26187W        W94416  26.913  44.942  14.015
26188W        W94417   3.315  16.095  14.125
26189W        W94418  12.206  29.233  12.020
26190W        W94419  15.862   4.270  14.416
26191W        W94420  11.950  15.788   2.798
26192W        W94421  44.286  40.608  14.478
26193W        W94422  22.301  22.522   0.269
26194W        W94423  22.614  19.538  11.251
26195W        W94424   5.581  11.264   3.363
26196W        W94425   8.680  10.757  14.963
26197W        W94426  40.036  15.563  12.469
26198W        W94427  27.596  15.698   2.764
26199W        W94428  41.064  12.677   1.543
26200W        W94429  39.942   5.794   0.814
26201W        W94430  38.792  11.739  12.011
26202W        W94431  22.995  26.693  10.702
26203W        W94432  14.543  20.061   4.300
26204W        W94433  23.504  29.046   2.301
26205W        W94434  10.904   4.672   1.749
26206W        W94435  39.054   3.458   4.156
26207W        W94436  38.894  23.120  10.272
26208W        W94437  25.462  41.799   2.742
26209W        W94438  33.018   0.685  14.256
26210W        W94439  40.502  10.728   0.287
26211W        W94440  26.240  13.578   1.403
26212W        W94441  21.755  44.307   0.322
26213W        W94442  31.683   8.758   1.022
26214W        W94443   7.752   4.427   4.711
26215W        W94444  29.501  41.429   3.207
26216W        W94445  25.400  41.264  10.225
26217W        W94446  24.185  39.043   2.860
26218W        W94447  35.398   5.794   1.333
26219W        W94448  23.764  30.010   1.981
26220W        W94449  23.036   3.853  12.485
26221W        W94450  34.072   9.799   3.227
26222W        W94451  26.526   4.876   2.899
26223W        W94452  25.036  21.175   0.193
26224W        W94453  38.605  11.857   1.467
26225W        W94454  32.022  30.993   1.740
26226W        W94455  18.638  38.536   4.352
26227W        W94456  43.396  32.295   3.395
26228W        W94457  27.706  24.564  13.923
26229W        W94458  42.175  26.188   1.213
26230W        W94459   5.902  35.175  13.622
26231W        W94460  34.656  27.497  14.193
26232W        W94461  25.069  19.843  12.429
26233W        W94462  17.364  39.399  13.490
26234W        W94463  34.977   7.498   0.285
26235W        W94464  38.809  32.483   5.455
26236W        W94465   0.408  42.672   3.099
26237W        W94466  35.477   6.172   3.314
26238W        W94467   9.560  14.680   4.592
26239W        W94468  20.254  13.653   1.233
26240W        W94469  28.439  40.034  11.984
26241W        W94470  39.583  15.780   1.096
26242W        W94471   8.696  22.129  13.848
26243W        W94472  37.969  35.403   2.831
26244W        W94473  14.815   4.056  13.937
26245W        W94474  27.673  28.614  11.441
26246W        W94475  35.874   5.289   0.529
26247W        W94476  43.588  43.738   3.766
26248W        W94477   8.411   8.430   4.386
26249W        W94478  11.323  36.198   2.721
26250W        W94479   0.915   7.520   1.564
26251W        W94480  30.690  27.434  11.639
26252W        W94481   3.267  10.116   2.168
26253W        W94482  39.888   7.649   1.900
26254W        W94483  33.503   0.255  12.037
26255W        W94484  35.769  22.529   2.756
26256W        W94485  24.561  33.549   3.325
26257W        W94486  28.820   8.612  13.903
26258W        W94487  35.607   5.307  14.638
26259W        W94488  28.587   0.396  12.612
26260W        W94489   1.260  39.805  14.778
26261W        W94490   9.120  12.182  11.512
26262W        W94491  44.333  32.126  11.582
26263W        W94492  39.899  32.650  13.360
26264W        W94493  15.350  21.181   2.441
26265W        W94494  12.966  26.642   0.474
26266W        W94495   1.953  25.498   2.316
26267W        W94496   5.797  34.039   4.578
26268W        W94497   1.374  17.564   0.271
26269W        W94498  28.755   0.020  12.321
26270W        W94499  33.620  39.493  12.301
26271W        W94500  13.752  18.512   4.697
26272W        W94501   7.641  15.078  11.076
26273W        W94502   0.760  36.706   0.465
26274W        W94503  40.447  26.635  12.943
26275W        W94504  16.669   9.117  11.737
26276W        W94505  19.004  11.986  13.907
26277W        W94506   1.351   2.728  10.836
26278W        W94507  29.950   6.391   3.299
26279W        W94508  15.392  33.853   1.838
26280W        W94509  13.664  43.083  14.026
26281W        W94510  12.783  22.829   1.527
26282W        W94511  34.324  21.751   1.674
26283W        W94512   6.194  13.299   1.416
26284W        W94513  22.893   0.291  14.072
26285W        W94514  10.380  28.569  12.871
26286W        W94515  30.954   5.170   3.252
26287W        W94516  41.507  25.763  11.554
26288W        W94517  42.363  29.285  12.549
26289W        W94518  36.321  15.524   2.691
26290W        W94519  40.004   5.813  11.100
26291W        W94520  31.160  20.782  14.999
26292W        W94521   4.930  20.670  13.039
26293W        W94522   4.505  42.115   0.463
26294W        W94523  19.045  35.897   4.220
26295W        W94524  19.695  37.584  11.340
26296W        W94525  13.803   6.096   1.220
26297W        W94526  42.495  32.457   0.817
26298W        W94527  11.724   9.085  12.629
26299W        W94528  43.902   6.784  14.206
26300W        W94529  25.008  37.524  11.417
26301W        W94530   7.372  40.467   0.802
26302W        W94531   7.708  42.075   1.028
26303W        W94532  33.860  42.582   3.212
26304W        W94533  36.868   6.423   4.982
26305W        W94534  42.725   9.939   1.902
26306W        W94535   7.780  42.715  14.175
26307W        W94536  24.503   3.821   2.742
26308W        W94537  20.544  39.991   0.941
26309W        W94538  38.980  43.872  12.013
26310W        W94539  11.598  38.295  11.644
26311W        W94540  23.533  40.829  14.445
26312W        W94541  21.452  12.395   0.525
26313W        W94542  24.541  22.894   2.959
26314W        W94543  34.617  34.084  14.321
26315W        W94544  29.590  12.298  14.638
26316W        W94545  44.499   0.512   4.490
26317W        W94546  21.406  35.997   0.025
26318W        W94547  34.062  31.507   1.535
26319W        W94548   8.334  16.616   1.758
26320W        W94549  21.146  22.949  11.434
26321W        W94550  25.031  13.231  11.626
26322W        W94551  37.864   1.717  10.595
26323W        W94552  26.900   0.929   2.323
26324W        W94553   5.279  24.672   4.542
26325W        W94554  20.567  13.129   3.893
26326W        W94555  42.150  14.311   3.197
26327W        W94556  38.853  30.768   3.980
26328W        W94557   0.863   1.826   0.744
26329W        W94558   5.781  28.718  11.711
26330W        W94559  18.209   9.088  11.430
26331W        W94560  26.888  27.862   0.294
26332W        W94561  31.493  12.282   2.725
26333W        W94562  23.786  22.278   2.140
26334W        W94563  39.922  11.209  12.214
26335W        W94564   1.401   5.144   4.094
26336W        W94565  30.488  21.508  12.637
26337W        W94566  26.929  26.725   0.935
26338W        W94567   6.318  36.228   0.495
26339W        W94568  25.299   9.414  12.889
26340W        W94569  33.511  12.352   2.416
26341W        W94570  10.641  30.460   4.629
26342W        W94571   9.682  33.123  12.670
26343W        W94572  37.930   3.036  11.133
26344W        W94573   0.840  42.970   0.523
26345W        W94574  41.352  15.665   4.488
26346W        W94575  33.465  26.031  12.040
26347W        W94576  37.346   3.820  13.067
26348W        W94577  16.796  31.954   4.537
26349W        W94578  36.685  32.156  13.573
26350W        W94579  30.354   1.800   2.399
26351W        W94580  39.849  27.547   3.339
26352W        W94581  23.946   3.247   3.094
26353W        W94582  34.979  41.139   0.304
26354W        W94583  39.740  43.114  11.661
26355W        W94584  25.996  25.123   2.127
26356W        W94585  42.478   1.193   2.635
26357W        W94586  36.028  16.781   1.542
26358W        W94587   0.110   4.266  10.808
26359W        W94588  39.814   8.928   0.966
26360W        W94589  33.966  11.165  14.372
26361W        W94590  44.086  15.143  12.356
26362W        W94591  30.121  24.592   1.991
26363W        W94592  43.809  16.648   0.927
26364W        W94593  14.431  39.749   0.477
26365W        W94594  39.107  27.732  12.062
26366W        W94595   0.984   5.457   4.257
26367W        W94596  16.022  37.059  11.585
26368W        W94597   5.368  38.930  13.502
26369W        W94598  32.103  15.598   4.977
26370W        W94599  29.009   2.492  12.623
26371W        W94600   3.570  18.948  11.720
26372W        W94601   8.325  39.330   0.509
26373W        W94602  12.343  29.798   0.683
26374W        W94603  26.508   8.015   3.342
26375W        W94604  11.182   0.749   3.296
26376W        W94605  20.201  18.337  11.187
26377W        W94606  22.934  24.104  13.356
26378W        W94607  33.013  24.069  12.950
26379W        W94608  28.155  11.422   3.641
26380W        W94609   1.974   8.633   0.784
26381W        W94610  33.466  37.330   2.215
26382W        W94611   7.551  13.031   4.617
26383W        W94612  29.429  27.240   3.831
26384W        W94613  26.473  11.158   1.856
26385W        W94614  38.796   1.629  13.796
26386W        W94615  25.614  13.163  12.775
26387W        W94616  15.354  26.864   9.695
26388W        W94617  38.110  40.295   1.216
26389W        W94618  15.812  34.583  10.521
26390W        W94619   1.885  10.104  14.858
26391W        W94620  29.576  34.134   4.535
26392W        W94621  22.318  11.274   2.631
26393W        W94622  30.226  19.709  12.328
26394W        W94623  21.500  42.821  14.905
26395W        W94624  37.611  37.378   1.484
26396W        W94625  13.658  20.894  13.578
26397W        W94626   0.955  22.083  10.813
26398W        W94627   6.497  38.269   0.814
26399W        W94628  17.577   2.004   1.073
26400W        W94629  24.093  19.850   4.599
26401W        W94630   7.684  42.715   1.192
26402W        W94631  38.394  36.080  12.520
26403W        W94632  17.342  37.164  14.965
26404W        W94633  22.047  24.273   2.765
26405W        W94634  14.531  11.599   5.428
26406W        W94635   8.508   9.828  12.026
26407W        W94636  43.937   4.533   4.214
26408W        W94637  26.143  30.462   4.726
26409W        W94638  14.838  10.341   0.483
26410W        W94639  28.049   7.072   3.151
26411W        W94640   0.729  30.098  13.593
26412W        W94641  23.123   2.174  11.939
26413W        W94642  44.539  41.493   3.354
26414W        W94643   1.939  34.660  12.779
26415W        W94644   5.315   2.780   3.572
26416W        W94645  15.821  26.021  14.111
26417W        W94646  43.200  18.121  12.675
26418W        W94647  27.802  24.998  14.814
26419W        W94648   2.454  43.847   3.214
26420W        W94649  38.332  35.417   0.886
26421W        W94650   4.734  39.459  11.575
26422W        W94651   3.561  31.165   2.843
26423W        W94652  40.453  20.910   0.724
26424W        W94653  19.217  16.196   0.638
26425W        W94654  36.226  38.874   0.806
26426W        W94655  25.625  44.022   3.224
26427W        W94656   0.506   9.994  13.981
26428W        W94657  14.819  25.281  14.815
26429W        W94658  28.290  37.321  10.253
26430W        W94659  37.485  44.656  14.439
26431W        W94660  25.515  32.529  13.763
26432W        W94661  17.796  14.295  14.014
26433W        W94662  28.946   5.877  13.875
26434W        W94663  28.504  28.235  14.785
26435W        W94664  39.271  30.490   1.780
26436W        W94665  28.540  37.408   3.790
26437W        W94666  27.204  26.861   5.126
26438W        W94667  24.105  23.003  11.664
26439W        W94668  32.977  15.175   4.093
26440W        W94669  14.646  11.873  14.255
26441W        W94670   3.237  16.445  12.520
26442W        W94671   1.054  21.243  14.943
26443W        W94672  25.155  37.758  10.766
26444W        W94673   8.274  37.958   1.807
26445W        W94674   4.283  32.840   4.275
26446W        W94675  23.186   9.200   3.360
26447W        W94676  12.678  26.667   4.421
26448W        W94677  42.241   7.408  14.147
26449W        W94678  34.544  16.931   5.374
26450W        W94679  24.105  36.374  11.982
26451W        W94680  13.968  35.976  13.068
26452W        W94681   3.398   6.475   3.782
26453W        W94682  11.300  33.891  13.723
26454W        W94683  13.570   4.686   2.762
26455W        W94684  41.516  38.633   3.905
26456W        W94685  10.262  34.005  12.219
26457W        W94686   4.747   9.132   2.830
26458W        W94687  26.563  42.752   2.825
26459W        W94688  22.214  38.994   4.400
26460W        W94689  10.904  14.728  13.699
26461W        W94690  38.105  43.416  13.789
26462W        W94691  37.743  21.165  10.491
26463W        W94692  17.545  36.546   0.326
26464W        W94693  37.198   5.026  14.133
26465W        W94694  19.244  34.757  10.735
26466W        W94695   0.731  31.881   3.847
26467W        W94696   3.755  23.706   0.857
26468W        W94697  42.856  43.453  11.953
26469W        W94698  19.679  43.341  12.907
26470W        W94699  31.527   3.688  11.943
26471W        W94700  18.339  40.007   0.797
26472W        W94701   5.126  40.887  14.628
26473W        W94702  27.507   3.538   0.328
26474W        W94703  27.067  42.282  14.373
26475W        W94704  16.103   0.408  11.610
26476W        W94705  31.484   8.686   2.983
26477W        W94706  23.449  32.650   0.782
26478W        W94707   2.947  10.711  12.388
26479W        W94708  39.776  32.113   5.015
26480W        W94709  13.880  35.509  12.875
26481W        W94710  19.208  21.557   2.748
26482W        W94711  23.386  28.196   4.554
26483W        W94712  39.527  40.853  10.736
26484W        W94713  42.395  19.511  11.588
26485W        W94714  23.688  19.659   2.617
26486W        W94715   3.452   5.750   3.389
26487W        W94716   8.087  34.002  14.293
26488W        W94717  17.515   4.912   0.897
26489W        W94718   6.437   7.603   3.278
26490W        W94719  25.677  36.990   5.253
26491W        W94720   6.735  30.001   0.322
26492W        W94721  42.007   4.951  10.712
26493W        W94722  43.103  12.705   2.698
26494W        W94723  33.659   9.960   1.976
26495W        W94724  10.768  24.559  14.087
26496W        W94725   1.926  44.467  11.175
26497W        W94726  23.309  30.857  11.579
26498W        W94727  10.531   1.313   2.374
26499W        W94728  24.233  22.816   1.294
26500W        W94729  13.963  40.129   2.914
26501W        W94730  42.842  22.539  11.895
26502W        W94731  19.865   6.710   4.451
26503W        W94732   6.942  39.087   3.927
26504W        W94733   7.997   0.515   1.786
26505W        W94734  44.460   1.650   1.861
26506W        W94735  11.807   5.680  14.879
26507W        W94736   1.669  36.948   4.137
26508W        W94737  11.272  12.181  13.064
26509W        W94738   5.172  20.497  12.004
26510W        W94739   7.857  14.757  11.988
26511W        W94740   5.842  31.907  10.775
26512W        W94741  44.547  30.042  10.729
26513W        W94742   6.378  11.093  14.418
26514W        W94743  19.568  42.937  14.825
26515W        W94744  38.273  29.550   2.235
26516W        W94745  41.075  24.557   4.579
26517W        W94746  39.423  21.949   4.630
26518W        W94747  14.258  14.105   0.422
26519W        W94748  15.777   1.715  14.360
26520W        W94749  41.812   8.708  10.218
26521W        W94750  29.674   1.350   0.931
26522W        W94751  42.403   2.645   2.158
26523W        W94752   3.742  42.541   0.383
26524W        W94753  11.758  18.023  11.563
26525W        W94754  42.655  14.397  13.480
26526W        W94755   7.336  24.699  13.414
26527W        W94756  16.775  33.992  11.148
26528W        W94757  39.473  18.253  11.831
26529W        W94758  29.920  37.471  10.578
26530W        W94759  41.897   6.852   3.699
26531W        W94760   5.181  35.358   4.216
26532W        W94761   3.385   0.446   9.827
26533W        W94762  34.376  14.611   5.032
26534W        W94763  19.094  30.653  13.932
26535W        W94764   8.903   5.378   3.140
26536W        W94765  28.712  28.046   2.731
26537W        W94766  18.537  37.445   0.937
26538W        W94767  31.955   5.206  14.876
26539W        W94768  44.785  18.683   1.719
26540W        W94769  33.527  13.597  10.845
26541W        W94770  32.997   5.433   1.433
26542W        W94771  32.542  14.245   3.178
26543W        W94772  35.140  30.587  13.786
26544W        W94773  12.219   7.859   0.390
26545W        W94774  34.012   6.564   3.622
26546W        W94775  44.502   2.000   4.538
26547W        W94776  34.326  37.561  10.454
26548W        W94777   9.199  17.575   3.034
26549W        W94778   5.380  25.547  12.182
26550W        W94779  21.450  19.507   5.111
26551W        W94780   8.935  14.813   2.249
26552W        W94781  26.963  27.618  10.958
26553W        W94782   5.686  31.674  12.941
26554W        W94783  36.444  22.660   5.160
26555W        W94784  21.837  33.360   4.245
26556W        W94785  38.241  15.134  11.165
26557W        W94786  44.923  21.780  14.507
26558W        W94787  19.253  35.613  11.185
26559W        W94788  20.807  13.766   0.718
26560W        W94789  27.274  21.568   2.745
26561W        W94790  12.315  17.611  13.728
26562W        W94791  40.426  44.216   3.115
26563W        W94792  18.281   3.785   4.725
26564W        W94793  26.440  10.316  12.903
26565W        W94794  17.051  40.943   1.264
26566W        W94795   8.315  12.902   0.344
26567W        W94796  36.365  17.513  12.353
26568W        W94797   9.882  38.974   9.909
26569W        W94798  11.516  31.737   1.651
26570W        W94799  42.466  16.494  13.350
26571W        W94800  40.478   4.196   3.611
26572W        W94801  31.572  33.326   1.272
26573W        W94802  36.040  29.613  11.656
26574W        W94803   8.680  12.604  14.472
26575W        W94804  18.036  36.369  12.391
26576W        W94805  24.044  25.214   5.056
26577W        W94806   6.053  10.350   4.955
26578W        W94807  33.080  35.542  13.418
26579W        W94808  28.472  25.942  14.797
26580W        W94809  21.621   7.932   3.622
26581W        W94810  18.266   3.739  11.635
26582W        W94811  11.720  34.054   1.911
26583W        W94812  31.639  37.857   1.843
26584W        W94813  16.649  32.969   9.793
26585W        W94814   5.309  41.787  14.142
26586W        W94815  34.817   1.972  12.969
26587W        W94816  13.638  25.971  13.432
26588W        W94817  33.501  10.414   0.736
26589W        W94818  39.063  44.418   4.194
26590W        W94819  18.620  13.129  12.215
26591W        W94820   1.264  15.030  14.793
26592W        W94821  11.075  40.279   0.248
26593W        W94822  15.078  18.899  11.479
26594W        W94823  12.378   4.709   2.334
26595W        W94824  43.126  42.929  14.018
26596W        W94825  15.029  34.473   2.185
26597W        W94826   1.130  30.201   1.195
26598W        W94827  27.073  43.034   3.799
26599W        W94828  37.795   9.876   2.879
26600W        W94829  28.091  24.346   3.672
26601W        W94830   2.194  35.964  13.314
26602W        W94831  10.161  28.606  13.922
26603W        W94832  40.476   2.832  12.969
26604W        W94833  32.212  32.684  14.323
26605W        W94834  33.852  12.097  13.891
26606W        W94835   5.338  34.496  14.285
26607W        W94836  35.445  39.475  13.295
26608W        W94837   5.299  19.000   4.557
26609W        W94838  40.494  25.610   3.777
26610W        W94839   2.869  31.561  12.352
26611W        W94840   8.619  25.736  11.909
26612W        W94841  28.870  40.300  11.961
26613W        W94842  43.320  14.414   1.758
26614W        W94843   0.995   2.810   0.930
26615W        W94844  15.762  40.207  12.008
26616W        W94845  11.255   2.803   4.929
26617W        W94846   4.253  39.932  11.434
26618W        W94847  44.874   0.802  11.989
26619W        W94848   3.650   3.712   2.278
26620W        W94849  33.588  37.470   4.157
26621W        W94850  32.650  31.669  14.799
26622W        W94851   2.213  44.933  14.976
26623W        W94852  22.088   2.050   4.177
26624W        W94853   3.778  38.808  10.672
26625W        W94854   8.959  17.998  11.035
26626W        W94855  32.305  29.500   3.534
26627W        W94856  31.588  44.938  11.331
26628W        W94857  28.731   4.232  11.089
26629W        W94858  30.329  30.792  10.771
26630W        W94859  14.876  26.480  11.488
26631W        W94860  36.309  23.252   2.257
26632W        W94861  19.152  21.604  10.552
26633W        W94862  41.031  25.236   4.276
26634W        W94863  26.933  43.476   3.519
26635W        W94864   3.593  10.166  10.665
26636W        W94865  18.220  29.254   1.037
26637W        W94866   0.746  18.040  13.929
26638W        W94867  15.787   9.230   5.029
26639W        W94868   6.937  37.505   4.266
26640W        W94869  11.083  32.504  11.521
26641W        W94870  35.524  12.796   1.768
26642W        W94871  28.556  18.515  12.556
26643W        W94872  23.666   6.659  12.832
26644W        W94873  28.532  13.011  13.617
26645W        W94874  43.267  36.546   1.899
26646W        W94875  13.654  27.466  12.040
26647W        W94876  34.996  26.492   0.502
26648W        W94877  20.571  44.062  11.199
26649W        W94878  44.469  18.627  13.763
26650W        W94879  10.070  43.983   0.481
26651W        W94880  23.088  21.618  10.988
26652W        W94881  13.328  16.611  11.132
26653W        W94882  39.538  18.769   1.233
26654W        W94883  24.972   7.113   3.834
26655W        W94884   7.666   7.595  11.180
26656W        W94885   1.468  20.149   5.007
26657W        W94886  28.947  20.079   1.187
26658W        W94887  19.090  17.231   2.267
26659W        W94888  18.627   6.927  13.385
26660W        W94889  37.214  14.333  12.112
26661W        W94890  23.011  30.230   2.726
26662W        W94891  20.062  33.509  14.311
26663W        W94892  30.453  16.387   3.237
26664W        W94893  42.611  13.658   2.810
26665W        W94894  15.017  22.489  12.925
26666W        W94895  19.784  28.084  12.017
26667W        W94896  12.251   4.516  13.870
26668W        W94897  36.167  35.134  12.855
26669W        W94898  26.018  23.960  13.152
26670W        W94899   1.136  37.047   3.500
26671W        W94900  18.814  35.935  11.157
26672W        W94901  38.449  41.644  13.447
26673W        W94902   9.114   4.798  14.344
26674W        W94903   6.047  13.548  12.494
26675W        W94904  30.773   7.756   1.718
26676W        W94905  23.608  22.006  11.058
26677W        W94906  17.111  26.528  13.731
26678W        W94907  32.483  21.575   0.761
26679W        W94908  33.024  43.784  14.483
26680W        W94909  15.834   8.864   1.687
26681W        W94910   3.752  29.489   2.931
26682W        W94911  21.682  37.320   4.687
26683W        W94912  13.589   2.265   2.836
26684W        W94913  23.126  22.759   4.123
26685W        W94914   5.180  43.439  14.778
26686W        W94915  20.289  22.635   1.795
26687W        W94916  14.590  44.313   1.374
26688W        W94917   6.785  25.936   2.651
26689W        W94918  22.425  38.028   3.139
26690W        W94919  23.226  20.000   3.616
26691W        W94920  29.935  24.253   0.987
26692W        W94921  15.662  42.203   3.574
26693W        W94922   6.069   7.461  13.123
26694W        W94923  35.952   2.437   4.950
26695W        W94924  28.994  28.794   3.106
26696W        W94925  26.322  23.577   3.886
26697W        W94926  36.098  19.151  11.965
26698W        W94927   1.788   4.759   1.315
26699W        W94928  24.161  35.259  12.003
26700W        W94929  27.027  27.172  11.252
26701W        W94930  32.004  23.997   3.705
26702W        W94931  36.307  42.450  11.958
26703W        W94932  35.359  43.000  13.893
26704W        W94933  25.479  24.931   0.950
26705W        W94934  30.376   4.232   1.300
26706W        W94935  26.018  41.508   3.752
26707W        W94936  41.370  33.047   2.390
26708W        W94937   3.418  24.506  11.125
26709W        W94938  28.129  14.178   3.615
26710W        W94939  16.541  10.507  10.726
26711W        W94940  26.414  30.991  14.043
26712W        W94941  30.739  23.143   4.587
26713W        W94942  36.075  43.112  13.209
26714W        W94943  43.001  27.898  13.956
26715W        W94944   3.883  31.433   0.730
26716W        W94945  27.255  36.407  12.520
26717W        W94946  18.856  35.061  14.980
26718W        W94947   8.385  39.545  14.057
26719W        W94948  30.524  12.284   0.234
26720W        W94949  42.202   4.296  14.866
26721W        W94950  24.427   2.259  11.473
26722W        W94951  14.144  24.127   2.213
26723W        W94952  40.548  25.761  13.986
26724W        W94953  40.589   1.033  14.443
26725W        W94954   8.274  33.486   1.861
26726W        W94955  24.128   9.727   4.586
26727W        W94956   5.177  10.704   4.507
26728W        W94957   9.594   4.521   1.150
26729W        W94958  43.770  43.110   1.320
26730W        W94959  22.328   2.707   1.652
26731W        W94960  16.038  22.596   3.071
26732W        W94961  29.134  28.784  13.860
26733W        W94962   0.068  28.091   2.367
26734W        W94963   0.740   9.076  11.702
26735W        W94964  18.219   1.324  14.448
26736W        W94965  40.239  25.955   3.374
26737W        W94966  19.307  19.451   0.336
26738W        W94967  26.636  11.309   2.751
26739W        W94968  12.996  15.009  11.980
26740W        W94969   7.585   9.841   4.866
26741W        W94970  33.975  12.828   3.879
26742W        W94971  36.377  22.197  13.814
26743W        W94972  24.659  40.294   1.342
26744W        W94973   6.865   2.239  13.817
26745W        W94974  28.350   6.670   2.177
26746W        W94975  41.032  36.854  13.802
26747W        W94976  41.897  41.261   1.863
26748W        W94977  43.945  44.264  13.287
26749W        W94978   9.758   0.324   1.881
26750W        W94979   3.897  17.177  11.476
26751W        W94980  21.851   8.869  12.031
26752W        W94981  44.377  11.220   0.472
26753W        W94982  13.203  24.128   3.175
26754W        W94983   3.367  21.282  11.728
26755W        W94984  42.349   6.588   3.653
26756W        W94985  36.947  21.781   1.810
26757W        W94986   9.234  12.217   0.743
26758W        W94987  33.644  40.397   1.462
26759W        W94988  38.845  33.870   5.085
26760W        W94989  26.148  19.827   2.184
26761W        W94990   0.357  34.292   0.774
26762W        W94991  33.425   1.867   0.917
26763W        W94992  34.462   4.322  12.429
26764W        W94993   4.062   2.347  13.468
26765W        W94994  40.589  26.668  12.153
26766W        W94995  40.002   9.242  10.661
26767W        W94996  29.684   6.095  10.530
26768W        W94997  44.857  16.390   3.274
26769W        W94998  31.188  30.010  14.402
26770W        W94999   5.401   8.442  11.193
26771W        W95000  40.145  12.071  11.128
26772W        W95001  33.852  38.685  13.362
26773W        W95002  35.883  40.748  13.123
26774W        W95003  40.232   0.878   3.140
26775W        W95004  15.730   8.266   0.377
26776W        W95005  27.049  43.490   4.057
26777W        W95006  29.358  42.934   4.123
26778W        W95007  11.716  28.141   2.373
26779W        W95008  11.114   3.349   4.172
26780W        W95009  15.103  21.054  14.914
26781W        W95010  38.497   9.856   3.655
26782W        W95011  42.690  22.061  12.040
26783W        W95012  31.874  12.829  14.798
26784W        W95013  12.537   4.369   4.409
26785W        W95014  43.507  29.442  14.282
26786W        W95015   4.938  33.582  13.524
26787W        W95016  30.438   6.822   1.708
26788W        W95017  37.833  26.489  10.432
26789W        W95018  31.860   7.746   3.302
26790W        W95019  14.245  39.937   0.045
26791W        W95020  23.129  24.983  13.639
26792W        W95021  12.254   1.272   1.660
26793W        W95022  10.170  12.369   1.774
26794W        W95023  14.733   1.695   0.280
26795W        W95024  17.634  40.476   4.948
26796W        W95025   9.901  17.303  12.482
26797W        W95026  24.003  19.637  14.365
26798W        W95027  18.051  30.475   3.206
26799W        W95028   1.267  29.983   4.286
26800W        W95029   3.408  17.033   1.419
26801W        W95030  27.454  29.072   2.918
26802W        W95031   4.964   8.965  13.264
26803W        W95032  42.864  35.215  12.828
26804W        W95033  17.196  11.033   0.351
26805W        W95034  42.260  27.994  12.226
26806W        W95035  18.778  31.986   0.708
26807W        W95036  24.098  10.609  11.966
26808W        W95037   7.360  27.058   4.416
26809W        W95038  29.541  13.657  14.268
26810W        W95039  20.002  36.831   1.876
26811W        W95040  44.151  34.414  11.065
26812W        W95041   3.280  11.743  12.839
26813W        W95042   1.244   2.203  11.005
26814W        W95043  42.564  37.861   0.326
26815W        W95044  33.802  16.480   2.611
26816W        W95045  35.614  34.911   0.381
26817W        W95046  11.163  26.258   1.722
26818W        W95047  12.950  37.162   4.392
26819W        W95048  30.614  34.970   3.664
26820W        W95049  44.585  44.391  13.314
26821W        W95050  10.201  17.218  12.952
26822W        W95051  14.665  36.373   0.009
26823W        W95052  21.393   6.590  13.666
26824W        W95053   9.946  30.963   3.936
26825W        W95054  31.940  34.492  11.545
26826W        W95055   3.728   2.449   0.626
26827W        W95056  19.724  13.012   4.706
26828W        W95057  19.827  44.964  10.741
26829W        W95058  35.115  44.975   4.369
26830W        W95059  39.387  42.511   2.178
26831W        W95060  34.451  42.558   4.486
26832W        W95061   6.833  32.689  12.226
26833W        W95062   3.651   0.772   1.670
26834W        W95063  18.160  18.604   4.703
26835W        W95064   9.351  33.018  13.584
26836W        W95065  20.106   2.390   2.259
26837W        W95066  41.940  16.270   4.626
26838W        W95067  36.506   7.689  13.284
26839W        W95068  14.646   7.842  12.846
26840W        W95069  27.444   5.498   1.922
26841W        W95070  37.602  20.007  11.987
26842W        W95071  21.785  43.684   2.667
26843W        W95072   6.426  21.352   4.206
26844W        W95073  15.280  22.595   0.989
26845W        W95074  34.702  20.522   1.917
26846W        W95075  40.802   7.298   3.669
26847W        W95076  42.356  44.499   3.254
26848W        W95077  12.682   4.349   0.720
26849W        W95078   3.418  33.562  12.640
26850W        W95079  24.332  39.437  14.104
26851W        W95080  22.077   4.294   3.259
26852W        W95081  12.667  25.051   0.278
26853W        W95082   7.654  10.221  11.894
26854W        W95083   6.167   4.173  10.703
26855W        W95084   4.147   5.267   0.318
26856W        W95085   6.220  14.261  11.752
26857W        W95086  40.339  30.105  12.290
26858W        W95087  21.095  28.412   0.739
26859W        W95088   3.549   2.215  13.523
26860W        W95089  43.563  38.495  10.647
26861W        W95090  21.413  37.521   3.689
26862W        W95091  36.858   2.498   3.640
26863W        W95092  23.726   6.364   2.417
26864W        W95093  16.261  15.539   1.386
26865W        W95094  18.214   6.592   2.807
26866W        W95095  43.796  23.566  12.124
26867W        W95096  25.448   6.763  11.397
26868W        W95097  34.004  24.183   1.411
26869W        W95098   0.746  27.482   0.075
26870W        W95099  19.331  28.308  11.907
26871W        W95100  38.975  19.101   4.754
26872W        W95101  19.021   0.980  14.459
26873W        W95102   0.696  27.068  11.894
26874W        W95103  45.000  20.512   2.186
26875W        W95104  27.006  33.315   5.049
26876W        W95105  10.704  21.645  12.018
26877W        W95106   7.356   3.833  12.137
26878W        W95107  43.978  29.445  10.388
26879W        W95108  31.373   5.254  12.069
26880W        W95109  27.079  39.307   4.637
26881W        W95110  10.702  19.900  12.088
26882W        W95111   8.380  44.423  12.004
26883W        W95112  30.702   3.237   2.249
26884W        W95113  31.427   4.330   4.556
26885W        W95114  18.807  24.664  11.322
26886W        W95115  18.812  15.587  14.498
26887W        W95116  34.394  25.204   2.207
26888W        W95117  17.505  10.737  12.494
26889W        W95118  32.004  24.057   5.043
26890W        W95119  24.061  18.324   2.313
26891W        W95120  15.129  11.092  10.901
26892W        W95121  29.622   6.152  14.350
26893W        W95122   5.588  40.376  12.065
26894W        W95123  16.520  24.942  12.845
26895W        W95124  18.319   1.449   1.693
26896W        W95125  33.358  34.856   1.851
26897W        W95126  43.392  40.933   2.200
26898W        W95127   6.296  27.292  14.454
26899W        W95128   1.699  11.280   0.713
26900W        W95129  18.488  27.143  12.828
26901W        W95130  12.127  37.784   4.961
26902W        W95131  39.473  32.407   2.304
26903W        W95132  16.613   2.939   4.271
26904W        W95133  12.270  38.291   3.726
26905W        W95134  20.790  19.116  12.562
26906W        W95135  35.077   4.191  11.862
26907W        W95136  32.162  31.654   4.151
26908W        W95137  10.714  12.894   3.726
26909W        W95138  42.960  14.798   0.420
26910W        W95139  44.603  11.475  11.431
26911W        W95140  28.042  44.967  10.804
26912W        W95141  39.642  39.492   0.601
26913W        W95142  12.584  12.216   3.279
26914W        W95143  16.412   7.712   2.834
26915W        W95144  37.959  27.602  13.539
26916W        W95145  30.844  36.233   4.269
26917W        W95146  40.608  21.969  12.435
26918W        W95147  26.370  37.967  11.159
26919W        W95148  18.108  26.521   3.647
26920W        W95149   1.223  18.270   4.321
26921W        W95150  10.435  17.449   1.673
26922W        W95151  17.033  39.491   0.694
26923W        W95152  37.331   1.479  14.047
26924W        W95153  22.119  29.998   0.731
26925W        W95154   4.620  12.671  12.068
26926W        W95155  42.006  39.440  13.331
26927W        W95156  14.543   3.761   2.771
26928W        W95157  13.798   9.599  14.370
26929W        W95158  36.913   7.170   0.259
26930W        W95159  24.075   1.334   4.232
26931W        W95160   3.968   2.222   0.227
26932W        W95161  17.867  11.038  13.007
26933W        W95162  27.312   4.225   1.470
26934W        W95163  42.014  21.118   0.803
26935W        W95164   0.394   5.010   2.321
26936W        W95165   9.702   3.319   1.828
26937W        W95166  33.505  14.846  14.335
26938W        W95167  37.518   2.260  11.197
26939W        W95168   3.547  28.890   4.016
26940W        W95169  36.393  37.435   3.251
26941W        W95170  15.879  36.982   4.585
26942W        W95171  42.861  34.817   0.250
26943W        W95172   4.392   2.410  10.640
26944W        W95173  43.106  22.599   2.195
26945W        W95174   3.790  41.433   2.780
26946W        W95175  16.315  41.015  13.491
26947W        W95176  10.279   9.387   0.194
26948W        W95177  40.584  35.478  14.290
26949W        W95178  15.014  42.239  11.646
26950W        W95179  29.793  23.186  11.764
26951W        W95180  18.125  12.917  12.876
26952W        W95181   8.747  39.954  12.142
26953W        W95182  17.276  16.688   3.053
26954W        W95183   2.426  17.750   0.486
26955W        W95184  32.976  32.050   0.019
26956W        W95185  24.052   1.503  11.974
26957W        W95186   6.707  14.884  11.507
26958W        W95187  33.930  14.813  12.063
26959W        W95188  35.188  18.340   5.469
26960W        W95189  33.488  28.071   0.291
26961W        W95190  10.447  22.319  11.787
26962W        W95191   9.680   8.683   4.590
26963W        W95192  22.121  36.602   3.183
26964W        W95193  31.833  41.874   1.034
26965W        W95194  20.347  15.200  11.183
26966W        W95195  10.675  26.323  12.893
26967W        W95196  29.609  16.365  12.882
26968W        W95197  14.436  42.723   3.682
26969W        W95198  39.366  15.760  13.529
26970W        W95199  20.705  11.302  10.636
26971W        W95200  21.997  44.747  14.916
26972W        W95201  24.322   1.677   1.670
26973W        W95202  19.262   7.438  11.042
26974W        W95203   4.439  40.527   4.542
26975W        W95204  39.881   5.654   3.681
26976W        W95205  40.591   2.366   4.582
26977W        W95206  19.020   7.248  10.643
26978W        W95207  14.880  23.185  11.662
26979W        W95208   7.607  38.936   4.493
26980W        W95209  17.133   6.120  14.855
26981W        W95210  34.958   1.700  10.705
26982W        W95211  21.541  21.843  10.480
26983W        W95212  26.563  30.528   2.417
26984W        W95213  41.524  31.657  13.398
26985W        W95214  22.604  39.576   2.409
26986W        W95215  16.456  39.981  11.879
26987W        W95216   9.836  43.061   1.742
26988W        W95217  37.200  19.807  13.016
26989W        W95218   9.081   7.846   4.565
26990W        W95219   9.046  32.759   0.342
26991W        W95220  28.291  34.040   2.694
26992W        W95221  22.121   0.552   2.813
26993W        W95222  15.695  37.423   1.210
26994W        W95223  12.034  42.692   5.077
26995W        W95224  40.221  11.746  10.712
26996W        W95225   7.370   0.468   0.425
26997W        W95226  18.487  41.649   4.184
26998W        W95227  21.465  40.067  13.534
26999W        W95228  25.886  43.098  11.109
27000W        W95229  22.783  11.638  11.881
27001W        W95230  44.814  30.682   2.787
27002W        W95231  21.111  36.792   0.121
27003W        W95232  30.556   4.841   4.326
27004W        W95233  37.927  40.514  12.597
27005W        W95234  41.934  36.404  13.899
27006W        W95235   4.153   4.940   4.185
27007W        W95236  38.363   1.471  10.659
27008W        W95237   8.394  22.498   5.262
27009W        W95238  28.649  19.494  13.998
27010W        W95239  31.580  29.693  11.008
27011W        W95240  27.986   4.140   3.627
27012W        W95241  21.333  37.115  12.061
27013W        W95242  39.591  35.311   0.243
27014W        W95243   5.932  10.112   1.961
27015W        W95244  18.700   6.482  14.528
27016W        W95245  42.319  16.642  12.895
27017W        W95246  37.641   4.669   5.099
27018W        W95247   8.254  33.563  10.927
27019W        W95248  25.191  43.368   1.841
27020W        W95249  21.358  21.838  14.054
27021W        W95250  15.114  40.524  14.009
27022W        W95251  25.618  15.178  14.377
27023W        W95252   8.731  30.957   4.598
27024W        W95253  34.209  41.031  11.633
27025W        W95254  40.278   7.809  13.826
27026W        W95255  29.540  22.675   4.650
27027W        W95256  25.020  20.770   2.289
27028W        W95257  41.326  13.871   0.439
27029W        W95258  28.400  20.544  10.629
27030W        W95259   7.738  41.485   4.107
27031W        W95260  21.685   5.669  11.239
27032W        W95261   4.761  27.535   3.772
27033W        W95262   6.904  12.328  12.052
27034W        W95263   5.876  33.829  14.756
27035W        W95264   1.216  31.525  12.397
27036W        W95265   0.197  17.194  11.809
27037W        W95266  29.157  14.220   3.199
27038W        W95267   2.458  12.645  11.526
27039W        W95268  23.787  14.254   0.351
27040W        W95269  39.639  33.457   0.357
27041W        W95270   4.012  22.723   3.705
27042W        W95271   3.245  29.723  11.032
27043W        W95272  40.694  39.409   1.987
27044W        W95273  11.746  26.306   4.021
27045W        W95274  23.013   3.756   3.652
27046W        W95275  43.105  14.888   4.091
27047W        W95276  24.352  37.770  11.129
27048W        W95277   6.457  24.969  13.867
27049W        W95278  37.634   4.312   3.801
27050W        W95279  22.201  10.579  11.453
27051W        W95280  11.569   2.389   4.318
27052W        W95281  41.564   8.241   2.245
27053W        W95282  17.658   6.472  12.137
27054W        W95283  28.125  37.612   0.373
27055W        W95284  26.160  24.903   4.653
27056W        W95285  33.861  13.230   1.751
27057W        W95286  18.596  42.138   2.226
27058W        W95287  13.079  34.090   2.132
27059W        W95288  32.233   1.472  12.013
27060W        W95289  17.606  21.652   2.357
27061W        W95290  20.457  33.868   0.442
27062W        W95291  22.497  23.441   3.668
27063W        W95292   1.053  35.010   3.805
27064W        W95293  42.740  25.975   1.992
27065W        W95294  23.577  20.798  12.981
27066W        W95295  28.651  35.577  13.746
27067W        W95296  41.537  36.990   2.346
27068W        W95297   9.089  15.221   4.321
27069W        W95298  33.341  40.984  13.958
27070W        W95299  14.855  19.105  14.943
27071W        W95300  43.884   6.180   2.352
27072W        W95301   4.703  44.467  12.939
27073W        W95302  23.714  39.381   0.515
27074W        W95303  42.024   6.853  11.227
27075W        W95304   1.764  27.717  14.416
27076W        W95305  12.176  42.535   0.304
27077W        W95306   5.505  16.297   1.870
27078W        W95307  13.823   3.759   0.423
27079W        W95308  27.004  34.606  13.926
27080W        W95309  44.393  18.401  10.766
27081W        W95310   2.286  39.686   4.247
27082W        W95311   4.885  10.262  10.421
27083W        W95312  18.304  11.904   0.797
27084W        W95313  23.656  12.832  14.699
27085W        W95314  28.926  24.230  11.204
27086W        W95315  19.578  23.040  14.481
27087W        W95316  25.984   4.477  11.121
27088W        W95317   4.992  31.524   1.803
27089W        W95318  12.122  12.943  14.697
27090W        W95319  35.194  32.071   4.022
27091W        W95320  21.266  32.525   2.330
27092W        W95321  32.135   3.435   3.362
27093W        W95322  38.966   3.026   3.248
27094W        W95323  20.146  10.254  10.914
27095W        W95324  36.385  36.918   4.608
27096W        W95325  29.994  22.578   2.828
27097W        W95326  27.895  28.603  10.331
27098W        W95327   1.597  42.272   4.089
27099W        W95328   4.426  27.043  10.639
27100W        W95329  40.578  28.990  11.011
27101W        W95330   6.662  24.759   4.663
27102W        W95331  15.809  41.348   9.986
27103W        W95332  38.344  28.380   3.790
27104W        W95333  23.168  17.281   0.525
27105W        W95334  20.660  25.794   0.567
27106W        W95335  36.155  12.545  13.289
27107W        W95336  31.498  27.293   4.260
27108W        W95337  36.782   1.211   1.543
27109W        W95338  10.190  28.926   1.195
27110W        W95339  44.220  25.549   3.561
27111W        W95340  36.390  29.009   0.275
27112W        W95341  40.287  44.894  14.751
27113W        W95342  36.690  11.885   1.710
27114W        W95343  37.635  29.747  12.521
27115W        W95344   4.244  42.629   1.494
27116W        W95345  34.340  43.379   0.757
27117W        W95346  23.255   0.089  12.938
27118W        W95347  21.757  32.735   3.168
27119W        W95348  20.267  11.819   4.241
27120W        W95349   5.689  22.961   2.346
27121W        W95350  16.058   0.222   1.869
27122W        W95351   5.379  15.620   2.199
27123W        W95352   7.729   1.198   2.141
27124W        W95353  19.148  23.610   4.968
27125W        W95354   0.338  25.934  13.320
27126W        W95355  23.488  31.406  14.372
27127W        W95356  42.376  25.494   4.496
27128W        W95357  31.269  16.500  14.865
27129W        W95358  42.795  34.715   3.131
27130W        W95359  18.247   2.934   2.913
27131W        W95360   5.717   6.814   2.247
27132W        W95361  44.042   3.829   3.676
27133W        W95362  35.433   8.333  10.375
27134W        W95363  33.383  41.974   1.813
27135W        W95364  27.193  24.135   2.181
27136W        W95365  39.087   5.332   1.963
27137W        W95366   3.237  30.407   1.299
27138W        W95367  32.546   5.890   9.911
27139W        W95368   0.542  43.882  12.434
27140W        W95369  21.810  11.843   3.281
27141W        W95370  42.204  29.970   2.245
27142W        W95371  37.166  44.826   3.641
27143W        W95372  39.585  20.135   3.574
27144W        W95373   4.781  43.029  14.323
27145W        W95374   2.221  17.919  11.132
27146W        W95375  43.356  13.520   4.329
27147W        W95376  14.851  38.872  12.590
27148W        W95377  31.325  27.065  13.524
27149W        W95378  22.102   3.654   1.370
27150W        W95379  34.401  21.785  14.339
27151W        W95380  13.003  21.656   0.238
27152W        W95381  39.454  13.858  11.202
27153W        W95382   2.968  35.889  12.374
27154W        W95383  27.234   8.905   5.049
27155W        W95384  12.378  32.391  14.845
27156W        W95385  31.583  20.240  10.116
27157W        W95386  22.254  21.436   2.361
27158W        W95387  39.481  38.286  12.103
27159W        W95388  19.719  14.862  13.810
27160W        W95389  21.479  30.556   0.384
27161W        W95390  17.843   4.331  11.012
27162W        W95391   1.156  19.759  11.979
27163W        W95392  32.413  30.934  10.758
27164W        W95393  41.570  27.821   4.144
27165W        W95394   7.374  10.238   3.206
27166W        W95395  35.454  24.337  13.120
27167W        W95396   0.918  31.898   3.350
27168W        W95397  24.300  34.357   1.861
27169W        W95398  32.338  40.938  14.846
27170W        W95399   0.415  28.739   4.547
27171W        W95400  11.734  34.476   1.571
27172W        W95401  14.401  37.040   1.838
27173W        W95402   2.261  34.839  14.104
27174W        W95403  16.750  27.544  10.629
27175W        W95404  32.367  32.035   0.905
27176W        W95405   9.396  17.271  12.514
27177W        W95406  28.034  32.456   5.068
27178W        W95407  29.249  39.352   1.388
27179W        W95408  26.714   2.683   4.183
27180W        W95409   6.362  43.825   3.201
27181W        W95410  28.570  23.751  11.111
27182W        W95411   9.119  27.475  13.827
27183W        W95412   4.439  21.136  14.520
27184W        W95413  24.137  10.666   0.061
27185W        W95414   4.073  22.652   1.975
27186W        W95415  38.216   3.357   2.809
27187W        W95416  24.238  32.887  14.959
27188W        W95417  35.244  35.758   3.098
27189W        W95418  16.156  21.219   4.220
27190W        W95419   4.781  15.863  14.020
27191W        W95420  30.642  41.375   3.920
27192W        W95421  38.281  25.204  11.110
27193W        W95422  35.855   5.174   2.437
27194W        W95423  11.140  19.608  13.040
27195W        W95424  16.811  16.319  10.666
27196W        W95425  14.378  27.656   0.428
27197W        W95426  41.165   4.385   0.985
27198W        W95427  12.778  35.106  12.898
27199W        W95428  43.507   3.717  11.177
27200W        W95429  23.785  40.842  11.915
27201W        W95430  37.336  15.203   1.425
27202W        W95431  44.368   5.659   4.548
27203W        W95432  33.420  43.693  14.073
27204W        W95433  24.308  35.007   3.234
27205W        W95434   2.362  28.517  14.859
27206W        W95435  21.961   3.205  11.592
27207W        W95436   3.341  40.328   5.199
27208W        W95437  35.042  25.213  12.479
27209W        W95438  39.572  42.138  10.606
27210W        W95439  15.640  43.711  11.233
27211W        W95440  44.478  18.670   3.134
27212W        W95441  10.351  41.041   0.260
27213W        W95442   7.168  17.047   3.695
27214W        W95443  39.049  25.239  13.389
27215W        W95444  43.844  18.539  14.431
27216W        W95445   8.241  18.644   3.840
27217W        W95446  38.854  33.688  11.621
27218W        W95447  14.681  19.087  10.683
27219W        W95448  18.086  27.082   4.108
27220W        W95449  42.862  30.274  11.166
27221W        W95450   4.434   0.840  11.180
27222W        W95451  17.731  22.925   2.800
27223W        W95452  38.742  14.205   3.205
27224W        W95453  38.927  15.372  11.697
27225W        W95454   3.521  22.131   4.252
27226W        W95455   3.244   0.400   2.056
27227W        W95456  27.854   1.487  12.511
27228W        W95457  35.818  35.274  12.486
27229W        W95458   1.171  10.710  14.935
27230W        W95459   0.192  20.141   3.736
27231W        W95460   2.831  21.698  13.108
27232W        W95461  20.933   1.254   3.656
27233W        W95462   5.490   2.320   2.764
27234W        W95463  43.383   7.692  12.336
27235W        W95464   8.726  22.463  12.923
27236W        W95465  18.700  32.323  11.063
27237W        W95466  29.705  25.113   3.614
27238W        W95467  15.411   8.429  13.907
27239W        W95468  16.276  43.507   0.870
27240W        W95469  30.299   4.795  12.839
27241W        W95470  42.231  19.624   4.224
27242W        W95471   8.230   9.408   4.362
27243W        W95472  36.504   9.571  14.502
27244W        W95473  14.665   2.866  10.980
27245W        W95474  28.950  36.729  12.896
27246W        W95475  11.574  36.488  12.160
27247W        W95476  37.572  20.621   4.627
27248W        W95477  36.352  11.050   1.245
27249W        W95478  37.520  24.647  13.316
27250W        W95479  10.542  25.531  11.160
27251W        W95480  34.421  33.325  12.055
27252W        W95481   4.426   5.349   2.479
27253W        W95482   8.289  36.894   4.325
27254W        W95483  34.399  12.338   0.826
27255W        W95484   1.424  39.076   4.453
27256W        W95485  29.679  34.081   3.789
27257W        W95486  37.193   6.415  13.943
27258W        W95487   6.375  29.771  14.550
27259W        W95488  14.416   9.544   1.500
27260W        W95489  33.609  33.538  11.004
27261W        W95490  24.347   0.772   1.670
27262W        W95491  41.723  34.254  10.862
27263W        W95492   1.278  40.091  12.887
27264W        W95493  33.397  20.662  11.525
27265W        W95494  44.246   6.570   2.290
27266W        W95495  30.722  40.929   4.214
27267W        W95496  20.198  33.241   3.597
27268W        W95497  26.144  36.793  11.998
27269W        W95498  44.669  36.371   1.674
27270W        W95499  27.892  39.509  10.725
27271W        W95500  26.283  10.139   3.631
27272W        W95501  35.987  28.067   0.786
27273W        W95502  36.902  14.741   1.912
27274W        W95503  44.120  20.180   0.805
27275W        W95504  26.687  32.745   3.257
27276W        W95505  29.548  30.899  13.063
27277W        W95506  29.886  32.508  12.600
27278W        W95507  33.856   3.417   2.789
27279W        W95508  41.925  13.206   4.995
27280W        W95509  27.921  23.095  13.007
27281W        W95510  27.827   1.630  14.963
27282W        W95511  37.504  32.544   1.763
27283W        W95512  42.290  43.978   3.194
27284W        W95513  14.637  32.975   3.200
27285W        W95514   2.713   1.863   2.372
27286W        W95515  11.491  19.814  10.884
27287W        W95516  16.851  12.107   4.150
27288W        W95517  24.897  35.645   0.714
27289W        W95518  43.824  31.572   2.325
27290W        W95519  14.682  22.226  12.091
27291W        W95520  37.290  36.850  14.261
27292W        W95521  34.596  38.493   2.324
27293W        W95522  12.262   4.489  14.961
27294W        W95523  34.144  34.930   0.448
27295W        W95524   4.826   1.067  14.456
27296W        W95525   9.897  35.444   3.833
27297W        W95526  11.865   7.392   0.441
27298W        W95527  37.088  22.048   3.115
27299W        W95528  33.166  12.771   4.748
27300W        W95529   5.932  32.491  14.958
27301W        W95530  38.114   9.538   0.090
27302W        W95531  15.509  38.919   3.227
27303W        W95532   4.609  27.704   0.478
27304W        W95533   3.209  41.933  13.907
27305W        W95534  14.270   7.831   4.037
27306W        W95535  17.345   7.891  14.051
27307W        W95536  13.421  44.247  12.237
27308W        W95537   9.962  24.156   0.003
27309W        W95538  20.116  26.546  12.859
27310W        W95539  28.589  35.166   5.770
27311W        W95540   1.351  19.066  12.736
27312W        W95541  38.952   8.706  11.650
27313W        W95542  38.891  32.176  10.774
27314W        W95543  33.411  32.394   0.343
27315W        W95544  39.172  23.751  13.955
27316W        W95545  28.859  16.553  11.858
27317W        W95546  42.279  18.033  13.081
27318W        W95547  14.772  23.603   5.398
27319W        W95548  37.097  40.799   3.409
27320W        W95549  27.583   5.121  14.934
27321W        W95550  44.869  30.879  13.316
27322W        W95551  17.658  30.460   2.731
27323W        W95552  21.644  11.684  14.495
27324W        W95553   5.466  16.838  14.579
27325W        W95554  41.060  35.540  14.486
27326W        W95555  30.272   6.205  13.560
27327W        W95556  40.116  31.996   1.872
27328W        W95557  42.794   7.650  14.282
27329W        W95558  15.070  40.859   1.397
27330W        W95559  21.028  34.034  13.943
27331W        W95560  32.145  34.434   0.123
27332W        W95561  40.634  27.100   0.727
27333W        W95562   0.171  31.867  14.682
27334W        W95563  16.402  16.193   3.937
27335W        W95564   1.575  32.130  14.809
27336W        W95565  43.859   4.376   1.880
27337W        W95566   5.359  12.041   3.612
27338W        W95567  13.853  32.969   2.115
27339W        W95568  41.478  14.007  11.593
27340W        W95569  31.933  26.582   2.820
27341W        W95570   8.741  21.621  10.650
27342W        W95571   4.770  17.904  14.583
27343W        W95572  31.553  11.036  14.095
27344W        W95573  25.323  13.616   5.513
27345W        W95574  40.499  10.300   1.206
27346W        W95575  15.369  18.188  11.936
27347W        W95576  14.230  44.247  14.791
27348W        W95577  24.909  28.657  12.265
27349W        W95578  16.197  17.706  12.392
27350W        W95579  27.419  16.100   4.467
27351W        W95580  29.018  26.543   4.481
27352W        W95581  37.414  26.625  10.708
27353W        W95582  23.744  40.020   4.728
27354W        W95583   0.755  40.816   0.932
27355W        W95584  42.148   4.058  11.002
27356W        W95585  10.063  28.150   3.278
27357W        W95586  14.596   7.881   1.293
27358W        W95587   6.311  37.479  11.576
27359W        W95588  29.041  31.522  13.838
27360W        W95589  29.207  22.154   0.396
27361W        W95590   1.289  28.380   4.117
27362W        W95591  27.195  36.809   1.886
27363W        W95592  14.335  16.884  12.368
27364W        W95593   1.206  35.517   1.369
27365W        W95594  13.425  30.707   2.935
27366W        W95595   2.675   4.463   1.851
27367W        W95596  28.946  27.097   1.932
27368W        W95597  10.774  20.465  12.850
27369W        W95598  28.933  10.170   1.701
27370W        W95599  14.799  20.995   1.360
27371W        W95600   0.760  16.052   1.494
27372W        W95601  35.586  19.197   3.744
27373W        W95602  31.877  42.528   3.641
27374W        W95603   6.208  21.941  12.733
27375W        W95604  26.080  30.005   1.279
27376W        W95605  19.570  36.155  11.549
27377W        W95606  27.840   5.347   2.934
27378W        W95607  44.529  22.087   2.330
27379W        W95608  26.251   1.881   3.182
27380W        W95609   9.949  10.715  12.170
27381W        W95610  40.104  33.458  12.217
27382W        W95611  38.381  23.819  11.917
27383W        W95612  20.680   3.248   1.289
27384W        W95613   6.212  25.649   0.901
27385W        W95614  20.144  27.201   1.241
27386W        W95615   7.758  25.694   2.335
27387W        W95616  35.174  38.704   1.009
27388W        W95617  22.522  20.581  10.699
27389W        W95618   7.108  30.977  13.449
27390W        W95619  36.885   5.232   1.452
27391W        W95620  27.213   3.438  11.087
27392W        W95621   2.779  42.959  13.422
27393W        W95622  37.102   5.318  10.763
27394W        W95623  31.187   0.859   4.336
27395W        W95624  16.850  37.389  11.459
27396W        W95625  20.515  42.757  14.761
27397W        W95626   7.938  26.186   2.448
27398W        W95627  15.866  25.912   0.980
27399W        W95628   2.161  28.589   4.831
27400W        W95629  25.992  31.122  11.849
27401W        W95630  42.185  15.262  11.088
27402W        W95631  34.486  42.743  12.054
27403W        W95632   0.441  41.514   4.202
27404W        W95633   7.130  17.804   4.376
27405W        W95634   0.798  17.015   4.896
27406W        W95635   1.267  24.563  12.366
27407W        W95636  17.680  43.352  11.174
27408W        W95637   1.766  33.385   2.051
27409W        W95638  37.959  24.259   3.652
27410W        W95639  26.132  35.634  13.978
27411W        W95640  25.063  16.808   1.249
27412W        W95641  32.179  13.792   1.890
27413W        W95642  13.227  26.052  13.092
27414W        W95643  36.351   1.992  11.543
27415W        W95644   9.769  24.838   4.670
27416W        W95645  41.924  20.358   4.136
27417W        W95646  39.203  10.643   1.255
27418W        W95647  13.147  20.143  13.044
27419W        W95648  26.729   7.244  13.509
27420W        W95649  15.622  29.491  13.682
27421W        W95650  35.423  20.095  13.280
27422W        W95651   4.506  35.563  12.021
27423W        W95652  15.624  35.884   1.487
27424W        W95653   5.764  23.757   2.903
27425W        W95654  41.796  18.755  14.336
27426W        W95655  21.801  39.587  12.998
27427W        W95656   1.939  32.007   0.806
27428W        W95657  37.144   7.361   1.479
27429W        W95658  36.032   9.688   2.262
27430W        W95659  24.504   7.913  10.669
27431W        W95660  35.339  29.610  13.544
27432W        W95661  39.473  26.942   2.833
27433W        W95662  41.070   3.330  11.279
27434W        W95663  41.376  32.884  12.379
27435W        W95664  35.586  17.391  14.830
27436W        W95665  13.362  32.359  12.429
27437W        W95666  27.010  20.143   0.823
27438W        W95667  34.381  39.424  11.357
27439W        W95668   7.606   3.891   4.705
27440W        W95669  14.551  39.009   3.349
27441W        W95670  39.902   6.976  14.467
27442W        W95671  25.665  20.997  10.789
27443W        W95672  30.198  31.690   1.429
27444W        W95673  24.242   3.050   2.234
27445W        W95674   6.291  21.613   4.736
27446W        W95675  21.048   4.240   4.088
27447W        W95676  10.221  22.777  14.088
27448W        W95677  26.843  21.236  13.072
27449W        W95678   9.584  27.111   2.983
27450W        W95679  24.179   7.747  11.087
27451W        W95680  42.828   2.392  14.378
27452W        W95681  10.268  41.440  12.876
27453W        W95682   9.108  27.996   4.623
27454W        W95683  25.655  32.425   1.456
27455W        W95684  26.509  16.260   2.467
27456W        W95685  17.238  14.413  11.718
27457W        W95686  28.148   3.306   0.420
27458W        W95687   0.564  23.770   1.110
27459W        W95688  34.579   7.875   3.308
27460W        W95689   5.878   6.171   0.980
27461W        W95690  12.543  26.008  12.356
27462W        W95691  29.523  20.564  11.976
27463W        W95692  24.893  26.785  11.282
27464W        W95693  33.432   3.247  14.823
27465W        W95694  27.552   0.528   3.279
27466W        W95695  27.732  33.266  10.099
27467W        W95696  13.279  11.467  10.915
27468W        W95697  24.652  11.134   1.269
27469W        W95698  10.169   1.359  14.036
27470W        W95699  29.500  11.049   2.179
27471W        W95700  39.824   1.485  14.193
27472W        W95701  43.500  16.829   2.835
27473W        W95702  27.797  43.668  11.446
27474W        W95703  24.140  23.940   4.558
27475W        W95704  32.024  42.644   4.754
27476W        W95705  36.940  34.793  11.463
27477W        W95706  33.098   2.415   3.231
27478W        W95707  18.808  13.465   2.756
27479W        W95708  40.009   6.543  13.022
27480W        W95709  12.717   3.209  13.122
27481W        W95710  19.609  41.002   2.271
27482W        W95711   3.354  40.545  13.807
27483W        W95712   0.271  11.370  12.788
27484W        W95713  29.974  19.597  13.064
27485W        W95714  29.928  17.339   2.829
27486W        W95715  28.569  34.266   5.314
27487W        W95716  20.682  22.719  11.460
27488W        W95717   5.212  30.505   2.769
27489W        W95718  21.246  15.175   3.030
27490W        W95719  37.333   9.593  14.039
27491W        W95720  33.983   2.028  14.872
27492W        W95721   8.394   1.812   0.024
27493W        W95722   5.211  16.111  12.839
27494W        W95723   2.754  17.372  11.148
27495W        W95724  34.551  20.752  14.311
27496W        W95725  27.365  12.392  11.421
27497W        W95726  33.183  33.173   2.234
27498W        W95727  38.391  39.131  13.308
27499W        W95728  26.878  25.124   1.319
27500W        W95729   6.896  38.908   2.002
27501W        W95730  38.002  32.600  13.525
27502W        W95731  41.624  11.283  10.352
27503W        W95732   5.792  19.557  13.991
27504W        W95733  31.273  24.038  10.437
27505W        W95734  37.480   9.002   5.298
27506W        W95735   3.810   8.015   1.880
27507W        W95736  25.596   7.915  11.956
27508W        W95737  36.142  33.785   0.622
27509W        W95738  18.089   3.787   2.867
27510W        W95739  17.987  22.973   2.238
27511W        W95740   3.781  28.162   1.368
27512W        W95741  15.164   7.351  14.515
27513W        W95742   8.997  37.615   3.626
27514W        W95743  37.039  14.674  11.244
27515W        W95744  35.314  20.619  11.709
27516W        W95745  18.547  26.604  11.642
27517W        W95746  14.348   8.272   0.017
27518W        W95747  41.022  32.456   1.300
27519W        W95748  35.000  38.537   4.557
27520W        W95749  39.745  27.645   1.697
27521W        W95750  39.901   5.900  13.862
27522W        W95751  14.156  33.243   3.532
27523W        W95752   5.631  37.814   3.985
27524W        W95753  27.945  37.797  12.971
27525W        W95754   8.319  25.487   3.147
27526W        W95755  21.245  16.187   2.892
27527W        W95756  26.520  20.866  12.918
27528W        W95757  44.902  18.805  12.462
27529W        W95758  21.869  22.882   1.258
27530W        W95759  37.084  21.998   4.639
27531W        W95760  13.044   6.424   4.846
27532W        W95761  10.606  36.906   1.309
27533W        W95762  22.635  13.299   2.215
27534W        W95763   1.939   5.607   3.844
27535W        W95764  43.993  19.570   3.613
27536W        W95765   4.688  27.459  12.973
27537W        W95766   4.450  13.618  13.655
27538W        W95767   1.489  26.679   2.944
27539W        W95768  25.955  43.696  12.901
27540W        W95769  30.815  21.090  12.229
27541W        W95770  22.663  21.556  13.704
27542W        W95771   5.432  43.958  13.528
27543W        W95772  36.496  11.720  14.952
27544W        W95773  21.953   8.262  14.686
27545W        W95774  34.871  44.884  11.456
27546W        W95775  16.063  39.055   3.649
27547W        W95776  18.623   9.807  12.118
27548W        W95777  21.983  18.645  12.074
27549W        W95778  17.346  17.828   2.130
27550W        W95779  11.700  27.579  13.982
27551W        W95780  13.384  43.219  12.506
27552W        W95781  29.851  16.119   2.204
27553W        W95782  36.828  22.505   1.405
27554W        W95783  24.305  41.124   1.224
27555W        W95784  16.050  33.461  14.263
27556W        W95785  16.072   9.010  13.356
27557W        W95786  36.506  17.078   1.681
27558W        W95787  31.131  17.694  12.605
27559W        W95788  44.230  35.829  11.179
27560W        W95789  43.489  11.886  13.966
27561W        W95790  12.906  23.552  13.356
27562W        W95791  14.858  11.562  12.933
27563W        W95792  28.993   2.856   0.229
27564W        W95793  43.453  18.297   1.743
27565W        W95794  38.469  23.106  13.514
27566W        W95795  12.178   6.389  13.078
27567W        W95796  23.410   7.736   4.930
27568W        W95797   9.871  41.854  11.602
27569W        W95798  12.751  37.993  11.956
27570W        W95799  30.531  20.796  10.457
27571W        W95800  25.521  21.774  11.203
27572W        W95801   1.684   0.787   3.199
27573W        W95802  27.501  10.665   2.579
27574W        W95803   9.927  44.819  12.911
27575W        W95804  20.821   4.675   1.896
27576W        W95805  42.856  30.156   4.388
27577W        W95806   2.665  19.850   2.825
27578W        W95807  42.996  42.526   2.246
27579W        W95808  33.826  15.676  10.201
27580W        W95809  13.764  28.106   3.122
27581W        W95810   6.978   4.844  12.137
27582W        W95811  16.103  15.573   2.702
27583W        W95812  22.579  14.688   4.587
27584W        W95813  39.835  19.189   3.727
27585W        W95814  17.102  36.147  13.174
27586W        W95815   9.716  24.201   0.936
27587W        W95816   6.952   2.508   1.415
27588W        W95817  39.987  32.507  12.399
27589W        W95818  27.203  30.615   4.636
27590W        W95819  40.260  28.611  10.857
27591W        W95820  26.611  33.979  13.359
27592W        W95821  12.345  25.952   0.435
27593W        W95822  20.144   8.733  12.052
27594W        W95823  32.957  40.419  10.626
27595W        W95824  31.145  35.846   2.237
27596W        W95825  35.352  34.017   3.665
27597W        W95826  29.905  28.755  12.951
27598W        W95827   5.817   7.118  14.049
27599W        W95828   2.589  19.046  13.479
27600W        W95829   4.886  10.802   1.176
27601W        W95830  34.872  16.073   1.160
27602W        W95831  39.345  32.373  10.650
27603W        W95832  28.033  29.138   1.407
27604W        W95833  18.647  37.403  10.294
27605W        W95834  43.304   0.757   3.581
27606W        W95835  11.276  32.966   1.276
27607W        W95836  35.493  35.522  13.262
27608W        W95837   9.977   8.934  11.576
27609W        W95838  35.675  13.289   1.760
27610W        W95839   2.483  29.571   4.608
27611W        W95840   9.307   8.525   4.175
27612W        W95841  23.773  15.392   4.965
27613W        W95842  39.548  34.863  14.844
27614W        W95843  14.195  23.135   3.181
27615W        W95844  32.973  42.346   4.787
27616W        W95845   7.228  13.256   4.970
27617W        W95846  14.361  43.319  12.845
27618W        W95847  22.926  18.634   0.262
27619W        W95848  24.879  30.430   0.733
27620W        W95849  19.910   6.855   3.444
27621W        W95850  28.587   0.090   0.937
27622W        W95851   7.318   2.961   2.158
27623W        W95852  12.590  22.741  10.536
27624W        W95853  30.968  14.249  14.270
27625W        W95854   4.154  26.364   2.178
27626W        W95855   8.675  18.829  10.787
27627W        W95856  39.844  29.884   1.286
27628W        W95857  21.870  37.809   1.318
27629W        W95858  34.848  22.204   2.378
27630W        W95859  25.580  44.531  10.914
27631W        W95860  13.006   8.748   2.155
27632W        W95861  42.571  25.873  11.088
27633W        W95862   7.170  38.356  12.424
27634W        W95863  44.072  29.082  11.494
27635W        W95864  13.361  31.550  10.885
27636W        W95865  12.234  28.475  10.754
27637W        W95866  29.046  25.794   1.833
27638W        W95867  25.529   5.967  11.852
27639W        W95868  13.936  18.624   1.443
27640W        W95869  29.415  23.571   3.734
27641W        W95870   0.863  11.811  10.029
27642W        W95871  42.010  24.609   2.926
27643W        W95872  16.394   3.370   2.740
27644W        W95873  22.230  39.594   1.993
27645W        W95874  43.717  28.926   4.750
27646W        W95875  38.436  14.717   1.671
27647W        W95876  36.907  12.505   3.198
27648W        W95877  31.502  16.542  11.779
27649W        W95878  41.813  31.996   4.496
27650W        W95879  39.376   2.370   2.314
27651W        W95880  41.956  19.746  11.504
27652W        W95881  41.612  21.293   3.109
27653W        W95882  19.058   2.062   2.216
27654W        W95883  31.130  34.944  12.519
27655W        W95884  33.352   2.013   1.805
27656W        W95885  36.834  42.411  12.509
27657W        W95886   2.020  34.562  11.990
27658W        W95887  31.188   9.219   1.680
27659W        W95888  16.571  20.688  13.326
27660W        W95889  39.076  34.564  14.371
27661W        W95890   0.389  22.212  11.995
27662W        W95891  14.261   1.924  11.915
27663W        W95892   1.678  12.668   1.377
27664W        W95893   1.400  27.934  12.059
27665W        W95894  17.355  10.799   2.941
27666W        W95895  36.025  11.604   0.175
27667W        W95896   9.953  38.398   3.142
27668W        W95897  30.895  10.286  11.086
27669W        W95898  31.034   1.410  13.372
27670W        W95899  26.209  23.569  11.156
27671W        W95900   3.035  10.264  11.403
27672W        W95901  28.619  29.551   2.676
27673W        W95902   4.759  17.826   4.049
27674W        W95903  21.100  36.477   4.309
27675W        W95904  14.693  14.719   1.726
27676W        W95905  15.712  42.390  14.154
27677W        W95906  23.463  33.335  13.492
27678W        W95907  24.974  11.968  12.490
27679W        W95908   9.842  16.350   2.743
27680W        W95909   5.937  35.894   0.338
27681W        W95910  12.862  18.189   0.255
27682W        W95911  31.569   2.722   4.094
27683W        W95912  26.699  31.896   2.207
27684W        W95913  41.839  39.835   0.283
27685W        W95914  10.762   0.363   4.665
27686W        W95915  36.668  18.091  10.656
27687W        W95916  37.921   5.372  14.397
27688W        W95917  29.857  41.237  14.355
27689W        W95918  33.965  40.726  13.145
27690W        W95919  29.776  14.721   4.159
27691W        W95920  27.343  25.558  13.533
27692W        W95921  15.381  38.049  14.894
27693W        W95922  40.418  27.395  13.471
27694W        W95923  32.707   0.602  12.478
27695W        W95924  25.509  36.718  12.495
27696W        W95925   7.741  33.740   4.576
27697W        W95926  14.917  30.522   0.682
27698W        W95927  19.894  21.191  14.849
27699W        W95928   6.187  29.581   3.361
27700W        W95929   4.870  29.459   0.239
27701W        W95930   8.387  34.501  14.841
27702W        W95931  13.251  11.396  14.509
27703W        W95932   6.396  29.255  14.542
27704W        W95933  18.705   7.222   3.075
27705W        W95934  14.099  24.558   3.724
27706W        W95935  40.578  32.464   4.170
27707W        W95936   5.428  14.985  11.832
27708W        W95937  33.791  11.155  13.462
27709W        W95938  33.026  34.901  14.070
27710W        W95939  11.147  33.182   4.120
27711W        W95940  33.292  12.758  13.666
27712W        W95941  28.436   1.435  13.824
27713W        W95942  37.046  36.910  11.505
27714W        W95943  44.456  32.562   2.890
27715W        W95944  40.053  20.489   2.172
27716W        W95945   4.856  36.275  14.417
27717W        W95946  41.254  24.036  12.409
27718W        W95947   7.828  22.509  10.326
27719W        W95948  19.101  40.471   1.829
27720W        W95949  16.565   8.763  11.028
27721W        W95950  43.957  22.444   4.752
27722W        W95951   2.478  43.937   1.250
27723W        W95952  20.189  26.697   2.431
27724W        W95953  16.326  14.323   0.654
27725W        W95954  23.942  34.132   0.484
27726W        W95955  25.684  37.169   2.761
27727W        W95956   4.383  13.233   1.290
27728W        W95957   5.865  32.114   2.756
27729W        W95958   7.143  34.570   2.752
27730W        W95959  23.693   7.545  10.763
27731W        W95960  17.224   4.937  10.505
27732W        W95961   5.345  43.569   3.956
27733W        W95962  32.171  15.627   3.192
27734W        W95963  42.051  37.440   2.918
27735W        W95964  34.633  31.041   0.706
27736W        W95965  11.268  10.238  14.983
27737W        W95966  11.915  32.001   4.081
27738W        W95967  40.843   4.528  13.458
27739W        W95968  12.604  38.316   0.863
27740W        W95969  31.543  10.124   0.800
27741W        W95970  43.139   0.222   0.919
27742W        W95971  32.713   6.889  14.444
27743W        W95972   8.706  35.902  13.405
27744W        W95973  44.911  15.564  14.958
27745W        W95974  42.534  19.012   0.937
27746W        W95975  41.127   6.821   1.139
27747W        W95976  32.778   4.388  10.410
27748W        W95977   0.242   8.287   3.234
27749W        W95978  32.382  38.857   3.997
27750W        W95979   3.881  21.134   2.804
27751W        W95980  31.243  21.853  13.539
27752W        W95981   9.206  12.839   4.313
27753W        W95982  23.748  27.984   3.625
27754W        W95983  25.785  31.541   4.152
27755W        W95984  21.013  11.133   1.667
27756W        W95985   0.458   9.022   0.306
27757W        W95986  17.912  41.756  12.722
27758W        W95987   9.095   5.704  11.668
27759W        W95988  30.899  25.988   4.772
27760W        W95989  27.603  27.863  13.930
27761W        W95990  24.788  31.427   3.641
27762W        W95991  41.103   1.002  14.418
27763W        W95992  28.470   2.457   4.368
27764W        W95993  39.125  34.920  11.065
27765W        W95994  32.600  14.207  14.105
27766W        W95995  18.644  11.811  14.827
27767W        W95996   9.645  36.841  14.798
27768W        W95997  40.796   3.356  12.965
27769W        W95998  33.342  29.420   2.334
27770W        W95999  19.212  11.348   0.714
27771W        W96000  33.200  39.122  14.586
27772W        W96001   8.988  37.466  12.101
27773W        W96002  26.079  12.597   2.141
27774W        W96003  30.519  15.142   0.656
27775W        W96004  10.925  37.649  14.991
27776W        W96005  37.984  19.127   4.815
27777W        W96006   3.999  12.050  14.355
27778W        W96007   9.323  14.357   2.879
27779W        W96008  28.063  23.331  10.653
27780W        W96009  13.418  24.671   1.999
27781W        W96010  33.375   6.131  12.299
27782W        W96011  11.294  40.782   0.211
27783W        W96012  19.896  40.412  11.361
27784W        W96013   0.516  43.728  13.853
27785W        W96014  20.449  42.823  12.985
27786W        W96015  42.396  36.150  13.980
27787W        W96016  27.726  24.129   0.217
27788W        W96017  24.241  18.801   1.035
27789W        W96018   2.796   6.199  11.186
27790W        W96019  21.766  28.303   1.308
27791W        W96020  21.024  23.406   4.508
27792W        W96021  23.704  11.865   1.531
27793W        W96022  11.984   3.264  10.807
27794W        W96023  29.694  41.725  13.044
27795W        W96024  35.753  35.862   3.182
27796W        W96025  16.772   0.688   3.736
27797W        W96026  31.404  32.442  12.612
27798W        W96027   0.711  14.575   4.350
27799W        W96028  40.972  38.949   4.845
27800W        W96029  38.094  29.038  11.114
27801W        W96030  20.508  26.976  11.285
27802W        W96031  14.667  24.191  11.157
27803W        W96032  16.667  42.894   2.232
27804W        W96033  16.536  27.121  11.094
27805W        W96034   9.566  36.678  13.577
27806W        W96035  10.052  10.482  10.271
27807W        W96036   6.247  35.891  13.459
27808W        W96037   0.402  21.666   2.789
27809W        W96038  36.291  38.645  10.651
27810W        W96039  35.954  19.053  10.670
27811W        W96040   8.389  42.572   0.347
27812W        W96041  27.891  15.672  12.994
27813W        W96042  23.715   6.333  11.667
27814W        W96043  20.096   9.219   2.282
27815W        W96044  27.151  17.864  14.562
27816W        W96045  30.991  39.575  10.770
27817W        W96046  19.537   2.393   3.767
27818W        W96047  19.829  42.796  12.685
27819W        W96048  35.717  11.576   2.858
27820W        W96049  42.878   7.983  12.410
27821W        W96050   7.423  12.424   0.904
27822W        W96051  32.863  18.253   1.408
27823W        W96052  26.485  43.906   0.030
27824W        W96053  10.882   4.565   0.807
27825W        W96054   3.567  13.594   3.376
27826W        W96055   6.805  15.241   0.591
27827W        W96056  22.076  12.220   3.544
27828W        W96057  21.795   6.871   3.615
27829W        W96058  32.534  23.485   4.649
27830W        W96059   6.419  25.551   4.076
27831W        W96060  42.868  27.695   2.731
27832W        W96061   5.484  12.262   2.084
27833W        W96062  19.681  17.874  11.027
27834W        W96063   9.363  43.986   1.640
27835W        W96064  28.656  36.887   3.726
27836W        W96065  11.385  35.543  14.911
27837W        W96066  41.454   7.240   1.140
27838W        W96067  19.664  26.627   2.859
27839W        W96068  11.768  38.851   2.655
27840W        W96069  10.927  30.076  14.919
27841W        W96070  23.792  39.350  10.850
27842W        W96071  43.863  38.995   3.761
27843W        W96072  24.938  41.782   2.704
27844W        W96073  17.131  36.584   4.384
27845W        W96074  27.985   1.979  12.371
27846W        W96075  10.127   5.606  12.432
27847W        W96076  14.062  39.293  14.757
27848W        W96077  37.553  20.105   1.923
27849W        W96078  23.622  37.954   2.203
27850W        W96079  22.206  25.580  14.238
27851W        W96080  11.614   0.703  10.681
27852W        W96081  34.585  41.511   1.478
27853W        W96082  37.898  38.046   2.777
27854W        W96083  29.070   8.686  10.905
27855W        W96084   8.618  28.692  14.233
27856W        W96085   5.190  14.206   3.620
27857W        W96086  27.482  31.395   2.667
27858W        W96087  41.524  42.358  14.702
27859W        W96088  33.696  26.199  10.040
27860W        W96089  36.328  24.552  10.662
27861W        W96090   9.686  18.174  13.080
27862W        W96091  22.986  39.417  13.455
27863W        W96092  40.453  10.502  12.985
27864W        W96093  42.790  41.108  10.493
27865W        W96094  41.431  32.003  13.781
27866W        W96095  33.506  40.356  13.347
27867W        W96096  11.965   4.927  12.956
27868W        W96097   1.966  12.671  11.398
27869W        W96098  18.975  12.823   0.258
27870W        W96099   0.648   6.848  13.209
27871W        W96100  42.848  43.196  11.534
27872W        W96101  11.056  28.981  12.640
27873W        W96102  27.436   1.776  12.994
27874W        W96103   9.355   2.295   0.609
27875W        W96104  38.804  27.387   0.410
27876W        W96105   7.344  40.272  12.854
27877W        W96106  39.010  11.295  12.798
27878W        W96107   9.392  13.374   4.112
27879W        W96108  32.355  25.171   2.617
27880W        W96109   3.373  12.298   3.780
27881W        W96110  43.922  39.035  14.510
27882W        W96111  43.987  23.533  14.521
27883W        W96112  44.918  23.013  13.037
27884W        W96113   1.288  21.757   0.082
27885W        W96114  31.428  24.396  14.530
27886W        W96115  34.858  42.017  12.511
27887W        W96116   1.707  29.411  11.339
27888W        W96117  28.961  37.876  14.509
27889W        W96118  24.022   8.869  10.850
27890W        W96119   1.850  38.136  12.092
27891W        W96120  21.671  27.423  14.429
27892W        W96121  29.900  29.393   0.322
27893W        W96122  27.740  22.643  13.163
27894W        W96123   4.392   5.751  14.536
27895W        W96124  17.481  40.157  14.499
27896W        W96125  24.138  41.522   0.449
27897W        W96126   8.783   2.198  12.886
27898W        W96127  35.331   2.488  13.497
27899W        W96128  19.300  22.278   4.827
27900W        W96129  40.846  35.499   3.042
27901W        W96130  34.503  31.159   3.570
27902W        W96131  28.528   0.767  11.161
27903W        W96132  34.050  20.629  10.466
27904W        W96133  17.687  25.575   2.075
27905W        W96134  38.949  23.488  10.998
27906W        W96135  32.992  17.753  12.935
27907W        W96136   7.685  27.138   0.619
27908W        W96137  37.956  37.090  11.250
27909W        W96138  30.441   3.253   2.708
27910W        W96139  15.811  26.446   1.706
27911W        W96140   2.057  18.080   1.791
27912W        W96141  35.126  25.207  11.142
27913W        W96142  26.146  20.246   1.546
27914W        W96143  19.739  36.806   3.665
27915W        W96144   5.803  42.242   4.225
27916W        W96145  22.307  23.733  13.731
27917W        W96146  33.505   5.261  13.903
27918W        W96147  34.642  26.502  13.323
27919W        W96148  42.271  31.782  10.287
27920W        W96149  24.350  29.483  11.171
27921W        W96150  22.733  25.248   0.154
27922W        W96151  20.753  37.572  10.436
27923W        W96152  11.462  15.831  10.597
27924W        W96153  11.571  25.977  10.206
27925W        W96154  15.671  14.635   4.534
27926W        W96155  26.926   3.246   1.345
27927W        W96156  40.975   8.709   3.351
27928W        W96157  32.602  31.062  13.039
27929W        W96158  21.342  17.811   4.137
27930W        W96159  39.097  14.159  14.845
27931W        W96160  14.293  12.405   2.936
27932W        W96161  27.409  14.824  14.683
27933W        W96162  28.194  23.447  13.344
27934W        W96163  30.103  12.658   3.343
27935W        W96164   4.367  44.809  14.221
27936W        W96165  15.748  23.645   4.204
27937W        W96166  21.096   1.958  10.306
27938W        W96167  40.791  30.966   2.688
27939W        W96168   8.682  18.692   0.344
27940W        W96169  18.181  18.549   0.198
27941W        W96170  41.415   2.351   1.908
27942W        W96171  27.092   9.966  11.587
27943W        W96172  43.414  35.478   4.636
27944W        W96173   2.774  29.626   1.797
27945W        W96174  28.916  17.574   1.414
27946W        W96175  15.212  33.880  13.571
27947W        W96176  40.434  24.520  13.669
27948W        W96177  38.426   4.376   0.300
27949W        W96178  36.498   1.178  11.091
27950W        W96179  24.408   0.349   1.331
27951W        W96180  33.699  43.965   4.179
27952W        W96181  33.100  13.974  14.973
27953W        W96182  31.936   1.846   4.699
27954W        W96183  29.132  25.511  10.353
27955W        W96184  28.960  18.632  13.810
27956W        W96185  10.862  36.817  14.365
27957W        W96186  27.030  20.825   2.318
27958W        W96187   5.335  22.524   2.603
27959W        W96188  23.610   7.446  12.138
27960W        W96189  21.782   8.752  14.792
27961W        W96190  31.178  34.514  14.282
27962W        W96191  23.466  12.845  12.942
27963W        W96192  19.487  27.202   1.968
27964W        W96193  18.192  16.223   0.173
27965W        W96194  29.114  32.726  10.561
27966W        W96195  22.660  41.341   2.265
27967W        W96196  24.552  11.397   3.275
27968W        W96197   1.038  17.614  13.788
27969W        W96198  14.256  29.612  12.852
27970W        W96199  37.578  18.050  10.555
27971W        W96200  24.493   0.605   2.151
27972W        W96201  23.949  43.945   0.253
27973W        W96202  15.535  20.990  12.307
27974W        W96203   2.027   3.680   2.368
27975W        W96204  42.018  42.379   2.247
27976W        W96205  41.429  32.614  11.561
27977W        W96206   3.311  21.564   1.249
27978W        W96207   7.065  30.101  13.343
27979W        W96208  22.940  25.338  12.315
27980W        W96209  24.430  39.463  14.777
27981W        W96210  30.500  34.309   0.906
27982W        W96211  29.833  17.927  14.391
27983W        W96212  11.803  30.217  10.377
27984W        W96213  30.063  32.177   0.248
27985W        W96214   2.244   3.888  12.995
27986W        W96215  26.781  41.494  11.673
27987W        W96216  14.855   6.684  13.312
27988W        W96217  10.350   7.630  12.613
27989W        W96218  18.156   4.356  12.262
27990W        W96219  26.196  19.234   2.686
27991W        W96220  13.501   6.742  11.080
27992W        W96221  43.767  14.523   4.380
27993W        W96222  29.315  10.809   0.712
27994W        W96223  18.090  39.734  13.017
27995W        W96224   4.691  40.015  14.496
27996W        W96225  12.331  26.525  13.436
27997W        W96226  29.941  12.861  13.618
27998W        W96227   3.401  21.384  12.224
27999W        W96228  10.716  16.602   1.476
28000W        W96229  35.049  21.061  11.625
28001W        W96230   9.673   8.408  10.745
28002W        W96231  22.278  13.222   4.189
28003W        W96232   2.198  31.877  13.950
28004W        W96233  19.086  40.074   4.577
28005W        W96234   8.883  43.300  14.368
28006W        W96235  31.381  33.134   3.615
28007W        W96236  30.328   5.198   0.526
28008W        W96237  28.435   8.883   0.794
28009W        W96238   1.219  35.535  14.013
28010W        W96239  10.161  38.479   1.747
28011W        W96240   5.305  29.115  10.981
28012W        W96241  30.655  37.022   4.196
28013W        W96242  39.494  12.351  10.673
28014W        W96243  13.330  35.061   2.305
28015W        W96244  20.568  26.560  13.619
28016W        W96245   9.658  42.474  10.790
28017W        W96246  25.494  14.296  10.332
28018W        W96247  11.678  44.553   0.185
28019W        W96248  25.520   0.845  10.658
28020W        W96249   3.982   1.454  10.744
28021W        W96250  13.950  28.661   3.550
28022W        W96251   4.825  34.763   3.212
28023W        W96252   6.322  39.037  13.354
28024W        W96253   4.621  27.723  12.538
28025W        W96254  31.580  44.757   3.553
28026W        W96255  42.043  16.205   2.796
28027W        W96256  15.853  20.001   5.052
28028W        W96257  38.592   4.264   0.959
28029W        W96258   7.685  23.978  14.769
28030W        W96259  21.059  36.701  13.920
28031W        W96260   2.437  13.909   1.248
28032W        W96261   2.442  38.047   9.932
28033W        W96262  41.421  27.476  10.689
28034W        W96263  23.726  34.834   4.103
28035W        W96264  41.380  23.283  11.227
28036W        W96265  42.982  25.059   1.461
28037W        W96266  40.451  21.280   3.653
28038W        W96267   0.071  14.762  11.035
28039W        W96268  14.724  31.009   0.328
28040W        W96269  17.601  34.399  13.078
28041W        W96270   9.330  36.481  12.135
28042W        W96271  37.906  18.246   4.604
28043W        W96272  12.829  42.712  12.888
28044W        W96273  10.432  12.291  11.588
28045W        W96274  26.040  28.152  11.557
28046W        W96275  27.920  22.987   1.296
28047W        W96276  23.202  34.537  12.963
28048W        W96277   5.803  11.890  14.636
28049W        W96278  23.672  21.822   3.586
28050W        W96279  23.254  28.450  13.121
28051W        W96280   7.712  35.280   4.914
28052W        W96281  23.825  23.035   3.544
28053W        W96282  24.185  41.250   2.836
28054W        W96283  18.835   1.346   4.389
28055W        W96284  12.792   6.911   2.973
28056W        W96285  17.011   4.151   0.265
28057W        W96286   1.182  28.127  11.061
28058W        W96287  20.139   4.937  13.918
28059W        W96288  44.525  15.202   1.903
28060W        W96289  43.562   2.368  11.980
28061W        W96290  42.262  24.899  10.854
28062W        W96291  10.917  23.721  11.227
28063W        W96292   1.376  40.777  10.724
28064W        W96293  10.689  39.545   3.767
28065W        W96294  17.718  16.110   4.082
28066W        W96295  36.988  27.135   3.247
28067W        W96296  30.527  14.185  11.633
28068W        W96297  23.153  32.682   1.932
28069W        W96298  28.073  39.486  14.276
28070W        W96299   5.980  24.501  11.246
28071W        W96300   2.326  37.375  14.610
28072W        W96301   1.725  26.917  12.102
28073W        W96302   0.994  19.523   3.298
28074W        W96303  18.870  43.118   0.395
28075W        W96304  32.421  23.623   2.259
28076W        W96305  16.602  32.072  12.918
28077W        W96306  29.112   9.493   2.287
28078W        W96307  38.629   6.327   3.633
28079W        W96308   4.685  22.060  13.734
28080W        W96309   0.842  13.439  13.727
28081W        W96310  11.751  27.823   2.794
28082W        W96311  12.380  16.232  13.055
28083W        W96312   3.791  12.170   0.895
28084W        W96313  19.160  35.946   3.738
28085W        W96314  22.328   1.974  13.253
28086W        W96315  21.180  18.848  14.496
28087W        W96316  14.853  41.394  14.344
28088W        W96317  24.669   4.877   0.803
28089W        W96318   9.353   5.905  12.075
28090W        W96319   2.347  43.323  14.508
28091W        W96320   0.998  27.045  11.489
28092W        W96321  20.356  39.281  12.529
28093W        W96322   3.315   4.622  13.844
28094W        W96323   4.238   0.309  14.048
28095W        W96324  38.372  42.547   2.391
28096W        W96325  15.546  30.423   2.032
28097W        W96326  18.746  22.448   2.730
28098W        W96327   6.767  40.438  14.557
28099W        W96328  18.640  27.462  11.468
28100W        W96329  25.992  26.060  11.035
28101W        W96330  36.353  35.981  14.091
28102W        W96331   0.908  24.869  12.582
28103W        W96332   3.628  32.243  10.177
28104W        W96333  40.516  12.676  14.881
28105W        W96334  27.280   3.898  13.515
28106W        W96335  42.990  38.349   2.739
28107W        W96336  44.372  25.237   0.573
28108W        W96337  41.843  43.248  13.967
28109W        W96338  40.584  10.636  11.154
28110W        W96339  44.584  43.875  11.620
28111W        W96340  20.628  17.199   0.028
28112W        W96341   3.774  22.293   2.270
28113W        W96342   6.965  27.632   0.874
28114W        W96343  42.739  39.107   4.125
28115W        W96344   1.595   9.785  13.934
28116W        W96345  42.749  29.065  14.457
28117W        W96346   4.707   6.945  11.580
28118W        W96347  39.757   0.787   0.014
28119W        W96348  35.124  17.874   4.610
28120W        W96349  44.643  44.425   1.321
28121W        W96350   0.270   6.027  11.009
28122W        W96351   3.045  16.904   2.695
28123W        W96352  36.557  12.239  14.817
28124W        W96353  10.840  29.535  11.644
28125W        W96354  10.354  19.881  13.467
28126W        W96355  34.272   4.430  11.955
28127W        W96356  33.787  23.164   0.024
28128W        W96357  13.278   3.699  14.844
28129W        W96358  26.563   4.635  13.053
28130W        W96359  26.114  37.628   4.895
28131W        W96360   3.735  41.182  11.470
28132W        W96361  32.393   0.399   4.364
28133W        W96362  19.542  36.612  13.056
28134W        W96363  43.392   9.690   3.625
28135W        W96364  44.483  37.795  10.134
28136W        W96365  29.023  23.722  12.114
28137W        W96366   7.169   6.830   0.841
28138W        W96367   6.413  34.413   0.486
28139W        W96368  23.229  43.115  11.175
28140W        W96369  34.588  25.560  13.423
28141W        W96370  27.099  25.114  10.298
28142W        W96371   3.258  17.782   4.214
28143W        W96372  36.919  40.833  12.062
28144W        W96373  35.810   3.438   2.706
28145W        W96374  19.241  32.982  13.886
28146W        W96375  32.496  43.604   2.716
28147W        W96376  13.254  29.779   4.927
28148W        W96377  24.977  39.954  14.543
28149W        W96378  18.069   0.077   0.745
28150W        W96379  18.832  23.348   3.263
28151W        W96380   4.960  23.164  11.514
28152W        W96381  16.595  25.335   0.726
28153W        W96382   9.570  42.733  12.994
28154W        W96383  38.325  35.946  14.607
28155W        W96384   8.704  13.972  13.028
28156W        W96385  34.182   8.559   0.553
28157W        W96386  15.861   4.996   2.278
28158W        W96387  39.064  14.182   2.242
28159W        W96388  23.731  26.962   3.897
28160W        W96389  21.500  23.948  12.869
28161W        W96390  26.598  25.630  14.038
28162W        W96391  13.655  40.427   0.318
28163W        W96392  23.671  19.742   3.662
28164W        W96393  34.044  43.402  13.840
28165W        W96394   1.934   9.941  13.397
28166W        W96395  18.813   9.996   0.858
28167W        W96396  21.814   3.865  11.066
28168W        W96397  39.427   4.534   0.766
28169W        W96398   1.496  34.913   2.137
28170W        W96399  23.034  13.230  10.182
28171W        W96400  39.558  35.102  13.934
28172W        W96401  27.921  25.588  12.166
28173W        W96402  43.239  12.572   4.123
28174W        W96403  37.763   0.256   2.367
28175W        W96404  16.610  24.550  13.214
28176W        W96405  14.170  41.506   4.028
28177W        W96406   9.338  11.960   4.208
28178W        W96407  10.776  30.522  14.680
28179W        W96408  33.342  34.119   1.362
28180W        W96409  13.306  13.791  14.435
28181W        W96410   4.214  44.206   2.883
28182W        W96411   3.437  33.980   3.604
28183W        W96412  35.682  39.921  11.351
28184W        W96413  28.131  43.007   1.421
28185W        W96414  27.787  40.248  10.495
28186W        W96415  37.378  42.735   1.261
28187W        W96416   9.719  20.042   1.810
28188W        W96417  21.479  30.216   3.875
28189W        W96418   6.613   6.424   3.231
28190W        W96419  19.578   7.354   3.685
28191W        W96420  29.540  42.774   9.930
28192W        W96421   5.517  20.933   4.128
28193W        W96422   1.291  16.085  12.431
28194W        W96423   4.230  41.645   0.422
28195W        W96424  23.708   3.257  12.148
28196W        W96425  34.968  40.157  12.256
28197W        W96426  31.613  15.252   2.701
28198W        W96427  12.079  31.247  11.127
28199W        W96428   8.893  37.828   4.097
28200W        W96429   1.018  28.925   4.186
28201W        W96430  25.168   4.696  10.774
28202W        W96431   1.735  37.058   5.288
28203W        W96432   8.782  35.366  11.414
28204W        W96433  28.716  33.511   2.472
28205W        W96434   8.155  19.207  12.505
28206W        W96435  40.747  26.284  12.504
28207W        W96436  20.997   4.334   3.134
28208W        W96437   5.707   2.180   4.111
28209W        W96438  24.777  10.156  10.130
28210W        W96439  37.536  24.904   2.076
28211W        W96440  20.364  30.537  13.889
28212W        W96441  11.325  10.392   2.382
28213W        W96442   5.905   7.527   3.846
28214W        W96443  32.441  42.318   4.828
28215W        W96444  11.733  38.809   1.336
28216W        W96445  27.633  19.190   4.260
28217W        W96446  44.451   7.906  13.832
28218W        W96447  30.926  16.125  13.307
28219W        W96448   5.365  35.785  11.690
28220W        W96449  19.001  20.170   2.788
28221W        W96450  30.179  23.040   0.245
28222W        W96451  36.832  16.673   1.657
28223W        W96452  20.047  38.907  13.945
28224W        W96453   9.190  30.819   3.708
28225W        W96454  12.111  20.596  11.090
28226W        W96455  18.782  24.694   1.150
28227W        W96456  27.953  41.398  11.174
28228W        W96457  43.949  19.517  11.995
28229W        W96458  40.351  20.760  14.518
28230W        W96459  32.156  14.524   1.366
28231W        W96460   3.272  21.351   2.309
28232W        W96461  31.647   3.235   3.448
28233W        W96462  34.923  15.083  14.857
28234W        W96463  38.359  30.233   3.209
28235W        W96464  13.799  37.888   1.292
28236W        W96465  14.693  43.367   1.544
28237W        W96466   7.333  30.109  11.878
28238W        W96467   4.251   7.472   2.782
28239W        W96468  17.331   0.907  12.933
28240W        W96469  14.110  43.550  14.334
28241W        W96470   3.939  33.622  11.547
28242W        W96471  22.253   0.387  13.000
28243W        W96472  12.788  23.055   2.873
28244W        W96473  11.317  20.297   2.839
28245W        W96474  34.546  43.068   3.618
28246W        W96475  24.084  25.476   4.595
28247W        W96476  41.403  42.247   2.394
28248W        W96477  12.360   0.475   4.935
28249W        W96478   2.349  28.939   2.730
28250W        W96479  36.825  36.448   1.967
28251W        W96480  12.807  34.133  13.920
28252W        W96481  27.630   6.460  14.489
28253W        W96482   0.687  35.413   3.709
28254W        W96483  21.069   7.912   0.846
28255W        W96484  38.014  42.309   2.670
28256W        W96485   7.525  23.570   4.394
28257W        W96486  21.411  36.955   4.922
28258W        W96487  35.379  28.469   4.526
28259W        W96488  25.909  12.168   0.934
28260W        W96489  43.810  20.358  14.923
28261W        W96490  39.583  11.495   2.941
28262W        W96491   5.375  24.699   1.095
28263W        W96492  28.882   4.334   1.323
28264W        W96493  21.672  34.027  11.219
28265W        W96494  37.990  19.237   0.395
28266W        W96495  42.487  32.711  13.475
28267W        W96496   9.802   9.576   0.301
28268W        W96497   4.861  36.657   9.978
28269W        W96498   3.504  25.485   2.724
28270W        W96499  43.000  20.676  11.731
28271W        W96500  27.391  37.037   1.475
28272W        W96501   3.623  36.349  13.057
28273W        W96502   7.879  14.261  10.411
28274W        W96503  30.915   6.669  11.571
28275W        W96504  16.055  10.264   1.325
28276W        W96505  43.775  10.843   0.923
28277W        W96506  36.965  23.747  12.734
28278W        W96507  40.977  34.167  14.592
28279W        W96508  11.632  13.322   3.657
28280W        W96509  24.707  11.137  14.334
28281W        W96510  34.960   4.853   4.085
28282W        W96511   0.800  18.699   2.738
28283W        W96512   3.582  28.682  13.301
28284W        W96513  29.682   5.770   3.203
28285W        W96514  38.431  43.833   3.332
28286W        W96515  29.004  14.232  10.678
28287W        W96516   5.956   6.403   4.901
28288W        W96517  32.662  30.635   1.300
28289W        W96518  31.705  43.022   1.352
28290W        W96519  25.541  13.121  11.671
28291W        W96520  16.880   1.270   4.411
28292W        W96521   8.787  31.095  14.218
28293W        W96522  20.837  10.885  12.335
28294W        W96523  19.321  43.314  13.399
28295W        W96524  17.050  42.367  14.292
28296W        W96525  12.679  28.984   3.397
28297W        W96526  17.547  29.608   1.711
28298W        W96527  29.213  24.461  13.391
28299W        W96528  19.918  28.789   0.041
28300W        W96529   4.250  26.063  11.030
28301W        W96530  21.479  28.996  14.073
28302W        W96531  24.641   6.107  13.502
28303W        W96532  26.468  26.811   4.608
28304W        W96533   3.251  13.641  14.711
28305W        W96534  43.075  32.499   0.733
28306W        W96535   4.732  36.028  11.974
28307W        W96536  39.409  26.719   2.091
28308W        W96537   2.033  34.110   5.270
28309W        W96538  39.050  15.922   4.446
28310W        W96539   8.193  30.983  13.401
28311W        W96540  22.276  10.185   3.939
28312W        W96541  38.312  13.208  13.033
28313W        W96542  31.598  43.694   0.959
28314W        W96543  35.405  18.129  11.623
28315W        W96544  15.650  35.955   3.741
28316W        W96545  38.795  44.812  11.634
28317W        W96546  12.130   6.661   1.223
28318W        W96547  25.800  33.802   3.582
28319W        W96548  31.476  18.569   3.076
28320W        W96549  31.891   0.209  14.957
28321W        W96550   4.435  29.681  11.672
28322W        W96551  29.014  35.433  11.196
28323W        W96552  11.954  15.690   1.410
28324W        W96553  10.572   4.292  10.937
28325W        W96554  19.706  13.339  14.971
28326W        W96555  38.578  24.268  14.335
28327W        W96556  41.751  29.142   0.861
28328W        W96557  43.061  30.621   4.533
28329W        W96558  21.819  32.830   4.455
28330W        W96559  11.571  28.316  11.499
28331W        W96560  29.742  35.879   1.520
28332W        W96561   8.322  27.388   3.513
28333W        W96562  29.591  16.085  14.477
28334W        W96563  22.767   1.239  13.090
28335W        W96564  24.600  27.119   1.663
28336W        W96565  25.219  42.890  11.043
28337W        W96566  19.680   2.399   4.594
28338W        W96567  37.886  13.552   4.012
28339W        W96568  35.581  21.155   0.867
28340W        W96569  39.353  22.951   3.840
28341W        W96570  41.520  11.339   4.598
28342W        W96571   7.711  34.297  12.883
28343W        W96572   7.554  42.622   1.752
28344W        W96573  40.423   9.751  14.487
28345W        W96574  12.364  11.623  13.028
28346W        W96575   4.829  32.877   0.426
28347W        W96576  12.789   3.714  10.540
28348W        W96577  18.746  20.077  10.679
28349W        W96578   2.256   5.230   2.085
28350W        W96579  21.238  29.080   3.853
28351W        W96580  43.519  36.371   0.786
28352W        W96581  42.007  42.909   2.793
28353W        W96582   6.580  41.881   3.152
28354W        W96583   0.493   7.897   2.318
28355W        W96584   0.183  43.400  11.936
28356W        W96585  18.838  17.563   4.337
28357W        W96586  11.671  15.588  12.566
28358W        W96587  27.186  16.352  11.626
28359W        W96588   5.870  17.042  14.305
28360W        W96589  24.751  17.074  12.164
28361W        W96590  38.389   0.791   4.495
28362W        W96591  18.704   7.875  11.873
28363W        W96592   5.762  39.554   3.875
28364W        W96593   5.712  26.181  11.109
28365W        W96594  24.591  14.189  11.966
28366W        W96595  22.502  24.765   5.001
28367W        W96596  20.685  32.476   0.310
28368W        W96597  14.352   0.385   0.283
28369W        W96598  43.013  13.127  10.755
28370W        W96599  26.084   0.188  10.314
28371W        W96600  38.403   0.707  14.516
28372W        W96601  19.856   0.036  14.033
28373W        W96602  20.982  43.546   0.122
28374W        W96603   1.655  33.812  12.519
28375W        W96604   1.273  17.796   0.733
28376W        W96605   7.726  36.976  14.463
28377W        W96606  13.620  35.159   4.855
28378W        W96607  28.123  24.518   4.884
28379W        W96608  17.256  30.807   2.672
28380W        W96609   4.787  35.588  13.076
28381W        W96610  11.783  12.904   3.418
28382W        W96611  28.599  14.062  12.018
28383W        W96612  20.772  36.586   0.443
28384W        W96613  19.386  21.773   1.866
28385W        W96614  38.463  26.484  13.912
28386W        W96615  44.381  22.970   2.149
28387W        W96616  11.749  17.362   0.929
28388W        W96617  29.069  20.065   4.892
28389W        W96618  35.043  21.316  13.165
28390W        W96619  23.465  30.412   1.763
28391W        W96620   7.181  17.625   4.984
28392W        W96621  37.321  11.688   3.046
28393W        W96622  39.561  20.183  12.865
28394W        W96623  26.126  36.160  13.006
28395W        W96624  20.541  23.102   3.108
28396W        W96625  19.157  12.632  10.734
28397W        W96626   8.637  37.122  11.996
28398W        W96627  37.249   6.583   5.321
28399W        W96628  35.042  35.698  13.077
28400W        W96629  35.998  40.036   1.425
28401W        W96630   7.268   3.665   3.577
28402W        W96631  22.565  21.209   1.138
28403W        W96632  30.963  25.679   2.812
28404W        W96633  15.860  42.396   2.583
28405W        W96634  30.971  37.807  14.804
28406W        W96635  25.171   4.630  14.900
28407W        W96636   9.701  37.810  11.543
28408W        W96637  22.628  32.620   3.595
28409W        W96638   1.333  28.472  12.018
28410W        W96639  30.149  35.696   1.802
28411W        W96640  44.309  36.957  12.506
28412W        W96641  38.136  36.648   2.236
28413W        W96642  10.826  25.629   0.973
28414W        W96643  13.374   1.650  14.464
28415W        W96644  24.022   0.544   3.716
28416W        W96645  25.649  10.260   9.740
28417W        W96646  20.081  44.258  11.241
28418W        W96647   7.167  20.826  13.436
28419W        W96648  20.090  40.404   3.604
28420W        W96649   4.910   2.355   0.616
28421W        W96650  22.102   9.343   0.429
28422W        W96651  43.802   3.394   3.556
28423W        W96652  20.174  10.362  12.920
28424W        W96653  14.315  41.043   3.025
28425W        W96654  37.438  44.080   4.276
28426W        W96655   9.617  29.074   3.737
28427W        W96656  21.311   6.368  14.401
28428W        W96657  18.974  37.037   1.307
28429W        W96658   7.214  35.046   0.363
28430W        W96659   0.379  13.143  14.409
28431W        W96660  40.408  36.684   1.791
28432W        W96661  23.333  40.944  11.625
28433W        W96662  28.927  25.596  12.328
28434W        W96663   0.133  20.579   4.536
28435W        W96664  22.144  41.357  14.226
28436W        W96665  41.634  29.022   0.025
28437W        W96666  30.774  11.198  13.654
28438W        W96667  20.332   3.288  14.839
28439W        W96668   7.725  14.404  14.822
28440W        W96669   6.328  10.341  12.319
28441W        W96670  21.124  19.641  10.695
28442W        W96671  31.680  12.178  13.324
28443W        W96672  25.933  28.637  12.038
28444W        W96673  42.116  30.488   2.358
28445W        W96674   3.980  15.541   1.876
28446W        W96675  27.995  19.355   3.158
28447W        W96676  44.400   7.075   2.324
28448W        W96677  35.138  25.077   2.857
28449W        W96678  21.460  43.829   2.302
28450W        W96679  13.993  15.225  10.912
28451W        W96680  38.993  22.959  14.248
28452W        W96681   2.197   4.879   4.249
28453W        W96682  25.565  24.236   0.383
28454W        W96683  33.217  43.088   4.069
28455W        W96684  42.521  18.285  14.417
28456W        W96685  24.147  31.447  14.029
28457W        W96686  27.555  29.356  14.746
28458W        W96687  31.546  17.527  12.045
28459W        W96688   6.771  34.562  13.489
28460W        W96689  35.393  13.875   3.544
28461W        W96690  25.526  44.193  12.875
28462W        W96691  12.395  31.929  11.584
28463W        W96692   3.816  41.337   3.303
28464W        W96693   1.026   5.750  11.493
28465W        W96694  39.688  27.196   0.759
28466W        W96695  17.194  33.073  13.831
28467W        W96696  20.632   5.883  13.284
28468W        W96697  35.149  42.113   1.425
28469W        W96698  33.449  19.949  11.992
28470W        W96699  44.496  26.551  12.835
28471W        W96700  20.191  44.826   0.825
28472W        W96701  32.028  10.701  11.627
28473W        W96702  22.291   5.888  13.914
28474W        W96703  20.497   8.336   0.103
28475W        W96704  21.980  38.962   0.776
28476W        W96705  41.269  26.511  11.042
28477W        W96706  34.473   5.099   4.193
28478W        W96707  40.791  27.514   1.260
28479W        W96708  20.040  11.119  11.412
28480W        W96709  20.307  20.149  12.398
28481W        W96710  38.856  26.792   1.152
28482W        W96711  26.514  16.151   3.496
28483W        W96712  39.948  31.616  14.879
28484W        W96713  33.531  10.834   2.466
28485W        W96714   0.441  36.496   3.584
28486W        W96715  30.571  20.600   2.355
28487W        W96716  21.408  14.813   2.407
28488W        W96717   6.974  19.696  11.251
28489W        W96718   1.714   3.092  14.868
28490W        W96719  20.493   4.414  14.250
28491W        W96720  14.215  21.219   4.150
28492W        W96721   8.387  34.068   0.169
28493W        W96722  20.747  43.318   4.058
28494W        W96723   9.465   9.645   1.656
28495W        W96724  16.258  23.565  11.537
28496W        W96725   3.821   5.467  13.485
28497W        W96726   0.717  44.717   4.137
28498W        W96727  16.523   6.586  13.345
28499W        W96728  21.020  22.122   0.866
28500W        W96729  43.734   7.108   0.344
28501W        W96730  11.894   3.188   3.740
28502W        W96731  20.767   3.444  13.003
28503W        W96732  42.037   2.817   0.622
28504W        W96733   3.584  13.084  10.998
28505W        W96734  10.391  35.612   3.870
28506W        W96735  23.477  34.875  14.289
28507W        W96736  28.029  38.654   3.579
28508W        W96737  42.717   4.348  12.821
28509W        W96738  41.280   9.307  12.484
28510W        W96739   9.196  40.685  14.781
28511W        W96740  22.369  15.983  14.525
28512W        W96741  42.335   0.765  14.853
28513W        W96742  18.247  14.257  10.708
28514W        W96743   7.172  17.554   1.264
28515W        W96744  25.807  39.414   2.126
28516W        W96745  27.789   9.162   3.428
28517W        W96746  22.207  13.790  10.234
28518W        W96747   4.818  42.514  10.682
28519W        W96748  42.839  35.555   2.141
28520W        W96749  12.518   9.296  13.760
28521W        W96750  12.176  41.583   2.935
28522W        W96751  38.315   8.949   4.561
28523W        W96752  42.488   9.983   4.204
28524W        W96753  16.601  25.221  12.410
28525W        W96754  38.354  13.816   2.470
28526W        W96755  35.047  24.816   1.484
28527W        W96756  41.388  25.127  11.090
28528W        W96757   5.445   6.129  12.135
28529W        W96758  44.055  43.871  11.566
28530W        W96759  37.436   2.855   4.630
28531W        W96760  27.715  15.174   4.868
28532W        W96761  36.198  23.628  10.661
28533W        W96762  24.762  29.449   1.117
28534W        W96763  26.398  23.956  14.447
28535W        W96764  19.415  37.967  11.882
28536W        W96765  29.582  31.769  14.814
28537W        W96766   4.631  41.167   3.358
28538W        W96767  12.054  10.325   1.418
28539W        W96768   4.721  24.560  13.891
28540W        W96769  13.814   0.848  12.089
28541W        W96770   3.816  11.469   2.221
28542W        W96771  43.311  36.081   1.671
28543W        W96772  20.258  17.607  13.392
28544W        W96773   5.259  27.262   4.319
28545W        W96774   1.433  42.012   0.470
28546W        W96775  41.386  26.421   1.379
28547W        W96776  17.536  30.033  14.393
28548W        W96777  31.503   5.540  12.992
28549W        W96778   5.172  38.606  12.530
28550W        W96779  11.586  27.261  10.968
28551W        W96780  44.615   4.704   3.756
28552W        W96781   3.818   7.318   2.494
28553W        W96782  29.950   4.789  12.482
28554W        W96783  16.717  19.558  12.546
28555W        W96784  15.643   4.710   0.426
28556W        W96785  31.225  25.083  11.362
28557W        W96786   3.849  24.404  11.370
28558W        W96787   6.526  36.110   0.031
28559W        W96788  23.514  42.034  13.891
28560W        W96789   2.924  40.462  12.014
28561W        W96790  10.791  21.985  10.602
28562W        W96791  21.414  16.540   4.756
28563W        W96792   1.752  34.960   2.604
28564W        W96793  13.405  13.823   4.624
28565W        W96794  20.120  17.685   1.449
28566W        W96795  34.158  37.852  11.970
28567W        W96796  15.889   7.374   3.185
28568W        W96797  20.723   6.828   4.492
28569W        W96798  43.849  34.946  13.540
28570W        W96799  29.565   2.236   1.177
28571W        W96800  30.828  25.911   1.060
28572W        W96801  37.871   7.816  11.964
28573W        W96802  19.493  32.985   4.081
28574W        W96803  30.278  17.047  11.067
28575W        W96804  17.625   1.817  12.496
28576W        W96805   5.411  34.407  13.336
28577W        W96806   3.321  10.391   0.826
28578W        W96807  29.646  30.158  13.531
28579W        W96808  39.315  41.550  12.510
28580W        W96809   7.847  39.334  12.501
28581W        W96810   4.477  39.854  14.968
28582W        W96811  28.198  25.473  13.048
28583W        W96812  42.374   7.426   4.134
28584W        W96813  34.167  31.621  11.980
28585W        W96814  36.434  21.073   2.032
28586W        W96815  41.366  31.369   4.102
28587W        W96816  38.884  14.589   4.045
28588W        W96817  42.867  30.071  14.142
28589W        W96818  27.685  12.216  11.069
28590W        W96819  42.276  18.557   0.753
28591W        W96820  32.657  33.314  10.652
28592W        W96821  37.406  25.387   2.171
28593W        W96822  17.767  20.336   0.126
28594W        W96823  19.585  43.546  13.789
28595W        W96824   6.778  33.591  13.485
28596W        W96825  10.621   6.761   3.703
28597W        W96826  10.328   5.732   1.215
28598W        W96827  21.639   2.327   0.505
28599W        W96828  17.462  14.250  13.136
28600W        W96829  12.522  12.855   4.551
28601W        W96830   1.515  41.752  13.259
28602W        W96831  15.688  21.675   1.046
28603W        W96832  42.015  30.646   4.988
28604W        W96833  37.708  14.787  10.667
28605W        W96834  19.341  21.791   0.981
28606W        W96835  38.513  18.654  14.867
28607W        W96836  27.949  27.462  11.618
28608W        W96837  18.733   0.516   4.608
28609W        W96838  38.427  26.376  11.855
28610W        W96839  33.074  12.197   1.619
28611W        W96840   8.485  33.486   0.897
28612W        W96841  37.068  14.750   4.760
28613W        W96842   8.242  24.504  13.719
28614W        W96843  27.080   8.703  14.383
28615W        W96844  16.914  24.735   3.176
28616W        W96845  16.762  34.015   4.087
28617W        W96846  29.715   6.651  14.319
28618W        W96847  14.893  24.042   1.362
28619W        W96848   0.451   3.490   5.093
28620W        W96849  44.882   1.375   1.763
28621W        W96850   7.246  11.588  14.795
28622W        W96851  17.793   6.929  13.211
28623W        W96852  15.544   3.132   4.115
28624W        W96853  28.536  31.065  12.514
28625W        W96854  20.712   5.257   2.786
28626W        W96855  11.876  19.284   5.045
28627W        W96856  28.175  23.965  12.198
28628W        W96857  21.192   6.671   1.421
28629W        W96858   4.290  25.702  14.387
28630W        W96859  27.315  35.033   3.173
28631W        W96860  40.890  38.590  10.687
28632W        W96861  22.089  33.173   2.370
28633W        W96862  35.498  28.319   4.985
28634W        W96863  16.318  41.665  10.601
28635W        W96864  18.252  24.129   2.805
28636W        W96865  30.621  16.077   2.812
28637W        W96866  22.207  15.570  12.065
28638W        W96867  24.694  40.060  12.269
28639W        W96868  16.831  39.495  12.538
28640W        W96869  44.146  24.656   4.181
28641W        W96870  26.196   4.959   3.312
28642W        W96871  18.592  42.993   4.492
28643W        W96872   5.443   3.927  12.951
28644W        W96873  37.871  13.067   0.328
28645W        W96874  38.186  11.083  12.689
28646W        W96875   3.334  18.201   3.424
28647W        W96876   1.942  16.553  12.037
28648W        W96877  35.316  37.504   1.355
28649W        W96878   5.194  25.170   0.299
28650W        W96879  19.293  27.486  11.589
28651W        W96880  31.619  27.138   3.326
28652W        W96881  42.158  31.024   4.170
28653W        W96882   9.687  13.327   1.589
28654W        W96883   2.182   4.176  13.429
28655W        W96884  30.543   4.137   0.405
28656W        W96885  37.159  24.077  12.400
28657W        W96886  14.767   6.339   3.263
28658W        W96887  44.482  14.173  12.391
28659W        W96888  36.116  23.816  14.951
28660W        W96889  19.010  30.810  14.773
28661W        W96890  21.166  10.255  12.896
28662W        W96891  35.969  10.706  12.991
28663W        W96892   6.250   2.489   4.540
28664W        W96893  27.397  28.560   2.708
28665W        W96894   6.122  43.022   1.962
28666W        W96895  35.062  22.157   1.340
28667W        W96896  35.065   8.386  14.027
28668W        W96897  44.046  32.387  14.366
28669W        W96898  10.997   0.052   4.342
28670W        W96899  43.594  41.345  14.452
28671W        W96900  19.138   9.294  11.477
28672W        W96901   3.909  25.983   4.650
28673W        W96902  20.347  37.962   0.987
28674W        W96903  27.437  19.853   0.675
28675W        W96904  18.514  39.142   3.718
28676W        W96905   0.317   0.332  12.381
28677W        W96906  36.320   4.248   1.669
28678W        W96907  40.054  26.102   1.853
28679W        W96908  13.561  29.866   4.045
28680W        W96909  20.441  21.637   0.292
28681W        W96910  29.093  23.727  11.256
28682W        W96911   9.112  43.954  14.274
28683W        W96912   6.251   2.884  14.311
28684W        W96913  28.814  26.320  14.761
28685W        W96914  31.468  17.087   1.351
28686W        W96915  39.598  18.780   1.792
28687W        W96916  25.193  25.471  14.883
28688W        W96917  40.877  10.737   1.738
28689W        W96918  15.638  35.888   4.251
28690W        W96919  17.335   2.878   1.961
28691W        W96920   1.146   1.018  14.543
28692W        W96921  37.941  16.281  14.970
28693W        W96922   2.731  36.894   2.424
28694W        W96923   1.373  37.885   2.977
28695W        W96924   0.974  10.244  12.568
28696W        W96925  12.416  11.624  11.216
28697W        W96926  16.864  27.041  10.703
28698W        W96927   6.485   3.199  14.865
28699W        W96928  16.856  24.457   2.461
28700W        W96929  12.493  23.521   2.872
28701W        W96930  31.570  24.514   0.465
28702W        W96931   2.562  21.266  13.200
28703W        W96932   1.455  38.813  12.476
28704W        W96933  15.229  33.105  14.041
28705W        W96934  13.785  26.028  12.421
28706W        W96935  41.354  35.750   1.753
28707W        W96936   4.880   6.672  11.106
28708W        W96937  26.414   4.719   3.789
28709W        W96938  38.789  34.988  14.491
28710W        W96939  11.857   8.636  14.576
28711W        W96940  23.693  15.147   2.926
28712W        W96941  19.848  14.707   1.251
28713W        W96942  35.878  26.557   2.610
28714W        W96943   2.974  39.095   0.920
28715W        W96944  41.095  26.401  11.544
28716W        W96945  37.949  33.836  14.818
28717W        W96946  15.781   4.725   1.408
28718W        W96947   7.354  38.607  14.406
28719W        W96948   2.615  38.201   5.417
28720W        W96949  15.641   9.905  14.216
28721W        W96950  25.458  35.437  11.478
28722W        W96951  36.920  14.675   3.294
28723W        W96952   4.021  32.820   1.280
28724W        W96953  41.891  12.639   4.197
28725W        W96954  19.065   7.135  13.535
28726W        W96955  14.650  11.222  10.700
28727W        W96956  24.028  39.040  10.502
28728W        W96957  13.162  21.048  12.058
28729W        W96958  14.567   0.235   4.227
28730W        W96959  22.451  38.537  10.776
28731W        W96960  39.953  11.572   2.175
28732W        W96961  33.497   6.452  14.120
28733W        W96962  13.427   0.405  13.651
28734W        W96963  12.867  17.144  12.811
28735W        W96964  30.432  44.529   1.762
28736W        W96965  22.572  10.945   0.714
28737W        W96966  32.565  39.955   4.199
28738W        W96967  14.731  18.169  11.041
28739W        W96968  10.229   4.320   2.314
28740W        W96969  24.524   0.188   4.320
28741W        W96970  35.559   2.867  13.834
28742W        W96971  32.569  17.737   2.415
28743W        W96972   9.368  36.591  11.051
28744W        W96973  11.639   3.911   1.835
28745W        W96974  38.625  28.564   1.718
28746W        W96975   8.900  23.992  14.279
28747W        W96976  15.616  28.713  11.396
28748W        W96977  42.918  24.089   1.615
28749W        W96978  23.033  30.359   2.199
28750W        W96979  36.368   3.424  12.486
28751W        W96980   6.784  20.467   2.628
28752W        W96981   0.746  16.526   3.624
28753W        W96982  13.186  33.812  11.667
28754W        W96983  17.295  15.610   1.695
28755W        W96984  14.857  32.453  13.514
28756W        W96985  40.428  27.925  13.363
28757W        W96986  40.352  13.113   4.957
28758W        W96987  29.401  35.345  14.951
28759W        W96988  27.749  37.412   2.872
28760W        W96989  12.509  10.570  10.277
28761W        W96990  23.892  41.905  14.247
28762W        W96991  39.423  23.525   0.372
28763W        W96992  12.320  22.510  12.885
28764W        W96993  16.656   9.206  13.842
28765W        W96994  35.283  30.440   1.892
28766W        W96995  26.296  21.641   3.775
28767W        W96996  32.670  41.526  12.971
28768W        W96997  14.067  35.916  11.420
28769W        W96998  28.602  20.742   4.221
28770W        W96999  15.202  40.971  14.260
28771W        W97000  21.100  14.284  11.304
28772W        W97001  31.909   4.391  14.392
28773W        W97002  10.802  24.527  11.933
28774W        W97003  13.610  12.711   2.052
28775W        W97004  20.751  43.604  11.432
28776W        W97005   7.801  18.268  12.520
28777W        W97006  38.056  16.577   1.723
28778W        W97007  33.410  25.036   0.432
28779W        W97008  26.237  36.932   2.890
28780W        W97009  18.335   3.110  12.802
28781W        W97010   5.778  37.079   0.832
28782W        W97011  35.871  39.185   1.736
28783W        W97012  34.511  20.203   4.625
28784W        W97013  24.967  31.596  10.495
28785W        W97014  13.467  23.323  14.969
28786W        W97015  21.895  31.040  13.913
28787W        W97016  11.975   2.446  13.451
28788W        W97017  12.274  29.800   4.605
28789W        W97018  26.693  14.154  14.848
28790W        W97019  13.400   1.539  13.952
28791W        W97020  28.427  15.759  12.996
28792W        W97021  43.570  14.549   2.718
28793W        W97022  31.656  28.512   2.139
28794W        W97023  18.389   4.965  14.975
28795W        W97024   8.885  32.991   4.624
28796W        W97025  18.514  17.755  11.665
28797W        W97026   6.680   4.991  13.790
28798W        W97027   3.541  24.521   0.449
28799W        W97028  15.543  38.352  13.084
28800W        W97029  20.293  25.049  13.997
28801W        W97030  20.184  19.836  13.530
28802W        W97031  33.528  36.379  13.337
28803W        W97032   2.256   2.241   3.755
28804W        W97033  21.700  13.340  12.662
28805W        W97034  39.855  20.738   2.575
28806W        W97035  26.412   0.895  14.532
28807W        W97036   9.711  31.575   2.384
28808W        W97037   3.098   8.636  13.835
28809W        W97038   0.355  42.972   2.671
28810W        W97039  28.898  28.982   0.458
28811W        W97040  44.763  14.775   0.408
28812W        W97041  38.331  42.654  13.357
28813W        W97042  28.090  15.072   1.290
28814W        W97043   3.351   0.235  14.517
28815W        W97044  16.663  16.930   1.820
28816W        W97045   9.258  15.701  13.591
28817W        W97046   5.462  23.524  10.696
28818W        W97047   7.286  38.345  11.890
28819W        W97048  18.864  11.724  14.348
28820W        W97049   1.277  34.857  14.365
28821W        W97050   4.583  33.980  13.468
28822W        W97051  27.637  19.081   3.753
28823W        W97052  19.299   6.908  13.954
28824W        W97053   8.297   3.218  11.585
28825W        W97054  19.198  13.087  14.338
28826W        W97055   8.223  19.619   3.715
28827W        W97056  23.145  19.629   2.653
28828W        W97057  43.818   1.640  10.965
28829W        W97058  32.396  21.696  14.266
28830W        W97059  31.377   8.034  10.819
28831W        W97060  37.943  37.585  12.269
28832W        W97061   1.426   2.780   1.893
28833W        W97062  20.989  29.390  10.777
28834W        W97063  25.576   3.689   4.060
28835W        W97064  28.462  27.069  11.285
28836W        W97065  30.037   8.733  10.717
28837W        W97066  28.886  16.010  13.401
28838W        W97067  41.639  30.595   4.547
28839W        W97068  14.280  18.489  11.955
28840W        W97069  38.753  35.494  13.780
28841W        W97070  18.739   3.915  14.431
28842W        W97071  43.210  23.947   2.290
28843W        W97072  34.402  10.203  11.591
28844W        W97073  16.388  19.195  12.186
28845W        W97074  11.248  12.698  14.378
28846W        W97075  30.358   0.484   1.530
28847W        W97076  21.537   8.250  12.962
28848W        W97077  21.838  35.393  13.845
28849W        W97078  19.892  39.084  12.399
28850W        W97079  37.388   5.872   0.335
28851W        W97080   4.462  11.356  13.463
28852W        W97081  14.952  25.639  11.646
28853W        W97082  13.703  23.481   0.407
28854W        W97083  32.472  37.670  13.999
28855W        W97084  40.841  20.846   2.805
28856W        W97085   1.355  38.881   4.932
28857W        W97086  25.432  28.655   3.033
28858W        W97087  35.127  20.060   0.697
28859W        W97088  27.955  19.737   2.766
28860W        W97089  16.160  35.471   1.280
28861W        W97090  11.801  13.244   0.558
28862W        W97091  26.532  29.892  11.470
28863W        W97092  16.510  41.361   0.002
28864W        W97093  43.580  16.750  12.554
28865W        W97094  27.419  25.047  12.912
28866W        W97095  39.825   6.309   3.385
28867W        W97096  36.113  37.575   3.641
28868W        W97097  10.429  10.704  11.987
28869W        W97098  23.634  12.632  12.480
28870W        W97099   0.465  39.879   4.829
28871W        W97100   3.878  20.960   0.320
28872W        W97101  28.665  31.303  10.733
28873W        W97102  11.595  38.017  14.038
28874W        W97103   9.187  38.922  11.533
28875W        W97104  43.448  14.044   2.858
28876W        W97105  42.877   9.473   2.587
28877W        W97106  31.802  23.868   4.182
28878W        W97107  39.904  30.739  11.185
28879W        W97108   2.147  41.324  13.195
28880W        W97109  29.921  19.973   4.930
28881W        W97110  28.051  11.829  13.303
28882W        W97111  24.697  40.618  10.527
28883W        W97112  26.667  22.238  12.422
28884W        W97113  12.176   2.882  14.614
28885W        W97114  13.498   9.171  13.989
28886W        W97115  35.277   4.858  13.040
28887W        W97116  34.505  20.716  13.034
28888W        W97117  33.422  14.130   0.658
28889W        W97118  11.852   4.289  13.049
28890W        W97119  36.415  35.557   3.653
28891W        W97120   4.245  24.484   0.995
28892W        W97121  17.582   0.015  12.072
28893W        W97122   3.201  17.561  14.979
28894W        W97123   0.460  39.067  10.221
28895W        W97124  33.258  15.878   2.134
28896W        W97125  41.982  32.542   2.870
28897W        W97126  42.277  36.469   3.463
28898W        W97127  33.439  35.087   5.046
28899W        W97128   9.231  31.389   2.267
28900W        W97129  22.648  36.735  11.028
28901W        W97130  43.287  41.231   3.639
28902W        W97131  32.625  16.571   2.582
28903W        W97132  22.536   7.359  13.801
28904W        W97133  44.406   6.976   4.243
28905W        W97134  25.189   6.797   1.238
28906W        W97135  23.496  32.798   3.432
28907W        W97136  11.153  44.802   3.915
28908W        W97137  29.009   3.426  12.910
28909W        W97138  10.536  29.884  13.593
28910W        W97139  11.115  18.480  11.897
28911W        W97140  44.364   4.637   4.582
28912W        W97141  26.226  14.093   1.011
28913W        W97142  34.241  23.216  12.721
28914W        W97143   7.381  19.976  11.134
28915W        W97144  41.193  11.535   3.854
28916W        W97145   3.470   3.234  13.064
28917W        W97146   9.729  17.585   2.160
28918W        W97147  21.753  42.841   0.398
28919W        W97148  27.496   3.866  10.950
28920W        W97149  24.160  15.082   1.719
28921W        W97150  27.098  21.083   2.762
28922W        W97151  27.308   5.780   4.281
28923W        W97152   3.734  20.311   4.689
28924W        W97153  34.798   7.739   1.535
28925W        W97154   5.594   1.270  14.330
28926W        W97155   4.251  29.035  13.853
28927W        W97156  25.987  29.544  12.086
28928W        W97157   3.422  39.825   2.145
28929W        W97158  17.794  42.883  10.965
28930W        W97159  22.497  28.198  13.156
28931W        W97160  29.223  41.964  13.103
28932W        W97161  17.819  19.099  12.402
28933W        W97162  36.888   3.132   3.325
28934W        W97163  20.145  38.098   2.874
28935W        W97164  12.390  12.458  11.594
28936W        W97165   1.253  30.704   1.949
28937W        W97166  40.408  36.120   4.603
28938W        W97167  37.845  10.861  13.038
28939W        W97168  40.412  35.058   1.195
28940W        W97169  30.162  13.054   2.894
28941W        W97170  28.271  37.860  10.117
28942W        W97171  12.189  38.487   2.652
28943W        W97172  23.513  42.775  14.790
28944W        W97173  19.896  44.226   3.673
28945W        W97174  10.917   8.141   0.411
28946W        W97175   9.719  10.735  11.142
28947W        W97176  44.793  32.674  14.858
28948W        W97177  41.409  43.636  13.289
28949W        W97178  19.167  28.342  11.423
28950W        W97179  36.202  23.625  13.283
28951W        W97180  38.297  15.035  14.446
28952W        W97181  33.998  32.650  10.714
28953W        W97182  42.454  37.542  11.589
28954W        W97183  10.149  16.417   0.327
28955W        W97184  16.333   4.784  13.734
28956W        W97185  35.977  15.088  13.843
28957W        W97186   1.537  38.001  11.300
28958W        W97187  36.300  14.143   1.789
28959W        W97188   7.777  19.906   4.590
28960W        W97189  11.914  21.437  11.912
28961W        W97190  40.637  31.544  11.828
28962W        W97191  33.236  15.625   4.126
28963W        W97192  18.807  11.697  10.615
28964W        W97193  32.393   5.220  12.840
28965W        W97194  39.258   9.279  11.115
28966W        W97195  41.632   4.856  13.519
28967W        W97196  16.818  33.851   0.278
28968W        W97197  29.527  14.446  12.918
28969W        W97198  16.284  34.996   2.657
28970W        W97199   1.335  11.234   1.385
28971W        W97200  15.572  13.300  13.374
28972W        W97201  15.584   8.427   1.892
28973W        W97202   8.727  22.041  11.469
28974W        W97203  39.780  40.614  12.263
28975W        W97204   3.624  43.944  11.198
28976W        W97205   4.405  37.306   2.374
28977W        W97206  29.181  38.295   3.414
28978W        W97207   7.903  41.040  14.474
28979W        W97208  38.271  35.084  14.551
28980W        W97209  29.061  29.152  14.557
28981W        W97210  38.657   1.962  11.551
28982W        W97211  40.935  44.257   3.300
28983W        W97212   4.658  10.205   2.405
28984W        W97213  25.670  20.181   4.092
28985W        W97214  18.215  27.618   2.265
28986W        W97215  34.897  11.868  13.106
28987W        W97216  11.184   9.569  13.368
28988W        W97217  26.908   7.887  13.833
28989W        W97218  10.824  10.709  14.220
28990W        W97219  15.111  40.245   3.627
28991W        W97220  17.849   3.142   3.172
28992W        W97221  21.719  28.053   3.084
28993W        W97222  17.820  20.081   5.080
28994W        W97223  19.204   8.344  12.083
28995W        W97224  32.800  15.639  11.468
28996W        W97225  37.627  21.502  12.534
28997W        W97226  27.193   9.585   4.004
28998W        W97227  31.075  23.629  14.272
28999W        W97228  29.622  26.644  14.667
29000W        W97229  39.026  28.861   3.728
29001W        W97230   4.843   5.573   4.410
29002W        W97231  25.761  20.624   2.793
29003W        W97232  44.306  34.593   3.792
29004W        W97233   6.712   6.749   4.368
29005W        W97234  21.055  31.388   1.780
29006W        W97235  13.085  42.005  14.365
29007W        W97236  15.348  17.599   3.920
29008W        W97237  25.479   2.209  10.753
29009W        W97238  33.915  40.075  10.398
29010W        W97239  42.527   9.311   1.295
29011W        W97240  10.434  32.665   0.720
29012W        W97241   0.897  18.376   0.322
29013W        W97242  16.591  34.314   3.696
29014W        W97243  22.221  14.318  10.540
29015W        W97244   0.260  31.153   3.547
29016W        W97245  42.304  29.155  14.763
29017W        W97246  26.201  29.056  12.956
29018W        W97247  39.864  38.881  12.868
29019W        W97248  44.318   2.377   1.447
29020W        W97249  41.255  43.126   2.282
29021W        W97250  16.122  20.685  13.037
29022W        W97251  21.214  24.274   4.991
29023W        W97252  35.340  26.227  11.108
29024W        W97253  20.147  15.600   1.389
29025W        W97254   4.754  30.272   2.844
29026W        W97255  20.262  32.611   2.317
29027W        W97256  27.858  12.287   2.717
29028W        W97257   4.766   7.541   1.095
29029W        W97258  28.489  32.875   4.714
29030W        W97259  20.604   4.807  14.592
29031W        W97260  10.647  10.210  12.059
29032W        W97261  22.462  24.746  11.176
29033W        W97262  43.503  21.275  14.832
29034W        W97263  30.526  23.012   2.001
29035W        W97264  28.386  18.116   3.524
29036W        W97265   9.349  39.920  11.075
29037W        W97266  31.137  14.746  10.724
29038W        W97267  11.703   2.457  12.015
29039W        W97268   8.623  26.547  14.582
29040W        W97269  38.408  22.194  11.121
29041W        W97270   1.390  42.775  13.556
29042W        W97271  29.977  33.153  14.956
29043W        W97272  35.009  31.132   2.828
29044W        W97273  24.009  32.891   2.734
29045W        W97274  30.054  21.714  11.985
29046W        W97275  41.125   4.970  13.382
29047W        W97276  23.190  25.331  10.983
29048W        W97277  20.269  28.434  14.097
29049W        W97278  28.254  11.106   5.480
29050W        W97279  39.336  21.376   3.795
29051W        W97280  17.679  32.876  13.863
29052W        W97281  24.401  14.231   3.146
29053W        W97282   9.228  44.725  13.870
29054W        W97283  18.808  12.917   2.657
29055W        W97284   7.755  41.935   4.602
29056W        W97285  24.241  40.298   2.700
29057W        W97286  31.362  44.025   2.858
29058W        W97287  41.749  29.443   1.865
29059W        W97288  26.119  37.364  14.192
29060W        W97289  26.402  22.445   3.909
29061W        W97290  15.050  16.608  10.370
29062W        W97291  11.390   2.657  10.959
29063W        W97292  10.815   2.943   4.028
29064W        W97293  20.769  33.119  13.976
29065W        W97294  16.470  10.827  12.384
29066W        W97295  12.403  27.550   3.984
29067W        W97296  18.557  43.833   1.409
29068W        W97297  43.789  24.748  14.067
29069W        W97298  42.308  35.032   1.400
29070W        W97299   3.795  32.523  14.045
29071W        W97300   1.323  32.558   3.952
29072W        W97301  18.085  28.060  12.374
29073W        W97302  18.071  29.637  12.897
29074W        W97303  26.609   3.381   5.032
29075W        W97304  25.243  30.050   0.717
29076W        W97305  20.248  29.021  12.012
29077W        W97306  27.459  40.608  11.358
29078W        W97307  28.146  42.084   4.060
29079W        W97308  22.933   6.171   4.114
29080W        W97309  10.360  44.724   3.844
29081W        W97310  32.000  40.937   2.094
29082W        W97311  18.092   1.781   4.435
29083W        W97312  21.990  22.750   3.853
29084W        W97313  41.504  23.080   3.428
29085W        W97314  10.490  33.638   4.180
29086W        W97315  20.003  32.853   0.827
29087W        W97316  11.406  13.712  14.390
29088W        W97317  33.869  44.457   4.213
29089W        W97318  44.100   5.102   4.889
29090W        W97319  34.142  10.964   0.097
29091W        W97320  31.599  14.299   2.852
29092W        W97321  22.086   7.450  11.450
29093W        W97322  13.682  38.966  14.591
29094W        W97323   8.383  36.035   1.366
29095W        W97324   3.839   9.263   4.234
29096W        W97325  19.533  15.273  14.083
29097W        W97326  10.786  40.890   0.916
29098W        W97327  44.761  29.984  13.354
29099W        W97328   5.282  22.063  11.069
29100W        W97329  43.771  32.614  13.977
29101W        W97330  15.171  38.284   1.038
29102W        W97331   0.545  26.618  11.024
29103W        W97332   6.938  13.540   3.124
29104W        W97333  29.222  25.010  12.513
29105W        W97334  39.943  25.966   4.381
29106W        W97335  32.538  30.988   1.662
29107W        W97336  27.688  17.391  11.561
29108W        W97337  20.831  17.734   4.118
29109W        W97338  18.157  15.173   0.367
29110W        W97339  38.150  34.584  12.193
29111W        W97340  42.796  11.817   2.203
29112W        W97341  43.757   8.316  10.421
29113W        W97342  23.528  39.074   0.895
29114W        W97343  37.133   9.817  12.574
29115W        W97344  19.273  14.226  13.313
29116W        W97345  39.408  39.138  13.942
29117W        W97346   5.199   4.863   4.925
29118W        W97347  25.639  35.153  14.797
29119W        W97348  35.115  39.141  11.218
29120W        W97349  29.726  11.242  13.352
29121W        W97350  17.403  35.821   2.752
29122W        W97351  26.980  11.334   3.185
29123W        W97352  30.597  30.446  12.578
29124W        W97353  32.394   4.728  12.566
29125W        W97354  20.705  40.418   0.691
29126W        W97355  28.045  17.268  11.179
29127W        W97356  37.882  13.565   1.208
29128W        W97357   1.544  42.566   3.641
29129W        W97358  25.656  32.943   0.385
29130W        W97359  32.005  35.205  11.472
29131W        W97360  11.760  30.092   1.023
29132W        W97361  32.423   2.087   4.656
29133W        W97362   0.786  12.334   3.669
29134W        W97363  31.424  40.903  10.626
29135W        W97364  24.116  42.871  10.769
29136W        W97365  33.993  38.537   4.658
29137W        W97366  32.484   5.016  14.283
29138W        W97367  36.585  21.986  12.466
29139W        W97368  42.712   3.301   0.943
29140W        W97369  11.574   7.627   0.085
29141W        W97370  16.957  24.557   3.662
29142W        W97371  41.035  11.149  13.547
29143W        W97372  26.904  29.677   0.983
29144W        W97373  30.462  16.876  13.150
29145W        W97374  30.325  43.923  12.051
29146W        W97375  36.364  22.980   1.239
29147W        W97376  26.610  41.707  13.866
29148W        W97377  24.079  33.635   0.481
29149W        W97378  31.027  43.491   0.877
29150W        W97379  32.031   6.147   1.413
29151W        W97380  16.525  35.945  10.585
29152W        W97381  36.894   7.730  14.221
29153W        W97382  30.440  37.952  11.151
29154W        W97383  11.735  14.661  12.177
29155W        W97384  17.578  11.401   0.888
29156W        W97385  26.098  38.815  11.494
29157W        W97386  13.141  43.521  12.861
29158W        W97387  38.257  10.501   0.354
29159W        W97388   9.697  36.907   1.047
29160W        W97389  32.592  24.113  12.342
29161W        W97390  12.784  30.087  13.004
29162W        W97391   4.625  14.934   1.015
29163W        W97392  26.179  22.610   1.189
29164W        W97393  35.759  11.747  14.755
29165W        W97394  33.706  40.037   1.859
29166W        W97395   7.367   9.840  13.954
29167W        W97396  44.291   3.877   3.222
29168W        W97397  21.742  20.568  14.125
29169W        W97398  15.651  25.700  11.116
29170W        W97399  44.923  34.724   2.236
29171W        W97400  31.736  35.618   4.105
29172W        W97401  28.632  40.862   1.337
29173W        W97402  16.986  24.958  13.078
29174W        W97403   6.324   4.817   0.246
29175W        W97404  19.822  15.220  12.862
29176W        W97405  42.529   2.773  13.263
29177W        W97406  25.907  17.626   4.784
29178W        W97407  30.355  37.591   4.243
29179W        W97408  39.997   7.278   1.449
29180W        W97409  34.982   5.039  12.149
29181W        W97410  16.015  26.149  14.586
29182W        W97411  18.508  43.284  12.965
29183W        W97412  19.815  12.911  11.122
29184W        W97413  14.666  21.242   0.899
29185W        W97414  43.342  20.498  14.760
29186W        W97415   9.446  10.595  11.550
29187W        W97416  34.813   4.716  14.376
29188W        W97417  29.997  29.111  12.496
29189W        W97418  31.858  32.825  13.974
29190W        W97419  30.975  25.051   4.588
29191W        W97420   2.489  14.245  12.468
29192W        W97421  11.824  22.834  10.970
29193W        W97422  33.691   9.256   3.303
29194W        W97423  33.248  31.523   1.752
29195W        W97424   1.040   8.013  13.013
29196W        W97425   3.820  34.113   4.541
29197W        W97426  40.811  38.595   0.432
29198W        W97427  26.448   2.311  10.802
29199W        W97428  43.079  19.532   4.538
29200W        W97429   2.858   2.482  13.339
29201W        W97430  27.659  38.410  12.015
29202W        W97431  19.638  39.713   0.901
29203W        W97432  35.435  42.818   0.944
29204W        W97433   5.723  13.917  10.839
29205W        W97434  23.061  29.490  11.665
29206W        W97435  27.426  10.653   1.804
29207W        W97436   9.652  28.148   0.427
29208W        W97437  26.682   2.256  13.506
29209W        W97438  23.334   1.728   1.747
29210W        W97439  17.456  35.258  14.922
29211W        W97440  28.338   6.299  13.300
29212W        W97441  14.943  30.053  10.832
29213W        W97442  41.816  14.999   2.766
29214W        W97443  42.082  30.665  14.829
29215W        W97444  12.822  37.828   0.891
29216W        W97445  33.603  20.717   4.289
29217W        W97446  43.767  29.665   2.690
29218W        W97447   2.367  25.007  14.121
29219W        W97448  32.650  41.901  14.523
29220W        W97449  17.013   4.848  12.335
29221W        W97450  27.631  37.934   3.611
29222W        W97451  27.559   3.450  12.438
29223W        W97452  43.064  10.641   0.320
29224W        W97453  24.328  38.983  14.933
29225W        W97454  42.027   4.759   4.064
29226W        W97455   6.439  38.847   0.207
29227W        W97456  25.205  11.874  14.812
29228W        W97457  22.244   8.663  14.489
29229W        W97458  39.328  12.564   0.226
29230W        W97459  13.518   6.236  14.396
29231W        W97460  41.263   6.299   1.243
29232W        W97461   9.998   7.673  14.070
29233W        W97462   8.623  36.681  13.502
29234W        W97463  40.443  13.970   4.142
29235W        W97464  22.707  33.997  14.853
29236W        W97465  22.193  35.056   0.370
29237W        W97466   6.289  32.530  12.882
29238W        W97467  16.035   0.932  11.597
29239W        W97468  15.029   3.804   1.730
29240W        W97469   2.943  13.702  13.097
29241W        W97470  16.667  22.621   2.330
29242W        W97471   9.872  41.432  10.592
29243W        W97472  25.554  29.054   3.611
29244W        W97473  23.850   3.942  14.031
29245W        W97474  31.179  24.767   2.601
29246W        W97475   2.695  39.533   0.716
29247W        W97476  27.237  10.751  12.891
29248W        W97477  26.682  33.239   1.786
29249W        W97478  41.555  10.304  13.279
29250W        W97479  22.687   1.421  12.623
29251W        W97480   1.438   0.938  11.240
29252W        W97481  36.091  13.383   1.444
29253W        W97482  23.233   4.213  14.939
29254W        W97483  12.550   5.092  14.362
29255W        W97484  41.431  28.656   3.906
29256W        W97485  41.378  19.136   1.916
29257W        W97486  31.048  41.823   0.425
29258W        W97487   4.293  37.149   0.376
29259W        W97488  28.205  38.497   4.533
29260W        W97489   6.883  12.417   0.289
29261W        W97490   2.116  33.053   0.199
29262W        W97491  36.956  38.359   1.791
29263W        W97492  43.900  32.883  14.405
29264W        W97493   3.352  18.125   0.928
29265W        W97494  34.022  39.861   0.745
29266W        W97495  27.043  37.494  13.368
29267W        W97496  24.528  36.018   0.834
29268W        W97497  30.149  18.274   4.662
29269W        W97498  28.715   7.919  14.837
29270W        W97499  22.496  31.511  14.895
29271W        W97500  19.014  27.954   4.650
29272W        W97501  12.960   1.264  13.914
29273W        W97502  44.366   1.822  12.643
29274W        W97503  11.843  19.741  11.305
29275W        W97504   3.462  29.111   3.134
29276W        W97505  17.519  19.219   3.676
29277W        W97506  42.866   5.702  14.924
29278W        W97507  24.642  31.040  12.014
29279W        W97508  35.353  18.786   0.643
29280W        W97509  17.361   3.395   1.803
29281W        W97510  19.093   9.354   4.410
29282W        W97511  16.260  44.542   0.918
29283W        W97512   4.282  28.362   3.943
29284W        W97513  24.789  21.089  11.015
29285W        W97514  13.671  26.261   4.936
29286W        W97515  39.926  40.529  10.861
29287W        W97516  21.262  32.797  11.525
29288W        W97517  40.676  19.916  14.340
29289W        W97518   7.101  25.946   0.383
29290W        W97519  29.108  24.620  12.836
29291W        W97520  19.105  29.836  12.182
29292W        W97521   7.226  10.604   2.254
29293W        W97522  34.791  11.115   2.752
29294W        W97523  29.738  25.238   1.070
29295W        W97524  12.176  43.326  11.558
29296W        W97525   4.929  41.467   3.692
29297W        W97526  17.813  13.407  14.568
29298W        W97527  40.869  24.678  10.885
29299W        W97528  26.602  16.008  10.935
29300W        W97529  41.932  35.333  14.028
29301W        W97530  37.079   1.880   2.773
29302W        W97531  31.975  28.220   1.877
29303W        W97532  41.127   7.876  13.595
29304W        W97533   8.594  15.242  14.076
29305W        W97534  35.397  32.048   0.433
29306W        W97535  42.815  40.714   1.840
29307W        W97536  24.565  29.958  13.005
29308W        W97537  33.915  36.407  10.996
29309W        W97538   4.474  22.047   0.704
29310W        W97539  34.587   1.827  12.511
29311W        W97540  23.193   1.988  14.625
29312W        W97541  41.865   0.628  14.587
29313W        W97542  42.812  37.608   4.992
29314W        W97543  36.958  24.628   4.466
29315W        W97544  25.984  33.994  12.045
29316W        W97545   0.090  43.596   4.229
29317W        W97546  25.706  42.266   1.866
29318W        W97547  17.138  29.182  11.351
29319W        W97548  32.530  19.158   0.525
29320W        W97549  28.230  35.491  10.688
29321W        W97550   5.322  15.329  13.598
29322W        W97551  23.222  42.720   3.654
29323W        W97552   5.536  42.175   0.223
29324W        W97553  42.962  34.950  10.614
29325W        W97554  12.099  24.039  13.728
29326W        W97555  22.487   8.505   1.808
29327W        W97556   2.024  39.861   4.700
29328W        W97557  38.469  32.677   1.620
29329W        W97558   2.024  16.078  11.885
29330W        W97559   8.319  28.754   3.260
29331W        W97560  10.166  15.679  11.384
29332W        W97561  17.201  30.584  11.755
29333W        W97562  29.224   3.049  14.314
29334W        W97563   0.905  18.233   2.896
29335W        W97564  34.423  30.948   0.247
29336W        W97565  41.756  26.186   0.227
29337W        W97566  27.744   7.924   0.650
29338W        W97567   1.882  40.897   2.165
29339W        W97568  26.457  20.178  14.392
29340W        W97569  21.190   4.680   4.306
29341W        W97570  43.660  19.301  11.160
29342W        W97571  21.306  44.899  12.291
29343W        W97572  38.667  40.037  12.507
29344W        W97573  37.953  31.993   0.326
29345W        W97574  22.521   8.554   4.758
29346W        W97575  23.226   0.090  14.415
29347W        W97576   9.769  13.157   2.520
29348W        W97577   0.827   7.595  14.265
29349W        W97578  27.707  42.864  13.850
29350W        W97579  23.818   0.327   3.276
29351W        W97580  25.533   4.562   3.360
29352W        W97581  14.713  10.962  13.107
29353W        W97582  11.437  27.839  11.453
29354W        W97583  22.948   9.132  13.420
29355W        W97584  10.561  19.847   2.478
29356W        W97585  13.828  29.478   3.228
29357W        W97586  11.379  26.729   0.842
29358W        W97587  18.210  29.830  12.128
29359W        W97588  14.003  29.683   1.786
29360W        W97589  44.032   9.736   4.819
29361W        W97590   7.797  20.362  11.280
29362W        W97591  21.532  38.449  14.992
29363W        W97592   8.681  22.548   1.306
29364W        W97593  31.106   1.581   1.847
29365W        W97594  20.106  12.551   2.789
29366W        W97595   2.828  29.134   1.514
29367W        W97596  12.311   2.092   4.471
29368W        W97597  43.309  23.171   4.915
29369W        W97598   0.933  34.063  14.078
29370W        W97599  14.314  26.684  12.063
29371W        W97600  18.791  31.535   2.350
29372W        W97601   1.726  32.089   4.595
29373W        W97602   0.949  25.941   4.426
29374W        W97603  19.632  12.095   2.725
29375W        W97604  26.228  41.319  14.015
29376W        W97605   9.375   7.965  12.935
29377W        W97606  21.608  20.146   1.295
29378W        W97607  18.013   3.394   4.950
29379W        W97608  40.839  42.606   1.727
29380W        W97609  18.744  43.563  11.825
29381W        W97610  38.477   0.979  14.061
29382W        W97611  39.779  15.750   3.327
29383W        W97612  12.359  21.233  11.563
29384W        W97613  42.876  23.219   3.254
29385W        W97614  42.767  17.813   0.115
29386W        W97615   8.471  31.193   4.158
29387W        W97616  43.229  22.992   0.370
29388W        W97617  44.189  40.581   2.332
29389W        W97618   3.287  42.505   1.616
29390W        W97619  12.274  21.531   2.345
29391W        W97620  26.894  28.407   2.677
29392W        W97621  20.052  20.153   4.629
29393W        W97622  30.110  13.123  14.968
29394W        W97623  34.575   4.371   2.820
29395W        W97624  38.052  22.578   0.870
29396W        W97625  31.496  31.158  14.360
29397W        W97626  38.085  20.657   0.473
29398W        W97627  10.745  22.838  11.541
29399W        W97628  37.910  41.918   0.978
29400W        W97629  33.004  36.783  14.867
29401W        W97630  39.818   4.215  12.243
29402W        W97631  24.546   5.514   3.193
29403W        W97632  36.832  37.948  11.052
29404W        W97633  10.853  27.633  12.593
29405W        W97634  21.319  11.583   5.099
29406W        W97635  13.575   7.859   2.214
29407W        W97636  37.369  42.444  11.105
29408W        W97637   9.118   3.974   1.331
29409W        W97638  29.117  19.576  10.415
29410W        W97639   7.857  11.691   0.449
29411W        W97640   3.470  42.884   3.126
29412W        W97641  14.687   6.643   1.943
29413W        W97642   0.980  33.037  12.610
29414W        W97643  41.832  12.073  13.209
29415W        W97644   1.511  30.056  13.864
29416W        W97645  30.863  24.493   0.922
29417W        W97646  34.390  12.621   1.290
29418W        W97647  43.689  33.810  11.677
29419W        W97648   3.637  19.334  10.936
29420W        W97649  44.732  18.824  10.697
29421W        W97650  32.767   1.143  12.032
29422W        W97651  12.319  27.069   4.281
29423W        W97652  24.884  18.567   2.205
29424W        W97653  11.864  21.691  13.751
29425W        W97654  38.881  34.037  14.981
29426W        W97655   5.356  36.117  10.787
29427W        W97656   0.320  16.809   4.816
29428W        W97657   8.150  22.160  13.923
29429W        W97658   6.792  32.080  14.432
29430W        W97659  14.521  41.317  11.588
29431W        W97660  34.450  16.170   3.312
29432W        W97661  41.472   8.048  11.407
29433W        W97662  22.938  31.515   3.650
29434W        W97663   6.223  25.921  10.662
29435W        W97664  18.372  33.118  10.454
29436W        W97665  13.953  14.207  10.094
29437W        W97666   9.743   2.810   3.330
29438W        W97667  22.620   2.476   2.937
29439W        W97668   3.780  10.863  13.055
29440W        W97669  38.980   1.429  14.805
29441W        W97670   4.064  30.794   4.242
29442W        W97671  11.950  32.520   3.275
29443W        W97672  21.014   9.816   2.833
29444W        W97673  23.501  11.504  14.836
29445W        W97674   2.978  30.434  14.805
29446W        W97675   7.662  40.946  12.415
29447W        W97676  38.854  25.591   2.370
29448W        W97677  40.847  11.102   0.434
29449W        W97678  29.973  12.764  14.122
29450W        W97679  14.237  12.828   4.630
29451W        W97680  24.011  11.837  11.552
29452W        W97681  41.474  33.065   1.817
29453W        W97682  40.244  37.055  11.123
29454W        W97683  24.448  12.661  14.300
29455W        W97684  38.538  22.631  10.590
29456W        W97685  17.497   9.795   5.152
29457W        W97686  24.396  31.089   2.345
29458W        W97687   7.969  15.698   0.254
29459W        W97688  43.303  36.770  12.430
29460W        W97689  32.483  18.621  13.070
29461W        W97690  36.505   5.256   0.282
29462W        W97691  22.173  12.841   2.886
29463W        W97692  43.459  32.672  11.660
29464W        W97693   2.397   7.226  13.815
29465W        W97694   1.729   4.392  12.567
29466W        W97695   6.333  30.989   1.819
29467W        W97696   1.013  37.986  11.519
29468W        W97697   9.148  37.010  11.916
29469W        W97698  28.588  21.941  11.504
29470W        W97699  10.296  43.890  14.200
29471W        W97700  32.706   5.199   1.945
29472W        W97701   3.223  33.994   1.319
29473W        W97702  38.592   7.883   3.688
29474W        W97703  16.119  33.210   4.613
29475W        W97704  18.971  26.031   5.041
29476W        W97705   7.157  18.051   2.820
29477W        W97706   6.703  19.400   4.335
29478W        W97707   0.900   0.082   3.200
29479W        W97708  28.539  26.451  12.686
29480W        W97709  22.056  16.060  12.118
29481W        W97710  43.678  24.887   4.031
29482W        W97711   8.654  11.773  11.736
29483W        W97712  11.147  40.470  14.755
29484W        W97713  35.340  17.225  13.096
29485W        W97714  35.049  34.232   3.263
29486W        W97715   0.509  14.200   2.089
29487W        W97716  30.975  32.609  13.903
29488W        W97717   1.386  13.069  12.467
29489W        W97718  19.243  11.094   1.385
29490W        W97719  32.437  15.829   2.270
29491W        W97720  44.877  22.275  12.032
29492W        W97721   9.706  18.037  14.860
29493W        W97722  29.477  33.476   0.241
29494W        W97723  16.511  20.337  10.816
29495W        W97724  13.350  24.832   0.562
29496W        W97725  21.562  14.285   0.977
29497W        W97726   3.201   0.013   4.516
29498W        W97727  27.712  10.595  12.775
29499W        W97728  31.643  14.587   2.408
29500W        W97729  39.080  23.662   1.288
29501W        W97730  33.246  28.550  11.038
29502W        W97731   7.010  15.493   4.977
29503W        W97732   2.847  44.841  11.621
29504W        W97733   2.647   3.831  13.917
29505W        W97734   6.176  37.860   3.308
29506W        W97735  15.540  43.599   0.344
29507W        W97736  24.128   4.444   4.398
29508W        W97737   8.043  39.586  13.283
29509W        W97738  39.370  26.131  10.734
29510W        W97739  30.466  21.474   1.207
29511W        W97740  33.424  25.857  13.012
29512W        W97741  41.099  39.263  11.996
29513W        W97742  37.931   7.816  14.026
29514W        W97743  36.030   8.089   1.244
29515W        W97744  19.690  16.958  13.436
29516W        W97745  12.287  17.923   3.655
29517W        W97746  29.904  12.517   0.641
29518W        W97747   3.196  23.716  12.472
29519W        W97748   7.202  44.840  10.675
29520W        W97749  17.595  28.665   1.329
29521W        W97750  18.160  17.996  14.425
29522W        W97751   9.321   0.545   4.293
29523W        W97752   6.404  36.980   2.361
29524W        W97753   2.514  35.328  14.543
29525W        W97754  42.568  18.094   2.768
29526W        W97755  14.557  29.059  10.478
29527W        W97756  21.952  22.028  13.560
29528W        W97757  22.508  15.168   4.369
29529W        W97758   7.753   9.670   4.415
29530W        W97759  44.563   4.914   5.067
29531W        W97760  42.646  12.746   4.953
29532W        W97761   8.475  19.811   4.174
29533W        W97762  38.600  41.229   5.180
29534W        W97763  11.297   9.440  12.508
29535W        W97764  16.373  37.547   3.926
29536W        W97765  36.090   3.435  11.001
29537W        W97766  38.215   1.712  10.204
29538W        W97767   2.187   5.685  10.671
29539W        W97768   4.376  21.615  13.883
29540W        W97769  22.694  11.509  14.173
29541W        W97770  16.258  37.598  12.963
29542W        W97771  35.356  27.419   4.503
29543W        W97772  11.310  31.252   1.568
29544W        W97773  39.060   5.654   0.831
29545W        W97774  35.558  33.876  13.949
29546W        W97775  30.041   8.807  13.314
29547W        W97776   6.629  14.528  14.400
29548W        W97777   4.667  10.910  12.009
29549W        W97778   2.299  42.927  10.914
29550W        W97779  38.040  42.038   3.887
29551W        W97780  10.686  14.063   3.160
29552W        W97781  39.925   6.346   4.419
29553W        W97782   1.716  38.727  12.913
29554W        W97783  22.133  44.222  13.627
29555W        W97784  26.998  35.535  13.543
29556W        W97785   8.608  35.562  12.933
29557W        W97786   6.331  37.127  14.400
29558W        W97787  12.221  32.052   3.282
29559W        W97788   1.423   0.652  14.103
29560W        W97789  31.204  40.420   2.614
29561W        W97790  16.002  21.491   1.950
29562W        W97791   1.828   0.327   2.066
29563W        W97792   8.955  22.961  12.913
29564W        W97793   4.226  15.522   4.667
29565W        W97794  36.060  15.631  12.011
29566W        W97795  40.805  36.284   4.294
29567W        W97796  23.150  25.237  10.471
29568W        W97797  14.818  31.539   3.640
29569W        W97798  27.894  17.206   0.366
29570W        W97799   8.728   7.466   4.678
29571W        W97800   3.533  10.771   0.001
29572W        W97801  13.945  27.050  12.049
29573W        W97802  30.144  32.174  11.441
29574W        W97803  21.648  11.884   4.270
29575W        W97804  17.343   3.997  14.433
29576W        W97805  30.094  12.281   2.356
29577W        W97806  23.556  15.620  10.704
29578W        W97807  37.743  16.231   3.374
29579W        W97808  17.101  20.396   4.618
29580W        W97809  28.584   1.945   3.703
29581W        W97810  14.257  20.288  14.538
29582W        W97811   7.188  33.427  12.796
29583W        W97812  41.956  31.879  11.609
29584W        W97813  25.409  29.611  12.916
29585W        W97814   1.831  31.917   3.739
29586W        W97815   4.367   0.417   4.310
29587W        W97816  21.695  30.379  14.390
29588W        W97817  19.783  42.272   0.865
29589W        W97818  20.091  26.680   1.242
29590W        W97819   6.661  11.161  11.434
29591W        W97820  36.408  33.304  10.858
29592W        W97821  19.040  41.849  10.732
29593W        W97822  10.404  21.121   1.033
29594W        W97823  44.729  33.280   0.462
29595W        W97824   2.367   3.434   4.135
29596W        W97825  30.694   4.101  11.558
29597W        W97826   4.516  40.521  13.922
29598W        W97827   2.259  32.255  13.079
29599W        W97828   4.456   9.930   3.789
29600W        W97829  30.471   6.237   0.435
29601W        W97830  31.169  25.546  11.119
29602W        W97831   3.214   8.285  13.436
29603W        W97832  15.033  21.151  13.478
29604W        W97833   3.294  37.362   0.005
29605W        W97834  37.489  16.245  12.414
29606W        W97835  26.141   4.213   4.561
29607W        W97836  39.205  28.545   0.334
29608W        W97837  15.128  28.772  11.132
29609W        W97838  26.228  37.210   5.187
29610W        W97839  26.205   0.762  12.397
29611W        W97840  28.730  23.156   2.592
29612W        W97841   8.431  30.139   4.309
29613W        W97842  41.451  31.877   4.122
29614W        W97843  38.757  30.408   1.750
29615W        W97844   9.264  36.407   1.417
29616W        W97845   5.864   4.512   2.249
29617W        W97846  35.116  19.628   3.163
29618W        W97847  16.078  37.611  14.921
29619W        W97848  39.032  18.839   3.351
29620W        W97849  28.894  39.020  13.361
29621W        W97850   3.202  13.835  12.390
29622W        W97851  40.940   8.727   1.641
29623W        W97852   8.383  32.422   2.372
29624W        W97853  23.237  17.667   0.141
29625W        W97854  29.628  29.499   3.729
29626W        W97855  41.572   9.272  13.869
29627W        W97856  19.162  31.087   0.758
29628W        W97857   8.460  33.110   2.182
29629W        W97858  25.446  44.752   1.835
29630W        W97859   4.322   4.692  10.505
29631W        W97860   6.401  24.634   0.292
29632W        W97861   6.954  30.984  11.749
29633W        W97862  16.141  32.955  10.562
29634W        W97863  41.260  37.968   2.131
29635W        W97864  43.459  20.115  10.647
29636W        W97865   4.428  23.983  11.950
29637W        W97866  29.491  40.421  13.539
29638W        W97867  12.250  36.989   0.506
29639W        W97868   6.796  10.597   3.658
29640W        W97869  21.632   9.839  13.382
29641W        W97870   2.920  43.472  12.520
29642W        W97871  25.961   8.148  12.951
29643W        W97872  36.824   5.364  13.881
29644W        W97873  29.074  28.996  11.054
29645W        W97874  22.072  38.151  14.121
29646W        W97875  26.663  20.584   0.510
29647W        W97876  17.527   3.714  11.102
29648W        W97877   8.740  34.166  10.427
29649W        W97878  10.640  27.523   4.737
29650W        W97879  39.235  11.608   4.769
29651W        W97880  39.519  30.111  11.885
29652W        W97881  41.810  20.228  11.686
29653W        W97882  27.007  32.276   1.984
29654W        W97883  17.025  35.487  10.433
29655W        W97884  22.553  20.174   4.163
29656W        W97885  12.696   8.548   5.142
29657W        W97886   7.977  38.179   3.778
29658W        W97887  12.613  10.090  14.403
29659W        W97888  14.690  16.059   0.059
29660W        W97889   3.448  36.465   0.700
29661W        W97890  41.011   0.019   1.121
29662W        W97891  27.943  19.297  12.559
29663W        W97892  19.002  32.516  13.960
29664W        W97893   3.673  37.879   1.164
29665W        W97894  19.848  43.559  11.343
29666W        W97895  42.637  26.443  14.782
29667W        W97896  29.236   4.738   4.663
29668W        W97897  18.595  31.047   1.785
29669W        W97898  20.417  38.931  14.988
29670W        W97899   3.578  38.784  12.985
29671W        W97900  24.195   9.379   3.258
29672W        W97901  13.343  17.111  12.581
29673W        W97902   5.191   1.982   1.878
29674W        W97903  23.853  43.232  13.433
29675W        W97904   8.891  41.564  13.484
29676W        W97905  21.205   3.746  12.189
29677W        W97906  37.758  14.110  12.067
29678W        W97907   0.448  20.810   4.136
29679W        W97908  24.318  18.650  11.411
29680W        W97909   9.639   3.040   2.330
29681W        W97910  34.142  28.717   4.215
29682W        W97911  30.040   7.239   0.575
29683W        W97912  11.229  28.748   1.866
29684W        W97913   0.353  38.068   1.425
29685W        W97914  10.013  26.143   2.453
29686W        W97915  35.422   3.259   2.999
29687W        W97916  27.850  17.748   4.681
29688W        W97917  33.137  16.220   1.771
29689W        W97918   2.145  36.934   4.977
29690W        W97919  42.945  29.444   3.730
29691W        W97920  16.605  29.728  11.027
29692W        W97921  25.246  12.462  13.860
29693W        W97922  24.698  41.298  14.004
29694W        W97923   9.827  32.967  13.289
29695W        W97924  26.924  17.094   2.012
29696W        W97925  38.222  25.412  11.605
29697W        W97926   0.425  18.383  11.070
29698W        W97927  25.218   6.243   0.442
29699W        W97928  30.915   4.942  13.405
29700W        W97929   1.706   8.701   3.596
29701W        W97930  11.364  23.561   2.041
29702W        W97931   8.463  21.484   4.964
29703W        W97932  41.524  33.488   4.009
29704W        W97933  18.864  22.609   5.049
29705W        W97934  12.109   2.942   1.011
29706W        W97935  38.767  35.202   2.260
29707W        W97936  10.455  17.104  11.548
29708W        W97937  15.379   1.390   2.867
29709W        W97938  21.167   7.745  10.508
29710W        W97939  20.860  43.218   2.333
29711W        W97940  26.969  34.003  12.185
29712W        W97941  23.608  22.642   0.014
29713W        W97942   8.001  11.204   4.837
29714W        W97943  37.400  13.614   0.895
29715W        W97944  13.792  39.442  14.340
29716W        W97945  26.942  33.166   0.667
29717W        W97946  22.436  32.981   1.831
29718W        W97947   1.914  38.865  10.847
29719W        W97948  12.301  29.024   4.175
29720W        W97949   0.714  44.354   3.658
29721W        W97950  30.076  44.503   1.316
29722W        W97951  24.728  31.094  14.537
29723W        W97952  43.670  24.738   0.943
29724W        W97953  39.446  23.461   4.595
29725W        W97954  28.950   1.989  11.447
29726W        W97955  30.063  37.550   2.999
29727W        W97956  16.255  32.898   2.839
29728W        W97957  14.164  15.788   5.005
29729W        W97958  36.522  28.789  14.748
29730W        W97959  16.303  37.839  11.169
29731W        W97960   8.717  22.132   4.580
29732W        W97961  43.431  14.550   0.312
29733W        W97962  13.248   1.957   2.397
29734W        W97963  32.510  25.897  14.416
29735W        W97964   0.984  13.040  13.387
29736W        W97965  19.561  33.023   1.336
29737W        W97966  43.825  43.038  12.436
29738W        W97967  20.690  13.080  12.576
29739W        W97968  18.243   6.150   0.370
29740W        W97969  37.754  15.165  10.280
29741W        W97970  39.140  27.797   0.381
29742W        W97971  15.134   1.814   4.408
29743W        W97972  42.450  37.101   1.864
29744W        W97973  11.222  17.017  10.971
29745W        W97974  31.609  33.910   0.909
29746W        W97975   2.624   1.612  10.946
29747W        W97976  14.601  21.986  14.530
29748W        W97977  44.454  23.673   2.690
29749W        W97978  35.508  40.405  10.588
29750W        W97979  27.781  37.803   4.640
29751W        W97980  25.619  12.169  13.612
29752W        W97981  17.642  39.473   4.747
29753W        W97982  37.853  33.684   1.931
29754W        W97983   3.744  39.636   2.838
29755W        W97984  26.148  39.794   2.366
29756W        W97985  44.901  24.945   0.246
29757W        W97986  15.106  44.784  12.417
29758W        W97987  31.978   5.398  13.073
29759W        W97988   1.937  44.700   1.291
29760W        W97989  22.710   1.388  12.097
29761W        W97990  24.085   5.027   3.725
29762W        W97991  18.538   0.738   0.273
29763W        W97992   6.918  38.344  13.956
29764W        W97993  13.152  14.409  12.178
29765W        W97994  29.536  31.673  13.914
29766W        W97995   8.755  27.652   1.714
29767W        W97996  35.553  15.793  11.828
29768W        W97997  18.459  33.873  11.978
29769W        W97998  28.697   9.057   3.672
29770W        W97999  21.187  14.087   3.264
29771W        W98000  42.400  42.519   4.406
29772W        W98001   8.431  26.155   2.594
29773W        W98002  19.493  17.561  10.634
29774W        W98003  35.041  17.673   3.143
29775W        W98004  13.655  13.690  13.030
29776W        W98005   3.264  14.717   2.803
29777W        W98006   1.221  12.153  14.096
29778W        W98007  42.409  32.556   3.781
29779W        W98008  13.070  22.581   1.183
29780W        W98009  28.644   2.730  11.984
29781W        W98010  34.711  44.668   4.453
29782W        W98011   6.306   5.376  14.883
29783W        W98012   5.356  23.976  14.305
29784W        W98013  24.030  41.370  10.904
29785W        W98014  21.277   4.943  11.938
29786W        W98015  27.698   0.792   1.378
29787W        W98016  36.434  10.331  11.076
29788W        W98017  41.884  42.419   3.700
29789W        W98018   6.166  17.884  14.557
29790W        W98019  16.326  41.321  11.823
29791W        W98020  31.805  16.452   3.238
29792W        W98021  21.202  22.689   1.795
29793W        W98022  16.243   9.606   0.396
29794W        W98023  12.362  14.290   5.124
29795W        W98024  24.773   4.707  13.373
29796W        W98025  12.792  11.627  14.483
29797W        W98026  26.882  11.202   0.539
29798W        W98027   2.890  33.040   1.148
29799W        W98028  42.362  24.422   0.880
29800W        W98029  17.532  11.253  12.657
29801W        W98030  27.183  26.817  12.874
29802W        W98031  34.466  15.096   4.815
29803W        W98032  44.278  12.750  10.540
29804W        W98033  37.028  26.698   1.276
29805W        W98034  16.067  31.155  13.726
29806W        W98035  17.488  32.430  11.441
29807W        W98036  10.266  17.869   3.802
29808W        W98037  11.957  16.271  13.874
29809W        W98038   3.981   9.721   3.919
29810W        W98039  13.820  29.158  14.379
29811W        W98040  40.350  19.522   2.385
29812W        W98041   1.054  30.565  12.715
29813W        W98042  39.106  29.992   1.854
29814W        W98043  13.612   3.573  12.132
29815W        W98044  44.526  30.597   5.037
29816W        W98045  24.603  11.015   4.238
29817W        W98046  36.739  30.355   5.015
29818W        W98047  31.609  10.909   1.810
29819W        W98048   8.808  27.752  12.384
29820W        W98049  39.480  28.561   2.908
29821W        W98050  23.031  32.633   3.287
29822W        W98051   3.076  35.991   3.942
29823W        W98052  14.810  24.260   3.570
29824W        W98053  10.675  25.981   1.844
29825W        W98054  30.470  18.375   5.068
29826W        W98055   2.403   1.395  13.408
29827W        W98056  33.064  17.555   2.292
29828W        W98057  25.454   8.837  11.188
29829W        W98058   5.761  18.665  13.820
29830W        W98059  10.354  13.863  13.392
29831W        W98060  41.878  41.416  13.520
29832W        W98061  12.387  38.836  13.338
29833W        W98062  25.108  44.237  12.546
29834W        W98063   5.251  34.594   3.457
29835W        W98064  29.094  40.781   0.524
29836W        W98065  19.534  35.831  10.736
29837W        W98066   9.736  26.974  13.086
29838W        W98067  15.215   6.879  14.100
29839W        W98068  16.585  38.579  12.953
29840W        W98069  43.541  28.060   2.094
29841W        W98070  18.822  36.869   4.719
29842W        W98071  35.708  14.759   2.629
29843W        W98072  43.529  30.627   2.905
29844W        W98073  28.308  13.819   0.694
29845W        W98074   6.361  38.325   0.229
29846W        W98075  29.443  35.957   0.778
29847W        W98076  35.162  15.412   1.713
29848W        W98077   8.608  21.313  11.039
29849W        W98078  29.083   0.740   3.688
29850W        W98079  43.954   0.303   2.619
29851W        W98080   1.696  31.046   0.803
29852W        W98081  26.583  25.149  11.856
29853W        W98082  11.613  34.018  12.336
29854W        W98083   0.643  12.238  10.221
29855W        W98084  25.639  10.368  10.647
29856W        W98085  36.406  27.024  13.515
29857W        W98086   5.287   5.688   1.414
29858W        W98087   9.581  23.642   2.849
29859W        W98088  28.074  21.979   1.305
29860W        W98089  11.312  28.990   0.604
29861W        W98090  17.254  38.101   0.776
29862W        W98091  29.464  16.891   4.308
29863W        W98092  12.858  42.445  13.348
29864W        W98093  17.666  25.054   3.311
29865W        W98094  31.979  37.079  13.468
29866W        W98095  12.558   9.258  11.362
29867W        W98096  17.249   3.453   0.841
29868W        W98097  23.728  18.171  11.170
29869W        W98098  17.718  11.850  11.303
29870W        W98099  38.267  13.719  12.685
29871W        W98100  29.540  13.114   2.372
29872W        W98101  34.437   7.037   2.721
29873W        W98102   2.978  38.734  14.370
29874W        W98103  25.577  41.779   3.602
29875W        W98104  34.442   9.449  13.925
29876W        W98105  24.578  22.037  14.168
29877W        W98106   8.887  24.685  12.649
29878W        W98107   4.316  24.218  11.479
29879W        W98108   3.326  27.140  14.591
29880W        W98109  13.859   3.877  13.485
29881W        W98110  21.125  11.299   4.609
29882W        W98111  14.159  13.373   0.916
29883W        W98112  10.432  22.474   0.071
29884W        W98113  14.383   6.496   2.914
29885W        W98114  14.318  30.121  14.626
29886W        W98115  14.258  10.857  11.856
29887W        W98116  44.230  31.842  11.056
29888W        W98117  22.719  43.995  13.593
29889W        W98118  12.319  38.445   3.178
29890W        W98119  17.688  27.121   2.714
29891W        W98120  33.076   6.284  12.802
29892W        W98121  10.590  42.932   4.129
29893W        W98122   1.249  39.883  11.946
29894W        W98123  44.830  29.199   1.630
29895W        W98124  17.080  37.838  11.581
29896W        W98125  44.841  36.074  13.433
29897W        W98126  44.021  43.932  10.725
29898W        W98127   0.952  34.056   2.399
29899W        W98128  22.999   2.847  10.521
29900W        W98129  27.537  20.691  12.907
29901W        W98130  20.833  38.979  12.009
29902W        W98131  22.232   2.868   2.547
29903W        W98132  14.527  41.914  12.941
29904W        W98133   0.666  20.608   0.829
29905W        W98134  17.830   9.181   2.103
29906W        W98135   3.165  38.152  12.015
29907W        W98136   0.528   1.935   2.797
29908W        W98137  24.812  10.016  14.801
29909W        W98138  21.270   0.451  12.921
29910W        W98139  19.136  13.724   4.328
29911W        W98140  18.323  43.494  10.710
29912W        W98141  12.950  22.596  14.841
29913W        W98142   7.733   2.425  14.446
29914W        W98143   3.732  40.796   0.332
29915W        W98144  31.657   3.429   2.311
29916W        W98145   5.824  34.614   1.676
29917W        W98146  38.048   6.144  10.209
29918W        W98147  20.125  12.898   1.827
29919W        W98148  41.558  11.194  14.874
29920W        W98149  13.548  29.403  11.506
29921W        W98150  35.607  37.959  13.041
29922W        W98151   6.228  43.913   2.370
29923W        W98152  13.778   2.723   2.658
29924W        W98153  20.604  13.546   3.126
29925W        W98154  21.317  30.015   4.346
29926W        W98155   7.489  24.230   1.695
29927W        W98156   7.669  20.689   3.088
29928W        W98157   2.501  10.104   2.690
29929W        W98158  20.458  41.049   1.313
29930W        W98159  13.112  40.837   1.773
29931W        W98160   6.790  29.032  14.264
29932W        W98161  12.140   3.231   1.978
29933W        W98162  23.035   3.000  12.236
29934W        W98163  11.310  36.349   4.647
29935W        W98164  33.133  32.613   4.818
29936W        W98165  29.229  26.635  11.607
29937W        W98166  23.523  20.989   3.279
29938W        W98167  34.932  39.333   3.252
29939W        W98168  15.915  22.498  14.966
29940W        W98169  29.425  23.996  12.472
29941W        W98170  31.807   9.226   1.221
29942W        W98171   4.460  12.560   1.755
29943W        W98172  28.498  30.444  12.201
29944W        W98173  21.269   0.811  11.483
29945W        W98174  23.772  22.201   3.987
29946W        W98175   0.980  30.229   3.268
29947W        W98176   7.162   3.567  11.659
29948W        W98177  15.289  36.894  13.341
29949W        W98178  35.802  29.371  13.448
29950W        W98179   4.745  24.138   0.900
29951W        W98180  13.100  13.216   0.435
29952W        W98181  39.696   1.640   2.680
29953W        W98182  43.226  19.711   1.693
29954W        W98183  21.816  36.917  10.614
29955W        W98184  37.903  16.374   1.269
29956W        W98185  41.364  40.045   0.505
29957W        W98186  23.658   3.709  10.474
29958W        W98187  25.560  37.807  13.433
29959W        W98188  37.859  10.926  10.606
29960W        W98189  31.859  32.925   0.895
29961W        W98190   0.386  18.492  12.597
29962W        W98191  16.267  44.387   2.430
29963W        W98192  26.107  43.844   4.587
29964W        W98193  18.732  25.452  14.399
29965W        W98194  20.489  30.378  14.392
29966W        W98195   6.588  40.472  12.002
29967W        W98196  28.034  32.460   1.143
29968W        W98197   4.375  26.257   1.493
29969W        W98198  18.370  10.800   2.718
29970W        W98199   2.259  38.276  12.658
29971W        W98200  33.833   3.855   3.662
29972W        W98201  23.513  39.417   3.882
29973W        W98202  36.378  25.070   4.019
29974W        W98203  13.658  41.825   2.706
29975W        W98204  32.499  30.652  11.709
29976W        W98205   3.662   2.369  11.610
29977W        W98206  24.073  21.731   3.272
29978W        W98207  19.517  26.975   3.315
29979W        W98208  44.781   5.840  12.299
29980W        W98209  16.834  39.464  10.646
29981W        W98210   8.163  36.502  12.921
29982W        W98211  35.590  39.414   4.175
29983W        W98212  18.846  28.251   4.223
29984W        W98213   9.419  33.420  13.910
29985W        W98214  42.218   3.275   0.832
29986W        W98215  10.876  26.092   1.326
29987W        W98216  11.623  35.220   3.536
29988W        W98217  37.799  10.068  14.641
29989W        W98218  36.481   6.952  14.975
29990W        W98219  10.646  42.962  11.901
29991W        W98220  10.635  18.859   1.709
29992W        W98221  17.311  25.546   0.766
29993W        W98222  25.423  36.358  13.731
29994W        W98223  30.879  44.802  13.442
29995W        W98224  19.284  21.305  10.115
29996W        W98225  30.680  43.820  11.634
29997W        W98226  14.813  34.188  13.346
29998W        W98227   6.221  29.932   2.822
29999W        W98228  34.903  23.546  11.088
30000W        W98229  31.378  15.900   0.526
30001W        W98230  40.302  22.845   4.611
30002W        W98231  36.913  42.804   0.407
30003W        W98232  32.433  27.643  10.847
30004W        W98233  42.715  23.035  14.555
30005W        W98234  33.539  19.197   0.864
30006W        W98235  34.114  28.151   1.040
30007W        W98236   3.643   9.742   4.360
30008W        W98237  42.834  10.848   0.733
30009W        W98238  15.552   5.952  13.837
30010W        W98239   4.674  32.378  13.348
30011W        W98240  11.804  15.302   3.134
30012W        W98241   8.208  25.508   0.844
30013W        W98242  24.592  32.123  11.879
30014W        W98243  44.853  15.827   0.418
30015W        W98244  14.802  11.290   0.450
30016W        W98245  25.210  39.139  12.532
30017W        W98246  33.873   0.006  13.505
30018W        W98247  23.093  21.753   0.434
30019W        W98248  42.600   7.351   0.937
30020W        W98249  43.001   7.790   4.733
30021W        W98250  26.502  11.100   3.213
30022W        W98251  24.479   7.624   1.238
30023W        W98252  30.441  26.785   2.781
30024W        W98253  13.159  41.909   2.870
30025W        W98254   4.667  29.717  11.196
30026W        W98255  40.995  16.092  11.425
30027W        W98256  29.028  12.843   4.552
30028W        W98257  25.900  31.873  10.171
30029W        W98258  34.917  28.975   4.668
30030W        W98259  40.800  36.409  13.615
30031W        W98260  19.786  25.308   4.159
30032W        W98261  25.091  37.245   3.221
30033W        W98262   1.416  14.896  13.408
30034W        W98263  29.163  44.061   1.668
30035W        W98264  31.672   4.498  11.517
30036W        W98265   6.158  37.960   0.526
30037W        W98266   5.584  27.430   0.460
30038W        W98267  19.795  26.099  13.352
30039W        W98268   3.685   2.700  11.109
30040W        W98269  34.137   2.886  13.531
30041W        W98270  23.163   1.066  14.179
30042W        W98271  15.256  10.363   0.818
30043W        W98272   5.980  21.669   3.463
30044W        W98273  10.524   4.380  12.159
30045W        W98274  12.301  41.439   3.867
30046W        W98275  27.441  11.761   0.336
30047W        W98276  28.544  32.468   4.984
30048W        W98277  43.401   4.382   1.654
30049W        W98278  19.639  27.880   2.194
30050W        W98279  13.232   4.789  14.832
30051W        W98280  12.800  25.609  13.997
30052W        W98281   5.242  25.925  13.573
30053W        W98282  28.037  21.410  11.312
30054W        W98283  20.990  31.540  10.381
30055W        W98284   9.667  32.822  11.020
30056W        W98285  21.996   2.125  14.352
30057W        W98286  42.767  31.522  12.109
30058W        W98287  25.606  44.225  13.394
30059W        W98288  33.943  44.246  12.458
30060W        W98289  35.584  35.323  12.027
30061W        W98290   2.752  29.714  11.944
30062W        W98291   0.978  42.959   2.356
30063W        W98292  16.710  41.311   0.913
30064W        W98293  14.138  12.151   3.355
30065W        W98294  20.843  40.603  10.636
30066W        W98295  23.492  24.083  10.758
30067W        W98296  23.063  14.255  12.179
30068W        W98297  31.273   9.092   3.237
30069W        W98298  12.238   6.994   2.991
30070W        W98299  39.849   7.408  11.024
30071W        W98300  31.683  31.637  14.384
30072W        W98301  37.975  29.228  14.222
30073W        W98302  26.157  13.617   1.945
30074W        W98303  10.123  44.524   0.491
30075W        W98304  23.020  19.777  11.064
30076W        W98305   1.344  37.395  12.992
30077W        W98306  39.233  18.955  14.562
30078W        W98307  13.892  32.681   1.466
30079W        W98308  41.865  41.826  14.453
30080W        W98309  39.036  29.066   1.410
30081W        W98310  21.196  23.664  14.603
30082W        W98311  10.827  23.028  12.000
30083W        W98312  29.411  37.627   3.639
30084W        W98313  14.892  37.711   3.324
30085W        W98314  26.689  31.448  12.858
30086W        W98315   8.714  17.805   2.062
30087W        W98316  27.660  25.499  11.503
30088W        W98317  32.392  37.584  13.082
30089W        W98318  23.251   0.543  10.674
30090W        W98319   4.503  37.508   3.280
30091W        W98320  41.605  32.615  13.103
30092W        W98321  38.894  31.139   2.260
30093W        W98322  38.907   4.436   1.342
30094W        W98323  39.254  37.513   2.461
30095W        W98324  12.632  29.711   1.837
30096W        W98325  36.609  19.578   4.406
30097W        W98326  15.290  38.554  11.488
30098W        W98327  18.840  39.456  13.380
30099W        W98328   6.702  35.465  12.541
30100W        W98329  26.149   7.853   3.004
30101W        W98330  21.022  38.485   1.438
30102W        W98331  34.071  31.937   1.260
30103W        W98332  10.200   5.281   4.193
30104W        W98333  32.380  27.188  10.623
30105W        W98334   1.397   7.075   4.263
30106W        W98335  34.479   1.123  11.437
30107W        W98336  44.532  35.717  11.614
30108W        W98337  31.797   8.709  10.859
30109W        W98338  24.258  44.356   3.274
30110W        W98339   3.439  10.330   1.702
30111W        W98340  23.473  15.202  11.533
30112W        W98341  43.289  16.756  14.903
30113W        W98342   1.735   3.799   1.133
30114W        W98343  11.869   7.796  13.037
30115W        W98344  39.006  22.159   3.378
30116W        W98345  16.183  17.767   3.957
30117W        W98346   8.427  12.774  11.571
30118W        W98347   7.488   1.737  10.750
30119W        W98348  17.259   1.957  12.075
30120W        W98349  25.306  43.990  12.122
30121W        W98350  36.200  23.342  11.147
30122W        W98351  12.833  35.582  11.769
30123W        W98352   1.844  13.706   4.540
30124W        W98353  33.457   8.559  10.747
30125W        W98354  43.508  16.583  14.440
30126W        W98355   2.162  33.871   1.251
30127W        W98356  36.920   6.863  13.947
30128W        W98357  24.056   8.855   2.366
30129W        W98358  24.434  31.244  12.428
30130W        W98359   6.862  28.585   1.994
30131W        W98360   0.353  42.894   4.751
30132W        W98361  28.763  18.646   1.696
30133W        W98362  31.595  25.131   3.300
30134W        W98363   5.129  33.054   2.638
30135W        W98364  41.281  19.553   4.882
30136W        W98365  30.522  20.185   2.817
30137W        W98366  43.781  18.559  12.999
30138W        W98367  12.580   6.270   4.664
30139W        W98368  37.280  17.223  12.915
30140W        W98369  25.502  31.461  10.979
30141W        W98370   6.611  19.128  14.812
30142W        W98371  31.681  42.325   0.793
30143W        W98372   9.175  13.113  13.614
30144W        W98373   9.897  42.969  14.866
30145W        W98374  31.047  38.683   5.181
30146W        W98375   8.008  16.598  12.034
30147W        W98376   6.767   1.408  12.513
30148W        W98377  34.408  38.521   0.798
30149W        W98378  20.212  22.586   3.502
30150W        W98379  21.759  44.596  14.428
30151W        W98380  20.277  43.496   4.231
30152W        W98381  39.699  23.089   0.477
30153W        W98382   4.171  37.892   1.580
30154W        W98383   6.617  38.992   2.866
30155W        W98384  27.467   2.518  13.749
30156W        W98385  28.354   1.930   0.813
30157W        W98386  12.101  10.016   2.832
30158W        W98387  20.328  40.994  12.082
30159W        W98388  44.993  29.989   1.973
30160W        W98389  19.429  44.793   1.502
30161W        W98390  38.438  21.597   3.919
30162W        W98391   4.767  15.729   4.204
30163W        W98392   3.873  39.800   1.404
30164W        W98393  37.506  35.712  11.269
30165W        W98394  11.905  31.659  13.612
30166W        W98395  36.755  13.690   2.668
30167W        W98396  35.996  38.268  12.599
30168W        W98397   6.901  21.425  10.713
30169W        W98398  20.214  40.754  13.504
30170W        W98399   4.671  27.354   0.903
30171W        W98400  41.860  37.998   1.031
30172W        W98401  28.913  30.402  13.358
30173W        W98402  12.318  38.792  10.448
30174W        W98403  29.378  10.884   3.297
30175W        W98404  25.700  28.222   2.254
30176W        W98405   3.397  20.338  13.025
30177W        W98406  20.093   7.408   5.100
30178W        W98407  25.055  31.214   0.421
30179W        W98408  16.612  36.991  12.558
30180W        W98409  31.668  26.587   2.117
30181W        W98410  37.657   3.398  12.042
30182W        W98411   4.848  30.447   2.368
30183W        W98412  33.620  11.660   0.546
30184W        W98413  16.818  21.411   4.616
30185W        W98414  28.422  19.277   1.371
30186W        W98415  30.988  19.538  13.947
30187W        W98416  15.126  44.584   3.585
30188W        W98417  12.901  30.719  11.908
30189W        W98418  43.033  26.077   0.679
30190W        W98419  28.098  28.398  14.497
30191W        W98420  35.373  22.263   3.228
30192W        W98421  28.563  33.731   4.578
30193W        W98422  18.923  27.102  11.681
30194W        W98423  19.033  41.489  14.873
30195W        W98424  37.649  30.459  13.816
30196W        W98425  40.867  10.856  13.992
30197W        W98426   3.801  12.370   4.662
30198W        W98427  42.526  17.517   1.749
30199W        W98428  35.723  31.438  13.496
30200W        W98429   0.916  37.491   3.193
30201W        W98430  43.987  43.375  14.274
30202W        W98431  38.935   9.672   0.418
30203W        W98432   9.364  13.538  10.543
30204W        W98433  23.256   6.976   4.468
30205W        W98434  35.733  24.011  12.815
30206W        W98435  39.272  28.698  12.029
30207W        W98436   9.329  10.062   3.055
30208W        W98437  26.906   5.384  12.072
30209W        W98438  41.388   9.386  10.699
30210W        W98439  18.720   6.748  12.904
30211W        W98440  21.454  24.412   0.875
30212W        W98441  39.565  44.287   0.947
30213W        W98442  42.497  36.509   4.688
30214W        W98443  23.387  26.086   4.132
30215W        W98444  13.573  39.528  13.883
30216W        W98445  29.654  11.469  14.172
30217W        W98446  16.626  26.951   2.202
30218W        W98447  19.978  36.282  14.287
30219W        W98448  43.280  30.760  11.645
30220W        W98449   2.011  41.108  12.438
30221W        W98450  14.355  35.416   3.608
30222W        W98451  40.091  36.660  14.099
30223W        W98452   0.477   5.698   1.749
30224W        W98453  19.220  28.420  10.911
30225W        W98454   6.694   6.162  14.568
30226W        W98455  37.316  28.020   4.628
30227W        W98456   7.584  39.052   1.259
30228W        W98457  26.529  15.764   3.849
30229W        W98458  43.410   6.380   3.240
30230W        W98459  40.463  15.266  13.015
30231W        W98460  33.078  25.545   2.372
30232W        W98461   7.873  27.586  11.506
30233W        W98462  10.261  10.664   0.630
30234W        W98463  30.219  41.320   2.165
30235W        W98464  13.891  10.748   0.698
30236W        W98465  17.251  28.603  14.461
30237W        W98466  14.836  16.138   3.837
30238W        W98467  22.551  23.982   3.700
30239W        W98468  29.214   6.607  12.238
30240W        W98469  24.601   1.939   0.997
30241W        W98470   6.053  11.151   3.586
30242W        W98471   4.643  32.433   0.560
30243W        W98472   6.879  11.017   3.323
30244W        W98473  32.527  37.975  14.427
30245W        W98474   8.903  38.693   4.561
30246W        W98475   5.703  19.853  11.534
30247W        W98476  29.708   3.832  10.811
30248W        W98477  22.540  13.335   0.919
30249W        W98478  23.525  21.954  12.424
30250W        W98479  25.761  41.349   2.766
30251W        W98480  38.963   6.137  13.483
30252W        W98481   2.433   5.511   2.867
30253W        W98482  35.546  15.816   3.314
30254W        W98483  44.764  32.592  12.886
30255W        W98484   3.477  25.057   3.137
30256W        W98485  28.495  22.496   4.648
30257W        W98486  14.771  29.757   1.290
30258W        W98487   3.418   9.842   0.854
30259W        W98488  34.596  13.467   1.635
30260W        W98489  41.451   4.460  12.434
30261W        W98490   1.344   3.114  11.178
30262W        W98491  41.062  30.522  14.851
30263W        W98492  44.555  15.679  11.200
30264W        W98493   9.889  20.870   3.734
30265W        W98494   3.838  23.302   0.465
30266W        W98495  18.073  40.374   4.181
30267W        W98496  13.021  16.790  11.535
30268W        W98497   5.503  44.404  11.847
30269W        W98498  22.228   7.220  14.299
30270W        W98499  42.471  20.656   1.436
30271W        W98500   0.461   9.636  10.722
30272W        W98501  25.151  10.186  13.396
30273W        W98502  20.775   4.229  10.450
30274W        W98503  37.280  22.663  14.616
30275W        W98504  32.868  11.747  12.985
30276W        W98505   2.659  18.307  14.165
30277W        W98506   2.040  20.635  14.551
30278W        W98507  24.106   6.205  11.985
30279W        W98508  18.576  12.664  12.897
30280W        W98509  41.358  18.003   4.416
30281W        W98510  38.820  36.855  14.417
30282W        W98511  27.910   0.838  13.293
30283W        W98512   8.184  40.383  11.827
30284W        W98513  31.309  23.468   1.056
30285W        W98514  30.199   5.161   4.909
30286W        W98515  23.149  31.006   4.384
30287W        W98516  30.283   6.398   1.429
30288W        W98517  24.712  33.422  14.328
30289W        W98518  12.834   4.419   2.332
30290W        W98519   5.263   2.369   3.241
30291W        W98520   7.760  43.930  11.793
30292W        W98521  28.906  42.841   3.070
30293W        W98522  40.834  17.564   0.441
30294W        W98523  36.455  41.955  11.994
30295W        W98524  36.786  34.851   4.656
30296W        W98525  43.203  30.039   2.454
30297W        W98526   7.174   3.984   1.236
30298W        W98527  24.917   1.421   2.762
30299W        W98528  12.745   8.360   3.195
30300W        W98529  21.063  25.257   2.820
30301W        W98530  27.341  28.174   4.550
30302W        W98531  38.957  38.302  14.862
30303W        W98532   6.111  21.192   0.839
30304W        W98533   3.372  42.473  13.005
30305W        W98534  37.333  13.863  12.255
30306W        W98535  40.099  40.080  10.676
30307W        W98536  12.849   7.402   2.158
30308W        W98537  19.290  42.297  12.131
30309W        W98538  21.527   0.328  12.489
30310W        W98539  35.332  41.969   0.609
30311W        W98540   8.350  43.047  11.905
30312W        W98541  26.241  34.048  11.595
30313W        W98542  33.842  35.033  13.473
30314W        W98543  40.776  23.595  11.925
30315W        W98544   8.563  28.585   1.529
30316W        W98545   7.028  41.205  11.470
30317W        W98546  33.253  21.221   2.803
30318W        W98547  29.097   3.695  13.481
30319W        W98548  30.796   2.009  12.911
30320W        W98549  18.606  35.670  11.556
30321W        W98550   9.262  14.054  10.559
30322W        W98551   8.639  26.670   5.065
30323W        W98552   9.625   7.938  11.523
30324W        W98553  42.267  26.808  14.787
30325W        W98554  38.098  30.498  12.638
30326W        W98555  10.928  34.546   0.837
30327W        W98556  28.822  43.722  12.043
30328W        W98557  12.340  38.572   1.201
30329W        W98558  25.637   6.565   0.422
30330W        W98559  31.241   0.993  11.474
30331W        W98560   1.529  34.244   5.335
30332W        W98561  36.512  25.842  12.979
30333W        W98562  18.981  22.615  13.724
30334W        W98563   1.421  41.996  12.442
30335W        W98564  38.286  41.647   1.280
30336W        W98565   9.613  21.622   3.145
30337W        W98566  44.919  27.307  10.767
30338W        W98567  38.907  38.952  13.900
30339W        W98568  32.496   9.949  10.668
30340W        W98569  17.540  39.794  10.643
30341W        W98570  36.503  44.632  12.861
30342W        W98571  11.400  31.611  14.459
30343W        W98572  34.996   2.937   2.169
30344W        W98573  26.410  35.543  14.409
30345W        W98574  33.390  27.664  12.943
30346W        W98575  23.547  28.563   2.841
30347W        W98576  43.773  43.201  13.325
30348W        W98577  23.844   7.055  10.638
30349W        W98578  26.341  16.775   1.091
30350W        W98579  12.736  39.862  14.888
30351W        W98580  14.677  23.982   0.392
30352W        W98581  41.635  38.423   0.793
30353W        W98582  38.481  34.064  11.570
30354W        W98583  15.192   3.140  13.309
30355W        W98584   9.154   6.850   1.811
30356W        W98585   6.781  32.418   4.151
30357W        W98586  43.275  43.424  14.910
30358W        W98587  40.584   3.523  14.835
30359W        W98588  35.371  13.161   4.701
30360W        W98589  16.911   6.079  13.561
30361W        W98590  22.023  16.320  12.572
30362W        W98591  12.373  24.660  14.778
30363W        W98592  41.910   2.238   3.324
30364W        W98593   2.981   6.262   0.767
30365W        W98594  15.942  34.244   3.116
30366W        W98595  25.979   6.289   3.346
30367W        W98596  42.493  32.538  11.607
30368W        W98597  41.442   4.163  11.487
30369W        W98598  23.058  44.458   2.473
30370W        W98599  43.797  22.485   3.914
30371W        W98600  33.380   1.470   0.060
30372W        W98601   9.871   9.145   4.721
30373W        W98602   2.094  14.074   2.820
30374W        W98603   4.816  31.589  10.152
30375W        W98604  18.007  20.357   5.506
30376W        W98605  21.579  43.742   4.449
30377W        W98606  25.714  38.497  12.034
30378W        W98607   1.629  16.264  10.665
30379W        W98608  44.767  42.950  12.627
30380W        W98609  41.036  24.741  12.346
30381W        W98610  27.690  41.324   4.061
30382W        W98611  29.067   0.444  11.513
30383W        W98612  28.583   5.396  14.891
30384W        W98613  22.944   5.758   1.879
30385W        W98614  44.274  14.310  11.024
30386W        W98615  20.228  31.959  13.892
30387W        W98616  26.079   6.214   2.833
30388W        W98617  34.444   2.739   4.175
30389W        W98618  25.214   6.229   1.863
30390W        W98619  28.592  42.990   4.599
30391W        W98620  20.311   5.454   0.819
30392W        W98621  29.456   5.965  12.996
30393W        W98622  37.040  21.627  13.834
30394W        W98623  11.705  17.203  10.910
30395W        W98624  25.504  25.006   2.870
30396W        W98625  39.097  10.019  10.657
30397W        W98626   7.778  34.690  14.698
30398W        W98627  27.570  21.579  12.471
30399W        W98628  40.257  36.520  11.305
30400W        W98629  33.096  17.379  12.009
30401W        W98630  18.577  41.446  14.684
30402W        W98631  31.476  42.217   2.197
30403W        W98632  16.352  33.862   1.862
30404W        W98633   2.039  11.263  11.400
30405W        W98634  19.156  36.499   1.477
30406W        W98635  44.425  12.717  11.027
30407W        W98636  43.537  20.124   1.741
30408W        W98637  13.825  33.488  14.824
30409W        W98638  14.653   9.308   0.813
30410W        W98639  11.353  18.711   2.405
30411W        W98640   2.229   4.864  12.880
30412W        W98641  41.122  43.812  11.928
30413W        W98642  14.079  32.143   1.904
30414W        W98643  25.957  35.724   9.903
30415W        W98644  38.519  12.663   0.958
30416W        W98645   4.884   2.225  10.686
30417W        W98646  12.741  31.405  12.495
30418W        W98647   9.296  38.416   2.915
30419W        W98648   8.570  20.343   4.215
30420W        W98649  19.528   3.744  14.842
30421W        W98650  37.148   6.066   2.792
30422W        W98651  39.979   6.176   1.703
30423W        W98652  29.807  13.619   4.059
30424W        W98653   3.469  43.253  10.415
30425W        W98654  17.490   0.238   4.455
30426W        W98655  30.065  32.632   3.193
30427W        W98656  30.470  26.643  12.658
30428W        W98657  38.143  28.987  13.772
30429W        W98658  23.835  23.943   3.317
30430W        W98659  27.782  38.673   4.300
30431W        W98660   7.821   1.507  12.440
30432W        W98661  11.196   6.357   2.162
30433W        W98662  42.467  37.953   4.833
30434W        W98663  38.318  32.956  13.054
30435W        W98664  43.082   3.141   1.768
30436W        W98665  24.118  21.963  10.336
30437W        W98666   3.139  43.883  14.941
30438W        W98667   7.068  41.431  14.475
30439W        W98668  26.245  34.297   1.284
30440W        W98669  27.024  29.098  11.588
30441W        W98670  25.165  37.118   2.693
30442W        W98671  25.943  15.276   0.822
30443W        W98672   8.673  31.581  12.963
30444W        W98673  28.483  16.475   0.753
30445W        W98674   9.869  25.631  10.633
30446W        W98675  18.294  13.354   1.792
30447W        W98676  43.356  44.882  13.120
30448W        W98677  38.127  31.958  13.371
30449W        W98678  43.872  44.351   2.643
30450W        W98679  28.275  11.382   4.656
30451W        W98680  41.969   5.272  14.461
30452W        W98681  25.906  40.745   2.055
30453W        W98682  35.336  25.472  10.689
30454W        W98683  44.407  25.610   0.222
30455W        W98684   3.239  28.001   4.057
30456W        W98685  24.011  28.909   1.380
30457W        W98686   5.575  36.475   3.260
30458W        W98687  24.775  36.090   4.669
30459W        W98688  43.446  18.278  13.413
30460W        W98689  40.344  26.602   1.205
30461W        W98690  36.576   6.678  13.401
30462W        W98691  32.475  33.312   3.754
30463W        W98692  10.212  20.310   1.689
30464W        W98693  23.062   4.871  10.837
30465W        W98694   6.855   3.479   1.130
30466W        W98695  24.054  29.137   2.299
30467W        W98696  16.674   2.455   1.950
30468W        W98697  25.397  30.303  11.589
30469W        W98698  39.532  20.312   0.929
30470W        W98699   6.331  19.552   2.831
30471W        W98700  21.757   6.199   2.794
30472W        W98701  43.064  41.443   3.211
30473W        W98702  40.297  23.483  12.603
30474W        W98703  15.289  30.394  13.800
30475W        W98704  26.973   4.994  13.907
30476W        W98705   4.961  24.991   0.898
30477W        W98706  28.096  12.282  12.471
30478W        W98707  14.170  15.807   4.499
30479W        W98708   7.511  29.634   4.155
30480W        W98709  11.569  11.580   3.603
30481W        W98710  41.782  40.373  14.241
30482W        W98711  25.154  24.675   4.231
30483W        W98712   6.105  13.290  13.468
30484W        W98713  32.598  11.108   2.451
30485W        W98714  32.458   6.444  14.451
30486W        W98715   5.140  29.178  11.542
30487W        W98716  34.837  20.660  12.630
30488W        W98717  18.245  26.779  11.219
30489W        W98718  39.775   6.431  12.546
30490W        W98719  27.091   4.730  14.337
30491W        W98720  38.610  27.183  11.191
30492W        W98721  25.079  15.218  14.200
30493W        W98722  43.766  33.897  13.700
30494W        W98723   6.714  44.745  14.451
30495W        W98724  33.943  25.949  12.958
30496W        W98725  12.568  18.321   3.113
30497W        W98726  21.161  21.183  14.097
30498W        W98727  31.444  43.293   0.201
30499W        W98728  23.068   5.225   1.885
30500W        W98729  22.273  12.637  14.403
30501W        W98730   2.827  24.906  13.415
30502W        W98731  24.227  40.281  12.044
30503W        W98732  36.819  18.228  14.076
30504W        W98733   4.965  12.641   0.896
30505W        W98734  26.181  43.386   2.842
30506W        W98735  25.061   6.921  14.462
30507W        W98736  23.242   4.412  14.356
30508W        W98737  21.124  40.496   4.551
30509W        W98738  23.178   7.869   0.034
30510W        W98739  32.970  41.361  12.556
30511W        W98740  42.918  33.001  10.641
30512W        W98741  33.297  26.815   4.149
30513W        W98742  24.945  23.163   0.981
30514W        W98743   9.723   8.739   1.790
30515W        W98744  23.979  37.480   5.162
30516W        W98745  20.214  25.589   0.321
30517W        W98746  30.673  32.618   3.154
30518W        W98747   6.290  18.836  11.835
30519W        W98748  21.040  19.291   3.266
30520W        W98749  14.752   8.243  13.653
30521W        W98750   2.903   7.349   3.312
30522W        W98751   9.600  32.528  14.436
30523W        W98752   5.621  20.056   2.487
30524W        W98753  11.116  44.876  10.405
30525W        W98754  39.467  12.079   0.085
30526W        W98755   2.983  10.821   1.715
30527W        W98756  35.103  43.565  10.759
30528W        W98757  28.612  24.210   4.671
30529W        W98758  38.369  30.681  14.489
30530W        W98759  42.728  12.252  11.193
30531W        W98760   5.387  25.003  12.836
30532W        W98761  42.530  38.325  13.529
30533W        W98762  12.287   0.410   1.748
30534W        W98763  22.106  13.038  11.460
30535W        W98764  24.540  20.610   4.583
30536W        W98765  44.986  15.332   2.223
30537W        W98766  37.598  10.289   0.102
30538W        W98767  16.200  22.476   2.209
30539W        W98768  17.502  21.395  13.970
30540W        W98769  25.025   9.312   4.284
30541W        W98770  23.688  36.408   2.358
30542W        W98771   8.249  35.005   1.806
30543W        W98772  25.210   4.113  12.018
30544W        W98773  23.009  10.632  13.064
30545W        W98774  42.079   5.858  11.088
30546W        W98775  30.597  43.393   1.879
30547W        W98776  23.157  11.285  11.815
30548W        W98777  23.247   7.786   3.939
30549W        W98778   3.103  13.623   0.567
30550W        W98779  11.330   0.434   4.148
30551W        W98780  23.149  18.606   0.750
30552W        W98781  13.998  14.648   2.731
30553W        W98782  42.270  20.294   0.298
30554W        W98783   0.736  44.698  14.085
30555W        W98784  38.145   3.588  12.001
30556W        W98785  25.449  24.034   2.663
30557W        W98786  22.544  34.034  10.634
30558W        W98787  27.145   3.940   1.045
30559W        W98788  28.569  33.459   1.984
30560W        W98789  42.224  11.878  12.422
30561W        W98790  18.119  37.923   3.722
30562W        W98791   8.584  41.467   4.656
30563W        W98792  23.960   7.466   1.241
30564W        W98793  21.910  39.803  13.507
30565W        W98794  40.042  34.383  13.520
30566W        W98795  12.849  24.094  12.573
30567W        W98796  36.572   0.815  12.123
30568W        W98797  40.633   4.704   4.479
30569W        W98798  38.419  14.928   2.160
30570W        W98799  19.271  14.260   2.682
30571W        W98800   9.869  33.421  13.054
30572W        W98801  16.574  26.632  13.623
30573W        W98802  39.142  39.555  11.079
30574W        W98803  12.985   7.013  13.340
30575W        W98804  26.448  43.409   3.315
30576W        W98805  12.201  26.150  14.853
30577W        W98806  19.566  23.588   4.658
30578W        W98807  39.384  39.751   3.039
30579W        W98808  22.042  27.555   3.742
30580W        W98809  19.718  31.373   0.083
30581W        W98810  11.735   8.631   0.874
30582W        W98811  21.559  40.256   4.372
30583W        W98812  20.076   4.967  12.347
30584W        W98813  22.432  23.520   0.081
30585W        W98814  44.358   8.132  12.485
30586W        W98815  17.611  13.665  10.709
30587W        W98816  22.278  29.028  12.603
30588W        W98817  25.467  22.377   2.295
30589W        W98818   0.964  38.156   2.835
30590W        W98819  37.950  25.553  10.735
30591W        W98820  29.895   8.683   1.255
30592W        W98821   2.230  37.089   1.056
30593W        W98822  20.684  32.699  10.776
30594W        W98823  41.119  40.370   4.000
30595W        W98824  32.519  26.878   2.352
30596W        W98825  43.064  23.176   2.771
30597W        W98826  16.362  25.752   1.703
30598W        W98827  35.095  25.966  10.738
30599W        W98828   6.923  32.857  14.936
30600W        W98829  14.668  29.442  10.817
30601W        W98830  11.178  20.160   1.489
30602W        W98831  40.568   0.103  14.276
30603W        W98832   0.186  31.319  14.083
30604W        W98833  10.621   2.912   2.762
30605W        W98834  13.726  33.222   1.348
30606W        W98835  10.409  14.088   4.543
30607W        W98836  14.819  13.849  14.284
30608W        W98837  23.934  10.236  14.267
30609W        W98838  32.169  29.922  11.040
30610W        W98839  34.111   6.806  11.132
30611W        W98840   5.512  17.850   2.622
30612W        W98841  37.865  12.111   1.810
30613W        W98842  40.795  33.004   2.545
30614W        W98843   5.888  22.595   3.342
30615W        W98844  40.049  34.001   3.099
30616W        W98845   6.763   1.486  11.185
30617W        W98846  11.505  28.031  11.939
30618W        W98847  20.577   7.424  11.103
30619W        W98848  22.309  17.034  13.584
30620W        W98849   1.420  12.418   0.957
30621W        W98850  31.075   2.956   3.674
30622W        W98851  22.509  32.755  11.225
30623W        W98852  21.807   6.295  14.287
30624W        W98853  12.873  16.883   2.361
30625W        W98854  27.862  33.764   2.293
30626W        W98855   3.228  30.952   3.831
30627W        W98856  37.126  36.524   4.162
30628W        W98857  15.275  15.879   1.246
30629W        W98858  12.050  13.833   0.929
30630W        W98859   9.433  39.039   0.928
30631W        W98860  18.684  22.533   0.426
30632W        W98861  25.561  39.351   1.168
30633W        W98862  36.977  25.742  14.570
30634W        W98863   1.789  28.265  14.302
30635W        W98864  16.672  18.811  12.963
30636W        W98865   5.649   7.659  14.360
30637W        W98866  10.854  33.313  13.066
30638W        W98867  40.033  41.970   3.934
30639W        W98868  18.176  18.660   1.456
30640W        W98869  41.568  23.882   1.281
30641W        W98870  43.398  21.462   0.868
30642W        W98871   3.747   4.740  14.223
30643W        W98872  34.466  31.034   2.564
30644W        W98873  22.251  39.536  13.864
30645W        W98874  36.611   4.753  12.883
30646W        W98875  43.689  14.742  14.895
30647W        W98876  42.955   3.744  14.986
30648W        W98877  35.686  26.096  14.941
30649W        W98878  21.826   2.929   1.745
30650W        W98879   6.602   1.497   0.755
30651W        W98880  22.584  13.986  12.945
30652W        W98881  10.450  35.964  11.273
30653W        W98882  27.718  14.048   3.863
30654W        W98883  22.108  15.923  13.089
30655W        W98884   5.531   0.039   2.239
30656W        W98885  32.379  43.882  13.042
30657W        W98886  43.202  39.034   2.334
30658W        W98887  21.070  27.526  13.585
30659W        W98888  27.251  33.597  12.026
30660W        W98889   6.362  37.646   1.497
30661W        W98890  25.152   3.036   4.733
30662W        W98891  30.655  40.364   3.769
30663W        W98892  21.233  20.543   0.685
30664W        W98893  44.415  14.027   2.389
30665W        W98894  44.895  35.234   2.275
30666W        W98895  17.991  12.088  13.641
30667W        W98896   6.707  21.696  14.694
30668W        W98897  15.278  40.548  11.560
30669W        W98898   5.439  20.076  11.139
30670W        W98899   7.342  30.920   4.723
30671W        W98900  29.243  44.846  14.951
30672W        W98901  29.008  30.299   4.462
30673W        W98902  18.333  40.150  14.875
30674W        W98903  44.624   9.734   4.141
30675W        W98904  33.856  28.076   2.311
30676W        W98905  10.369  31.942   2.815
30677W        W98906   3.219  29.318   1.799
30678W        W98907  15.550   0.264  13.807
30679W        W98908  13.734  26.457  10.709
30680W        W98909  36.096  30.507  11.864
30681W        W98910  22.599  40.788   4.191
30682W        W98911  26.722   6.686  11.185
30683W        W98912  10.885  16.042   3.548
30684W        W98913  28.946  16.388   4.665
30685W        W98914   8.232  15.251   0.302
30686W        W98915  44.907  17.004  13.725
30687W        W98916  44.106  35.864  12.455
30688W        W98917  17.156   2.512   4.171
30689W        W98918  13.363  20.088  12.154
30690W        W98919  39.985  21.880   3.229
30691W        W98920  20.526  38.985  14.046
30692W        W98921  20.528  28.396  12.527
30693W        W98922   4.251  13.196  13.942
30694W        W98923  27.675  24.003   2.366
30695W        W98924  43.267   4.686  12.108
30696W        W98925  44.675   4.581  11.756
30697W        W98926  21.522  29.412  14.456
30698W        W98927  32.460  19.091   0.025
30699W        W98928  12.746  21.527  14.812
30700W        W98929   6.332  34.898   4.826
30701W        W98930  33.443  25.555   3.738
30702W        W98931  39.750  26.265  12.028
30703W        W98932  33.079  22.198   3.146
30704W        W98933  34.650   5.926  11.739
30705W        W98934  42.262   3.172  13.464
30706W        W98935  18.011  17.635  13.402
30707W        W98936  38.415  35.925   0.136
30708W        W98937  37.066  27.079  12.210
30709W        W98938  42.764  19.255   3.218
30710W        W98939   4.214   2.429  11.490
30711W        W98940  12.041  28.951  10.793
30712W        W98941  39.619  22.831   0.958
30713W        W98942  13.288  10.731  10.717
30714W        W98943  33.550  36.569  14.141
30715W        W98944  14.771  44.705  13.861
30716W        W98945  38.837  23.595  10.499
30717W        W98946   2.459  10.810   0.869
30718W        W98947   6.790  33.928   3.880
30719W        W98948  33.951  30.047   1.033
30720W        W98949   0.156  39.593   4.477
30721W        W98950  31.535   4.400  14.758
30722W        W98951  33.982  31.746  13.045
30723W        W98952   7.434  14.120  14.475
30724W        W98953  21.960  20.485   0.148
30725W        W98954  14.070  37.884  12.529
30726W        W98955  17.537   2.210   4.931
30727W        W98956  15.726  18.146  14.042
30728W        W98957  32.588  28.994   1.397
30729W        W98958   6.774   4.607  13.422
30730W        W98959  37.930  40.034  13.047
30731W        W98960  33.089  29.430  12.082
30732W        W98961  39.199  26.459  12.432
30733W        W98962  15.180  12.871  14.430
30734W        W98963  20.669  11.774  10.393
30735W        W98964  42.156  27.355  11.897
30736W        W98965  19.512  41.916   0.340
30737W        W98966  26.000   3.481   3.807
30738W        W98967  14.792  43.889   2.667
30739W        W98968  26.245  23.183   4.251
30740W        W98969  35.855  24.234  11.263
30741W        W98970  17.567   8.646  13.428
30742W        W98971   3.801   4.154   2.707
30743W        W98972  27.022  15.188   1.163
30744W        W98973  30.989  43.185  10.276
30745W        W98974  40.500  17.724   4.168
30746W        W98975  24.141  27.451   3.197
30747W        W98976   7.099   9.318  13.552
30748W        W98977  44.773  12.288  11.919
30749W        W98978  21.339   6.017  14.038
30750W        W98979  43.210  23.540  10.436
30751W        W98980  38.318  32.206  13.778
30752W        W98981  23.557  30.121  14.011
30753W        W98982  29.858  31.923   1.760
30754W        W98983  26.010  39.053  10.607
30755W        W98984   2.894  26.224   1.446
30756W        W98985  24.633  27.677   3.402
30757W        W98986  16.318  13.629  11.144
30758W        W98987  22.415  28.104  14.127
30759W        W98988  38.429   2.361   3.786
30760W        W98989   6.449  17.269   9.817
30761W        W98990  15.255   9.653   1.401
30762W        W98991  17.123  38.384  13.080
30763W        W98992  39.082  40.584  11.027
30764W        W98993  29.390   1.271  11.086
30765W        W98994   7.739   3.925   0.773
30766W        W98995   3.357  28.593  10.684
30767W        W98996  34.387  23.739  14.367
30768W        W98997   9.938  18.591  13.994
30769W        W98998  32.555   5.009   4.042
30770W        W98999   7.254  40.475  14.370
30771W        W99000  19.255  14.432  12.511
30772W        W99001   2.478   6.885  14.480
30773W        W99002   6.634   0.966  13.528
30774W        W99003  19.132  15.963  12.344
30775W        W99004  22.975  33.157   0.237
30776W        W99005  13.822  37.808   0.751
30777W        W99006  15.280   7.596   1.417
30778W        W99007  13.786  31.707   1.756
30779W        W99008  21.618  33.640   0.372
30780W        W99009  34.654  42.009   1.375
30781W        W99010   8.395   0.779  10.476
30782W        W99011  19.104  32.999  11.185
30783W        W99012  12.605  14.051   2.902
30784W        W99013  37.576   2.165   4.170
30785W        W99014  10.917  38.967  11.167
30786W        W99015   0.429  21.048   0.979
30787W        W99016  28.682  37.511   1.207
30788W        W99017  41.327  27.452   1.272
30789W        W99018  40.788  10.692  14.854
30790W        W99019  29.591  27.034  10.901
30791W        W99020  42.529  10.184  14.253
30792W        W99021  36.655   5.720  13.509
30793W        W99022   6.239  40.463  13.827
30794W        W99023  28.471  32.440  13.084
30795W        W99024  21.253  39.307   1.458
30796W        W99025  22.802  30.482  10.391
30797W        W99026  10.680  16.195  10.310
30798W        W99027  12.611   5.228  13.535
30799W        W99028  37.824  24.562   2.396
30800W        W99029  44.834  39.302  12.940
30801W        W99030   3.128  34.383  11.003
30802W        W99031  28.886   7.691   0.316
30803W        W99032  39.609  22.125  11.427
30804W        W99033   1.255  38.928  12.018
30805W        W99034  31.667  29.106   0.287
30806W        W99035  41.535   3.044   1.320
30807W        W99036  23.179  43.749   1.798
30808W        W99037  18.431  33.694   0.389
30809W        W99038  42.445   2.499   3.043
30810W        W99039  36.454  36.965   4.096
30811W        W99040  30.406   8.763   3.374
30812W        W99041   9.450   9.223   0.516
30813W        W99042  17.754  30.863  12.854
30814W        W99043  28.386  35.146   1.815
30815W        W99044  25.513  31.863   4.479
30816W        W99045  13.287  39.910  13.329
30817W        W99046   0.090  26.632   2.378
30818W        W99047  20.525   1.465   2.367
30819W        W99048   3.988  15.133   1.177
30820W        W99049  36.357  38.695  12.934
30821W        W99050  38.401   9.573  11.201
30822W        W99051  11.093  23.447   0.479
30823W        W99052   7.482  41.332  11.651
30824W        W99053  24.671  25.217  11.156
30825W        W99054  29.973   6.255   0.341
30826W        W99055  44.244  30.095   1.532
30827W        W99056  21.181  42.964   4.729
30828W        W99057   7.393  32.945   2.595
30829W        W99058  33.143  12.112   2.108
30830W        W99059   1.405  24.584   4.589
30831W        W99060  35.522  15.235  13.068
30832W        W99061  38.880  32.608   3.993
30833W        W99062  14.251  32.724   0.218
30834W        W99063  16.832  10.376  13.372
30835W        W99064  35.724  25.491  11.804
30836W        W99065  10.864  43.993  10.517
30837W        W99066  40.773   1.957   1.475
30838W        W99067  35.862  27.932  12.341
30839W        W99068  39.311   3.891   4.321
30840W        W99069  21.844   5.710   0.289
30841W        W99070  27.709   6.381   2.238
30842W        W99071  14.609  34.815  13.004
30843W        W99072  42.486   7.096   3.687
30844W        W99073  33.132  20.114  12.633
30845W        W99074   6.256  10.637  14.722
30846W        W99075  20.055   6.203   2.379
30847W        W99076  42.866  31.545  14.554
30848W        W99077  20.898   6.692  14.390
30849W        W99078  33.401  10.575  12.471
30850W        W99079   1.950  29.247   4.188
30851W        W99080  43.246  36.072  12.057
30852W        W99081  15.840   1.489  12.637
30853W        W99082  23.539   0.873   2.123
30854W        W99083  15.714   2.172  11.164
30855W        W99084  20.239  13.252  11.042
30856W        W99085   1.333  20.104  14.349
30857W        W99086  31.867   6.645   1.414
30858W        W99087  39.444  12.266   1.072
30859W        W99088  37.350   0.042   2.162
30860W        W99089  35.599  14.242  11.173
30861W        W99090  13.762   5.797  14.334
30862W        W99091  34.784  36.004  13.501
30863W        W99092  16.204  44.523  11.968
30864W        W99093   7.636   4.440   2.717
30865W        W99094  42.381  32.055  10.842
30866W        W99095   1.716  35.920   3.583
30867W        W99096  40.592  16.522  13.380
30868W        W99097  41.456  40.592   1.419
30869W        W99098  44.694  20.945  11.343
30870W        W99099  31.001  29.066  14.790
30871W        W99100  30.202  40.780   2.181
30872W        W99101  40.173  15.794   0.701
30873W        W99102  26.888  12.752  13.108
30874W        W99103  12.108   0.906  14.004
30875W        W99104  40.326  11.360  11.545
30876W        W99105  15.275  26.678   4.949
30877W        W99106  17.999  41.449   4.681
30878W        W99107  36.967  30.452  11.229
30879W        W99108  22.334  39.045  12.304
30880W        W99109  21.494  10.950   2.342
30881W        W99110  27.256  22.760  14.416
30882W        W99111  39.812  44.381  12.143
30883W        W99112  16.174  11.494   2.941
30884W        W99113  14.107  42.161   4.761
30885W        W99114   0.415   5.669  11.385
30886W        W99115  26.666  15.751   4.717
30887W        W99116  12.216  32.952   4.666
30888W        W99117  17.415  17.158   0.812
30889W        W99118   5.417  41.326  12.893
30890W        W99119  23.912  19.559   1.635
30891W        W99120  10.853  14.854   4.408
30892W        W99121  35.413  42.129  11.116
30893W        W99122  17.059   7.162  12.793
30894W        W99123   0.974  38.997  12.476
30895W        W99124  30.166   5.349  11.518
30896W        W99125  11.196   4.223   3.325
30897W        W99126  19.751  44.322  14.434
30898W        W99127  42.068   6.239   2.432
30899W        W99128  20.531  43.761  14.954
30900W        W99129   1.288  43.520   2.691
30901W        W99130  44.471  25.552   4.023
30902W        W99131   2.527  33.041   2.329
30903W        W99132  20.193   9.398   3.239
30904W        W99133  28.532  33.788   5.094
30905W        W99134  16.183  19.954  10.926
30906W        W99135  39.283  38.287   2.650
30907W        W99136   2.471  11.397  13.945
30908W        W99137  13.209   6.416   4.193
30909W        W99138  20.481  10.762  10.389
30910W        W99139   8.825   8.711  12.030
30911W        W99140  12.662  19.026  11.467
30912W        W99141  33.591  10.212   4.183
30913W        W99142  25.494  20.453   2.315
30914W        W99143  43.134  19.043  14.262
30915W        W99144  21.162  41.819   4.156
30916W        W99145   1.885  39.967  11.599
30917W        W99146  41.720  11.798  11.466
30918W        W99147  17.291   7.820  13.159
30919W        W99148  33.993  23.132  13.582
30920W        W99149  34.066  33.577  11.721
30921W        W99150  32.027  28.169   2.753
30922W        W99151   6.189   9.568   0.632
30923W        W99152  36.840   2.338   2.689
30924W        W99153  44.836  38.460  14.232
30925W        W99154  15.695  23.081  10.158
30926W        W99155  21.541  43.567  13.085
30927W        W99156   1.255  29.997   2.852
30928W        W99157  15.066   2.614  10.734
30929W        W99158  11.253  22.211   2.007
30930W        W99159   1.143  33.513  11.204
30931W        W99160   4.311  18.248   2.458
30932W        W99161   8.862  33.005   2.793
30933W        W99162   7.919  29.192  13.201
30934W        W99163  27.327   8.909   3.249
30935W        W99164  30.793  31.748  14.255
30936W        W99165  24.427  26.200   0.197
30937W        W99166  13.528  36.931   0.292
30938W        W99167  36.136  21.318   4.058
30939W        W99168  32.936   6.314  10.507
30940W        W99169  25.364  35.154   1.491
30941W        W99170  11.836  20.509   0.906
30942W        W99171   3.892  16.856   3.200
30943W        W99172  40.310  43.627  14.578
30944W        W99173  25.650  10.828  12.131
30945W        W99174  38.577   6.731  13.998
30946W        W99175  42.112  18.069  12.588
30947W        W99176   9.179  32.545   4.648
30948W        W99177  35.864  24.137   3.178
30949W        W99178  13.568  11.737  13.757
30950W        W99179  35.563  12.691   1.221
30951W        W99180  28.822  10.462   2.099
30952W        W99181  18.546  43.787  14.055
30953W        W99182  21.070   7.184  14.469
30954W        W99183  43.867  10.333   0.993
30955W        W99184  13.186  38.940  11.937
30956W        W99185  21.028   1.556   2.237
30957W        W99186  35.967   0.703   0.069
30958W        W99187  32.932  34.135  12.430
30959W        W99188  29.907  17.605  13.896
30960W        W99189   5.641  39.501  12.498
30961W        W99190   3.231  15.626   1.336
30962W        W99191   6.113  40.286  12.094
30963W        W99192  25.161   5.348   1.207
30964W        W99193  14.631  15.826   0.529
30965W        W99194  33.381  44.350   3.332
30966W        W99195  21.700  32.597   0.357
30967W        W99196  27.679  20.122  10.723
30968W        W99197   2.989  20.788  11.670
30969W        W99198  19.744  29.518  13.873
30970W        W99199  28.837  32.840  14.288
30971W        W99200  11.861  40.478  12.623
30972W        W99201  23.676  19.520  13.106
30973W        W99202   5.930  37.010   2.126
30974W        W99203  24.613  30.901  10.619
30975W        W99204  12.188  15.372  14.354
30976W        W99205  21.548  38.558  12.095
30977W        W99206  44.821  43.920  13.075
30978W        W99207  11.967  43.906   0.928
30979W        W99208  23.833   2.315   3.827
30980W        W99209  29.144  34.887  13.302
30981W        W99210  28.889  22.153  11.143
30982W        W99211  34.078  26.480   1.061
30983W        W99212  31.081  41.937   5.129
30984W        W99213  36.307  14.336  14.017
30985W        W99214  20.921  42.815  10.106
30986W        W99215  28.583  15.350  13.973
30987W        W99216  17.657  28.398   3.243
30988W        W99217   3.882  11.103  10.997
30989W        W99218  42.269  24.826  12.142
30990W        W99219  27.172   6.664  14.373
30991W        W99220  17.013  20.638  10.154
30992W        W99221  36.849  36.823  10.634
30993W        W99222  17.742  15.848  12.135
30994W        W99223  37.556  34.946   0.424
30995W        W99224  39.797  33.475  13.579
30996W        W99225  28.195  33.440   3.768
30997W        W99226  12.400  14.778  13.989
30998W        W99227   7.765   7.398   1.808
30999W        W99228  13.264  44.383  13.832
31000W        W99229   5.672  24.207  11.536
31001W        W99230   0.818   4.775  14.288
31002W        W99231  16.526  14.542   2.667
31003W        W99232  14.779  24.699   1.830
31004W        W99233  43.932  28.061  12.396
31005W        W99234   4.503   0.475   0.327
31006W        W99235  41.642  30.328   0.972
31007W        W99236  17.810  19.079  14.929
31008W        W99237  32.958  40.926   1.365
31009W        W99238  26.157  33.034   5.297
31010W        W99239   3.283   7.375  13.844
31011W        W99240   5.980  18.686   3.340
31012W        W99241  40.558   3.169  13.370
31013W        W99242   5.762   7.425   2.803
31014W        W99243  13.077  29.197   0.780
31015W        W99244   0.930  31.565  11.968
31016W        W99245  10.830  43.370   0.359
31017W        W99246  26.630  35.140   1.374
31018W        W99247  26.072   4.731   2.091
31019W        W99248  34.401   6.287  12.038
31020W        W99249  10.222  25.660   1.750
31021W        W99250  28.190  18.910  13.421
31022W        W99251  10.405   6.624   2.671
31023W        W99252  28.201   7.118   0.798
31024W        W99253   0.000  33.849   2.652
31025W        W99254  36.075  34.397   1.304
31026W        W99255  41.911  34.900   3.715
31027W        W99256   6.552  19.941   4.188
31028W        W99257  13.848   9.738  12.779
31029W        W99258   4.889   4.130  11.027
31030W        W99259   4.722  20.292  13.332
31031W        W99260  10.387  16.546   1.885
31032W        W99261  18.241  14.310   3.665
31033W        W99262   2.719  32.484   0.860
31034W        W99263  38.301  24.627  12.499
31035W        W99264  27.511  18.511  10.677
31036W        W99265   5.432  19.725   4.570
31037W        W99266  13.646  34.182   3.202
31038W        W99267   5.019  17.236  12.960
31039W        W99268  36.590   0.358  11.893
31040W        W99269  35.416  44.167   1.783
31041W        W99270  36.567  36.362  13.734
31042W        W99271  36.331  36.461   2.824
31043W        W99272  41.550  23.169   4.792
31044W        W99273  37.571  13.826  10.762
31045W        W99274   0.788  37.993   1.742
31046W        W99275   8.063  37.758  13.801
31047W        W99276   9.736   2.004   4.780
31048W        W99277  33.156  11.367  14.806
31049W        W99278   7.835  30.527  12.898
31050W        W99279  15.120  28.176   1.166
31051W        W99280  39.871  35.957   0.926
31052W        W99281  22.659   3.739  11.499
31053W        W99282  33.513  23.707   3.309
31054W        W99283  29.173   3.039   4.416
31055W        W99284  34.540  29.887   1.393
31056W        W99285  34.374  44.250   1.343
31057W        W99286  17.868  19.229   4.088
31058W        W99287  39.982  19.192   0.775
31059W        W99288  26.536  44.227   0.712
31060W        W99289  35.245  25.478  11.648
31061W        W99290  18.740  40.505  10.723
31062W        W99291  20.848  29.920   2.257
31063W        W99292  21.692  21.436   2.837
31064W        W99293  20.730  24.530   3.701
31065W        W99294  44.974  23.518  12.915
31066W        W99295  40.774   6.950  14.899
31067W        W99296  41.250   4.671   3.397
31068W        W99297  38.458  37.570   4.052
31069W        W99298  14.039  10.835   1.425
31070W        W99299  17.171  14.370  12.260
31071W        W99300  19.241  10.907  11.105
31072W        W99301  12.344  24.689   3.917
31073W        W99302  16.824  39.123   4.708
31074W        W99303  38.287   5.847  10.594
31075W        W99304  40.028  34.568   0.348
31076W        W99305  10.828  13.786  13.534
31077W        W99306  28.403  42.150   1.310
31078W        W99307  39.262  33.080  11.151
31079W        W99308  20.430  35.430   4.342
31080W        W99309  12.499  32.164   5.100
31081W        W99310  43.756  22.553  13.705
31082W        W99311  42.975  31.612  11.643
31083W        W99312   4.546  22.198   0.192
31084W        W99313  38.077   4.484   1.175
31085W        W99314   8.804  39.806  13.856
31086W        W99315  41.477  16.574  14.778
31087W        W99316  25.578   1.352  10.881
31088W        W99317  10.114  11.760   2.907
31089W        W99318  25.085  44.129   0.813
31090W        W99319  42.848   7.977   0.244
31091W        W99320  13.247  33.313   4.156
31092W        W99321  13.648  42.016   4.525
31093W        W99322  38.066   4.474  11.158
31094W        W99323  25.402   7.599   3.223
31095W        W99324   5.752  24.580   4.337
31096W        W99325  41.265   7.101  11.994
31097W        W99326   8.746  36.454   4.510
31098W        W99327   6.871   6.285  14.104
31099W        W99328  25.256  29.273   1.875
31100W        W99329  34.744  25.034   0.274
31101W        W99330   3.619  31.588   3.310
31102W        W99331  39.703   6.748   4.160
31103W        W99332  39.888   4.852   4.350
31104W        W99333   8.930  10.725   1.345
31105W        W99334  35.983   1.728  12.036
31106W        W99335  30.333  30.156   3.219
31107W        W99336  30.507   4.893   1.935
31108W        W99337   9.925  43.823  11.624
31109W        W99338  32.655  37.434  14.444
31110W        W99339  17.685  21.741  14.996
31111W        W99340   0.482  20.962  14.421
31112W        W99341  17.978  11.572  13.018
31113W        W99342  21.310   3.155  14.826
31114W        W99343  40.257  10.259   0.304
31115W        W99344  13.503  17.918   4.162
31116W        W99345  14.711  12.336  13.403
31117W        W99346  14.582  19.341   0.332
31118W        W99347   2.666   1.894   4.370
31119W        W99348  25.738  15.762   2.364
31120W        W99349  10.260  13.947   3.484
31121W        W99350  37.494  37.139  14.667
31122W        W99351  13.124  39.081  12.427
31123W        W99352  22.582   5.139   4.557
31124W        W99353  34.938  39.931  11.292
31125W        W99354   4.722  29.924   0.394
31126W        W99355  14.229  37.893   3.871
31127W        W99356  31.983  29.112  12.497
31128W        W99357  36.415  38.484  13.409
31129W        W99358  36.012  21.188  13.488
31130W        W99359  16.571  22.978  12.065
31131W        W99360  18.517  28.687  13.919
31132W        W99361  29.551  36.361   1.585
31133W        W99362  28.874   1.004  12.925
31134W        W99363  10.150  42.470  10.611
31135W        W99364  20.619   2.957   3.183
31136W        W99365   2.018   3.426   4.523
31137W        W99366  10.064  27.510   2.237
31138W        W99367   9.743  34.654  11.674
31139W        W99368   0.694  15.935  13.327
31140W        W99369  28.946  40.121   1.795
31141W        W99370  33.719  39.952  13.590
31142W        W99371   5.064   4.928   3.866
31143W        W99372  19.179   2.769   2.975
31144W        W99373   8.399  39.496  11.820
31145W        W99374  23.410  13.903   1.967
31146W        W99375  19.312   1.875   3.583
31147W        W99376  18.250  32.651   3.740
31148W        W99377  22.516  36.924  13.125
31149W        W99378  11.759  14.970   3.735
31150W        W99379  16.283  28.548   0.908
31151W        W99380  33.552   0.006  12.478
31152W        W99381  11.444  28.953  13.994
31153W        W99382  31.606  44.259   0.902
31154W        W99383  37.001  12.522  14.770
31155W        W99384  12.620  14.334  10.746
31156W        W99385   8.743  30.033  12.626
31157W        W99386  13.260   5.914  13.846
31158W        W99387  37.565  28.985  12.931
31159W        W99388  41.685   0.719  11.944
31160W        W99389  11.318  23.068  14.299
31161W        W99390  44.699  35.597   4.379
31162W        W99391  33.433  28.178  12.096
31163W        W99392  40.418  30.654  11.142
31164W        W99393   4.933   5.786   3.539
31165W        W99394  28.351  17.635   4.778
31166W        W99395  39.345   0.892   2.102
31167W        W99396   5.908  25.151  14.746
31168W        W99397   7.155  15.849   0.714
31169W        W99398  20.681   3.675   4.571
31170W        W99399   1.356  27.046  11.125
31171W        W99400  12.684   2.128   2.551
31172W        W99401  18.129  30.692   2.703
31173W        W99402  24.065  23.635   0.860
31174W        W99403  26.724  21.937   1.260
31175W        W99404   2.832  42.938  12.508
31176W        W99405  37.106  15.516  13.954
31177W        W99406  32.460  26.894  14.575
31178W        W99407  25.089  10.889  12.978
31179W        W99408  41.794  23.616  14.078
31180W        W99409  34.766  28.228  11.642
31181W        W99410  36.925  36.088  11.187
31182W        W99411  33.435  31.741   4.099
31183W        W99412   2.993  10.819   0.836
31184W        W99413  29.449  10.601  10.858
31185W        W99414  27.163   2.456   2.810
31186W        W99415  24.382   7.447  13.553
31187W        W99416   8.275  40.248   0.714
31188W        W99417  22.064  18.603   1.456
31189W        W99418  39.068  22.175   4.935
31190W        W99419  21.322  26.558   4.510
31191W        W99420   0.109  23.156   3.863
31192W        W99421  25.154  24.316  13.043
31193W        W99422  25.849  33.196   5.682
31194W        W99423   7.525  39.079  14.255
31195W        W99424  40.510  42.551  12.559
31196W        W99425  41.962  25.048   2.651
31197W        W99426  39.114  35.863   1.346
31198W        W99427  30.587   9.349   4.587
31199W        W99428  42.269  43.897   2.282
31200W        W99429   3.227  44.247  11.426
31201W        W99430  36.549   9.682   4.625
31202W        W99431  25.486   7.197   3.573
31203W        W99432  37.883  22.346   3.529
31204W        W99433  11.265  34.358  12.516
31205W        W99434  24.729  26.968  10.815
31206W        W99435  26.973  15.709  14.988
31207W        W99436   3.198  44.230  13.659
31208W        W99437  10.209   0.338  13.418
31209W        W99438  33.659   6.821   3.259
31210W        W99439  15.877  33.627   1.785
31211W        W99440  31.478  43.938   4.887
31212W        W99441  19.804   2.396  14.581
31213W        W99442  43.246   4.221   0.796
31214W        W99443  29.495  36.551  10.596
31215W        W99444  25.882  36.501   2.099
31216W        W99445  13.338  24.004   1.336
31217W        W99446   4.834  15.206  11.671
31218W        W99447   5.718   6.373  10.670
31219W        W99448   3.318   1.549   2.851
31220W        W99449   4.702  10.398  12.016
31221W        W99450  30.912   5.703   2.088
31222W        W99451   2.085  33.830  14.876
31223W        W99452  33.075  32.641  13.351
31224W        W99453   5.624  40.953  10.875
31225W        W99454   9.018  36.200  14.373
31226W        W99455  42.256  26.067   0.317
31227W        W99456  21.931  26.559  10.520
31228W        W99457  16.797   9.842  13.367
31229W        W99458  44.890  15.009   4.825
31230W        W99459  21.429  16.786   4.074
31231W        W99460  25.245  13.864  12.504
31232W        W99461   3.265   6.268   1.922
31233W        W99462  12.377  16.304   3.277
31234W        W99463  13.275  30.181  11.225
31235W        W99464  22.754  16.239  10.961
31236W        W99465  35.276  18.274   2.765
31237W        W99466  17.615  12.904  13.058
31238W        W99467  21.807  40.035  11.225
31239W        W99468  21.523  39.537   3.181
31240W        W99469  32.011  30.476  14.147
31241W        W99470  38.157   0.459   1.373
31242W        W99471  43.837   1.459   1.761
31243W        W99472  34.410  33.102   3.842
31244W        W99473  17.395   5.825   1.668
31245W        W99474   2.782  36.989   4.127
31246W        W99475  35.008   8.268  10.693
31247W        W99476   0.005  30.614   0.815
31248W        W99477  38.319   3.064  10.741
31249W        W99478  41.377  38.676  13.942
31250W        W99479  39.451  20.550   3.237
31251W        W99480   8.000   8.835   2.373
31252W        W99481  19.032  40.410  11.124
31253W        W99482  11.677  36.125  10.081
31254W        W99483  41.288  44.443  12.089
31255W        W99484  22.314   6.678  12.089
31256W        W99485  35.024  14.919  11.518
31257W        W99486  36.318  31.676   4.099
31258W        W99487  32.845  12.241  13.732
31259W        W99488   5.726  10.223  11.672
31260W        W99489  33.749  12.642  14.864
31261W        W99490  25.649  32.691  11.422
31262W        W99491   7.387  33.569  11.407
31263W        W99492  15.854  13.736  13.372
31264W        W99493   6.825  32.107  10.491
31265W        W99494  19.252   3.903   1.583
31266W        W99495  37.443  19.971  11.221
31267W        W99496  30.494  20.276  10.552
31268W        W99497  32.114   8.611  10.477
31269W        W99498  10.830  32.092  10.529
31270W        W99499  10.183  37.353  10.006
31271W        W99500  39.124  26.028   4.093
31272W        W99501   4.754   5.337   3.378
31273W        W99502  44.168   3.748  14.480
31274W        W99503  24.241   8.171   0.646
31275W        W99504  33.417  28.747  10.591
31276W        W99505  44.815   3.319   3.822
31277W        W99506  40.309   2.126  13.877
31278W        W99507  24.617  30.373  10.691
31279W        W99508  11.904  37.563  14.083
31280W        W99509  36.334  35.360  12.424
31281W        W99510  19.621   9.602   0.378
31282W        W99511  33.966  42.615  13.411
31283W        W99512  10.336  14.949   4.413
31284W        W99513  31.391   9.763   2.255
31285W        W99514   8.406  32.533   3.290
31286W        W99515  22.659   6.679  14.944
31287W        W99516  35.676  12.246   3.348
31288W        W99517  33.055  12.088   2.601
31289W        W99518   0.290  44.880  12.613
31290W        W99519  33.103  10.565  11.011
31291W        W99520  40.531  32.632   3.393
31292W        W99521  24.082  29.896   0.067
31293W        W99522  43.075  28.647   0.872
31294W        W99523  36.866  23.805   1.852
31295W        W99524  26.051  16.842   3.810
31296W        W99525  38.438  39.474  14.949
31297W        W99526   9.660  32.973   4.162
31298W        W99527  41.250  33.775  13.498
31299W        W99528  30.943  20.959  10.731
31300W        W99529   3.243  14.559  12.922
31301W        W99530  31.074  28.509  14.475
31302W        W99531  31.101   0.531   3.942
31303W        W99532  25.065  27.457   3.141
31304W        W99533   6.325   1.332   4.130
31305W        W99534  36.382  18.096  12.656
31306W        W99535  18.956  28.992  13.901
31307W        W99536  17.298   9.850  10.416
31308W        W99537  28.916   9.548  11.853
31309W        W99538   9.411  39.355   2.930
31310W        W99539   5.977  10.621   0.719
31311W        W99540   4.726  29.462   3.280
31312W        W99541  15.362   4.949  13.107
31313W        W99542  21.773  23.458   0.904
31314W        W99543  28.691  32.867  10.831
31315W        W99544  23.193  21.806   3.286
31316W        W99545  35.564  17.645  12.874
31317W        W99546  33.485  26.591  12.130
31318W        W99547   4.181  17.294  10.455
31319W        W99548  27.979  28.139  12.284
31320W        W99549  12.614  20.055  14.368
31321W        W99550  17.662  37.115   4.212
31322W        W99551  19.140   3.602   4.111
31323W        W99552  13.303   9.894   0.685
31324W        W99553  40.077   6.836   5.095
31325W        W99554  38.041  39.520   3.140
31326W        W99555  24.414  18.167   0.392
31327W        W99556  16.992  20.461  10.648
31328W        W99557  10.770  40.942   3.230
31329W        W99558  33.586   7.943   1.445
31330W        W99559  40.145   6.741  13.500
31331W        W99560  25.093   1.111  13.448
31332W        W99561  33.281  36.921  14.426
31333W        W99562  38.623  30.161   2.753
31334W        W99563  24.350  21.090   0.792
31335W        W99564  13.377  10.744  12.902
31336W        W99565   6.578  25.581  10.531
31337W        W99566  43.231  26.029   4.622
31338W        W99567  39.462  11.411   1.468
31339W        W99568   9.925   5.297   2.281
31340W        W99569  31.034  24.066  14.575
31341W        W99570  43.973   4.001  11.111
31342W        W99571  11.157   2.309   3.804
31343W        W99572  42.386   4.525  11.559
31344W        W99573  33.095   0.257  12.380
31345W        W99574   1.205  23.191  14.968
31346W        W99575  12.217  11.007   5.119
31347W        W99576  28.078  28.972  10.641
31348W        W99577  44.249  14.885   3.759
31349W        W99578   4.689  19.477   1.452
31350W        W99579  27.884  29.427  11.352
31351W        W99580   3.745  29.961   0.001
31352W        W99581   3.173  22.435   4.952
31353W        W99582  32.694  42.282   0.719
31354W        W99583  43.796  41.046   3.708
31355W        W99584  28.685  35.873   1.363
31356W        W99585  27.109  19.666  12.635
31357W        W99586  25.977  26.932   0.363
31358W        W99587   8.093  28.952  14.229
31359W        W99588  29.318  44.997  13.544
31360W        W99589  12.313   0.065  13.560
31361W        W99590   7.303  33.874  12.359
31362W        W99591  25.594  18.571   1.293
31363W        W99592  42.946  37.053  12.142
31364W        W99593  19.837  13.708  12.035
31365W        W99594  24.611  26.701  14.349
31366W        W99595  41.128  14.286   0.792
31367W        W99596   8.467  41.975   2.705
31368W        W99597  21.104   4.771   0.833
31369W        W99598  43.667  10.717   4.403
31370W        W99599  37.052  30.457   1.196
31371W        W99600  28.684   7.379   2.722
31372W        W99601  26.846  17.612  11.707
31373W        W99602  31.107  26.458  10.961
31374W        W99603  18.842  43.508  13.282
31375W        W99604  42.780   0.732  10.666
31376W        W99605   3.224  11.384  13.778
31377W        W99606  24.910   0.517   4.084
31378W        W99607  42.390  44.026   4.500
31379W        W99608  33.917  13.500  11.967
31380W        W99609   9.266  11.283  14.253
31381W        W99610  38.323   2.390  11.572
31382W        W99611  30.180   4.044  14.822
31383W        W99612  41.519   6.716  11.194
31384W        W99613  36.146  30.536   0.897
31385W        W99614  10.840  29.126   4.050
31386W        W99615  37.613   8.259  12.815
31387W        W99616   0.034  37.915   4.044
31388W        W99617  27.701  29.015  13.279
31389W        W99618  34.599  39.524   1.320
31390W        W99619  38.006  18.377   2.188
31391W        W99620  25.652  37.769  11.681
31392W        W99621   6.871  37.396   2.774
31393W        W99622   6.441  29.339   0.396
31394W        W99623  22.813  33.476  14.863
31395W        W99624  10.200   6.336  13.027
31396W        W99625   4.285  32.140  12.490
31397W        W99626  12.327  26.196  13.865
31398W        W99627  38.552   5.645   0.966
31399W        W99628  22.126  21.598   4.588
31400W        W99629  20.189  33.430   1.656
31401W        W99630  22.681   9.918   3.679
31402W        W99631   0.794  21.463  13.082
31403W        W99632   7.910   3.499   4.837
31404W        W99633   3.645   9.395   1.684
31405W        W99634  37.400  26.625  10.162
31406W        W99635  11.882  26.733  13.625
31407W        W99636  19.766   0.896  13.917
31408W        W99637  25.638   0.930  11.617
31409W        W99638  35.454  28.945   4.717
31410W        W99639  16.362  32.474   1.211
31411W        W99640  23.555  20.567   0.830
31412W        W99641   9.731   5.424   0.910
31413W        W99642   5.198  23.535  12.133
31414W        W99643   5.821   5.702   4.173
31415W        W99644  20.127  11.689  13.125
31416W        W99645  15.488   3.016  11.700
31417W        W99646   1.387  14.760   1.962
31418W        W99647  23.193  42.027  12.907
31419W        W99648   0.744  30.572   1.240
31420W        W99649  10.349  14.869   2.935
31421W        W99650  22.556  17.759  10.843
31422W        W99651  19.494  32.995   0.821
31423W        W99652  15.162  17.458   0.006
31424W        W99653  10.403  13.181   4.096
31425W        W99654  19.259   6.878   1.428
31426W        W99655  23.129  13.094   0.406
31427W        W99656  12.814   1.331   5.097
31428W        W99657  37.875  44.718   3.157
31429W        W99658  11.670  14.876   0.769
31430W        W99659  40.393  38.959   5.172
31431W        W99660  14.875   8.226   0.026
31432W        W99661  26.177   0.628   3.835
31433W        W99662  20.510  13.228   1.416
31434W        W99663  18.267   2.714  10.678
31435W        W99664  42.470  20.888   2.935
31436W        W99665   2.406  13.844  13.012
31437W        W99666   2.741  43.746  12.088
31438W        W99667  42.088  29.607   4.149
31439W        W99668  23.335   7.922  12.624
31440W        W99669   2.715   6.827   3.140
31441W        W99670  36.946  12.115   3.865
31442W        W99671  12.026  13.256  13.418
31443W        W99672  14.101  23.104   2.285
31444W        W99673  19.767  12.631  11.552
31445W        W99674  42.566  34.885   2.166
31446W        W99675  19.448  44.473  14.817
31447W        W99676  13.319   2.994   1.592
31448W        W99677  42.206  18.678   1.258
31449W        W99678   4.627  32.191   1.804
31450W        W99679   9.504  39.490  10.854
31451W        W99680  25.130  13.184  13.071
31452W        W99681  33.024  13.283   3.869
31453W        W99682  33.589   0.701  13.086
31454W        W99683  25.466  37.314  11.788
31455W        W99684  28.661   5.710   3.221
31456W        W99685  11.384   4.693   0.863
31457W        W99686   7.292  20.751   1.753
31458W        W99687  21.137  11.555  10.536
31459W        W99688   3.840  37.839  10.949
31460W        W99689  17.561  19.334  12.932
31461W        W99690   7.369   2.024  12.138
31462W        W99691  23.475  26.126  13.841
31463W        W99692  29.558  34.611   1.974
31464W        W99693   0.042   0.800   3.815
31465W        W99694  31.614  21.690   3.302
31466W        W99695  27.047  20.303   2.324
31467W        W99696   6.453  17.321   3.225
31468W        W99697   6.770   9.458  11.077
31469W        W99698  12.538  19.803  14.829
31470W        W99699  28.086  43.829   4.335
31471W        W99700  37.026  35.314  10.713
31472W        W99701   6.660  24.644  14.842
31473W        W99702  17.654  31.614   0.989
31474W        W99703  25.390  35.907   5.332
31475W        W99704  29.560  15.624  10.730
31476W        W99705  12.742  31.494  13.463
31477W        W99706  30.987   2.753   1.281
31478W        W99707  10.144  32.013   1.670
31479W        W99708   0.516  43.791  11.919
31480W        W99709  15.233  43.017   2.797
31481W        W99710  33.610  40.418   2.940
31482W        W99711  44.357  26.194  14.371
31483W        W99712  20.502  31.951   0.185
31484W        W99713  14.461   1.178  14.032
31485W        W99714   3.167  11.110  14.865
31486W        W99715  27.204   2.799   4.064
31487W        W99716   7.773  32.633  11.261
31488W        W99717  20.178  25.096  12.987
31489W        W99718  26.540  40.886   1.225
31490W        W99719  12.039  19.525  10.219
31491W        W99720  42.885   2.934   2.195
31492W        W99721   9.539  30.073  11.319
31493W        W99722   5.371   0.791  12.971
31494W        W99723  39.380   9.956  13.218
31495W        W99724  38.369  25.206  14.249
31496W        W99725  15.684  12.057  13.187
31497W        W99726   1.385   5.326   2.614
31498W        W99727  41.302  40.860   2.809
31499W        W99728  31.012  26.159   3.869
31500W        W99729  36.951  43.480   3.336
31501W        W99730  18.653   3.611  14.011
31502W        W99731  15.983  19.723   1.167
31503W        W99732  10.383  34.195   3.590
31504W        W99733   6.800  27.460  14.552
31505W        W99734   6.197  28.081  10.683
31506W        W99735  12.680   9.623   1.259
31507W        W99736  42.420  37.552   2.585
31508W        W99737  12.174  11.710   0.364
31509W        W99738  24.130  36.656  13.359
31510W        W99739  31.024  37.091   3.237
31511W        W99740  26.247   4.753  13.425
31512W        W99741  13.269   6.289  11.173
31513W        W99742  33.501  43.348  10.775
31514W        W99743  25.812  32.620   9.782
31515W        W99744  10.724   4.172   2.412
31516W        W99745  27.739   7.638  14.768
31517W        W99746   1.065  38.644   2.715
31518W        W99747  25.520  22.764   3.681
31519W        W99748   4.848  36.630   0.791
31520W        W99749  18.097   3.846   0.857
31521W        W99750   3.964  37.162   4.088
31522W        W99751  10.705  24.610   0.622
31523W        W99752  12.661  36.597   0.360
31524W        W99753  17.001  43.637   3.203
31525W        W99754   2.919  30.692   0.465
31526W        W99755  19.038  28.746  13.457
31527W        W99756  25.142  15.465   5.150
31528W        W99757  23.023   9.808   2.180
31529W        W99758   0.480  36.190  12.441
31530W        W99759   9.807  31.997   0.895
31531W        W99760  19.803  42.923   0.311
31532W        W99761   6.503  19.733  12.942
31533W        W99762  36.658   6.635   4.559
31534W        W99763  28.680  15.700   1.895
31535W        W99764  30.454  36.467   4.513
31536W        W99765   2.317  35.830  11.254
31537W        W99766   9.173  29.783   3.695
31538W        W99767   3.738  32.360   2.656
31539W        W99768  38.927   3.767  10.650
31540W        W99769  34.964   3.678  12.055
31541W        W99770  29.034  10.925   2.009
31542W        W99771  27.597  29.978   1.863
31543W        W99772  19.628  34.488   2.184
31544W        W99773  42.738  39.247   2.327
31545W        W99774  40.289  20.685  13.561
31546W        W99775  14.921  29.102   3.345
31547W        W99776  16.719  12.768  14.576
31548W        W99777   7.314  38.935   0.828
31549W        W99778   4.591  37.992  13.333
31550W        W99779  34.292   1.018  14.285
31551W        W99780   1.222  38.485   3.748
31552W        W99781  25.164  17.660   2.835
31553W        W99782  29.224  11.720  13.980
31554W        W99783  27.203  39.814   3.324
31555W        W99784  19.491  37.882   1.420
31556W        W99785   4.832   2.703  14.295
31557W        W99786  28.146  12.044   5.181
31558W        W99787  27.913   0.302   2.715
31559W        W99788  43.905  33.515  14.044
31560W        W99789  40.842  10.059   3.710
31561W        W99790  16.629  25.274  11.055
31562W        W99791  39.751  32.373  11.453
31563W        W99792  23.092  29.725   1.903
31564W        W99793  40.298  11.533  12.907
31565W        W99794   1.962  42.372   1.666
31566W        W99795  25.078  24.634  14.502
31567W        W99796  25.812  44.274  10.517
31568W        W99797  27.696  34.074  14.465
31569W        W99798  20.296  29.448   1.243
31570W        W99799  22.080  21.888   1.418
31571W        W99800   3.577  12.207   1.894
31572W        W99801  10.015  23.490   2.217
31573W        W99802   9.378   0.457   2.223
31574W        W99803  20.261   2.403   0.770
31575W        W99804  23.668   6.148  12.648
31576W        W99805  36.568  15.514   1.747
31577W        W99806  17.695  33.340   3.502
31578W        W99807  21.606  34.574  13.542
31579W        W99808  37.146  19.070   2.636
31580W        W99809  31.078   7.152  12.661
31581W        W99810  37.420  17.090  10.984
31582W        W99811  34.902  29.514   4.468
31583W        W99812  37.225  42.742  11.723
31584W        W99813  15.378  20.669  11.123
31585W        W99814  38.218  16.185   4.216
31586W        W99815  17.742   2.273  13.426
31587W        W99816  26.022  35.805  12.200
31588W        W99817  30.342  38.988  11.228
31589W        W99818  11.105   6.391   4.732
31590W        W99819  15.287  37.225   1.949
31591W        W99820  25.252  32.795   9.722
31592W        W99821  28.670  38.846   2.797
31593W        W99822   1.767  24.787  14.420
31594W        W99823  16.454  40.098   1.294
31595W        W99824  37.097   2.773   1.764
31596W        W99825   5.920   8.050  14.154
31597W        W99826  16.720   2.713   1.353
31598W        W99827  42.631   0.358   0.877
31599W        W99828  12.917  22.490  13.916
31600W        W99829  27.841  15.293  10.945
31601W        W99830  30.948  40.136   3.406
31602W        W99831  22.938  15.896  12.525
31603W        W99832  14.672  15.933  12.424
31604W        W99833   2.981  11.508  11.607
31605W        W99834  17.134  37.347   5.040
31606W        W99835   6.155  34.919   3.266
31607W        W99836  15.931   2.561   1.939
31608W        W99837  23.999  38.923  13.985
31609W        W99838  30.596  15.549   0.973
31610W        W99839   5.392   0.291   4.376
31611W        W99840  17.170  15.180   1.395
31612W        W99841  29.535  25.929   2.310
31613W        W99842  27.114  30.556  14.332
31614W        W99843  37.700  39.124   1.342
31615W        W99844   5.621  40.545  11.201
31616W        W99845  36.039  37.083   3.813
31617W        W99846  13.312  31.124   4.364
31618W        W99847   5.366   4.237  11.989
31619W        W99848   4.327  16.069   1.121
31620W        W99849   0.387  17.036   4.221
31621W        W99850  18.061  27.452   0.300
31622W        W99851  19.972  42.490   4.537
31623W        W99852  28.355  29.763  10.985
31624W        W99853  42.822  27.791   4.555
31625W        W99854   9.692   9.345  13.965
31626W        W99855  28.252  24.728   2.255
31627W        W99856   3.151  36.940  13.791
31628W        W99857  30.208  15.106   0.224
31629W        W99858  42.178  35.464  12.371
31630W        W99859  22.210  24.276  11.231
31631W        W99860  22.917   4.348  12.037
31632W        W99861  41.885  11.425   2.851
31633W        W99862  10.717  39.461   2.764
31634W        W99863   5.413  23.088   0.840
31635W        W99864  28.440  18.519  13.878
31636W        W99865  28.034  33.923  11.448
31637W        W99866  12.441  14.325   0.359
31638W        W99867  31.828  33.664   4.956
31639W        W99868  44.759  20.598  14.782
31640W        W99869  33.065   9.248  14.227
31641W        W99870  19.266  40.514  10.659
31642W        W99871  26.904  40.464   4.181
31643W        W99872  34.163   7.642  12.340
31644W        W99873  31.461  10.685   0.056
31645W        W99874  31.512  26.031  11.562
31646W        W99875  36.787  30.069  10.337
31647W        W99876  28.808  33.964  10.058
31648W        W99877  23.707  19.996   3.219
31649W        W99878  41.982  10.885  11.020
31650W        W99879   4.307  12.404   0.277
31651W        W99880  14.801   5.000  13.121
31652W        W99881  14.718   6.361   5.343
31653W        W99882   6.490   0.242  11.592
31654W        W99883   8.974  25.039   1.943
31655W        W99884   6.765  14.503   2.186
31656W        W99885  43.176  19.099  14.762
31657W        W99886  10.709  44.385   2.314
31658W        W99887   7.254  26.356  14.601
31659W        W99888   9.587  27.052  12.448
31660W        W99889  12.278   0.345  12.294
31661W        W99890  21.492  39.721   1.712
31662W        W99891  39.036  34.617  12.020
31663W        W99892  40.892  31.868   4.530
31664W        W99893  20.237  41.467  14.386
31665W        W99894  34.755  12.585  11.551
31666W        W99895  20.960   8.937   2.931
31667W        W99896  29.039  22.748   2.775
31668W        W99897   0.656  11.844   1.199
31669W        W99898  19.842   3.396   2.132
31670W        W99899  15.311  15.405   1.482
31671W        W99900  29.949  25.451   3.966
31672W        W99901  32.512  17.600  13.013
31673W        W99902  27.678   6.752  12.659
31674W        W99903   6.438  21.377  13.961
31675W        W99904  38.476   1.568   0.513
31676W        W99905  27.686   0.520   4.439
31677W        W99906  30.579  15.317   4.233
31678W        W99907  36.252  32.460   0.216
31679W        W99908  20.668   3.784  12.575
31680W        W99909  35.948  28.156   4.809
31681W        W99910  22.105  26.152  11.382
31682W        W99911   1.469  31.953  12.536
31683W        W99912  16.277  26.602   3.343
31684W        W99913  17.190  26.039  10.136
31685W        W99914  24.821  10.463  11.553
31686W        W99915  22.727   5.373  14.455
31687W        W99916   1.930  19.618   3.313
31688W        W99917  42.253  40.288  11.147
31689W        W99918   4.295  42.862  11.418
31690W        W99919  30.462  22.043  12.024
31691W        W99920  37.629  23.646  13.553
31692W        W99921  41.523  40.287   4.840
31693W        W99922  29.916  25.883   0.022
31694W        W99923  14.597  23.579   1.400
31695W        W99924  22.244   9.434  12.658
31696W        W99925  16.022  13.714  10.690
31697W        W99926   4.994  27.597   0.098
31698W        W99927  27.219  24.559   1.331
31699W        W99928  42.848  24.153   2.604
31700W        W99929  32.896  19.103  12.675
31701W        W99930  36.375   5.153   1.318
31702W        W99931   4.000  37.635   2.445
31703W        W99932  11.849  38.141   4.039
31704W        W99933  28.915  39.271  12.092
31705W        W99934  13.775   9.225   2.247
31706W        W99935  22.203  30.700   1.274
31707W        W99936  33.181  31.112   0.921
31708W        W99937   4.207  16.122  12.944
31709W        W99938  11.993  10.676  11.199
31710W        W99939   9.637  14.766  12.662
31711W        W99940  31.624   6.307   0.639
31712W        W99941  33.471  25.066  11.197
31713W        W99942   1.419  22.667   0.605
31714W        W99943   9.999  16.230   2.239
31715W        W99944  10.745  30.467   3.179
31716W        W99945  38.973  40.709   4.603
31717W        W99946  37.334  33.003  11.168
31718W        W99947  43.982   1.860   4.580
31719W        W99948  15.587  11.974  11.871
31720W        W99949  25.418   3.329  14.876
31721W        W99950  24.300  25.479  11.631
31722W        W99951   3.271  28.224  14.140
31723W        W99952  42.015  31.515   0.021
31724W        W99953  21.747  25.451   1.722
31725W        W99954  14.359  44.872  11.556
31726W        W99955  21.272   6.126   4.617
31727W        W99956   5.402  12.858   4.548
31728W        W99957  15.672  24.630   2.824
31729W        W99958   3.756  37.108   3.230
31730W        W99959  12.897  18.871  14.750
31731W        W99960  44.746   9.305   3.413
31732W        W99961  24.919  19.707  10.936
31733W        W99962  24.634  20.896  12.298
31734W        W99963  43.260  20.550   0.870
31735W        W99964  44.901  18.486   4.026
31736W        W99965  33.740  28.667   2.717
31737W        W99966   9.349  24.495  12.518
31738W        W99967  33.910  31.626   4.260
31739W        W99968  38.082  43.848   2.071
31740W        W99969  28.581  15.061   3.376
31741W        W99970  10.952  33.544   3.379
31742W        W99971  13.555   8.672  10.981
31743W        W99972  26.754  33.677  14.446
31744W        W99973  28.166   1.554  11.483
31745W        W99974  17.797  34.889   2.825
31746W        W99975  43.387   6.875   3.353
31747W        W99976   3.640  38.401  12.650
31748W        W99977  34.393  22.645   0.452
31749W        W99978   0.587  19.225   3.599
31750W        W99979  43.904  20.216  14.415
31751W        W99980   0.193  21.975   3.163
31752W        W99981  35.424  16.316  10.682
31753W        W99982  28.600  29.549  13.909
31754W        W99983   6.878   1.725  13.890
31755W        W99984   0.572  34.882   3.937
31756W        W99985   8.646  20.456   0.833
31757W        W99986   8.176  32.429   0.240
31758W        W99987  14.670  27.654  10.801
31759W        W99988  27.613  43.381  12.290
31760W        W99989  40.470   5.314  12.401
31761W        W99990  30.564  12.546   1.688
31762W        W99991  33.908  36.587  11.484
31763W        W99992  27.828  22.689   1.987
31764W        W99993   0.234  16.649  13.006
31765W        W99994  14.819  19.534  11.418
31766W        W99995  38.349  14.263  11.002
31767W        W99996  10.085  38.040  14.858
31768W        W99997  42.954   1.418  14.755
31769W        W99998  39.893  30.603   2.224
31770W        W99999  42.885  12.964   4.133
31771W        W    0  36.574   0.808  13.349
31772W        W    1   9.780   2.698   2.837
31773W        W    2  27.260  10.942   2.220
31774W        W    3  19.651   6.132  11.631
31775W        W    4  29.526  34.005   0.242
31776W        W    5  24.183   4.731  13.030
31777W        W    6  14.553  39.520   3.392
31778W        W    7  38.872  19.108  10.807
31779W        W    8   1.116  43.528   1.416
31780W        W    9  37.293   8.547  13.091
31781W        W   10  17.076   7.279   0.995
31782W        W   11  43.376  39.232   3.632
31783W        W   12  20.687  27.316   0.402
31784W        W   13  34.931  41.695   4.697
31785W        W   14  31.893   9.119  14.877
31786W        W   15   3.353   7.206  14.354
31787W        W   16  13.416  11.886   3.185
31788W        W   17  26.044  27.511  14.627
31789W        W   18  40.549  31.114   0.343
31790W        W   19  28.985  41.754   4.596
31791W        W   20  43.809   6.648  13.230
31792W        W   21  30.651  34.872  11.321
31793W        W   22  35.129  23.416  14.859
31794W        W   23   5.847  28.499  11.241
31795W        W   24  10.160  31.196  14.500
31796W        W   25  41.609  18.522  11.695
31797W        W   26  16.794  41.534  11.729
31798W        W   27  10.716   8.213   4.278
31799W        W   28  37.348   0.823   4.580
31800W        W   29  10.817   9.910  13.564
31801W        W   30  21.372  18.074   1.409
31802W        W   31  26.076  27.900  14.275
31803W        W   32  19.993  22.915  12.020
31804W        W   33   1.138  19.998  12.937
31805W        W   34   1.748  37.024  10.618
31806W        W   35  12.831  15.262   0.600
31807W        W   36   6.965  29.239  11.846
31808W        W   37  20.639  15.575  13.372
31809W        W   38  40.902  34.057  14.102
31810W        W   39  13.194  10.352   0.994
31811W        W   40  12.226   3.898  11.148
31812W        W   41   6.506   7.093   3.223
31813W        W   42  34.380  36.389   3.591
31814W        W   43  10.863  39.117   1.588
31815W        W   44  41.911   4.386   4.466
31816W        W   45  12.883  37.928  12.908
31817W        W   46  22.831   7.365  12.792
31818W        W   47   2.685  39.741  14.841
31819W        W   48   5.816  14.822   4.571
31820W        W   49  22.764  39.257  12.986
31821W        W   50  15.188  40.989  11.853
31822W        W   51  43.633   9.556  14.334
31823W        W   52   8.221  40.386  12.825
31824W        W   53   6.355  28.346   1.247
31825W        W   54   1.778  21.243  12.514
31826W        W   55  18.120  41.319  14.542
31827W        W   56  36.738   2.513   0.234
31828W        W   57  36.071  16.164   0.174
31829W        W   58  36.802  24.739  12.858
31830W        W   59  39.813  41.390  12.609
31831W        W   60  44.556  20.824  14.326
31832W        W   61  11.388  22.627   1.678
31833W        W   62  16.120  10.621   0.318
31834W        W   63  35.817  18.055  13.954
31835W        W   64   1.300  19.054  13.321
31836W        W   65  10.735   7.793  11.886
31837W        W   66   9.062   4.158  13.679
31838W        W   67  37.406  28.235  14.809
31839W        W   68   6.365  16.805   3.202
31840W        W   69   2.764  27.294   0.686
31841W        W   70   5.708   5.729  13.430
31842W        W   71   1.112  41.909   2.664
31843W        W   72  15.896  36.958  10.242
31844W        W   73  17.197  30.147   3.725
31845W        W   74  39.134  17.799   3.090
31846W        W   75  27.592  21.344  14.420
31847W        W   76  20.079  37.442  13.068
31848W        W   77  38.485   6.454  14.436
31849W        W   78  15.195  16.543   0.039
31850W        W   79  38.733  35.878   4.508
31851W        W   80  17.108  39.780   2.932
31852W        W   81  33.764  15.733   2.370
31853W        W   82  33.113  28.174   1.377
31854W        W   83  38.993  12.554  11.531
31855W        W   84  11.070  15.181  13.478
31856W        W   85   2.565  34.519   4.532
31857W        W   86  15.327  24.255   2.900
31858W        W   87   8.602  24.210   0.726
31859W        W   88  20.629   7.159   1.670
31860W        W   89  38.501  12.893  14.940
31861W        W   90  20.505   1.508   3.806
31862W        W   91  15.681  34.643   3.365
31863W        W   92  36.643  18.225   3.392
31864W        W   93   8.343  20.363  14.572
31865W        W   94  38.666  41.399   0.806
31866W        W   95  22.579  22.162  12.112
31867W        W   96  42.459   6.212   4.518
31868W        W   97  27.367  37.236   2.586
31869W        W   98   2.814  36.053   1.223
31870W        W   99  32.074  29.571   4.627
31871W        W  100  20.297   1.608  10.050
31872W        W  101  42.822  26.975   1.699
31873W        W  102  31.871   8.251  13.004
31874W        W  103  25.924   6.134   0.374
31875W        W  104  22.893  33.932  10.270
31876W        W  105  17.491  20.265   1.807
31877W        W  106  32.455  22.939  13.413
31878W        W  107  13.531  21.399  13.430
31879W        W  108  24.729   2.980   3.171
31880W        W  109  36.987  15.026  13.858
31881W        W  110  22.749   9.383  10.787
31882W        W  111  24.846  22.665   5.021
31883W        W  112  31.850  17.228   2.422
31884W        W  113  28.325   8.726   0.275
31885W        W  114   5.175  36.610   4.488
31886W        W  115  11.203  37.830  12.398
31887W        W  116  40.922  34.472  12.013
31888W        W  117   9.779  44.471   4.699
31889W        W  118  31.085  29.028   4.521
31890W        W  119  35.058   1.353   3.316
31891W        W  120  10.858  21.611  13.824
31892W        W  121  36.888  29.063  14.472
31893W        W  122  38.441  25.675  10.801
31894W        W  123   3.485  31.718   0.904
31895W        W  124   1.709  23.283  12.536
31896W        W  125  16.601   8.236   1.041
31897W        W  126  29.769  31.022  10.668
31898W        W  127  25.481  34.570  11.580
31899W        W  128  18.800  30.000   4.305
31900W        W  129  36.359   8.841  12.989
31901W        W  130  29.419   1.766   3.263
31902W        W  131  23.666  37.634   0.986
31903W        W  132  25.368  22.225   0.980
31904W        W  133  34.353  22.090   4.415
31905W        W  134  21.525  15.066  13.808
31906W        W  135  28.484   6.263  12.363
31907W        W  136  23.546   1.898   4.811
31908W        W  137  29.566   0.828  13.830
31909W        W  138  24.924  44.782   1.807
31910W        W  139  28.987   1.610  11.110
31911W        W  140   4.777  40.908  14.243
31912W        W  141   3.197   6.685   3.067
31913W        W  142   1.720  22.586   4.166
31914W        W  143  30.956  27.929   0.453
31915W        W  144  28.467  43.530  10.673
31916W        W  145   5.663   1.549  14.855
31917W        W  146  31.993  14.569   0.350
31918W        W  147  23.333  41.574   0.354
31919W        W  148  37.881  34.956   4.500
31920W        W  149  15.739  19.857  11.124
31921W        W  150  37.967  43.611  10.707
31922W        W  151  27.617  33.031   0.465
31923W        W  152  20.810  15.379   3.391
31924W        W  153  21.752   9.852   1.331
31925W        W  154  39.557  19.352   0.401
31926W        W  155  19.883  34.535   0.390
31927W        W  156   8.366  13.074   2.487
31928W        W  157  18.714   5.397   2.973
31929W        W  158  32.896  22.099  14.851
31930W        W  159  29.578   7.569  13.759
31931W        W  160   6.720  27.464   1.330
31932W        W  161  40.327  10.167   2.127
31933W        W  162   1.813   6.530   2.096
31934W        W  163  13.763   0.008  14.909
31935W        W  164  37.938  29.563  12.874
31936W        W  165  25.435  43.257  12.661
31937W        W  166  13.359  11.395  12.152
31938W        W  167  21.674   4.174  11.514
31939W        W  168  41.235  19.038   4.134
31940W        W  169  32.148  24.726   0.938
31941W        W  170  17.135  32.980  11.931
31942W        W  171   2.606  10.727  13.518
31943W        W  172  30.597  19.629   2.943
31944W        W  173  15.137  20.307  14.527
31945W        W  174  15.091  26.188   2.744
31946W        W  175   3.695  44.754   3.767
31947W        W  176   8.936  27.427  12.851
31948W        W  177  23.175  27.134   2.373
31949W        W  178  35.972   6.380  13.413
31950W        W  179  27.150  17.392  13.041
31951W        W  180  23.065  26.776   1.644
31952W        W  181  18.123  35.891   2.259
31953W        W  182  38.944  39.765   4.430
31954W        W  183  39.926  26.064  12.711
31955W        W  184  16.738  28.502  10.603
31956W        W  185  33.583  33.918  14.527
31957W        W  186   2.176  41.017   0.991
31958W        W  187  31.144  44.312   1.353
31959W        W  188   6.393  31.184   2.305
31960W        W  189  13.183  26.857   4.295
31961W        W  190  43.020  32.536  10.854
31962W        W  191  29.625   7.961  11.798
31963W        W  192  36.983   3.908   2.821
31964W        W  193  35.438  34.907   1.299
31965W        W  194  14.239  37.414  10.419
31966W        W  195  19.021  15.073  12.042
31967W        W  196  44.472   8.911   3.188
31968W        W  197  24.494  15.823   1.905
31969W        W  198  18.869  16.676   4.777
31970W        W  199  30.899  14.113   1.326
31971W        W  200  35.545  34.391   1.267
31972W        W  201  10.255  16.630  11.382
31973W        W  202  16.808  34.390  11.473
31974W        W  203  18.628  21.552  11.992
31975W        W  204  41.126   1.405   4.189
31976W        W  205   7.806  11.713   4.915
31977W        W  206  33.330   5.320   2.445
31978W        W  207  30.370  25.065  14.929
31979W        W  208  40.625  13.152   0.058
31980W        W  209  21.052  10.686  13.298
31981W        W  210  10.184   5.064  14.023
31982W        W  211  38.929  17.929   0.352
31983W        W  212  42.735  11.325   0.569
31984W        W  213  30.110  31.674  11.506
31985W        W  214  15.835  41.857  11.712
31986W        W  215  14.169  26.282  13.141
31987W        W  216  30.816  23.322  11.077
31988W        W  217  38.848  44.521   2.722
31989W        W  218  43.029  10.235  14.976
31990W        W  219  19.581   5.788  13.897
31991W        W  220  21.908   2.764   0.493
31992W        W  221   6.866  41.354  13.029
31993W        W  222  11.142  34.839  14.421
31994W        W  223   6.323  10.620  14.202
31995W        W  224  20.983   2.089   2.224
31996W        W  225  18.328   4.292   4.585
31997W        W  226   3.767  11.022  11.941
31998W        W  227  26.014  18.458  13.742
31999W        W  228  35.134  13.130   4.206
32000W        W  229   0.062  11.678  14.450
32001W        W  230  44.763  10.620  14.712
32002W        W  231   9.869  28.426   1.992
32003W        W  232  43.485   7.723  13.986
32004W        W  233  31.897  37.451  10.801
32005W        W  234  10.241  14.823  14.434
32006W        W  235   1.332  12.254   1.472
32007W        W  236  21.234  39.961   4.668
32008W        W  237   9.730  34.346   0.067
32009W        W  238  32.225   9.469   3.063
32010W        W  239  29.234  39.907   4.161
32011W        W  240  39.839  37.057  13.014
32012W        W  241  28.247  36.104  13.879
32013W        W  242  19.984  24.078   3.637
32014W        W  243  33.534  38.388   3.702
32015W        W  244  30.525  42.958   5.213
32016W        W  245  16.839  26.440  11.513
32017W        W  246  25.026  34.465   3.585
32018W        W  247  40.851  33.898   4.620
32019W        W  248  15.753   4.973  10.702
32020W        W  249  18.082  32.375  14.514
32021W        W  250  23.160  41.506   2.204
32022W        W  251   0.336  36.042   1.232
32023W        W  252  15.526  38.278   0.327
32024W        W  253  38.346  25.055   3.715
32025W        W  254  21.706  11.339   1.301
32026W        W  255   2.222   1.284  11.126
32027W        W  256   4.976  24.756   2.677
32028W        W  257  22.163   2.574   3.494
32029W        W  258  34.115   5.284  13.263
32030W        W  259  17.769  28.757   3.606
32031W        W  260  17.783  24.753  14.793
32032W        W  261  16.079   3.246  12.404
32033W        W  262  42.738  44.798   0.202
32034W        W  263  43.836  21.092   4.033
32035W        W  264  44.002  26.472  14.611
32036W        W  265  40.110  16.326  13.846
32037W        W  266   3.652   8.813  13.000
32038W        W  267  17.246  39.650   3.410
32039W        W  268  21.340  19.302   4.136
32040W        W  269  12.315  37.102  12.046
32041W        W  270  32.031  35.016  12.637
32042W        W  271  41.485  15.397   0.473
32043W        W  272   6.183  39.562  11.584
32044W        W  273   1.929  27.494   1.425
32045W        W  274  28.098  32.388  14.102
32046W        W  275  16.981  13.387   4.218
32047W        W  276  20.068  43.006  14.836
32048W        W  277   4.309  28.377   0.993
32049W        W  278  15.771   8.753  13.712
32050W        W  279  42.257  39.926  13.358
32051W        W  280  26.400   8.669   0.199
32052W        W  281  10.296  44.955  13.849
32053W        W  282   0.008   6.566   3.677
32054W        W  283  30.626  34.219   1.858
32055W        W  284  37.896  25.316   3.764
32056W        W  285  29.005  30.453   3.706
32057W        W  286  43.572  38.484  14.949
32058W        W  287  16.785  22.977  14.456
32059W        W  288   5.502   4.847   3.511
32060W        W  289  20.545  13.634   0.302
32061W        W  290  25.017  18.152  11.982
32062W        W  291  30.670  13.181   2.915
32063W        W  292  30.729  31.594  10.758
32064W        W  293  13.701  33.152   3.285
32065W        W  294   7.839  36.472  14.234
32066W        W  295  23.125  20.197  13.636
32067W        W  296  31.688  14.983   5.428
32068W        W  297  26.519  11.612  14.282
32069W        W  298  44.373  17.865  11.564
32070W        W  299  12.169  28.495   0.043
32071W        W  300  20.352  17.638   0.241
32072W        W  301  44.430  43.428   1.819
32073W        W  302   8.413  24.838  12.817
32074W        W  303   2.652  32.171   3.187
32075W        W  304   9.553  44.564  14.240
32076W        W  305  15.451  43.840  14.359
32077W        W  306  18.734   5.201  13.873
32078W        W  307  34.298  17.664   1.646
32079W        W  308  40.269   5.400  13.361
32080W        W  309  31.440  13.937   0.830
32081W        W  310  40.388  32.641   0.215
32082W        W  311  22.564  27.344   1.737
32083W        W  312   5.832  39.226   3.351
32084W        W  313   8.451  36.389  10.618
32085W        W  314  40.439   9.786   2.845
32086W        W  315  14.656  32.571   3.798
32087W        W  316  36.519  18.791  11.137
32088W        W  317  33.149  21.745   3.737
32089W        W  318   9.640  38.414  13.255
32090W        W  319  20.209  20.785  13.333
32091W        W  320  35.945  36.788   1.422
32092W        W  321   7.729   4.371   2.223
32093W        W  322  10.162  21.282   1.870
32094W        W  323  25.497  35.727  14.381
32095W        W  324   5.556  18.624   4.190
32096W        W  325   3.923   9.338  10.506
32097W        W  326  11.856  26.720   2.263
32098W        W  327  27.389  16.567  11.093
32099W        W  328   4.775  17.358  11.059
32100W        W  329   7.331  19.285  13.445
32101W        W  330  20.033  16.742   2.366
32102W        W  331  24.400  42.411  14.835
32103W        W  332  43.406  43.231   4.571
32104W        W  333  22.770   5.835   1.331
32105W        W  334  40.778  36.813   3.815
32106W        W  335  22.660  13.307  14.269
32107W        W  336   4.453   9.728  13.575
32108W        W  337   8.656   0.965   4.830
32109W        W  338  31.211  12.209   1.183
32110W        W  339  17.104   4.193   3.707
32111W        W  340  38.961  28.713  14.902
32112W        W  341   1.907  36.971   0.342
32113W        W  342  18.218  11.876  12.584
32114W        W  343  11.995  10.561  13.374
32115W        W  344   6.916  33.348  11.575
32116W        W  345   8.727  34.847   2.916
32117W        W  346  32.079  36.541  13.519
32118W        W  347  13.332   0.377   0.169
32119W        W  348   2.354   4.247   2.217
32120W        W  349  12.435  13.365   5.236
32121W        W  350   9.878   0.865  13.192
32122W        W  351  27.633  28.653   3.171
32123W        W  352   0.350  24.509  11.623
32124W        W  353  35.693  27.398   3.654
32125W        W  354  24.799  34.896   3.325
32126W        W  355  14.575  24.500   1.286
32127W        W  356   3.948   9.304   3.253
32128W        W  357  16.265  41.767  11.105
32129W        W  358  28.691  30.510   4.130
32130W        W  359  42.133  38.863   1.733
32131W        W  360  31.083  18.231  10.153
32132W        W  361  26.427   6.753  11.600
32133W        W  362  23.242  16.869   3.607
32134W        W  363  19.174  41.966   3.802
32135W        W  364  27.570  32.936  13.549
32136W        W  365   8.664  11.037  11.585
32137W        W  366  34.925  15.077  12.918
32138W        W  367  13.567  32.819   1.070
32139W        W  368  30.652  42.012   4.783
32140W        W  369   3.628  10.627  14.499
32141W        W  370  22.170  24.164  14.428
32142W        W  371  22.640  16.720  11.250
32143W        W  372  26.551  12.802   2.201
32144W        W  373  31.065  41.324   2.127
32145W        W  374  11.352  13.881  13.482
32146W        W  375  26.906  26.058  11.695
32147W        W  376  39.000  31.837  12.537
32148W        W  377   7.485   1.031  12.021
32149W        W  378  25.172  39.521  14.287
32150W        W  379  43.016  25.035  12.034
32151W        W  380   2.316   4.670  14.286
32152W        W  381  31.396   7.307   2.290
32153W        W  382  19.233  10.123   2.826
32154W        W  383  32.630  13.329  11.382
32155W        W  384   8.671  36.591  11.878
32156W        W  385  20.130  33.326   2.630
32157W        W  386  23.027  29.577   3.704
32158W        W  387  41.413   5.143   3.125
32159W        W  388  38.081  31.846   1.877
32160W        W  389  40.870  29.917  10.193
32161W        W  390   1.381  42.266   2.330
32162W        W  391  34.124  13.967  11.869
32163W        W  392  41.008  24.712  13.413
32164W        W  393  40.794  37.549  13.298
32165W        W  394  35.358   3.542   0.920
32166W        W  395  23.327  13.953  11.404
32167W        W  396  17.315  31.337  11.100
32168W        W  397  29.195  21.493  12.870
32169W        W  398  16.274  21.155  12.779
32170W        W  399  31.621   5.681  12.233
32171W        W  400  10.101  36.586   0.991
32172W        W  401  22.490  11.162  11.081
32173W        W  402  27.080  21.814   4.220
32174W        W  403  18.177   6.125   4.138
32175W        W  404  32.364  36.737   3.608
32176W        W  405  38.362  26.867  12.945
32177W        W  406  30.861  32.019  11.014
32178W        W  407   5.204   2.816   4.557
32179W        W  408  37.931   5.500  13.051
32180W        W  409   6.467   2.666  10.595
32181W        W  410  12.283  31.698  12.472
32182W        W  411  11.473   3.202  10.761
32183W        W  412  24.562  30.641  14.743
32184W        W  413   7.302   5.786   3.575
32185W        W  414  12.131   8.081   4.090
32186W        W  415   3.285   6.963  14.858
32187W        W  416  15.985   5.987  13.591
32188W        W  417   3.729   6.371  14.723
32189W        W  418  14.298  18.760  10.361
32190W        W  419  17.155  33.962  12.378
32191W        W  420  23.196  26.785   0.771
32192W        W  421  35.563   3.354   1.379
32193W        W  422  42.580   5.400  12.670
32194W        W  423   7.437  21.127  14.857
32195W        W  424  31.595  13.170  12.964
32196W        W  425   5.250  12.225   4.105
32197W        W  426   8.222  33.544   2.391
32198W        W  427   2.215   5.245  10.915
32199W        W  428  10.376  23.594  13.109
32200W        W  429  25.091  37.555   5.060
32201W        W  430  37.018  21.111  11.594
32202W        W  431  15.343  23.449  11.680
32203W        W  432  36.032   0.116   2.188
32204W        W  433  34.813  42.359  12.100
32205W        W  434   6.228  13.332   2.759
32206W        W  435  19.784   4.902   1.265
32207W        W  436  25.100   9.276  11.246
32208W        W  437  17.187  35.825  14.458
32209W        W  438  39.587  25.340   3.430
32210W        W  439  21.600  37.337   1.400
32211W        W  440  22.030   4.360   1.868
32212W        W  441  10.967  35.378   1.776
32213W        W  442   6.591  28.695   3.817
32214W        W  443  10.593  23.761   3.280
32215W        W  444  22.600  35.907   2.670
32216W        W  445  40.801  37.335  12.386
32217W        W  446   2.051  24.268   3.310
32218W        W  447  39.337   0.920  14.713
32219W        W  448  35.351  13.131   0.360
32220W        W  449  33.399  21.303   3.687
32221W        W  450   6.245  18.697  11.340
32222W        W  451  44.831  41.600   2.874
32223W        W  452  24.107  19.641   3.317
32224W        W  453  29.331   9.675   3.273
32225W        W  454  31.223  17.400   0.929
32226W        W  455  25.705  26.672  11.697
32227W        W  456  32.888  32.499  13.837
32228W        W  457  20.543   8.587  13.092
32229W        W  458   1.694   9.793  12.462
32230W        W  459  39.970  33.503  14.901
32231W        W  460  20.699  17.920   2.702
32232W        W  461  22.637  24.528  14.074
32233W        W  462  21.647   7.267   2.680
32234W        W  463  26.929  44.763  11.010
32235W        W  464  29.271  20.524  12.444
32236W        W  465   4.488  23.785   1.384
32237W        W  466  37.075  10.757  10.191
32238W        W  467   1.400  23.660   4.552
32239W        W  468   3.546  20.655  14.275
32240W        W  469   8.396  26.373   4.244
32241W        W  470  19.521  24.988   3.771
32242W        W  471  18.297   0.424  14.318
32243W        W  472   4.696  15.619  11.965
32244W        W  473  31.491  44.649   2.656
32245W        W  474  16.927   0.335   4.533
32246W        W  475  12.310  40.167  14.839
32247W        W  476  11.082   9.137   4.938
32248W        W  477  16.855  11.675  11.170
32249W        W  478  43.466   5.836  12.904
32250W        W  479  18.552  25.027   1.504
32251W        W  480  19.101  44.925   4.323
32252W        W  481  42.187  41.893   2.998
32253W        W  482  37.440  26.571  13.116
32254W        W  483  38.245  19.992   4.669
32255W        W  484  36.235  21.459  12.056
32256W        W  485  34.087   7.222   0.352
32257W        W  486  27.618   0.541   1.867
32258W        W  487  43.043   7.767   5.254
32259W        W  488  42.487  18.263   1.196
32260W        W  489   5.468  14.175  11.194
32261W        W  490   8.987  29.551  10.930
32262W        W  491   9.718  41.366  13.069
32263W        W  492  12.271  31.972   4.659
32264W        W  493  27.573  23.573  14.382
32265W        W  494  32.465  44.567   0.281
32266W        W  495  16.347  33.387   2.693
32267W        W  496   5.452   0.270   1.462
32268W        W  497  16.533  13.311  12.374
32269W        W  498  15.675  19.806   0.750
32270W        W  499  11.662  39.315  12.455
32271W        W  500  23.560  14.709  11.629
32272W        W  501   7.750  19.773   3.544
32273W        W  502  40.846  36.428   1.925
32274W        W  503  34.364  32.379   2.273
32275W        W  504  39.309  15.968  13.071
32276W        W  505  43.845  24.230  13.974
32277W        W  506  44.906  29.643   4.548
32278W        W  507   2.675  40.522  12.457
32279W        W  508   6.128  38.988  10.163
32280W        W  509  44.276  12.358   1.367
32281W        W  510  12.594  20.565  14.318
32282W        W  511   3.079  28.915   2.357
32283W        W  512  27.700  35.054  12.996
32284W        W  513  23.226  30.016  12.977
32285W        W  514  40.800  19.598  14.924
32286W        W  515  27.940   2.921  14.785
32287W        W  516  36.861   4.288   0.252
32288W        W  517  13.152  35.604   3.227
32289W        W  518   3.237  24.131   2.662
32290W        W  519   0.252  39.836  10.917
32291W        W  520  12.320  39.570   1.172
32292W        W  521  14.696   8.637  11.401
32293W        W  522  36.398  14.709   4.569
32294W        W  523  24.878  23.510  12.264
32295W        W  524  23.658  26.694   2.926
32296W        W  525  44.750  41.424  10.649
32297W        W  526  38.842  23.677   2.244
32298W        W  527  37.806  21.492  14.362
32299W        W  528  28.612  13.256   5.003
32300W        W  529  30.091  29.044   0.987
32301W        W  530  42.436  41.970  11.735
32302W        W  531  27.481  44.265  14.209
32303W        W  532  39.366  43.374   2.530
32304W        W  533  30.946   7.992   1.296
32305W        W  534   6.241  40.940   1.538
32306W        W  535   2.338  22.003  12.380
32307W        W  536  17.740  17.359  13.039
32308W        W  537  44.182  18.962  14.388
32309W        W  538  26.601  41.352   0.950
32310W        W  539  25.865   6.461  11.168
32311W        W  540  14.029   4.454  11.938
32312W        W  541  41.973  12.724  11.468
32313W        W  542  21.228  32.109  13.971
32314W        W  543   8.204   2.912   3.208
32315W        W  544  20.111  44.000  14.632
32316W        W  545   1.394  44.185  14.695
32317W        W  546  25.210  11.699   1.159
32318W        W  547   6.145   7.434  14.946
32319W        W  548  15.783  38.491   3.283
32320W        W  549   4.863  12.799  12.993
32321W        W  550  33.313  37.641   0.023
32322W        W  551   3.149  16.581   3.792
32323W        W  552  14.339  11.675  11.679
32324W        W  553  35.473  13.578  10.612
32325W        W  554   2.198  13.945  13.856
32326W        W  555  20.298  36.865   3.169
32327W        W  556  26.597  19.229   3.903
32328W        W  557  41.116  18.530   4.273
32329W        W  558   6.351  12.796   1.437
32330W        W  559  30.552  39.577  13.878
32331W        W  560   4.044  37.899   2.884
32332W        W  561   3.388  43.280  12.640
32333W        W  562  35.086  36.491  13.475
32334W        W  563  33.837  34.547   4.844
32335W        W  564   3.392  41.985  11.705
32336W        W  565  26.689  14.884   5.049
32337W        W  566  32.976   8.430  14.928
32338W        W  567  23.632   5.242   2.173
32339W        W  568  12.565  32.598   4.391
32340W        W  569  11.139  23.091  13.094
32341W        W  570  12.818   6.189  11.903
32342W        W  571  35.921  25.529   0.979
32343W        W  572  30.968  12.206   1.675
32344W        W  573  11.654   2.782   4.617
32345W        W  574  22.463   4.136  11.834
32346W        W  575  29.173   5.757   3.221
32347W        W  576  26.088   5.313   4.111
32348W        W  577   8.780  22.700   0.776
32349W        W  578  44.654  36.071  11.021
32350W        W  579  13.158  41.730   4.635
32351W        W  580  11.100  21.253  12.129
32352W        W  581   6.409  29.543   1.776
32353W        W  582   0.963  18.520  13.946
32354W        W  583  13.652  19.696   4.048
32355W        W  584  40.785  42.124   1.290
32356W        W  585  40.377  23.624  11.606
32357W        W  586  32.326  29.356   0.786
32358W        W  587  17.696  18.113  12.546
32359W        W  588  34.006  28.277   1.863
32360W        W  589  26.982   5.178  12.538
32361W        W  590  17.164  10.166   5.008
32362W        W  591  23.091  13.000   2.286
32363W        W  592  37.067   7.341  13.943
32364W        W  593  26.150  34.235   0.381
32365W        W  594  14.257  41.958   1.517
32366W        W  595  11.860  25.486  12.308
32367W        W  596  18.007  16.062  14.409
32368W        W  597  37.828   8.893   2.742
32369W        W  598  23.364  31.608  12.112
32370W        W  599  18.729  21.277  13.885
32371W        W  600  26.929  34.588  14.914
32372W        W  601  40.857   8.998  11.624
32373W        W  602   1.476  26.929  11.639
32374W        W  603  25.400   0.230   4.100
32375W        W  604   1.875  36.765  13.325
32376W        W  605  17.523   2.362  11.014
32377W        W  606  44.814   3.000  13.280
32378W        W  607   1.667  21.539  11.161
32379W        W  608  33.948  38.913   4.278
32380W        W  609   1.793  26.559   0.410
32381W        W  610   7.630  34.059   4.198
32382W        W  611  17.020   1.818  12.959
32383W        W  612   7.758  37.799  11.137
32384W        W  613  18.831   6.963   1.711
32385W        W  614  38.789  33.157   0.592
32386W        W  615  15.585  43.488   4.635
32387W        W  616  38.556   8.279  13.751
32388W        W  617  12.577  32.512   3.888
32389W        W  618  41.287  18.827  14.390
32390W        W  619   5.637   6.229  11.666
32391W        W  620   4.541   4.887   3.229
32392W        W  621   0.345  37.295  14.785
32393W        W  622  35.264   2.911   1.336
32394W        W  623  21.225   1.488   4.138
32395W        W  624  44.932   2.879   3.558
32396W        W  625  36.558  37.515  11.070
32397W        W  626  30.160   7.158  11.681
32398W        W  627  33.858  14.378  14.306
32399W        W  628  19.983  20.188   3.299
32400W        W  629   3.762  17.790   4.344
32401W        W  630  13.830  15.737   1.466
32402W        W  631  12.375  15.140   4.547
32403W        W  632  27.186   5.838  11.566
32404W        W  633  12.471  33.843  13.107
32405W        W  634   4.331   3.797   3.716
32406W        W  635   9.595   2.308   4.066
32407W        W  636  14.355  10.713  10.830
32408W        W  637  30.427   1.780  13.180
32409W        W  638  33.309  33.506  11.454
32410W        W  639  35.037  14.696   3.216
32411W        W  640   7.675  19.706   1.976
32412W        W  641  12.020  29.150   1.360
32413W        W  642  15.201  41.261  14.694
32414W        W  643   1.511  27.196   1.302
32415W        W  644  31.636  35.191   3.828
32416W        W  645  13.880  31.643   2.725
32417W        W  646   5.038  44.051  14.454
32418W        W  647   2.522  38.037   0.428
32419W        W  648  39.916   1.054  11.161
32420W        W  649  22.019  24.149  12.959
32421W        W  650  21.302   2.932   1.866
32422W        W  651   1.218  22.688  11.929
32423W        W  652   4.431  38.328   0.887
32424W        W  653   0.544  34.023   1.163
32425W        W  654  17.106  14.739   4.904
32426W        W  655  10.432  22.785   1.751
32427W        W  656  11.351  11.363  11.879
32428W        W  657  38.883  14.825   3.569
32429W        W  658  22.792  11.955  13.915
32430W        W  659  27.532  44.438   0.518
32431W        W  660  27.864  29.559   3.126
32432W        W  661  28.439  31.778  10.857
32433W        W  662  36.537  15.319   4.233
32434W        W  663  37.494  26.564   1.489
32435W        W  664  11.888  22.044   4.213
32436W        W  665  28.592   0.597   3.862
32437W        W  666   7.680  41.015  10.758
32438W        W  667   8.324   0.420  13.976
32439W        W  668   0.861  24.648  14.404
32440W        W  669   1.394   7.846  10.678
32441W        W  670  24.542  25.006  11.588
32442W        W  671   2.325   3.947   4.100
32443W        W  672   8.210  34.802  11.847
32444W        W  673  18.297  10.338  10.489
32445W        W  674  40.802  11.204   0.933
32446W        W  675   2.460   4.704  11.535
32447W        W  676  23.119  40.994   4.358
32448W        W  677  42.139  13.188  12.998
32449W        W  678   1.922  41.516  14.888
32450W        W  679  20.319  25.033   1.883
32451W        W  680  17.288  24.912  14.860
32452W        W  681  33.374   7.829   5.057
32453W        W  682   5.442  12.283  14.563
32454W        W  683   8.213  18.544  10.865
32455W        W  684  36.000  32.033  10.984
32456W        W  685  35.050  39.305  12.556
32457W        W  686  28.402  19.682   0.931
32458W        W  687  16.561  44.758   3.331
32459W        W  688  12.747  10.563  10.737
32460W        W  689   1.545  38.307   3.309
32461W        W  690  17.157   7.999   4.073
32462W        W  691  22.084   5.704   1.812
32463W        W  692  19.425   6.311  13.780
32464W        W  693  44.733  30.518  14.118
32465W        W  694  17.488  10.070   2.376
32466W        W  695  24.098  31.649   0.443
32467W        W  696   9.316   6.408  12.112
32468W        W  697   0.395   4.647   4.907
32469W        W  698   4.310  36.214   2.549
32470W        W  699  20.737   6.718   3.989
32471W        W  700  18.689  22.973   1.862
32472W        W  701  44.828  29.228  14.000
32473W        W  702  10.906  14.163   0.827
32474W        W  703  20.567  14.814   0.261
32475W        W  704  28.917  18.028   3.663
32476W        W  705  10.910  14.349  14.046
32477W        W  706  22.033  39.087   4.906
32478W        W  707  32.977  37.779   1.786
32479W        W  708  31.718  20.960  13.053
32480W        W  709  25.870  15.792  13.961
32481W        W  710  33.015  13.073   2.237
32482W        W  711  43.218  24.016   0.435
32483W        W  712  24.054  29.570   0.877
32484W        W  713  13.357  39.818   3.669
32485W        W  714  28.279  38.009  13.455
32486W        W  715  34.624  20.218  10.985
32487W        W  716  16.799  22.588   5.514
32488W        W  717  16.056   0.394  12.498
32489W        W  718  14.403   3.220  11.684
32490W        W  719   8.874  39.398   1.500
32491W        W  720  42.529  28.872   4.531
32492W        W  721  30.582   4.450  14.983
32493W        W  722   9.478   0.386  12.666
32494W        W  723  30.374  10.169  11.119
32495W        W  724  31.661   0.809  10.641
32496W        W  725  31.921  27.050  11.413
32497W        W  726  13.176   0.782  14.841
32498W        W  727  29.541   0.794  10.917
32499W        W  728  44.248  17.697   3.958
32500W        W  729  37.546  37.568  10.700
32501W        W  730   8.691  12.830  13.689
32502W        W  731  43.119  39.286  10.999
32503W        W  732  17.578  30.063   1.932
32504W        W  733  39.325  35.356  14.786
32505W        W  734  33.871  41.803   0.127
32506W        W  735  40.593  16.696  12.032
32507W        W  736  23.949   7.241  14.957
32508W        W  737  32.532  26.186  10.533
32509W        W  738  23.072  36.385   1.842
32510W        W  739  29.832  39.815   2.049
32511W        W  740  12.137  16.043  13.453
32512W        W  741   5.430  16.692  10.672
32513W        W  742  22.446  29.041   2.300
32514W        W  743  26.268  11.200   2.361
32515W        W  744  29.078   0.417   1.716
32516W        W  745   1.885  30.522   3.626
32517W        W  746  25.071  31.995  11.694
32518W        W  747   3.095  32.165  10.234
32519W        W  748  30.549   0.825  13.888
32520W        W  749  22.182  19.530   2.395
32521W        W  750  33.706  22.237  11.746
32522W        W  751  30.361  15.542  14.510
32523W        W  752  44.486   1.409  14.089
32524W        W  753  42.078  27.840  11.213
32525W        W  754  41.947  15.849  13.242
32526W        W  755  43.250  31.567  11.192
32527W        W  756  22.708  32.618  14.504
32528W        W  757  21.723  19.488   2.648
32529W        W  758   5.979  36.848   1.274
32530W        W  759   6.345  40.107   0.938
32531W        W  760  27.717  11.783  14.837
32532W        W  761  37.505  33.199  13.820
32533W        W  762  29.627   8.563  13.518
32534W        W  763  31.100  18.119  13.947
32535W        W  764  18.756  17.307  11.781
32536W        W  765  34.884  14.126  14.793
32537W        W  766  36.858   1.379   2.855
32538W        W  767  24.882   4.327   1.825
32539W        W  768  41.062   9.299  14.039
32540W        W  769  38.271  23.392  11.667
32541W        W  770  20.072  29.389   0.222
32542W        W  771   6.946   4.015  13.959
32543W        W  772   0.431  23.750  12.992
32544W        W  773  42.074  32.169   9.787
32545W        W  774  32.485  20.560   1.288
32546W        W  775  18.711   9.094  14.487
32547W        W  776  25.420  33.209  11.546
32548W        W  777  14.398  20.576   2.693
32549W        W  778  16.921  33.509   3.998
32550W        W  779  24.767  43.823  14.240
32551W        W  780   0.219  15.763  13.455
32552W        W  781  24.212  21.397  13.060
32553W        W  782  19.454  20.642   0.434
32554W        W  783  35.059  41.171  12.360
32555W        W  784  29.650  21.321  10.330
32556W        W  785  10.373  37.049   4.412
32557W        W  786  35.735   4.933   3.361
32558W        W  787  18.924   7.270   1.258
32559W        W  788  35.033   7.375  10.288
32560W        W  789  16.050   6.002  11.545
32561W        W  790  11.925  26.635   3.661
32562W        W  791   8.731   1.854   3.147
32563W        W  792  11.551  10.370   1.459
32564W        W  793   2.993  30.656  11.624
32565W        W  794  12.214  29.246  11.161
32566W        W  795   6.240  43.814  12.163
32567W        W  796  23.696  33.890   4.079
32568W        W  797  41.081   5.730   1.221
32569W        W  798   3.928  26.857  13.943
32570W        W  799  41.695  44.578  11.550
32571W        W  800  14.269  18.764  14.299
32572W        W  801  26.662   1.397   4.569
32573W        W  802  11.381   8.546  11.955
32574W        W  803  16.670  38.877   4.281
32575W        W  804  36.739  11.214  12.393
32576W        W  805  18.350  44.744   0.466
32577W        W  806  37.312  10.036   2.020
32578W        W  807  13.316  21.188   3.199
32579W        W  808  11.456  32.392  14.954
32580W        W  809  14.315   9.751  13.078
32581W        W  810  26.494  41.788  13.378
32582W        W  811  12.256  10.106   5.284
32583W        W  812  26.226  32.017   1.840
32584W        W  813   4.093   0.269  11.227
32585W        W  814  23.139  10.590   2.881
32586W        W  815   2.060  24.999  14.779
32587W        W  816   6.417   2.700   0.032
32588W        W  817   1.752  13.240   0.638
32589W        W  818  27.454  35.401  14.723
32590W        W  819  20.402  35.311   2.166
32591W        W  820  41.060   3.327  14.872
32592W        W  821   3.195  10.617   4.808
32593W        W  822  11.869  25.879  13.924
32594W        W  823  15.715  25.320   0.285
32595W        W  824  13.701  40.027  12.013
32596W        W  825  25.660  32.850   5.330
32597W        W  826  10.174  44.371  14.049
32598W        W  827  28.590  31.126  13.019
32599W        W  828  22.932  25.445   3.835
32600W        W  829  19.758   2.088   4.156
32601W        W  830  17.068  10.969   1.666
32602W        W  831   3.301  39.118   3.991
32603W        W  832  13.352  26.274   0.440
32604W        W  833  29.813  20.987  12.048
32605W        W  834  26.380  27.221  14.849
32606W        W  835  27.402  11.419  12.961
32607W        W  836  42.495  18.536  14.899
32608W        W  837   6.617  12.572   2.446
32609W        W  838   7.819  32.107  13.801
32610W        W  839  35.982   2.923   2.700
32611W        W  840  20.457   0.957   2.406
32612W        W  841  23.659  32.533  10.589
32613W        W  842  26.756  38.083   3.898
32614W        W  843  22.269  41.459  11.440
32615W        W  844  44.851  25.847  12.486
32616W        W  845  25.703  16.698  11.583
32617W        W  846   6.909  34.843  11.696
32618W        W  847  13.711   2.633  12.071
32619W        W  848  18.599   7.450  13.434
32620W        W  849  37.847  17.638   3.606
32621W        W  850   4.494   8.316   4.198
32622W        W  851  23.224  17.783   1.375
32623W        W  852  11.238  40.240   2.968
32624W        W  853  42.727  20.825  13.043
32625W        W  854   5.029   0.200   2.285
32626W        W  855  18.089  24.091   3.819
32627W        W  856  18.725  36.550  14.479
32628W        W  857  17.156  18.125  14.364
32629W        W  858  14.530  43.038   4.119
32630W        W  859   3.695   7.089  14.000
32631W        W  860  16.296  36.288   2.186
32632W        W  861  12.609  26.971   0.226
32633W        W  862  29.251  32.364  11.905
32634W        W  863   9.230   2.876   3.191
32635W        W  864  36.428  24.994   0.427
32636W        W  865  24.127  31.415  11.420
32637W        W  866  22.013  13.710   4.151
32638W        W  867   7.363  20.513   0.427
32639W        W  868  42.906  11.626   3.574
32640W        W  869  32.157  18.640  14.286
32641W        W  870  15.476  42.895  12.475
32642W        W  871  20.055  19.204  14.307
32643W        W  872  19.249  43.613  12.991
32644W        W  873  27.716   8.353   1.437
32645W        W  874  29.705  26.108  10.392
32646W        W  875  30.635  25.188  13.500
32647W        W  876  19.945   8.728   3.535
32648W        W  877   2.707  40.493   2.691
32649W        W  878   7.367  19.700  13.985
32650W        W  879  10.379  34.995   3.152
32651W        W  880   8.265  42.705   4.457
32652W        W  881  18.180  35.298  14.379
32653W        W  882  14.130  13.196   4.303
32654W        W  883  34.642  38.443   3.249
32655W        W  884  20.765  20.857  13.980
32656W        W  885   7.721  38.638  11.879
32657W        W  886  12.841  36.276  12.406
32658W        W  887   0.956  33.593  13.904
32659W        W  888  10.445  31.394  12.664
32660W        W  889  33.050  13.683  11.638
32661W        W  890   6.436  23.711  11.712
32662W        W  891  22.001  16.045  13.613
32663W        W  892  11.599  42.399  10.584
32664W        W  893   5.228  36.289  12.577
32665W        W  894  13.116   7.739   1.308
32666W        W  895   0.795  12.377   2.145
32667W        W  896  43.988  35.649  10.739
32668W        W  897   8.978  40.380   2.760
32669W        W  898  12.568  36.967  12.809
32670W        W  899  36.039  14.781  12.466
32671W        W  900   7.154  23.489   3.058
32672W        W  901  36.441  20.253  14.022
32673W        W  902  27.779  37.440   1.407
32674W        W  903  16.369  17.183   4.309
32675W        W  904  22.276  18.296   3.731
32676W        W  905   2.642  23.235  14.814
32677W        W  906  23.635  11.618  13.702
32678W        W  907   7.725   8.174  13.936
32679W        W  908  12.268  26.988  12.533
32680W        W  909  11.756  37.635  13.586
32681W        W  910  10.791  27.871  10.477
32682W        W  911   5.404   8.905  10.959
32683W        W  912  15.826   2.722  11.972
32684W        W  913  18.435   1.037   1.058
32685W        W  914  41.349  24.171   0.353
32686W        W  915  37.538   4.453   2.209
32687W        W  916  31.766  40.789   1.646
32688W        W  917  34.815  31.918   3.182
32689W        W  918  16.656  35.603   3.257
32690W        W  919  21.803  32.208  12.922
32691W        W  920  11.213  18.275   3.141
32692W        W  921  26.758  17.341  13.915
32693W        W  922   8.932  35.467   1.266
32694W        W  923  36.594  36.012   2.882
32695W        W  924  16.746   3.720   0.253
32696W        W  925  13.181   7.890   0.440
32697W        W  926  32.801  22.977  14.888
32698W        W  927  15.200  35.097   4.662
32699W        W  928  21.976  42.068   4.181
32700W        W  929   5.318  26.374   4.533
32701W        W  930  28.649  20.257  12.911
32702W        W  931   6.258  19.296   0.712
32703W        W  932  26.844  39.088  10.215
32704W        W  933  34.035  44.844  12.402
32705W        W  934  43.917  38.329  13.824
32706W        W  935  31.997  38.479   3.689
32707W        W  936  29.214   3.331   0.134
32708W        W  937  34.465  14.721   1.443
32709W        W  938   6.140  28.906   0.410
32710W        W  939  44.685  42.775  10.905
32711W        W  940   8.391   8.621  14.921
32712W        W  941  15.155  34.497  14.426
32713W        W  942  44.773  32.550   2.430
32714W        W  943  30.502  22.563   3.425
32715W        W  944  17.454   9.718   2.779
32716W        W  945   7.675  28.505  11.423
32717W        W  946  34.951  20.886   4.839
32718W        W  947  41.765  13.396   1.889
32719W        W  948  23.072  16.145   4.157
32720W        W  949  41.864  35.649   0.832
32721W        W  950  19.316  28.802  14.217
32722W        W  951  24.507  36.855  11.651
32723W        W  952  19.008  11.692   2.451
32724W        W  953  12.707  44.197   0.595
32725W        W  954  36.836   1.469  10.703
32726W        W  955  10.677   9.674   3.722
32727W        W  956  27.849  23.195   1.769
32728W        W  957  16.414   8.289  13.987
32729W        W  958  25.274  17.022  14.456
32730W        W  959   7.280  41.048  12.088
32731W        W  960  20.742  39.601  12.369
32732W        W  961  19.965  15.624   0.524
32733W        W  962  14.098  30.066  14.129
32734W        W  963  18.203  22.162  14.287
32735W        W  964   7.887  28.651  10.539
32736W        W  965  40.322  35.738  10.813
32737W        W  966   0.514  34.545   1.214
32738W        W  967  28.118  32.308  12.661
32739W        W  968  16.106   3.352  13.362
32740W        W  969  41.383  35.840  12.380
32741W        W  970  44.317   5.726  13.444
32742W        W  971  11.455  36.580   2.385
32743W        W  972  44.913   9.300  14.545
32744W        W  973  29.583  20.843   4.149
32745W        W  974   3.676   1.559  10.319
32746W        W  975  29.844  17.524   1.156
32747W        W  976   4.057  42.292   1.864
32748W        W  977  42.305  18.534  13.965
32749W        W  978  23.577  32.409   1.239
32750W        W  979  29.388   4.957  13.928
32751W        W  980  27.171  37.733   1.852
32752W        W  981  35.367  16.898   4.105
32753W        W  982  41.406  18.059  13.874
32754W        W  983  39.381  31.402  13.944
32755W        W  984  40.275   8.854  14.727
32756W        W  985  11.379  44.434  14.764
32757W        W  986  11.083  35.037  10.679
32758W        W  987  44.025  19.864  11.603
32759W        W  988  43.420  28.559  14.715
32760W        W  989  26.068  17.346   4.357
32761W        W  990  20.029  33.321  11.594
32762W        W  991  35.031  10.048   3.742
32763W        W  992  30.540  40.612   1.324
32764W        W  993  34.420  43.456  11.658
32765W        W  994  41.329  32.341   2.927
32766W        W  995  16.862  41.856   3.909
32767W        W  996  29.560   9.319   2.488
32768W        W  997  21.194  27.431   0.358
32769W        W  998  23.490  29.004   1.361
32770W        W  999  16.861  25.684  12.442
32771W        W 1000  16.482  30.752  14.420
32772W        W 1001  37.860  32.324  13.105
32773W        W 1002  18.826  12.622   4.072
32774W        W 1003  43.244  38.534   3.212
32775W        W 1004  44.775  15.759  11.670
32776W        W 1005  28.669  28.250  13.350
32777W        W 1006  12.805  27.762  14.778
32778W        W 1007  38.914  42.881   0.321
32779W        W 1008  21.744  30.378  12.004
32780W        W 1009  36.783   9.466   3.756
32781W        W 1010   4.737  42.753  12.610
32782W        W 1011  29.644  27.246   0.812
32783W        W 1012   1.992  35.421  14.498
32784W        W 1013   4.961  13.702  13.558
32785W        W 1014   6.781  25.391   1.752
32786W        W 1015  10.153  24.719  13.481
32787W        W 1016   0.394  32.650   1.214
32788W        W 1017  36.598  10.213   0.354
32789W        W 1018  29.551  26.560   1.945
32790W        W 1019  18.571  37.123  12.247
32791W        W 1020   1.312  12.715   1.753
32792W        W 1021  38.954  18.792  13.447
32793W        W 1022  14.175  31.892  13.093
32794W        W 1023  29.748  19.330   0.436
32795W        W 1024  34.501   7.438   3.032
32796W        W 1025   7.983  14.714  11.172
32797W        W 1026   0.885  23.512  13.060
32798W        W 1027   6.248   9.182   1.884
32799W        W 1028  40.271  27.525   1.330
32800W        W 1029  22.687  26.682  12.010
32801W        W 1030  34.871  31.129  13.105
32802W        W 1031  36.827   5.390   3.633
32803W        W 1032  23.165  18.573  12.014
32804W        W 1033   2.684  22.187   3.679
32805W        W 1034  41.961  17.218   5.001
32806W        W 1035  22.619  43.149   3.764
32807W        W 1036   3.468  10.321   0.304
32808W        W 1037  32.895  27.632  13.080
32809W        W 1038  17.250   9.359   3.593
32810W        W 1039  39.070  11.088   0.338
32811W        W 1040  29.874  26.563   3.411
32812W        W 1041  18.203  13.253   4.430
32813W        W 1042   5.067  10.395  13.897
32814W        W 1043  10.792  28.985   0.671
32815W        W 1044   0.808  32.959  11.088
32816W        W 1045  24.067  29.554  13.103
32817W        W 1046  14.176  16.522  14.376
32818W        W 1047  30.692   1.684  11.151
32819W        W 1048  29.150  25.455  13.282
32820W        W 1049  29.762  44.934  12.097
32821W        W 1050  21.533  38.093  14.452
32822W        W 1051  18.487  27.533  14.346
32823W        W 1052   7.205  19.163   0.450
32824W        W 1053  43.932  27.548   2.617
32825W        W 1054  36.854  31.412   0.039
32826W        W 1055  16.924  12.084  11.538
32827W        W 1056  23.114  26.548  13.063
32828W        W 1057  33.631  39.976  12.053
32829W        W 1058   6.701   5.345   2.552
32830W        W 1059  37.529   8.676   1.464
32831W        W 1060  23.040  30.894   0.855
32832W        W 1061  42.313  39.046   0.104
32833W        W 1062  35.987  18.237   4.114
32834W        W 1063  37.842   3.783  14.442
32835W        W 1064  24.934   5.793   1.320
32836W        W 1065  16.044  26.965  11.083
32837W        W 1066  15.420  36.557  11.286
32838W        W 1067   6.244   6.041  12.439
32839W        W 1068  11.628   2.993  13.891
32840W        W 1069   8.309  21.223   1.896
32841W        W 1070  14.145  27.016   3.090
32842W        W 1071  14.898  25.632  12.505
32843W        W 1072  24.452  15.492  10.751
32844W        W 1073  39.571  25.021  13.372
32845W        W 1074  38.441  28.229  10.598
32846W        W 1075  15.770  44.489   4.154
32847W        W 1076  11.657   8.087   4.504
32848W        W 1077   6.258  19.601  10.719
32849W        W 1078  10.429  10.800   3.633
32850W        W 1079  23.146   5.245  13.309
32851W        W 1080   3.727   1.643  11.176
32852W        W 1081   1.413   3.615   0.786
32853W        W 1082   9.072   0.971   4.523
32854W        W 1083  25.754  29.630   4.121
32855W        W 1084  26.999  25.506   3.818
32856W        W 1085  19.169  18.162  12.628
32857W        W 1086   4.846  32.668   1.871
32858W        W 1087   4.840  15.158  10.339
32859W        W 1088  42.845  14.944   1.316
32860W        W 1089  33.124  43.449  12.021
32861W        W 1090  18.169  31.664  12.908
32862W        W 1091  35.473   7.947   4.088
32863W        W 1092  26.591  28.661   0.215
32864W        W 1093  44.219  18.436   9.675
32865W        W 1094   8.903   8.219   4.081
32866W        W 1095  44.329  29.196   1.779
32867W        W 1096   3.656  44.789  14.842
32868W        W 1097  27.440  40.476   1.283
32869W        W 1098  44.378  39.861  13.861
32870W        W 1099   7.805  12.352  14.432
32871W        W 1100  40.855  12.590  10.740
32872W        W 1101  12.745  21.004  14.092
32873W        W 1102  14.771  12.600   2.746
32874W        W 1103   8.645   3.682   3.837
32875W        W 1104  24.627  16.809   0.869
32876W        W 1105   6.743  42.077  10.751
32877W        W 1106  39.351   4.250  12.471
32878W        W 1107  15.863  34.639   1.903
32879W        W 1108  33.141  14.579   2.128
32880W        W 1109  24.781  23.013  10.629
32881W        W 1110  23.650  11.624   3.308
32882W        W 1111  17.754  16.145  13.964
32883W        W 1112  44.013   9.255   4.607
32884W        W 1113  34.034  31.244   3.313
32885W        W 1114  33.406  17.298   0.353
32886W        W 1115  25.598  22.299  14.452
32887W        W 1116  40.269   7.352   3.715
32888W        W 1117  37.099  37.482   2.912
32889W        W 1118  40.460  13.796   3.237
32890W        W 1119   5.525  29.606  13.928
32891W        W 1120   8.807   2.491   4.615
32892W        W 1121  13.137  43.481   4.075
32893W        W 1122  23.659  17.531   4.120
32894W        W 1123  21.102  38.922   1.152
32895W        W 1124  30.338  36.476   2.132
32896W        W 1125  34.602  41.705  11.111
32897W        W 1126  11.774   0.766   3.273
32898W        W 1127  16.801   8.072   2.856
32899W        W 1128  34.370  37.759   3.717
32900W        W 1129  16.642   1.103  12.415
32901W        W 1130  40.305  18.597  12.492
32902W        W 1131  25.225   7.791  13.292
32903W        W 1132  37.378  10.411  11.048
32904W        W 1133  32.980  28.321   2.378
32905W        W 1134  41.830  31.582   5.293
32906W        W 1135   8.059  18.300   4.518
32907W        W 1136   6.593  44.020   2.747
32908W        W 1137  19.140  18.127   1.729
32909W        W 1138  40.482  25.564   1.990
32910W        W 1139   1.289   7.146  14.283
32911W        W 1140  23.927  38.217  11.012
32912W        W 1141  28.894  21.718   0.388
32913W        W 1142   5.994  27.037   4.627
32914W        W 1143  42.746  19.751  11.230
32915W        W 1144   0.299   1.071   0.657
32916W        W 1145  29.734  39.229  10.513
32917W        W 1146  36.824  26.004  11.518
32918W        W 1147  35.410   9.134  13.828
32919W        W 1148  26.496  24.545   0.022
32920W        W 1149  27.586  32.731   5.032
32921W        W 1150  12.278  42.893  14.315
32922W        W 1151  12.755   8.685   4.386
32923W        W 1152  33.572   8.271   1.857
32924W        W 1153   5.908   9.341  14.531
32925W        W 1154   5.419  36.122   2.406
32926W        W 1155  42.095  34.485   4.617
32927W        W 1156  42.905   3.255  12.441
32928W        W 1157  13.661   9.202   1.741
32929W        W 1158  35.627  39.411  10.673
32930W        W 1159  39.684  37.867  14.669
32931W        W 1160  44.230  15.339   2.834
32932W        W 1161   4.649   8.760  14.236
32933W        W 1162  41.887   3.880  13.316
32934W        W 1163  13.067  42.011  11.108
32935W        W 1164  11.461  25.442   4.200
32936W        W 1165   4.617   0.360  11.246
32937W        W 1166  20.292  40.996  13.009
32938W        W 1167  25.906  38.083   2.241
32939W        W 1168  31.944   8.293   4.206
32940W        W 1169   6.147  43.303  13.343
32941W        W 1170  29.876  13.322   5.046
32942W        W 1171   2.715  15.600  14.655
32943W        W 1172  30.361  34.532  11.619
32944W        W 1173  12.080  25.896   1.915
32945W        W 1174   3.206  38.550  10.077
32946W        W 1175  30.071  31.310   4.928
32947W        W 1176  29.109  30.115  14.405
32948W        W 1177   7.920   1.277  11.103
32949W        W 1178  44.386   9.223  13.382
32950W        W 1179  18.976  27.877   2.600
32951W        W 1180  39.217  42.485   3.827
32952W        W 1181  27.167  36.514   4.102
32953W        W 1182  13.374  43.868  12.572
32954W        W 1183  23.113  31.640   1.361
32955W        W 1184  36.455  20.783   2.764
32956W        W 1185  17.440  26.124   5.322
32957W        W 1186  16.305  16.701   4.103
32958W        W 1187  37.382   8.659  10.246
32959W        W 1188   5.011   5.260  10.105
32960W        W 1189  44.726  37.865  14.752
32961W        W 1190  13.824  35.350  11.965
32962W        W 1191  11.819   2.912   4.160
32963W        W 1192  15.023  15.631   0.836
32964W        W 1193  40.990  20.717   4.336
32965W        W 1194  42.414  23.993   1.809
32966W        W 1195  31.319   1.258   4.631
32967W        W 1196  28.169  23.060   2.147
32968W        W 1197  30.025  33.921  11.628
32969W        W 1198  37.562  23.918  14.328
32970W        W 1199  43.997  26.202  13.000
32971W        W 1200  27.677  23.565   3.841
32972W        W 1201  37.303  29.467   4.447
32973W        W 1202  36.822  23.262   4.498
32974W        W 1203  44.062  24.634  12.922
32975W        W 1204  36.441  25.998  14.384
32976W        W 1205  35.868   7.221   4.360
32977W        W 1206  35.452  26.987  13.321
32978W        W 1207  41.044   6.409  13.445
32979W        W 1208   9.175   1.078   3.548
32980W        W 1209  25.783  26.109  14.209
32981W        W 1210   0.622   1.449  13.354
32982W        W 1211  35.204  11.364  11.918
32983W        W 1212  44.320   7.344   1.190
32984W        W 1213  42.988  25.554  10.729
32985W        W 1214  41.967  38.505   2.862
32986W        W 1215  11.038  13.110   1.749
32987W        W 1216  24.283  35.594  14.122
32988W        W 1217  30.424  38.807  13.554
32989W        W 1218  24.213  44.031   3.706
32990W        W 1219  29.490  10.967  14.299
32991W        W 1220  11.192   4.762   0.365
32992W        W 1221  29.475  27.206  12.391
32993W        W 1222  17.408  43.868  14.341
32994W        W 1223  17.588   4.813   4.912
32995W        W 1224  41.237   9.869   2.627
32996W        W 1225  35.002   1.170  10.603
32997W        W 1226  18.855  43.191  12.493
32998W        W 1227  33.863  21.713   3.169
32999W        W 1228  43.663  19.060  14.952
33000W        W 1229  41.839  10.297   0.588
33001W        W 1230   5.198  33.171   0.214
33002W        W 1231  12.794   9.907   4.443
33003W        W 1232  35.000  43.764   2.497
33004W        W 1233  38.848  38.445   2.423
33005W        W 1234  24.192  38.149   3.274
33006W        W 1235  19.203  25.988   3.059
33007W        W 1236  30.927  32.740   0.388
33008W        W 1237  17.886  18.552   5.561
33009W        W 1238   1.482  41.809   3.006
33010W        W 1239  42.116   9.762  11.136
33011W        W 1240  37.919  42.974  14.017
33012W        W 1241  24.572  27.401  11.708
33013W        W 1242  41.599   5.999   4.099
33014W        W 1243  12.308  11.058   4.615
33015W        W 1244  11.747   9.383   0.351
33016W        W 1245  22.749  36.435   4.815
33017W        W 1246   2.393  16.765  12.952
33018W        W 1247  37.400  27.482  10.786
33019W        W 1248  38.323  10.728  10.510
33020W        W 1249  11.101  37.043  13.808
33021W        W 1250  42.514  34.515  12.463
33022W        W 1251  34.695   0.524  13.948
33023W        W 1252  26.453  42.356  13.132
33024W        W 1253   4.035  13.306  10.929
33025W        W 1254  40.804  34.876  11.668
33026W        W 1255  13.639  41.828  13.275
33027W        W 1256  23.267  12.820   5.461
33028W        W 1257  39.754  13.469  12.162
33029W        W 1258  14.064  14.512  13.025
33030W        W 1259  24.534  25.532  13.861
33031W        W 1260  35.577  18.351  13.608
33032W        W 1261  12.261  23.021  12.571
33033W        W 1262  24.217  31.606   3.153
33034W        W 1263   6.598   8.761   3.120
33035W        W 1264  25.525  19.222  13.855
33036W        W 1265  26.177   3.549   5.295
33037W        W 1266  31.476  12.218  14.766
33038W        W 1267  17.201   7.530   0.019
33039W        W 1268  17.785  37.746   1.731
33040W        W 1269   8.805   9.888   0.955
33041W        W 1270  40.439   9.379  13.510
33042W        W 1271  12.428  37.536   3.090
33043W        W 1272  35.005  41.895   2.914
33044W        W 1273   9.294  23.139   4.895
33045W        W 1274  18.256  42.455   3.627
33046W        W 1275  20.610  14.510  12.589
33047W        W 1276   8.342  21.582   0.607
33048W        W 1277  32.188  31.238  11.126
33049W        W 1278  41.488  32.390   4.167
33050W        W 1279   5.701  17.132   3.719
33051W        W 1280  39.305  14.270   4.085
33052W        W 1281  42.311  24.162   2.313
33053W        W 1282  24.125  41.968  11.058
33054W        W 1283  18.067   2.684  12.453
33055W        W 1284  17.746  29.988   0.460
33056W        W 1285  17.598  18.063  10.973
33057W        W 1286  24.535  15.159  12.977
33058W        W 1287  41.730  33.317   0.420
33059W        W 1288  20.366  36.636  10.675
33060W        W 1289  17.427  22.068  14.363
33061W        W 1290  38.305  17.616  11.203
33062W        W 1291  16.936   2.231   0.345
33063W        W 1292  31.529  29.866   2.567
33064W        W 1293  35.372  13.082  14.390
33065W        W 1294  24.137  18.835   1.541
33066W        W 1295  14.675   8.792  12.342
33067W        W 1296  41.204  16.158   2.248
33068W        W 1297  35.251  23.514  13.469
33069W        W 1298   0.377   2.328  10.623
33070W        W 1299  43.218  14.372  11.054
33071W        W 1300  19.156  28.725   3.347
33072W        W 1301  19.469  44.269   0.857
33073W        W 1302  31.915  36.124   2.739
33074W        W 1303   6.749   3.206   4.690
33075W        W 1304  13.396  20.523   0.957
33076W        W 1305   4.154  14.994   2.055
33077W        W 1306  25.900  34.972  13.477
33078W        W 1307   1.228  24.637  11.406
33079W        W 1308  39.899  36.104   3.379
33080W        W 1309  17.302   7.939   1.798
33081W        W 1310  13.192   7.328   4.693
33082W        W 1311  28.357   5.807   1.857
33083W        W 1312  33.937  34.498  10.758
33084W        W 1313  15.780   6.491   3.306
33085W        W 1314   1.349  40.568  12.714
33086W        W 1315  44.394  41.144  14.462
33087W        W 1316  29.626  42.375  12.105
33088W        W 1317   1.471  40.160  14.212
33089W        W 1318  35.708  25.472  11.295
33090W        W 1319  28.741   1.341   0.309
33091W        W 1320   2.974  35.393   0.546
33092W        W 1321  41.002  29.658  13.796
33093W        W 1322  23.214  15.422   4.879
33094W        W 1323  40.022  42.492  12.879
33095W        W 1324  35.323  11.819  13.957
33096W        W 1325  44.943  32.779   1.773
33097W        W 1326   1.891   5.515   1.873
33098W        W 1327   4.962  32.312   0.175
33099W        W 1328  37.580  22.537   0.017
33100W        W 1329  20.881  12.799   3.629
33101W        W 1330   3.044  24.576   0.542
33102W        W 1331  22.959  26.871  12.460
33103W        W 1332  12.193  44.281  10.567
33104W        W 1333  14.045  44.943  11.162
33105W        W 1334   8.529  30.674   4.209
33106W        W 1335  36.793  27.977   3.374
33107W        W 1336  39.270  14.519  13.059
33108W        W 1337  19.631   3.116  14.052
33109W        W 1338   2.611  21.810  11.118
33110W        W 1339  32.397   6.342   3.285
33111W        W 1340  24.941   5.974   2.250
33112W        W 1341  18.741   7.424  12.146
33113W        W 1342   2.663   0.986  14.509
33114W        W 1343  23.851  36.087  10.221
33115W        W 1344  26.125  32.871  10.128
33116W        W 1345  36.612   1.300  13.475
33117W        W 1346  43.777   0.932  13.438
33118W        W 1347  39.935  37.813  11.264
33119W        W 1348  10.762  18.725   3.254
33120W        W 1349  25.510  13.386   4.090
33121W        W 1350  17.868   6.096   3.312
33122W        W 1351  42.978  30.929   2.357
33123W        W 1352  12.343  16.012   4.704
33124W        W 1353   6.141  43.715  10.702
33125W        W 1354  15.038  28.033  10.739
33126W        W 1355  39.449  32.909   2.242
33127W        W 1356   3.773  23.622  14.800
33128W        W 1357  15.743  20.116   1.451
33129W        W 1358   6.377   3.541   1.938
33130W        W 1359  40.883  41.995  11.526
33131W        W 1360  41.224  26.086   0.280
33132W        W 1361  38.250  26.958  14.049
33133W        W 1362  38.511   9.647   4.108
33134W        W 1363  29.301  29.184   3.275
33135W        W 1364   4.508  26.767   2.657
33136W        W 1365  39.052  13.079  11.669
33137W        W 1366  16.805   3.386  13.290
33138W        W 1367  41.656  10.295  10.601
33139W        W 1368  33.937  25.506   4.093
33140W        W 1369   3.380  22.147  11.532
33141W        W 1370  25.293  34.519  12.068
33142W        W 1371   0.430   0.945   5.138
33143W        W 1372  31.806   2.860   0.044
33144W        W 1373  44.203  34.092   4.258
33145W        W 1374  40.389  34.685  13.863
33146W        W 1375  14.641   4.450   4.060
33147W        W 1376  31.597  25.509  13.301
33148W        W 1377  20.809  26.476   0.137
33149W        W 1378  19.239  39.987   3.260
33150W        W 1379  24.748   3.709   4.266
33151W        W 1380  27.604   3.462   3.836
33152W        W 1381  28.737   8.162  13.456
33153W        W 1382   2.207  34.033   9.824
33154W        W 1383  33.401  20.559   1.046
33155W        W 1384  42.170  37.045   1.426
33156W        W 1385  25.597  15.662  13.533
33157W        W 1386  27.347  21.152  13.064
33158W        W 1387  24.438  37.168  13.870
33159W        W 1388  44.224   7.636   5.027
33160W        W 1389   8.926  41.284  13.939
33161W        W 1390  16.783  25.227   3.222
33162W        W 1391  31.681  19.543  12.683
33163W        W 1392   7.405  21.010  12.136
33164W        W 1393  43.356  26.869  10.997
33165W        W 1394  44.458  41.427  12.166
33166W        W 1395  25.808  25.502   0.953
33167W        W 1396  19.984  41.527   1.982
33168W        W 1397  40.114   5.938  10.282
33169W        W 1398  36.465  15.755  11.700
33170W        W 1399  24.487  32.071   3.160
33171W        W 1400  32.568  31.047   2.250
33172W        W 1401  13.168  21.686  12.576
33173W        W 1402   1.952  24.010   2.336
33174W        W 1403  26.033  15.253  12.649
33175W        W 1404  27.561  30.724  13.957
33176W        W 1405   1.528   3.934  12.380
33177W        W 1406   1.695  21.955   0.363
33178W        W 1407  21.030  38.066   2.827
33179W        W 1408  18.942  35.415  12.932
33180W        W 1409  38.360  12.049   2.957
33181W        W 1410  29.924   0.413   2.323
33182W        W 1411  23.597  29.326  13.239
33183W        W 1412  15.273  38.450   3.436
33184W        W 1413  20.088   9.081  12.457
33185W        W 1414  18.088  43.060   0.821
33186W        W 1415  31.148  42.280  14.637
33187W        W 1416  17.076  44.977  11.576
33188W        W 1417  36.728   4.455   1.916
33189W        W 1418   0.796  21.684  14.942
33190W        W 1419  31.930   8.067  14.802
33191W        W 1420  33.875  21.077   3.640
33192W        W 1421  40.310   5.665   4.360
33193W        W 1422   6.889  17.677   2.560
33194W        W 1423  14.562  39.558   0.930
33195W        W 1424  38.586  30.256  14.291
33196W        W 1425  31.216   1.732  11.140
33197W        W 1426  36.404  39.091   3.277
33198W        W 1427  30.755  35.934  12.038
33199W        W 1428  43.264   0.025  13.594
33200W        W 1429  19.690  19.805   3.762
33201W        W 1430  35.030  37.715  11.433
33202W        W 1431  29.178  22.033  13.424
33203W        W 1432  28.197  24.288  14.577
33204W        W 1433  24.565  11.926   1.944
33205W        W 1434  35.440  24.400  12.622
33206W        W 1435  26.920   8.389  10.766
33207W        W 1436  23.620   9.430   0.454
33208W        W 1437  31.897  39.495   4.701
33209W        W 1438   7.177   5.830  13.048
33210W        W 1439  37.424  14.327  10.680
33211W        W 1440   4.280  24.674  10.613
33212W        W 1441  40.950  44.958   2.156
33213W        W 1442  30.095  17.826   2.114
33214W        W 1443  34.256  19.993  14.195
33215W        W 1444  19.234  12.791  12.276
33216W        W 1445   5.776  28.905   3.952
33217W        W 1446  13.666   1.540  14.895
33218W        W 1447  11.339  37.014   3.330
33219W        W 1448  26.070  20.772   3.247
33220W        W 1449  21.794  38.132   0.895
33221W        W 1450  24.328   7.113   1.310
33222W        W 1451   0.869   9.320   1.979
33223W        W 1452  28.356  11.399  12.570
33224W        W 1453  13.607  42.756   3.679
33225W        W 1454   5.033  37.518   3.192
33226W        W 1455  36.500  40.614  10.727
33227W        W 1456   1.490   6.281  10.599
33228W        W 1457  33.319  34.069  14.945
33229W        W 1458  11.561  20.123   1.911
33230W        W 1459  19.087   9.329   1.668
33231W        W 1460  16.605  16.327   2.365
33232W        W 1461  16.080  35.787   1.667
33233W        W 1462   2.328  29.957   1.599
33234W        W 1463   6.281  19.452   5.055
33235W        W 1464  35.861  43.889  13.876
33236W        W 1465   0.877  40.022   0.948
33237W        W 1466   9.211  14.793  11.492
33238W        W 1467  17.213   0.923   0.481
33239W        W 1468   6.228   4.559  11.532
33240W        W 1469   2.408   8.203   2.381
33241W        W 1470  32.855  21.982  14.333
33242W        W 1471  12.886  27.668  11.685
33243W        W 1472  17.669  28.650   1.862
33244W        W 1473  43.545  33.426   2.680
33245W        W 1474   7.758  18.899  13.498
33246W        W 1475  24.153   1.547  13.913
33247W        W 1476   9.822   2.078  14.375
33248W        W 1477  16.242  14.108   4.074
33249W        W 1478  44.035  36.892  13.365
33250W        W 1479  20.595  14.342  11.482
33251W        W 1480  11.123  16.049   0.918
33252W        W 1481  37.626  14.051  10.298
33253W        W 1482  27.027  14.204  14.041
33254W        W 1483  23.821  26.825  11.418
33255W        W 1484   5.989  27.999  12.992
33256W        W 1485   7.950  35.539   1.341
33257W        W 1486  22.595  29.986   1.961
33258W        W 1487  42.765   8.847  14.891
33259W        W 1488  20.876   1.247   2.716
33260W        W 1489   3.654   2.180  11.148
33261W        W 1490  15.095   4.562   4.310
33262W        W 1491  31.490  14.031   3.262
33263W        W 1492  15.509  32.380   0.233
33264W        W 1493  19.293  17.686  13.848
33265W        W 1494  39.347  41.314  11.215
33266W        W 1495   7.335   1.434  14.414
33267W        W 1496   8.217  28.373  14.379
33268W        W 1497  16.572  15.258   2.147
33269W        W 1498  38.544   2.939   2.176
33270W        W 1499  10.606  35.418   0.510
33271W        W 1500  38.579  21.158  14.773
33272W        W 1501   6.849  11.295   2.864
33273W        W 1502  10.625  29.130  12.388
33274W        W 1503   0.320  31.101  13.458
33275W        W 1504   9.253  28.115   2.193
33276W        W 1505   9.516  34.775   0.952
33277W        W 1506  18.694  22.207  13.990
33278W        W 1507   2.763  31.900   4.503
33279W        W 1508  26.020  16.130   0.242
33280W        W 1509   3.403  15.414   0.363
33281W        W 1510  41.578  32.493  12.104
33282W        W 1511   4.464  12.854  10.599
33283W        W 1512   9.737   1.751   0.241
33284W        W 1513  29.378   0.786   1.522
33285W        W 1514   8.195  26.975   0.206
33286W        W 1515  10.194  31.861   2.164
33287W        W 1516  35.935  30.177  13.787
33288W        W 1517  31.156  41.731   2.431
33289W        W 1518  32.596  37.764  12.644
33290W        W 1519   9.628   9.753  12.982
33291W        W 1520   4.735  32.056  12.905
33292W        W 1521   6.644  17.528   1.265
33293W        W 1522   1.330  11.089   2.392
33294W        W 1523  40.505  35.816  12.087
33295W        W 1524  44.441  14.273  12.904
33296W        W 1525  32.960  42.911  11.076
33297W        W 1526   2.385   7.417  10.846
33298W        W 1527  26.296  33.802   1.181
33299W        W 1528   1.375   4.651   4.680
33300W        W 1529  12.857  20.864  13.285
33301W        W 1530  12.818  37.080  12.348
33302W        W 1531  23.185   7.209  11.979
33303W        W 1532  24.918  10.392  12.912
33304W        W 1533  24.460  14.739   1.451
33305W        W 1534  19.710  15.248  11.512
33306W        W 1535   8.894   9.813   2.889
33307W        W 1536  29.032  34.781   0.383
33308W        W 1537  32.051  25.200   4.743
33309W        W 1538  22.577   1.087   4.752
33310W        W 1539  34.485  36.703  13.987
33311W        W 1540   7.752   6.554   5.034
33312W        W 1541  43.390  38.940   1.156
33313W        W 1542  33.372   7.773   1.873
33314W        W 1543  21.490   9.432  10.868
33315W        W 1544  22.638  17.087   3.350
33316W        W 1545  33.515   9.556   0.480
33317W        W 1546  41.453  37.334   0.349
33318W        W 1547  28.141  40.093  12.407
33319W        W 1548   3.061  19.489   2.813
33320W        W 1549  12.746   9.606   4.047
33321W        W 1550  15.764  21.041   0.228
33322W        W 1551   7.680   5.827  12.378
33323W        W 1552   5.258  21.423  12.432
33324W        W 1553  13.589  16.349  10.266
33325W        W 1554  16.360   3.365   4.659
33326W        W 1555  44.250  31.246   3.132
33327W        W 1556  18.335  11.095   1.169
33328W        W 1557   5.105  23.580   1.850
33329W        W 1558  27.598  43.422  14.780
33330W        W 1559  17.609  35.366  11.143
33331W        W 1560  32.616  27.036  13.060
33332W        W 1561  14.555  21.622   3.422
33333W        W 1562  22.672  38.254  12.945
33334W        W 1563   5.014   1.842  13.272
33335W        W 1564   6.616  13.066  11.563
33336W        W 1565  42.225  16.585   0.838
33337W        W 1566  42.794  31.212   1.969
33338W        W 1567  14.716   4.973  14.994
33339W        W 1568  29.079  22.529  14.116
33340W        W 1569   5.155  27.583   2.864
33341W        W 1570  22.351  14.802  14.959
33342W        W 1571  34.382  25.757   4.242
33343W        W 1572   3.957  12.960  11.326
33344W        W 1573  31.652  21.987  14.520
33345W        W 1574  19.114   2.281  13.999
33346W        W 1575  24.015   7.076  13.471
33347W        W 1576  23.303  44.408   3.836
33348W        W 1577  15.230  37.505  14.052
33349W        W 1578  40.679  44.236   4.200
33350W        W 1579  18.533  33.216   0.838
33351W        W 1580  42.511   6.273  12.614
33352W        W 1581   6.692  25.642  14.490
33353W        W 1582  13.823   7.270  12.978
33354W        W 1583  41.435  26.678  13.882
33355W        W 1584   8.338  29.364   0.815
33356W        W 1585  39.442  12.840  11.421
33357W        W 1586  37.350  19.971   3.441
33358W        W 1587  24.341  15.885   2.796
33359W        W 1588   1.838  14.685   1.112
33360W        W 1589  28.024  20.125   4.578
33361W        W 1590  27.057  18.794   3.164
33362W        W 1591  40.035   3.451  13.938
33363W        W 1592  18.566  41.890   4.649
33364W        W 1593  11.242  22.615  12.898
33365W        W 1594  14.828  42.974  14.340
33366W        W 1595   8.958  13.886  12.568
33367W        W 1596  35.578  10.974   2.858
33368W        W 1597  31.095   9.843  10.973
33369W        W 1598   3.462  12.184  14.498
33370W        W 1599  21.216   8.222  14.568
33371W        W 1600  21.095  21.479   1.664
33372W        W 1601  19.173  18.475   0.409
33373W        W 1602   1.615  37.551  11.096
33374W        W 1603  25.439  10.596   2.824
33375W        W 1604  29.265  37.590   2.699
33376W        W 1605   8.701   6.108  10.644
33377W        W 1606  33.408  29.071   2.744
33378W        W 1607  20.984  33.227   1.263
33379W        W 1608  23.483  16.094  13.508
33380W        W 1609  36.907  11.208  11.066
33381W        W 1610   2.869   7.957   2.475
33382W        W 1611  13.599  39.563  10.410
33383W        W 1612  18.698  26.073  11.526
33384W        W 1613  12.813   7.954  14.510
33385W        W 1614  21.256   2.680  11.912
33386W        W 1615  22.302   8.613  11.893
33387W        W 1616  23.615  24.881  12.947
33388W        W 1617  15.342   3.345   4.569
33389W        W 1618  41.488  17.583  14.798
33390W        W 1619  11.874  41.739  12.084
33391W        W 1620   7.639  15.734  11.600
33392W        W 1621   5.743  26.396  12.987
33393W        W 1622  28.264  18.612  13.004
33394W        W 1623  31.436  22.727   3.297
33395W        W 1624  28.999  35.751  10.306
33396W        W 1625   1.041  15.137   1.880
33397W        W 1626   4.381  12.257  11.268
33398W        W 1627  32.253  35.390  11.948
33399W        W 1628  17.618  29.661   3.538
33400W        W 1629  34.456  41.767   4.054
33401W        W 1630  32.602  44.418   3.762
33402W        W 1631  25.788  14.861  13.966
33403W        W 1632  26.277  39.971   0.502
33404W        W 1633   6.324  39.412   2.232
33405W        W 1634  22.189   6.287  13.414
33406W        W 1635  28.552  20.452   3.681
33407W        W 1636   8.646  26.619   0.917
33408W        W 1637  15.867  25.543  13.922
33409W        W 1638  32.360  15.381   1.511
33410W        W 1639   7.591  29.013  14.086
33411W        W 1640  12.629  41.963   1.009
33412W        W 1641  18.579  24.118   2.383
33413W        W 1642  10.241  20.229  14.428
33414W        W 1643  30.059  34.366   4.140
33415W        W 1644  13.289  35.087   3.232
33416W        W 1645   0.299  26.134  14.711
33417W        W 1646  44.746  35.897   0.486
33418W        W 1647  44.216  21.903  10.519
33419W        W 1648  44.747  29.058  10.596
33420W        W 1649  14.152  19.124   1.181
33421W        W 1650  35.225  28.883   2.343
33422W        W 1651  21.694  27.031  10.709
33423W        W 1652  15.736  17.103   1.770
33424W        W 1653   9.081  26.370  12.036
33425W        W 1654  37.975   4.091  13.425
33426W        W 1655  19.034  40.780   3.617
33427W        W 1656  38.933  44.131   9.970
33428W        W 1657  26.453  21.485  10.748
33429W        W 1658   6.322  36.495   4.605
33430W        W 1659  33.078  18.476  14.091
33431W        W 1660   5.687   2.490   4.526
33432W        W 1661  23.249  28.191  11.874
33433W        W 1662  32.079  32.750   0.296
33434W        W 1663  23.140  37.924   3.285
33435W        W 1664  42.102   6.854   1.354
33436W        W 1665   0.800  44.216  11.845
33437W        W 1666  12.590  35.486  13.515
33438W        W 1667  24.817  43.369   0.073
33439W        W 1668  15.109  34.454   3.585
33440W        W 1669  38.295  11.880   3.470
33441W        W 1670   0.007  28.973  11.560
33442W        W 1671   1.475  33.507  12.081
33443W        W 1672  21.272  15.571   3.411
33444W        W 1673  21.426  34.110   2.587
33445W        W 1674  39.143  25.181   2.216
33446W        W 1675  40.284  28.928  14.822
33447W        W 1676  28.012  28.398   4.009
33448W        W 1677  13.932  15.303   3.116
33449W        W 1678  32.057  23.454   3.698
33450W        W 1679   9.784  29.135   1.424
33451W        W 1680  29.984  38.446   0.721
33452W        W 1681  40.798  35.429  14.965
33453W        W 1682  38.591  20.011  12.676
33454W        W 1683  28.562  15.799   1.190
33455W        W 1684  10.799  19.038  13.785
33456W        W 1685  11.479  29.956  12.615
33457W        W 1686  41.014  12.825  14.936
33458W        W 1687  11.563   1.181  11.665
33459W        W 1688  17.200   6.431  13.866
33460W        W 1689  39.959   3.962  11.610
33461W        W 1690  24.459   4.909  12.107
33462W        W 1691  12.399   4.324  12.449
33463W        W 1692  21.769  30.939   4.341
33464W        W 1693  33.141   9.097  12.012
33465W        W 1694   8.780   4.201   2.256
33466W        W 1695  40.896  11.306  11.163
33467W        W 1696   2.919  22.048   2.171
33468W        W 1697  11.149  11.808   3.836
33469W        W 1698  17.249  16.243  11.603
33470W        W 1699  33.774  19.202  12.944
33471W        W 1700  39.474  28.142  14.388
33472W        W 1701  29.875  22.738   1.880
33473W        W 1702  35.004   8.047  12.011
33474W        W 1703  40.439  33.532   2.853
33475W        W 1704  39.543  34.496   4.030
33476W        W 1705  19.307  33.409   3.735
33477W        W 1706  26.746  23.560  13.490
33478W        W 1707  41.890  37.398   3.788
33479W        W 1708   5.298  28.916  14.712
33480W        W 1709  14.702  21.553   4.406
33481W        W 1710  33.459  31.986   3.145
33482W        W 1711  10.314  25.620   4.612
33483W        W 1712  36.674  18.257   3.894
33484W        W 1713  30.976  28.105  12.550
33485W        W 1714  44.483  35.381  11.211
33486W        W 1715  24.997   8.643  11.022
33487W        W 1716   9.033  35.033  10.588
33488W        W 1717   9.643  23.295  11.028
33489W        W 1718  24.123  10.236   1.462
33490W        W 1719  44.125   3.120  12.969
33491W        W 1720  35.922  10.211   2.270
33492W        W 1721  39.265  37.063  12.961
33493W        W 1722  10.441  43.771  11.527
33494W        W 1723  39.472  13.309   3.921
33495W        W 1724  39.512   3.704   2.694
33496W        W 1725  13.004   9.278   0.991
33497W        W 1726  24.545  16.320   1.780
33498W        W 1727  16.344  34.961   4.316
33499W        W 1728  13.646  27.591  10.784
33500W        W 1729  27.178  38.225   4.185
33501W        W 1730  39.957  25.577   2.130
33502W        W 1731  20.059   6.946  13.420
33503W        W 1732   5.976   7.937  12.884
33504W        W 1733  37.600  36.274   4.139
33505W        W 1734  14.230  37.905  10.659
33506W        W 1735  17.382  13.353  12.977
33507W        W 1736  24.997  21.808  13.912
33508W        W 1737  31.443  21.200   0.832
33509W        W 1738  24.061  35.882  10.651
33510W        W 1739  33.694  30.926   0.960
33511W        W 1740   0.101  14.265   1.726
33512W        W 1741  30.869   7.289   2.313
33513W        W 1742  17.179  21.326  12.664
33514W        W 1743  37.254  34.025   2.257
33515W        W 1744  28.079   9.234   0.935
33516W        W 1745  42.932  28.922   1.345
33517W        W 1746  39.408  24.180   3.266
33518W        W 1747  19.537  16.220  12.963
33519W        W 1748  39.267   0.055  11.618
33520W        W 1749   5.779  44.827   0.464
33521W        W 1750  44.363  42.817   3.182
33522W        W 1751   1.272  25.220   3.895
33523W        W 1752   4.554   2.422  13.164
33524W        W 1753  28.940  22.662  11.090
33525W        W 1754  24.730   9.923  11.535
33526W        W 1755  42.826  41.763   1.889
33527W        W 1756   6.435  38.893  10.980
33528W        W 1757   2.960  25.053  14.881
33529W        W 1758  24.349   4.891   2.226
33530W        W 1759  31.503   7.351   4.159
33531W        W 1760  38.058   3.966   0.318
33532W        W 1761  16.146   0.936   3.098
33533W        W 1762  16.832  32.406   0.349
33534W        W 1763   6.117   2.322  10.419
33535W        W 1764   0.021  44.457   2.617
33536W        W 1765  44.799   8.149   1.502
33537W        W 1766  11.581  25.835   2.571
33538W        W 1767  11.919   7.115  12.433
33539W        W 1768  39.064  41.946  14.246
33540W        W 1769   1.733  41.560  14.096
33541W        W 1770  32.602  11.866  13.440
33542W        W 1771   7.432  32.497   0.754
33543W        W 1772  42.899  41.197   2.773
33544W        W 1773   2.315  39.897  14.495
33545W        W 1774   7.638  43.908   0.473
33546W        W 1775  37.996  10.919  14.546
33547W        W 1776  20.807   3.219   3.618
33548W        W 1777  34.446  35.455  12.454
33549W        W 1778  44.993  26.244   3.714
33550W        W 1779  42.330  21.761  13.511
33551W        W 1780   4.226  11.247   0.890
33552W        W 1781   3.747  40.454  12.400
33553W        W 1782   5.733  41.549  14.435
33554W        W 1783   4.719  16.130   2.299
33555W        W 1784   4.238  20.639   3.865
33556W        W 1785  40.573  44.842   1.325
33557W        W 1786  14.894  27.715   1.187
33558W        W 1787  40.002  16.791   4.129
33559W        W 1788   0.799   0.737   4.349
33560W        W 1789  11.296  26.068  14.565
33561W        W 1790  25.219  24.747   1.390
33562W        W 1791  43.511  10.261  14.715
33563W        W 1792  34.850  15.821   0.278
33564W        W 1793  35.938   1.283  13.745
33565W        W 1794  43.279  28.465  13.840
33566W        W 1795  25.063  40.810   2.821
33567W        W 1796   1.418  31.720  11.947
33568W        W 1797  27.289  16.544   1.347
33569W        W 1798  29.392  30.825  12.061
33570W        W 1799  39.096  36.607  10.783
33571W        W 1800  22.152  31.221   4.576
33572W        W 1801  22.277  28.142   1.397
33573W        W 1802  36.579   5.654   1.431
33574W        W 1803  36.864  26.525   0.815
33575W        W 1804  43.352  31.337  14.713
33576W        W 1805   7.223  10.433  10.222
33577W        W 1806  19.847   2.299   3.344
33578W        W 1807  37.107  14.188   3.922
33579W        W 1808  40.837  35.827   1.728
33580W        W 1809  10.692  21.494  10.402
33581W        W 1810  26.944  22.622  12.017
33582W        W 1811  43.995  20.011  10.752
33583W        W 1812  19.719  18.774  14.760
33584W        W 1813   8.556   1.081   0.410
33585W        W 1814  37.012  24.684  13.324
33586W        W 1815   5.307  40.874   1.132
33587W        W 1816  17.274  28.415  13.572
33588W        W 1817  42.370  24.930   0.796
33589W        W 1818  39.420  36.413  12.574
33590W        W 1819   0.926  25.005  10.033
33591W        W 1820  15.569  14.117   4.560
33592W        W 1821   6.373   5.546  11.578
33593W        W 1822  25.994  16.079   3.680
33594W        W 1823  32.651  40.326  14.043
33595W        W 1824  22.254  21.893  11.153
33596W        W 1825  17.586  28.096   1.839
33597W        W 1826  32.991  30.240   0.185
33598W        W 1827  19.653  24.776   4.220
33599W        W 1828  29.193  43.808  13.516
33600W        W 1829   5.945  14.119   1.906
33601W        W 1830  16.200  32.300  13.115
33602W        W 1831  23.568  23.487   0.966
33603W        W 1832  38.079  31.191  11.970
33604W        W 1833   0.160  19.326   0.912
33605W        W 1834   6.279  43.253  10.934
33606W        W 1835  20.694  26.540  11.070
33607W        W 1836  30.060  39.759  11.645
33608W        W 1837  27.155  35.407  12.587
33609W        W 1838  26.131   3.207   2.918
33610W        W 1839  39.832   4.150   1.484
33611W        W 1840  41.660  16.678   2.809
33612W        W 1841  30.553   8.382   0.061
33613W        W 1842  16.266  43.891  10.603
33614W        W 1843  10.812  17.550   4.674
33615W        W 1844  27.027  35.159  13.986
33616W        W 1845  30.872  34.003   1.160
33617W        W 1846   5.189  37.020  11.981
33618W        W 1847  42.763  22.601   0.743
33619W        W 1848  38.566  32.653  10.025
33620W        W 1849  34.596  36.377  14.908
33621W        W 1850   7.087  29.122  11.361
33622W        W 1851  34.694   9.773   1.843
33623W        W 1852   3.413  34.399   4.364
33624W        W 1853  14.630  19.695  11.894
33625W        W 1854  29.006   9.185   2.776
33626W        W 1855  31.906   5.133  12.138
33627W        W 1856  35.241   8.400   9.894
33628W        W 1857  38.523   3.229  12.707
33629W        W 1858  34.236  18.211   4.996
33630W        W 1859  42.812  39.400  10.596
33631W        W 1860   9.375  43.951  12.499
33632W        W 1861  15.049  28.271  11.192
33633W        W 1862  39.531  44.939   2.279
33634W        W 1863  31.294   9.116   1.138
33635W        W 1864  33.117   4.639   2.775
33636W        W 1865   8.407  39.735  14.539
33637W        W 1866   4.485  28.103   4.565
33638W        W 1867  13.100  14.204  10.878
33639W        W 1868  17.574  19.852   0.082
33640W        W 1869   5.874  27.361   2.370
33641W        W 1870  25.402  37.573   2.900
33642W        W 1871  30.514  26.494   0.111
33643W        W 1872   5.290  14.214   1.640
33644W        W 1873   2.678  43.357  13.920
33645W        W 1874   7.227  42.153  11.057
33646W        W 1875  15.640  14.725   3.653
33647W        W 1876   8.942  20.594   4.631
33648W        W 1877  17.293   1.727  10.759
33649W        W 1878  27.118  40.229   0.382
33650W        W 1879   2.622  42.689   3.202
33651W        W 1880  32.558  43.241  11.179
33652W        W 1881  26.336  44.922   3.064
33653W        W 1882  36.082   3.486   1.821
33654W        W 1883  43.539  15.146  11.521
33655W        W 1884  14.271  25.036   4.660
33656W        W 1885  36.767  20.960   3.305
33657W        W 1886  44.030   4.034   4.154
33658W        W 1887  13.133   9.371  12.378
33659W        W 1888   8.660   7.567   0.463
33660W        W 1889  15.045   0.241   4.369
33661W        W 1890  16.295  31.514  14.850
33662W        W 1891  36.473  36.595   0.834
33663W        W 1892   1.286  21.668  13.000
33664W        W 1893   0.091  40.214  10.415
33665W        W 1894   4.749  27.705  14.540
33666W        W 1895  34.904  39.110   1.199
33667W        W 1896  27.542  19.702  13.456
33668W        W 1897  25.272   5.436   3.804
33669W        W 1898  38.849  43.058  10.770
33670W        W 1899   5.716  36.187  11.146
33671W        W 1900   1.915  21.738  12.583
33672W        W 1901  13.513  40.389   2.909
33673W        W 1902  11.327   9.437  10.494
33674W        W 1903  41.959  32.592   0.853
33675W        W 1904  31.079  31.063  12.925
33676W        W 1905   9.768  39.615  14.562
33677W        W 1906  38.473  10.856   4.989
33678W        W 1907  21.317  29.678   2.639
33679W        W 1908  15.908   2.519   2.528
33680W        W 1909  29.714  29.863   5.103
33681W        W 1910  10.550   9.084   4.916
33682W        W 1911  33.686  40.831   4.413
33683W        W 1912   3.335  44.795  14.263
33684W        W 1913  37.524  15.814  12.916
33685W        W 1914  23.604  33.128   1.008
33686W        W 1915  22.713  33.921  11.497
33687W        W 1916  36.076   6.278   1.914
33688W        W 1917  21.418   0.744   5.011
33689W        W 1918   2.337  11.316  14.429
33690W        W 1919  18.897  30.874   1.199
33691W        W 1920   4.368  15.827  12.524
33692W        W 1921  22.713  30.358  13.533
33693W        W 1922  23.630   7.382  13.355
33694W        W 1923  41.782  24.068  12.471
33695W        W 1924  25.770  20.702   1.779
33696W        W 1925  37.626  35.499  12.247
33697W        W 1926   3.365  37.047  12.343
33698W        W 1927  35.576  29.438   4.580
33699W        W 1928   7.327   0.705  13.305
33700W        W 1929  15.975  38.061   2.999
33701W        W 1930  24.293  29.055  13.421
33702W        W 1931  30.824  44.127   1.750
33703W        W 1932  17.792  18.713   1.118
33704W        W 1933  25.592  23.184  13.317
33705W        W 1934  24.699  27.985   1.614
33706W        W 1935  20.525  19.690  11.888
33707W        W 1936  39.871  34.468  11.466
33708W        W 1937   1.791  23.013   2.719
33709W        W 1938  20.105  27.414  12.541
33710W        W 1939  37.261   9.254   3.742
33711W        W 1940   2.939  12.455  13.113
33712W        W 1941  11.751  42.481   4.709
33713W        W 1942  23.726  24.028   2.087
33714W        W 1943  13.104  30.117   4.109
33715W        W 1944  10.844  11.136  12.555
33716W        W 1945  24.409  19.128   4.902
33717W        W 1946  42.414  26.450  13.906
33718W        W 1947  17.337  15.868   9.939
33719W        W 1948  32.991  22.958  10.704
33720W        W 1949  38.359  43.344   4.194
33721W        W 1950  19.570  39.046  14.793
33722W        W 1951  10.865  10.613  12.301
33723W        W 1952  38.024  14.017   2.152
33724W        W 1953  18.301  41.994   3.388
33725W        W 1954   5.572  34.571  11.074
33726W        W 1955  31.874  25.015  11.972
33727W        W 1956  24.708   3.959  11.972
33728W        W 1957   9.096  38.953   2.262
33729W        W 1958  17.002  19.345  12.061
33730W        W 1959  30.574   1.904   4.979
33731W        W 1960   2.479  15.320   0.297
33732W        W 1961  43.747  41.072   0.969
33733W        W 1962  35.553  14.482  12.505
33734W        W 1963  39.574  20.356   2.767
33735W        W 1964  31.701  27.620  12.479
33736W        W 1965   9.482  32.159  13.917
33737W        W 1966   2.519  13.659   3.187
33738W        W 1967  29.077  21.906   0.874
33739W        W 1968   9.749  14.582  12.185
33740W        W 1969  23.429  27.165   1.512
33741W        W 1970  36.649  41.849  10.655
33742W        W 1971  23.948   8.498  11.547
33743W        W 1972   9.928  41.084  14.970
33744W        W 1973  15.542  38.987   1.129
33745W        W 1974   2.968  35.328  13.554
33746W        W 1975  38.938   8.925   0.822
33747W        W 1976  21.124  17.843  14.541
33748W        W 1977  39.860  22.818  13.386
33749W        W 1978  10.452  43.439  11.914
33750W        W 1979  23.284   7.779   3.020
33751W        W 1980  16.807  23.608   2.151
33752W        W 1981  36.929  26.013   1.953
33753W        W 1982   0.368  10.128  13.215
33754W        W 1983  36.927   2.671   3.100
33755W        W 1984  30.493   2.413  12.930
33756W        W 1985  28.072  30.218   3.691
33757W        W 1986  23.107  17.555   1.853
33758W        W 1987  24.639  39.323   1.246
33759W        W 1988  16.574  27.745   1.820
33760W        W 1989   3.905   5.734   1.357
33761W        W 1990  30.736  10.388  13.465
33762W        W 1991  26.506  17.751   3.792
33763W        W 1992  36.852  10.206  12.368
33764W        W 1993  40.449  34.886  14.829
33765W        W 1994  31.835  14.801  12.033
33766W        W 1995  19.986  42.890  13.164
33767W        W 1996  37.784  35.299  13.347
33768W        W 1997  34.954  44.965   1.195
33769W        W 1998  43.881  40.937  14.221
33770W        W 1999  42.817   7.007   2.415
33771W        W 2000   5.655  40.817   3.937
33772W        W 2001  42.367  43.550   0.328
33773W        W 2002  14.001  22.111   4.528
33774W        W 2003  10.838  25.098  11.108
33775W        W 2004   3.784   9.488  13.869
33776W        W 2005   3.430  34.287   4.871
33777W        W 2006  22.018  17.597  12.124
33778W        W 2007  44.289  27.668  13.462
33779W        W 2008  36.525  11.135  10.684
33780W        W 2009  30.317  44.796   0.714
33781W        W 2010  28.679   1.096   0.783
33782W        W 2011   4.991  26.706   4.296
33783W        W 2012  41.322   2.274  12.818
33784W        W 2013  19.055  26.080   0.454
33785W        W 2014   9.019  39.051  14.531
33786W        W 2015  23.242  33.914   4.509
33787W        W 2016   2.776   3.638   2.781
33788W        W 2017  12.966   3.671  13.494
33789W        W 2018  42.693  44.536   1.668
33790W        W 2019  40.259  28.526  14.012
33791W        W 2020  17.058   4.354  12.992
33792W        W 2021  36.443   9.969   1.454
33793W        W 2022   6.884  38.680  10.840
33794W        W 2023  11.630  42.049   3.721
33795W        W 2024  43.917  35.481  13.423
33796W        W 2025  17.313  29.184   2.298
33797W        W 2026   3.213  32.660   0.909
33798W        W 2027  42.485  24.444  14.070
33799W        W 2028   0.215   2.027  11.135
33800W        W 2029  44.868  27.852   1.930
33801W        W 2030  35.624  40.001   4.812
33802W        W 2031  33.385  18.662  13.221
33803W        W 2032   5.204  37.853   4.292
33804W        W 2033  33.964  40.037   2.798
33805W        W 2034   6.865  42.788  12.039
33806W        W 2035  23.738  43.963   1.275
33807W        W 2036  23.300   1.925  11.528
33808W        W 2037  27.084  21.876   3.276
33809W        W 2038  20.952  32.383   0.814
33810W        W 2039  30.338  35.913   0.812
33811W        W 2040  27.467  30.098  14.358
33812W        W 2041  22.284  39.896  11.121
33813W        W 2042   4.496  27.045   1.365
33814W        W 2043  43.036  32.895  12.950
33815W        W 2044   2.416   2.243   4.655
33816W        W 2045  34.473  34.187  13.363
33817W        W 2046  30.418  10.143   3.235
33818W        W 2047  19.782  31.921   0.907
33819W        W 2048  26.542   1.372   3.184
33820W        W 2049  21.286   0.366  12.013
33821W        W 2050   6.334   5.787   3.439
33822W        W 2051  20.116   0.231   1.983
33823W        W 2052  11.310   9.616  11.989
33824W        W 2053  17.732  17.173  14.995
33825W        W 2054   2.240   5.425  14.582
33826W        W 2055  41.553   9.833  13.920
33827W        W 2056  10.806  24.247  14.493
33828W        W 2057  21.133  31.920   3.170
33829W        W 2058   6.351  23.596   2.190
33830W        W 2059  19.566  18.670   2.744
33831W        W 2060  32.524  38.757   2.384
33832W        W 2061  42.018  26.650  10.913
33833W        W 2062  13.684  22.557  12.552
33834W        W 2063   4.480   3.899   1.888
33835W        W 2064  12.825   1.137   2.322
33836W        W 2065  40.311  12.564   2.202
33837W        W 2066   6.936  43.263  12.188
33838W        W 2067  23.453   4.831  14.078
33839W        W 2068  26.192  31.484   3.331
33840W        W 2069  16.230  24.389  14.173
33841W        W 2070  44.089   6.528   1.404
33842W        W 2071   7.300   6.107   4.393
33843W        W 2072   0.186  37.832  13.855
33844W        W 2073   2.459  16.254  13.040
33845W        W 2074  10.536  22.127   4.602
33846W        W 2075   3.214   2.390  11.343
33847W        W 2076  14.657   6.228  11.558
33848W        W 2077  35.836  27.499  12.021
33849W        W 2078  41.763  26.723   0.604
33850W        W 2079  15.755  43.505  12.989
33851W        W 2080  27.298  14.466  12.609
33852W        W 2081  24.031  33.163   1.403
33853W        W 2082   0.956  14.263   3.640
33854W        W 2083  23.544  18.581   2.163
33855W        W 2084  11.928   0.833   4.081
33856W        W 2085   2.927  29.891  13.412
33857W        W 2086  43.940   5.930   0.835
33858W        W 2087  20.986  26.925  12.025
33859W        W 2088  22.813  33.661   4.436
33860W        W 2089  25.701   5.229  10.181
33861W        W 2090   4.435  32.600  11.512
33862W        W 2091  38.101  27.094  11.107
33863W        W 2092  42.791  15.552  12.010
33864W        W 2093  32.405   7.281  12.097
33865W        W 2094  34.857  27.053  10.923
33866W        W 2095  44.846  20.013   0.446
33867W        W 2096   5.376   9.404  14.044
33868W        W 2097  27.494   3.972   1.873
33869W        W 2098  37.663  12.325   1.384
33870W        W 2099  21.267  15.381  12.965
33871W        W 2100   5.395  36.305  11.665
33872W        W 2101  40.345   7.577  11.029
33873W        W 2102   0.971   5.982   4.139
33874W        W 2103  36.361  14.640  12.088
33875W        W 2104   6.012  35.467   3.691
33876W        W 2105  36.752  20.768  14.878
33877W        W 2106  43.798  23.769  11.191
33878W        W 2107  11.110   1.788  10.904
33879W        W 2108  36.474  39.383  12.149
33880W        W 2109  42.257  27.561   1.744
33881W        W 2110  38.828  32.629   0.662
33882W        W 2111  28.858   9.544  14.840
33883W        W 2112  39.083  35.501   4.544
33884W        W 2113  29.142  31.512  12.015
33885W        W 2114   3.902  21.351  13.581
33886W        W 2115  23.559   5.166   1.094
33887W        W 2116   2.922  28.179   4.664
33888W        W 2117  18.987  10.240   4.517
33889W        W 2118  10.812  31.200   1.711
33890W        W 2119  14.562   6.256   3.781
33891W        W 2120  20.064  38.182  12.580
33892W        W 2121  42.780  24.764  11.060
33893W        W 2122  14.520  27.606  12.357
33894W        W 2123  28.595  16.836   3.670
33895W        W 2124  22.107   1.277  10.700
33896W        W 2125   5.954  34.073  11.178
33897W        W 2126  24.414  31.069   3.750
33898W        W 2127  26.124  40.974   3.440
33899W        W 2128  17.171  10.397   3.715
33900W        W 2129   7.709   0.717  13.827
33901W        W 2130  29.989  29.620   1.618
33902W        W 2131  38.926  39.309   1.196
33903W        W 2132  21.481   8.734  11.656
33904W        W 2133  32.987   1.816  13.472
33905W        W 2134  10.186  30.158   0.957
33906W        W 2135  10.495   3.237   2.305
33907W        W 2136  19.111  19.767   0.714
33908W        W 2137  28.177  13.866   4.584
33909W        W 2138  15.126  29.509  13.489
33910W        W 2139  44.324   5.527   1.684
33911W        W 2140  18.367  26.199  11.898
33912W        W 2141  16.117  10.104   0.452
33913W        W 2142  40.531  31.944   4.134
33914W        W 2143   1.241  17.648  12.881
33915W        W 2144  34.605  16.301  12.376
33916W        W 2145  27.102  14.506  13.532
33917W        W 2146  38.894  44.951   0.824
33918W        W 2147  17.042  35.977  10.569
33919W        W 2148  20.597  26.918  14.996
33920W        W 2149  36.559   9.884  14.947
33921W        W 2150  19.245  41.785   2.421
33922W        W 2151  38.705  42.881  11.595
33923W        W 2152  44.959   9.742   0.749
33924W        W 2153  44.578  23.547   1.362
33925W        W 2154   3.155   2.044  11.971
33926W        W 2155  15.671  15.086   0.206
33927W        W 2156  42.054   5.036  14.935
33928W        W 2157  35.989  14.040   4.220
33929W        W 2158  31.906  41.327   2.751
33930W        W 2159  11.585  25.140  11.615
33931W        W 2160  19.236  38.033  13.630
33932W        W 2161  38.916  31.902  10.334
33933W        W 2162  42.436  35.017  10.688
33934W        W 2163  38.105  30.402  14.105
33935W        W 2164  24.445  28.099   5.207
33936W        W 2165  12.281  17.978  12.347
33937W        W 2166  18.249  27.834   3.676
33938W        W 2167  42.974   9.884   0.967
33939W        W 2168  12.906  39.817   0.418
33940W        W 2169  12.058  35.419  13.538
33941W        W 2170  19.108  26.519   1.401
33942W        W 2171   2.860  20.141   0.765
33943W        W 2172   2.913  40.349   4.921
33944W        W 2173  13.826   5.045  14.998
33945W        W 2174  37.528  43.187   0.997
33946W        W 2175  20.508  16.258   1.876
33947W        W 2176  42.346  42.699   3.666
33948W        W 2177  41.153  37.859  13.601
33949W        W 2178   9.391  27.005  11.963
33950W        W 2179  32.273   9.704   0.438
33951W        W 2180  39.871  31.992   4.523
33952W        W 2181  26.624  11.648  14.910
33953W        W 2182  33.338  25.160   3.001
33954W        W 2183   6.331  13.749  11.510
33955W        W 2184  44.407   6.620  12.447
33956W        W 2185  10.246  43.788  12.930
33957W        W 2186  37.634  39.872   4.102
33958W        W 2187  36.056  36.016   2.782
33959W        W 2188   9.270  31.903   2.247
33960W        W 2189   5.691  34.489   2.697
33961W        W 2190   1.022  39.267   5.038
33962W        W 2191  38.922  13.573   1.414
33963W        W 2192  30.063  10.713   2.809
33964W        W 2193  38.190  20.252  12.407
33965W        W 2194  32.127  41.003  13.535
33966W        W 2195   3.864  10.075  10.224
33967W        W 2196   1.238   5.309  11.685
33968W        W 2197  19.801  29.288  13.385
33969W        W 2198  10.438  43.959  13.365
33970W        W 2199  35.351   2.295   2.676
33971W        W 2200  30.781  35.866   1.461
33972W        W 2201  14.639   7.394  11.694
33973W        W 2202   9.621   4.392   4.230
33974W        W 2203  26.875  11.915  13.538
33975W        W 2204  29.571  21.497  10.799
33976W        W 2205  39.302  13.693   2.140
33977W        W 2206   2.774   9.578  14.881
33978W        W 2207  37.720   6.284  11.114
33979W        W 2208  41.604  27.099   0.287
33980W        W 2209  34.247  16.003  12.064
33981W        W 2210   3.457  42.905  13.887
33982W        W 2211  25.598  23.222   3.459
33983W        W 2212   1.710  33.639  13.949
33984W        W 2213   3.264   2.351   1.667
33985W        W 2214  38.597  10.864  10.072
33986W        W 2215   6.978  22.818   2.553
33987W        W 2216  17.160  44.395  12.926
33988W        W 2217  23.472  40.353  12.777
33989W        W 2218   2.074  36.801  11.366
33990W        W 2219  32.487  11.485  14.002
33991W        W 2220   7.270  31.079   2.150
33992W        W 2221  33.236  10.782   2.902
33993W        W 2222  39.542  18.609   3.229
33994W        W 2223  21.469  35.517  11.585
33995W        W 2224   9.433  23.035   1.183
33996W        W 2225  25.688  30.688   5.015
33997W        W 2226  33.606  31.941   0.493
33998W        W 2227  16.265  19.955   2.282
33999W        W 2228  26.510  44.791   4.633
34000W        W 2229   9.912   9.053   0.346
34001W        W 2230  38.146  38.894   1.339
34002W        W 2231  23.964   4.351   0.997
34003W        W 2232  38.832  35.970  14.369
34004W        W 2233  34.483   6.393   3.781
34005W        W 2234  30.222   9.796   2.813
34006W        W 2235  23.964  40.308   2.237
34007W        W 2236  34.422  38.854  10.730
34008W        W 2237  17.509  42.734   0.016
34009W        W 2238  20.732   4.284  13.313
34010W        W 2239   4.304   7.721  13.466
34011W        W 2240  44.298  20.003   1.394
34012W        W 2241  29.007   8.855  14.316
34013W        W 2242   5.831  39.472   2.352
34014W        W 2243  31.173  11.571   3.344
34015W        W 2244  24.959   5.230   3.424
34016W        W 2245  41.978  27.116   1.911
34017W        W 2246  43.274   4.953  11.656
34018W        W 2247   7.249  16.622   2.627
34019W        W 2248  34.128  15.638   1.046
34020W        W 2249  23.534  31.119  12.487
34021W        W 2250  41.981  36.121   3.142
34022W        W 2251   6.379  32.606   0.186
34023W        W 2252  23.407  17.768  11.226
34024W        W 2253  39.684   8.241   4.564
34025W        W 2254  13.687  40.567   1.465
34026W        W 2255  33.900  38.892   1.297
34027W        W 2256  37.543  44.231  11.194
34028W        W 2257  44.042   7.803  14.932
34029W        W 2258  27.893  23.037   3.147
34030W        W 2259   8.779  40.652   2.345
34031W        W 2260  38.384  38.509   2.213
34032W        W 2261  26.666  34.843  13.046
34033W        W 2262   8.312  10.280  12.235
34034W        W 2263  18.976  40.414   4.179
34035W        W 2264  42.861   1.218   1.633
34036W        W 2265  14.049  15.173  11.436
34037W        W 2266  38.296  17.707   0.841
34038W        W 2267  33.686  37.048   4.416
34039W        W 2268  15.288  40.388   4.473
34040W        W 2269   3.258  44.827   0.794
34041W        W 2270  40.508   5.626  11.984
34042W        W 2271  16.139   8.946   3.669
34043W        W 2272  22.456  24.492   4.122
34044W        W 2273   1.656  28.351  11.080
34045W        W 2274  29.536  28.145  13.426
34046W        W 2275  39.326  18.760   3.747
34047W        W 2276  33.858  17.535   0.290
34048W        W 2277  36.899  30.946   1.267
34049W        W 2278  44.034  27.968  13.892
34050W        W 2279   5.356  29.967  10.683
34051W        W 2280  33.187  10.103   1.406
34052W        W 2281  14.834  27.286  11.118
34053W        W 2282   4.434  33.145   1.202
34054W        W 2283  19.693   2.677   4.170
34055W        W 2284  14.379  16.197   4.751
34056W        W 2285  21.058  29.444   2.239
34057W        W 2286  22.896  33.094  11.426
34058W        W 2287   7.570   5.316  11.955
34059W        W 2288  40.554   5.873   0.371
34060W        W 2289  31.072  29.941   2.288
34061W        W 2290  24.984  35.811  14.455
34062W        W 2291   4.293  25.953   3.158
34063W        W 2292   1.489   1.815  11.229
34064W        W 2293  18.766  41.999  13.964
34065W        W 2294  30.256  37.928  13.484
34066W        W 2295   6.401  12.817   4.189
34067W        W 2296   0.023  30.379   3.804
34068W        W 2297  24.597  13.279   3.856
34069W        W 2298  37.457  22.788   4.592
34070W        W 2299  27.396  40.863   4.061
34071W        W 2300  33.623  17.901   5.694
34072W        W 2301  26.384  43.187  12.352
34073W        W 2302  22.553  10.168  14.847
34074W        W 2303   2.757  42.788   4.480
34075W        W 2304  31.903   7.453  13.231
34076W        W 2305  42.419  32.285  13.189
34077W        W 2306   2.809   3.339  13.822
34078W        W 2307  19.691  26.179   3.627
34079W        W 2308  35.809   8.691  14.493
34080W        W 2309  38.452  25.294  12.049
34081W        W 2310  27.914  32.214   0.398
34082W        W 2311  39.617  20.022  11.586
34083W        W 2312   9.256  17.674   1.190
34084W        W 2313   3.400  13.010  12.260
34085W        W 2314  35.702   3.655   3.199
34086W        W 2315  13.023  40.932   3.632
34087W        W 2316  14.699  35.465   3.088
34088W        W 2317  24.452  34.990   1.810
34089W        W 2318  10.380  17.091   2.083
34090W        W 2319   8.161  26.965   0.764
34091W        W 2320  41.791  13.337  12.191
34092W        W 2321  16.027  42.729  13.834
34093W        W 2322   0.752   9.373   3.863
34094W        W 2323  40.344  27.253   3.903
34095W        W 2324  30.602  43.973   4.565
34096W        W 2325  23.095  38.416   3.120
34097W        W 2326  28.467  10.277  12.950
34098W        W 2327   3.860  41.710  13.142
34099W        W 2328  12.593  15.754  10.586
34100W        W 2329   7.471   0.737  12.473
34101W        W 2330  43.790  42.189  13.392
34102W        W 2331   0.962  25.788   3.417
34103W        W 2332   1.590  36.743  11.603
34104W        W 2333  35.913  18.096   0.291
34105W        W 2334   7.358  13.117   2.876
34106W        W 2335  21.533  14.334  12.558
34107W        W 2336  29.497   5.820   1.925
34108W        W 2337  41.460   6.805  12.925
34109W        W 2338  28.705  18.184   0.996
34110W        W 2339  35.491  24.565  11.670
34111W        W 2340   3.219  28.934  12.036
34112W        W 2341  40.646  41.523   2.844
34113W        W 2342  35.656  43.578   2.852
34114W        W 2343  40.266  36.367   2.183
34115W        W 2344   7.292  22.439  12.584
34116W        W 2345  17.247   8.186  12.043
34117W        W 2346  44.333   9.358   0.309
34118W        W 2347  31.397  44.947  14.882
34119W        W 2348  37.836  22.123  12.942
34120W        W 2349  27.491  14.358  13.841
34121W        W 2350   8.763  41.742   3.066
34122W        W 2351  17.260   9.946   1.866
34123W        W 2352  25.785  34.457  12.852
34124W        W 2353  34.917  28.425   2.202
34125W        W 2354   4.816   3.573   3.753
34126W        W 2355  44.979  35.001  12.797
34127W        W 2356   9.085  14.697   3.170
34128W        W 2357  43.851  43.883  12.939
34129W        W 2358  20.727   5.741  14.289
34130W        W 2359   3.911  30.381   2.952
34131W        W 2360  14.234  32.209   3.355
34132W        W 2361  27.691  16.517  10.685
34133W        W 2362  19.346  23.458   3.276
34134W        W 2363  12.760  16.301  11.700
34135W        W 2364  27.669  27.746   2.876
34136W        W 2365  23.574  12.764   2.141
34137W        W 2366  26.777   9.728  11.905
34138W        W 2367  17.243  32.597   3.718
34139W        W 2368   5.785   0.004   0.961
34140W        W 2369  38.830   0.774   3.202
34141W        W 2370  27.435  41.352  11.222
34142W        W 2371  23.727  20.478   0.301
34143W        W 2372   3.415  24.272  10.664
34144W        W 2373  27.022  35.419   5.475
34145W        W 2374  44.320  21.586   0.882
34146W        W 2375  11.897  16.518  14.815
34147W        W 2376   4.627  21.156   2.117
34148W        W 2377  32.885   7.275  12.958
34149W        W 2378  21.580  33.894  12.096
34150W        W 2379  25.120  34.964  13.934
34151W        W 2380   3.117   5.457  14.516
34152W        W 2381  20.775   1.388  11.092
34153W        W 2382  16.372  25.485   3.772
34154W        W 2383  19.391   1.411  11.602
34155W        W 2384  30.830  30.246   3.301
34156W        W 2385  44.312   8.508  12.122
34157W        W 2386  26.210  43.251  12.855
34158W        W 2387   5.310  25.933   3.203
34159W        W 2388  17.493  43.470   3.243
34160W        W 2389  12.210  18.394  13.173
34161W        W 2390   7.771  37.703   4.595
34162W        W 2391   1.835   2.217   2.809
34163W        W 2392  14.739  32.930   4.184
34164W        W 2393  23.628  43.749  13.186
34165W        W 2394  36.616   4.164   0.682
34166W        W 2395  34.383  35.065  13.460
34167W        W 2396   4.955  28.001  11.820
34168W        W 2397   3.968  22.153   1.203
34169W        W 2398   0.656  25.715   0.567
34170W        W 2399  40.863  20.477  12.146
34171W        W 2400  24.080  35.584   1.349
34172W        W 2401  36.522  33.483   2.328
34173W        W 2402  14.964  31.367   2.260
34174W        W 2403  17.167  40.447   9.892
34175W        W 2404  26.760   3.789  13.605
34176W        W 2405  34.602  23.986  10.703
34177W        W 2406   0.554  19.083  11.651
34178W        W 2407   8.227  12.594  14.722
34179W        W 2408  13.647  27.143  11.614
34180W        W 2409  22.394   9.108   4.623
34181W        W 2410   8.050  22.696   2.827
34182W        W 2411  29.322  22.197   1.276
34183W        W 2412  12.677  21.778  12.340
34184W        W 2413   0.609  26.599  13.032
34185W        W 2414  43.669   1.432  12.561
34186W        W 2415   5.889  13.461   3.642
34187W        W 2416  41.249  20.798  13.463
34188W        W 2417   9.307  20.088  12.087
34189W        W 2418  18.674  43.033  12.018
34190W        W 2419  17.720   1.901   4.077
34191W        W 2420  33.151  25.494   0.631
34192W        W 2421  39.489  22.780   1.802
34193W        W 2422  33.194  14.648  13.287
34194W        W 2423  10.267  19.536   1.186
34195W        W 2424   5.917   4.996   2.050
34196W        W 2425  22.974  44.928  14.855
34197W        W 2426  40.955  29.965   5.061
34198W        W 2427  17.770  43.656   2.859
34199W        W 2428  15.649  37.280   2.638
34200W        W 2429  22.476  41.714  14.516
34201W        W 2430  42.920  38.081  11.170
34202W        W 2431   0.894  29.344   3.896
34203W        W 2432  12.583   9.904  13.455
34204W        W 2433  27.413  13.352  14.793
34205W        W 2434   2.625  12.170  14.682
34206W        W 2435  28.383  42.757  14.494
34207W        W 2436   7.918  32.585  12.031
34208W        W 2437   6.831  43.354   2.524
34209W        W 2438  26.979  36.644   0.898
34210W        W 2439   2.066  19.403  14.310
34211W        W 2440  20.092  19.380  10.215
34212W        W 2441  30.463  22.136   4.877
34213W        W 2442  16.713  24.332   4.434
34214W        W 2443  19.322  10.364   4.123
34215W        W 2444   5.529  40.046  12.653
34216W        W 2445  25.674  42.015   2.315
34217W        W 2446  12.061   1.870   4.880
34218W        W 2447  31.643   8.783   0.483
34219W        W 2448  40.786  42.872  13.517
34220W        W 2449  43.486  11.298   1.877
34221W        W 2450   2.671  19.235  12.530
34222W        W 2451   8.156  37.342  12.425
34223W        W 2452  42.345  44.566   4.569
34224W        W 2453  29.654   2.729  14.429
34225W        W 2454  11.114  27.326   3.212
34226W        W 2455   6.773   3.354   3.445
34227W        W 2456  44.011   7.917   3.778
34228W        W 2457  17.966  10.712  10.647
34229W        W 2458  10.915  33.011  14.534
34230W        W 2459  41.047   3.704   1.740
34231W        W 2460  29.768  21.848  11.133
34232W        W 2461  36.680  28.552   5.190
34233W        W 2462   4.261  28.537   4.424
34234W        W 2463   1.037  13.808  11.320
34235W        W 2464   0.803  43.313   2.705
34236W        W 2465  39.057  43.276  13.837
34237W        W 2466  32.569  24.262   1.484
34238W        W 2467  28.179  43.633  14.334
34239W        W 2468   7.679   6.252   2.254
34240W        W 2469  41.821  14.683   4.843
34241W        W 2470  37.587  13.356  14.315
34242W        W 2471  44.792  13.285   1.958
34243W        W 2472  10.237  11.325   3.219
34244W        W 2473  27.175  39.793  11.638
34245W        W 2474  40.523  15.815   2.833
34246W        W 2475   3.367  13.204  14.468
34247W        W 2476  23.593   6.739   2.787
34248W        W 2477   9.481   9.838  11.905
34249W        W 2478  33.406   4.813  12.124
34250W        W 2479  11.361   0.460   1.239
34251W        W 2480  37.272   3.214   5.052
34252W        W 2481  34.051  23.706   1.583
34253W        W 2482  25.477  23.662   0.412
34254W        W 2483  21.448  22.865  12.420
34255W        W 2484  24.039  19.019  11.731
34256W        W 2485  33.600  31.728   1.404
34257W        W 2486  16.221   0.609   0.541
34258W        W 2487  35.850  21.121  12.137
34259W        W 2488  38.996   4.467   4.542
34260W        W 2489  12.302  20.190   4.746
34261W        W 2490  32.308  15.598   0.372
34262W        W 2491  14.730  35.614  10.853
34263W        W 2492  26.434   2.283  12.637
34264W        W 2493   9.607  38.839   2.259
34265W        W 2494   8.183  10.584  14.877
34266W        W 2495   3.267   2.191   0.660
34267W        W 2496  10.636  13.842  11.192
34268W        W 2497   6.869  29.047   1.237
34269W        W 2498  23.424  10.367  14.378
34270W        W 2499  43.883   5.331  10.596
34271W        W 2500  25.675  12.399   0.505
34272W        W 2501  40.062  14.144  11.488
34273W        W 2502  42.044  12.276   0.014
34274W        W 2503   8.633  41.252   3.123
34275W        W 2504  31.093  14.751  13.525
34276W        W 2505  11.103  32.813  11.979
34277W        W 2506  31.994  26.305   0.166
34278W        W 2507  32.003  43.989   1.203
34279W        W 2508  43.906  34.890   2.325
34280W        W 2509  31.138  35.892  13.460
34281W        W 2510  19.914  43.149   4.053
34282W        W 2511   6.473  11.705  10.617
34283W        W 2512  29.332  41.901   4.250
34284W        W 2513  43.039  15.785   4.909
34285W        W 2514  14.834  14.116   2.710
34286W        W 2515  30.506   5.907   1.688
34287W        W 2516  42.481   1.776  10.702
34288W        W 2517  16.036   9.635  11.159
34289W        W 2518  38.868  12.647   2.665
34290W        W 2519  25.229  39.948  11.505
34291W        W 2520  35.108   3.179  12.181
34292W        W 2521  27.488   2.718   0.668
34293W        W 2522   2.612   9.581  13.921
34294W        W 2523   4.415  32.652   0.987
34295W        W 2524  37.118  27.518  12.906
34296W        W 2525  27.899  40.877  12.102
34297W        W 2526  29.387  28.442  12.085
34298W        W 2527  22.786  18.863  11.766
34299W        W 2528  11.432  39.187  11.929
34300W        W 2529   8.409  14.911  12.903
34301W        W 2530  13.763  19.026   3.286
34302W        W 2531  37.467   9.106   4.800
34303W        W 2532  30.830   5.520  10.751
34304W        W 2533   0.299  31.792  13.848
34305W        W 2534  25.622  21.510   1.402
34306W        W 2535   7.007  22.720  14.835
34307W        W 2536   2.837  42.749   1.669
34308W        W 2537  24.841  17.663   4.542
34309W        W 2538  25.159  32.544   1.560
34310W        W 2539  31.572  33.927   3.264
34311W        W 2540   4.033   6.397   0.167
34312W        W 2541   3.475  20.137  11.131
34313W        W 2542  42.474  15.777   1.334
34314W        W 2543   6.323  30.053   1.862
34315W        W 2544   0.066  24.910   4.321
34316W        W 2545  21.721  26.062   2.247
34317W        W 2546  21.476  34.564   5.012
34318W        W 2547   6.991  10.808   1.819
34319W        W 2548  22.998  17.170  14.994
34320W        W 2549  28.828  37.089   4.163
34321W        W 2550  24.932   7.702   4.661
34322W        W 2551  39.048   2.742   0.257
34323W        W 2552   9.399  33.121   0.499
34324W        W 2553  11.571   9.586   3.620
34325W        W 2554   5.140  41.495   1.813
34326W        W 2555  30.043  11.157   0.968
34327W        W 2556  37.834   4.506  14.875
34328W        W 2557  30.596  39.036   1.274
34329W        W 2558   9.764  37.178  12.059
34330W        W 2559  18.357  43.353   3.465
34331W        W 2560  16.835  12.676   2.869
34332W        W 2561   6.217  17.841   4.231
34333W        W 2562  24.508  43.562   2.223
34334W        W 2563   2.300  31.418   2.126
34335W        W 2564  15.607   0.440  10.722
34336W        W 2565   6.951   1.877   2.056
34337W        W 2566   3.500   6.302  10.581
34338W        W 2567  18.439  39.608   3.526
34339W        W 2568  23.681  14.294   1.417
34340W        W 2569  23.475  28.229   0.687
34341W        W 2570  12.299  25.923   3.312
34342W        W 2571  43.357  32.584  12.685
34343W        W 2572  12.304  29.640   2.753
34344W        W 2573  42.344  22.095   2.368
34345W        W 2574  27.561  42.254  11.942
34346W        W 2575  20.005  28.516   3.404
34347W        W 2576   8.660  34.656  12.974
34348W        W 2577  28.755   5.249   1.243
34349W        W 2578  15.340   1.402  10.921
34350W        W 2579  21.723  24.998  12.877
34351W        W 2580   6.737  26.420  12.487
34352W        W 2581   8.341  16.603   4.043
34353W        W 2582  29.724  35.941  12.996
34354W        W 2583  15.303  24.529  11.079
34355W        W 2584  33.866   0.735  14.334
34356W        W 2585   7.147  23.965  11.247
34357W        W 2586  11.558  14.834  14.490
34358W        W 2587  41.865   4.304   3.909
34359W        W 2588  40.248   4.056  11.110
34360W        W 2589  43.014  14.572  12.082
34361W        W 2590  23.869  28.029   4.323
34362W        W 2591  44.343  14.034   0.207
34363W        W 2592  27.356   3.263   4.246
34364W        W 2593  36.930   3.735  11.455
34365W        W 2594   6.191   2.396  12.033
34366W        W 2595  14.678   4.421   4.579
34367W        W 2596  36.487  25.554   2.142
34368W        W 2597  19.595  27.201   2.854
34369W        W 2598   5.648  10.710   1.126
34370W        W 2599  42.801  12.073   1.730
34371W        W 2600   3.625  27.628   0.016
34372W        W 2601  12.262  32.426  11.417
34373W        W 2602  23.478  43.326   3.248
34374W        W 2603  26.242  29.403  14.438
34375W        W 2604   6.704   1.795  11.594
34376W        W 2605  19.645   4.828   2.602
34377W        W 2606  37.114  12.877   0.739
34378W        W 2607  36.654  12.132   3.428
34379W        W 2608  41.474  35.984   0.793
34380W        W 2609  40.698  33.383   3.384
34381W        W 2610  42.412  14.710   2.309
34382W        W 2611  37.629   8.221   1.227
34383W        W 2612  10.667  17.120  10.393
34384W        W 2613   3.404  27.478  10.758
34385W        W 2614  35.531  10.284   1.109
34386W        W 2615   9.535  32.565   0.253
34387W        W 2616  15.639  18.577   1.244
34388W        W 2617   7.720  11.374   0.067
34389W        W 2618  10.708   9.113   3.353
34390W        W 2619  17.626  14.677   4.760
34391W        W 2620  39.059   5.500  10.258
34392W        W 2621  33.799   2.843   0.716
34393W        W 2622  14.859  39.577   4.264
34394W        W 2623  16.724  25.323  10.490
34395W        W 2624   1.669   7.876  12.034
34396W        W 2625  12.451  15.583   2.299
34397W        W 2626  24.428  24.070  14.819
34398W        W 2627  18.499  40.408  11.188
34399W        W 2628  23.123  42.131   0.295
34400W        W 2629  33.319  24.156  10.712
34401W        W 2630   3.027   4.344  13.031
34402W        W 2631  40.408  38.078   0.603
34403W        W 2632  27.668   3.795   2.328
34404W        W 2633  40.378  38.671  12.046
34405W        W 2634  26.231  12.536  12.228
34406W        W 2635   0.464  38.987   4.422
34407W        W 2636  15.726  20.836  10.135
34408W        W 2637  20.532  33.399   4.644
34409W        W 2638  20.728   1.348  11.923
34410W        W 2639  10.633  43.340   3.828
34411W        W 2640  23.401  12.811   3.650
34412W        W 2641   6.249   2.020  11.692
34413W        W 2642  25.457   0.694   4.314
34414W        W 2643  20.272  20.684  10.841
34415W        W 2644  27.997   2.675   1.803
34416W        W 2645  16.517  18.101  11.623
34417W        W 2646  24.733  29.243   0.289
34418W        W 2647  22.181  19.494   2.930
34419W        W 2648  42.266  10.584   5.082
34420W        W 2649  21.723  10.751  11.289
34421W        W 2650  29.633  31.277  12.019
34422W        W 2651  38.856   8.233  14.164
34423W        W 2652   1.244  25.427  14.974
34424W        W 2653  36.945   1.728   4.417
34425W        W 2654  13.887   5.352  10.638
34426W        W 2655  39.296  16.597  11.560
34427W        W 2656  39.791  41.085  12.060
34428W        W 2657  36.022  36.336  14.385
34429W        W 2658  43.326   3.201   2.298
34430W        W 2659   1.256  28.184  14.960
34431W        W 2660   3.562  20.188   1.384
34432W        W 2661  24.106  17.812   2.256
34433W        W 2662  18.137   6.827  12.050
34434W        W 2663  10.367   1.038   4.128
34435W        W 2664  35.980  23.730  12.456
34436W        W 2665  16.049  43.913  12.500
34437W        W 2666  19.470  35.590  13.923
34438W        W 2667  44.476   5.907   1.987
34439W        W 2668  28.538  28.015  13.803
34440W        W 2669  37.300  19.231   0.398
34441W        W 2670  23.687  11.433   3.800
34442W        W 2671  21.247  41.860  14.961
34443W        W 2672  29.322  24.210   1.853
34444W        W 2673  13.479  26.173   0.927
34445W        W 2674  14.155   8.840   4.392
34446W        W 2675  44.814   3.871   1.284
34447W        W 2676  22.120  14.602   2.170
34448W        W 2677   9.405  27.674   0.370
34449W        W 2678  27.702  24.627  11.450
34450W        W 2679  32.930  25.116   3.346
34451W        W 2680  27.038   1.429   1.024
34452W        W 2681   7.338  43.790   0.886
34453W        W 2682  16.083  18.364   0.894
34454W        W 2683   8.312   0.229  12.958
34455W        W 2684   3.322  34.926  14.377
34456W        W 2685  33.199  40.856  12.628
34457W        W 2686  44.474   5.694  11.271
34458W        W 2687  23.125  40.092  13.036
34459W        W 2688  33.572   0.425  13.543
34460W        W 2689  15.090  40.913   4.870
34461W        W 2690  37.013  32.012  14.364
34462W        W 2691  21.221  13.133  12.663
34463W        W 2692  18.316  33.505   1.415
34464W        W 2693  41.097  28.572  12.928
34465W        W 2694   7.746   3.009   1.821
34466W        W 2695  44.903  18.235   1.949
34467W        W 2696  42.039  23.739  12.779
34468W        W 2697  17.085  10.222  14.545
34469W        W 2698  18.902  40.512   2.772
34470W        W 2699  10.244  38.444  10.916
34471W        W 2700  10.805  36.250   2.832
34472W        W 2701  40.356  20.666  12.063
34473W        W 2702   1.463  27.923  12.985
34474W        W 2703  10.401  10.983  12.995
34475W        W 2704  11.253   4.281   1.754
34476W        W 2705  42.497  20.686   2.447
34477W        W 2706  15.078  42.767  10.768
34478W        W 2707   4.021   8.816  13.422
34479W        W 2708  36.021  33.283   0.747
34480W        W 2709  36.935  29.618   2.154
34481W        W 2710  33.872  22.987  12.967
34482W        W 2711  42.106  30.445  14.061
34483W        W 2712  12.626   2.622   2.725
34484W        W 2713  12.463   5.887   1.547
34485W        W 2714  19.138  23.676   1.790
34486W        W 2715  27.605  32.469   0.807
34487W        W 2716   2.206  13.110  13.508
34488W        W 2717   1.183  42.064  11.124
34489W        W 2718  24.008  12.736   0.392
34490W        W 2719  44.529  35.140   1.801
34491W        W 2720  30.692  14.762   2.283
34492W        W 2721  35.048  35.436  11.163
34493W        W 2722  43.296  38.476   1.375
34494W        W 2723  24.693  32.369  14.410
34495W        W 2724  41.511  16.149   4.349
34496W        W 2725  26.702  32.892  11.911
34497W        W 2726  14.055  27.213   3.630
34498W        W 2727   0.307  11.186  14.409
34499W        W 2728  26.832  21.178  10.531
34500W        W 2729  35.384  39.620   3.051
34501W        W 2730  20.599   5.433   0.389
34502W        W 2731   5.293  38.196   0.661
34503W        W 2732   7.800   4.391   3.752
34504W        W 2733  20.686  23.681  14.390
34505W        W 2734   1.773  28.890   0.841
34506W        W 2735  43.004  29.575   4.225
34507W        W 2736  36.012   9.874   1.761
34508W        W 2737   6.766  29.106  12.831
34509W        W 2738   4.313  28.518  12.647
34510W        W 2739  25.458  42.433   3.186
34511W        W 2740   2.447  44.389   0.691
34512W        W 2741  28.566  37.861   4.021
34513W        W 2742   3.199  32.739   4.998
34514W        W 2743  38.657  43.543   3.715
34515W        W 2744  23.521  31.634  14.857
34516W        W 2745  12.215  31.174  14.368
34517W        W 2746  17.629  44.436   3.219
34518W        W 2747   6.153  18.467   2.893
34519W        W 2748  37.415  40.526   4.775
34520W        W 2749   7.028   9.883  10.899
34521W        W 2750  11.661  38.841  11.627
34522W        W 2751  28.465  26.179   3.806
34523W        W 2752   7.460  22.618  11.242
34524W        W 2753   2.192  22.997  14.985
34525W        W 2754  40.493  18.013  14.644
34526W        W 2755  31.811  34.368   3.168
34527W        W 2756   5.912  23.225   0.750
34528W        W 2757  11.448  29.665   3.217
34529W        W 2758   4.444  12.791   2.662
34530W        W 2759   1.885  15.876  14.051
34531W        W 2760  44.048   6.615  11.999
34532W        W 2761  13.233   0.570   2.666
34533W        W 2762  19.782  21.168  10.278
34534W        W 2763  44.864  15.738   1.280
34535W        W 2764   6.505  10.673  11.548
34536W        W 2765  38.466  12.346   0.545
34537W        W 2766  17.852  36.434   2.198
34538W        W 2767  15.219  32.150   4.405
34539W        W 2768   2.808  39.890   4.413
34540W        W 2769   4.132  35.893   1.796
34541W        W 2770  31.901  10.839  12.627
34542W        W 2771   0.278  38.598  14.456
34543W        W 2772  14.764   0.471  12.034
34544W        W 2773  33.701   6.542   1.668
34545W        W 2774  27.854  28.884   4.146
34546W        W 2775  34.905  14.037   0.795
34547W        W 2776  33.074   4.465   0.916
34548W        W 2777   5.490  11.447   0.544
34549W        W 2778  17.589  20.747   4.622
34550W        W 2779   9.798  35.934   1.926
34551W        W 2780   2.665   6.411  14.406
34552W        W 2781  20.165  26.271   4.106
34553W        W 2782  29.656  31.830  13.411
34554W        W 2783   4.252   0.531   1.879
34555W        W 2784  37.419  37.184   0.994
34556W        W 2785  14.580  16.558   3.648
34557W        W 2786   2.830   8.281  11.145
34558W        W 2787  16.081  37.055  13.938
34559W        W 2788  42.448   1.992  11.536
34560W        W 2789  22.905  20.022   1.886
34561W        W 2790  30.599  41.384  12.905
34562W        W 2791  40.395  24.479  11.631
34563W        W 2792  38.999  32.626  13.469
34564W        W 2793   1.721  12.584  10.972
34565W        W 2794  42.100  20.780   1.765
34566W        W 2795  18.561  39.047  11.622
34567W        W 2796  26.671   4.139   4.589
34568W        W 2797  11.214  41.708   2.670
34569W        W 2798  10.403   5.807   0.256
34570W        W 2799  36.270  10.623   0.359
34571W        W 2800  38.949  41.941   4.630
34572W        W 2801  29.122  32.458  13.282
34573W        W 2802   0.817  42.361  13.406
34574W        W 2803  37.021   4.010  14.322
34575W        W 2804  19.114  42.410   4.076
34576W        W 2805  31.916  38.081   3.191
34577W        W 2806  19.970   6.762   0.187
34578W        W 2807  41.377   0.567   0.157
34579W        W 2808  22.633  42.853   4.228
34580W        W 2809  26.375  18.275   4.074
34581W        W 2810  11.995  10.670  10.363
34582W        W 2811   5.647   7.206  10.800
34583W        W 2812   7.326  32.164   1.224
34584W        W 2813  35.666   1.850   4.955
34585W        W 2814  43.055  11.293   1.059
34586W        W 2815  30.375  36.072  14.847
34587W        W 2816  10.331  36.082   1.929
34588W        W 2817  34.544   5.430  10.525
34589W        W 2818  21.694  11.742   4.775
34590W        W 2819  29.165  33.091   1.704
34591W        W 2820  42.440  44.245   2.769
34592W        W 2821  24.351  16.241   4.516
34593W        W 2822   1.910  31.666  10.433
34594W        W 2823  25.656  30.390   4.564
34595W        W 2824  35.797  13.042   0.124
34596W        W 2825  35.966  41.932  11.769
34597W        W 2826  15.715  22.163   3.199
34598W        W 2827  26.518  38.456  11.237
34599W        W 2828   8.658  18.302  10.738
34600W        W 2829   6.689  43.018  10.446
34601W        W 2830  42.809  16.111   4.580
34602W        W 2831   3.588  24.230   1.090
34603W        W 2832  35.314   7.707  14.856
34604W        W 2833  31.029  14.279   0.837
34605W        W 2834  10.250  44.759   1.171
34606W        W 2835  27.081  37.707  12.412
34607W        W 2836  43.959   2.406  11.639
34608W        W 2837  25.095  24.023  12.061
34609W        W 2838  11.163  26.490  10.896
34610W        W 2839  21.753  11.308  13.282
34611W        W 2840  19.086  43.988   4.090
34612W        W 2841  27.108   2.833  14.941
34613W        W 2842  12.913  42.196  13.825
34614W        W 2843  15.635  10.645   2.154
34615W        W 2844  12.780  24.809   3.196
34616W        W 2845  18.712  22.094  11.062
34617W        W 2846  24.941  41.519  14.427
34618W        W 2847  36.656  15.425   5.031
34619W        W 2848   1.939  29.546   4.607
34620W        W 2849   4.188  39.349   2.672
34621W        W 2850  30.276  40.891  12.100
34622W        W 2851  19.264  37.905  13.098
34623W        W 2852  31.354  33.033   0.873
34624W        W 2853  26.017  26.401   3.184
34625W        W 2854  42.863   5.249   3.713
34626W        W 2855  22.704  37.120  13.570
34627W        W 2856   8.342   5.614   1.048
34628W        W 2857  24.597  40.295   0.803
34629W        W 2858  28.272  14.086   2.671
34630W        W 2859  13.930  16.583  12.508
34631W        W 2860  16.271  25.227  14.841
34632W        W 2861  29.875  14.718   0.259
34633W        W 2862  37.517   0.821  12.142
34634W        W 2863   3.581  40.233  13.486
34635W        W 2864  40.041  29.024   0.462
34636W        W 2865  42.898  36.851   2.110
34637W        W 2866  36.992  26.055  13.695
34638W        W 2867  33.858  15.314  10.588
34639W        W 2868  14.617  10.110   1.476
34640W        W 2869   8.549  18.632   2.859
34641W        W 2870  28.193  18.198  14.902
34642W        W 2871  18.719  30.384  14.893
34643W        W 2872  27.560  27.143  10.666
34644W        W 2873  26.627  24.531   2.828
34645W        W 2874  11.189  32.094   3.237
34646W        W 2875  27.678   0.763  10.649
34647W        W 2876  17.705  37.407   2.642
34648W        W 2877  13.283  33.921   2.958
34649W        W 2878  15.349   9.858  10.707
34650W        W 2879  19.754  43.489  10.831
34651W        W 2880  20.204  28.119  13.306
34652W        W 2881  41.346  30.318   0.426
34653W        W 2882  38.088  25.097   4.190
34654W        W 2883  23.498   1.648  14.965
34655W        W 2884  21.811  35.782   1.378
34656W        W 2885   4.966   8.023   2.348
34657W        W 2886  14.782  23.193   1.108
34658W        W 2887  43.668  38.531   2.426
34659W        W 2888  13.010  10.024   4.913
34660W        W 2889  16.738  36.102  14.464
34661W        W 2890  42.888   3.305   3.536
34662W        W 2891  43.888  40.557   3.838
34663W        W 2892  43.863  13.771   2.701
34664W        W 2893  28.961  32.965   4.876
34665W        W 2894  30.045   4.848  14.340
34666W        W 2895  31.128  26.191  14.299
34667W        W 2896   6.151   7.499  12.591
34668W        W 2897  24.689  14.822   1.923
34669W        W 2898  18.192  25.508  13.098
34670W        W 2899  31.671  14.935  13.923
34671W        W 2900   0.621  43.222  14.434
34672W        W 2901   3.841  13.372   4.158
34673W        W 2902  44.798  31.951   4.571
34674W        W 2903  33.137  14.627   4.287
34675W        W 2904  31.906  40.613   0.783
34676W        W 2905  29.395  17.971  10.751
34677W        W 2906  23.152  11.759   2.737
34678W        W 2907  41.298  16.105  14.878
34679W        W 2908  28.124   3.205   1.874
34680W        W 2909  31.710  27.775  11.961
34681W        W 2910  20.016  33.006   4.043
34682W        W 2911  29.763  18.663  12.927
34683W        W 2912  17.795   9.188   0.429
34684W        W 2913  25.205   0.472   3.654
34685W        W 2914   6.909  20.750  11.220
34686W        W 2915  13.785  30.658  10.701
34687W        W 2916  36.467  18.575  13.938
34688W        W 2917  28.658  27.981   4.679
34689W        W 2918   5.276  33.505  10.268
34690W        W 2919  23.012  17.191   2.256
34691W        W 2920  17.779   4.668  12.494
34692W        W 2921  35.526  23.008  14.310
34693W        W 2922  13.322   6.812   4.586
34694W        W 2923  44.430  21.775   2.717
34695W        W 2924  36.422  16.781   3.685
34696W        W 2925  17.144  13.330  11.144
34697W        W 2926  43.686  26.471   0.391
34698W        W 2927  22.080  11.073  11.464
34699W        W 2928  32.815  43.400   0.307
34700W        W 2929  22.660  44.831  12.335
34701W        W 2930  37.354  35.245   0.806
34702W        W 2931  23.184  17.569   4.358
34703W        W 2932  40.988  24.179  11.038
34704W        W 2933  20.711  23.651   4.874
34705W        W 2934  30.554  12.415   4.305
34706W        W 2935   3.536  17.240   3.377
34707W        W 2936  19.098  10.113  12.866
34708W        W 2937  25.154  24.524   0.915
34709W        W 2938  21.180  44.785   1.040
34710W        W 2939   8.303   4.942   4.723
34711W        W 2940  11.086  10.355  13.554
34712W        W 2941   6.855  10.940   4.180
34713W        W 2942  35.442   4.663   4.166
34714W        W 2943  31.540  16.815  13.634
34715W        W 2944   6.675   5.265   0.257
34716W        W 2945   4.470  42.538  14.805
34717W        W 2946  26.079  23.065  12.619
34718W        W 2947  13.261  26.457  11.966
34719W        W 2948  29.424  19.208  11.244
34720W        W 2949   5.089  19.120  13.984
34721W        W 2950   2.462  27.619  13.330
34722W        W 2951  32.154  44.760   1.211
34723W        W 2952  34.222  44.843  13.148
34724W        W 2953   6.197  32.845  13.408
34725W        W 2954  24.734   4.142   4.018
34726W        W 2955   3.758  15.767   4.619
34727W        W 2956  42.986  44.504  11.945
34728W        W 2957   2.005  31.134  13.873
34729W        W 2958  11.130  34.526   3.558
34730W        W 2959  29.385  11.279   1.693
34731W        W 2960   6.469  36.994  11.453
34732W        W 2961  18.188  41.892   3.865
34733W        W 2962  22.280   3.406   3.861
34734W        W 2963   7.254  29.979  13.820
34735W        W 2964  43.368  38.308  13.980
34736W        W 2965   4.763  30.197  14.945
34737W        W 2966   7.319  33.743   3.927
34738W        W 2967  21.747  31.448   4.265
34739W        W 2968  17.574  25.080  11.452
34740W        W 2969  43.331  41.991  12.610
34741W        W 2970  22.411  17.622   1.686
34742W        W 2971  21.707  28.068  13.431
34743W        W 2972  12.579  36.560  12.016
34744W        W 2973  18.094  34.248  11.941
34745W        W 2974  32.869  24.234   1.905
34746W        W 2975   8.656   6.959   3.662
34747W        W 2976  15.892  11.119  11.704
34748W        W 2977   7.286  23.112   4.366
34749W        W 2978  27.280   4.824  13.518
34750W        W 2979  30.611  38.303  14.056
34751W        W 2980  37.556   8.666   0.942
34752W        W 2981  44.979  32.153  12.665
34753W        W 2982  23.165  35.898   0.432
34754W        W 2983  44.508  37.439  13.933
34755W        W 2984  42.979  22.200   2.927
34756W        W 2985  30.092  23.213   2.211
34757W        W 2986   9.856   7.921  10.635
34758W        W 2987  42.081  17.563  11.974
34759W        W 2988  44.487  17.221   0.786
34760W        W 2989  39.619  39.149   2.426
34761W        W 2990  42.425  39.547   0.234
34762W        W 2991  37.819   8.309  14.845
34763W        W 2992  10.270   2.498  12.915
34764W        W 2993  24.378  28.055  13.047
34765W        W 2994  31.747  12.123   1.037
34766W        W 2995  28.645   8.459  11.087
34767W        W 2996   0.595   5.910  12.248
34768W        W 2997  29.952  16.545   9.875
34769W        W 2998  42.342  44.788  12.842
34770W        W 2999   2.488   3.734  13.436
34771W        W 3000   9.846  37.361   2.419
34772W        W 3001  13.616  40.855   0.717
34773W        W 3002  31.592  43.295   1.790
34774W        W 3003  41.394  36.504   5.097
34775W        W 3004   9.938  40.894  14.483
34776W        W 3005   5.433  15.963   0.277
34777W        W 3006  13.134  26.604   4.761
34778W        W 3007  19.336  20.580  12.376
34779W        W 3008  14.139  41.268   0.168
34780W        W 3009  10.895   4.955   2.409
34781W        W 3010  43.856  37.990   3.123
34782W        W 3011   2.995   0.283   0.750
34783W        W 3012  19.858  27.455   4.646
34784W        W 3013  40.787   1.503  14.540
34785W        W 3014  39.306  18.438  13.276
34786W        W 3015  11.879  40.773   0.051
34787W        W 3016   8.540  40.291   4.215
34788W        W 3017  17.172  35.926   4.623
34789W        W 3018  22.388  25.853  10.096
34790W        W 3019   5.001  36.040  12.966
34791W        W 3020  43.559  30.906   1.256
34792W        W 3021  18.820  33.906  11.121
34793W        W 3022  24.915   2.927   0.449
34794W        W 3023   8.822  22.522  11.161
34795W        W 3024  26.646   1.205   4.086
34796W        W 3025  43.910  24.040  14.443
34797W        W 3026  13.731  19.961   2.197
34798W        W 3027  44.891  30.412  11.614
34799W        W 3028  22.214   4.068  13.540
34800W        W 3029  18.273  35.573   4.460
34801W        W 3030  12.222  32.932  11.210
34802W        W 3031  27.094  25.344  14.928
34803W        W 3032  38.815   3.469  11.476
34804W        W 3033  32.823  18.180   4.283
34805W        W 3034  23.471  40.555   0.028
34806W        W 3035  34.530   0.404   4.875
34807W        W 3036  13.198  41.486   0.379
34808W        W 3037  34.315   7.533  14.008
34809W        W 3038  41.212  10.506  12.762
34810W        W 3039   4.743  43.839   2.766
34811W        W 3040  42.001  30.092   4.317
34812W        W 3041  12.687   5.806  12.434
34813W        W 3042   7.504  30.903  14.798
34814W        W 3043  39.618   8.487   1.383
34815W        W 3044   2.424   0.945  13.097
34816W        W 3045  15.372  11.121   5.293
34817W        W 3046  37.115  16.819  14.749
34818W        W 3047  22.029   0.782  12.011
34819W        W 3048  31.963  42.460  14.733
34820W        W 3049  22.229  27.430  13.666
34821W        W 3050  30.712  32.298  10.218
34822W        W 3051  25.517  34.997  11.197
34823W        W 3052   9.338  22.609  11.319
34824W        W 3053  30.550   0.269   0.614
34825W        W 3054  10.470  19.204   0.213
34826W        W 3055   1.541  24.386   3.272
34827W        W 3056  33.782  18.257   1.317
34828W        W 3057  44.298   2.434   2.307
34829W        W 3058  20.251  16.686  12.858
34830W        W 3059  41.429  33.888  12.526
34831W        W 3060  29.978  20.035   4.324
34832W        W 3061  28.771  40.261   2.831
34833W        W 3062  21.549  34.964  14.005
34834W        W 3063  10.338  24.711  14.369
34835W        W 3064  32.423  40.243   2.336
34836W        W 3065  29.558  42.870   1.235
34837W        W 3066  44.613  44.618  10.605
34838W        W 3067  44.269   9.325  12.516
34839W        W 3068  18.952  26.089  14.067
34840W        W 3069  14.600   3.362  10.763
34841W        W 3070  44.483  42.322   4.305
34842W        W 3071  20.731   3.768  11.564
34843W        W 3072  13.653  41.546  11.965
34844W        W 3073  43.692  18.314  12.543
34845W        W 3074  32.067  27.469  11.163
34846W        W 3075   3.948  23.034  11.556
34847W        W 3076  41.348   8.485   1.850
34848W        W 3077  22.257  41.391   4.753
34849W        W 3078   4.450  30.030   0.873
34850W        W 3079  38.954  30.653  10.806
34851W        W 3080   2.262  35.589   4.228
34852W        W 3081  18.680  18.717   3.193
34853W        W 3082  36.926   6.657   0.264
34854W        W 3083  30.491  37.574  12.772
34855W        W 3084  21.995  16.422  11.062
34856W        W 3085  27.288   2.171   2.385
34857W        W 3086  28.257  37.109   0.433
34858W        W 3087  40.568  25.000  13.401
34859W        W 3088  32.749  36.949   4.197
34860W        W 3089  21.531  33.376   3.775
34861W        W 3090   5.579  43.893   4.277
34862W        W 3091   0.815  28.254  13.296
34863W        W 3092  36.895  18.732  14.227
34864W        W 3093  37.543  37.230   4.945
34865W        W 3094  12.563  10.430  13.392
34866W        W 3095  14.621  42.074   4.818
34867W        W 3096  16.200  13.097   4.928
34868W        W 3097  27.677  12.615   1.752
34869W        W 3098  33.147   6.954   2.144
34870W        W 3099  42.932  25.207   3.512
34871W        W 3100  43.925   5.414   2.739
34872W        W 3101  38.916  13.824   4.621
34873W        W 3102  33.984  40.484   1.846
34874W        W 3103  10.900  32.483  12.404
34875W        W 3104  33.026  23.977   2.547
34876W        W 3105  26.230   0.213   3.497
34877W        W 3106  34.844  40.365   4.488
34878W        W 3107  17.051   0.854   4.697
34879W        W 3108  18.979  37.787   4.142
34880W        W 3109  19.486  32.393  12.513
34881W        W 3110  43.317  10.209  12.572
34882W        W 3111  39.943  44.095   1.250
34883W        W 3112  15.130  16.634   4.968
34884W        W 3113   2.838  16.257  14.886
34885W        W 3114  39.003  10.293   1.939
34886W        W 3115  13.004  30.738  10.651
34887W        W 3116   9.476  16.767   2.770
34888W        W 3117  24.176   9.166   2.774
34889W        W 3118  26.694  30.404   4.718
34890W        W 3119  18.151  23.567   4.020
34891W        W 3120  18.774  42.291   3.700
34892W        W 3121   7.637  38.959  10.598
34893W        W 3122  40.758  34.855   4.973
34894W        W 3123  32.428  18.157   1.726
34895W        W 3124  10.552  35.026  10.626
34896W        W 3125   0.359  44.258  10.622
34897W        W 3126  14.750  29.061  12.848
34898W        W 3127  41.757  40.870   3.922
34899W        W 3128  37.371  34.966  13.292
34900W        W 3129  34.436  12.332  13.985
34901W        W 3130   9.743  13.531  10.190
34902W        W 3131   5.170  17.723  11.903
34903W        W 3132   8.955  21.672   1.361
34904W        W 3133  34.891  39.057  10.751
34905W        W 3134  30.546  20.003   0.448
34906W        W 3135  34.525   6.760   1.736
34907W        W 3136  13.111  18.248   1.375
34908W        W 3137  43.546  36.086   1.221
34909W        W 3138  44.395  34.413   4.786
34910W        W 3139  33.376  27.985  13.362
34911W        W 3140  30.870  44.417   0.387
34912W        W 3141  43.010  18.663   0.033
34913W        W 3142  17.235  17.786  12.551
34914W        W 3143  26.423  29.506   4.836
34915W        W 3144  11.263  14.697  11.004
34916W        W 3145   6.777  39.215  10.763
34917W        W 3146  26.868  32.240   3.258
34918W        W 3147  25.620  41.046  13.327
34919W        W 3148   4.249  27.654   4.645
34920W        W 3149   5.208  20.319   3.364
34921W        W 3150  16.125  44.509  14.378
34922W        W 3151  31.079  43.097   0.519
34923W        W 3152  15.572   6.965   3.200
34924W        W 3153   0.758  13.078   3.226
34925W        W 3154  36.728  18.987   2.280
34926W        W 3155   9.164  44.317  13.421
34927W        W 3156  24.721  37.936   4.570
34928W        W 3157  15.150  13.351   5.177
34929W        W 3158  12.383  16.063   2.143
34930W        W 3159  13.557   9.720   9.567
34931W        W 3160  13.048   7.792  11.953
34932W        W 3161  27.549  38.993   0.514
34933W        W 3162  15.002  23.131   5.298
34934W        W 3163  26.054  37.403   3.876
34935W        W 3164   8.108  38.791   3.334
34936W        W 3165  15.471  29.041   4.689
34937W        W 3166  17.926   7.846  11.004
34938W        W 3167   9.699   7.884   2.715
34939W        W 3168  35.366  16.753   1.778
34940W        W 3169  13.217  10.666   4.313
34941W        W 3170  34.855  17.303  12.314
34942W        W 3171  20.243  19.568   0.276
34943W        W 3172  27.529  20.756  11.168
34944W        W 3173  44.381  35.887   4.793
34945W        W 3174  22.729   7.658  11.170
34946W        W 3175  12.737   8.093   1.326
34947W        W 3176  29.549  25.633  10.648
34948W        W 3177   1.613  24.603  12.752
34949W        W 3178  16.388  12.597  11.122
34950W        W 3179  36.363  25.615   0.737
34951W        W 3180   1.293  20.782  14.991
34952W        W 3181   0.977  39.408  11.091
34953W        W 3182  43.049  33.102   4.878
34954W        W 3183   8.513  29.592   5.140
34955W        W 3184  42.977  25.872   2.917
34956W        W 3185  12.324  20.264  10.447
34957W        W 3186  44.226   3.634  12.946
34958W        W 3187   2.949  33.617  11.379
34959W        W 3188  26.556   4.167   1.069
34960W        W 3189   1.420  28.420  10.613
34961W        W 3190  20.758  44.282   4.797
34962W        W 3191  32.121  10.006   0.849
34963W        W 3192   4.246  42.078  13.490
34964W        W 3193   6.923  40.609   0.556
34965W        W 3194   6.797  22.642   3.842
34966W        W 3195  40.886   3.507   4.989
34967W        W 3196  24.613  25.532  12.488
34968W        W 3197  36.602   9.692   3.314
34969W        W 3198  12.990  14.250  10.382
34970W        W 3199  26.988  29.337   3.046
34971W        W 3200   8.793  12.052  14.394
34972W        W 3201  10.326  17.623   2.160
34973W        W 3202   6.204   3.990   2.785
34974W        W 3203  21.423  39.340  14.940
34975W        W 3204   0.807  43.335  10.730
34976W        W 3205  10.814  21.048   4.199
34977W        W 3206  16.843   5.364   2.173
34978W        W 3207  33.804   1.270  14.260
34979W        W 3208  13.555  14.078  12.107
34980W        W 3209  21.503  40.089   1.321
34981W        W 3210  37.875  44.529  13.358
34982W        W 3211  42.967  18.161  11.755
34983W        W 3212   9.781  30.932   0.850
34984W        W 3213  13.184   9.192   1.952
34985W        W 3214  11.794  18.684  10.728
34986W        W 3215   0.007  30.034   3.374
34987W        W 3216   5.029  14.899   2.731
34988W        W 3217   6.231  43.258  10.411
34989W        W 3218  25.447  26.589   3.309
34990W        W 3219  35.517   1.358  12.998
34991W        W 3220  37.579  19.709   1.616
34992W        W 3221   5.875   3.964   3.914
34993W        W 3222   8.212  28.246   3.137
34994W        W 3223   2.883  27.189  14.879
34995W        W 3224  26.446  25.076   2.941
34996W        W 3225   1.494   6.780  10.751
34997W        W 3226   6.669  21.769   1.461
34998W        W 3227  40.877   2.369   2.880
34999W        W 3228   6.289  16.170   2.536
35000W        W 3229  11.843  15.637   5.151
35001W        W 3230  16.046  36.866   0.351
35002W        W 3231  23.313  43.467   2.782
35003W        W 3232  16.837  23.520  14.468
35004W        W 3233  31.593  22.394   1.467
35005W        W 3234  29.966  34.831  12.440
35006W        W 3235  23.440  31.030   4.835
35007W        W 3236   2.035  44.748   0.434
35008W        W 3237   8.838  42.018   2.347
35009W        W 3238  11.584  37.020   1.633
35010W        W 3239   6.755  44.447   1.340
35011W        W 3240   2.949  13.316  12.329
35012W        W 3241  30.689   3.943  10.514
35013W        W 3242   6.157  24.926  10.809
35014W        W 3243  11.196   3.893  12.992
35015W        W 3244  38.884   1.839   2.128
35016W        W 3245   2.498  36.555  11.547
35017W        W 3246   3.302   7.131   4.607
35018W        W 3247   6.500  33.637   5.056
35019W        W 3248  21.189  31.604  13.716
35020W        W 3249  31.603  26.114  10.551
35021W        W 3250  44.342   9.676  10.351
35022W        W 3251  24.748  40.818  11.043
35023W        W 3252  30.177  26.137  10.695
35024W        W 3253  12.848  44.420  13.535
35025W        W 3254  15.729  17.031  11.800
35026W        W 3255  19.241  15.209  14.493
35027W        W 3256  40.922  26.639  13.165
35028W        W 3257  17.318  28.475  12.700
35029W        W 3258  35.375  38.960  10.522
35030W        W 3259  25.255  39.475   4.164
35031W        W 3260  29.547  14.251   2.836
35032W        W 3261  36.965  21.269   0.140
35033W        W 3262  12.238  32.630   2.865
35034W        W 3263   8.993  19.674   4.209
35035W        W 3264  39.957   3.409   0.743
35036W        W 3265  24.090  37.003  10.705
35037W        W 3266  39.866  26.082   3.015
35038W        W 3267  32.989   9.425  13.327
35039W        W 3268  30.216  32.244   2.798
35040W        W 3269  23.670  43.995   0.705
35041W        W 3270  24.583  27.067   4.269
35042W        W 3271   5.213  21.440   2.739
35043W        W 3272  10.260  30.015  14.022
35044W        W 3273  31.051  24.293  12.628
35045W        W 3274  28.652  38.517  13.359
35046W        W 3275  27.900  37.259  11.867
35047W        W 3276  11.486  20.532  11.873
35048W        W 3277  21.576  32.237  10.276
35049W        W 3278  14.348  28.721   2.728
35050W        W 3279   3.872  42.024   4.712
35051W        W 3280  19.974  11.678  12.129
35052W        W 3281  26.081  36.896   3.842
35053W        W 3282  17.219  20.349   0.913
35054W        W 3283   8.797  34.038   0.508
35055W        W 3284   1.061  13.251   4.573
35056W        W 3285  44.938  39.831  14.612
35057W        W 3286  17.956   7.168  12.808
35058W        W 3287  32.122  37.937   0.904
35059W        W 3288  25.114  36.738  11.244
35060W        W 3289  28.061  27.403   2.910
35061W        W 3290  35.214  44.859  11.037
35062W        W 3291  31.471  40.285   0.816
35063W        W 3292  26.880  16.836  13.843
35064W        W 3293  31.092   3.624   2.246
35065W        W 3294  28.284  40.340  14.223
35066W        W 3295  42.909  39.551  13.011
35067W        W 3296  15.651  26.750  13.421
35068W        W 3297  32.099  43.515   2.357
35069W        W 3298  31.918   4.021  12.086
35070W        W 3299  39.071  32.142  12.133
35071W        W 3300  37.968   9.873   1.026
35072W        W 3301   2.695  37.542   2.834
35073W        W 3302  10.248  41.898  14.129
35074W        W 3303  43.186  22.042  10.707
35075W        W 3304  29.077  32.048  13.887
35076W        W 3305   7.786  18.307  14.589
35077W        W 3306  26.108  28.501   4.758
35078W        W 3307  12.129  32.048  11.087
35079W        W 3308  15.524  21.944   1.927
35080W        W 3309  13.849  43.044  11.651
35081W        W 3310  34.420  20.307   3.696
35082W        W 3311   7.810  36.903   2.141
35083W        W 3312  36.533  21.722   0.972
35084W        W 3313  29.010   9.721  10.685
35085W        W 3314  36.442  32.971   0.743
35086W        W 3315  27.179   5.660  14.370
35087W        W 3316  11.755   9.956   1.190
35088W        W 3317   3.731  41.573  10.677
35089W        W 3318   3.581  21.489   3.648
35090W        W 3319  25.661  15.854   5.466
35091W        W 3320  21.978  19.083  13.901
35092W        W 3321  39.448  44.960   4.370
35093W        W 3322  23.726   2.815  12.887
35094W        W 3323  17.026   8.946   2.706
35095W        W 3324  36.882  44.879   2.235
35096W        W 3325  40.172  15.217   4.998
35097W        W 3326  19.921  26.170   1.388
35098W        W 3327  16.932  30.996  11.138
35099W        W 3328  28.499  15.124  12.184
35100W        W 3329  16.147  31.129  14.249
35101W        W 3330  37.551  17.353   0.717
35102W        W 3331  30.481  38.285   0.756
35103W        W 3332   9.129  16.150  13.363
35104W        W 3333  12.095  36.570  11.240
35105W        W 3334   3.019  28.605   1.404
35106W        W 3335  19.587   5.289   0.262
35107W        W 3336  35.097  16.743   4.526
35108W        W 3337  11.470  38.859  11.137
35109W        W 3338  16.731  35.547  14.477
35110W        W 3339  11.584  13.600  13.897
35111W        W 3340  21.631  41.319  14.073
35112W        W 3341  40.385   7.709   1.273
35113W        W 3342  42.394  11.565  11.982
35114W        W 3343  34.162  29.992  11.446
35115W        W 3344  40.568  41.520  14.511
35116W        W 3345  29.968  13.372   2.518
35117W        W 3346  13.323  40.291  11.611
35118W        W 3347  19.199  31.051  12.980
35119W        W 3348  41.392  33.333  10.578
35120W        W 3349  28.865   2.411   1.460
35121W        W 3350  12.909  44.293   2.742
35122W        W 3351  35.519  23.461   1.637
35123W        W 3352  31.624   6.350  13.038
35124W        W 3353  43.495  43.826  10.685
35125W        W 3354  35.123   2.948  13.546
35126W        W 3355  44.023   6.967  12.369
35127W        W 3356   9.573   7.052   0.860
35128W        W 3357  12.788  35.168  13.912
35129W        W 3358   5.156  21.578  11.055
35130W        W 3359  24.601  32.168   4.145
35131W        W 3360  44.995  29.526  10.628
35132W        W 3361  21.508  37.610  12.054
35133W        W 3362  39.496  33.363   4.660
35134W        W 3363   8.893  21.014  11.669
35135W        W 3364  15.416  37.917   4.519
35136W        W 3365  26.696  24.730  11.592
35137W        W 3366  37.860   4.045   3.373
35138W        W 3367  21.711  25.413  14.171
35139W        W 3368  42.149   4.786   3.563
35140W        W 3369   9.844  13.165   3.022
35141W        W 3370  14.642  12.569  14.872
35142W        W 3371  20.753  35.161  14.957
35143W        W 3372  19.611  11.285  12.059
35144W        W 3373  18.544   2.388  12.144
35145W        W 3374  22.143  29.616   3.886
35146W        W 3375  11.631   6.261   5.062
35147W        W 3376  15.416  40.582  12.059
35148W        W 3377  28.183  41.915   2.178
35149W        W 3378  39.283  44.739  13.786
35150W        W 3379   6.326  34.192   3.788
35151W        W 3380   5.877  20.651  12.667
35152W        W 3381  31.991  42.650   1.147
35153W        W 3382  12.901  26.201  10.545
35154W        W 3383  25.792  12.725   0.882
35155W        W 3384  25.887  21.057  14.035
35156W        W 3385   6.425  39.067   1.858
35157W        W 3386   5.791   9.698  10.963
35158W        W 3387   6.945   6.910   3.420
35159W        W 3388  41.509  32.603   3.687
35160W        W 3389  16.047  29.054   1.752
35161W        W 3390  39.709   7.121   5.347
35162W        W 3391  14.268  32.484  10.614
35163W        W 3392  40.540   4.254   4.678
35164W        W 3393   0.764   9.774  12.482
35165W        W 3394  28.292  27.946  11.595
35166W        W 3395  11.545  12.166  13.531
35167W        W 3396  37.592   9.212  14.505
35168W        W 3397   0.054   3.198  11.518
35169W        W 3398  44.416  21.793  11.399
35170W        W 3399  24.458  25.008  13.840
35171W        W 3400  21.652  21.942   2.850
35172W        W 3401   9.016  18.492   2.701
35173W        W 3402  38.311  20.596   4.160
35174W        W 3403  16.687   5.744  10.943
35175W        W 3404  38.708  15.727  14.830
35176W        W 3405  32.695   9.421   1.518
35177W        W 3406  18.517  26.735   0.050
35178W        W 3407  30.877  14.273   3.599
35179W        W 3408  30.856   9.446  10.737
35180W        W 3409   4.929   0.879  12.047
35181W        W 3410  23.964  21.253   0.397
35182W        W 3411  37.589   5.731   1.300
35183W        W 3412  25.067  41.025  14.279
35184W        W 3413   5.004  23.765  13.432
35185W        W 3414  14.160  40.944  12.114
35186W        W 3415   5.768  30.964   4.107
35187W        W 3416  21.743  21.615  13.816
35188W        W 3417  19.071   6.250   4.371
35189W        W 3418  37.414  15.909   4.112
35190W        W 3419   2.691  11.176  12.560
35191W        W 3420  17.250  17.866   1.261
35192W        W 3421   6.649  23.993   1.992
35193W        W 3422  21.039  15.466   3.878
35194W        W 3423  13.190  15.096  10.879
35195W        W 3424   8.326  40.412  10.829
35196W        W 3425  25.680   5.787  11.389
35197W        W 3426  37.690   1.782  11.247
35198W        W 3427  12.098  32.306   3.722
35199W        W 3428  14.504  21.231  13.390
35200W        W 3429   3.858  43.294  14.773
35201W        W 3430  27.877  35.995   1.690
35202W        W 3431  23.580   5.147   4.578
35203W        W 3432  24.785   9.866   3.677
35204W        W 3433  23.520  35.782   2.728
35205W        W 3434  38.055  22.048   0.782
35206W        W 3435  23.160  10.126   3.814
35207W        W 3436   7.351   1.883   0.680
35208W        W 3437  32.742  38.851   3.581
35209W        W 3438  41.398  25.472  14.170
35210W        W 3439  43.861  23.748   0.927
35211W        W 3440  33.193  22.329  11.261
35212W        W 3441  12.738  41.314   1.699
35213W        W 3442  28.462  10.199   2.873
35214W        W 3443  24.094  14.429   4.402
35215W        W 3444  39.565  14.891  11.131
35216W        W 3445  14.497  22.581   3.718
35217W        W 3446  11.375  44.423  13.326
35218W        W 3447  22.147   3.330   4.344
35219W        W 3448  34.862  16.319  10.664
35220W        W 3449  26.674  44.748   0.526
35221W        W 3450  34.924   3.460   4.665
35222W        W 3451  28.746  33.863   0.117
35223W        W 3452   2.408  33.906   3.339
35224W        W 3453  22.706  29.231  10.110
35225W        W 3454  12.933  19.630   0.867
35226W        W 3455  44.308   7.442  14.011
35227W        W 3456   1.008  36.826   2.382
35228W        W 3457  10.767  35.298   1.308
35229W        W 3458  44.490  21.980  11.878
35230W        W 3459  23.621  26.755   4.607
35231W        W 3460   7.613  28.649  12.423
35232W        W 3461  15.197  28.040   3.329
35233W        W 3462  36.327  37.986  12.323
35234W        W 3463   0.184  34.590   3.741
35235W        W 3464  15.631  28.359   4.137
35236W        W 3465  33.357   7.216   0.757
35237W        W 3466   4.248  40.111   1.220
35238W        W 3467  14.381   2.170  13.158
35239W        W 3468  37.515  42.956   3.792
35240W        W 3469  34.058  35.918   4.319
35241W        W 3470  11.662  30.440  14.292
35242W        W 3471   0.551  34.063   0.302
35243W        W 3472  13.769  32.891   4.626
35244W        W 3473  10.591  34.426   0.356
35245W        W 3474   2.068   9.425   3.397
35246W        W 3475  34.957  42.534  12.564
35247W        W 3476  17.509  20.566   2.430
35248W        W 3477  26.496  41.604  11.248
35249W        W 3478  29.385  28.966   2.760
35250W        W 3479  33.605   3.430  12.906
35251W        W 3480  23.685  18.445  12.000
35252W        W 3481  28.448  34.529  11.700
35253W        W 3482  29.391  42.242   2.750
35254W        W 3483  33.999  22.702  10.350
35255W        W 3484  30.287  16.017  11.139
35256W        W 3485   8.247  31.941  14.073
35257W        W 3486  36.869  29.211   4.624
35258W        W 3487  25.418  24.762   0.460
35259W        W 3488  32.981  18.070   2.389
35260W        W 3489  29.621  27.513   0.183
35261W        W 3490  31.166   5.661   0.350
35262W        W 3491  24.782  27.881   3.957
35263W        W 3492  37.806   6.420   3.233
35264W        W 3493  23.679  14.714   4.191
35265W        W 3494  44.209  13.739  12.490
35266W        W 3495  18.719  14.279  11.192
35267W        W 3496  10.671  18.761   0.407
35268W        W 3497  29.613  35.641  13.863
35269W        W 3498  18.702   9.133  10.847
35270W        W 3499   4.804  25.776   3.353
35271W        W 3500  42.492  15.291  10.666
35272W        W 3501  37.493  30.638   1.395
35273W        W 3502  36.528  15.055  12.859
35274W        W 3503   5.814  31.172   0.248
35275W        W 3504  16.130  12.216   4.606
35276W        W 3505   2.404  11.647   4.101
35277W        W 3506   2.995  35.069   1.089
35278W        W 3507  26.076  42.404  14.504
35279W        W 3508  36.446  28.687   1.355
35280W        W 3509   5.340  43.873   4.725
35281W        W 3510   4.176   4.731   1.419
35282W        W 3511   6.589  10.195   1.388
35283W        W 3512  17.027  41.693  13.070
35284W        W 3513  28.043  23.258   3.610
35285W        W 3514  33.401   1.478  14.537
35286W        W 3515  35.434   5.200   4.230
35287W        W 3516  24.479   7.832  11.487
35288W        W 3517  32.482   5.213   1.485
35289W        W 3518  10.891  43.327  12.205
35290W        W 3519  23.661  42.821  10.504
35291W        W 3520  19.483  35.632   4.000
35292W        W 3521  31.016  25.636   3.803
35293W        W 3522  36.947  36.019   4.183
35294W        W 3523  35.857  24.399   2.732
35295W        W 3524   1.015   3.863   2.288
35296W        W 3525   9.202  11.729  11.762
35297W        W 3526  17.441   9.563   0.467
35298W        W 3527  25.277   4.890  13.377
35299W        W 3528  28.764  41.262   3.836
35300W        W 3529  20.814  29.995  12.103
35301W        W 3530   9.194  30.757   2.796
35302W        W 3531  34.575  16.616   4.596
35303W        W 3532  17.103   2.484   1.672
35304W        W 3533   0.917   0.343  14.712
35305W        W 3534  18.141   6.884  13.608
35306W        W 3535  34.749  21.455  11.451
35307W        W 3536  16.656  14.059   2.875
35308W        W 3537  28.171  35.275  14.230
35309W        W 3538  35.991   1.321   4.332
35310W        W 3539  41.453  42.084  14.261
35311W        W 3540  29.046   5.265  13.342
35312W        W 3541  22.663   1.944  14.459
35313W        W 3542  25.986  22.627  12.100
35314W        W 3543   2.676  24.252   1.302
35315W        W 3544  17.611  30.850  11.126
35316W        W 3545  15.014  18.805   3.952
35317W        W 3546  39.124  12.848  13.688
35318W        W 3547  43.029  20.516  14.315
35319W        W 3548   1.843  34.635  13.851
35320W        W 3549   8.806  26.586  11.220
35321W        W 3550  12.669   3.560   4.179
35322W        W 3551  39.097  38.748  11.631
35323W        W 3552  34.778  15.340  11.708
35324W        W 3553   6.650   2.873  12.444
35325W        W 3554   1.786   4.245   1.510
35326W        W 3555  18.650  22.982  14.481
35327W        W 3556   1.318   6.980  12.980
35328W        W 3557  26.110   1.425  10.711
35329W        W 3558  23.758   9.917   3.627
35330W        W 3559   7.691  23.203   4.722
35331W        W 3560  44.817  36.322   0.187
35332W        W 3561  32.931  31.985   3.892
35333W        W 3562  12.073  29.092  13.353
35334W        W 3563  31.555   1.384   1.702
35335W        W 3564   7.929  14.690  13.858
35336W        W 3565  22.395   5.318  14.848
35337W        W 3566  42.335  15.916   4.506
35338W        W 3567  21.012   3.386  13.503
35339W        W 3568  30.771  37.481  12.344
35340W        W 3569  27.001  20.459   0.139
35341W        W 3570   0.993  24.038   0.859
35342W        W 3571  41.799  15.315  13.682
35343W        W 3572  18.542  18.061   0.817
35344W        W 3573  29.834  24.329  12.477
35345W        W 3574  37.055  18.200   0.354
35346W        W 3575  32.710  14.552   3.552
35347W        W 3576  16.908  23.800   4.588
35348W        W 3577  23.990  16.233   0.319
35349W        W 3578  23.567  21.095  14.427
35350W        W 3579  16.996  27.478  12.629
35351W        W 3580  29.094  37.638  11.589
35352W        W 3581   4.285  16.892  11.703
35353W        W 3582  23.783  10.320   0.277
35354W        W 3583   2.304  26.697  11.315
35355W        W 3584  39.120   3.492  11.071
35356W        W 3585  39.952  16.651   0.185
35357W        W 3586  21.638  28.539   0.652
35358W        W 3587  12.303  14.337   0.879
35359W        W 3588  43.999  15.526  12.668
35360W        W 3589  44.884  18.467  11.100
35361W        W 3590  22.268   0.975  11.578
35362W        W 3591  14.748  12.333   4.113
35363W        W 3592  38.935  32.220   0.317
35364W        W 3593  35.639  31.151   1.558
35365W        W 3594  39.050  12.693  12.046
35366W        W 3595  24.220   8.688   1.901
35367W        W 3596  25.622  44.227   2.746
35368W        W 3597  36.051  37.993  10.654
35369W        W 3598  33.526   8.576   4.236
35370W        W 3599  38.591  36.569   0.971
35371W        W 3600  37.782  26.759   0.728
35372W        W 3601  28.063  42.654   5.097
35373W        W 3602  43.521  20.715  11.878
35374W        W 3603  41.950   7.833   3.771
35375W        W 3604  14.829  43.005  12.939
35376W        W 3605  11.976  44.531  11.819
35377W        W 3606  17.217  30.686  13.869
35378W        W 3607  19.242  32.152  11.624
35379W        W 3608  13.803  37.396  12.641
35380W        W 3609   5.797  26.078   3.155
35381W        W 3610  35.768   6.186  12.504
35382W        W 3611   2.700  22.272   0.282
35383W        W 3612  34.557  14.130  10.499
35384W        W 3613  25.469  23.654   4.156
35385W        W 3614  17.411  30.348   9.948
35386W        W 3615  29.546  43.732   1.793
35387W        W 3616  14.047  26.593   2.301
35388W        W 3617  26.646  26.956  11.520
35389W        W 3618   3.439  39.275  12.908
35390W        W 3619  23.045  31.629  14.576
35391W        W 3620  32.115  12.173   1.446
35392W        W 3621  36.011  37.527  12.064
35393W        W 3622  44.845   6.233   2.128
35394W        W 3623  38.777  19.964   4.652
35395W        W 3624  30.517  10.346   4.549
35396W        W 3625  44.518  38.382   2.846
35397W        W 3626  42.584  16.617   2.994
35398W        W 3627  31.242  35.313   4.114
35399W        W 3628  22.953  34.808  13.314
35400W        W 3629   2.465   9.665   2.276
35401W        W 3630  26.563  12.340  13.159
35402W        W 3631  14.209   8.776  14.184
35403W        W 3632  14.696  20.157  14.306
35404W        W 3633  22.029  27.411   4.252
35405W        W 3634  33.326  17.102  11.650
35406W        W 3635  32.697  38.576  10.413
35407W        W 3636  18.988  29.149   1.208
35408W        W 3637  39.116  26.106  14.874
35409W        W 3638   5.713   8.632  10.646
35410W        W 3639  28.427  25.025  13.162
35411W        W 3640  10.540  35.450  13.885
35412W        W 3641  36.138  10.503  12.151
35413W        W 3642  11.828  41.795  12.939
35414W        W 3643   5.600  40.565   0.349
35415W        W 3644  24.984  27.849   4.688
35416W        W 3645  36.568  31.645  13.563
35417W        W 3646  38.639  31.437  12.434
35418W        W 3647  41.545  28.988   1.944
35419W        W 3648   3.479  37.665   4.296
35420W        W 3649  15.632  19.116   2.444
35421W        W 3650   7.565  13.304   4.177
35422W        W 3651  13.254  31.586  13.604
35423W        W 3652  21.620  35.841   3.701
35424W        W 3653  26.561  38.090   2.780
35425W        W 3654  25.354   5.405  11.458
35426W        W 3655  35.929   4.306   1.307
35427W        W 3656  25.563   2.388  14.806
35428W        W 3657  11.070  28.155  11.666
35429W        W 3658   0.858  32.428   3.372
35430W        W 3659  25.571  39.431   0.356
35431W        W 3660   8.640  18.623  14.434
35432W        W 3661   4.807  21.221   3.106
35433W        W 3662   0.256  33.830   3.131
35434W        W 3663  16.883   5.781   1.829
35435W        W 3664  17.607   4.987   3.877
35436W        W 3665  15.554   0.596  14.933
35437W        W 3666  15.616  20.559   2.395
35438W        W 3667  32.985  25.737  14.284
35439W        W 3668  24.576  18.650   0.509
35440W        W 3669  29.767  28.906   3.113
35441W        W 3670  21.693  36.402  10.651
35442W        W 3671  15.605  43.553   3.358
35443W        W 3672  12.794  44.558   4.660
35444W        W 3673  11.300   4.400  14.970
35445W        W 3674  11.085  24.361   4.545
35446W        W 3675  32.517  28.062   2.581
35447W        W 3676  24.661  34.888  12.963
35448W        W 3677  40.848  27.286  11.482
35449W        W 3678   6.031  11.660  13.072
35450W        W 3679   5.280  34.698   2.938
35451W        W 3680  38.901  20.256   0.293
35452W        W 3681  29.577   9.078  13.458
35453W        W 3682   6.785  38.044   0.298
35454W        W 3683   5.466  19.268  12.662
35455W        W 3684  18.533  19.595  13.138
35456W        W 3685   1.749   0.503   1.584
35457W        W 3686  29.901  37.434   3.525
35458W        W 3687  32.083  17.289  13.888
35459W        W 3688  41.117  44.542   4.241
35460W        W 3689  24.934  36.234  11.264
35461W        W 3690  14.188  10.714   4.535
35462W        W 3691  17.199  30.997   1.125
35463W        W 3692  25.434  38.414   1.842
35464W        W 3693  40.316  38.700   0.575
35465W        W 3694  42.932  35.461   1.112
35466W        W 3695   5.799   8.478  11.654
35467W        W 3696   1.618   9.877   0.268
35468W        W 3697  13.830  16.372   5.544
35469W        W 3698  33.307  24.191   2.178
35470W        W 3699  26.155  17.855  11.164
35471W        W 3700  16.289  25.073   1.409
35472W        W 3701  38.452  26.725  11.033
35473W        W 3702  34.877  37.103  14.394
35474W        W 3703  16.786  15.651  12.588
35475W        W 3704  28.599  14.139   4.429
35476W        W 3705  23.620  25.999   1.990
35477W        W 3706   7.643  32.768  12.436
35478W        W 3707  10.246  10.130  11.505
35479W        W 3708  43.930  34.703   4.631
35480W        W 3709  33.850   4.225   0.002
35481W        W 3710  18.067  35.939  11.673
35482W        W 3711   3.392  12.718   1.828
35483W        W 3712  44.966   4.375   0.117
35484W        W 3713  35.845   1.805  13.067
35485W        W 3714  13.694  11.273   3.061
35486W        W 3715  43.354  30.833  14.632
35487W        W 3716  14.765   3.463   2.428
35488W        W 3717   9.815  16.839  12.655
35489W        W 3718  33.019  32.579  12.470
35490W        W 3719  22.535  34.079  12.042
35491W        W 3720  43.828  19.842  14.789
35492W        W 3721  34.101  38.949  11.148
35493W        W 3722  29.956  26.276   0.857
35494W        W 3723  40.602  37.785  12.056
35495W        W 3724  26.575  18.507  11.557
35496W        W 3725  25.565  12.055   2.667
35497W        W 3726   1.945   3.661   2.879
35498W        W 3727  12.699  31.436   3.740
35499W        W 3728  42.059  25.297   5.067
35500W        W 3729  28.722   3.731  13.809
35501W        W 3730  11.777  31.651  11.273
35502W        W 3731   0.329   0.067   4.907
35503W        W 3732   5.230  31.122  14.263
35504W        W 3733  32.798   5.636  14.842
35505W        W 3734  37.158  26.028  14.954
35506W        W 3735  43.157  15.622  13.539
35507W        W 3736   6.905  13.236  11.947
35508W        W 3737  41.843  17.688  14.260
35509W        W 3738   8.338  44.851   2.350
35510W        W 3739  41.830  25.715   1.707
35511W        W 3740   3.927  23.233  12.572
35512W        W 3741   9.129   7.757  11.127
35513W        W 3742  15.978  22.794  13.339
35514W        W 3743  22.230  13.562   0.258
35515W        W 3744  18.288  25.370   5.492
35516W        W 3745  21.957  36.014  14.991
35517W        W 3746   4.914   3.583   2.426
35518W        W 3747  14.973  29.988   0.849
35519W        W 3748  24.981   7.938  11.594
35520W        W 3749   4.968  13.336   0.529
35521W        W 3750  16.241  20.173   9.987
35522W        W 3751  37.630  15.656  10.501
35523W        W 3752  29.062  11.234   2.424
35524W        W 3753  22.053   4.544  13.461
35525W        W 3754   6.622  26.468  14.516
35526W        W 3755  39.973  44.414  11.671
35527W        W 3756  21.193  31.520   0.823
35528W        W 3757   2.015   4.819  10.633
35529W        W 3758  40.481  28.326   4.197
35530W        W 3759  39.681  22.161   2.874
35531W        W 3760  31.040  40.612   0.857
35532W        W 3761  36.775  21.151  10.549
35533W        W 3762  29.881  44.112   2.746
35534W        W 3763  29.778   7.603   4.972
35535W        W 3764   5.892  35.563   0.748
35536W        W 3765  13.178  32.440   2.423
35537W        W 3766  14.028  24.931   3.359
35538W        W 3767   8.692  32.004  13.751
35539W        W 3768  41.554  30.707  13.397
35540W        W 3769  18.721   9.128   2.574
35541W        W 3770  31.332  25.017  13.989
35542W        W 3771  26.403  13.522  13.988
35543W        W 3772  40.988  13.124  11.628
35544W        W 3773  13.204  32.497  12.942
35545W        W 3774  23.151  17.021   1.778
35546W        W 3775  37.303  29.915   4.716
35547W        W 3776  32.533  31.354  14.321
35548W        W 3777  18.428  27.221  13.341
35549W        W 3778  21.883  44.795   3.269
35550W        W 3779  37.015   3.398  11.050
35551W        W 3780  43.541   4.657   2.375
35552W        W 3781  13.401  44.249  13.348
35553W        W 3782  19.506  15.291  11.979
35554W        W 3783  13.734  20.783   2.849
35555W        W 3784  42.119  11.060  13.454
35556W        W 3785   5.268   7.100   0.373
35557W        W 3786  42.789  30.742   0.502
35558W        W 3787   5.358   7.923  12.040
35559W        W 3788  41.358  29.679  12.452
35560W        W 3789  38.454  17.530  14.949
35561W        W 3790  14.223   7.532  13.469
35562W        W 3791  23.528  36.466  12.738
35563W        W 3792   3.832  42.751  13.044
35564W        W 3793   5.195  40.831  10.570
35565W        W 3794  29.439   1.046   1.967
35566W        W 3795   3.271  42.398  10.559
35567W        W 3796  14.304  43.913  13.030
35568W        W 3797   1.521  21.492   0.540
35569W        W 3798  41.902  12.377   0.926
35570W        W 3799  15.538   6.882   2.268
35571W        W 3800  44.165  14.126  13.328
35572W        W 3801   7.136  39.818  11.445
35573W        W 3802   9.874  20.316  12.069
35574W        W 3803  24.001  28.564  12.135
35575W        W 3804  34.311  24.584   3.761
35576W        W 3805  35.834  33.935   1.470
35577W        W 3806  17.513  39.947   2.644
35578W        W 3807   4.468  11.411  14.407
35579W        W 3808  15.318  40.543   1.771
35580W        W 3809  22.961  14.653   0.637
35581W        W 3810  15.784  27.368  14.159
35582W        W 3811  29.563  28.227  11.636
35583W        W 3812  42.338  43.449  13.927
35584W        W 3813   8.725  33.609   2.331
35585W        W 3814  24.887   3.427   4.970
35586W        W 3815  15.751   7.755  13.779
35587W        W 3816  44.787  23.623  11.974
35588W        W 3817   4.779  34.942   3.696
35589W        W 3818  17.674  30.969   1.882
35590W        W 3819  17.109  15.272  13.978
35591W        W 3820   4.909  39.593  13.208
35592W        W 3821  42.288  40.313  12.979
35593W        W 3822  17.772   3.254  11.146
35594W        W 3823  31.901  30.799   0.638
35595W        W 3824  20.523   5.385   1.296
35596W        W 3825   2.507  17.789  13.304
35597W        W 3826   9.227  20.162   4.228
35598W        W 3827   3.764  27.731  12.559
35599W        W 3828  40.583  20.368   1.428
35600W        W 3829   0.021  18.796  14.848
35601W        W 3830  34.105  32.174   1.747
35602W        W 3831  19.279  11.583   1.190
35603W        W 3832   4.020  30.771  12.596
35604W        W 3833  21.201  15.036   0.368
35605W        W 3834  34.013  11.853   1.782
35606W        W 3835   6.750   1.406  11.980
35607W        W 3836  31.231  42.912  10.653
35608W        W 3837  35.350   0.960   4.616
35609W        W 3838   2.509  38.956  14.963
35610W        W 3839  29.471  22.155   4.689
35611W        W 3840  23.746  25.375  12.840
35612W        W 3841  28.531  38.326   1.790
35613W        W 3842   8.252  18.048   2.116
35614W        W 3843  10.759  12.211   3.679
35615W        W 3844  38.980   3.324  14.371
35616W        W 3845   0.293  17.568   3.278
35617W        W 3846  18.336   5.016  13.628
35618W        W 3847  16.092  30.586   5.067
35619W        W 3848  33.003  31.054   1.873
35620W        W 3849   0.467  36.002  11.404
35621W        W 3850  22.915  27.608   0.912
35622W        W 3851  31.294  43.314   3.322
35623W        W 3852  22.459   2.735   1.157
35624W        W 3853  39.018   5.931  14.816
35625W        W 3854  43.712  27.585   1.647
35626W        W 3855  12.282  43.042  13.816
35627W        W 3856  13.952  10.148   4.052
35628W        W 3857  33.345   3.532   5.026
35629W        W 3858   9.971  18.884   3.816
35630W        W 3859  28.099  28.624   2.219
35631W        W 3860  18.761  44.238   2.699
35632W        W 3861  17.163  19.277  13.314
35633W        W 3862  13.726   7.416  12.110
35634W        W 3863  31.407  38.516  13.019
35635W        W 3864  28.578  11.675  11.362
35636W        W 3865   0.167  16.215   3.655
35637W        W 3866  13.282  13.150   3.805
35638W        W 3867  24.688  11.846  14.869
35639W        W 3868  37.410   2.489  14.803
35640W        W 3869  31.465  35.348  11.643
35641W        W 3870  28.201  27.898   2.800
35642W        W 3871  10.661  36.169   4.983
35643W        W 3872  20.545  16.033   0.682
35644W        W 3873  43.379  39.486  12.195
35645W        W 3874  42.864  34.988  14.297
35646W        W 3875  43.006  41.323  11.248
35647W        W 3876  42.812  31.072  12.344
35648W        W 3877  36.541  36.667  13.302
35649W        W 3878  12.250  16.618  12.308
35650W        W 3879   7.751  40.838   0.716
35651W        W 3880  38.502  14.219   0.398
35652W        W 3881  18.696  35.657  12.443
35653W        W 3882  17.141  41.129   3.461
35654W        W 3883  19.850   3.942   0.224
35655W        W 3884   3.185  35.678   3.246
35656W        W 3885  29.010  44.484   2.642
35657W        W 3886  21.613  32.676  11.169
35658W        W 3887  28.215  13.268   0.588
35659W        W 3888  15.242  37.450  12.652
35660W        W 3889  14.848  37.858   4.562
35661W        W 3890  38.626   5.017  12.114
35662W        W 3891   2.255  35.916  10.760
35663W        W 3892  40.318  15.343  12.061
35664W        W 3893  32.429  29.242  10.364
35665W        W 3894  23.979  15.653   3.683
35666W        W 3895   2.431  19.892   0.867
35667W        W 3896  17.658   9.943   0.961
35668W        W 3897  40.119  31.449   3.739
35669W        W 3898  30.415   8.152   1.786
35670W        W 3899   5.033  10.693  10.756
35671W        W 3900  26.414  17.121   1.935
35672W        W 3901   8.710   4.176   4.075
35673W        W 3902  43.242   0.771   0.365
35674W        W 3903  18.151  22.282   3.096
35675W        W 3904  35.942   1.662  14.121
35676W        W 3905  26.380   6.293  12.456
35677W        W 3906  31.170  27.499  13.781
35678W        W 3907  16.632   4.743   0.023
35679W        W 3908  33.920  11.380   3.128
35680W        W 3909  28.191   6.148   0.536
35681W        W 3910  35.922  38.879   2.794
35682W        W 3911  35.605  43.880   1.352
35683W        W 3912  37.843  20.690   2.478
35684W        W 3913  16.856  22.448   0.455
35685W        W 3914  38.528  18.284   2.326
35686W        W 3915  25.719  10.853  14.353
35687W        W 3916  30.828  35.944  12.815
35688W        W 3917  41.099   0.441  10.961
35689W        W 3918  32.089  41.510   3.763
35690W        W 3919  16.510  32.577  13.558
35691W        W 3920  43.426  38.719   3.653
35692W        W 3921  33.571  17.305   1.723
35693W        W 3922  13.307   2.710   3.536
35694W        W 3923  26.049   3.433  13.153
35695W        W 3924  25.514  23.127  13.834
35696W        W 3925   1.949  13.470   4.093
35697W        W 3926  12.407  38.548  13.910
35698W        W 3927  36.194  43.481   2.047
35699W        W 3928  41.667   6.297   0.452
35700W        W 3929  33.387   6.211  14.575
35701W        W 3930   9.633  40.525  12.660
35702W        W 3931   3.806  24.549   4.676
35703W        W 3932  20.554  17.352   2.777
35704W        W 3933   5.146   7.760  14.330
35705W        W 3934  42.517   5.024  10.883
35706W        W 3935   1.711  10.114  14.339
35707W        W 3936  26.862  12.698  13.616
35708W        W 3937  14.971  11.361  12.418
35709W        W 3938  22.011  26.182   0.878
35710W        W 3939  22.033  37.369   1.098
35711W        W 3940  20.137  19.570   1.671
35712W        W 3941  39.960   0.780  10.727
35713W        W 3942  20.313   9.913  11.284
35714W        W 3943   1.136  31.803   4.155
35715W        W 3944   9.580  27.789  11.097
35716W        W 3945  11.246   8.235  13.812
35717W        W 3946  25.806  13.817   4.251
35718W        W 3947  25.437  38.311  13.467
35719W        W 3948  44.829  41.158  14.822
35720W        W 3949  22.054  37.865   0.329
35721W        W 3950  22.060  13.397  11.806
35722W        W 3951  29.383   8.656   9.899
35723W        W 3952  32.322   3.969  14.339
35724W        W 3953  39.678  31.254  12.299
35725W        W 3954  15.312   8.259   2.309
35726W        W 3955  41.681  29.417  10.777
35727W        W 3956   4.475  32.095  14.297
35728W        W 3957  22.047  28.058  14.490
35729W        W 3958  33.941  15.638  12.339
35730W        W 3959   4.880  35.222   5.103
35731W        W 3960  44.383  11.760   1.825
35732W        W 3961  33.226   6.472   5.107
35733W        W 3962  34.925  21.388   2.553
35734W        W 3963  16.860  11.633   3.568
35735W        W 3964  42.422   8.885  14.500
35736W        W 3965  11.264  25.773   0.758
35737W        W 3966   0.765  19.778   5.145
35738W        W 3967   0.028  42.774   0.833
35739W        W 3968   4.019   8.099  12.173
35740W        W 3969  41.738  33.826  14.720
35741W        W 3970  38.407  18.228   4.398
35742W        W 3971   7.274  33.158  14.680
35743W        W 3972  11.199  25.606   4.612
35744W        W 3973  21.840  37.875  10.602
35745W        W 3974  32.314  21.084   2.963
35746W        W 3975  18.938  23.508  13.471
35747W        W 3976  34.166  19.931  13.060
35748W        W 3977  19.333  37.073   4.728
35749W        W 3978  22.450  34.492   2.375
35750W        W 3979  16.768  26.709   1.770
35751W        W 3980  20.274   8.879   3.162
35752W        W 3981  43.807  36.063   3.562
35753W        W 3982  14.220  11.722  11.183
35754W        W 3983  25.528  43.244   4.192
35755W        W 3984  11.469   2.418   3.380
35756W        W 3985  14.582  43.987   0.479
35757W        W 3986  35.396   6.485  10.841
35758W        W 3987   9.247  13.604  11.032
35759W        W 3988  20.835  39.583   2.347
35760W        W 3989  28.390  32.020   0.927
35761W        W 3990  22.815  17.086  13.416
35762W        W 3991  31.452  10.808  12.930
35763W        W 3992  12.399  16.520  10.970
35764W        W 3993  43.080   3.673   4.913
35765W        W 3994  13.885  43.253  11.149
35766W        W 3995  14.690  40.436  11.101
35767W        W 3996  30.319  40.011  13.988
35768W        W 3997  28.973  42.008  10.734
35769W        W 3998  37.090   5.772   2.318
35770W        W 3999  24.294  22.114   4.588
35771W        W 4000  14.497  12.716  10.830
35772W        W 4001  32.390  18.605  10.150
35773W        W 4002  14.236  38.934   0.727
35774W        W 4003  33.904  38.516   0.919
35775W        W 4004  41.570  24.653   0.389
35776W        W 4005  14.345  16.667   4.095
35777W        W 4006  44.864   7.348  12.324
35778W        W 4007   9.326  38.327   1.435
35779W        W 4008  29.196  13.044   0.407
35780W        W 4009  20.391  43.655  13.272
35781W        W 4010  38.788   4.222   1.852
35782W        W 4011  29.403  37.632  14.337
35783W        W 4012  29.241  13.270   3.244
35784W        W 4013  37.695  32.183  13.568
35785W        W 4014  22.450  34.398  11.623
35786W        W 4015   7.739  22.765  12.497
35787W        W 4016  30.501   6.862  12.611
35788W        W 4017  32.302  16.814  12.086
35789W        W 4018   3.754  27.193   2.272
35790W        W 4019  27.387  22.243  14.357
35791W        W 4020  10.810   4.696  13.755
35792W        W 4021  20.229  12.119  12.031
35793W        W 4022   6.105  17.308   1.286
35794W        W 4023   4.357   3.455  11.491
35795W        W 4024  16.258  41.234  10.924
35796W        W 4025  36.373   5.192   2.381
35797W        W 4026  36.131  17.773   4.406
35798W        W 4027  24.554  34.443   3.364
35799W        W 4028   0.296  10.475  12.629
35800W        W 4029   8.124   4.194   4.171
35801W        W 4030  10.808  14.713  11.229
35802W        W 4031  24.976   6.221  11.151
35803W        W 4032  42.055  15.725  11.344
35804W        W 4033   5.490  39.754  14.054
35805W        W 4034  36.817  23.872   4.711
35806W        W 4035   9.964   4.960   1.780
35807W        W 4036  40.083  20.551  10.719
35808W        W 4037   7.947   9.369   2.398
35809W        W 4038   8.637  31.466  12.012
35810W        W 4039  26.667   7.326   0.078
35811W        W 4040  24.069   2.495  13.386
35812W        W 4041  18.349  41.494  12.874
35813W        W 4042  10.313   2.214  14.453
35814W        W 4043  38.436  29.437  14.044
35815W        W 4044  20.323  15.748   2.245
35816W        W 4045  15.231  10.588   1.336
35817W        W 4046  22.772   4.222   4.829
35818W        W 4047  34.863  13.762  13.472
35819W        W 4048  34.868   1.400   0.174
35820W        W 4049  11.225   4.471  13.531
35821W        W 4050  44.564  11.743  14.536
35822W        W 4051  19.617  16.390   1.322
35823W        W 4052  32.067   2.680   4.228
35824W        W 4053  44.317  23.597   1.823
35825W        W 4054   9.789  10.668   3.867
35826W        W 4055  34.388  35.843  11.545
35827W        W 4056   1.377  19.472  14.997
35828W        W 4057  42.024   3.148   0.240
35829W        W 4058  32.467  42.272  10.886
35830W        W 4059  44.461  40.975   2.630
35831W        W 4060  41.905  18.138   1.774
35832W        W 4061  37.945  43.429   3.249
35833W        W 4062  28.802  36.473   9.437
35834W        W 4063  36.847  16.963   3.939
35835W        W 4064  39.356  30.884   0.030
35836W        W 4065  42.980   6.409  12.453
35837W        W 4066  44.856   6.589  14.275
35838W        W 4067   0.489  42.341   4.090
35839W        W 4068  14.075  39.573  12.343
35840W        W 4069  44.933  30.353   4.789
35841W        W 4070  26.901   0.204  11.855
35842W        W 4071   6.385   2.984  10.167
35843W        W 4072  12.911  11.222   1.313
35844W        W 4073  24.976  11.411   1.948
35845W        W 4074   2.165  44.140  10.044
35846W        W 4075  27.428   9.147  12.408
35847W        W 4076   6.629   9.937  12.279
35848W        W 4077  15.337  18.164   1.303
35849W        W 4078  13.138  32.280  11.925
35850W        W 4079   6.958  25.441   0.464
35851W        W 4080  10.424   5.008  14.996
35852W        W 4081  42.063  44.909  13.670
35853W        W 4082  17.725  15.868  13.536
35854W        W 4083  40.421  10.897  12.047
35855W        W 4084   5.502  35.595  12.165
35856W        W 4085   8.255   0.316  13.474
35857W        W 4086  27.902  27.082   0.291
35858W        W 4087  40.370   8.871  11.517
35859W        W 4088  42.403  41.790   3.806
35860W        W 4089  14.747  33.399  13.857
35861W        W 4090  40.531  17.046   1.860
35862W        W 4091   0.982  39.876   4.936
35863W        W 4092  35.758  36.632  11.167
35864W        W 4093  21.077   8.496  13.808
35865W        W 4094   6.866   2.934   3.105
35866W        W 4095  28.428  30.403   1.640
35867W        W 4096  43.772  26.950   4.373
35868W        W 4097  40.599   0.911   3.556
35869W        W 4098  27.740  31.144   2.260
35870W        W 4099   3.505  32.922   3.681
35871W        W 4100   5.100   5.722  10.350
35872W        W 4101  19.051  26.720   1.922
35873W        W 4102  22.589  40.182   2.603
35874W        W 4103   9.204  40.819   2.607
35875W        W 4104   7.325  25.630  12.540
35876W        W 4105  22.750  37.970  14.604
35877W        W 4106  41.560  44.306   4.139
35878W        W 4107   5.625   3.480   4.141
35879W        W 4108  19.329  32.937   0.321
35880W        W 4109  16.749  40.403  10.582
35881W        W 4110  41.890  17.606   4.334
35882W        W 4111  34.984  40.452  10.666
35883W        W 4112   8.797   4.893  13.514
35884W        W 4113  25.206  26.293  12.981
35885W        W 4114   8.365  31.170  12.936
35886W        W 4115  25.845  23.413   0.909
35887W        W 4116   2.774   0.854  10.558
35888W        W 4117  16.294   3.741  14.290
35889W        W 4118  35.358  10.308  11.117
35890W        W 4119  34.613  30.008  10.935
35891W        W 4120  27.167  40.753  13.034
35892W        W 4121  24.799  35.127  12.533
35893W        W 4122  23.468  23.745   3.623
35894W        W 4123  24.370  40.323  14.753
35895W        W 4124  24.005   5.452   1.176
35896W        W 4125  43.423  27.370  11.031
35897W        W 4126  16.654  23.523  12.091
35898W        W 4127   1.765  26.103   3.027
35899W        W 4128  17.656  22.070   4.511
35900W        W 4129   0.299  41.515  13.059
35901W        W 4130  44.702  20.141   3.836
35902W        W 4131   8.177  28.823   3.990
35903W        W 4132  14.902  35.367  14.931
35904W        W 4133  33.850   9.762  12.133
35905W        W 4134  19.003  35.382  13.946
35906W        W 4135  13.757  25.466  13.516
35907W        W 4136  23.427   9.640   3.155
35908W        W 4137   8.175  14.976   1.738
35909W        W 4138  17.264   9.628   2.290
35910W        W 4139  32.661  37.030   0.754
35911W        W 4140   9.672  26.233  12.655
35912W        W 4141   0.526  28.702  14.975
35913W        W 4142  33.412  28.920  12.809
35914W        W 4143  32.230  12.043   2.108
35915W        W 4144  34.369  19.575  13.929
35916W        W 4145   6.292   1.470  11.696
35917W        W 4146   0.690  41.170   4.731
35918W        W 4147  17.335   3.901  13.110
35919W        W 4148  34.760  16.612   2.250
35920W        W 4149   6.289  17.407   4.525
35921W        W 4150  30.888   3.668   4.904
35922W        W 4151  35.465   8.357  14.663
35923W        W 4152  10.069  37.871   1.195
35924W        W 4153  29.892  35.070   4.311
35925W        W 4154   8.589  21.750   2.344
35926W        W 4155  36.419  17.020  14.430
35927W        W 4156  42.399   4.297   2.603
35928W        W 4157   3.321  20.537   3.387
35929W        W 4158   4.318  38.074   0.448
35930W        W 4159  27.100   4.195  14.344
35931W        W 4160  29.696  12.608  10.653
35932W        W 4161  40.848   2.418   1.762
35933W        W 4162  20.121  11.788  12.624
35934W        W 4163  13.786   5.085   0.525
35935W        W 4164  24.093   9.328  14.828
35936W        W 4165   2.914  33.900  13.340
35937W        W 4166  10.243  15.246  10.659
35938W        W 4167   8.668  32.453  12.930
35939W        W 4168   8.901  40.195  12.577
35940W        W 4169  32.498  32.888   1.943
35941W        W 4170  39.969  43.773   2.714
35942W        W 4171  14.029   3.920   0.888
35943W        W 4172  11.227  40.292  11.119
35944W        W 4173  17.726  30.171   3.653
35945W        W 4174  33.094  19.692  10.682
35946W        W 4175  16.716   1.026  11.182
35947W        W 4176  15.282   9.718  14.999
35948W        W 4177   4.208  36.380  13.075
35949W        W 4178  35.200  36.679   3.409
35950W        W 4179   9.328   7.662  10.647
35951W        W 4180  39.977   4.243   3.408
35952W        W 4181  29.508  23.054  13.545
35953W        W 4182  17.564  14.796   3.289
35954W        W 4183  24.070  24.544   1.858
35955W        W 4184  42.733  12.851   2.295
35956W        W 4185   8.224  13.623  12.027
35957W        W 4186  37.548  14.402   4.090
35958W        W 4187  38.994  13.877  10.962
35959W        W 4188   3.380  21.028   2.694
35960W        W 4189  28.620  17.584  12.886
35961W        W 4190  12.362  16.507   2.409
35962W        W 4191  29.206  35.136  11.969
35963W        W 4192  21.997  14.451  13.307
35964W        W 4193  33.580   0.611  10.092
35965W        W 4194  32.626  41.292  13.430
35966W        W 4195  22.983   9.308   2.306
35967W        W 4196  36.380  31.187   0.097
35968W        W 4197  21.261  37.813   4.153
35969W        W 4198   1.925  23.950   0.640
35970W        W 4199   8.377  38.475  14.932
35971W        W 4200  10.064   7.543   2.814
35972W        W 4201  41.426   3.120  10.972
35973W        W 4202  19.040   8.848  12.113
35974W        W 4203   1.163  35.430  11.968
35975W        W 4204   7.299   4.043   3.079
35976W        W 4205   9.195  40.285   3.718
35977W        W 4206  24.732  26.730  11.997
35978W        W 4207  13.841   0.516   1.895
35979W        W 4208  19.361  12.466   1.445
35980W        W 4209  17.828  20.989  13.864
35981W        W 4210   5.785  35.664  13.492
35982W        W 4211  24.742  25.458   4.181
35983W        W 4212   1.654  18.458   4.083
35984W        W 4213  12.136  18.712   0.884
35985W        W 4214  23.012  20.679  13.429
35986W        W 4215  11.612  32.116  11.084
35987W        W 4216  35.518   3.985  14.771
35988W        W 4217  22.470  28.085  11.656
35989W        W 4218  31.653  16.000   5.702
35990W        W 4219  24.455  10.644   1.379
35991W        W 4220  15.516  43.466  12.543
35992W        W 4221   6.460   7.217  14.536
35993W        W 4222  32.743  26.180   1.656
35994W        W 4223  14.788  18.949   2.224
35995W        W 4224   7.109   7.368  13.953
35996W        W 4225  36.407  43.348  12.558
35997W        W 4226  36.366   7.417   4.191
35998W        W 4227   7.552  10.093   4.125
35999W        W 4228  17.038  25.103   4.504
36000W        W 4229  29.969  34.042   3.340
36001W        W 4230  10.714  31.509  10.384
36002W        W 4231  24.666  14.575  10.406
36003W        W 4232  23.869  11.361  11.288
36004W        W 4233  17.182  34.556   1.398
36005W        W 4234  30.398  19.169  14.369
36006W        W 4235   3.654  32.501  13.078
36007W        W 4236  12.101  24.431   0.953
36008W        W 4237  12.806  34.787   4.161
36009W        W 4238   3.453  37.791   3.773
36010W        W 4239  41.035  16.039   4.711
36011W        W 4240  29.971   0.860   3.122
36012W        W 4241  42.022  23.087  11.950
36013W        W 4242  27.847   0.815  14.461
36014W        W 4243   7.862   5.745  11.915
36015W        W 4244  25.464   0.031  13.859
36016W        W 4245  32.502  25.433  13.575
36017W        W 4246  32.964  24.422  12.549
36018W        W 4247  43.879  28.948   1.721
36019W        W 4248  33.904  18.216  11.229
36020W        W 4249  34.854  16.854   4.956
36021W        W 4250   0.136  37.693   2.852
36022W        W 4251  12.370   9.123   2.798
36023W        W 4252  27.023  18.760  11.315
36024W        W 4253  18.046  35.901  14.937
36025W        W 4254  12.212  19.714   4.979
36026W        W 4255  19.029   8.840  13.879
36027W        W 4256  35.990  16.063   0.782
36028W        W 4257   7.474  42.562   2.339
36029W        W 4258  14.705   3.792  11.055
36030W        W 4259   4.131  44.994   3.188
36031W        W 4260  29.480  14.322   1.444
36032W        W 4261  11.626  12.247   1.833
36033W        W 4262  23.689   4.213  14.655
36034W        W 4263  36.991  18.469   1.779
36035W        W 4264   0.526  20.783   2.058
36036W        W 4265  43.788   9.265   3.372
36037W        W 4266   5.802  43.968  12.448
36038W        W 4267   0.381  14.812  13.563
36039W        W 4268  17.798   8.608   1.375
36040W        W 4269  11.773  24.050   0.486
36041W        W 4270   1.023  37.946   3.938
36042W        W 4271   3.236   3.167  14.960
36043W        W 4272  42.277  26.794  12.915
36044W        W 4273  43.775  42.252   1.776
36045W        W 4274  13.180  34.841   0.073
36046W        W 4275  13.619   2.840   3.956
36047W        W 4276  32.413  38.522  14.363
36048W        W 4277  12.295  38.522   0.293
36049W        W 4278   7.378  36.805   4.848
36050W        W 4279   3.922  31.852  10.690
36051W        W 4280  22.094  11.290   3.237
36052W        W 4281  16.767  23.200   3.030
36053W        W 4282  23.281  36.480   5.760
36054W        W 4283   4.793  34.923   5.507
36055W        W 4284  19.193  10.791   2.313
36056W        W 4285  10.796   0.658   0.949
36057W        W 4286  41.835  10.112  12.165
36058W        W 4287  35.415  13.740   3.040
36059W        W 4288  36.580  28.091   2.136
36060W        W 4289  25.654  28.366  10.707
36061W        W 4290  16.336  22.973   2.767
36062W        W 4291  44.250  22.559  13.804
36063W        W 4292  29.086  24.968  13.464
36064W        W 4293  10.713  16.808  11.123
36065W        W 4294  21.194  42.503  13.502
36066W        W 4295  27.022  30.352   3.376
36067W        W 4296  23.461  38.496  13.450
36068W        W 4297  13.132  22.033  13.552
36069W        W 4298   9.642  30.530   1.742
36070W        W 4299   2.281   1.963  11.108
36071W        W 4300  16.421  40.881  13.013
36072W        W 4301  32.112  27.463   0.775
36073W        W 4302  36.650  38.917  13.332
36074W        W 4303  40.841  20.644   4.818
36075W        W 4304   7.217  20.515   2.363
36076W        W 4305  21.781   9.677  12.488
36077W        W 4306  32.879  21.313   3.790
36078W        W 4307   0.017  43.137   4.451
36079W        W 4308  34.127  11.651  11.322
36080W        W 4309   2.343  43.282   3.796
36081W        W 4310  31.057  34.068  11.276
36082W        W 4311  33.142   3.638   4.158
36083W        W 4312  16.184   2.312  12.713
36084W        W 4313  34.340   7.160   0.804
36085W        W 4314  26.962  17.615   0.748
36086W        W 4315  39.037  25.463   1.378
36087W        W 4316  31.618  22.542   4.538
36088W        W 4317   6.947   1.836  14.912
36089W        W 4318   1.459  27.094   0.776
36090W        W 4319  32.509  43.199  14.931
36091W        W 4320  29.945  10.360   3.293
36092W        W 4321   6.136  40.969   3.830
36093W        W 4322  42.771   9.894   4.718
36094W        W 4323  12.167  36.268  14.385
36095W        W 4324  36.875  39.712   0.362
36096W        W 4325   9.583   1.002   4.511
36097W        W 4326  39.495  21.638  13.052
36098W        W 4327  38.352  30.396   0.396
36099W        W 4328  39.413   8.910   1.736
36100W        W 4329  37.592  23.803   4.269
36101W        W 4330  41.903  27.079   4.612
36102W        W 4331  44.406  22.956  14.844
36103W        W 4332  43.049  34.954   1.976
36104W        W 4333  28.507  32.509   3.930
36105W        W 4334  36.275  16.316  13.359
36106W        W 4335   1.448  32.620  11.607
36107W        W 4336  28.942  44.833   0.386
36108W        W 4337  33.449   0.555  11.642
36109W        W 4338   9.364   8.894  13.973
36110W        W 4339  17.448  11.510  14.489
36111W        W 4340  27.152  38.283  13.984
36112W        W 4341  15.770  40.586   4.619
36113W        W 4342  27.935   6.250   4.183
36114W        W 4343  36.481  19.322   0.923
36115W        W 4344  22.197  28.887   1.861
36116W        W 4345  36.154  36.088  12.915
36117W        W 4346  17.905  23.335  13.456
36118W        W 4347  31.472  13.177  11.649
36119W        W 4348  27.058   1.249   4.905
36120W        W 4349  29.153  13.665  10.718
36121W        W 4350   6.523  17.675  12.445
36122W        W 4351   2.742  13.300   4.449
36123W        W 4352  42.523  21.270   3.313
36124W        W 4353   4.290   3.950   2.782
36125W        W 4354  20.199  15.497   2.719
36126W        W 4355  33.220  27.635   0.401
36127W        W 4356   3.738   2.728  11.957
36128W        W 4357  32.225  28.612   3.666
36129W        W 4358  22.680  43.376  10.731
36130W        W 4359   8.946  41.592   1.270
36131W        W 4360  36.006   9.350  10.736
36132W        W 4361   1.474  42.702   0.957
36133W        W 4362   7.324  33.850   2.956
36134W        W 4363   3.178  10.859  10.636
36135W        W 4364   0.255  35.027  13.780
36136W        W 4365  31.147  42.604   4.789
36137W        W 4366  31.149  28.066  13.059
36138W        W 4367  28.582  38.806   4.384
36139W        W 4368  14.006   3.033  11.964
36140W        W 4369  25.639   1.858  11.143
36141W        W 4370  18.224  42.260   2.600
36142W        W 4371   9.620   7.209  14.874
36143W        W 4372  40.495  39.822  10.964
36144W        W 4373  24.528  29.516   2.465
36145W        W 4374  32.640  32.499   3.371
36146W        W 4375  37.823   1.444   4.494
36147W        W 4376  44.939  11.645  13.582
36148W        W 4377   8.901   4.680   4.262
36149W        W 4378  14.920   8.043   3.772
36150W        W 4379  14.300  38.820   2.546
36151W        W 4380  35.423  27.834  13.596
36152W        W 4381   2.234   6.918  11.100
36153W        W 4382  18.702  17.658   1.113
36154W        W 4383   1.964  38.463   2.853
36155W        W 4384  40.867  24.026   0.028
36156W        W 4385  15.178  28.111   4.234
36157W        W 4386  34.837  14.474   2.758
36158W        W 4387  40.297  13.659   1.853
36159W        W 4388  41.046  33.358   2.851
36160W        W 4389   5.018  20.249  10.358
36161W        W 4390  31.143   7.025   1.955
36162W        W 4391   2.514   2.731   4.820
36163W        W 4392  39.091  26.111  13.112
36164W        W 4393   9.452  40.808   0.240
36165W        W 4394  35.604   4.435  14.494
36166W        W 4395  12.355  43.770  10.529
36167W        W 4396  28.602  40.763  14.811
36168W        W 4397  40.634  20.370   2.825
36169W        W 4398   3.948  17.388   1.122
36170W        W 4399  25.081  39.304   0.985
36171W        W 4400  37.537  39.100   4.631
36172W        W 4401  10.017   9.024  12.427
36173W        W 4402   8.605   9.338   3.972
36174W        W 4403  39.278   5.720  12.446
36175W        W 4404  39.293  44.452   0.231
36176W        W 4405  17.173  12.176   4.572
36177W        W 4406  26.204  33.137  11.083
36178W        W 4407  20.754  36.111   2.658
36179W        W 4408  17.148  35.127  11.163
36180W        W 4409  27.567   1.174  14.842
36181W        W 4410  38.953  22.727   4.637
36182W        W 4411  30.603  21.368   2.579
36183W        W 4412   0.317   9.272  14.874
36184W        W 4413  17.200  15.228  10.647
36185W        W 4414  14.998  20.565   0.007
36186W        W 4415  33.866  10.717   1.078
36187W        W 4416   9.792   0.699   4.115
36188W        W 4417  42.315  30.198  14.840
36189W        W 4418  44.008  42.500   2.231
36190W        W 4419  37.773  42.040   1.884
36191W        W 4420  33.574  32.940   3.518
36192W        W 4421   7.758  31.910   1.342
36193W        W 4422  37.476  25.610   1.247
36194W        W 4423  22.175  19.063   1.216
36195W        W 4424  30.729  41.786  12.597
36196W        W 4425  27.186  36.031  13.760
36197W        W 4426  23.109  25.213   2.439
36198W        W 4427  30.646   6.409   0.894
36199W        W 4428   1.719  37.368  10.209
36200W        W 4429  37.115   2.055   3.669
36201W        W 4430   7.358  16.192  10.453
36202W        W 4431  21.840  10.756  11.798
36203W        W 4432   9.224  15.581  14.499
36204W        W 4433  36.284  43.844  12.533
36205W        W 4434  14.765   6.035  12.028
36206W        W 4435  12.406   0.511  13.803
36207W        W 4436  32.392  33.882  11.609
36208W        W 4437  18.475  19.604  14.935
36209W        W 4438  11.255  20.788   4.808
36210W        W 4439  14.551   8.358   1.875
36211W        W 4440   2.527   3.700  12.560
36212W        W 4441  11.832  31.255   0.916
36213W        W 4442  36.582  10.319  13.854
36214W        W 4443  38.906  27.304   1.163
36215W        W 4444  32.273  36.051   5.072
36216W        W 4445  35.616  33.631  10.831
36217W        W 4446  43.087   2.096   1.812
36218W        W 4447  16.275  20.351   0.660
36219W        W 4448   0.484  21.594   3.380
36220W        W 4449  41.175  20.541   1.864
36221W        W 4450  31.933  32.661   2.243
36222W        W 4451  25.001  14.095  14.951
36223W        W 4452  26.913  33.150  12.739
36224W        W 4453  24.379  14.692  12.834
36225W        W 4454  14.576   8.301   2.871
36226W        W 4455  39.046   5.420  14.867
36227W        W 4456   0.902  10.622   4.150
36228W        W 4457  31.482  43.395   4.672
36229W        W 4458  12.558   4.275  11.098
36230W        W 4459   4.944  13.283  12.825
36231W        W 4460  31.774  34.533  12.732
36232W        W 4461  14.493  15.150  10.772
36233W        W 4462   3.178  37.998   3.268
36234W        W 4463  21.440   3.170  11.561
36235W        W 4464   1.398  22.957   4.260
36236W        W 4465  22.635   3.182   2.373
36237W        W 4466  19.180  43.327   1.189
36238W        W 4467  28.182  25.546   3.204
36239W        W 4468  42.522  10.316   2.222
36240W        W 4469  10.331  12.863  11.408
36241W        W 4470  28.119  25.699  13.978
36242W        W 4471   4.561  12.300   3.036
36243W        W 4472  26.054  28.290   3.196
36244W        W 4473  33.631  15.752   3.192
36245W        W 4474  35.575  39.017   4.872
36246W        W 4475  37.943  37.289  10.350
36247W        W 4476  28.471  32.130   2.075
36248W        W 4477  33.294   0.501   0.743
36249W        W 4478   8.143  15.741  11.675
36250W        W 4479  28.941   6.131   1.490
36251W        W 4480   4.827  26.657   3.785
36252W        W 4481   5.501  27.498  14.925
36253W        W 4482  30.851   0.598   1.800
36254W        W 4483   8.849  10.345   3.725
36255W        W 4484  18.114   8.669  14.848
36256W        W 4485   9.729  35.284  14.881
36257W        W 4486  24.779  40.312   2.796
36258W        W 4487  19.636  14.466   0.841
36259W        W 4488   9.620  35.017   2.607
36260W        W 4489  18.456  42.266   4.128
36261W        W 4490  18.754   5.633  13.563
36262W        W 4491  26.415  42.194  12.251
36263W        W 4492  17.991  24.732  11.973
36264W        W 4493   5.426  18.760  12.527
36265W        W 4494  29.547  24.587  10.758
36266W        W 4495  15.558  40.249  14.765
36267W        W 4496   2.412  25.103   9.929
36268W        W 4497  13.137  12.651   1.138
36269W        W 4498  44.632  28.546  12.543
36270W        W 4499  22.024  34.139  11.870
36271W        W 4500  28.029   6.748   4.226
36272W        W 4501  22.819  34.590  14.147
36273W        W 4502  25.245  35.007  11.652
36274W        W 4503   8.810  22.076  14.369
36275W        W 4504  19.642  23.608   1.685
36276W        W 4505  25.552  22.339  14.975
36277W        W 4506  19.953  32.215  12.387
36278W        W 4507  13.157  19.629   1.340
36279W        W 4508  38.063  36.035  13.845
36280W        W 4509  16.039   3.953  13.237
36281W        W 4510  42.909  13.503   0.220
36282W        W 4511  38.968   0.357   4.866
36283W        W 4512  29.972  26.557  10.509
36284W        W 4513  12.201  36.291   5.033
36285W        W 4514  26.698   5.146   3.870
36286W        W 4515  40.978  25.872  14.812
36287W        W 4516   4.900  17.542   3.652
36288W        W 4517  17.701  32.347  13.868
36289W        W 4518   0.668   0.932   3.037
36290W        W 4519  15.273  37.014  11.035
36291W        W 4520  19.628  37.802   0.553
36292W        W 4521  16.719  42.931   4.540
36293W        W 4522   1.743  14.849  12.504
36294W        W 4523  22.001  30.638  14.729
36295W        W 4524   0.281  43.536   0.725
36296W        W 4525  10.090  24.978   1.299
36297W        W 4526  17.364  12.846  11.216
36298W        W 4527  18.086  31.063   1.042
36299W        W 4528  19.984  20.166  14.502
36300W        W 4529  43.851  27.157   4.944
36301W        W 4530  10.126  43.374  11.481
36302W        W 4531  29.828  41.229  13.346
36303W        W 4532  21.328  11.347   0.433
36304W        W 4533   9.946  36.750   3.611
36305W        W 4534  18.826  37.622  11.638
36306W        W 4535   4.055   0.710  14.442
36307W        W 4536   1.434  42.518  12.631
36308W        W 4537  35.144  42.925   4.257
36309W        W 4538  18.532  17.540  14.335
36310W        W 4539  43.952   4.185   1.413
36311W        W 4540  35.493  23.534   4.695
36312W        W 4541  30.817  37.861  13.419
36313W        W 4542  28.798  11.330   3.237
36314W        W 4543  13.008   4.307  14.066
36315W        W 4544  16.174  19.713  13.363
36316W        W 4545  11.822   5.465  10.664
36317W        W 4546  36.432  14.876   3.215
36318W        W 4547  14.603  24.977   1.043
36319W        W 4548  12.909  27.915   5.246
36320W        W 4549  16.043  30.316   3.305
36321W        W 4550   3.849  16.217   4.362
36322W        W 4551  24.118  12.016  11.079
36323W        W 4552   5.310  28.600  11.891
36324W        W 4553  36.695   5.880   3.593
36325W        W 4554  42.868   1.538  12.079
36326W        W 4555  39.517  38.814  14.326
36327W        W 4556  33.071  13.698   2.249
36328W        W 4557  36.617  35.495  12.017
36329W        W 4558  42.094  34.201   4.153
36330W        W 4559  15.183  33.117  14.935
36331W        W 4560  31.953  20.087  14.633
36332W        W 4561  25.887  33.342  12.660
36333W        W 4562  11.524  30.955   1.197
36334W        W 4563  37.497  34.843  11.524
36335W        W 4564  31.647   3.764   3.205
36336W        W 4565  27.629   2.795   4.439
36337W        W 4566   2.789  30.763  12.995
36338W        W 4567   4.725  42.483   3.151
36339W        W 4568  43.010   4.578   3.105
36340W        W 4569  37.492  38.896   2.216
36341W        W 4570   0.581  28.482  12.529
36342W        W 4571   1.863   2.167  11.973
36343W        W 4572  32.154  13.154   0.996
36344W        W 4573  11.142  44.981   0.919
36345W        W 4574  26.548   7.612  11.416
36346W        W 4575  34.451  13.886   3.126
36347W        W 4576  18.797  23.208  11.867
36348W        W 4577  37.193  43.834  11.178
36349W        W 4578  25.638   3.269   4.607
36350W        W 4579  29.126  30.403  10.620
36351W        W 4580  24.244  15.550  12.842
36352W        W 4581  23.620  21.803   2.089
36353W        W 4582   7.624   9.687  13.030
36354W        W 4583  11.255  34.363  10.783
36355W        W 4584  18.711   7.847   1.343
36356W        W 4585   2.995   1.637  14.839
36357W        W 4586  22.974  12.686  13.009
36358W        W 4587   7.270  23.440   0.381
36359W        W 4588  12.073  13.802  11.398
36360W        W 4589  28.687  20.818   2.670
36361W        W 4590   8.727  31.121   3.691
36362W        W 4591  20.837  21.326   4.750
36363W        W 4592  39.956  37.117   3.337
36364W        W 4593  18.726  26.235  10.688
36365W        W 4594  12.341  38.886  14.318
36366W        W 4595   8.354  34.530  10.532
36367W        W 4596  34.290  42.878  12.498
36368W        W 4597   1.841  16.964   3.242
36369W        W 4598  10.542  26.847   2.718
36370W        W 4599  41.436  30.008   3.084
36371W        W 4600  29.416  38.457  12.286
36372W        W 4601   4.767  13.317  13.299
36373W        W 4602  31.148  14.515  11.453
36374W        W 4603  19.836   7.939  12.020
36375W        W 4604  15.675  20.064  10.657
36376W        W 4605  26.649  14.707   2.192
36377W        W 4606  43.037  43.042  11.079
36378W        W 4607   7.100  39.336   1.789
36379W        W 4608  42.068  12.642   3.653
36380W        W 4609  43.001  35.122   0.715
36381W        W 4610  25.425  30.544   0.828
36382W        W 4611  16.897  27.015  11.427
36383W        W 4612  42.366   5.597  13.831
36384W        W 4613   1.737  14.340   1.865
36385W        W 4614  33.338  11.067  12.331
36386W        W 4615  31.915  44.910   0.787
36387W        W 4616  24.697  32.309  10.532
36388W        W 4617  13.333  16.979  14.169
36389W        W 4618   6.837   2.829  14.100
36390W        W 4619  40.484   6.688  13.086
36391W        W 4620   4.939  40.260  13.710
36392W        W 4621  35.896  25.131   4.179
36393W        W 4622  37.538  33.967   1.255
36394W        W 4623   1.720  21.695  14.794
36395W        W 4624  36.441   8.794   3.348
36396W        W 4625  29.803  14.907  12.843
36397W        W 4626  22.981   4.240  13.053
36398W        W 4627  43.292  26.113  11.545
36399W        W 4628  35.768  25.682   4.237
36400W        W 4629  27.958  12.607   4.062
36401W        W 4630  32.560  13.591  10.935
36402W        W 4631  20.682  22.972   3.581
36403W        W 4632  14.674  21.752   0.998
36404W        W 4633  44.752  20.666   1.135
36405W        W 4634  12.250  19.032  12.657
36406W        W 4635   3.335  34.578  11.423
36407W        W 4636  17.102   1.393   2.321
36408W        W 4637  29.991  31.667   4.150
36409W        W 4638   1.379  12.448   3.734
36410W        W 4639  25.551  25.366   3.909
36411W        W 4640   5.254  25.606   3.583
36412W        W 4641  34.143  13.646  14.838
36413W        W 4642  28.305  41.949   0.826
36414W        W 4643  38.534  18.760   3.260
36415W        W 4644  24.366  21.328   3.124
36416W        W 4645  33.638  35.064   0.530
36417W        W 4646   4.872  17.144   0.170
36418W        W 4647  20.971  34.819   2.416
36419W        W 4648   0.507  31.676  11.551
36420W        W 4649   1.963   5.277  13.058
36421W        W 4650  14.987   6.372  14.349
36422W        W 4651  35.709  21.996  11.604
36423W        W 4652  16.064  27.325  12.418
36424W        W 4653  40.442  14.846   0.383
36425W        W 4654  20.347   8.515   4.191
36426W        W 4655  36.430  27.917  13.520
36427W        W 4656  28.058  34.460   1.390
36428W        W 4657  28.736  19.354   2.793
36429W        W 4658   4.437  39.397   4.621
36430W        W 4659  12.698  39.311   2.752
36431W        W 4660  43.555  17.334   4.573
36432W        W 4661  23.493  23.016   1.799
36433W        W 4662  21.110  16.661   2.702
36434W        W 4663  40.402  14.566  12.461
36435W        W 4664   6.495  11.181   0.372
36436W        W 4665  22.578   9.516  14.417
36437W        W 4666  36.840  34.301   4.207
36438W        W 4667  20.263  36.714   4.835
36439W        W 4668  31.013   2.827  11.506
36440W        W 4669  16.749  21.287  12.991
36441W        W 4670   0.726  16.139  11.425
36442W        W 4671   1.123  42.476  13.885
36443W        W 4672  33.862  28.520   1.426
36444W        W 4673  13.585  18.096  12.453
36445W        W 4674  35.646   9.770  13.476
36446W        W 4675  15.138  42.521   1.916
36447W        W 4676  36.913  16.012   3.873
36448W        W 4677   0.295  42.761  13.839
36449W        W 4678   7.570  14.504   9.925
36450W        W 4679  18.585  34.151  13.294
36451W        W 4680  33.803  10.201  12.436
36452W        W 4681  40.655  23.576   3.426
36453W        W 4682  40.805  24.230   2.405
36454W        W 4683  17.376  25.234   5.191
36455W        W 4684   1.449  42.772   2.324
36456W        W 4685  35.466  38.877  14.982
36457W        W 4686  35.868  36.148   4.004
36458W        W 4687  16.082   7.905   0.263
36459W        W 4688   3.160  42.870   0.753
36460W        W 4689  29.163  24.521   2.292
36461W        W 4690   8.902  39.503  14.272
36462W        W 4691   5.699  43.051   1.231
36463W        W 4692  27.176  30.121  13.113
36464W        W 4693  30.910  16.142   4.439
36465W        W 4694   4.359  21.133  11.207
36466W        W 4695  26.565  17.209  13.026
36467W        W 4696  41.229   3.812  11.182
36468W        W 4697  26.967   4.424  12.828
36469W        W 4698  28.064  15.835  14.835
36470W        W 4699  41.257  12.292   3.700
36471W        W 4700  29.125  15.077  11.537
36472W        W 4701  13.166  35.196   1.386
36473W        W 4702  19.424  40.677   1.443
36474W        W 4703  35.928  25.766   0.478
36475W        W 4704  10.167  29.813   2.283
36476W        W 4705  30.535  23.487  12.452
36477W        W 4706  11.375  41.637   4.489
36478W        W 4707   7.455  31.640   0.997
36479W        W 4708  41.279  42.651  13.405
36480W        W 4709   4.405  42.973   0.077
36481W        W 4710  35.512  14.768  11.584
36482W        W 4711   0.431   8.232  11.389
36483W        W 4712  24.579  26.046  10.883
36484W        W 4713   9.710  30.146   0.442
36485W        W 4714  16.221  15.762   5.390
36486W        W 4715  30.358  17.098   2.519
36487W        W 4716   4.646  12.631   3.431
36488W        W 4717   4.499   3.598  13.713
36489W        W 4718   2.323   4.946  14.781
36490W        W 4719   8.604  24.269  11.050
36491W        W 4720  23.114  36.531  10.875
36492W        W 4721  22.450  14.321   1.811
36493W        W 4722  27.441  13.779  12.002
36494W        W 4723   7.399  12.394   1.785
36495W        W 4724  26.360  36.387   1.956
36496W        W 4725  15.155  38.488   0.057
36497W        W 4726  26.418  41.968   0.283
36498W        W 4727  40.073  22.242  14.120
36499W        W 4728  37.065  26.501   1.768
36500W        W 4729  40.464   8.290   0.036
36501W        W 4730  20.897  27.577   0.898
36502W        W 4731   8.838  13.865  11.281
36503W        W 4732  20.987  16.383  12.442
36504W        W 4733  15.848  31.575   1.777
36505W        W 4734  34.877  17.200  14.355
36506W        W 4735  22.144   0.975  12.946
36507W        W 4736  29.615  17.805   3.895
36508W        W 4737   2.820   7.416  14.065
36509W        W 4738  42.272  28.965  14.287
36510W        W 4739  26.586  19.162   4.418
36511W        W 4740  13.424  42.939   9.937
36512W        W 4741  16.843   0.540   0.144
36513W        W 4742  30.602   3.730   3.417
36514W        W 4743  12.632   8.820   1.825
36515W        W 4744  30.600  38.136   2.524
36516W        W 4745  44.758   1.983   3.222
36517W        W 4746  34.456  33.821   2.720
36518W        W 4747  12.725  33.772   2.426
36519W        W 4748   5.500  38.368  14.889
36520W        W 4749   0.040  41.835  14.267
36521W        W 4750  29.935  41.296   1.209
36522W        W 4751  16.789  28.205   2.804
36523W        W 4752  13.679  30.296  12.962
36524W        W 4753  24.063  36.853   1.739
36525W        W 4754  26.606  32.997   4.103
36526W        W 4755  30.253  27.799   2.949
36527W        W 4756  36.733  31.474   3.166
36528W        W 4757  15.672   3.093  13.556
36529W        W 4758  19.448  13.784  14.783
36530W        W 4759  20.781  40.823   0.981
36531W        W 4760  11.621  20.107   3.276
36532W        W 4761   7.398  16.108   2.710
36533W        W 4762   1.451   6.110  11.852
36534W        W 4763  16.707  39.622   4.515
36535W        W 4764  12.667  40.099   2.286
36536W        W 4765   8.342   6.641  11.485
36537W        W 4766  25.670  14.277   2.335
36538W        W 4767  41.521  19.218   4.523
36539W        W 4768  21.970  18.240  10.332
36540W        W 4769  22.964  43.546   1.356
36541W        W 4770  12.786   9.272  11.837
36542W        W 4771  10.956   0.530  13.927
36543W        W 4772  33.131  26.136   4.848
36544W        W 4773  37.078  15.342   0.161
36545W        W 4774  25.418  13.310   2.426
36546W        W 4775   8.715  34.497   0.291
36547W        W 4776  17.923  24.278  14.971
36548W        W 4777  29.239  28.065   2.783
36549W        W 4778   8.733  30.154   2.523
36550W        W 4779  11.318  37.012   0.979
36551W        W 4780  44.826  23.634   4.499
36552W        W 4781   7.709  14.207  14.038
36553W        W 4782  17.044   8.940   1.747
36554W        W 4783  37.904  16.342   2.161
36555W        W 4784  42.312  14.192   1.674
36556W        W 4785  34.067  25.817  11.145
36557W        W 4786  20.118  27.807  14.900
36558W        W 4787  12.966  33.189  10.624
36559W        W 4788  16.174  12.797   4.044
36560W        W 4789   8.891  17.766  13.922
36561W        W 4790   3.470   3.798   3.368
36562W        W 4791  23.783   7.622  12.605
36563W        W 4792  39.922  42.548  13.911
36564W        W 4793  34.253  23.033  14.073
36565W        W 4794  25.633  28.857  14.379
36566W        W 4795  23.340  27.440  11.276
36567W        W 4796   5.996  24.718  12.451
36568W        W 4797   6.507  32.888   2.324
36569W        W 4798   0.785  28.322   0.249
36570W        W 4799  32.841   2.330   3.845
36571W        W 4800  41.614   2.823  14.352
36572W        W 4801   9.262   7.245   2.132
36573W        W 4802  14.616  26.122   3.282
36574W        W 4803   2.047  39.079  11.660
36575W        W 4804  26.020  35.383  12.503
36576W        W 4805   8.084  19.014   2.617
36577W        W 4806  36.419   7.719   2.322
36578W        W 4807  38.423   9.627   0.885
36579W        W 4808  35.876  12.194  12.981
36580W        W 4809  43.541  20.305  13.832
36581W        W 4810  23.544   3.373   1.861
36582W        W 4811  43.300  13.529   1.343
36583W        W 4812  20.045  15.655  12.030
36584W        W 4813  27.483   3.170  12.891
36585W        W 4814  13.437  26.956  12.025
36586W        W 4815  24.701  13.900  12.437
36587W        W 4816   9.156  34.606   4.652
36588W        W 4817  13.839  21.803   1.087
36589W        W 4818  27.205  10.810   5.007
36590W        W 4819   3.348  39.143  12.089
36591W        W 4820   8.897  33.157   1.417
36592W        W 4821  12.302  31.678   5.067
36593W        W 4822  34.473   0.690  11.089
36594W        W 4823  28.146  37.345  13.847
36595W        W 4824  19.133  42.252   0.296
36596W        W 4825   9.195  42.519  10.137
36597W        W 4826  18.644  42.114   0.416
36598W        W 4827  16.797  21.798  10.536
36599W        W 4828   4.813  34.820  14.504
36600W        W 4829   6.377  19.837   2.386
36601W        W 4830  24.286  28.031   2.678
36602W        W 4831  14.611   2.641  12.943
36603W        W 4832  15.058  11.192  11.408
36604W        W 4833   4.876  32.248   3.721
36605W        W 4834  26.063   3.184  11.609
36606W        W 4835  19.672   5.256   2.893
36607W        W 4836   3.467  36.058   3.065
36608W        W 4837  42.332  25.026   4.279
36609W        W 4838   1.081  12.814   0.274
36610W        W 4839  40.196   8.415   4.469
36611W        W 4840   6.001  35.607  12.059
36612W        W 4841  27.760  41.728   0.738
36613W        W 4842  19.986  33.968  13.930
36614W        W 4843  33.931  42.100  13.363
36615W        W 4844  35.876  15.831   2.691
36616W        W 4845  11.209   6.476   3.768
36617W        W 4846  14.265  13.092  12.662
36618W        W 4847  32.734  31.584  13.039
36619W        W 4848   3.949   1.840  13.533
36620W        W 4849  21.973  30.515   0.234
36621W        W 4850   4.982  13.202   2.214
36622W        W 4851  22.275   4.895  11.426
36623W        W 4852  31.537  20.634  10.634
36624W        W 4853  28.387  17.161   2.324
36625W        W 4854   2.672  34.061   1.247
36626W        W 4855   9.064  39.364   0.688
36627W        W 4856   0.332  25.680  14.970
36628W        W 4857   2.366   7.989   3.679
36629W        W 4858  32.553  35.332   4.626
36630W        W 4859   4.191   1.738  12.058
36631W        W 4860  43.911   4.213   3.310
36632W        W 4861  24.997  20.591   1.379
36633W        W 4862  31.037  18.683   1.358
36634W        W 4863  28.241  29.143  14.876
36635W        W 4864   3.823  26.115   4.146
36636W        W 4865   4.735   8.829   4.580
36637W        W 4866  25.219  40.312   1.964
36638W        W 4867  17.266  38.544   0.002
36639W        W 4868   2.817  35.189  13.092
36640W        W 4869  29.907  14.974   1.237
36641W        W 4870  32.035   7.824  13.814
36642W        W 4871  18.062  10.534   4.682
36643W        W 4872  17.017  25.239  13.511
36644W        W 4873  40.318   9.988   4.741
36645W        W 4874  33.999  18.140  13.717
36646W        W 4875  15.893  16.734  13.488
36647W        W 4876  30.786  24.569   4.772
36648W        W 4877  43.531   0.356  13.896
36649W        W 4878  15.621  31.686  12.982
36650W        W 4879   6.343   7.663   0.388
36651W        W 4880  24.269  11.715  11.982
36652W        W 4881  21.527   8.055   2.248
36653W        W 4882   0.959  24.485   3.367
36654W        W 4883  18.289   7.610   2.694
36655W        W 4884  13.805  19.450   2.147
36656W        W 4885  24.500   6.990  13.345
36657W        W 4886  12.323   1.572  11.064
36658W        W 4887  41.216  43.629  14.427
36659W        W 4888  17.829  29.573   2.640
36660W        W 4889  22.564  11.447   0.870
36661W        W 4890  20.288  13.195   0.344
36662W        W 4891   1.684   3.013  12.953
36663W        W 4892  38.798  25.029  10.248
36664W        W 4893   5.274  17.976   2.077
36665W        W 4894  40.799  10.716   4.812
36666W        W 4895   9.141  35.584   4.725
36667W        W 4896  18.041   4.691   4.023
36668W        W 4897  13.915  38.592   4.545
36669W        W 4898   2.196  39.284   2.646
36670W        W 4899  12.145   0.464   3.783
36671W        W 4900  41.495  13.105   0.228
36672W        W 4901  44.226  25.060   0.108
36673W        W 4902  12.469  10.451   4.065
36674W        W 4903  44.295   3.842   1.242
36675W        W 4904  19.815  36.340  10.632
36676W        W 4905  24.908  36.439   0.718
36677W        W 4906  28.657  24.791   1.194
36678W        W 4907  14.120   8.852   4.924
36679W        W 4908  15.256   8.109  11.100
36680W        W 4909   2.208  18.296  13.412
36681W        W 4910  14.283  33.154  14.881
36682W        W 4911  28.019  29.337   3.923
36683W        W 4912   4.610  30.998  12.474
36684W        W 4913  15.774   6.899   1.799
36685W        W 4914  28.948  38.336   1.404
36686W        W 4915  36.039  24.165   4.082
36687W        W 4916  21.341  30.727   4.031
36688W        W 4917  35.290  14.844   0.852
36689W        W 4918  23.774  41.206   3.790
36690W        W 4919  13.024  15.248  12.445
36691W        W 4920  35.011   8.338  12.893
36692W        W 4921  16.375  36.955  12.098
36693W        W 4922   3.466  42.087   0.342
36694W        W 4923  37.315  15.089  14.234
36695W        W 4924  21.728  12.087   0.871
36696W        W 4925  43.586  36.497   3.751
36697W        W 4926  24.104  31.975  14.091
36698W        W 4927   6.385  41.958  12.703
36699W        W 4928   5.500  22.093  10.588
36700W        W 4929   9.449  42.774   2.714
36701W        W 4930  35.250  36.660   1.379
36702W        W 4931  38.766  18.904  12.495
36703W        W 4932  35.069  36.773   4.259
36704W        W 4933   9.498  21.754  11.050
36705W        W 4934  33.564  20.271  12.873
36706W        W 4935  34.948  23.216  11.512
36707W        W 4936  19.282  12.221  11.241
36708W        W 4937  10.956  19.518   2.721
36709W        W 4938  19.231  25.468  14.249
36710W        W 4939  35.137  21.491   0.705
36711W        W 4940  22.202  43.860   3.307
36712W        W 4941  24.741  43.425   2.722
36713W        W 4942  15.051  15.576   0.316
36714W        W 4943  37.161  30.035  14.979
36715W        W 4944   0.431  38.826  14.889
36716W        W 4945   2.211  36.319  11.154
36717W        W 4946  23.537  38.487  12.527
36718W        W 4947  33.725  17.972  14.610
36719W        W 4948  41.994  41.285  11.479
36720W        W 4949  16.651  30.005  12.357
36721W        W 4950  42.236  44.729   3.732
36722W        W 4951  30.531   0.898   2.347
36723W        W 4952  24.669  17.501  10.788
36724W        W 4953   2.849  13.577  11.479
36725W        W 4954   7.257   4.513   1.166
36726W        W 4955  39.721  14.983   1.312
36727W        W 4956  30.717  35.306   4.229
36728W        W 4957  18.486  33.572   4.907
36729W        W 4958   8.735  31.746  12.436
36730W        W 4959  24.716  44.823   1.331
36731W        W 4960  27.517   9.226  12.937
36732W        W 4961   9.612   2.795   1.871
36733W        W 4962   8.739  22.648  13.792
36734W        W 4963  17.815  15.039  13.331
36735W        W 4964  12.072  15.052   4.965
36736W        W 4965  20.615  31.191  13.352
36737W        W 4966   2.387  15.015  12.144
36738W        W 4967   0.428  44.031   4.140
36739W        W 4968  16.177   7.272   3.594
36740W        W 4969  21.258  33.540  14.027
36741W        W 4970  43.868  37.478  14.915
36742W        W 4971  22.642  33.462  10.101
36743W        W 4972  36.553  18.195   1.793
36744W        W 4973  39.963  29.344   1.330
36745W        W 4974   5.134  41.255   3.262
36746W        W 4975  37.031  26.467  11.454
36747W        W 4976  12.531  23.646  12.413
36748W        W 4977  23.443  39.380   0.091
36749W        W 4978  21.641  15.101   3.853
36750W        W 4979   4.193  27.555  12.303
36751W        W 4980  18.092  38.936  11.446
36752W        W 4981  32.728  21.318  12.009
36753W        W 4982  10.670  13.398   1.958
36754W        W 4983   8.204  34.844  11.336
36755W        W 4984  26.713  20.971   4.159
36756W        W 4985  23.444   7.348   4.141
36757W        W 4986  15.186  43.380  14.399
36758W        W 4987  42.881  42.027   2.315
36759W        W 4988  20.193  18.315  11.737
36760W        W 4989   1.464  37.963  10.787
36761W        W 4990  15.179  39.871   1.085
36762W        W 4991  18.062  27.209   0.838
36763W        W 4992   8.651  43.779  14.417
36764W        W 4993  31.152  34.556  12.002
36765W        W 4994  11.769  13.679   1.365
36766W        W 4995  40.054  34.045   4.124
36767W        W 4996  29.153  22.209   1.778
36768W        W 4997  23.982   3.294  14.693
36769W        W 4998  23.736  36.834   2.672
36770W        W 4999  17.777  21.097   1.289
36771W        W 5000   8.848  21.592   4.620
36772W        W 5001   2.779  38.303   4.944
36773W        W 5002  40.267   3.760   3.870
36774W        W 5003  38.317  25.532   5.197
36775W        W 5004  21.452  40.152   0.368
36776W        W 5005   7.465  41.326   1.329
36777W        W 5006  44.273   5.825   3.211
36778W        W 5007   2.319  14.128   0.739
36779W        W 5008   0.786  23.586   0.683
36780W        W 5009  16.657  27.851   9.621
36781W        W 5010  22.643   8.233   1.362
36782W        W 5011   4.484  14.370   0.423
36783W        W 5012  10.728  43.869   1.585
36784W        W 5013  14.049   3.513   2.727
36785W        W 5014  31.411   0.571  13.924
36786W        W 5015  34.095   4.288   2.594
36787W        W 5016  26.829  19.623  14.031
36788W        W 5017  26.205  42.053  10.457
36789W        W 5018  15.735  15.026  11.855
36790W        W 5019   3.962   3.287   0.430
36791W        W 5020  13.833  24.494  11.156
36792W        W 5021  13.224  37.360   0.238
36793W        W 5022  11.350   8.884   4.570
36794W        W 5023  36.923  25.715  10.774
36795W        W 5024  33.613   4.671  14.931
36796W        W 5025  37.817  29.190   1.876
36797W        W 5026  26.937  26.171  11.191
36798W        W 5027  39.416  31.982   0.847
36799W        W 5028   7.457   5.389  13.989
36800W        W 5029  28.702  17.401   5.088
36801W        W 5030  37.907  34.875   2.637
36802W        W 5031  32.941  23.566   2.242
36803W        W 5032   8.146  38.984  10.591
36804W        W 5033   7.243  34.382   3.253
36805W        W 5034  27.841  39.489   1.298
36806W        W 5035  44.815  20.086   1.362
36807W        W 5036  28.931   6.894   4.768
36808W        W 5037  17.099  16.258  14.054
36809W        W 5038  34.701  20.923   1.615
36810W        W 5039  22.781  27.779  12.470
36811W        W 5040   9.727  28.054  13.107
36812W        W 5041  26.624  39.854   1.016
36813W        W 5042  20.746  14.252   2.386
36814W        W 5043  23.028  32.448  14.884
36815W        W 5044   7.825  23.997   2.846
36816W        W 5045   3.358   7.971   2.705
36817W        W 5046   8.376  26.516  10.589
36818W        W 5047  28.919  14.170  12.476
36819W        W 5048  13.196  25.260  12.473
36820W        W 5049  16.055   3.814   1.835
36821W        W 5050  37.635  36.583   2.233
36822W        W 5051  22.012  13.952   2.722
36823W        W 5052  14.081  23.553   1.369
36824W        W 5053  36.807  10.601   3.078
36825W        W 5054  43.354  31.302  12.350
36826W        W 5055  43.496  40.020   2.413
36827W        W 5056  42.461  11.894  13.587
36828W        W 5057   7.392  43.073   1.456
36829W        W 5058  20.335  27.591   4.202
36830W        W 5059  12.838   9.249   2.350
36831W        W 5060  23.479  27.798   0.036
36832W        W 5061   5.708  17.296   0.386
36833W        W 5062  21.158   7.886  14.976
36834W        W 5063   8.644  39.831   1.285
36835W        W 5064  12.230  36.767   4.723
36836W        W 5065  39.981   7.748   0.472
36837W        W 5066  37.884   7.872  13.031
36838W        W 5067  41.727   1.876  12.007
36839W        W 5068   9.749  18.509   4.681
36840W        W 5069  13.738  27.060   0.033
36841W        W 5070  35.108  37.462   1.845
36842W        W 5071   5.026  44.243  11.587
36843W        W 5072  27.547  43.973  11.072
36844W        W 5073  14.196   0.541  11.871
36845W        W 5074   0.921  44.438  12.796
36846W        W 5075  32.940  36.034  11.540
36847W        W 5076  41.339  20.562  14.912
36848W        W 5077  31.149  29.909  12.142
36849W        W 5078  31.653  19.056  12.472
36850W        W 5079  13.707  36.086  14.911
36851W        W 5080  10.205   8.979   4.046
36852W        W 5081   1.880  29.080   1.899
36853W        W 5082  41.422  33.369  12.581
36854W        W 5083   0.910   4.778   4.872
36855W        W 5084  19.546  15.681   4.300
36856W        W 5085  25.933  41.021   3.924
36857W        W 5086  23.632   6.509   0.466
36858W        W 5087  28.463   1.924   4.934
36859W        W 5088   2.506  36.298   0.874
36860W        W 5089  27.427  20.259   0.337
36861W        W 5090  28.522  36.664   3.265
36862W        W 5091  43.016  17.641  11.700
36863W        W 5092  33.400   4.015   9.919
36864W        W 5093   3.567  28.485  13.766
36865W        W 5094  24.975  37.466   1.007
36866W        W 5095   5.737   8.948  13.165
36867W        W 5096   3.853  10.866   3.531
36868W        W 5097   2.493   7.452   1.267
36869W        W 5098  26.964  26.659   4.718
36870W        W 5099   4.450  30.700  10.380
36871W        W 5100  14.705  13.582   1.406
36872W        W 5101   7.493   6.957   1.810
36873W        W 5102  30.627  13.313   4.340
36874W        W 5103  17.557  13.866   2.825
36875W        W 5104  22.007  42.524  10.712
36876W        W 5105  21.578   0.918   4.553
36877W        W 5106   4.775  15.796   1.871
36878W        W 5107  10.712  27.767  12.099
36879W        W 5108  21.045  10.162   2.403
36880W        W 5109  34.586  12.342  14.851
36881W        W 5110  40.111  16.424   1.395
36882W        W 5111  38.533  44.931   0.456
36883W        W 5112   9.397  28.491  10.694
36884W        W 5113  15.717  18.325  12.635
36885W        W 5114  33.974  27.482  12.376
36886W        W 5115  41.540  39.069  14.276
36887W        W 5116   9.206  27.523   2.012
36888W        W 5117   3.406  35.811  14.894
36889W        W 5118  41.849  14.304  13.493
36890W        W 5119  18.579  22.724  14.035
36891W        W 5120  20.075   4.913   1.811
36892W        W 5121  19.361   8.276  14.435
36893W        W 5122  39.720  40.717  13.361
36894W        W 5123  16.845  16.981   4.435
36895W        W 5124  17.017  33.423  12.202
36896W        W 5125  16.974   0.840   0.957
36897W        W 5126   8.386  23.787  11.997
36898W        W 5127   4.210  43.716   2.769
36899W        W 5128  18.364  29.397  12.548
36900W        W 5129  27.371  29.005   0.583
36901W        W 5130  41.198  30.246   5.414
36902W        W 5131  37.291  34.407   3.937
36903W        W 5132  39.581  33.053  13.371
36904W        W 5133  23.989   9.799  12.821
36905W        W 5134  34.489  16.122   4.665
36906W        W 5135  30.864  32.109  11.962
36907W        W 5136  35.946  23.221  11.579
36908W        W 5137  21.189  21.960  12.904
36909W        W 5138  30.302   4.160   3.691
36910W        W 5139  33.108   3.005   3.139
36911W        W 5140  14.625  37.869  12.517
36912W        W 5141  25.979  12.863   0.380
36913W        W 5142   1.833  42.341  14.341
36914W        W 5143  20.589  19.441   3.459
36915W        W 5144  33.554   2.178  14.040
36916W        W 5145   4.946  35.854  10.612
36917W        W 5146  17.610   6.790   0.375
36918W        W 5147  25.665  31.144   1.732
36919W        W 5148  14.498  15.017  10.279
36920W        W 5149  22.044  21.904   4.110
36921W        W 5150  23.506   2.671  13.853
36922W        W 5151  28.646  30.944   1.798
36923W        W 5152  16.862  33.461  13.794
36924W        W 5153  15.052   0.135  13.659
36925W        W 5154  31.561  32.106   2.828
36926W        W 5155  23.020   0.885   2.137
36927W        W 5156  22.022  28.414   4.438
36928W        W 5157  19.539   9.589   1.715
36929W        W 5158  18.311  36.803  11.951
36930W        W 5159   0.282  39.728  10.407
36931W        W 5160  19.999   4.423   3.429
36932W        W 5161  20.402  12.643   3.695
36933W        W 5162  38.494  40.390   4.913
36934W        W 5163  38.359  24.920  12.936
36935W        W 5164  19.549  11.326  13.207
36936W        W 5165  23.451  14.194  13.618
36937W        W 5166  13.101  34.426  11.029
36938W        W 5167  26.884  24.687  12.546
36939W        W 5168  31.156  25.278  13.583
36940W        W 5169  17.650  32.905   2.694
36941W        W 5170  19.700  37.407  10.823
36942W        W 5171  33.609  31.329  11.296
36943W        W 5172  29.914  22.282   2.116
36944W        W 5173  30.688  35.674   1.980
36945W        W 5174  28.538  16.070   0.398
36946W        W 5175  44.432  42.913  11.647
36947W        W 5176  36.614  12.515   0.478
36948W        W 5177  27.973  23.820  10.429
36949W        W 5178  29.837   7.828   0.565
36950W        W 5179  11.762  33.894   3.310
36951W        W 5180  19.696  41.533  13.076
36952W        W 5181  20.217   2.752   2.664
36953W        W 5182  31.015  22.164   2.581
36954W        W 5183  21.028  24.971   3.651
36955W        W 5184  14.395  20.860   3.798
36956W        W 5185   6.193  34.138  13.901
36957W        W 5186  13.123   2.678   4.039
36958W        W 5187  30.058   0.287  12.548
36959W        W 5188  18.205  42.727   4.258
36960W        W 5189  22.515   5.265   2.159
36961W        W 5190   5.913   7.186  14.546
36962W        W 5191  10.855  25.184  14.903
36963W        W 5192  26.386  20.080  13.370
36964W        W 5193   0.773   4.166   2.895
36965W        W 5194  34.455  27.157   4.699
36966W        W 5195  35.972  27.657  14.271
36967W        W 5196   1.463  20.964   1.718
36968W        W 5197  27.415  18.193   2.383
36969W        W 5198  25.103  25.497  11.188
36970W        W 5199  36.080  38.424   1.000
36971W        W 5200  31.519  22.769  11.816
36972W        W 5201  27.241   6.572   3.736
36973W        W 5202   0.761  43.192  12.657
36974W        W 5203  25.986  44.688   4.769
36975W        W 5204  20.101  18.780  12.659
36976W        W 5205  16.003  11.673  11.902
36977W        W 5206  34.625  25.679   2.394
36978W        W 5207  40.498  36.855   3.254
36979W        W 5208   9.603  14.734   3.124
36980W        W 5209  25.134  16.091  11.990
36981W        W 5210  19.918   7.359  13.062
36982W        W 5211  21.268  43.863   0.899
36983W        W 5212  22.113  42.529  14.349
36984W        W 5213  17.750  26.828  13.790
36985W        W 5214  36.321  28.872   0.814
36986W        W 5215  32.481  42.752   4.422
36987W        W 5216   5.041  20.241   1.794
36988W        W 5217  21.237   4.312   3.613
36989W        W 5218  38.525  16.002   3.241
36990W        W 5219  41.210  30.150  12.625
36991W        W 5220  31.905  24.310   4.610
36992W        W 5221   6.674  11.645   4.702
36993W        W 5222  27.990   0.367  14.714
36994W        W 5223  34.256  42.205   3.141
36995W        W 5224   2.403   3.435  12.096
36996W        W 5225  40.809  11.340   3.591
36997W        W 5226  33.767  42.283  11.900
36998W        W 5227  19.595  29.823  12.473
36999W        W 5228  12.574  44.524   2.415
37000W        W 5229  43.442  26.578   1.329
37001W        W 5230   2.576  14.168  11.650
37002W        W 5231  30.734   6.233   5.065
37003W        W 5232  34.792  32.707   0.355
37004W        W 5233  22.146  29.451  13.132
37005W        W 5234  32.379   2.264   3.564
37006W        W 5235  12.575   2.493   0.181
37007W        W 5236  27.988  30.041   3.207
37008W        W 5237  42.840  37.939   0.764
37009W        W 5238  33.857   3.574  11.155
37010W        W 5239  38.248  38.072   0.919
37011W        W 5240  43.278   1.320  13.994
37012W        W 5241   2.840  29.118   4.553
37013W        W 5242  14.209   5.311   0.748
37014W        W 5243  35.630  33.620   0.765
37015W        W 5244  44.660   4.698   2.819
37016W        W 5245  39.190  26.689  12.880
37017W        W 5246  39.433   1.834   0.332
37018W        W 5247  18.252   2.932   3.431
37019W        W 5248  14.017  19.642   1.211
37020W        W 5249   9.004  28.214   2.959
37021W        W 5250  23.957  32.461  14.894
37022W        W 5251  34.565  16.402  13.750
37023W        W 5252  43.782  14.749  12.544
37024W        W 5253  28.403  37.985  14.472
37025W        W 5254   6.352  42.790  12.946
37026W        W 5255  35.590  42.652  10.151
37027W        W 5256  29.063  28.548   2.154
37028W        W 5257  37.832  12.715   2.470
37029W        W 5258  32.366   4.039  10.456
37030W        W 5259  43.920  11.753  13.696
37031W        W 5260  22.959  44.929   3.179
37032W        W 5261   9.660  20.279   2.863
37033W        W 5262  34.938  37.105  11.997
37034W        W 5263   6.624  13.359   4.571
37035W        W 5264  27.510  17.246   2.624
37036W        W 5265  30.389  16.235   4.729
37037W        W 5266  11.195   1.264   3.695
37038W        W 5267   8.439  24.148  13.380
37039W        W 5268   6.098  21.101  12.604
37040W        W 5269  37.398  38.841   1.689
37041W        W 5270   4.550   6.740  12.049
37042W        W 5271  37.390  18.978   1.261
37043W        W 5272  32.053   6.351   5.074
37044W        W 5273  18.208   4.332   3.160
37045W        W 5274  27.446  31.372   1.784
37046W        W 5275  44.310  30.851  10.974
37047W        W 5276  10.430  33.954   4.604
37048W        W 5277  26.940   4.572  10.749
37049W        W 5278  32.618   0.914  14.805
37050W        W 5279  35.012  41.387  11.072
37051W        W 5280   2.846  38.877   9.875
37052W        W 5281  25.107  14.951   1.101
37053W        W 5282  31.662  42.126  13.375
37054W        W 5283  21.325  12.624  13.395
37055W        W 5284  16.996  19.899  10.338
37056W        W 5285   8.372  25.376   4.071
37057W        W 5286  44.910  42.520  14.878
37058W        W 5287  30.902   3.403  12.806
37059W        W 5288  41.329  13.344  11.086
37060W        W 5289  10.487  19.225   4.625
37061W        W 5290   5.539   8.702   0.844
37062W        W 5291  44.810  29.451  11.511
37063W        W 5292  39.226  26.463  10.351
37064W        W 5293  16.681   8.609   1.923
37065W        W 5294  21.278   6.462  11.187
37066W        W 5295  30.582   8.867  13.340
37067W        W 5296  12.397  33.025  14.029
37068W        W 5297   0.723  11.327   4.831
37069W        W 5298   6.640  17.113  13.668
37070W        W 5299  20.333  43.961   1.489
37071W        W 5300  26.484  44.876   2.316
37072W        W 5301  15.057  33.963   3.387
37073W        W 5302  28.446  10.061   1.856
37074W        W 5303   5.500  37.883  12.500
37075W        W 5304  15.855   1.655   1.769
37076W        W 5305  11.763  38.407   2.924
37077W        W 5306  44.536  13.171  10.749
37078W        W 5307  22.652  22.564   1.229
37079W        W 5308  12.084   5.965   1.922
37080W        W 5309   2.182  12.276   1.638
37081W        W 5310  35.794  18.291   5.038
37082W        W 5311  36.927  25.224  13.026
37083W        W 5312  37.526  29.650   1.018
37084W        W 5313  34.401  12.029   3.656
37085W        W 5314  19.139   2.026   0.325
37086W        W 5315  35.616   8.116   3.167
37087W        W 5316   4.868   3.131   0.865
37088W        W 5317  36.828   9.172   3.339
37089W        W 5318  21.168  24.441   1.319
37090W        W 5319  21.646  40.696  11.169
37091W        W 5320   4.902  18.091  11.521
37092W        W 5321  32.561  27.711   2.970
37093W        W 5322  42.548  41.760  12.200
37094W        W 5323  25.806  29.179   2.639
37095W        W 5324   4.787  28.570   5.094
37096W        W 5325   4.537   0.699  14.250
37097W        W 5326  32.036   0.669   1.719
37098W        W 5327  16.560   8.828  13.369
37099W        W 5328   9.157  18.474  10.758
37100W        W 5329  20.201  18.190   4.612
37101W        W 5330   6.438  19.957   1.388
37102W        W 5331  30.471  16.615  14.519
37103W        W 5332  44.938  40.310   3.262
37104W        W 5333  43.582  27.675  10.634
37105W        W 5334  36.143  34.428   5.069
37106W        W 5335  40.383  40.724   4.968
37107W        W 5336  11.727  28.142   1.563
37108W        W 5337  23.258  28.523  10.646
37109W        W 5338  24.763  12.346  14.007
37110W        W 5339  28.499  42.993   0.466
37111W        W 5340  18.629  34.297   0.805
37112W        W 5341  44.501  28.612  13.463
37113W        W 5342  31.032  35.385  14.370
37114W        W 5343  15.471   2.377  13.955
37115W        W 5344  35.315   0.484  14.448
37116W        W 5345  32.925  28.256  13.457
37117W        W 5346  35.973   3.972   1.948
37118W        W 5347  14.568  37.542   0.166
37119W        W 5348  35.370   8.579  12.080
37120W        W 5349  39.286  10.982  10.626
37121W        W 5350  28.618  29.619   3.610
37122W        W 5351  43.907  10.373   0.494
37123W        W 5352  38.510  41.985   3.672
37124W        W 5353  20.941  37.411   3.543
37125W        W 5354  14.153   7.290  11.859
37126W        W 5355  25.123  25.075  13.601
37127W        W 5356  19.591  43.261   1.955
37128W        W 5357  25.307   6.459  12.505
37129W        W 5358  34.139  41.302   1.275
37130W        W 5359  20.919  28.743  12.572
37131W        W 5360  37.441   3.777  14.097
37132W        W 5361  41.241  24.236  11.488
37133W        W 5362  13.138  44.928  11.444
37134W        W 5363  29.964   9.279  11.518
37135W        W 5364  34.112   5.410   4.433
37136W        W 5365  29.557  31.281  14.989
37137W        W 5366  19.521  29.453   2.301
37138W        W 5367  44.259  20.052   2.323
37139W        W 5368  39.989   8.491  14.996
37140W        W 5369  39.904  24.428   2.381
37141W        W 5370  29.817  12.260   3.168
37142W        W 5371  22.702  25.234  11.869
37143W        W 5372  12.612  13.366   0.508
37144W        W 5373  18.730   7.147  10.213
37145W        W 5374   4.661  26.459   2.248
37146W        W 5375  14.208   6.272   1.481
37147W        W 5376  26.667  28.034  13.558
37148W        W 5377  26.499   8.125   2.699
37149W        W 5378  40.533  23.566   0.020
37150W        W 5379   0.095  10.035  13.627
37151W        W 5380  27.666  15.702  12.504
37152W        W 5381  21.614  10.091  14.451
37153W        W 5382  30.913  42.773  12.418
37154W        W 5383  11.271  36.057   4.173
37155W        W 5384  38.954   2.668  13.890
37156W        W 5385  33.431  12.730   0.847
37157W        W 5386  27.052  31.632   3.854
37158W        W 5387   0.949  34.097   3.727
37159W        W 5388  40.236  39.050  11.079
37160W        W 5389  17.206  31.996  12.114
37161W        W 5390  15.214   8.615  13.016
37162W        W 5391  28.228  30.953   2.153
37163W        W 5392   0.753  34.463   2.138
37164W        W 5393  39.660  19.497   4.784
37165W        W 5394  44.070  16.162  12.004
37166W        W 5395  13.310  35.961   4.672
37167W        W 5396  34.090  35.976   3.321
37168W        W 5397  10.756  42.003   2.784
37169W        W 5398  31.565   4.779   1.758
37170W        W 5399  27.893  34.917   1.759
37171W        W 5400  41.690  10.221  12.636
37172W        W 5401   5.097  32.197  11.166
37173W        W 5402  30.913  33.631   0.536
37174W        W 5403  23.233  14.973  14.267
37175W        W 5404  34.021  14.545  11.192
37176W        W 5405  18.444  11.292   1.631
37177W        W 5406  12.253  34.445  13.779
37178W        W 5407  14.771  24.172   4.078
37179W        W 5408   6.258  23.123  10.923
37180W        W 5409  16.069  40.944  12.074
37181W        W 5410  11.539  34.453  12.032
37182W        W 5411  32.938  24.642   4.842
37183W        W 5412  32.868   3.891  11.285
37184W        W 5413  38.362  41.881   3.184
37185W        W 5414  28.005  42.468  14.719
37186W        W 5415  18.885  21.618  14.256
37187W        W 5416  21.314  39.881   3.755
37188W        W 5417  36.901  27.965   4.330
37189W        W 5418  22.013   8.123  13.620
37190W        W 5419  32.967  11.719   0.895
37191W        W 5420   7.176  18.301   0.736
37192W        W 5421   7.618  30.553   3.921
37193W        W 5422  14.358  23.447  14.057
37194W        W 5423   6.490  20.130  12.563
37195W        W 5424  31.064  29.401   4.871
37196W        W 5425  31.570  26.416  14.386
37197W        W 5426   4.465  20.295  10.940
37198W        W 5427  13.298  14.695   0.025
37199W        W 5428  39.035   9.399   4.163
37200W        W 5429  37.044  27.570  12.389
37201W        W 5430  14.127  37.481  13.054
37202W        W 5431   8.810   5.018   4.630
37203W        W 5432  24.130  26.266  10.778
37204W        W 5433  39.967  11.255  13.205
37205W        W 5434  37.832  21.567   3.356
37206W        W 5435  41.271  13.715  14.112
37207W        W 5436  43.891  43.925  12.037
37208W        W 5437  19.694  28.377   2.198
37209W        W 5438  12.412   0.897   3.908
37210W        W 5439   0.808  43.000   4.968
37211W        W 5440  30.975  43.348  10.766
37212W        W 5441  22.201  11.794   1.863
37213W        W 5442  43.997   6.767   4.509
37214W        W 5443  31.162   6.841  11.988
37215W        W 5444   2.344  29.882  14.651
37216W        W 5445  41.306  30.969  13.962
37217W        W 5446   7.977  24.427   0.934
37218W        W 5447   9.274  25.455   1.863
37219W        W 5448  12.310  20.295  14.731
37220W        W 5449  29.470  25.612   3.696
37221W        W 5450  28.883   5.193   2.814
37222W        W 5451  19.179  13.384   1.881
37223W        W 5452  33.090  37.292   1.867
37224W        W 5453  39.110  27.077   0.736
37225W        W 5454  43.319  40.224   1.263
37226W        W 5455  39.364  35.359   2.322
37227W        W 5456  23.121  40.665   1.701
37228W        W 5457   0.451  32.822  13.867
37229W        W 5458  36.574   0.142  12.940
37230W        W 5459  19.791  11.085   2.914
37231W        W 5460  13.610  18.976   0.343
37232W        W 5461  39.013  11.614   1.269
37233W        W 5462  34.385  12.568  14.437
37234W        W 5463  11.705   9.204  10.259
37235W        W 5464  10.373   3.865  12.184
37236W        W 5465  38.426   9.120   0.046
37237W        W 5466  17.456  10.688   1.841
37238W        W 5467  34.612  36.841   3.606
37239W        W 5468  24.947  34.650  13.465
37240W        W 5469  25.600   0.957   1.220
37241W        W 5470  32.384  19.233   1.880
37242W        W 5471   6.452  15.681   2.440
37243W        W 5472  30.151  42.825   4.566
37244W        W 5473  34.472  14.823   0.455
37245W        W 5474  37.931  23.056   0.718
37246W        W 5475  19.953  24.792  13.550
37247W        W 5476  18.150  13.309   3.346
37248W        W 5477  17.211   5.617  14.863
37249W        W 5478  28.899  40.995  12.510
37250W        W 5479  12.822  35.355   1.019
37251W        W 5480  26.529  37.118  11.901
37252W        W 5481  37.409   8.960   9.823
37253W        W 5482  41.586  33.852  13.877
37254W        W 5483  19.446   8.376  13.398
37255W        W 5484  28.078  18.673   2.245
37256W        W 5485  37.431  11.432  11.054
37257W        W 5486  34.866  19.827   4.749
37258W        W 5487  44.650   4.323  12.482
37259W        W 5488   3.401  12.319   0.413
37260W        W 5489  39.270  13.369  12.058
37261W        W 5490  19.458  11.356   3.252
37262W        W 5491  28.944  27.760   3.115
37263W        W 5492  34.116  34.933   3.622
37264W        W 5493  42.330  18.148   3.643
37265W        W 5494  32.831  31.052   2.824
37266W        W 5495  31.445  11.121   2.275
37267W        W 5496  32.909  12.888  12.618
37268W        W 5497  16.845  14.264   1.661
37269W        W 5498  25.714   1.251  10.398
37270W        W 5499  28.165  22.938  13.431
37271W        W 5500   4.380  16.323  13.394
37272W        W 5501  25.759  14.317  14.558
37273W        W 5502   5.940  35.608   4.843
37274W        W 5503  27.739  36.784   1.791
37275W        W 5504  19.001   6.145  12.371
37276W        W 5505  10.651  37.561   3.940
37277W        W 5506  12.063  22.613  11.387
37278W        W 5507  35.078  29.392  11.982
37279W        W 5508  33.117  18.161  13.687
37280W        W 5509  17.208   1.044  13.417
37281W        W 5510  43.349   7.651   4.053
37282W        W 5511  10.232  13.564  10.008
37283W        W 5512  44.088  28.511   1.872
37284W        W 5513  16.875  14.141  10.629
37285W        W 5514  33.751  41.467  11.604
37286W        W 5515  27.157  22.725  10.766
37287W        W 5516  37.841  31.489  11.098
37288W        W 5517  19.042   8.381   3.145
37289W        W 5518  18.320  32.745   4.511
37290W        W 5519  29.048  34.634  14.807
37291W        W 5520  11.285  39.751  11.121
37292W        W 5521  16.199  43.743  12.961
37293W        W 5522  24.129  20.213   1.413
37294W        W 5523  12.667  20.999   3.100
37295W        W 5524  42.030   2.952   4.306
37296W        W 5525   8.429  18.367   1.249
37297W        W 5526  30.540  28.454   1.312
37298W        W 5527  34.769  32.469  12.009
37299W        W 5528   7.549   5.443   4.751
37300W        W 5529  43.385  32.631  12.170
37301W        W 5530  25.812  28.139  12.008
37302W        W 5531  26.909  28.203  11.703
37303W        W 5532  10.089  40.265   0.489
37304W        W 5533  34.787   0.521   1.825
37305W        W 5534  16.895  10.669   4.126
37306W        W 5535  33.407  40.975   4.885
37307W        W 5536   2.021  28.760   3.726
37308W        W 5537  21.102  38.914   0.630
37309W        W 5538  24.798   0.951   1.909
37310W        W 5539  17.840   5.653  12.611
37311W        W 5540  18.682   3.355  12.085
37312W        W 5541  38.395  44.622   3.752
37313W        W 5542   8.827  41.917  12.516
37314W        W 5543  37.928  39.473   1.625
37315W        W 5544  44.785  43.678   2.795
37316W        W 5545  19.861   2.320  10.457
37317W        W 5546  35.883  34.395  12.373
37318W        W 5547  12.474  28.942   1.423
37319W        W 5548  31.655  23.191   3.237
37320W        W 5549  23.362  14.443  14.077
37321W        W 5550  11.936  16.852  13.728
37322W        W 5551  42.447  39.059  11.485
37323W        W 5552   6.731  42.225  14.447
37324W        W 5553  12.329  35.901   3.819
37325W        W 5554  17.215  42.860  14.314
37326W        W 5555  34.034  34.389   4.354
37327W        W 5556   8.908  32.180  11.528
37328W        W 5557   3.978  28.829  12.040
37329W        W 5558  26.272  20.717   1.865
37330W        W 5559  16.118  22.214  11.958
37331W        W 5560  34.780  18.871   4.666
37332W        W 5561  35.669  44.409  12.606
37333W        W 5562  19.507  18.426  13.390
37334W        W 5563  29.125  31.341  11.538
37335W        W 5564  31.605   1.270  14.949
37336W        W 5565   2.451  32.091   2.634
37337W        W 5566  35.070  30.629   2.892
37338W        W 5567  11.388   2.724  12.333
37339W        W 5568  44.550  21.152   2.002
37340W        W 5569  44.463  27.667  10.266
37341W        W 5570  18.268  16.850   2.540
37342W        W 5571  29.286  40.258   2.764
37343W        W 5572  21.804  22.580   1.701
37344W        W 5573  28.463  34.380   2.237
37345W        W 5574  23.631  22.996   0.771
37346W        W 5575  30.331  41.435  13.357
37347W        W 5576  29.404  11.347  12.916
37348W        W 5577   9.784  40.491  14.170
37349W        W 5578  24.627  12.323  12.576
37350W        W 5579  29.492  15.879   3.791
37351W        W 5580   8.663   4.406  13.503
37352W        W 5581  42.962  15.812   0.407
37353W        W 5582  44.651  25.016  11.040
37354W        W 5583  30.615  27.026  12.999
37355W        W 5584  15.069  19.988   1.468
37356W        W 5585   5.222   2.300  11.659
37357W        W 5586  21.312  31.650  11.977
37358W        W 5587  14.192  12.654  10.167
37359W        W 5588   7.860  32.073  11.178
37360W        W 5589  32.757  19.048  13.153
37361W        W 5590  34.534  25.064   3.710
37362W        W 5591  14.923   3.380  10.333
37363W        W 5592  30.171  38.969   2.805
37364W        W 5593  39.951  15.341  12.923
37365W        W 5594  15.756  42.984  12.897
37366W        W 5595  25.699  29.962  12.194
37367W        W 5596  21.096  37.608  11.138
37368W        W 5597  43.660  36.365  12.369
37369W        W 5598   3.183  19.052  12.577
37370W        W 5599  39.011  33.565   4.667
37371W        W 5600   1.213  24.186   1.318
37372W        W 5601  44.204  11.662   2.316
37373W        W 5602  29.138  19.671   4.562
37374W        W 5603  15.789  11.047   1.199
37375W        W 5604  27.928  19.563  11.605
37376W        W 5605  37.552  25.109  12.626
37377W        W 5606  40.792  30.513   2.088
37378W        W 5607  26.005  25.028   2.655
37379W        W 5608  38.447   4.800   2.495
37380W        W 5609  44.583  44.833   0.788
37381W        W 5610  31.928   2.517   1.858
37382W        W 5611  31.321   3.282   5.152
37383W        W 5612  10.029  31.602  10.678
37384W        W 5613  35.145  13.674  13.044
37385W        W 5614  27.286  10.438   2.977
37386W        W 5615  43.933  24.705   2.288
37387W        W 5616  32.615  24.054  14.991
37388W        W 5617   5.773  44.288   2.552
37389W        W 5618  20.020  33.050   2.183
37390W        W 5619   5.628   1.043  14.810
37391W        W 5620  26.325   1.042   4.768
37392W        W 5621  28.475   0.940  11.963
37393W        W 5622   2.181  30.650  13.977
37394W        W 5623  41.800  11.170   1.608
37395W        W 5624  43.281   6.919  10.709
37396W        W 5625  30.245   1.825  13.650
37397W        W 5626  21.988  38.856   1.331
37398W        W 5627  41.769  39.679  12.422
37399W        W 5628  23.976  37.306  10.300
37400W        W 5629  25.121  13.539   2.778
37401W        W 5630  25.658  27.421  10.659
37402W        W 5631  10.961   8.420  12.534
37403W        W 5632  13.807  35.163  12.463
37404W        W 5633  24.076  13.431   2.505
37405W        W 5634  37.954  14.256  13.883
37406W        W 5635   9.081  41.046   2.166
37407W        W 5636   4.515  12.679  14.865
37408W        W 5637  42.264  35.257   4.091
37409W        W 5638   5.226  12.333  10.569
37410W        W 5639  24.025  10.468   2.338
37411W        W 5640  12.350  40.313  14.348
37412W        W 5641  25.203  21.371   0.671
37413W        W 5642  38.611  32.017   3.213
37414W        W 5643  14.546  26.593  10.561
37415W        W 5644  41.262   2.782   1.667
37416W        W 5645   9.303  35.287  14.556
37417W        W 5646  22.861  22.533   1.716
37418W        W 5647   5.035  27.107   2.679
37419W        W 5648  27.088  10.603  11.038
37420W        W 5649   2.407  32.907   1.008
37421W        W 5650   5.354  14.092   2.602
37422W        W 5651  24.920  43.931  13.756
37423W        W 5652  37.791  17.326  12.924
37424W        W 5653  39.836  43.785   0.837
37425W        W 5654  36.287  26.336   4.931
37426W        W 5655  11.792  14.679   2.799
37427W        W 5656  31.372  19.091  13.946
37428W        W 5657  22.543  23.456   2.860
37429W        W 5658  12.144   2.876  11.699
37430W        W 5659  40.024  23.971  11.838
37431W        W 5660  22.472  13.174  12.095
37432W        W 5661  27.450   0.858   2.300
37433W        W 5662  13.689  21.612  11.471
37434W        W 5663  14.210   4.007  12.140
37435W        W 5664   8.679  24.894  10.864
37436W        W 5665  33.576  17.529  11.829
37437W        W 5666  27.986  39.027  14.524
37438W        W 5667  41.797   4.962   5.057
37439W        W 5668  21.930  44.881   0.783
37440W        W 5669  12.247  25.180   4.079
37441W        W 5670  25.625  14.812   5.158
37442W        W 5671  17.863  44.478  13.897
37443W        W 5672  17.065  42.925  10.853
37444W        W 5673   7.711  24.528   3.720
37445W        W 5674  12.203  10.313   3.655
37446W        W 5675  15.562   8.240  12.884
37447W        W 5676  42.570  27.627  12.805
37448W        W 5677  42.449   8.341   0.443
37449W        W 5678  26.017   6.630   4.202
37450W        W 5679  24.237  23.032  13.042
37451W        W 5680  40.417   8.244   4.902
37452W        W 5681  39.544  36.170   2.859
37453W        W 5682  42.580  19.202  14.438
37454W        W 5683   4.813   7.390  14.641
37455W        W 5684  34.059  15.577   1.561
37456W        W 5685  30.687  18.981   0.181
37457W        W 5686   8.737   0.284  13.324
37458W        W 5687  27.741  16.583  13.035
37459W        W 5688  10.037  25.472  11.107
37460W        W 5689  30.169   3.937   2.238
37461W        W 5690  37.299  24.598   2.395
37462W        W 5691  29.624  10.024   1.229
37463W        W 5692   6.816  24.304  13.267
37464W        W 5693  10.802  32.490   2.082
37465W        W 5694  34.643  42.520   0.765
37466W        W 5695  24.626   8.375   2.734
37467W        W 5696   9.480  29.909  12.850
37468W        W 5697  20.880  14.516  10.706
37469W        W 5698  28.689  14.241  11.150
37470W        W 5699  14.494   3.929  12.581
37471W        W 5700  13.225   0.313   2.195
37472W        W 5701   4.628  15.532  10.834
37473W        W 5702   9.277  22.998   2.380
37474W        W 5703  21.007  11.821  12.816
37475W        W 5704  11.023  22.964   3.348
37476W        W 5705  20.559  19.721   0.728
37477W        W 5706  12.273  14.313   4.165
37478W        W 5707  29.230  18.081  13.738
37479W        W 5708   2.320  34.455   5.016
37480W        W 5709   2.821   6.773   0.725
37481W        W 5710   8.006  27.415   2.755
37482W        W 5711  22.502  20.630  13.548
37483W        W 5712  40.302  35.917  14.386
37484W        W 5713  16.132  28.862  12.153
37485W        W 5714  11.609  31.993  13.907
37486W        W 5715  39.907  38.315   1.971
37487W        W 5716  36.657  34.023   3.818
37488W        W 5717  23.265  37.414   0.718
37489W        W 5718  28.459  13.355  14.029
37490W        W 5719  25.591   4.601   3.875
37491W        W 5720  41.396  30.411   1.823
37492W        W 5721  18.445  20.756  12.441
37493W        W 5722  23.095  40.055  14.321
37494W        W 5723  40.904  14.057   2.696
37495W        W 5724  27.575  41.375  14.432
37496W        W 5725  13.072  30.952   0.268
37497W        W 5726   1.421  11.025  10.748
37498W        W 5727  38.082  25.585   1.861
37499W        W 5728  27.636  22.260  11.515
37500W        W 5729  38.314  33.291   0.339
37501W        W 5730  25.144  23.276   2.338
37502W        W 5731  14.101  35.705   1.839
37503W        W 5732   7.229  40.531  13.844
37504W        W 5733  28.511  11.696   5.062
37505W        W 5734  27.132  28.757   2.283
37506W        W 5735   8.796  11.562   0.377
37507W        W 5736  11.251   8.933  12.448
37508W        W 5737  36.995  42.857  12.770
37509W        W 5738  27.594  16.854   0.569
37510W        W 5739  29.811  35.474  13.417
37511W        W 5740  42.901  30.550   4.054
37512W        W 5741  26.106  16.001  11.214
37513W        W 5742   8.462  12.193   4.720
37514W        W 5743  17.616  12.714   0.621
37515W        W 5744  21.388  34.431   9.782
37516W        W 5745  18.120  40.744   1.298
37517W        W 5746  33.772  12.165  10.767
37518W        W 5747   5.390  44.489   3.870
37519W        W 5748  37.431   3.784  13.586
37520W        W 5749  37.285   5.753   4.495
37521W        W 5750  43.201  26.639  14.943
37522W        W 5751   4.662  38.538  12.466
37523W        W 5752  16.629  25.916  12.867
37524W        W 5753  41.272  26.951  12.950
37525W        W 5754  36.524   3.981  11.619
37526W        W 5755  12.368   9.763  13.902
37527W        W 5756  13.342  37.877  13.284
37528W        W 5757   5.884  37.578  12.379
37529W        W 5758  10.781  44.552   2.811
37530W        W 5759  39.517  19.060  10.703
37531W        W 5760   5.857  20.390  10.604
37532W        W 5761  23.614  35.916   2.230
37533W        W 5762  18.693  39.752   0.446
37534W        W 5763   8.608   0.950   2.177
37535W        W 5764  42.071  11.219  10.654
37536W        W 5765  10.279  12.412   1.286
37537W        W 5766   9.762  35.019   3.565
37538W        W 5767  41.684   8.381  12.655
37539W        W 5768  31.349   1.766   3.405
37540W        W 5769  16.124  12.759  11.575
37541W        W 5770   4.716   3.264   4.138
37542W        W 5771  22.082  43.573   0.703
37543W        W 5772  40.447  20.031  12.486
37544W        W 5773  12.819  17.204  13.323
37545W        W 5774   7.374  18.785  14.822
37546W        W 5775  34.887  40.380   3.988
37547W        W 5776  17.354   1.064  10.800
37548W        W 5777  41.278  14.632   3.637
37549W        W 5778  39.329  34.502  12.974
37550W        W 5779  35.610  20.649   1.227
37551W        W 5780  15.705  37.275   0.240
37552W        W 5781  15.997   4.955   4.700
37553W        W 5782  27.017  37.393   4.642
37554W        W 5783  24.153   6.397   1.757
37555W        W 5784   4.061  12.250   3.158
37556W        W 5785  20.293  31.122   4.379
37557W        W 5786  13.967  28.024   4.086
37558W        W 5787  44.065  40.009  12.016
37559W        W 5788  12.409  13.756   4.464
37560W        W 5789   9.506  27.223  11.096
37561W        W 5790   1.817  39.538   0.933
37562W        W 5791  31.688  30.850   3.190
37563W        W 5792  16.672  33.397   5.698
37564W        W 5793  34.402  39.888  10.568
37565W        W 5794  21.772  15.126  12.906
37566W        W 5795  24.414  32.575   3.210
37567W        W 5796  16.131   1.373   4.666
37568W        W 5797  38.956  38.037   0.378
37569W        W 5798   8.267  12.488  13.795
37570W        W 5799  33.478  13.088  14.018
37571W        W 5800  31.682   9.196  11.205
37572W        W 5801  17.517  22.807   4.985
37573W        W 5802  44.755  26.536  13.778
37574W        W 5803  34.219  15.200  12.336
37575W        W 5804  27.488   1.705   0.943
37576W        W 5805  43.869  11.237   2.217
37577W        W 5806  34.543  24.726   3.300
37578W        W 5807   2.152  33.565   0.328
37579W        W 5808  26.259  20.766   2.747
37580W        W 5809  42.264  25.408  14.888
37581W        W 5810  44.662  10.792   0.566
37582W        W 5811  13.970  17.576  14.106
37583W        W 5812  26.947  24.832   0.057
37584W        W 5813  37.238  23.077   4.209
37585W        W 5814  27.823  31.650   0.091
37586W        W 5815  36.416   4.262   4.082
37587W        W 5816  28.450   7.404  13.064
37588W        W 5817   5.186  35.991   1.593
37589W        W 5818  15.267  20.839   1.229
37590W        W 5819  28.862  28.460  11.176
37591W        W 5820  22.510  19.455   4.077
37592W        W 5821  38.447  12.347  14.995
37593W        W 5822  30.572  41.095   4.856
37594W        W 5823  43.754  16.664   2.366
37595W        W 5824  34.657  23.389  14.057
37596W        W 5825  10.170  34.045   2.245
37597W        W 5826  28.686  27.041   0.943
37598W        W 5827  34.933   1.422   2.246
37599W        W 5828   1.310  22.378   1.028
37600W        W 5829   6.900  31.164   2.518
37601W        W 5830   9.598  12.165   2.230
37602W        W 5831  24.669  16.214  12.171
37603W        W 5832   4.737  38.231  11.091
37604W        W 5833  26.447   4.385   1.844
37605W        W 5834  17.254  38.275   2.378
37606W        W 5835  14.907  26.690   2.664
37607W        W 5836   5.764   9.796   0.808
37608W        W 5837  17.960  19.009  13.024
37609W        W 5838   2.781  29.398  13.294
37610W        W 5839  40.056  28.087  10.951
37611W        W 5840   9.817  23.871   3.692
37612W        W 5841  33.548   7.731  10.024
37613W        W 5842  21.283  11.424   2.154
37614W        W 5843   2.836   4.839  11.165
37615W        W 5844   4.631  13.697   1.301
37616W        W 5845   8.668  43.026   4.489
37617W        W 5846  14.350  30.182   2.854
37618W        W 5847  26.847  21.320   2.322
37619W        W 5848  42.975  44.006   1.759
37620W        W 5849  35.547   7.405  14.252
37621W        W 5850  41.818   3.366  13.295
37622W        W 5851  15.566  39.002  13.937
37623W        W 5852  35.039   8.639   0.723
37624W        W 5853  41.036   5.666  11.984
37625W        W 5854  28.608  17.852   2.809
37626W        W 5855  27.451  43.880   0.050
37627W        W 5856  21.818   7.385   4.922
37628W        W 5857  41.588  23.385   1.157
37629W        W 5858   6.906  24.051   4.256
37630W        W 5859  29.197  13.275  14.944
37631W        W 5860  34.911  26.941   3.646
37632W        W 5861  28.038  25.890   0.855
37633W        W 5862  18.810  43.574  14.449
37634W        W 5863  13.109  13.137   2.491
37635W        W 5864   4.326  39.560   1.252
37636W        W 5865  33.929   6.924  14.948
37637W        W 5866  36.559  18.853   2.749
37638W        W 5867  15.206  31.598  12.568
37639W        W 5868  28.500  14.576  14.400
37640W        W 5869  10.682  40.967  11.952
37641W        W 5870  12.780  37.363  11.145
37642W        W 5871   6.692  17.879   4.981
37643W        W 5872  32.613  36.828  12.435
37644W        W 5873  24.207  43.031   3.747
37645W        W 5874  16.280  28.069  13.107
37646W        W 5875  20.080  38.809  11.588
37647W        W 5876  22.461   4.468  12.243
37648W        W 5877   1.216  32.559  12.474
37649W        W 5878  17.006  22.710   3.260
37650W        W 5879   9.722  17.733   0.293
37651W        W 5880  31.294   6.681  11.235
37652W        W 5881  43.325  34.595  12.016
37653W        W 5882  29.758  17.074  10.703
37654W        W 5883  28.136  37.705  11.056
37655W        W 5884  35.323  17.236  12.052
37656W        W 5885  12.864  39.964   3.669
37657W        W 5886  27.300  25.540   4.232
37658W        W 5887  20.072  33.590  12.455
37659W        W 5888  40.832  40.358  13.761
37660W        W 5889  34.635  37.355  10.840
37661W        W 5890   4.820   2.390   0.119
37662W        W 5891  11.698  10.874  13.070
37663W        W 5892  40.382  21.115  11.218
37664W        W 5893  43.418  10.670   4.870
37665W        W 5894  19.162  15.566   2.002
37666W        W 5895  27.218  44.949  13.582
37667W        W 5896  36.193   8.652   9.765
37668W        W 5897   9.016  26.099  13.449
37669W        W 5898  43.267  38.879  13.393
37670W        W 5899  44.869  22.530   3.776
37671W        W 5900  42.542  39.965   0.845
37672W        W 5901   2.908  42.369   0.802
37673W        W 5902  42.272   4.967   0.425
37674W        W 5903  13.557  23.073  12.007
37675W        W 5904  22.064  24.447  12.146
37676W        W 5905  36.409   0.307   2.632
37677W        W 5906  35.631  29.597   1.005
37678W        W 5907  24.117  10.655  10.648
37679W        W 5908  20.446  28.375  11.622
37680W        W 5909  44.756  41.827   4.227
37681W        W 5910   1.899  38.561  12.401
37682W        W 5911  10.956  44.795  13.559
37683W        W 5912  21.610  43.862   3.704
37684W        W 5913  35.489  19.808  14.000
37685W        W 5914  10.620  23.235   3.567
37686W        W 5915   2.151  39.505  10.256
37687W        W 5916   4.706  36.506   2.670
37688W        W 5917  14.126  23.444  12.624
37689W        W 5918  22.036  26.563  12.403
37690W        W 5919  40.445  21.515  10.598
37691W        W 5920   5.829   0.765   2.112
37692W        W 5921   4.958  14.400   2.746
37693W        W 5922  19.748  27.977   0.287
37694W        W 5923  39.951   7.134   1.945
37695W        W 5924   2.353   1.908   3.139
37696W        W 5925  38.939   4.574  10.024
37697W        W 5926  12.132  43.889  12.413
37698W        W 5927  39.149  38.923   3.758
37699W        W 5928  28.401  10.981   3.285
37700W        W 5929  18.149  32.332  13.609
37701W        W 5930  18.089  36.172  14.033
37702W        W 5931  44.070  42.907  12.939
37703W        W 5932  30.079  28.439  10.688
37704W        W 5933  21.018  29.806  10.434
37705W        W 5934  19.349  30.189  13.939
37706W        W 5935  39.296  22.442   3.721
37707W        W 5936  20.631   7.845   2.409
37708W        W 5937  38.004   1.655   2.030
37709W        W 5938  22.624  17.838   0.284
37710W        W 5939  44.566  16.715   1.395
37711W        W 5940  14.686  44.543  10.655
37712W        W 5941  22.216  19.683  13.140
37713W        W 5942  30.822  15.474  11.552
37714W        W 5943  32.355   5.896   3.590
37715W        W 5944  39.912   5.101   3.709
37716W        W 5945  20.042   1.175  12.334
37717W        W 5946  33.137  36.048  12.417
37718W        W 5947   2.922   1.402   4.638
37719W        W 5948   6.764  24.155  10.692
37720W        W 5949   9.179   9.647   3.296
37721W        W 5950  18.332  39.465  12.489
37722W        W 5951  23.599  16.775   1.749
37723W        W 5952  38.628  20.219   1.170
37724W        W 5953  33.575  10.761  13.752
37725W        W 5954  41.084  29.436  10.181
37726W        W 5955  20.627  36.031   2.157
37727W        W 5956  44.397  33.569   0.183
37728W        W 5957  39.821  28.158  14.839
37729W        W 5958   5.897   5.476  13.876
37730W        W 5959   5.490  37.061   2.774
37731W        W 5960  38.420  38.804   1.778
37732W        W 5961  20.507  18.632   3.097
37733W        W 5962  18.819  43.622  10.625
37734W        W 5963  14.316  36.097   4.750
37735W        W 5964  18.877  34.628   2.865
37736W        W 5965   3.317   1.834   1.879
37737W        W 5966  42.360  40.044   0.359
37738W        W 5967  42.043  37.122  14.523
37739W        W 5968  19.701  21.525  11.504
37740W        W 5969  11.210  15.582   0.703
37741W        W 5970  44.715  16.626   3.728
37742W        W 5971  40.983  43.115  13.943
37743W        W 5972  18.021  25.125  11.163
37744W        W 5973  25.633  35.430  13.366
37745W        W 5974  18.885  31.475  12.140
37746W        W 5975  44.415   3.697   4.153
37747W        W 5976  26.506  16.389   1.419
37748W        W 5977  18.847   0.916  13.953
37749W        W 5978  26.188  26.103  12.388
37750W        W 5979  28.586   3.911   0.810
37751W        W 5980  30.133  19.620   2.241
37752W        W 5981  34.969   4.511   0.792
37753W        W 5982  40.786  44.984  11.639
37754W        W 5983  31.319  15.541  11.566
37755W        W 5984  22.459   9.731  13.048
37756W        W 5985  31.120  40.041  13.516
37757W        W 5986  22.458  19.870   2.691
37758W        W 5987   9.453   4.844  14.805
37759W        W 5988  37.581  35.114  12.868
37760W        W 5989   7.924  15.796  10.677
37761W        W 5990   6.620  10.732   1.460
37762W        W 5991  13.250  21.512  11.177
37763W        W 5992  18.544  31.487  14.428
37764W        W 5993  40.974  40.771  13.454
37765W        W 5994   7.409  15.685   0.267
37766W        W 5995  26.144  14.773   0.440
37767W        W 5996   1.301  44.851   3.772
37768W        W 5997  42.803  41.840   0.213
37769W        W 5998   7.750  10.720  12.018
37770W        W 5999  15.527  41.133   1.448
37771W        W 6000   7.886  17.811  14.639
37772W        W 6001  29.548  21.711   0.614
37773W        W 6002  26.642  41.560   4.125
37774W        W 6003  26.014  44.402  13.634
37775W        W 6004  40.489  40.201  14.965
37776W        W 6005  36.520  21.206   0.965
37777W        W 6006  43.883  31.225   4.753
37778W        W 6007  16.992  26.350   0.043
37779W        W 6008   2.422  30.515   0.355
37780W        W 6009   0.909  38.112   0.741
37781W        W 6010  13.540  36.881  14.397
37782W        W 6011  37.614  12.697  11.481
37783W        W 6012  30.627  33.072   1.836
37784W        W 6013  12.282  26.205   2.837
37785W        W 6014  19.633  18.794   1.351
37786W        W 6015  44.049   2.549   3.989
37787W        W 6016  37.929  40.952   0.769
37788W        W 6017  23.720   0.814  13.258
37789W        W 6018  28.174  43.850   0.428
37790W        W 6019   3.914  35.440   3.576
37791W        W 6020  21.731  30.011  13.920
37792W        W 6021   7.201  18.436  11.461
37793W        W 6022   9.221   5.410   0.126
37794W        W 6023  32.940   5.179   2.748
37795W        W 6024  33.868  26.500   1.820
37796W        W 6025  21.818  10.070   3.663
37797W        W 6026  13.000  30.700   4.747
37798W        W 6027  33.441  42.924   1.751
37799W        W 6028   5.927   0.017   1.462
37800W        W 6029  28.591  24.671  10.709
37801W        W 6030  21.817   1.498   2.791
37802W        W 6031   3.309   1.210  14.490
37803W        W 6032  39.300  40.743  12.100
37804W        W 6033  10.132  18.785  10.721
37805W        W 6034  23.145  10.041   2.964
37806W        W 6035  43.433  18.629  14.737
37807W        W 6036   0.858  33.165  14.564
37808W        W 6037  11.620  15.157  14.908
37809W        W 6038  39.426  27.025  13.545
37810W        W 6039  17.248  42.631   3.406
37811W        W 6040  42.439  26.547   3.248
37812W        W 6041  20.651  10.164  12.869
37813W        W 6042  35.089  17.249   1.672
37814W        W 6043   4.264  29.978  14.914
37815W        W 6044  14.121  40.329   5.162
37816W        W 6045  13.922  17.242   2.163
37817W        W 6046  31.629  10.225   1.346
37818W        W 6047   3.370  14.402   0.325
37819W        W 6048  34.539  36.964   2.188
37820W        W 6049  31.501  31.091  12.567
37821W        W 6050  29.512  43.758   3.815
37822W        W 6051  43.019  33.976  12.981
37823W        W 6052  42.880  30.812   5.034
37824W        W 6053  23.157   2.282  12.800
37825W        W 6054  16.018   1.480  14.773
37826W        W 6055  44.324  16.750   0.936
37827W        W 6056   0.619  34.633   3.062
37828W        W 6057  40.494   9.318   4.128
37829W        W 6058  22.962  44.556   1.534
37830W        W 6059  38.356  19.268   1.326
37831W        W 6060  11.296  40.517   0.674
37832W        W 6061  15.753  30.017   4.268
37833W        W 6062  30.444  29.940  12.440
37834W        W 6063  23.107  21.735  13.311
37835W        W 6064  20.227  25.234  12.498
37836W        W 6065  12.842  27.995  12.075
37837W        W 6066  28.291  20.503  11.120
37838W        W 6067  43.531  10.591  12.919
37839W        W 6068  41.990  39.443   2.721
37840W        W 6069  20.678  22.459  13.600
37841W        W 6070  36.356  36.397   4.683
37842W        W 6071  13.446  28.156  10.251
37843W        W 6072  19.752   4.894   5.044
37844W        W 6073  27.706  15.176  14.893
37845W        W 6074  30.860  10.612   3.238
37846W        W 6075   7.378  22.293  10.479
37847W        W 6076   1.386  38.979  10.580
37848W        W 6077   5.228  39.413   3.990
37849W        W 6078  16.678   1.940   2.846
37850W        W 6079   1.818  18.599  11.968
37851W        W 6080  10.187  23.578   4.607
37852W        W 6081  27.450  37.108  12.844
37853W        W 6082  12.256  36.786  11.662
37854W        W 6083  22.739  17.988  12.693
37855W        W 6084  33.362   4.224  14.842
37856W        W 6085   4.318  12.249  13.396
37857W        W 6086  37.047  44.922  14.474
37858W        W 6087   2.242   8.495   3.625
37859W        W 6088  43.972   1.667  12.938
37860W        W 6089   0.919  26.677   4.493
37861W        W 6090   2.270   6.292  13.916
37862W        W 6091  15.719  21.087  10.581
37863W        W 6092  12.793  14.613  14.823
37864W        W 6093  34.954  30.029   0.105
37865W        W 6094  34.088  33.458   2.599
37866W        W 6095  17.505  39.032   0.428
37867W        W 6096  21.610  37.900  11.663
37868W        W 6097  35.387  11.939   1.382
37869W        W 6098  41.800  37.935  11.111
37870W        W 6099  37.586  40.402  13.885
37871W        W 6100  32.982  15.583  13.629
37872W        W 6101  14.376  19.637   1.928
37873W        W 6102   8.409  34.472  11.039
37874W        W 6103  20.123  28.064   2.118
37875W        W 6104  25.324  33.923   4.302
37876W        W 6105  17.652  41.009   4.178
37877W        W 6106  41.913  32.421  14.907
37878W        W 6107   1.254   2.761   0.259
37879W        W 6108  11.666  41.214   1.711
37880W        W 6109  16.950  27.057   4.874
37881W        W 6110  21.628  26.914  14.448
37882W        W 6111  15.189  21.686  13.225
37883W        W 6112  37.369  34.064  12.017
37884W        W 6113  41.058   6.316   3.362
37885W        W 6114  27.631   7.433  13.501
37886W        W 6115  43.914  36.374   0.429
37887W        W 6116  13.402  12.713  11.652
37888W        W 6117  28.464  24.727  12.001
37889W        W 6118  34.862   3.884   4.969
37890W        W 6119  19.297  43.474  14.201
37891W        W 6120  36.551   2.452   4.263
37892W        W 6121   1.532  13.819  10.779
37893W        W 6122  10.392   3.950   1.430
37894W        W 6123  38.471  35.866   0.645
37895W        W 6124  40.329   3.140   2.594
37896W        W 6125   3.028  31.577   0.703
37897W        W 6126   9.843  43.808  10.698
37898W        W 6127  44.403  33.409   4.620
37899W        W 6128   8.295  33.334  11.919
37900W        W 6129  16.977  44.785  10.272
37901W        W 6130  42.599   4.576   1.391
37902W        W 6131  41.870  14.606  10.477
37903W        W 6132   6.924  28.365   2.464
37904W        W 6133  18.291  24.721   4.060
37905W        W 6134  42.858  17.993   3.631
37906W        W 6135  25.634   1.156   1.699
37907W        W 6136   6.499   9.115   2.335
37908W        W 6137   2.875  27.389  14.396
37909W        W 6138  39.433  39.067  12.581
37910W        W 6139  38.071  12.573   0.308
37911W        W 6140  42.912  32.566  12.456
37912W        W 6141  33.861  29.517   2.292
37913W        W 6142  18.680  18.647  14.994
37914W        W 6143   6.395  35.871   5.020
37915W        W 6144  19.241  23.981  14.948
37916W        W 6145  22.406   8.635   0.459
37917W        W 6146  40.961  31.940   1.025
37918W        W 6147  30.664  21.284  10.406
37919W        W 6148  29.533  11.587  11.591
37920W        W 6149   2.689  33.466  13.456
37921W        W 6150  32.934  30.567   4.432
37922W        W 6151  22.173   6.393   0.653
37923W        W 6152  18.542  18.954  14.355
37924W        W 6153  19.716  12.808  12.024
37925W        W 6154   6.352  19.654   3.337
37926W        W 6155  41.239  28.439   2.980
37927W        W 6156  10.283  29.485  13.363
37928W        W 6157  29.679  36.499  12.442
37929W        W 6158  28.930   8.225  10.699
37930W        W 6159  22.685  11.812  12.348
37931W        W 6160  17.104  27.783   5.001
37932W        W 6161  26.556  43.427   3.880
37933W        W 6162   5.321   1.871   3.389
37934W        W 6163  37.582  18.143   2.376
37935W        W 6164  20.245  17.152  11.278
37936W        W 6165  17.081  14.147  14.682
37937W        W 6166  34.115  40.823  12.666
37938W        W 6167  32.680  31.052  13.925
37939W        W 6168  19.215  35.759   1.905
37940W        W 6169  30.984  28.413  11.118
37941W        W 6170  15.754  37.166  13.313
37942W        W 6171  29.180  24.010   0.276
37943W        W 6172  13.254   6.880  11.875
37944W        W 6173   1.900  20.211   1.710
37945W        W 6174  39.390  32.625   4.115
37946W        W 6175  43.381  14.261   3.721
37947W        W 6176  23.091  13.325   4.473
37948W        W 6177  42.264  24.665  14.477
37949W        W 6178  41.321  31.637  14.887
37950W        W 6179   8.691  42.365  14.528
37951W        W 6180  30.217  13.769  10.692
37952W        W 6181   2.396   6.346   3.686
37953W        W 6182  41.125  29.923   4.109
37954W        W 6183  21.081  40.039   1.661
37955W        W 6184  43.333  11.519   3.278
37956W        W 6185   3.254  26.655  10.260
37957W        W 6186  30.188  29.502   4.504
37958W        W 6187  25.927  37.039  11.011
37959W        W 6188  34.598  23.995   0.211
37960W        W 6189  12.431  13.100   3.189
37961W        W 6190  31.541  41.737  11.078
37962W        W 6191  24.550  40.936   1.932
37963W        W 6192  44.816   5.443   4.322
37964W        W 6193  10.592  28.827   1.590
37965W        W 6194  18.023  44.148   2.204
37966W        W 6195  18.071  39.148  13.855
37967W        W 6196  16.535  41.564   4.195
37968W        W 6197  36.729  43.734  14.319
37969W        W 6198  22.502  40.504   1.316
37970W        W 6199  23.916   2.203  11.327
37971W        W 6200  14.173  23.740   0.462
37972W        W 6201   4.739  17.999   3.165
37973W        W 6202  31.379  30.971   3.597
37974W        W 6203  27.164  16.692   3.832
37975W        W 6204  42.047  16.204  12.064
37976W        W 6205   8.722  23.992   4.628
37977W        W 6206   2.968  15.228  13.814
37978W        W 6207   4.379  17.220   0.894
37979W        W 6208  34.561  25.106   4.761
37980W        W 6209  20.608  14.583  13.888
37981W        W 6210  25.492  35.207   1.995
37982W        W 6211  22.693  38.887   1.163
37983W        W 6212  16.681   4.521  12.655
37984W        W 6213  40.243  28.855   3.309
37985W        W 6214  14.265  43.482   4.160
37986W        W 6215   0.926  10.044   4.167
37987W        W 6216   7.634  18.797   1.887
37988W        W 6217  23.681  37.975   0.536
37989W        W 6218  19.547  14.059   2.310
37990W        W 6219  12.383  13.411   1.858
37991W        W 6220  25.239  42.349  12.527
37992W        W 6221  35.086   1.007  14.794
37993W        W 6222  14.507   7.215   4.215
37994W        W 6223  19.915  22.059  14.342
37995W        W 6224  24.751  26.048  13.303
37996W        W 6225  12.453  16.844   3.266
37997W        W 6226   8.821  11.884   3.597
37998W        W 6227   1.282  28.402  13.037
37999W        W 6228   8.580  22.040   1.262
38000W        W 6229  24.286  16.456  11.531
38001W        W 6230  22.158  32.246  12.021
38002W        W 6231  17.231  38.405  13.596
38003W        W 6232   1.702  29.483   2.737
38004W        W 6233   9.921  15.100   2.745
38005W        W 6234  14.070   1.792   1.490
38006W        W 6235  30.132   1.222  12.488
38007W        W 6236  18.676  23.324   0.932
38008W        W 6237  30.860  19.057  13.760
38009W        W 6238   1.679  37.496   2.780
38010W        W 6239  13.862  34.352   1.863
38011W        W 6240  13.663  40.320   1.921
38012W        W 6241  41.437  21.582  11.576
38013W        W 6242  35.519   9.133   3.902
38014W        W 6243  39.797  44.864  12.452
38015W        W 6244  21.932  34.535   2.373
38016W        W 6245   7.528  40.221   4.157
38017W        W 6246  35.812   9.677  12.152
38018W        W 6247   2.955  21.497   4.614
38019W        W 6248  28.329   9.234   3.334
38020W        W 6249  29.035  28.695   4.210
38021W        W 6250  39.358  26.753   0.298
38022W        W 6251  25.275  18.703  13.803
38023W        W 6252  32.705  16.771   3.441
38024W        W 6253   1.805  39.813   1.390
38025W        W 6254   9.828  32.595  11.469
38026W        W 6255  42.063   7.127  10.762
38027W        W 6256  32.090   1.419  12.522
38028W        W 6257  13.171  24.751  12.480
38029W        W 6258  43.346   5.205  12.152
38030W        W 6259  16.995  11.224  12.794
38031W        W 6260  26.451  44.722   1.816
38032W        W 6261   3.889  33.547  12.428
38033W        W 6262  38.181  28.003   4.097
38034W        W 6263  20.321  32.678  14.459
38035W        W 6264  22.675   1.550   0.403
38036W        W 6265  44.883  22.101  11.526
38037W        W 6266  24.168   1.052   3.339
38038W        W 6267   4.169  14.529   2.325
38039W        W 6268  42.807  14.216  13.954
38040W        W 6269  12.080  17.046  13.113
38041W        W 6270  43.802   8.395   0.758
38042W        W 6271   4.593  15.285  12.939
38043W        W 6272  37.959   3.557  11.080
38044W        W 6273  14.401   9.780   0.658
38045W        W 6274  16.071  19.155   3.661
38046W        W 6275  29.441   0.331  14.875
38047W        W 6276  39.844  22.326   0.016
38048W        W 6277  41.224  21.059   4.023
38049W        W 6278  25.032  25.952   4.516
38050W        W 6279  33.348  23.527   1.765
38051W        W 6280   3.242   9.709   2.860
38052W        W 6281  20.479  20.710   3.113
38053W        W 6282  38.750  15.729  11.385
38054W        W 6283  25.631  18.438   4.548
38055W        W 6284   9.487  13.340   0.403
38056W        W 6285  33.531  20.397  11.070
38057W        W 6286  38.587  33.650  12.075
38058W        W 6287  34.438  35.387  13.868
38059W        W 6288  28.555  29.978  12.516
38060W        W 6289  34.111  18.674   4.158
38061W        W 6290  41.925   8.120   1.852
38062W        W 6291  29.346  42.767  12.284
38063W        W 6292  31.090  12.340  10.628
38064W        W 6293   0.268  32.074   2.115
38065W        W 6294  31.909  36.760  13.030
38066W        W 6295  39.337  27.478   2.746
38067W        W 6296  15.744   6.870   0.918
38068W        W 6297  14.349  42.233  14.874
38069W        W 6298   2.686  21.619  14.574
38070W        W 6299  40.379  13.178  12.693
38071W        W 6300  13.317  37.599  14.225
38072W        W 6301   2.442   4.872  10.028
38073W        W 6302  33.884   4.083  11.136
38074W        W 6303  12.524  17.451  14.890
38075W        W 6304  11.200  41.150   3.520
38076W        W 6305  44.757  11.252  14.398
38077W        W 6306   3.006   1.507   2.153
38078W        W 6307  26.625  12.743   2.728
38079W        W 6308   0.845   9.416  11.267
38080W        W 6309  12.039  43.968   2.756
38081W        W 6310  24.801   0.183   2.146
38082W        W 6311  33.860  42.323   0.064
38083W        W 6312  14.878  32.480  14.035
38084W        W 6313  41.837  31.845   1.325
38085W        W 6314   5.893  10.167   4.515
38086W        W 6315  16.212  30.949   3.887
38087W        W 6316  10.087  17.762   4.293
38088W        W 6317  19.215   3.719   4.626
38089W        W 6318  40.985  25.082   0.215
38090W        W 6319  11.737   4.119   4.672
38091W        W 6320  25.387  31.987   0.893
38092W        W 6321  24.710   6.253   3.673
38093W        W 6322  22.187  27.551  14.622
38094W        W 6323  39.487  38.503   0.229
38095W        W 6324  15.326  21.340   0.292
38096W        W 6325  39.454  32.371   9.762
38097W        W 6326  40.772   1.402   2.747
38098W        W 6327  43.871  33.913   1.639
38099W        W 6328  16.458  42.803  10.404
38100W        W 6329  37.106  34.115   0.476
38101W        W 6330  16.193  10.654  11.101
38102W        W 6331  35.151  31.435  11.098
38103W        W 6332  38.943  29.055  13.321
38104W        W 6333  36.472   8.731   4.779
38105W        W 6334  17.969  35.384  14.862
38106W        W 6335  32.124  35.285   4.043
38107W        W 6336  27.682  18.284   1.908
38108W        W 6337  37.018   8.849  10.591
38109W        W 6338  37.295   7.628   1.891
38110W        W 6339  13.569  24.276   3.556
38111W        W 6340  13.510  15.745  11.941
38112W        W 6341  34.676  24.232   0.682
38113W        W 6342  40.308  22.879   5.158
38114W        W 6343   7.350  11.114   0.316
38115W        W 6344  28.895   9.162  10.761
38116W        W 6345  42.262   8.762   0.877
38117W        W 6346  18.052  10.223  12.000
38118W        W 6347  36.869   4.543  13.284
38119W        W 6348  15.106  30.266   1.816
38120W        W 6349  32.196  34.450  13.317
38121W        W 6350  27.749  34.782   3.315
38122W        W 6351  29.606  27.772   4.254
38123W        W 6352  31.885  10.709   3.223
38124W        W 6353  42.920  10.743  11.891
38125W        W 6354   4.887  14.606   3.681
38126W        W 6355  25.668  40.342  12.005
38127W        W 6356  32.603  12.357  13.285
38128W        W 6357  19.934  24.167  10.466
38129W        W 6358  23.239  15.486  14.309
38130W        W 6359   2.457  16.186   1.354
38131W        W 6360  43.980  32.247   0.256
38132W        W 6361  14.723  12.402   3.225
38133W        W 6362  44.469  24.122  11.262
38134W        W 6363  15.044  19.654  14.969
38135W        W 6364  17.681  14.964   0.102
38136W        W 6365  15.581  31.875   4.185
38137W        W 6366  24.191   4.893  10.438
38138W        W 6367  23.811  38.111  12.137
38139W        W 6368  13.090  41.230   4.568
38140W        W 6369   4.681  29.457  10.707
38141W        W 6370  32.802  43.086  13.507
38142W        W 6371   0.590  22.893   4.170
38143W        W 6372   2.249  14.387   1.175
38144W        W 6373   8.788  43.979  13.515
38145W        W 6374  30.823  29.520   1.312
38146W        W 6375   5.753  25.970   1.146
38147W        W 6376  17.367  36.084  10.964
38148W        W 6377  44.809   2.416  11.140
38149W        W 6378   9.944  21.065  12.539
38150W        W 6379  40.278  33.127   3.142
38151W        W 6380   2.270  27.790   1.685
38152W        W 6381  40.976  20.763  12.593
38153W        W 6382  32.509  27.886  13.841
38154W        W 6383   7.884  18.764  13.975
38155W        W 6384  22.576  21.052   2.529
38156W        W 6385  25.612  42.806  12.874
38157W        W 6386   6.388  20.994  13.068
38158W        W 6387  15.109  35.377   4.079
38159W        W 6388   0.776  29.902  14.524
38160W        W 6389  44.772  35.350   1.361
38161W        W 6390  19.517  39.319   5.133
38162W        W 6391  19.230   9.165   2.374
38163W        W 6392  28.209  13.079  11.934
38164W        W 6393  28.611  43.728   1.411
38165W        W 6394  31.577   6.209   4.504
38166W        W 6395  35.920  40.297   0.624
38167W        W 6396   4.231  32.413   2.080
38168W        W 6397  42.243   0.381   1.816
38169W        W 6398  15.576   5.032   4.996
38170W        W 6399  39.335  18.216   2.894
38171W        W 6400   7.064  17.685  12.471
38172W        W 6401   3.127  34.376  13.355
38173W        W 6402  35.021  15.108  13.867
38174W        W 6403   0.715  10.696  11.672
38175W        W 6404  19.810  41.957  11.145
38176W        W 6405  17.030   3.299   0.181
38177W        W 6406  12.276  19.291  11.190
38178W        W 6407  37.834  31.470   3.988
38179W        W 6408  13.324  42.530  13.049
38180W        W 6409  29.154  37.574  14.902
38181W        W 6410  19.515  25.489  10.587
38182W        W 6411  16.034  22.161   0.799
38183W        W 6412  30.544  34.024   2.358
38184W        W 6413  25.914  15.785   0.964
38185W        W 6414  28.039  24.928   4.515
38186W        W 6415   0.733   9.138   4.700
38187W        W 6416   8.751  35.591  12.424
38188W        W 6417  32.891  25.209  13.317
38189W        W 6418  41.732  25.475   0.844
38190W        W 6419  27.609  16.102  11.867
38191W        W 6420  27.427   4.495  12.043
38192W        W 6421  21.598  26.467   2.756
38193W        W 6422  23.032  21.550   3.698
38194W        W 6423  42.939  12.287   4.902
38195W        W 6424  33.913  36.082  11.438
38196W        W 6425  37.814  35.107  10.802
38197W        W 6426  34.090  29.069   3.157
38198W        W 6427  36.019  28.365   1.333
38199W        W 6428   3.463   6.948   2.718
38200W        W 6429  20.815  32.558   3.197
38201W        W 6430  33.843  24.553  13.100
38202W        W 6431   9.901  32.869  11.896
38203W        W 6432  18.213  23.065   0.740
38204W        W 6433  34.655  12.235  11.952
38205W        W 6434  35.633  30.581  13.915
38206W        W 6435  17.990  28.019  11.543
38207W        W 6436  39.028  15.622   4.919
38208W        W 6437  27.372   0.262   2.814
38209W        W 6438  19.256  10.321  11.458
38210W        W 6439  14.563  22.461   0.228
38211W        W 6440  30.572  44.025  12.476
38212W        W 6441  42.850   4.456   2.389
38213W        W 6442  15.486  22.619  10.467
38214W        W 6443   2.439  38.568  11.638
38215W        W 6444  19.055  21.124  14.478
38216W        W 6445   7.256  38.976  13.142
38217W        W 6446  42.026  28.202   4.993
38218W        W 6447  11.655   3.383   1.944
38219W        W 6448   3.868   6.212  12.138
38220W        W 6449  21.833  13.258   0.106
38221W        W 6450  35.485   5.881  12.186
38222W        W 6451  21.702  43.117  12.866
38223W        W 6452  23.588  13.254   4.336
38224W        W 6453  21.278  24.201  14.542
38225W        W 6454  14.122  29.194   2.678
38226W        W 6455  34.864   7.763   2.905
38227W        W 6456  22.928  40.238   1.389
38228W        W 6457  37.098  10.629  12.197
38229W        W 6458  38.242  19.304  13.217
38230W        W 6459  13.099  38.277   0.898
38231W        W 6460  10.586  13.239   1.474
38232W        W 6461  27.556   0.188   0.907
38233W        W 6462  13.764   2.368  13.567
38234W        W 6463   9.187  18.645   0.316
38235W        W 6464  27.209  24.014  11.877
38236W        W 6465  24.019   1.475  14.432
38237W        W 6466  37.725  28.100  12.901
38238W        W 6467  42.611  38.045  11.640
38239W        W 6468  31.414   2.282   3.802
38240W        W 6469  32.558  34.886   3.459
38241W        W 6470  32.033  39.620   4.220
38242W        W 6471   6.932  21.735  12.200
38243W        W 6472  36.507  36.118   0.060
38244W        W 6473  20.021  32.009   4.561
38245W        W 6474  43.127  40.969  13.030
38246W        W 6475  19.715  14.742   1.815
38247W        W 6476  38.237  34.453   2.801
38248W        W 6477  12.537  34.557  14.225
38249W        W 6478  29.055   0.448  10.472
38250W        W 6479  36.183  23.761  11.492
38251W        W 6480  22.927   2.333  10.569
38252W        W 6481  32.070   2.159  13.079
38253W        W 6482  21.139  15.511  10.673
38254W        W 6483  41.281   6.211  11.162
38255W        W 6484  14.579   8.856   4.667
38256W        W 6485  37.926  38.617  11.058
38257W        W 6486  25.216   1.303   1.308
38258W        W 6487   7.315  42.059  13.946
38259W        W 6488  40.302   2.521  11.168
38260W        W 6489  18.079  37.807  14.727
38261W        W 6490  20.731  20.462  11.569
38262W        W 6491   6.959  14.724   0.479
38263W        W 6492  40.028  31.480  12.637
38264W        W 6493  39.402  31.135   1.019
38265W        W 6494  41.362  22.034   1.688
38266W        W 6495   7.034  41.518   4.326
38267W        W 6496   5.253   6.226  10.394
38268W        W 6497  30.628  40.522  13.795
38269W        W 6498  22.241  40.639  10.495
38270W        W 6499  11.405  27.580   3.686
38271W        W 6500  17.515  29.548   0.282
38272W        W 6501  26.590  22.159  14.881
38273W        W 6502  36.456  36.854   1.271
38274W        W 6503  36.997  15.234   1.804
38275W        W 6504   8.159  29.539  11.511
38276W        W 6505  22.157   8.425   4.232
38277W        W 6506   8.136  16.101   0.530
38278W        W 6507  21.123   7.361  14.957
38279W        W 6508  13.273  14.627  11.119
38280W        W 6509  13.260   1.918  12.966
38281W        W 6510   3.701  26.042  11.168
38282W        W 6511  22.499  32.575  10.264
38283W        W 6512  22.610   6.850  11.121
38284W        W 6513  24.420  18.843  13.045
38285W        W 6514  23.602  15.600   2.649
38286W        W 6515   6.877   2.955   4.251
38287W        W 6516  39.018  32.659   3.042
38288W        W 6517  24.058  11.787   0.950
38289W        W 6518  33.078  44.230  12.396
38290W        W 6519  39.086  19.184   1.201
38291W        W 6520  43.487  31.877   4.962
38292W        W 6521   0.485  18.719  13.893
38293W        W 6522  42.375   9.913  10.639
38294W        W 6523  43.698  18.353  13.913
38295W        W 6524  39.249  13.539   0.590
38296W        W 6525  36.001   4.756  13.538
38297W        W 6526   8.129  20.954   2.378
38298W        W 6527  13.400   7.138   2.666
38299W        W 6528  32.380  36.277   3.394
38300W        W 6529  37.490  27.651   1.910
38301W        W 6530  37.024   8.728  12.645
38302W        W 6531  25.694   3.501   5.081
38303W        W 6532   4.541  11.924   4.319
38304W        W 6533  10.285  13.406   2.810
38305W        W 6534  32.102   4.845   1.707
38306W        W 6535  11.626  20.103  12.121
38307W        W 6536   8.093   2.300   0.902
38308W        W 6537  28.681  42.807  12.006
38309W        W 6538  11.924   8.600  12.629
38310W        W 6539  32.572  20.632   2.235
38311W        W 6540   1.665  24.463  11.987
38312W        W 6541  30.938   7.091   0.221
38313W        W 6542  15.603  12.785  10.637
38314W        W 6543   2.328   5.866   4.304
38315W        W 6544  26.481  30.753  14.494
38316W        W 6545  33.659   1.813   2.174
38317W        W 6546  25.553  27.675   3.359
38318W        W 6547  18.074  31.634  11.640
38319W        W 6548  31.134  11.823  13.976
38320W        W 6549  22.814   2.289  14.816
38321W        W 6550  25.096  10.486  13.838
38322W        W 6551  37.855  12.913   3.338
38323W        W 6552  24.242  42.303  11.528
38324W        W 6553  23.792  28.620  13.953
38325W        W 6554  27.077  35.907   2.356
38326W        W 6555   8.742   0.806  14.957
38327W        W 6556   3.610   1.206  11.974
38328W        W 6557  16.312   1.312  12.833
38329W        W 6558   4.223  44.369  14.498
38330W        W 6559  33.561  12.244   0.893
38331W        W 6560  34.916   5.014   0.750
38332W        W 6561  44.216  21.712  14.079
38333W        W 6562  17.776  25.203   2.846
38334W        W 6563  32.975  17.797   3.724
38335W        W 6564  40.274   6.080   4.725
38336W        W 6565  30.011  25.531   4.490
38337W        W 6566  28.574  39.543   3.672
38338W        W 6567  26.240  43.082   3.674
38339W        W 6568  11.626  37.940   4.928
38340W        W 6569   6.483  11.899   4.190
38341W        W 6570  44.169  36.606  11.513
38342W        W 6571   6.181  41.417   2.644
38343W        W 6572   0.659  16.058   1.988
38344W        W 6573  37.829  31.395  12.879
38345W        W 6574   6.318  19.245  12.642
38346W        W 6575  29.828   0.568  12.999
38347W        W 6576  12.654  38.984   3.576
38348W        W 6577  25.769  27.643  13.090
38349W        W 6578   1.199  25.138   2.836
38350W        W 6579  17.786   6.371  11.184
38351W        W 6580  15.754  12.917   2.704
38352W        W 6581  22.995  43.895  12.287
38353W        W 6582  42.310  34.649   3.383
38354W        W 6583  39.053  22.495   1.793
38355W        W 6584   4.411  17.018   3.394
38356W        W 6585  32.554  19.273  11.951
38357W        W 6586  18.575   3.238  11.593
38358W        W 6587  25.328  33.072   4.969
38359W        W 6588  17.269   1.840   0.280
38360W        W 6589   5.365  42.843   2.951
38361W        W 6590  26.286  39.942  13.512
38362W        W 6591  19.243  22.803   1.744
38363W        W 6592  17.818   0.811  10.767
38364W        W 6593  31.386   2.152  12.426
38365W        W 6594   1.336  24.627   1.143
38366W        W 6595  36.011  42.277   3.485
38367W        W 6596   6.212   5.846  10.303
38368W        W 6597  11.319   8.441   3.606
38369W        W 6598   0.695  30.714   5.124
38370W        W 6599  22.132  39.657  12.036
38371W        W 6600  37.355   0.597   2.232
38372W        W 6601  11.056   9.835  10.677
38373W        W 6602  24.227  43.804   1.208
38374W        W 6603  28.405  23.105   3.232
38375W        W 6604  30.914   0.973   2.693
38376W        W 6605  18.765  38.480  12.390
38377W        W 6606  40.758   9.333  11.261
38378W        W 6607  26.640  14.854   1.235
38379W        W 6608  16.741  22.802  10.717
38380W        W 6609   2.672  29.748  12.907
38381W        W 6610  25.265  20.931  11.124
38382W        W 6611  36.659  39.984   3.882
38383W        W 6612  42.553  35.289  12.025
38384W        W 6613  44.981  44.817  13.569
38385W        W 6614  15.573  30.015   1.685
38386W        W 6615  25.122  44.211  14.132
38387W        W 6616  39.858  28.176  13.911
38388W        W 6617  17.386  25.433  11.120
38389W        W 6618  26.498   2.498   1.501
38390W        W 6619  23.795   1.757   0.898
38391W        W 6620  15.490  29.906  10.679
38392W        W 6621  33.673   3.843  13.446
38393W        W 6622  17.620  20.219   4.596
38394W        W 6623  22.131  18.251  10.848
38395W        W 6624   2.976  36.123  14.765
38396W        W 6625   0.506  27.008  11.375
38397W        W 6626  18.120  13.122  11.998
38398W        W 6627  44.631  33.395  12.573
38399W        W 6628  41.883   0.617   1.468
38400W        W 6629  23.655   7.965  12.218
38401W        W 6630  43.489  36.391   2.842
38402W        W 6631  38.466   6.161   0.915
38403W        W 6632  17.724  24.189  12.582
38404W        W 6633  34.519  40.367  13.422
38405W        W 6634  44.484  16.863  11.489
38406W        W 6635   4.847  37.402   5.021
38407W        W 6636  43.755  35.475  14.809
38408W        W 6637  24.465  40.509   4.133
38409W        W 6638  41.876  14.732   2.286
38410W        W 6639  32.060  26.341  10.692
38411W        W 6640  13.289  38.126  14.615
38412W        W 6641  15.278  29.814   3.007
38413W        W 6642   0.210  41.633  11.212
38414W        W 6643  27.127  23.086   3.730
38415W        W 6644  29.339  16.060   0.023
38416W        W 6645  36.394   4.662   0.802
38417W        W 6646  32.544  30.187   2.215
38418W        W 6647  26.378  17.763   2.878
38419W        W 6648  22.456  22.541   3.656
38420W        W 6649  31.304   5.967  14.959
38421W        W 6650  33.461  26.509   3.780
38422W        W 6651  19.459  16.506   3.177
38423W        W 6652  18.702  34.461   2.405
38424W        W 6653   8.252   8.611   1.940
38425W        W 6654  14.516  20.046  12.783
38426W        W 6655  11.324  42.530  13.965
38427W        W 6656  21.775   2.370  12.992
38428W        W 6657  11.014   8.865  14.886
38429W        W 6658  12.365  38.661  11.339
38430W        W 6659  34.559   1.742   2.454
38431W        W 6660  38.823  40.791  13.457
38432W        W 6661  29.627   2.806   1.812
38433W        W 6662  43.345  29.882  14.029
38434W        W 6663   9.747  15.740   1.496
38435W        W 6664  22.049   0.236  13.500
38436W        W 6665  10.917  43.066  14.939
38437W        W 6666  10.688  29.220  12.907
38438W        W 6667  35.094  17.170   0.757
38439W        W 6668  11.338  43.304   0.539
38440W        W 6669   5.507  44.059  11.476
38441W        W 6670  31.598  43.028   3.007
38442W        W 6671  40.026  26.224  11.593
38443W        W 6672   7.922  25.734   1.310
38444W        W 6673   0.707  41.968  14.864
38445W        W 6674  34.968  29.458   0.199
38446W        W 6675  11.698  28.131  10.399
38447W        W 6676  10.673  28.882  13.607
38448W        W 6677  13.362   3.245  14.572
38449W        W 6678  42.054  18.535  11.965
38450W        W 6679  44.500   4.390  13.318
38451W        W 6680  39.235  31.750  14.318
38452W        W 6681  38.515  30.710  13.962
38453W        W 6682   8.890  30.585  14.240
38454W        W 6683  39.181  11.947  10.867
38455W        W 6684  26.093  23.432   0.382
38456W        W 6685  25.951  10.595   2.859
38457W        W 6686  10.276  27.934   4.235
38458W        W 6687   3.126  44.961  10.691
38459W        W 6688  38.146  34.887   1.714
38460W        W 6689  25.285   8.923  12.537
38461W        W 6690  35.548   1.531  13.488
38462W        W 6691  17.847  10.181  13.323
38463W        W 6692  39.873  43.456  12.072
38464W        W 6693  43.360  12.179   1.790
38465W        W 6694   3.550   8.431   0.990
38466W        W 6695  15.605  15.687   2.769
38467W        W 6696  35.633  18.207   3.153
38468W        W 6697  32.101  34.611  12.331
38469W        W 6698  12.070   3.217   0.570
38470W        W 6699  19.354  39.979   1.753
38471W        W 6700   2.761  33.940   0.395
38472W        W 6701   0.708  31.896  14.712
38473W        W 6702   4.984  28.021   3.714
38474W        W 6703   9.679  33.468   4.557
38475W        W 6704  44.220  40.944   1.209
38476W        W 6705  16.299  23.702  12.472
38477W        W 6706   5.663  20.568  11.261
38478W        W 6707  33.017  28.743  13.346
38479W        W 6708  22.627  27.683  13.879
38480W        W 6709  28.750  21.014  12.175
38481W        W 6710  32.686   5.845   1.331
38482W        W 6711  33.810  35.878   0.901
38483W        W 6712  39.113  31.434  10.377
38484W        W 6713   4.289   8.508   2.754
38485W        W 6714  12.891   3.812  13.982
38486W        W 6715  36.802  15.387  13.531
38487W        W 6716  36.400  44.691  11.566
38488W        W 6717   4.265  37.336   3.711
38489W        W 6718  16.311   0.208   3.206
38490W        W 6719  36.528  37.116  10.317
38491W        W 6720  39.691  29.251   4.579
38492W        W 6721   7.836  17.964   4.177
38493W        W 6722  38.763   7.818   1.734
38494W        W 6723  36.581  42.012  11.131
38495W        W 6724  28.723  18.680  11.170
38496W        W 6725  39.554  28.803   1.391
38497W        W 6726  23.132  28.611  12.664
38498W        W 6727  41.107   8.880   4.514
38499W        W 6728  11.566  24.257   2.335
38500W        W 6729  11.335  35.840   4.658
38501W        W 6730  28.381  17.314   0.511
38502W        W 6731   1.346  18.828  14.448
38503W        W 6732  37.579  24.608   2.849
38504W        W 6733   4.145  35.930  11.927
38505W        W 6734  23.810   0.225  10.881
38506W        W 6735  44.259  17.355   1.760
38507W        W 6736   5.418  35.526  14.471
38508W        W 6737  37.414   2.866  13.050
38509W        W 6738  24.677  36.992  12.118
38510W        W 6739  19.497  28.544   4.094
38511W        W 6740   0.814  27.177   4.647
38512W        W 6741  21.105   4.765  14.844
38513W        W 6742  28.429  11.797  10.870
38514W        W 6743  10.039  34.297   3.175
38515W        W 6744  27.256  37.407   3.065
38516W        W 6745  11.211  16.192   3.173
38517W        W 6746  31.230  18.770  11.055
38518W        W 6747  19.764  25.281   0.438
38519W        W 6748  31.300  26.066   2.368
38520W        W 6749  27.533   6.749   2.746
38521W        W 6750  25.105   9.793  11.157
38522W        W 6751  31.526  16.603  13.161
38523W        W 6752  18.214  13.639  14.362
38524W        W 6753  44.743  18.190  11.665
38525W        W 6754  13.536   7.881  12.036
38526W        W 6755  21.536  17.695  12.364
38527W        W 6756  44.240  13.521   0.038
38528W        W 6757  23.995  15.850   4.597
38529W        W 6758  23.159  15.807   2.468
38530W        W 6759  32.825  27.270  14.530
38531W        W 6760  30.868  12.098   0.806
38532W        W 6761  11.940  43.727   1.827
38533W        W 6762  21.119  40.790   2.912
38534W        W 6763  44.875   9.078  11.479
38535W        W 6764  40.511  39.483  13.369
38536W        W 6765   6.743  19.908  10.834
38537W        W 6766  36.893   2.895   2.620
38538W        W 6767  10.154   1.404  12.034
38539W        W 6768  39.058  20.810  11.507
38540W        W 6769  38.707  22.498   2.744
38541W        W 6770  43.149  17.804   0.456
38542W        W 6771  31.520  42.216   2.769
38543W        W 6772  39.664   1.704  12.119
38544W        W 6773  34.946  18.317  14.770
38545W        W 6774   3.166  21.579  14.344
38546W        W 6775  16.179   6.893  13.570
38547W        W 6776  28.698  38.835  12.317
38548W        W 6777  18.788  36.383   4.244
38549W        W 6778  34.612  20.050  13.831
38550W        W 6779  37.032  16.515  12.926
38551W        W 6780  11.554   1.431  12.637
38552W        W 6781  28.203   4.788   0.694
38553W        W 6782   4.823  29.211  11.137
38554W        W 6783  11.095  31.011  13.844
38555W        W 6784  21.361  16.526   1.765
38556W        W 6785  21.737   6.372   4.518
38557W        W 6786  10.344  30.694  11.143
38558W        W 6787  35.281  13.596  14.463
38559W        W 6788  23.551  29.578   0.774
38560W        W 6789   0.002  28.031   4.237
38561W        W 6790  22.625   4.571  11.631
38562W        W 6791  28.504  43.817   2.796
38563W        W 6792  33.489  22.575   4.146
38564W        W 6793  14.319  18.508  12.894
38565W        W 6794  28.466   9.737  14.327
38566W        W 6795  13.195  27.474  14.426
38567W        W 6796   3.172  17.307  10.774
38568W        W 6797  28.490  44.907   1.828
38569W        W 6798  30.382  33.928  14.958
38570W        W 6799  20.609  32.171   1.962
38571W        W 6800  13.001  26.972  10.905
38572W        W 6801  32.542  10.146   0.337
38573W        W 6802   0.253  30.890   3.998
38574W        W 6803  31.716  43.661  11.833
38575W        W 6804  11.307  44.957   2.223
38576W        W 6805  26.643  36.858  11.491
38577W        W 6806  11.604  13.860   1.869
38578W        W 6807   3.401   7.908  11.631
38579W        W 6808  16.948   0.069  14.906
38580W        W 6809  14.133  38.546   1.780
38581W        W 6810  38.968   5.355  13.954
38582W        W 6811  11.323   2.185   2.865
38583W        W 6812  29.139   4.228   4.614
38584W        W 6813  27.658  32.456  11.511
38585W        W 6814  42.331   3.709   2.201
38586W        W 6815  42.495  10.775   2.624
38587W        W 6816  44.311  22.138  11.016
38588W        W 6817  27.959  21.513  11.790
38589W        W 6818  42.415  20.702  11.021
38590W        W 6819  39.248   4.977  11.025
38591W        W 6820  13.901   4.333  12.436
38592W        W 6821  38.450  18.654  13.388
38593W        W 6822  12.198  20.510  12.907
38594W        W 6823  39.175  22.121  13.753
38595W        W 6824  14.360   8.862   0.737
38596W        W 6825  16.262  40.918   0.752
38597W        W 6826  12.090   3.386  11.996
38598W        W 6827  38.438   9.785  14.246
38599W        W 6828  42.486  11.420   4.143
38600W        W 6829  40.494  10.856   2.658
38601W        W 6830  31.386   9.375  13.298
38602W        W 6831  16.202  17.214  13.480
38603W        W 6832   0.336  26.973  12.754
38604W        W 6833  44.610  31.215   0.144
38605W        W 6834   3.793  26.946  14.471
38606W        W 6835  39.481  15.591  12.541
38607W        W 6836   2.244  33.305  13.285
38608W        W 6837  43.799   1.244  13.926
38609W        W 6838  17.334   5.410   1.977
38610W        W 6839  12.941  26.921  12.101
38611W        W 6840  33.618   4.824  10.717
38612W        W 6841  26.228  32.579  10.621
38613W        W 6842  20.912  33.432  10.225
38614W        W 6843  35.599   4.502  11.773
38615W        W 6844  11.145   2.816  13.936
38616W        W 6845  19.754  17.379  11.073
38617W        W 6846  29.643  21.587   2.378
38618W        W 6847  25.302  13.549   4.576
38619W        W 6848   0.097  14.630  12.129
38620W        W 6849  15.913  42.465  12.757
38621W        W 6850  12.922   5.920  11.078
38622W        W 6851  29.079  21.066   3.609
38623W        W 6852  38.364  19.838  11.479
38624W        W 6853  17.297  19.373  14.246
38625W        W 6854  26.816   4.958  14.737
38626W        W 6855   6.897  29.724  12.014
38627W        W 6856   7.485  28.165  13.883
38628W        W 6857   0.381  43.248  13.983
38629W        W 6858  18.715  14.116   1.951
38630W        W 6859  11.296  44.839   3.421
38631W        W 6860  40.603  19.085  12.352
38632W        W 6861  34.561  16.659   3.222
38633W        W 6862   9.784  29.171  11.869
38634W        W 6863  24.815  36.288  14.308
38635W        W 6864  24.008  29.031  14.988
38636W        W 6865  26.581  18.561   3.215
38637W        W 6866  13.774  43.546  12.471
38638W        W 6867  33.016  29.211  12.587
38639W        W 6868  36.531  11.738   9.998
38640W        W 6869  31.666  29.433  13.010
38641W        W 6870   9.634  19.042  12.485
38642W        W 6871  16.871  21.184  11.836
38643W        W 6872   3.478  23.557  13.906
38644W        W 6873  12.099  35.854   1.983
38645W        W 6874   7.855  33.856  10.783
38646W        W 6875  33.354   7.277   9.725
38647W        W 6876  33.076  44.605  10.783
38648W        W 6877  34.796  39.084  12.962
38649W        W 6878   3.012  39.636  12.132
38650W        W 6879  32.929  17.082   0.472
38651W        W 6880  12.880   7.849  13.378
38652W        W 6881  25.237  12.639   1.658
38653W        W 6882  16.587  17.302  14.484
38654W        W 6883  30.791  20.299   3.739
38655W        W 6884  21.961  26.581  14.845
38656W        W 6885  23.397  25.536  14.527
38657W        W 6886  22.538   4.393  13.784
38658W        W 6887  41.984   4.398   2.243
38659W        W 6888  31.456  27.646  14.762
38660W        W 6889  27.411  32.356  11.048
38661W        W 6890  22.466  17.984   4.114
38662W        W 6891  31.950   2.677  10.924
38663W        W 6892   2.218   8.695  11.328
38664W        W 6893   9.562  36.494   1.863
38665W        W 6894   2.975  24.412  13.531
38666W        W 6895  21.247   1.278  11.238
38667W        W 6896  21.603   0.929   3.661
38668W        W 6897  37.919  30.079  12.935
38669W        W 6898  25.323  25.687   3.556
38670W        W 6899  23.661  39.840   1.441
38671W        W 6900   8.741  15.890   1.732
38672W        W 6901  27.837  22.897  11.274
38673W        W 6902   5.429  29.191  12.914
38674W        W 6903  23.115  30.304  13.836
38675W        W 6904  12.875  38.124  13.380
38676W        W 6905  31.147  44.697  12.547
38677W        W 6906  13.407  37.305   1.907
38678W        W 6907  16.486   3.764  13.361
38679W        W 6908  28.533  19.730  13.009
38680W        W 6909  39.144  23.710   3.289
38681W        W 6910  10.214  21.696  14.477
38682W        W 6911   2.822   0.554  13.366
38683W        W 6912  17.372   0.976   4.288
38684W        W 6913   0.379  15.592   2.514
38685W        W 6914   6.989  23.645  10.884
38686W        W 6915   3.669  44.894  10.639
38687W        W 6916  12.310  40.564   2.273
38688W        W 6917  15.088  14.687   0.819
38689W        W 6918  17.086  32.921   4.100
38690W        W 6919   7.386   9.229  13.109
38691W        W 6920  34.512  12.600  10.650
38692W        W 6921  14.845  10.564  14.972
38693W        W 6922  22.550  41.535  12.186
38694W        W 6923   4.205  14.645   1.688
38695W        W 6924   5.448  40.405   0.815
38696W        W 6925  33.960   0.911  13.858
38697W        W 6926  26.002  27.792   3.107
38698W        W 6927   1.565   3.347   2.305
38699W        W 6928  30.023   6.095  12.577
38700W        W 6929   7.990   0.219   3.676
38701W        W 6930  40.539  41.474   4.189
38702W        W 6931  12.669  36.973  14.197
38703W        W 6932  32.885   7.916   4.169
38704W        W 6933   8.200  36.404   4.190
38705W        W 6934  32.979  13.777  11.146
38706W        W 6935  16.296  18.687  13.718
38707W        W 6936  13.803   6.620   1.987
38708W        W 6937  12.406   5.791  14.771
38709W        W 6938  38.076  35.837  11.621
38710W        W 6939  10.313   0.512   1.904
38711W        W 6940  38.790  28.907  12.836
38712W        W 6941  16.638   9.609  12.914
38713W        W 6942  37.440  43.081   4.857
38714W        W 6943   8.472  42.266  13.901
38715W        W 6944  11.720  10.811  10.781
38716W        W 6945  34.389  17.671   3.719
38717W        W 6946  27.949  32.499  13.227
38718W        W 6947  40.074  25.629   1.625
38719W        W 6948  37.628  17.855  11.567
38720W        W 6949  34.384  41.268   4.225
38721W        W 6950  11.907  32.058  11.548
38722W        W 6951  41.042   3.653   2.718
38723W        W 6952  17.544  20.286   1.307
38724W        W 6953  25.979  14.797  14.475
38725W        W 6954   3.782  22.564   4.138
38726W        W 6955  41.090  31.357  11.703
38727W        W 6956  33.146  34.427   2.736
38728W        W 6957   7.170  16.689  12.464
38729W        W 6958  44.392   4.765  10.683
38730W        W 6959  14.622  26.847  12.923
38731W        W 6960   4.778  26.610  14.425
38732W        W 6961   2.528  24.566  14.343
38733W        W 6962  37.205  43.520   2.890
38734W        W 6963   7.720   3.915  11.125
38735W        W 6964  16.615  14.663  11.585
38736W        W 6965  30.696   2.981  14.009
38737W        W 6966  13.346  36.887   3.704
38738W        W 6967   5.128  44.717  10.784
38739W        W 6968   0.383   1.396   4.905
38740W        W 6969   7.827  37.004   1.257
38741W        W 6970  37.298  30.504   0.363
38742W        W 6971   1.726  26.237  14.424
38743W        W 6972  43.415  33.607  12.031
38744W        W 6973  35.395   8.068   5.404
38745W        W 6974  37.250  26.855  13.941
38746W        W 6975  28.739   9.716   2.613
38747W        W 6976  15.361  29.569   0.524
38748W        W 6977  29.693  41.526  12.563
38749W        W 6978  36.339  38.232  14.789
38750W        W 6979  13.306  33.770   2.466
38751W        W 6980  19.176   9.840  10.606
38752W        W 6981  10.679  44.698  11.613
38753W        W 6982  33.831   8.865  13.102
38754W        W 6983  25.709  29.440  10.375
38755W        W 6984  13.244  21.345  14.775
38756W        W 6985  26.066  20.799  13.495
38757W        W 6986  24.586  30.686  11.646
38758W        W 6987  43.851  40.854  10.625
38759W        W 6988   4.790   2.759   4.149
38760W        W 6989  39.042  21.718   2.398
38761W        W 6990  18.123   5.643  11.486
38762W        W 6991  22.267  43.479   2.864
38763W        W 6992  32.847   3.407  13.546
38764W        W 6993  42.509  25.600  12.502
38765W        W 6994  42.888   9.674   4.279
38766W        W 6995  27.793  31.876  10.040
38767W        W 6996   9.891  34.070   3.632
38768W        W 6997  33.851  25.526  10.652
38769W        W 6998  25.482  26.735  12.579
38770W        W 6999  28.695  22.208   0.449
38771W        W 7000   4.835  10.336   3.193
38772W        W 7001  18.744  28.092   0.555
38773W        W 7002  13.950  34.080   1.403
38774W        W 7003  26.834  15.315  13.997
38775W        W 7004  34.000  12.355   1.683
38776W        W 7005  34.792  19.789  12.111
38777W        W 7006  23.781  36.635  12.347
38778W        W 7007  16.270  40.660   4.387
38779W        W 7008  34.448   1.972  10.973
38780W        W 7009   8.210   7.815   0.314
38781W        W 7010  35.892  30.253  10.685
38782W        W 7011  44.344  17.333   2.897
38783W        W 7012  33.511  39.332  10.825
38784W        W 7013   7.864  21.562  10.499
38785W        W 7014  11.183   5.226   2.778
38786W        W 7015  27.743   5.925   4.520
38787W        W 7016  14.202  35.204   5.019
38788W        W 7017  21.759   6.725  13.982
38789W        W 7018  10.573   9.118   4.393
38790W        W 7019  13.609  34.698   3.247
38791W        W 7020  11.708   9.335  12.177
38792W        W 7021  39.568  19.681   3.372
38793W        W 7022  31.762   9.227  14.151
38794W        W 7023  13.343  16.810   4.136
38795W        W 7024   8.736  18.843   3.337
38796W        W 7025  10.268  38.352   4.563
38797W        W 7026  38.332  29.257   3.304
38798W        W 7027  19.510  17.122   4.103
38799W        W 7028  18.153  36.513   3.412
38800W        W 7029   2.686  26.691   1.327
38801W        W 7030  24.892  38.478   3.733
38802W        W 7031  12.347   7.374   0.228
38803W        W 7032  34.021   2.280  10.938
38804W        W 7033  19.732   7.413   2.791
38805W        W 7034  35.869  38.664   1.806
38806W        W 7035  14.133   5.246   1.917
38807W        W 7036  37.254   6.831  12.986
38808W        W 7037  42.889   6.118   4.216
38809W        W 7038  31.451  31.790   5.058
38810W        W 7039  28.111  16.625   3.777
38811W        W 7040  18.034   6.444   0.789
38812W        W 7041   9.694  43.426   4.015
38813W        W 7042   1.080  18.813   2.308
38814W        W 7043   3.766   2.790   2.198
38815W        W 7044   1.404  26.441  11.465
38816W        W 7045  17.307  40.035  11.058
38817W        W 7046  40.492  19.172   3.592
38818W        W 7047   1.322  30.892   2.427
38819W        W 7048   8.700  40.528  14.919
38820W        W 7049  30.699   5.240  14.340
38821W        W 7050  32.901  26.269  14.339
38822W        W 7051  11.589  15.571   0.286
38823W        W 7052  43.035  15.701   3.206
38824W        W 7053   7.880  33.547   5.023
38825W        W 7054  32.700  34.064   3.267
38826W        W 7055   8.893  30.564  11.001
38827W        W 7056  43.427  40.849  14.485
38828W        W 7057   2.316  36.613  14.082
38829W        W 7058  11.624  41.607  11.301
38830W        W 7059  24.331   3.273  10.780
38831W        W 7060  27.108  10.154   1.256
38832W        W 7061  42.269   5.409  10.638
38833W        W 7062  28.151  30.073  10.172
38834W        W 7063  14.988   6.273  12.988
38835W        W 7064   0.046  24.471   3.972
38836W        W 7065  40.467  37.665   1.948
38837W        W 7066  44.163  36.053  13.551
38838W        W 7067  41.899  25.779  13.529
38839W        W 7068  11.377  14.894  10.547
38840W        W 7069  40.239  32.668   3.843
38841W        W 7070   4.174  28.156  13.363
38842W        W 7071  37.470  42.304   4.609
38843W        W 7072   6.244   2.782  13.330
38844W        W 7073  41.361  14.352  11.084
38845W        W 7074  31.801  34.283   1.365
38846W        W 7075  36.875  42.202   3.941
38847W        W 7076  44.678  39.066  11.196
38848W        W 7077  14.687  18.814   3.082
38849W        W 7078  22.418  22.014   4.427
38850W        W 7079  29.060   4.794   1.193
38851W        W 7080  14.127  16.213  11.538
38852W        W 7081  40.775   9.202   3.688
38853W        W 7082   8.716  44.181  11.050
38854W        W 7083  17.602  11.890  14.003
38855W        W 7084  13.159   3.119   1.109
38856W        W 7085  16.149  28.417   3.881
38857W        W 7086   1.058   6.248  10.908
38858W        W 7087  36.645  42.384   0.283
38859W        W 7088  29.932  13.378  13.754
38860W        W 7089  31.569  33.920   2.362
38861W        W 7090  24.610  36.884  13.448
38862W        W 7091   1.367   4.948  14.915
38863W        W 7092  17.346  26.901  13.463
38864W        W 7093   0.542  39.097   3.924
38865W        W 7094  27.686  11.630  11.957
38866W        W 7095  39.021   6.679   3.639
38867W        W 7096  43.032  38.998   3.141
38868W        W 7097  43.452  35.360  11.218
38869W        W 7098  23.152  16.163  12.909
38870W        W 7099  29.299  33.050   3.026
38871W        W 7100   2.149  20.558  11.620
38872W        W 7101  21.573  20.771   0.338
38873W        W 7102  23.702  27.363   3.549
38874W        W 7103   6.650   9.415   0.488
38875W        W 7104  13.166   8.336   3.917
38876W        W 7105  37.088  21.704   0.902
38877W        W 7106  25.669  21.347   3.264
38878W        W 7107  34.649   5.449   1.821
38879W        W 7108  39.298  23.180   0.774
38880W        W 7109  31.757  31.567  13.393
38881W        W 7110  19.225  30.203   4.530
38882W        W 7111  22.506  40.750  12.356
38883W        W 7112  14.220  34.447  11.546
38884W        W 7113  31.140  27.359   3.202
38885W        W 7114  30.587  42.895  12.013
38886W        W 7115  18.247  34.847  13.341
38887W        W 7116  37.943  17.036   2.796
38888W        W 7117  14.254  17.601  10.320
38889W        W 7118  33.324  42.277  10.548
38890W        W 7119  26.037  18.126   2.651
38891W        W 7120  10.937   2.961   4.528
38892W        W 7121  35.614   0.006   0.460
38893W        W 7122  16.992  24.130   0.267
38894W        W 7123  31.574   4.491   3.181
38895W        W 7124  31.977  23.502  14.776
38896W        W 7125  26.123  43.363  14.409
38897W        W 7126  20.179  15.853  12.482
38898W        W 7127  39.491  31.380  11.323
38899W        W 7128   6.468  24.729  14.363
38900W        W 7129  16.259  38.503  14.920
38901W        W 7130  12.703  17.776  14.043
38902W        W 7131  36.137  30.845   3.632
38903W        W 7132  12.370  21.575  13.859
38904W        W 7133  32.032   1.991  13.974
38905W        W 7134  17.862  20.157  12.511
38906W        W 7135  33.486  35.823  11.600
38907W        W 7136   2.440  42.076  13.871
38908W        W 7137  35.910  28.992  12.127
38909W        W 7138   7.976  33.512   0.773
38910W        W 7139  25.712  38.785  11.055
38911W        W 7140  12.947  20.490   1.812
38912W        W 7141  22.258  44.442  12.476
38913W        W 7142  38.397   0.459  14.024
38914W        W 7143  25.520  31.341   4.589
38915W        W 7144  23.652  12.737   4.145
38916W        W 7145  44.934  28.617  13.122
38917W        W 7146  44.519   1.383   1.380
38918W        W 7147  17.212  21.525  14.600
38919W        W 7148   7.368  14.113  11.060
38920W        W 7149  31.656  25.386  12.802
38921W        W 7150  18.796  31.524   3.409
38922W        W 7151  11.294   3.866   0.324
38923W        W 7152  15.838  11.487  14.427
38924W        W 7153  44.766   7.055   3.590
38925W        W 7154  44.424  14.819  13.811
38926W        W 7155  28.183  30.127   2.733
38927W        W 7156  43.108  39.189  13.970
38928W        W 7157   9.891  28.563  12.410
38929W        W 7158   6.528  34.508  13.006
38930W        W 7159   5.891  30.592   0.825
38931W        W 7160  40.881  19.171   1.744
38932W        W 7161  41.511  39.143  13.749
38933W        W 7162  31.986  26.632  14.634
38934W        W 7163   1.187  23.343  11.486
38935W        W 7164  12.956  24.219  13.973
38936W        W 7165  44.396  30.420   2.680
38937W        W 7166  32.296   9.602  13.002
38938W        W 7167  12.856  30.676   1.576
38939W        W 7168  25.042   7.193   3.318
38940W        W 7169  35.051  41.859  10.894
38941W        W 7170  28.042  18.187  14.398
38942W        W 7171   6.798  40.868  13.760
38943W        W 7172  37.425  28.908  12.025
38944W        W 7173  31.965  23.221   2.727
38945W        W 7174   1.013  32.361   2.870
38946W        W 7175   3.128  31.450  11.849
38947W        W 7176  17.885  34.706   3.705
38948W        W 7177   1.288  26.663   0.399
38949W        W 7178   3.849  38.596  11.159
38950W        W 7179  13.761  14.809   4.560
38951W        W 7180  35.497   5.265  12.338
38952W        W 7181  24.254  33.473  12.094
38953W        W 7182   5.645  14.035   3.460
38954W        W 7183  40.700   3.774   4.147
38955W        W 7184   9.839   7.749   4.149
38956W        W 7185  25.545  41.388   0.445
38957W        W 7186  38.398   7.350   3.657
38958W        W 7187  17.113   3.450  12.886
38959W        W 7188  44.256   7.145  10.742
38960W        W 7189  36.999  44.023   1.242
38961W        W 7190  13.203  31.097   1.187
38962W        W 7191   6.933  22.173   3.663
38963W        W 7192   2.080  22.063   1.212
38964W        W 7193   8.575  36.741   0.739
38965W        W 7194   2.296  22.355   3.364
38966W        W 7195  30.428  19.816  11.485
38967W        W 7196  34.054  23.606  10.704
38968W        W 7197  40.488  33.385  14.959
38969W        W 7198  10.317   3.469  13.980
38970W        W 7199  22.318  22.356  10.951
38971W        W 7200  37.909  11.608  13.550
38972W        W 7201   6.439  16.678   2.579
38973W        W 7202  42.046   2.884  12.034
38974W        W 7203   4.503  35.912   4.658
38975W        W 7204  14.883  38.074  14.782
38976W        W 7205  11.435  12.293   2.774
38977W        W 7206  14.899  25.785  14.742
38978W        W 7207   5.274  11.361   2.638
38979W        W 7208  20.638  19.053  11.511
38980W        W 7209  22.449   3.057  12.476
38981W        W 7210  38.286  21.482   0.055
38982W        W 7211  38.849  14.403   1.727
38983W        W 7212  11.032   5.608   4.279
38984W        W 7213  32.962  41.652   3.167
38985W        W 7214  21.261   6.341   5.141
38986W        W 7215  25.676  26.546   4.839
38987W        W 7216   9.654  25.882  11.343
38988W        W 7217   9.287   6.120   4.604
38989W        W 7218  16.548  26.201   4.221
38990W        W 7219  26.113   0.286  12.610
38991W        W 7220   4.010  28.237  11.533
38992W        W 7221  32.504   6.874  13.486
38993W        W 7222  11.297  10.663   1.906
38994W        W 7223   6.727  26.766   3.252
38995W        W 7224  15.331  44.546  12.038
38996W        W 7225  29.926  40.791   2.633
38997W        W 7226  39.443   0.996  10.772
38998W        W 7227   9.184  23.915  10.561
38999W        W 7228   8.893  39.447  10.343
39000W        W 7229   2.775   6.223  14.874
39001W        W 7230  39.911  14.497   1.365
39002W        W 7231  16.505  14.805   0.327
39003W        W 7232  30.158   7.839   4.733
39004W        W 7233  30.970  43.833   1.263
39005W        W 7234  10.078  15.308  14.394
39006W        W 7235  31.035  15.170   1.979
39007W        W 7236   0.205  38.080  11.319
39008W        W 7237   7.769   8.460  10.594
39009W        W 7238  30.396   5.842   2.713
39010W        W 7239  25.412  25.077  12.294
39011W        W 7240  35.493  37.010   1.087
39012W        W 7241  36.117  44.522   0.999
39013W        W 7242  27.042   1.715  12.034
39014W        W 7243   0.075  35.890  12.559
39015W        W 7244  15.836  20.362  11.080
39016W        W 7245  25.554  44.477  13.931
39017W        W 7246  11.287  21.051  14.313
39018W        W 7247   5.738  18.796   2.870
39019W        W 7248  34.969  43.749   3.476
39020W        W 7249  27.208  15.387  14.396
39021W        W 7250  25.498   7.907  14.345
39022W        W 7251  12.297  18.989  12.159
39023W        W 7252   9.631  13.739  11.324
39024W        W 7253  43.029  44.939  14.789
39025W        W 7254  13.746  20.999   1.149
39026W        W 7255   9.024  14.745   4.538
39027W        W 7256  20.359  35.587   1.336
39028W        W 7257   0.297  19.705  10.852
39029W        W 7258  12.256  13.444  11.709
39030W        W 7259  29.647  29.402   1.996
39031W        W 7260  29.563  32.455   0.394
39032W        W 7261   0.820  22.543   1.772
39033W        W 7262  14.152  30.639   4.852
39034W        W 7263  44.420  36.065  10.099
39035W        W 7264   0.920   6.359   3.156
39036W        W 7265  31.756   3.435  12.387
39037W        W 7266  15.049  23.710  10.146
39038W        W 7267  19.955   0.363   3.476
39039W        W 7268  24.051  30.382  14.902
39040W        W 7269   3.163  44.056   2.247
39041W        W 7270  23.125  22.089  11.187
39042W        W 7271  30.851  13.633   2.649
39043W        W 7272  23.422  21.981   4.582
39044W        W 7273   2.143  13.636  13.415
39045W        W 7274   3.759  33.321  14.402
39046W        W 7275   0.527  10.274   3.235
39047W        W 7276   5.491  41.721  11.977
39048W        W 7277  19.238   0.243  11.996
39049W        W 7278  17.550   9.657   3.279
39050W        W 7279  27.110  26.738  13.395
39051W        W 7280  18.125  24.204  12.027
39052W        W 7281  40.341  43.125   2.236
39053W        W 7282   4.712  37.535  10.511
39054W        W 7283  38.433  42.931  12.923
39055W        W 7284  31.998  21.660  12.991
39056W        W 7285  27.640  32.129   3.779
39057W        W 7286   8.965  35.794  11.087
39058W        W 7287  23.187  22.039   1.923
39059W        W 7288  44.250  13.843  11.572
39060W        W 7289   4.182   2.085   2.665
39061W        W 7290  44.447  38.254   0.013
39062W        W 7291  31.892   9.752   1.469
39063W        W 7292  21.245  30.487  14.150
39064W        W 7293   8.479   0.308   3.865
39065W        W 7294  13.324   3.403  14.062
39066W        W 7295   0.040  42.323   3.136
39067W        W 7296   7.194  33.664   1.331
39068W        W 7297  23.032  40.985   2.094
39069W        W 7298  19.065  31.062  10.771
39070W        W 7299   5.781  29.970  14.351
39071W        W 7300   2.612  21.404   3.655
39072W        W 7301   7.950  27.277   1.485
39073W        W 7302  22.490   9.243  14.872
39074W        W 7303  41.930  20.483   1.368
39075W        W 7304   0.988   9.318   1.303
39076W        W 7305  44.573  30.422   4.044
39077W        W 7306   0.768  17.979  10.353
39078W        W 7307  20.797  38.043  12.997
39079W        W 7308  19.208  33.863   2.827
39080W        W 7309  36.852   6.957   2.592
39081W        W 7310  10.807  16.836   1.930
39082W        W 7311  40.088   0.798  11.587
39083W        W 7312   7.428   2.232   1.445
39084W        W 7313   0.610   6.769  10.343
39085W        W 7314  15.072  32.040  13.803
39086W        W 7315  22.381  16.618  12.334
39087W        W 7316  13.415  31.062  10.716
39088W        W 7317   8.298  13.102  14.693
39089W        W 7318  38.354  44.414  14.936
39090W        W 7319  19.147  20.505   4.475
39091W        W 7320  44.768   4.117  11.595
39092W        W 7321   0.262  23.738   0.700
39093W        W 7322   2.834   7.504  13.550
39094W        W 7323  30.645   4.233   3.312
39095W        W 7324  22.465   7.710   1.295
39096W        W 7325  11.012   7.911  13.278
39097W        W 7326  10.109  40.959   4.691
39098W        W 7327   2.237   8.672  13.992
39099W        W 7328  40.099  42.556   3.327
39100W        W 7329   5.696  31.354  14.225
39101W        W 7330  33.008  19.548  13.299
39102W        W 7331  27.673  24.562   4.608
39103W        W 7332  35.919  40.287   3.843
39104W        W 7333  24.108  17.175   3.133
39105W        W 7334  14.701  31.642  13.891
39106W        W 7335  33.130  30.427   1.210
39107W        W 7336  13.661  26.566   1.777
39108W        W 7337  18.342  30.485  10.253
39109W        W 7338  34.029  14.822   4.720
39110W        W 7339   6.781  38.559   0.474
39111W        W 7340  23.530  43.302   1.904
39112W        W 7341   5.174  25.112  10.414
39113W        W 7342  24.512  10.636   3.123
39114W        W 7343  17.273  36.115   1.894
39115W        W 7344  21.841  25.127   4.232
39116W        W 7345  41.343   8.474   3.678
39117W        W 7346  34.120  11.189  13.880
39118W        W 7347   7.360  33.416   4.943
39119W        W 7348  41.060   9.190   4.112
39120W        W 7349  14.621   9.186  13.467
39121W        W 7350  24.192  14.265   1.393
39122W        W 7351  42.810   9.815  11.883
39123W        W 7352  10.399  26.528   2.281
39124W        W 7353  29.454  15.073  13.535
39125W        W 7354  15.089  23.036   0.711
39126W        W 7355   2.427   0.601   2.852
39127W        W 7356  42.134   3.897   3.732
39128W        W 7357  10.927  26.566  12.446
39129W        W 7358  10.205  28.964  12.092
39130W        W 7359  24.790  16.560   0.443
39131W        W 7360  11.956  39.165  14.942
39132W        W 7361  42.903  28.213   3.211
39133W        W 7362   2.930  26.158  14.074
39134W        W 7363  30.030  36.814   2.389
39135W        W 7364  31.129  42.826   0.003
39136W        W 7365   7.289   0.929   3.986
39137W        W 7366  16.082  39.903  10.819
39138W        W 7367  18.111  32.639  14.047
39139W        W 7368  36.402  16.341  10.709
39140W        W 7369  24.165  22.913   0.747
39141W        W 7370  27.730   6.477   3.737
39142W        W 7371  10.153  43.035   2.311
39143W        W 7372   0.131  28.719   3.698
39144W        W 7373  30.573  31.236   3.248
39145W        W 7374  33.452  27.375  12.512
39146W        W 7375  12.432  11.177  14.930
39147W        W 7376  42.882  20.151  11.584
39148W        W 7377  12.865   3.926   1.460
39149W        W 7378  13.192  26.695  13.406
39150W        W 7379  17.294  27.093   1.211
39151W        W 7380   4.253  19.719   1.324
39152W        W 7381  11.892  19.285  12.343
39153W        W 7382  28.136  26.988   4.821
39154W        W 7383  27.511  13.647   0.720
39155W        W 7384  33.196  14.611  14.680
39156W        W 7385  33.328  44.322   4.233
39157W        W 7386   7.923  16.812  13.848
39158W        W 7387  17.270  21.994   4.174
39159W        W 7388  21.628   1.354  12.119
39160W        W 7389   8.212  11.684  12.002
39161W        W 7390  38.505  40.027   3.090
39162W        W 7391  25.607   2.681   3.320
39163W        W 7392   5.797  21.153  14.971
39164W        W 7393  33.042  12.594   2.468
39165W        W 7394  33.217  39.870  13.398
39166W        W 7395   0.798  27.200   2.843
39167W        W 7396  23.003  11.801  14.482
39168W        W 7397  22.638  38.458   3.358
39169W        W 7398  41.506  25.044  14.468
39170W        W 7399  44.433  43.465   4.583
39171W        W 7400  40.083  15.808  12.021
39172W        W 7401  35.053  41.090   1.304
39173W        W 7402  13.344  34.005  13.989
39174W        W 7403  36.980  32.808   2.615
39175W        W 7404  35.110  16.332   0.636
39176W        W 7405  22.141  12.248   1.155
39177W        W 7406  39.983  31.996   0.953
39178W        W 7407  14.632   7.490  14.398
39179W        W 7408  17.501  24.382   2.492
39180W        W 7409   2.134  36.577  12.933
39181W        W 7410  23.933  28.233  11.202
39182W        W 7411   7.043  38.119  13.020
39183W        W 7412  38.263  22.244  14.180
39184W        W 7413  17.376  22.941   4.162
39185W        W 7414  14.356  30.719   2.834
39186W        W 7415  12.114  10.680   4.344
39187W        W 7416   2.344  27.945   2.853
39188W        W 7417   4.434   5.871  10.631
39189W        W 7418   6.982  30.906  14.860
39190W        W 7419   4.448  41.676   1.222
39191W        W 7420  43.040   1.408  11.153
39192W        W 7421  18.321  43.800  14.517
39193W        W 7422  41.004  36.881   1.659
39194W        W 7423  20.744  29.703  13.903
39195W        W 7424  22.631  22.601  11.862
39196W        W 7425   9.203   2.490   3.623
39197W        W 7426  11.749  43.716  10.277
39198W        W 7427  10.257  19.865   3.737
39199W        W 7428   9.288   0.244  13.926
39200W        W 7429  30.599  17.263  13.481
39201W        W 7430  36.732  22.268  12.032
39202W        W 7431  11.297  40.854  11.171
39203W        W 7432  12.897  21.698   1.169
39204W        W 7433   2.828  28.217   1.113
39205W        W 7434  30.213  13.134  11.147
39206W        W 7435  21.994  24.876   4.878
39207W        W 7436  32.019   5.286  13.975
39208W        W 7437  21.336   9.105  11.287
39209W        W 7438  16.412   9.621   2.059
39210W        W 7439  23.016   5.279  10.504
39211W        W 7440   1.814  35.656  14.984
39212W        W 7441  28.776  11.092  10.342
39213W        W 7442  39.416   5.393  13.349
39214W        W 7443  30.843  33.593   2.251
39215W        W 7444  12.261   0.076  14.061
39216W        W 7445  32.101  10.700   1.967
39217W        W 7446  10.763  38.905   2.754
39218W        W 7447  42.077  37.138   3.335
39219W        W 7448   2.825  39.745   1.243
39220W        W 7449   1.922  31.608   3.334
39221W        W 7450  38.981  37.509   2.023
39222W        W 7451  28.886  31.994  12.051
39223W        W 7452  36.486  30.976   0.920
39224W        W 7453   2.776  41.294  11.566
39225W        W 7454  40.292  27.968   5.068
39226W        W 7455  26.043  42.786   2.729
39227W        W 7456  26.195  19.502   3.669
39228W        W 7457   7.162  33.060   1.583
39229W        W 7458  27.976  19.550   1.392
39230W        W 7459  33.900  13.597  11.472
39231W        W 7460  14.686  41.786   1.803
39232W        W 7461  27.235   5.333   2.350
39233W        W 7462  43.040  28.608   2.888
39234W        W 7463  23.238  31.909   3.807
39235W        W 7464  44.422  11.402   1.385
39236W        W 7465  33.853  28.645  14.537
39237W        W 7466  17.493  29.963   2.762
39238W        W 7467  37.412  14.598   3.622
39239W        W 7468  36.677  10.324   5.234
39240W        W 7469  33.194  37.930   0.799
39241W        W 7470  17.228  36.405   3.377
39242W        W 7471  10.881   5.892   3.712
39243W        W 7472  31.940  39.081  11.598
39244W        W 7473   4.336  31.034  14.017
39245W        W 7474  18.557  10.337   4.793
39246W        W 7475  41.421  41.800  14.723
39247W        W 7476  29.838  29.846   4.157
39248W        W 7477  23.511  28.525   2.024
39249W        W 7478  30.712   2.250   4.275
39250W        W 7479  21.128  32.791  12.711
39251W        W 7480  42.315   7.372  11.140
39252W        W 7481  31.824  28.140  10.319
39253W        W 7482  41.435  11.614  12.022
39254W        W 7483  28.984  40.843   4.029
39255W        W 7484  20.043  23.954   2.908
39256W        W 7485   9.169  37.465  13.086
39257W        W 7486  43.543   5.991  10.471
39258W        W 7487  34.912  44.223  13.561
39259W        W 7488   9.245  11.150   1.453
39260W        W 7489  43.488  19.600  13.035
39261W        W 7490  29.501  38.770  10.760
39262W        W 7491  13.248  37.655   2.882
39263W        W 7492   3.112  39.354  11.694
39264W        W 7493  20.296  10.428  13.422
39265W        W 7494  30.090   5.130   1.744
39266W        W 7495  29.456  23.463   0.944
39267W        W 7496  11.073  31.563   2.490
39268W        W 7497  31.119  20.790   0.529
39269W        W 7498  42.993  10.442  11.095
39270W        W 7499  36.991  12.902  11.508
39271W        W 7500  12.218  17.989  14.069
39272W        W 7501  32.587  15.383  14.452
39273W        W 7502  29.618  42.751  13.082
39274W        W 7503   2.530  33.781  13.988
39275W        W 7504  35.919  18.726  12.160
39276W        W 7505  14.764  10.539   4.129
39277W        W 7506  19.225  40.304  13.635
39278W        W 7507  20.777   8.408  10.364
39279W        W 7508   3.860  13.000  14.537
39280W        W 7509  30.770  38.553   1.089
39281W        W 7510  20.990  28.290  12.303
39282W        W 7511   2.965  40.911  13.167
39283W        W 7512  20.689  26.090  11.297
39284W        W 7513  15.655  44.755   4.588
39285W        W 7514   9.845  16.856   0.365
39286W        W 7515  14.585  44.920  14.449
39287W        W 7516  19.841  20.298   0.421
39288W        W 7517  13.082  42.316  10.696
39289W        W 7518  43.243  11.665  11.570
39290W        W 7519   5.138   0.866  14.829
39291W        W 7520  27.254   0.997   1.221
39292W        W 7521  20.444   6.527  14.638
39293W        W 7522  43.026  14.558   2.168
39294W        W 7523  30.918  44.777  14.392
39295W        W 7524   7.854  14.398   2.691
39296W        W 7525  24.121   3.459  10.357
39297W        W 7526  33.461  39.934   2.784
39298W        W 7527  39.201   0.841   3.599
39299W        W 7528  43.921  29.591  11.362
39300W        W 7529  32.249  43.990   3.001
39301W        W 7530  20.565  12.091  13.755
39302W        W 7531  36.115   8.385  14.900
39303W        W 7532  23.968  20.658  10.843
39304W        W 7533  32.501  20.037   1.288
39305W        W 7534  35.773  15.303  11.079
39306W        W 7535   2.415  30.286  14.284
39307W        W 7536  28.884  32.130   0.714
39308W        W 7537  18.273  34.748   5.310
39309W        W 7538  15.701   9.696  13.737
39310W        W 7539  24.414  31.635   0.926
39311W        W 7540  12.607   5.277   4.531
39312W        W 7541  44.847   1.720   2.364
39313W        W 7542  34.906  19.541  13.489
39314W        W 7543  40.394  14.402  11.129
39315W        W 7544  33.094  34.486   0.509
39316W        W 7545   1.508   1.860  13.515
39317W        W 7546  40.564  17.598   0.896
39318W        W 7547  12.687  22.966  14.584
39319W        W 7548   4.533  31.698  14.617
39320W        W 7549  33.608  38.643   5.107
39321W        W 7550  38.774  23.153   2.320
39322W        W 7551  25.164  32.454   4.541
39323W        W 7552  44.234  38.594  12.872
39324W        W 7553   8.300  39.952   1.667
39325W        W 7554   7.252  28.705  11.644
39326W        W 7555  39.005  18.820   0.826
39327W        W 7556   0.334  40.287  11.706
39328W        W 7557  30.068  30.028  14.706
39329W        W 7558  29.231  15.285  12.797
39330W        W 7559   9.845  41.568   1.704
39331W        W 7560  32.388   1.352   4.633
39332W        W 7561  16.175  37.390   1.899
39333W        W 7562  11.613  25.081   0.349
39334W        W 7563  38.964  40.559   5.099
39335W        W 7564  13.549  25.623  10.358
39336W        W 7565   3.248  30.461  13.022
39337W        W 7566   4.741  37.385   2.788
39338W        W 7567   4.504  12.737  13.963
39339W        W 7568  38.340   2.802   0.877
39340W        W 7569  27.495  14.090  14.290
39341W        W 7570   3.725  44.053  14.391
39342W        W 7571   8.241  21.632  12.231
39343W        W 7572  40.597  24.939  11.651
39344W        W 7573  13.778  37.654   2.085
39345W        W 7574  19.207  41.964  14.854
39346W        W 7575  37.386  38.963  11.220
39347W        W 7576  36.782  16.137  11.970
39348W        W 7577  31.124  31.832   2.777
39349W        W 7578  26.928  13.642  13.134
39350W        W 7579  28.172  15.915   4.537
39351W        W 7580  35.339  10.378  14.675
39352W        W 7581  18.730  25.900   0.819
39353W        W 7582   6.967  14.891   1.379
39354W        W 7583  31.640  18.749   4.084
39355W        W 7584  13.547  32.548   0.594
39356W        W 7585  44.970  22.756   2.849
39357W        W 7586  22.094   0.653  13.873
39358W        W 7587  28.130  22.609   2.404
39359W        W 7588  41.429   5.000   1.858
39360W        W 7589  20.095  35.544  12.459
39361W        W 7590  32.883  43.527   3.261
39362W        W 7591  20.963  24.489  11.613
39363W        W 7592  32.873  14.784  12.022
39364W        W 7593  30.931  43.406  14.535
39365W        W 7594  32.659  34.413  13.107
39366W        W 7595  15.418  23.508   4.576
39367W        W 7596  20.093  18.559  12.193
39368W        W 7597   7.322  10.851   4.383
39369W        W 7598  28.405  33.416   1.475
39370W        W 7599  25.592  37.280   3.287
39371W        W 7600  41.568  31.908   4.982
39372W        W 7601  24.953   1.019  12.966
39373W        W 7602  12.590   6.765   0.987
39374W        W 7603   0.472   4.650   0.136
39375W        W 7604  34.396  37.983   3.236
39376W        W 7605  15.694   3.642  13.540
39377W        W 7606  18.141   0.997   2.656
39378W        W 7607  29.684  23.768   4.143
39379W        W 7608   1.738  14.644   4.660
39380W        W 7609   6.785   3.687   3.828
39381W        W 7610  25.586   9.842  14.854
39382W        W 7611  17.726  22.753   4.524
39383W        W 7612  31.916   9.716  13.918
39384W        W 7613   7.975  25.691   0.374
39385W        W 7614  11.194  38.768   1.810
39386W        W 7615  32.554  12.062  14.860
39387W        W 7616  22.002  11.341  11.043
39388W        W 7617  33.456   8.386  12.545
39389W        W 7618   8.737  32.254  12.416
39390W        W 7619  31.551   6.660  10.747
39391W        W 7620  25.032  23.837  13.110
39392W        W 7621  20.704   2.389  14.517
39393W        W 7622  20.578  33.926   2.363
39394W        W 7623  25.180  43.185  11.823
39395W        W 7624  41.829  10.756   4.181
39396W        W 7625  44.709  17.545  14.495
39397W        W 7626  37.599  39.369   4.188
39398W        W 7627   7.898  17.519  12.982
39399W        W 7628  44.912  38.794   0.513
39400W        W 7629  15.982  40.893   1.193
39401W        W 7630   8.118  14.156  13.115
39402W        W 7631  15.864  19.863   4.239
39403W        W 7632   3.292  16.196  14.614
39404W        W 7633   3.913  29.677  11.731
39405W        W 7634  22.595  31.865  13.359
39406W        W 7635  18.498  14.056  12.026
39407W        W 7636  34.450  32.717  14.947
39408W        W 7637  35.466  41.533   4.594
39409W        W 7638  43.235   4.828   1.473
39410W        W 7639  31.540  18.563  11.657
39411W        W 7640  21.626   6.399   1.434
39412W        W 7641  28.433   1.284  11.083
39413W        W 7642   7.383  12.143   4.564
39414W        W 7643  44.481   7.341   1.744
39415W        W 7644   8.052   2.998  11.203
39416W        W 7645  14.413   5.438  10.644
39417W        W 7646  32.134  23.180   4.654
39418W        W 7647  33.077  31.476  11.143
39419W        W 7648  13.245  26.048   3.232
39420W        W 7649  10.160  20.764   0.717
39421W        W 7650  34.879  24.064   4.581
39422W        W 7651  23.494  39.284   4.397
39423W        W 7652  43.915  26.524  12.167
39424W        W 7653  12.820  44.299  14.102
39425W        W 7654  23.590  21.506  11.087
39426W        W 7655  29.495  35.626  11.635
39427W        W 7656  35.819  35.576  10.694
39428W        W 7657   2.794  44.045  11.079
39429W        W 7658  42.561  28.470  10.715
39430W        W 7659   8.190  25.635  12.142
39431W        W 7660   2.776   8.739   0.341
39432W        W 7661  44.960   5.541  11.072
39433W        W 7662  23.740   1.147   4.628
39434W        W 7663   5.236  11.381  12.978
39435W        W 7664  19.371  28.214   2.676
39436W        W 7665  40.818  20.613  14.803
39437W        W 7666   6.450   3.750   2.390
39438W        W 7667   0.498  22.460  13.470
39439W        W 7668   1.408  13.193   1.401
39440W        W 7669   4.748  31.674   0.964
39441W        W 7670  24.140   3.791  12.988
39442W        W 7671  10.671   0.381  14.353
39443W        W 7672  42.286  43.840   1.340
39444W        W 7673   9.286  21.291   2.829
39445W        W 7674   0.415  37.141  12.551
39446W        W 7675  31.618  22.758   5.011
39447W        W 7676  22.690  37.425  10.222
39448W        W 7677  16.096  43.788   1.731
39449W        W 7678  42.779  25.955   1.470
39450W        W 7679  38.440   1.911   4.117
39451W        W 7680  21.086  41.239  13.872
39452W        W 7681  19.672   3.916   1.239
39453W        W 7682  24.776  33.129   3.142
39454W        W 7683  33.330  41.936   5.039
39455W        W 7684  24.309  28.882   1.922
39456W        W 7685  28.117  21.691   4.394
39457W        W 7686  15.580  38.727   1.871
39458W        W 7687  33.641  38.530  12.888
39459W        W 7688  37.789  32.022   2.802
39460W        W 7689  35.362  31.463  10.598
39461W        W 7690  38.166  23.217  14.791
39462W        W 7691  24.566  18.707  14.973
39463W        W 7692  15.299  39.502  13.548
39464W        W 7693  29.936  43.094   1.941
39465W        W 7694   9.948  24.043   1.984
39466W        W 7695  24.586  25.026  10.677
39467W        W 7696   5.660  25.111   1.207
39468W        W 7697  15.351  40.488   2.290
39469W        W 7698   0.543  23.484   2.555
39470W        W 7699   9.027  42.401   4.604
39471W        W 7700  43.331  28.505  13.034
39472W        W 7701  23.590   1.115   4.117
39473W        W 7702  18.742  43.072   2.538
39474W        W 7703  31.415   0.228   3.669
39475W        W 7704   2.799  38.311   0.806
39476W        W 7705  14.511   2.983   4.364
39477W        W 7706  38.391  36.854  14.789
39478W        W 7707   3.109  29.898   1.255
39479W        W 7708  19.106  17.577   4.792
39480W        W 7709   9.389  12.436   3.972
39481W        W 7710  35.817   6.625   2.736
39482W        W 7711  35.133  19.703   2.500
39483W        W 7712  30.960  37.513   2.420
39484W        W 7713  41.759  16.394   3.287
39485W        W 7714   8.273  27.128  10.568
39486W        W 7715  38.359  11.300  14.615
39487W        W 7716  17.268   2.840   0.263
39488W        W 7717  31.040  40.257  14.441
39489W        W 7718  33.722  16.836   0.826
39490W        W 7719  32.100  17.273  12.941
39491W        W 7720   3.973   2.874  11.523
39492W        W 7721   7.699  37.815   3.270
39493W        W 7722  15.728  10.916   4.713
39494W        W 7723   3.930  18.891  10.901
39495W        W 7724  28.538  40.342   1.996
39496W        W 7725  10.603  10.910   0.285
39497W        W 7726   5.285  18.428   0.249
39498W        W 7727  40.723  27.757  11.193
39499W        W 7728  28.042   3.619  11.566
39500W        W 7729  43.388  43.555  11.099
39501W        W 7730  33.312   5.364  14.392
39502W        W 7731  38.380  11.819  12.810
39503W        W 7732  14.537   6.503  12.857
39504W        W 7733  28.910  34.546   3.717
39505W        W 7734  18.054  20.487   2.465
39506W        W 7735  21.558  42.272   3.774
39507W        W 7736  12.663  38.358  14.969
39508W        W 7737  40.764  44.518  11.347
39509W        W 7738  29.459  16.699   3.263
39510W        W 7739  12.212  30.179   3.151
39511W        W 7740  33.888   1.982   1.703
39512W        W 7741  34.213  32.674  11.203
39513W        W 7742  10.151   6.378  14.470
39514W        W 7743  33.974  38.100   3.802
39515W        W 7744  38.055  29.187   3.722
39516W        W 7745   7.643  15.863  14.850
39517W        W 7746  37.021   0.928  14.275
39518W        W 7747  36.438   2.947  12.670
39519W        W 7748  16.660  27.729   0.775
39520W        W 7749   3.837  32.883  13.395
39521W        W 7750   0.910  23.560   2.921
39522W        W 7751  41.754  17.401   3.352
39523W        W 7752   0.313  35.326   0.767
39524W        W 7753  25.924  33.463   0.003
39525W        W 7754   4.479   1.984  13.440
39526W        W 7755   1.798   0.003   0.812
39527W        W 7756  11.189   5.386   1.112
39528W        W 7757   1.364   5.839  14.468
39529W        W 7758  25.118   2.897  10.560
39530W        W 7759  22.669  28.181   5.002
39531W        W 7760  26.425   4.969   2.390
39532W        W 7761  18.176  13.872   1.098
39533W        W 7762  22.225  21.437   3.261
39534W        W 7763  20.726  30.174  10.646
39535W        W 7764  10.432  44.393  14.510
39536W        W 7765   7.667   1.980   2.819
39537W        W 7766   1.475  34.931   0.256
39538W        W 7767  15.596   6.427  10.679
39539W        W 7768  41.816  37.441   4.455
39540W        W 7769   4.925  25.978  12.832
39541W        W 7770   1.881   6.888   4.200
39542W        W 7771  34.883  10.264   5.172
39543W        W 7772   8.291  18.462  12.098
39544W        W 7773  26.168  37.838  13.921
39545W        W 7774  39.127  44.381  14.487
39546W        W 7775  18.339  29.975   4.068
39547W        W 7776  18.259  22.600  10.394
39548W        W 7777  31.617  40.069   1.311
39549W        W 7778  37.255  18.976   3.220
39550W        W 7779   0.027   8.975  13.473
39551W        W 7780  35.452  27.577   3.194
39552W        W 7781  28.859  16.040  11.698
39553W        W 7782  31.111   4.734   3.009
39554W        W 7783  26.185   6.750   2.069
39555W        W 7784  32.651  30.482   3.454
39556W        W 7785  29.608  42.601  14.354
39557W        W 7786  15.709   8.633   2.760
39558W        W 7787  31.086   3.763  11.613
39559W        W 7788  43.289  32.067  11.342
39560W        W 7789  37.254  10.111  11.440
39561W        W 7790  44.030  41.903   3.027
39562W        W 7791   8.356  25.489  10.718
39563W        W 7792  24.302  37.651  13.771
39564W        W 7793  21.160  41.949   3.657
39565W        W 7794  30.098   4.888  13.317
39566W        W 7795   1.973   5.717  12.793
39567W        W 7796  39.412   2.909  12.916
39568W        W 7797  14.558  26.010  13.364
39569W        W 7798  42.004  42.558  14.883
39570W        W 7799   6.732  44.133   1.809
39571W        W 7800  36.830  15.774   0.351
39572W        W 7801  42.991  16.367  14.714
39573W        W 7802   1.302   8.419   3.769
39574W        W 7803  26.688  15.320  13.500
39575W        W 7804   8.318  10.251  13.260
39576W        W 7805   9.343  19.096   1.958
39577W        W 7806  16.809  22.467  11.107
39578W        W 7807   3.737  15.255   4.774
39579W        W 7808  43.162   6.347  13.774
39580W        W 7809  16.483  38.955   1.461
39581W        W 7810  14.109  42.999   4.947
39582W        W 7811   1.884  14.610   2.776
39583W        W 7812  32.118  20.188  12.657
39584W        W 7813  24.068  34.555  13.434
39585W        W 7814  37.430  41.292   1.269
39586W        W 7815  36.753   4.009   4.650
39587W        W 7816   6.876  13.849   1.702
39588W        W 7817   0.205  41.770   2.439
39589W        W 7818   3.640  44.067  13.482
39590W        W 7819  40.081  21.067  13.040
39591W        W 7820  18.115  23.564  13.896
39592W        W 7821   5.799  11.145  11.000
39593W        W 7822  44.712  14.235   1.309
39594W        W 7823   0.305  36.049  14.409
39595W        W 7824  40.293   3.388  14.403
39596W        W 7825  10.452  15.628   9.791
39597W        W 7826   2.780  31.044   4.708
39598W        W 7827  27.399  10.143  13.911
39599W        W 7828  15.472  40.572  10.633
39600W        W 7829  11.381  40.012  14.893
39601W        W 7830  19.157  11.735  11.185
39602W        W 7831  28.056   4.958  11.651
39603W        W 7832  14.144  32.548  14.738
39604W        W 7833  13.630  29.907   2.995
39605W        W 7834  43.600  14.308   2.201
39606W        W 7835  39.584  35.429  10.504
39607W        W 7836   0.270  20.691  14.878
39608W        W 7837   6.359  35.323   0.746
39609W        W 7838  14.600  44.043  10.716
39610W        W 7839  39.970  36.362  12.487
39611W        W 7840  12.069  41.388  10.724
39612W        W 7841  20.824  32.728   1.179
39613W        W 7842   2.805  30.016  13.941
39614W        W 7843   9.137  14.303  13.038
39615W        W 7844  12.719  19.061  10.459
39616W        W 7845   9.703  27.730   1.305
39617W        W 7846  43.343  31.361   2.222
39618W        W 7847  13.479  28.881  13.397
39619W        W 7848  40.812  30.034  12.122
39620W        W 7849   7.757   4.392   3.231
39621W        W 7850  13.720   5.284  14.248
39622W        W 7851  44.089  22.447  13.313
39623W        W 7852  36.833   8.349  12.352
39624W        W 7853  42.954  36.230   4.716
39625W        W 7854  14.680   8.729  13.845
39626W        W 7855   2.015  20.989  11.865
39627W        W 7856  13.197  42.222   4.681
39628W        W 7857  30.367  41.339   0.882
39629W        W 7858  12.434  39.173  11.397
39630W        W 7859  32.993  13.579   1.315
39631W        W 7860   4.548  34.383   0.261
39632W        W 7861  22.271  29.720  11.128
39633W        W 7862  12.916  38.443   2.288
39634W        W 7863  27.422  36.026   0.360
39635W        W 7864   4.351  17.223   2.883
39636W        W 7865  23.201  14.563  12.855
39637W        W 7866  29.590  39.827   2.858
39638W        W 7867  18.018   1.308   1.303
39639W        W 7868  12.524  16.684  11.445
39640W        W 7869  25.852  27.040  13.771
39641W        W 7870   8.877  18.129  14.389
39642W        W 7871   2.907  20.123  12.151
39643W        W 7872  29.612  23.647  14.909
39644W        W 7873  41.808  25.179  12.905
39645W        W 7874  27.511  11.340  10.645
39646W        W 7875  40.180  12.804   0.936
39647W        W 7876  28.964  38.495   3.844
39648W        W 7877  23.528  20.387   1.343
39649W        W 7878  38.534  11.318  13.002
39650W        W 7879  17.041  22.496   4.199
39651W        W 7880   3.268  30.066  14.216
39652W        W 7881  16.758  42.401   1.631
39653W        W 7882   1.694  36.220   2.527
39654W        W 7883  26.127  23.310  11.624
39655W        W 7884  14.904  10.123   4.437
39656W        W 7885  43.512  37.001  11.127
39657W        W 7886   2.452  33.086   1.507
39658W        W 7887  24.436  42.478  10.708
39659W        W 7888   2.824  25.776  13.690
39660W        W 7889  21.077  26.944   0.246
39661W        W 7890  43.919   2.235  12.954
39662W        W 7891  26.207  24.564   1.172
39663W        W 7892  26.012  18.869  11.080
39664W        W 7893  24.950  29.043   1.389
39665W        W 7894  42.754  37.952   1.706
39666W        W 7895  41.284  40.790  11.912
39667W        W 7896  33.641   1.650   3.996
39668W        W 7897  17.303  12.515  12.438
39669W        W 7898  30.968  20.314  13.556
39670W        W 7899  39.450   0.225  13.892
39671W        W 7900  43.281  13.198   3.904
39672W        W 7901  40.591  15.169  11.637
39673W        W 7902  19.000   1.956   3.156
39674W        W 7903  25.287  14.171  11.551
39675W        W 7904  12.778   8.982   4.810
39676W        W 7905  35.105  42.565   1.671
39677W        W 7906  36.483  10.113  14.457
39678W        W 7907  30.091  27.921  11.130
39679W        W 7908   5.218  42.362   2.782
39680W        W 7909  14.647  41.751  12.459
39681W        W 7910  24.755  31.624   3.179
39682W        W 7911  29.790  10.804   4.111
39683W        W 7912  38.361  38.394   3.513
39684W        W 7913   6.384   2.266  13.068
39685W        W 7914  31.416  26.989   0.308
39686W        W 7915  26.057  17.353  11.195
39687W        W 7916   9.273  43.402  11.111
39688W        W 7917  35.881   4.961   4.216
39689W        W 7918  38.617  18.130   0.762
39690W        W 7919  35.984  31.895  11.854
39691W        W 7920  33.959  13.956  13.402
39692W        W 7921  15.314  36.224   2.274
39693W        W 7922  18.570  27.903  13.342
39694W        W 7923   2.449  35.085   3.140
39695W        W 7924  38.459  32.531   2.599
39696W        W 7925  43.279  26.627  11.477
39697W        W 7926   9.234   7.187  10.429
39698W        W 7927  44.108   3.922   1.842
39699W        W 7928  21.235  31.762   1.327
39700W        W 7929  35.019   2.874   0.365
39701W        W 7930  41.533  30.820   0.373
39702W        W 7931   3.142  12.177  14.908
39703W        W 7932  32.095  16.757  12.992
39704W        W 7933   7.785   6.732  13.862
39705W        W 7934  25.724  37.577  12.167
39706W        W 7935  18.306   6.347   3.261
39707W        W 7936  32.149  39.316   3.825
39708W        W 7937  37.921   3.808   0.868
39709W        W 7938  38.324  28.936   0.975
39710W        W 7939  21.742  38.800  13.417
39711W        W 7940  43.952  12.653  12.966
39712W        W 7941  25.439   5.429   3.293
39713W        W 7942  42.301  23.287   1.279
39714W        W 7943  17.123  30.716   5.018
39715W        W 7944  41.989  26.071   4.400
39716W        W 7945  10.755   2.495  14.504
39717W        W 7946  10.461  23.123  13.783
39718W        W 7947  37.863   7.813   3.153
39719W        W 7948  26.103   5.774  12.462
39720W        W 7949  14.654  18.536  10.664
39721W        W 7950  37.414  36.946   4.383
39722W        W 7951   5.456  11.652   2.201
39723W        W 7952  18.296  38.829  14.360
39724W        W 7953  10.643  40.103   1.405
39725W        W 7954  37.765   4.238  13.968
39726W        W 7955  43.492   0.931  12.630
39727W        W 7956  31.143  26.934  10.752
39728W        W 7957  12.943  17.010   3.278
39729W        W 7958  12.349   0.245  10.600
39730W        W 7959  28.608  16.626  14.706
39731W        W 7960  38.853   9.079  10.803
39732W        W 7961  15.017  17.495  13.969
39733W        W 7962  10.811  21.993  12.841
39734W        W 7963  37.906  39.802  14.374
39735W        W 7964   1.259  28.918  12.952
39736W        W 7965  13.798  31.411  13.528
39737W        W 7966  28.570  34.547  11.152
39738W        W 7967  14.528  30.354  14.211
39739W        W 7968  41.517  36.410  13.031
39740W        W 7969   5.263   3.737  11.887
39741W        W 7970  15.240  15.553  14.826
39742W        W 7971  43.789  13.647   3.743
39743W        W 7972  12.939  42.764  11.589
39744W        W 7973  38.136  11.882   0.844
39745W        W 7974  40.152  27.142   2.387
39746W        W 7975  25.020   1.904   4.030
39747W        W 7976   8.342   6.701   2.194
39748W        W 7977   0.868  23.646   3.932
39749W        W 7978  13.222  20.157  10.828
39750W        W 7979   7.446   6.723   2.273
39751W        W 7980  29.330  26.938  12.789
39752W        W 7981  14.516  43.012  13.794
39753W        W 7982  38.436   3.480   4.118
39754W        W 7983  12.327  34.417   0.900
39755W        W 7984  22.773   3.520   4.054
39756W        W 7985  18.249   9.383   2.817
39757W        W 7986   2.391  37.576   1.112
39758W        W 7987   1.511   6.601  11.588
39759W        W 7988   5.440  41.380   1.354
39760W        W 7989   4.426  31.174   1.770
39761W        W 7990  23.304  16.258   1.168
39762W        W 7991  20.241  42.262  12.137
39763W        W 7992  33.970   8.453  14.674
39764W        W 7993  24.157  27.031  14.408
39765W        W 7994  28.874  18.241  14.098
39766W        W 7995  18.172  37.360   1.727
39767W        W 7996  25.252  42.804   0.622
39768W        W 7997  12.885   3.407  12.643
39769W        W 7998  25.991  41.481   3.247
39770W        W 7999  39.356  27.836   3.194
39771W        W 8000  11.730   0.302  13.417
39772W        W 8001   1.897   9.799   3.679
39773W        W 8002  27.391  24.480  14.357
39774W        W 8003   4.238   7.532   3.673
39775W        W 8004  20.152  14.220   3.628
39776W        W 8005   7.360  20.512   1.295
39777W        W 8006  13.283  44.771  13.478
39778W        W 8007  19.365  32.635   3.220
39779W        W 8008  11.308   4.417  13.010
39780W        W 8009  36.419  14.610   3.646
39781W        W 8010  34.058   2.410   4.284
39782W        W 8011   5.287  35.720   2.695
39783W        W 8012  34.590  16.757   9.822
39784W        W 8013   7.889   5.390   1.272
39785W        W 8014   8.708   8.759   3.308
39786W        W 8015  14.358  13.310   3.862
39787W        W 8016  26.204   7.516   2.575
39788W        W 8017  31.939  39.599  11.642
39789W        W 8018   2.832  25.984   3.229
39790W        W 8019  21.527  22.145   2.383
39791W        W 8020  34.341  26.091  13.276
39792W        W 8021  37.908  17.657   0.512
39793W        W 8022  16.089  44.299  13.876
39794W        W 8023  21.526  16.578  10.365
39795W        W 8024  29.029  20.018   2.709
39796W        W 8025  43.855  20.242  13.394
39797W        W 8026   7.725  44.541  13.034
39798W        W 8027  17.845  37.399  11.570
39799W        W 8028  38.548  24.262   1.896
39800W        W 8029  33.823  40.233   2.326
39801W        W 8030  26.513   9.364  11.644
39802W        W 8031  39.540  41.398  14.493
39803W        W 8032  28.367  16.364   4.711
39804W        W 8033  22.541   0.891  11.999
39805W        W 8034   5.515  11.894  12.943
39806W        W 8035   4.503   6.684  14.302
39807W        W 8036  25.550  27.451  14.590
39808W        W 8037  42.471  24.935  14.877
39809W        W 8038   6.751  10.065   2.358
39810W        W 8039  44.967  23.989   0.343
39811W        W 8040  28.690  18.235   0.487
39812W        W 8041  34.981  23.060   2.175
39813W        W 8042  11.014  36.289   3.799
39814W        W 8043  20.193  35.380  14.405
39815W        W 8044  29.071   3.197  13.379
39816W        W 8045   3.057  34.123   0.002
39817W        W 8046  11.775   8.214  13.811
39818W        W 8047   0.674  29.960  12.149
39819W        W 8048  32.804   0.331   1.836
39820W        W 8049   0.471   0.979   3.588
39821W        W 8050  16.865  42.464  12.073
39822W        W 8051  15.710  12.270  10.893
39823W        W 8052  39.582  16.309   2.698
39824W        W 8053  13.782   5.945   3.782
39825W        W 8054  28.026   7.892  11.603
39826W        W 8055  42.427  43.014  12.581
39827W        W 8056  27.216  29.548  12.415
39828W        W 8057  28.614  37.552  13.747
39829W        W 8058  29.591  31.315   2.285
39830W        W 8059  12.078  18.752   3.037
39831W        W 8060   6.355  19.323   2.367
39832W        W 8061  19.159  27.662  12.595
39833W        W 8062  32.499  28.322   4.809
39834W        W 8063  31.559   5.258  12.553
39835W        W 8064  43.667  23.214  14.249
39836W        W 8065  31.460  21.083   2.465
39837W        W 8066  20.934  30.969  12.016
39838W        W 8067  32.612  36.370  10.690
39839W        W 8068  19.431  12.782   0.513
39840W        W 8069  20.696  17.084   4.674
39841W        W 8070  18.053  15.655   4.695
39842W        W 8071   9.860  26.593   2.234
39843W        W 8072  20.490  37.584  13.909
39844W        W 8073  18.196  27.316   3.613
39845W        W 8074  44.406  37.780   1.714
39846W        W 8075   4.645  21.642   0.452
39847W        W 8076   3.331   6.224  11.378
39848W        W 8077  36.916  42.300  10.864
39849W        W 8078  32.866   4.836  13.499
39850W        W 8079  21.016  19.697   4.228
39851W        W 8080  22.295   4.548   0.382
39852W        W 8081   1.465  41.730   1.209
39853W        W 8082  29.101   7.189   2.970
39854W        W 8083  11.579  24.245  11.187
39855W        W 8084  43.236  13.063   1.716
39856W        W 8085  12.309  23.748   4.496
39857W        W 8086  27.504  10.759  14.181
39858W        W 8087  43.072   7.226   1.831
39859W        W 8088   6.086  29.633   0.928
39860W        W 8089   6.429  15.193   3.563
39861W        W 8090  36.053   8.592  12.465
39862W        W 8091  29.596  37.813  12.306
39863W        W 8092   2.418  37.557  11.514
39864W        W 8093  26.033  19.324   2.206
39865W        W 8094  17.795  40.380   2.260
39866W        W 8095   9.202  12.566  11.953
39867W        W 8096  43.671  12.168  13.462
39868W        W 8097  43.551  33.110  12.033
39869W        W 8098  34.589   3.352  12.910
39870W        W 8099  22.116  29.163   0.450
39871W        W 8100  44.828  23.119   1.246
39872W        W 8101   5.819  38.285   4.089
39873W        W 8102  29.585  19.182   4.458
39874W        W 8103  29.644  22.295   1.677
39875W        W 8104   3.799  27.052   0.836
39876W        W 8105  28.154  40.646   1.829
39877W        W 8106  28.463  27.440  11.670
39878W        W 8107  20.250  40.303   2.239
39879W        W 8108  28.206  13.419  12.314
39880W        W 8109  43.537  24.255  11.317
39881W        W 8110   8.552   9.721  14.846
39882W        W 8111  11.963  33.075   0.205
39883W        W 8112   6.307  25.460   2.216
39884W        W 8113  39.387  24.585  14.487
39885W        W 8114   3.847  10.239  12.615
39886W        W 8115  15.525  37.741   4.036
39887W        W 8116   2.498  40.991  12.381
39888W        W 8117  20.098   3.019   3.083
39889W        W 8118  26.182  20.533  12.298
39890W        W 8119  12.363  12.702  10.058
39891W        W 8120  42.889  36.558  13.503
39892W        W 8121  19.260   4.459  11.181
39893W        W 8122  39.389  39.479  10.619
39894W        W 8123   2.331   6.951  10.595
39895W        W 8124  41.963  28.099   0.378
39896W        W 8125  37.927  18.664  14.548
39897W        W 8126  14.204  30.115  12.109
39898W        W 8127   4.575   4.421   2.651
39899W        W 8128  30.970  25.720  13.398
39900W        W 8129  12.741  15.342  13.115
39901W        W 8130  42.556  22.258   1.487
39902W        W 8131   0.975   5.425   1.595
39903W        W 8132   0.751  30.163   2.784
39904W        W 8133  35.785  17.656   1.999
39905W        W 8134   4.266   2.766   4.674
39906W        W 8135  25.938   8.576   1.505
39907W        W 8136   5.679  15.807  14.285
39908W        W 8137  32.115  39.583  12.491
39909W        W 8138  43.242  29.138   0.988
39910W        W 8139  37.757   1.459   3.721
39911W        W 8140  16.878  38.014   0.416
39912W        W 8141  35.983  26.081   2.785
39913W        W 8142  43.383  43.448  13.107
39914W        W 8143  43.455  39.299  13.156
39915W        W 8144  20.016  16.475  14.986
39916W        W 8145  15.808  26.892  13.938
39917W        W 8146  17.017   4.571   2.752
39918W        W 8147  42.486  28.970   1.913
39919W        W 8148  16.333   1.026  12.014
39920W        W 8149  31.046  32.006   4.111
39921W        W 8150  43.578  14.222  14.910
39922W        W 8151   3.293   1.186   0.932
39923W        W 8152  22.005  25.462  12.851
39924W        W 8153  42.701   2.085  11.961
39925W        W 8154  28.558  42.894   1.803
39926W        W 8155  32.570  40.747   4.541
39927W        W 8156   8.660  12.776  14.960
39928W        W 8157  29.742  16.845   2.799
39929W        W 8158   7.208  40.418   3.786
39930W        W 8159   5.801  26.460  11.999
39931W        W 8160  19.729  37.952  13.737
39932W        W 8161  13.086  36.926   0.003
39933W        W 8162  28.854   0.907  13.467
39934W        W 8163  22.602  36.857  12.615
39935W        W 8164   7.744  41.790  14.035
39936W        W 8165  18.563  15.129  10.768
39937W        W 8166  40.242  37.056  12.633
39938W        W 8167  40.259  19.092   4.084
39939W        W 8168  41.347  15.213   1.852
39940W        W 8169  32.620  22.549  10.085
39941W        W 8170  30.418  15.122  10.471
39942W        W 8171   8.298  24.750   1.787
39943W        W 8172  13.105  30.618   2.435
39944W        W 8173  23.038  39.735   2.181
39945W        W 8174  26.306  34.447  11.939
39946W        W 8175  31.028  13.930   0.452
39947W        W 8176  22.999  39.242   2.268
39948W        W 8177  26.048  38.948   2.077
39949W        W 8178  11.596  23.311  13.242
39950W        W 8179  26.557  28.580   4.511
39951W        W 8180   9.710  28.106  12.597
39952W        W 8181  23.272   4.184   0.480
39953W        W 8182  43.433  23.982  12.811
39954W        W 8183  32.153  13.238   4.119
39955W        W 8184  20.500  13.090   3.360
39956W        W 8185  21.961  12.080  10.672
39957W        W 8186  14.693  40.772   2.789
39958W        W 8187  37.533  34.812   4.144
39959W        W 8188  11.363   7.710   4.294
39960W        W 8189  41.846  27.680  12.162
39961W        W 8190  14.264  23.272   4.143
39962W        W 8191  23.241  27.727  10.861
39963W        W 8192  44.918  14.540   2.694
39964W        W 8193  26.720   6.307   4.600
39965W        W 8194  26.660  19.519  14.987
39966W        W 8195  37.032   4.171   3.278
39967W        W 8196  32.518   6.734   4.953
39968W        W 8197  41.089  43.397  14.927
39969W        W 8198  16.842  41.777   0.027
39970W        W 8199  43.315  42.897  12.477
39971W        W 8200  21.786  10.207  10.569
39972W        W 8201  43.847  18.534  10.573
39973W        W 8202  32.813   8.251   4.547
39974W        W 8203  24.048  25.037  11.473
39975W        W 8204  32.681   7.775   0.474
39976W        W 8205  29.139  34.193  11.925
39977W        W 8206  14.573  14.094   1.319
39978W        W 8207  10.550  24.651   2.946
39979W        W 8208  22.204   3.394   0.005
39980W        W 8209   7.191  19.636  10.784
39981W        W 8210  26.083   9.809   0.737
39982W        W 8211   2.986  30.486  14.270
39983W        W 8212   1.771   5.696  11.945
39984W        W 8213  34.881  23.764   3.678
39985W        W 8214  38.612  34.758   2.621
39986W        W 8215  26.123  24.055   4.085
39987W        W 8216  38.349   0.974  14.979
39988W        W 8217  27.599  16.842   2.134
39989W        W 8218  25.910  16.250   3.184
39990W        W 8219   5.303   1.444   3.120
39991W        W 8220  25.842  37.112   1.297
39992W        W 8221  12.047  41.838  11.116
39993W        W 8222  42.069  25.826  10.988
39994W        W 8223  16.476  24.640   3.447
39995W        W 8224  42.764  23.099   0.593
39996W        W 8225  30.917  28.544  12.923
39997W        W 8226  26.384  10.729   1.001
39998W        W 8227  29.982  28.061   2.351
39999W        W 8228  29.600  10.775  14.771
40000W        W 8229  10.646  32.029   1.922
40001W        W 8230  40.543  20.648   3.254
40002W        W 8231  13.675   7.672  11.258
40003W        W 8232  22.077  19.302  14.367
40004W        W 8233   7.797   5.424   0.212
40005W        W 8234   7.888  17.154   2.359
40006W        W 8235  38.894  28.128  10.299
40007W        W 8236  29.180  41.662  13.815
40008W        W 8237   5.684  14.583   1.824
40009W        W 8238  31.930  17.766  13.773
40010W        W 8239  11.181   8.374   4.500
40011W        W 8240  33.455  29.112   3.607
40012W        W 8241  32.155  14.034   0.686
40013W        W 8242  32.556  32.885  10.902
40014W        W 8243  29.746  24.007  14.544
40015W        W 8244  25.480  36.942   0.387
40016W        W 8245  14.822  43.225   2.524
40017W        W 8246  20.097  44.433   3.136
40018W        W 8247  14.763  12.080  14.717
40019W        W 8248  11.287  33.249   5.016
40020W        W 8249  43.273  14.764  12.502
40021W        W 8250  18.005  13.537  11.665
40022W        W 8251   2.655  38.525  14.713
40023W        W 8252  12.244  23.630   2.321
40024W        W 8253  10.786  32.827   1.273
40025W        W 8254  24.968  17.221  14.825
40026W        W 8255  19.819  20.126  13.275
40027W        W 8256  16.102  16.357   2.288
40028W        W 8257  40.287  36.110   0.323
40029W        W 8258   6.138  12.868  14.977
40030W        W 8259  32.039  25.023   1.344
40031W        W 8260   9.629  23.860   2.368
40032W        W 8261  35.837  29.675   0.510
40033W        W 8262   9.903  30.683   1.305
40034W        W 8263  11.810  37.075  14.258
40035W        W 8264  20.245  41.603   1.523
40036W        W 8265  13.689  43.802   2.263
40037W        W 8266   9.564   4.738  11.548
40038W        W 8267  17.267   3.708   3.583
40039W        W 8268   2.054   3.744  14.336
40040W        W 8269  33.403  37.345   3.681
40041W        W 8270   2.440   4.626  13.408
40042W        W 8271  40.743   5.249   0.401
40043W        W 8272  34.863  43.221  13.428
40044W        W 8273  10.903  31.934   4.657
40045W        W 8274  27.973  11.058  10.550
40046W        W 8275  42.310  21.753  10.625
40047W        W 8276  21.116  20.082   1.499
40048W        W 8277   1.448  33.129  12.423
40049W        W 8278  15.377  31.791  14.636
40050W        W 8279  17.619  32.020   3.054
40051W        W 8280   7.518  35.946   4.509
40052W        W 8281  33.942  29.399  12.364
40053W        W 8282  29.325   8.247   5.102
40054W        W 8283  27.133  20.081  13.916
40055W        W 8284  10.229  31.582  13.112
40056W        W 8285  41.541  20.118  12.762
40057W        W 8286  42.499  35.279   1.824
40058W        W 8287   9.239  24.559   1.798
40059W        W 8288   3.470  21.321  13.049
40060W        W 8289   4.747  43.797  14.901
40061W        W 8290  19.771  13.183   0.465
40062W        W 8291  18.803  28.650   1.369
40063W        W 8292  35.452   1.270   4.165
40064W        W 8293  32.441  33.649   1.456
40065W        W 8294   1.007  33.405   1.810
40066W        W 8295  29.723  39.408  13.399
40067W        W 8296   7.662  22.033   4.126
40068W        W 8297   5.510  22.979   4.245
40069W        W 8298   4.466  44.347  12.455
40070W        W 8299  44.748   7.412   3.998
40071W        W 8300  34.446  43.625   4.513
40072W        W 8301  14.354  40.487  10.713
40073W        W 8302   3.790  32.490  14.575
40074W        W 8303   3.515  26.860   1.622
40075W        W 8304  29.791   5.250   2.956
40076W        W 8305  28.432   0.480   0.536
40077W        W 8306  33.319   0.323   1.776
40078W        W 8307  18.062   1.837  13.260
40079W        W 8308  23.702  14.615   2.813
40080W        W 8309   5.386   4.244  14.810
40081W        W 8310  29.876   3.883   0.605
40082W        W 8311   5.811  11.775   4.742
40083W        W 8312  40.522  16.213  12.948
40084W        W 8313  27.468  35.056   2.683
40085W        W 8314   3.227  41.240   4.377
40086W        W 8315  25.114   5.226  12.944
40087W        W 8316  40.686   8.783   4.799
40088W        W 8317   3.216   9.859   0.030
40089W        W 8318  11.494  11.728  14.733
40090W        W 8319  38.214  42.443   3.616
40091W        W 8320  23.462   4.804   1.927
40092W        W 8321  40.514   6.355  13.531
40093W        W 8322   0.680  22.057   1.705
40094W        W 8323  39.726   0.803   3.247
40095W        W 8324  24.211   5.837  13.936
40096W        W 8325   0.222  42.552  12.165
40097W        W 8326  19.505   1.320   2.128
40098W        W 8327  13.645  20.588  12.994
40099W        W 8328  43.515  32.538  14.443
40100W        W 8329   8.219   6.653   0.826
40101W        W 8330  22.529   9.151   2.154
40102W        W 8331   5.852  16.768   3.321
40103W        W 8332  14.303   2.390   0.802
40104W        W 8333  30.740   0.006  12.479
40105W        W 8334  30.873  22.783  13.473
40106W        W 8335  33.129  39.121  11.826
40107W        W 8336  11.846   0.199  12.513
40108W        W 8337  39.367  35.916   3.257
40109W        W 8338  35.055  23.088   4.667
40110W        W 8339  24.108  40.525   0.165
40111W        W 8340  38.028  27.919  10.509
40112W        W 8341   8.684  28.991   0.687
40113W        W 8342   8.201  40.727  14.790
40114W        W 8343  40.955  16.723   1.752
40115W        W 8344   3.282   3.224   0.851
40116W        W 8345  26.476  10.672   0.003
40117W        W 8346   7.202  18.280  13.931
40118W        W 8347  26.175   7.682  13.019
40119W        W 8348  39.487  28.629   3.725
40120W        W 8349  23.708  43.529   0.946
40121W        W 8350  40.129  14.609  14.231
40122W        W 8351  42.102  14.515   0.921
40123W        W 8352  15.453  34.480   0.765
40124W        W 8353  37.010  16.695   0.256
40125W        W 8354  32.301  10.272  14.299
40126W        W 8355   6.940  44.703  13.049
40127W        W 8356   0.766  16.116   0.994
40128W        W 8357  24.716   2.792   3.680
40129W        W 8358  13.275  42.787  14.963
40130W        W 8359  18.838  32.737   0.353
40131W        W 8360  23.940  19.137   3.261
40132W        W 8361  29.396  13.578   4.347
40133W        W 8362  10.416  35.618  11.949
40134W        W 8363  28.170  39.921   0.058
40135W        W 8364  16.672   8.811  12.517
40136W        W 8365  27.445   2.702   3.598
40137W        W 8366  19.771  22.606   1.785
40138W        W 8367   8.152  38.517  12.175
40139W        W 8368  43.997  26.053   1.044
40140W        W 8369  29.744  10.957  12.872
40141W        W 8370  21.848  26.139   3.212
40142W        W 8371   3.966   5.777   3.251
40143W        W 8372  33.954  42.170  14.578
40144W        W 8373  36.008  40.906   4.720
40145W        W 8374  34.412  11.793  11.713
40146W        W 8375  36.428  25.340  11.898
40147W        W 8376   7.016  37.870  11.620
40148W        W 8377  43.066   3.984  12.813
40149W        W 8378  33.483  32.529   3.084
40150W        W 8379  43.050   2.623   1.779
40151W        W 8380  18.573   5.852   3.198
40152W        W 8381  44.248  35.401  14.771
40153W        W 8382  33.903   4.440  13.086
40154W        W 8383   3.972   7.514  11.684
40155W        W 8384   2.926  34.864  11.047
40156W        W 8385  36.053   7.783  13.549
40157W        W 8386  17.808  34.873  14.983
40158W        W 8387  16.699  22.443   9.883
40159W        W 8388   7.074   4.354   0.330
40160W        W 8389  28.900  39.783  12.005
40161W        W 8390  44.853  38.874  14.554
40162W        W 8391  22.980  44.411   2.968
40163W        W 8392  19.116  23.224   2.012
40164W        W 8393  42.438   2.315  13.524
40165W        W 8394   8.755  40.223   0.953
40166W        W 8395  37.184  39.827  12.514
40167W        W 8396  28.100  28.867   3.703
40168W        W 8397  21.154  24.634   1.815
40169W        W 8398  34.582  25.207  11.181
40170W        W 8399  15.041   9.416  12.504
40171W        W 8400   4.962  16.694   4.107
40172W        W 8401  18.741  12.630  13.571
40173W        W 8402  35.480  42.137  11.615
40174W        W 8403  10.086  24.538   3.146
40175W        W 8404  35.595  14.255  11.682
40176W        W 8405   4.652  34.986  12.489
40177W        W 8406   5.487  41.891  10.972
40178W        W 8407  22.740  19.728  13.984
40179W        W 8408  10.360  33.242   2.540
40180W        W 8409  24.210  32.710  10.684
40181W        W 8410  34.177  26.603  12.428
40182W        W 8411  26.314   1.814   0.312
40183W        W 8412  13.665  38.984  11.711
40184W        W 8413  19.044  30.926   2.770
40185W        W 8414   3.395  12.704   4.758
40186W        W 8415  32.677  44.128  12.680
40187W        W 8416  15.211  40.390  13.010
40188W        W 8417  29.578  29.559  11.269
40189W        W 8418  16.611  26.431   2.187
40190W        W 8419  35.460   1.316   2.206
40191W        W 8420  22.225  32.416  14.489
40192W        W 8421   3.869  41.334   0.030
40193W        W 8422   1.936  14.488  14.717
40194W        W 8423  18.616  11.102   0.738
40195W        W 8424  19.230  36.262  12.863
40196W        W 8425  38.504   6.165   4.205
40197W        W 8426  33.382  25.031  11.961
40198W        W 8427  41.232  43.650   2.225
40199W        W 8428  26.107  13.760  10.652
40200W        W 8429   8.244  13.867   0.315
40201W        W 8430  31.022  25.273   1.839
40202W        W 8431   2.320  14.833   0.281
40203W        W 8432  19.678  31.858   4.921
40204W        W 8433  37.285   6.654   2.692
40205W        W 8434  25.543   5.177  12.407
40206W        W 8435  17.254  34.955   3.153
40207W        W 8436  16.119  34.591  14.657
40208W        W 8437  18.347  40.952   2.788
40209W        W 8438   7.328   4.262   3.534
40210W        W 8439  43.802  15.643   0.786
40211W        W 8440   5.400  19.863   1.871
40212W        W 8441   4.741   6.256   2.770
40213W        W 8442  20.134  36.038   4.249
40214W        W 8443  26.937   5.183   1.689
40215W        W 8444  36.007   8.636   2.535
40216W        W 8445  38.404  40.520  13.526
40217W        W 8446  35.360  32.218  14.943
40218W        W 8447  25.881   2.228  11.488
40219W        W 8448   3.035  29.538  14.761
40220W        W 8449  44.784  24.738  13.437
40221W        W 8450   6.869  36.435   3.892
40222W        W 8451  40.961  27.904  14.480
40223W        W 8452  42.250  21.540  14.900
40224W        W 8453  29.235  44.947   2.782
40225W        W 8454  36.660  21.569   2.269
40226W        W 8455   3.888  25.013  10.672
40227W        W 8456  42.401   5.244   3.411
40228W        W 8457  42.817  15.037  12.021
40229W        W 8458   4.189  40.448   2.677
40230W        W 8459  38.610  43.940  11.612
40231W        W 8460  34.121  32.157  13.324
40232W        W 8461  12.881  37.816  10.872
40233W        W 8462  19.054  28.640   3.868
40234W        W 8463  12.705  27.733  13.827
40235W        W 8464   0.738  19.679  13.045
40236W        W 8465  29.604   9.936   0.263
40237W        W 8466  10.430  44.415   0.043
40238W        W 8467  31.860  30.522   1.904
40239W        W 8468  25.038   6.999  11.658
40240W        W 8469   1.712  44.630  10.715
40241W        W 8470  13.876  28.429   1.869
40242W        W 8471   3.160  34.370  10.260
40243W        W 8472  14.310  11.909  12.138
40244W        W 8473  37.461  17.247  12.432
40245W        W 8474  27.499   2.188   0.666
40246W        W 8475  36.944   9.142   2.814
40247W        W 8476  24.092   8.847   1.345
40248W        W 8477  18.274   1.910  10.392
40249W        W 8478  29.830  39.982  12.922
40250W        W 8479  18.906  24.897   0.131
40251W        W 8480  37.880  12.583   2.951
40252W        W 8481  28.107  16.887   1.892
40253W        W 8482  27.728  26.775   9.805
40254W        W 8483  14.041   8.242   1.911
40255W        W 8484  18.784  14.607  12.124
40256W        W 8485   2.916  27.372  12.961
40257W        W 8486  10.263  33.792  11.712
40258W        W 8487  33.446  40.449  11.815
40259W        W 8488   8.872  29.586  14.530
40260W        W 8489  31.111   7.361   0.647
40261W        W 8490  14.150  21.510   2.650
40262W        W 8491  10.808   7.219   1.256
40263W        W 8492  35.472  38.406  10.390
40264W        W 8493   5.750  28.131  14.791
40265W        W 8494   6.746  20.036  13.462
40266W        W 8495  17.424  26.496  10.169
40267W        W 8496  22.168  28.908   0.010
40268W        W 8497  40.409  34.168  13.917
40269W        W 8498   7.503  10.382   3.683
40270W        W 8499  36.277  13.414   3.914
40271W        W 8500   7.289  18.589   1.167
40272W        W 8501  17.359  38.087   4.170
40273W        W 8502  28.214  18.783  12.054
40274W        W 8503  23.488  44.388   2.758
40275W        W 8504  42.705   4.230  14.986
40276W        W 8505  26.734  35.829   0.758
40277W        W 8506  11.829  24.610   0.564
40278W        W 8507   4.821  29.137   0.976
40279W        W 8508   1.594  41.744  11.963
40280W        W 8509   4.690  20.024  12.356
40281W        W 8510   3.448  40.317  11.163
40282W        W 8511  43.585  39.811   1.418
40283W        W 8512  21.134  25.058  12.313
40284W        W 8513   2.717  30.598   2.185
40285W        W 8514  15.898  26.673  11.492
40286W        W 8515  18.646  26.472   4.549
40287W        W 8516  10.756   2.704  11.162
40288W        W 8517  11.274  14.735  14.060
40289W        W 8518  14.185  19.792  13.109
40290W        W 8519  13.713  42.611  11.977
40291W        W 8520  14.788  37.497   1.161
40292W        W 8521   5.682  22.578  10.730
40293W        W 8522  42.392   5.531   1.402
40294W        W 8523  23.865  36.854  12.910
40295W        W 8524  41.880  11.519  12.302
40296W        W 8525   1.240  12.811   2.869
40297W        W 8526  36.632  24.494  14.492
40298W        W 8527  24.259  17.560  13.025
40299W        W 8528  38.293   4.942   3.530
40300W        W 8529  11.819  38.442   4.911
40301W        W 8530  11.835  36.713  13.889
40302W        W 8531  32.994   4.929   2.285
40303W        W 8532  34.813  44.018  13.096
40304W        W 8533  40.410  42.761   4.055
40305W        W 8534  25.258  25.959  13.501
40306W        W 8535  13.673  18.027   2.152
40307W        W 8536  29.391  19.537   0.831
40308W        W 8537  42.908  11.256   2.636
40309W        W 8538  34.343  18.244  14.095
40310W        W 8539  31.562  39.770   0.766
40311W        W 8540  26.545   4.331  10.972
40312W        W 8541  24.567  19.776  12.825
40313W        W 8542  43.879   7.739   2.939
40314W        W 8543   8.894   8.187  11.158
40315W        W 8544  16.603  19.760  14.874
40316W        W 8545  32.739  43.760  11.724
40317W        W 8546  13.569  29.610  14.515
40318W        W 8547  24.806  13.270  12.092
40319W        W 8548  37.130  11.062   0.947
40320W        W 8549  44.471  21.957   1.275
40321W        W 8550  34.798  21.937   4.095
40322W        W 8551   2.916  38.853  10.383
40323W        W 8552  36.775  21.765  12.043
40324W        W 8553  16.859  18.761   5.069
40325W        W 8554  11.373  39.905   1.967
40326W        W 8555  16.555  24.561   2.857
40327W        W 8556  17.853  35.486   4.750
40328W        W 8557  13.232  23.270   0.443
40329W        W 8558  22.025  44.901   2.163
40330W        W 8559   6.495   6.822   1.657
40331W        W 8560  27.693   5.443  14.447
40332W        W 8561  32.049   0.192   3.168
40333W        W 8562  13.173  41.818  13.540
40334W        W 8563  25.227  37.926   4.734
40335W        W 8564  14.465  20.454   0.031
40336W        W 8565  12.376  38.992  10.921
40337W        W 8566  26.358  12.904   4.014
40338W        W 8567  44.037  26.189   0.031
40339W        W 8568  43.849  19.730  10.340
40340W        W 8569  17.305  28.158   2.269
40341W        W 8570   7.023   7.766  12.883
40342W        W 8571  13.824  43.117  10.231
40343W        W 8572   4.428  29.892   3.754
40344W        W 8573  20.226  42.813  11.182
40345W        W 8574  12.498   2.113  11.749
40346W        W 8575  40.305   7.810  11.491
40347W        W 8576  17.738  27.937  14.954
40348W        W 8577   3.966  24.706  14.374
40349W        W 8578  28.039  14.701   0.925
40350W        W 8579  37.088  27.364   2.154
40351W        W 8580  22.550  38.909   3.629
40352W        W 8581   8.706  11.795  14.942
40353W        W 8582  18.502   9.790  11.098
40354W        W 8583  14.673  21.203  13.868
40355W        W 8584  20.635  35.517   5.785
40356W        W 8585  14.857  38.802  14.793
40357W        W 8586   9.438  18.203   1.245
40358W        W 8587  28.188  44.846   2.804
40359W        W 8588  19.148  21.314   0.894
40360W        W 8589   1.308  31.006  12.883
40361W        W 8590  35.451  22.664   4.046
40362W        W 8591   6.296  14.758  13.366
40363W        W 8592  42.577  34.027  11.635
40364W        W 8593  32.462  11.729   0.839
40365W        W 8594  32.711  25.347  11.486
40366W        W 8595  40.936  41.337   0.838
40367W        W 8596  37.113  16.520   2.078
40368W        W 8597   6.233  23.273   9.771
40369W        W 8598  43.056  36.418  13.022
40370W        W 8599  22.577  39.251  10.263
40371W        W 8600   8.251  14.491  14.203
40372W        W 8601  17.854   8.443   3.991
40373W        W 8602  34.613   0.280  14.928
40374W        W 8603  32.703   4.260   2.902
40375W        W 8604  41.599   9.915   3.719
40376W        W 8605  32.321  23.105  14.770
40377W        W 8606   2.570   7.010   0.329
40378W        W 8607  33.401  31.959   3.642
40379W        W 8608   5.240  16.036  11.403
40380W        W 8609  20.547  25.655  12.528
40381W        W 8610  44.907  37.809   1.589
40382W        W 8611  32.105  22.735   2.536
40383W        W 8612   3.678  21.979   0.235
40384W        W 8613  28.653  43.956   3.611
40385W        W 8614   3.271  18.512  13.418
40386W        W 8615  29.968  10.094  13.040
40387W        W 8616   5.387  39.105   3.062
40388W        W 8617  12.816  22.796  11.004
40389W        W 8618  33.299   1.945   4.558
40390W        W 8619  29.955  19.519  10.332
40391W        W 8620   6.530   0.212  14.446
40392W        W 8621   3.381  22.153   1.918
40393W        W 8622  26.071  17.660  12.603
40394W        W 8623  43.324   5.365   3.309
40395W        W 8624  40.421   2.299  14.429
40396W        W 8625  11.652   6.863  10.650
40397W        W 8626  39.300  31.407  13.091
40398W        W 8627  38.989  25.620  12.995
40399W        W 8628  11.759   0.815  13.307
40400W        W 8629  31.970  44.115  13.781
40401W        W 8630  15.535   0.142   1.820
40402W        W 8631  19.705  23.540   2.195
40403W        W 8632  43.204  41.788  11.134
40404W        W 8633   3.745  30.558   5.180
40405W        W 8634  14.506  31.563   1.427
40406W        W 8635  18.540  19.603  12.634
40407W        W 8636  27.571  39.563   2.665
40408W        W 8637  36.639  37.666   1.492
40409W        W 8638  32.617  31.877  14.336
40410W        W 8639  14.209   6.827  11.639
40411W        W 8640  15.175  18.917  13.937
40412W        W 8641  37.805  20.163   3.361
40413W        W 8642  34.744   4.197  12.828
40414W        W 8643  25.202   8.153   1.064
40415W        W 8644   2.199   9.622  11.565
40416W        W 8645  37.306  35.474  13.115
40417W        W 8646  44.448  16.844  14.308
40418W        W 8647  26.860  36.426   1.815
40419W        W 8648  35.908   5.467  13.079
40420W        W 8649  15.604  14.810   5.008
40421W        W 8650  24.160  10.627  14.534
40422W        W 8651  32.329   3.534   0.449
40423W        W 8652  39.896   3.050   2.905
40424W        W 8653  35.899   9.723  13.039
40425W        W 8654  10.192  13.177  12.615
40426W        W 8655  35.113  19.714   0.039
40427W        W 8656  39.525  26.344  11.170
40428W        W 8657  41.588  30.871  14.368
40429W        W 8658  43.781  24.456  13.464
40430W        W 8659  28.519   2.398  10.536
40431W        W 8660  16.738   2.673   3.829
40432W        W 8661  16.563  42.360  11.653
40433W        W 8662  10.339  42.958   4.588
40434W        W 8663  38.969  19.212   2.660
40435W        W 8664   3.534  20.983   3.533
40436W        W 8665  13.313  44.771   3.393
40437W        W 8666  17.618  31.134   0.826
40438W        W 8667  23.967  24.449  12.597
40439W        W 8668   1.460  22.183   3.020
40440W        W 8669   3.961   3.888   3.182
40441W        W 8670  24.235  15.793  13.296
40442W        W 8671  34.004  19.782   3.286
40443W        W 8672  19.475   9.896  14.320
40444W        W 8673  35.548   7.047   0.874
40445W        W 8674  10.505  17.999  13.428
40446W        W 8675   6.941  31.702   4.974
40447W        W 8676  18.351  11.621   1.236
40448W        W 8677  36.921   4.226   4.189
40449W        W 8678  34.537  31.457   0.206
40450W        W 8679  43.248  15.016  14.538
40451W        W 8680  36.498   8.174   2.090
40452W        W 8681   6.916  13.315  14.935
40453W        W 8682  44.320  21.095   3.745
40454W        W 8683  14.187  32.728  11.057
40455W        W 8684  10.055  40.823   3.737
40456W        W 8685   7.705  21.146   3.323
40457W        W 8686  30.709  33.526   4.636
40458W        W 8687  20.325  24.034   4.642
40459W        W 8688   5.198  17.609   4.886
40460W        W 8689   3.920   5.131   4.650
40461W        W 8690  17.314  42.592   2.257
40462W        W 8691  27.890  14.892   4.020
40463W        W 8692  26.000  22.119  14.756
40464W        W 8693  22.977   9.684  13.081
40465W        W 8694  29.646  43.306   0.918
40466W        W 8695  25.991   3.340  14.157
40467W        W 8696  31.960  15.235   4.337
40468W        W 8697  32.480   3.136   4.879
40469W        W 8698  20.142   0.840  11.915
40470W        W 8699  35.009  18.634   1.003
40471W        W 8700  42.843  16.754   4.206
40472W        W 8701  28.082  23.199   4.638
40473W        W 8702  15.275  34.623  14.924
40474W        W 8703  28.001  29.041   1.929
40475W        W 8704  35.142  39.935  13.489
40476W        W 8705  16.403   3.649  12.385
40477W        W 8706  32.517  35.299  14.325
40478W        W 8707  40.470   4.428   0.250
40479W        W 8708  12.240   7.176   4.349
40480W        W 8709  31.435  37.304  10.604
40481W        W 8710  23.437  28.084  12.793
40482W        W 8711  42.383  25.667  13.363
40483W        W 8712  29.719   3.291   0.067
40484W        W 8713  30.925  35.196  14.926
40485W        W 8714  40.016   9.427   0.836
40486W        W 8715  12.038  35.791  14.223
40487W        W 8716  23.741  33.537  10.870
40488W        W 8717   6.656  42.921   2.263
40489W        W 8718  27.076  27.260  11.748
40490W        W 8719  29.930  23.677  11.960
40491W        W 8720  39.933  12.466   3.290
40492W        W 8721  35.920  41.199   1.030
40493W        W 8722  14.237  44.444   3.201
40494W        W 8723  22.038  37.277   2.633
40495W        W 8724   1.383  41.287  12.111
40496W        W 8725  20.150  16.414   0.923
40497W        W 8726   2.224  40.596  11.505
40498W        W 8727  22.549  35.046  14.918
40499W        W 8728  23.004  39.962   4.248
40500W        W 8729  18.421   8.699  11.710
40501W        W 8730  16.782  21.461   0.401
40502W        W 8731  27.155  14.622  12.132
40503W        W 8732  13.728   9.524  13.644
40504W        W 8733  12.787  24.582   1.181
40505W        W 8734  36.677  19.386  11.111
40506W        W 8735  16.254  10.865  13.951
40507W        W 8736  17.095  21.531  13.613
40508W        W 8737   3.236   4.238   0.732
40509W        W 8738  13.912   9.993   1.621
40510W        W 8739  35.111   4.703   2.289
40511W        W 8740  23.844   8.647  14.956
40512W        W 8741  31.107  33.542  12.081
40513W        W 8742  26.102  37.660   0.638
40514W        W 8743   2.600  31.894   4.997
40515W        W 8744  18.262   4.652  11.128
40516W        W 8745   7.286  35.875  10.992
40517W        W 8746  32.835  10.019   1.821
40518W        W 8747  21.096  32.362  13.035
40519W        W 8748  14.080  30.092  12.623
40520W        W 8749  11.706   9.513   9.837
40521W        W 8750   9.304  25.156  13.876
40522W        W 8751  28.310  39.111   3.589
40523W        W 8752  33.963  14.706   1.311
40524W        W 8753  38.709  30.656  11.586
40525W        W 8754   2.795   0.336  10.523
40526W        W 8755  34.723  42.890   1.504
40527W        W 8756  38.741  43.855  12.505
40528W        W 8757  31.432   4.227  13.369
40529W        W 8758  25.700  18.423  13.337
40530W        W 8759  39.712  10.621   1.195
40531W        W 8760  11.549  33.477  10.676
40532W        W 8761  39.675  38.303   4.602
40533W        W 8762  19.405  33.511   0.544
40534W        W 8763   6.125  34.651  13.950
40535W        W 8764  25.598  38.148  14.909
40536W        W 8765  42.712  16.221   1.171
40537W        W 8766   6.242  14.100  12.246
40538W        W 8767  15.205  15.607  14.286
40539W        W 8768   3.237  38.389  13.012
40540W        W 8769   5.848   5.746   3.638
40541W        W 8770  42.786  16.519   3.758
40542W        W 8771   8.832  44.298   4.135
40543W        W 8772   3.364  43.382   2.988
40544W        W 8773  38.507  31.889  14.146
40545W        W 8774  40.533  27.485   2.246
40546W        W 8775  13.794  14.117  11.652
40547W        W 8776  21.333  36.059   4.069
40548W        W 8777  21.110  31.132  13.456
40549W        W 8778  20.294  32.477   3.150
40550W        W 8779  27.208  11.610   1.383
40551W        W 8780   1.849   4.249  14.440
40552W        W 8781  33.611  28.570   0.068
40553W        W 8782  17.570  35.904  11.860
40554W        W 8783  36.936  19.799  11.310
40555W        W 8784   5.689  42.894   1.730
40556W        W 8785   0.899  43.769  13.508
40557W        W 8786  33.148   3.640   1.450
40558W        W 8787  41.953   3.182   3.122
40559W        W 8788  41.861  15.211  12.028
40560W        W 8789  26.529  27.428  12.598
40561W        W 8790  32.026  19.958  10.121
40562W        W 8791  12.732  32.292   2.201
40563W        W 8792  24.044   3.919   4.541
40564W        W 8793  43.766  20.554  10.632
40565W        W 8794  23.945  44.083  14.463
40566W        W 8795  18.512  23.449   3.686
40567W        W 8796  30.176  33.809  12.689
40568W        W 8797  19.795   5.753   1.520
40569W        W 8798  37.458  24.453   1.877
40570W        W 8799  20.442   4.680  12.570
40571W        W 8800  18.204  35.834  14.436
40572W        W 8801  42.464  33.664  13.638
40573W        W 8802  15.044  38.049   0.310
40574W        W 8803   9.784  14.898   1.671
40575W        W 8804   9.605  38.562   0.723
40576W        W 8805  28.994  14.562   1.455
40577W        W 8806  23.237  18.815  12.852
40578W        W 8807  39.198  34.104  13.330
40579W        W 8808  34.387  21.069   5.054
40580W        W 8809  35.303   7.205  14.691
40581W        W 8810  41.434   5.961   2.675
40582W        W 8811   0.872  35.109   2.935
40583W        W 8812  33.262  28.188  13.834
40584W        W 8813  32.100   6.951   2.738
40585W        W 8814  33.031  27.920   2.747
40586W        W 8815  27.643  10.036  11.612
40587W        W 8816  32.346  12.119  11.054
40588W        W 8817  23.136  29.534  13.170
40589W        W 8818  30.691   4.259   0.891
40590W        W 8819  31.176  42.075   4.651
40591W        W 8820  37.062  15.675   4.805
40592W        W 8821  41.178  43.382  10.680
40593W        W 8822  11.590   6.815  11.162
40594W        W 8823  10.626   9.407  13.539
40595W        W 8824  30.716  41.576  11.575
40596W        W 8825  32.473   4.436   0.273
40597W        W 8826  30.662   6.222  11.564
40598W        W 8827  19.743  16.889   1.222
40599W        W 8828  16.062  43.755   4.471
40600W        W 8829  36.445  23.125  13.830
40601W        W 8830  13.429  32.724   3.358
40602W        W 8831  39.155  39.807  13.426
40603W        W 8832  35.460  41.439  14.336
40604W        W 8833  25.373  34.534  13.756
40605W        W 8834  33.885  33.444   4.641
40606W        W 8835   3.490  41.645   1.344
40607W        W 8836  31.805  13.935  11.032
40608W        W 8837   3.205  24.979  12.023
40609W        W 8838   9.132   7.749   0.814
40610W        W 8839  44.531  37.589   1.249
40611W        W 8840  34.491  30.043   0.354
40612W        W 8841  20.096  18.045  10.768
40613W        W 8842   9.193  25.342  10.633
40614W        W 8843  21.489  25.988   0.374
40615W        W 8844  19.792  19.278  14.892
40616W        W 8845  42.948  23.679   2.777
40617W        W 8846  19.794  11.099  10.314
40618W        W 8847  13.081  40.119   2.835
40619W        W 8848  42.005  28.851   2.666
40620W        W 8849  39.926  22.209  12.261
40621W        W 8850  17.458   8.309  13.017
40622W        W 8851  20.794  32.896  14.458
40623W        W 8852   7.274  30.652   0.489
40624W        W 8853  27.500  33.975  12.606
40625W        W 8854  32.222  27.873  14.281
40626W        W 8855  39.219  40.114   5.126
40627W        W 8856   8.904  10.361   2.344
40628W        W 8857   0.385  17.324   4.664
40629W        W 8858  44.815   3.431   0.438
40630W        W 8859   5.590  16.361  14.460
40631W        W 8860  40.490  22.597   2.748
40632W        W 8861  39.002  22.617   0.104
40633W        W 8862  17.367   1.734  11.610
40634W        W 8863   1.734  32.548  10.903
40635W        W 8864  17.487  25.985   3.336
40636W        W 8865  35.943   0.288   4.078
40637W        W 8866  36.010   8.180  14.384
40638W        W 8867  21.208  23.664  10.241
40639W        W 8868   7.376  27.378  14.210
40640W        W 8869  12.581   1.801   4.835
40641W        W 8870  26.479   2.470   3.742
40642W        W 8871  39.322  16.599   3.060
40643W        W 8872  26.492  38.151  14.488
40644W        W 8873  32.966   0.371  10.777
40645W        W 8874   2.182   1.785  12.122
40646W        W 8875  26.528   7.740   1.187
40647W        W 8876  15.064  24.569   1.252
40648W        W 8877  39.651  36.562  13.852
40649W        W 8878  35.980   8.656  11.505
40650W        W 8879  27.575  32.997   4.512
40651W        W 8880  16.273   8.698  14.287
40652W        W 8881   3.478  18.584   4.694
40653W        W 8882  43.234  35.086   3.796
40654W        W 8883  18.263  34.727  11.894
40655W        W 8884  10.837  32.566   2.586
40656W        W 8885   1.435  19.196   1.308
40657W        W 8886  16.155  25.898   4.043
40658W        W 8887   7.125   6.299  10.804
40659W        W 8888  22.822  27.138  11.606
40660W        W 8889  22.493   1.951   4.496
40661W        W 8890  29.984  35.446  12.934
40662W        W 8891  44.660  36.942  10.637
40663W        W 8892  38.110   6.758  14.215
40664W        W 8893  27.305  41.356   2.709
40665W        W 8894  36.902  37.043  13.198
40666W        W 8895   6.970  11.704  10.676
40667W        W 8896  21.820   0.295  12.043
40668W        W 8897  22.550  18.515   1.698
40669W        W 8898  33.591  33.270   2.552
40670W        W 8899  24.522  13.693  14.264
40671W        W 8900   7.203  28.115   2.114
40672W        W 8901   7.311   4.012   2.187
40673W        W 8902  41.763  32.916  14.863
40674W        W 8903  15.194  21.399   1.245
40675W        W 8904   9.129  31.766  13.926
40676W        W 8905  32.053  27.337   1.665
40677W        W 8906   5.503  19.437   3.665
40678W        W 8907  17.883   4.758  13.545
40679W        W 8908  17.130  12.792   5.078
40680W        W 8909   0.823  15.000   1.017
40681W        W 8910   6.979  26.177   0.854
40682W        W 8911  18.055   1.527   2.728
40683W        W 8912  35.419  33.948   2.694
40684W        W 8913   1.978  12.518  10.525
40685W        W 8914  40.937  41.558  13.001
40686W        W 8915  42.349  27.017  10.667
40687W        W 8916  28.453  21.785   2.104
40688W        W 8917  14.577  39.020   1.099
40689W        W 8918  25.016  39.346   3.710
40690W        W 8919  12.442  40.188  11.573
40691W        W 8920  28.111   8.041  12.475
40692W        W 8921  28.998   2.507   4.300
40693W        W 8922  16.648  34.855   0.124
40694W        W 8923   9.062  23.793  14.789
40695W        W 8924  21.738  19.057   4.348
40696W        W 8925  25.906  18.803  10.586
40697W        W 8926  40.862  12.468   2.118
40698W        W 8927  15.207  37.011   2.438
40699W        W 8928  20.776   7.783  12.167
40700W        W 8929   7.864  12.866   3.253
40701W        W 8930  33.040  35.947   1.663
40702W        W 8931  23.773  29.930  11.514
40703W        W 8932  11.151  32.502  12.894
40704W        W 8933  32.695  27.805  14.491
40705W        W 8934   5.232   9.086   4.728
40706W        W 8935  11.193  42.369  11.290
40707W        W 8936   7.005  12.747  14.824
40708W        W 8937  23.550   9.370  12.074
40709W        W 8938   3.798  30.371   4.315
40710W        W 8939  16.787  33.609   1.316
40711W        W 8940  11.841  11.141   4.387
40712W        W 8941  39.339  22.832  11.142
40713W        W 8942  18.220  10.649  13.867
40714W        W 8943  44.712   2.919  11.769
40715W        W 8944  39.273  40.362  14.663
40716W        W 8945   0.057  11.854   3.785
40717W        W 8946   0.126  38.749  13.858
40718W        W 8947  14.633  40.239  12.366
40719W        W 8948  20.794   2.184  10.766
40720W        W 8949   6.968  14.161  10.710
40721W        W 8950   6.777  41.723   1.290
40722W        W 8951  16.383  15.508   4.983
40723W        W 8952  18.504  27.599  12.542
40724W        W 8953   4.352  34.538   1.386
40725W        W 8954   8.280   8.889   1.517
40726W        W 8955  18.647  37.468  13.599
40727W        W 8956  40.377  36.294  12.158
40728W        W 8957  30.146  40.310   3.652
40729W        W 8958   9.383  12.305   2.657
40730W        W 8959   3.359   0.848  11.709
40731W        W 8960  44.972  20.107  14.922
40732W        W 8961  39.223   6.787  10.610
40733W        W 8962  38.385  12.818   4.168
40734W        W 8963  44.522  17.613   1.301
40735W        W 8964  44.485  19.546   3.332
40736W        W 8965  36.965  20.520   2.416
40737W        W 8966  10.065  21.566  12.604
40738W        W 8967  28.942  10.407   0.782
40739W        W 8968  21.684  37.787   4.466
40740W        W 8969  34.076   2.748  11.165
40741W        W 8970  21.588  25.627  10.620
40742W        W 8971  15.903  30.936   4.705
40743W        W 8972  20.248  32.672   1.248
40744W        W 8973  14.286  29.904  13.655
40745W        W 8974  34.116  10.890   3.283
40746W        W 8975  24.499  17.930  13.867
40747W        W 8976  31.134   3.848  13.124
40748W        W 8977  35.090  18.565  13.750
40749W        W 8978  30.837  34.480  13.109
40750W        W 8979  43.550  44.571  13.534
40751W        W 8980  12.098  15.294  12.515
40752W        W 8981  27.061  40.784   0.463
40753W        W 8982  33.499  12.552  12.119
40754W        W 8983  24.746  43.886   1.129
40755W        W 8984  13.125  40.310   1.879
40756W        W 8985  32.187  11.711   1.701
40757W        W 8986  26.400  44.430  13.305
40758W        W 8987   2.280  19.578  12.567
40759W        W 8988  39.101  16.428  13.952
40760W        W 8989   5.775  28.924   0.812
40761W        W 8990   6.583   5.213  12.086
40762W        W 8991  34.753   6.947  10.317
40763W        W 8992  26.726  17.522   3.309
40764W        W 8993   6.386  17.846   1.848
40765W        W 8994  31.613  34.850  12.350
40766W        W 8995  21.662   3.756  14.391
40767W        W 8996  39.912  38.286  14.382
40768W        W 8997  15.159  37.454   4.658
40769W        W 8998  41.744   7.629  11.557
40770W        W 8999  16.825   7.820  14.827
40771W        W 9000  13.169   8.830   5.144
40772W        W 9001  10.310  43.536   3.230
40773W        W 9002   0.382  28.909  12.971
40774W        W 9003  10.465  19.535  12.370
40775W        W 9004  15.514  27.901   0.920
40776W        W 9005  30.142  18.841   2.883
40777W        W 9006   2.330  41.223   4.205
40778W        W 9007  43.518  13.172  10.764
40779W        W 9008  37.438  23.571  11.530
40780W        W 9009  30.889  32.372  12.954
40781W        W 9010  26.067  10.319   1.990
40782W        W 9011  33.970  19.545  13.511
40783W        W 9012  23.009  31.182  14.202
40784W        W 9013  27.656  10.110  14.992
40785W        W 9014  17.137  35.608  10.951
40786W        W 9015  39.022  22.466  14.097
40787W        W 9016  26.325  18.039  12.836
40788W        W 9017  42.193  17.976  11.095
40789W        W 9018  37.559  39.460  14.725
40790W        W 9019   8.730  18.786   1.862
40791W        W 9020  34.917   7.486   2.055
40792W        W 9021  36.446   3.401   3.493
40793W        W 9022  21.118  40.519  14.746
40794W        W 9023  29.899   1.412   2.406
40795W        W 9024  14.695  22.187  14.058
40796W        W 9025  22.702  23.744   3.262
40797W        W 9026  29.174  29.999   0.907
40798W        W 9027  22.501   8.739  10.088
40799W        W 9028   3.797  27.038   4.076
40800W        W 9029   6.249   6.380   1.746
40801W        W 9030  21.957  10.397   1.339
40802W        W 9031  18.067   3.992   0.006
40803W        W 9032  30.703  27.437   0.342
40804W        W 9033  43.069  35.129   4.304
40805W        W 9034  17.692  30.599  11.989
40806W        W 9035  23.559  13.670  12.477
40807W        W 9036  28.585  24.216  12.924
40808W        W 9037  27.102  13.104   1.378
40809W        W 9038  25.006   8.427   1.441
40810W        W 9039  26.109  26.210  13.252
40811W        W 9040  32.516   1.016   1.312
40812W        W 9041   7.899  31.260  12.532
40813W        W 9042   0.442   4.162   0.298
40814W        W 9043  41.792  37.107   1.001
40815W        W 9044  13.890  17.773  12.718
40816W        W 9045  31.396  23.962  13.796
40817W        W 9046  40.442   9.474   1.690
40818W        W 9047   7.235  23.283  11.244
40819W        W 9048  13.894  13.382  10.676
40820W        W 9049  41.291  25.058   1.491
40821W        W 9050  31.826   3.316  10.385
40822W        W 9051  29.557  29.951   1.286
40823W        W 9052  31.559  20.496   1.353
40824W        W 9053  32.409  28.611  10.778
40825W        W 9054  15.241  34.652  11.663
40826W        W 9055  33.641   0.710   0.422
40827W        W 9056  21.782   7.413  13.372
40828W        W 9057  38.392   7.854  12.942
40829W        W 9058  20.405   5.916  13.893
40830W        W 9059  43.080  23.699  12.470
40831W        W 9060  30.694   3.889  11.039
40832W        W 9061  20.050  17.180   3.313
40833W        W 9062  30.420  26.614  14.637
40834W        W 9063  19.117  15.713   4.777
40835W        W 9064   7.370   8.929  14.292
40836W        W 9065   7.429  17.975  14.397
40837W        W 9066  29.087  23.504   3.134
40838W        W 9067  10.346  24.421  12.683
40839W        W 9068  35.666   5.721   3.537
40840W        W 9069   2.894  32.082  12.386
40841W        W 9070   4.222  22.556  14.780
40842W        W 9071  29.986  11.603   3.815
40843W        W 9072  42.275  36.469  11.182
40844W        W 9073  28.479   9.635   2.154
40845W        W 9074   5.327  32.642   2.870
40846W        W 9075  13.925  35.992   0.386
40847W        W 9076  10.154  12.858   2.721
40848W        W 9077   1.390  16.065   0.349
40849W        W 9078   8.980   3.684   2.171
40850W        W 9079  41.186  30.977   9.759
40851W        W 9080  16.731  19.801   2.109
40852W        W 9081  43.614  37.389   0.785
40853W        W 9082   0.821   2.775  11.142
40854W        W 9083  44.448  26.479   3.710
40855W        W 9084  28.974   0.973   1.225
40856W        W 9085   5.365   2.755  11.160
40857W        W 9086  21.679   6.350  12.021
40858W        W 9087  35.018   1.717   3.725
40859W        W 9088   5.852   8.202   2.182
40860W        W 9089  29.393  25.025  13.016
40861W        W 9090  19.509  31.475  13.032
40862W        W 9091  20.555   7.251   3.370
40863W        W 9092  40.423  34.918   3.165
40864W        W 9093  20.741  15.819   3.625
40865W        W 9094  28.354  40.467   0.593
40866W        W 9095  10.162  36.866  12.846
40867W        W 9096  10.211  21.258  10.298
40868W        W 9097   1.218   6.775  11.193
40869W        W 9098  37.392   9.876  12.119
40870W        W 9099  30.868  17.729   0.366
40871W        W 9100   6.821  29.531  14.458
40872W        W 9101  28.446  43.740  14.849
40873W        W 9102  34.591  18.600   0.087
40874W        W 9103   7.200   2.712  14.513
40875W        W 9104  35.802  30.717  10.951
40876W        W 9105  14.379  32.622  13.701
40877W        W 9106  15.145  32.071   0.501
40878W        W 9107   4.498  24.721   2.837
40879W        W 9108   1.923  12.413   3.577
40880W        W 9109  40.017  40.011  14.392
40881W        W 9110   2.280   8.654   4.430
40882W        W 9111  24.712  28.413  13.960
40883W        W 9112   6.710   5.862  13.819
40884W        W 9113  27.653  37.956   1.855
40885W        W 9114  30.506  27.951   2.196
40886W        W 9115  13.794  34.381  12.820
40887W        W 9116  36.581  33.939  11.571
40888W        W 9117  23.053   3.491   2.323
40889W        W 9118  34.138  42.322   3.632
40890W        W 9119  20.650  38.385  12.432
40891W        W 9120  27.598  36.045   3.809
40892W        W 9121  29.885   1.705  13.972
40893W        W 9122  44.879  37.927   4.928
40894W        W 9123  10.600  27.941   0.402
40895W        W 9124  31.641  17.030  12.900
40896W        W 9125   2.920  25.431   2.686
40897W        W 9126   1.975  39.429   5.008
40898W        W 9127   7.907  11.410  13.670
40899W        W 9128   1.524  33.474  12.946
40900W        W 9129  43.009   7.060  11.240
40901W        W 9130  24.653  31.659  11.671
40902W        W 9131  11.836  38.826  12.654
40903W        W 9132  17.611  24.755  12.455
40904W        W 9133   6.324  15.943   2.023
40905W        W 9134  10.833  41.061   0.436
40906W        W 9135  15.038  41.384  11.566
40907W        W 9136  43.440  31.437  10.719
40908W        W 9137  37.382   7.809  12.957
40909W        W 9138  16.392  33.813  14.434
40910W        W 9139  32.364  40.798  13.988
40911W        W 9140  39.028  19.461  11.129
40912W        W 9141  26.633  28.199  14.977
40913W        W 9142  12.294  43.542  14.000
40914W        W 9143   6.573  34.972   2.949
40915W        W 9144   2.516  30.990  12.423
40916W        W 9145  30.980  23.479  10.510
40917W        W 9146   2.569  41.312  14.297
40918W        W 9147  26.469  36.846  13.090
40919W        W 9148  41.871  25.029   0.688
40920W        W 9149  14.279   9.651  14.111
40921W        W 9150  24.965  31.927   2.270
40922W        W 9151   1.920   7.399   2.139
40923W        W 9152  34.393  31.981   2.831
40924W        W 9153  10.793  13.406   4.971
40925W        W 9154  30.378  27.014   0.344
40926W        W 9155  35.601  29.373   2.701
40927W        W 9156  33.176  15.197   0.514
40928W        W 9157  36.618  17.597  11.894
40929W        W 9158  12.207  14.108   2.173
40930W        W 9159   1.975  28.614   2.574
40931W        W 9160   8.909  37.450  11.612
40932W        W 9161   2.517  37.468   1.594
40933W        W 9162  31.433  33.178   2.815
40934W        W 9163  10.301  42.860   1.826
40935W        W 9164  10.095   0.283   2.843
40936W        W 9165  42.449  38.489   1.879
40937W        W 9166   9.958  29.497   3.658
40938W        W 9167  40.001  43.316  12.544
40939W        W 9168   8.419  21.941   3.846
40940W        W 9169  18.104  39.520   0.746
40941W        W 9170  37.056  20.249  11.015
40942W        W 9171  43.932  25.940  14.564
40943W        W 9172   6.955  39.914   3.716
40944W        W 9173  19.582  18.217   2.002
40945W        W 9174   3.928  18.302   4.606
40946W        W 9175  19.231  16.252  10.494
40947W        W 9176  37.407  11.584   3.530
40948W        W 9177  31.848  17.850   0.665
40949W        W 9178  13.912   3.465  12.676
40950W        W 9179   8.447  26.075   0.730
40951W        W 9180   5.949  29.651  12.495
40952W        W 9181   3.020  34.543   2.836
40953W        W 9182  23.128  25.492   2.903
40954W        W 9183  25.587  28.732   0.462
40955W        W 9184  31.220  23.138   4.773
40956W        W 9185  37.495  27.235   4.965
40957W        W 9186  42.891  38.098   4.072
40958W        W 9187   5.838   3.803   0.341
40959W        W 9188  43.051  25.078  11.509
40960W        W 9189  38.740  43.361   0.404
40961W        W 9190  12.894  13.632   2.647
40962W        W 9191  10.309   1.278   4.666
40963W        W 9192  38.281  27.567   0.428
40964W        W 9193  23.510  26.017  12.001
40965W        W 9194   0.500  24.282  13.933
40966W        W 9195   5.188  29.922  14.860
40967W        W 9196  38.322  44.963  11.582
40968W        W 9197  17.817  34.018   2.269
40969W        W 9198  21.654  27.039   4.316
40970W        W 9199  40.759  36.318   2.426
40971W        W 9200  28.674  30.402   0.245
40972W        W 9201   1.180  33.090   0.394
40973W        W 9202  21.979  32.707   4.916
40974W        W 9203  27.881  21.688  13.386
40975W        W 9204  26.928   5.855   0.306
40976W        W 9205  26.678  23.888   4.742
40977W        W 9206  19.764  25.724  10.969
40978W        W 9207  14.107  15.683   4.020
40979W        W 9208  39.941  19.599   1.366
40980W        W 9209  15.676  18.599  13.122
40981W        W 9210  17.132  23.052  14.064
40982W        W 9211  16.605   5.901  14.829
40983W        W 9212  42.908  35.738  14.785
40984W        W 9213  34.669  24.652  14.539
40985W        W 9214  17.237  27.835  11.190
40986W        W 9215  17.517  17.034  12.352
40987W        W 9216  38.555   6.822   1.473
40988W        W 9217  28.164  34.549   2.681
40989W        W 9218  31.460  38.512   3.658
40990W        W 9219  10.094  38.886   3.254
40991W        W 9220  39.275   8.432   5.460
40992W        W 9221  41.139  36.867  14.837
40993W        W 9222  39.450  30.859   1.441
40994W        W 9223  34.955   0.341   4.036
40995W        W 9224   3.342   3.923  14.429
40996W        W 9225  27.613  17.528  12.814
40997W        W 9226  44.928  20.170   4.792
40998W        W 9227  43.938  19.492   0.159
40999W        W 9228  17.668  17.845   0.497
41000W        W 9229  29.462  14.840  11.201
41001W        W 9230  22.093  32.972   0.689
41002W        W 9231  27.364  20.759  10.673
41003W        W 9232  41.919  35.080  13.565
41004W        W 9233  10.830   9.629  14.541
41005W        W 9234   1.897  23.543   1.497
41006W        W 9235  44.820  17.389  12.881
41007W        W 9236   8.666  30.257   3.021
41008W        W 9237   0.241  20.482   1.741
41009W        W 9238   1.457  34.951  12.829
41010W        W 9239  19.706  43.817  12.510
41011W        W 9240  40.554   1.240  14.915
41012W        W 9241  22.024  20.250  13.820
41013W        W 9242  22.008  27.522  11.420
41014W        W 9243  31.029  28.549   0.988
41015W        W 9244  15.761  22.447  12.315
41016W        W 9245  26.548  12.851   1.249
41017W        W 9246  25.190  39.614   1.409
41018W        W 9247  24.239   1.498   2.186
41019W        W 9248  42.494   3.033   0.454
41020W        W 9249  40.917  27.191  13.324
41021W        W 9250   8.899  19.975   2.909
41022W        W 9251  29.256  24.032   4.233
41023W        W 9252   3.646  16.689   2.764
41024W        W 9253   9.813  29.582  14.554
41025W        W 9254  14.183  41.321  11.195
41026W        W 9255  42.378   8.376  14.424
41027W        W 9256  30.028  42.722  13.416
41028W        W 9257  36.563  14.765   1.006
41029W        W 9258   7.575   6.471   4.146
41030W        W 9259   1.761   3.861   4.128
41031W        W 9260  35.025  15.909   1.621
41032W        W 9261  17.048  12.590  11.569
41033W        W 9262  40.302  12.840   0.385
41034W        W 9263   2.823  34.472   1.796
41035W        W 9264  36.502  14.853  11.647
41036W        W 9265  25.423  26.035   1.790
41037W        W 9266  25.008  42.898  14.606
41038W        W 9267   8.616  17.110  12.037
41039W        W 9268  33.803  20.570  14.053
41040W        W 9269  30.076  42.963  12.958
41041W        W 9270  43.810  10.665  14.941
41042W        W 9271   5.323  33.968  10.533
41043W        W 9272  31.082  40.919  13.549
41044W        W 9273   1.669  27.944  13.705
41045W        W 9274   9.915  15.193   4.605
41046W        W 9275   7.634  38.514  11.380
41047W        W 9276   4.074  31.463   4.807
41048W        W 9277  24.098  11.392  13.495
41049W        W 9278  15.586  12.718   3.273
41050W        W 9279  26.714   3.179   0.469
41051W        W 9280  21.699   3.687   3.277
41052W        W 9281  27.791  16.291  14.899
41053W        W 9282  37.853  43.784   0.798
41054W        W 9283  31.361  32.892  14.089
41055W        W 9284   0.485   3.928  11.568
41056W        W 9285  34.855   9.365  13.350
41057W        W 9286  20.190  16.025   4.187
41058W        W 9287  12.593  33.945  12.139
41059W        W 9288   2.272  25.565   1.424
41060W        W 9289  24.455  32.376  11.011
41061W        W 9290   6.922  12.912  12.980
41062W        W 9291   4.982  32.136   0.991
41063W        W 9292   4.748   9.881   1.227
41064W        W 9293   2.546  27.130   3.132
41065W        W 9294  18.208  23.540  14.754
41066W        W 9295  20.667  19.181  12.054
41067W        W 9296  15.684  37.386   3.684
41068W        W 9297   4.016  37.904  10.418
41069W        W 9298  20.336   9.376   1.852
41070W        W 9299   8.487  27.330  11.036
41071W        W 9300  40.786  40.093  11.841
41072W        W 9301   4.425  17.750  14.986
41073W        W 9302  31.655  37.447  14.409
41074W        W 9303   0.088   3.402  13.082
41075W        W 9304  38.106  33.449  10.647
41076W        W 9305  41.262  38.464   4.912
41077W        W 9306  29.534  34.662  12.908
41078W        W 9307   8.438  25.812  12.559
41079W        W 9308  38.407   7.187  11.530
41080W        W 9309  25.383  21.605  13.529
41081W        W 9310  14.096  34.028  11.271
41082W        W 9311  19.076  31.232  11.685
41083W        W 9312  16.066   8.268   1.802
41084W        W 9313  20.870  11.262  13.899
41085W        W 9314  20.478  14.049   4.470
41086W        W 9315  32.274  11.459  10.288
41087W        W 9316  32.886   2.666   2.808
41088W        W 9317  37.666   0.765   5.010
41089W        W 9318  24.973  34.006  12.008
41090W        W 9319  14.080  26.209  14.163
41091W        W 9320   2.789   4.449  14.426
41092W        W 9321   3.371  38.294   3.680
41093W        W 9322  41.048   5.892  14.283
41094W        W 9323   1.766  14.104   3.217
41095W        W 9324  11.261  18.148  12.944
41096W        W 9325  19.099  41.196   0.296
41097W        W 9326  38.459  23.040  12.526
41098W        W 9327  26.222  42.389  12.681
41099W        W 9328  14.108   7.477   0.512
41100W        W 9329  26.484  11.565  13.379
41101W        W 9330   9.276  31.130  12.097
41102W        W 9331  32.874  28.703  14.337
41103W        W 9332  23.398  23.235   3.774
41104W        W 9333  28.517  44.012  13.065
41105W        W 9334  39.307  28.095   9.833
41106W        W 9335  17.537   8.809   2.821
41107W        W 9336  30.109  31.621   0.374
41108W        W 9337  42.052   5.442   2.095
41109W        W 9338  40.978  38.645   1.212
41110W        W 9339   4.251  36.508   3.466
41111W        W 9340  29.038  10.989   2.884
41112W        W 9341  41.342  28.949  11.457
41113W        W 9342  34.806  23.581   0.849
41114W        W 9343  33.502  12.889  10.359
41115W        W 9344  37.976  10.373   1.038
41116W        W 9345  44.437   6.120   2.442
41117W        W 9346   3.827  31.630  13.080
41118W        W 9347  16.104  42.776  14.802
41119W        W 9348  29.457  19.200  14.397
41120W        W 9349  31.736  42.676   2.284
41121W        W 9350  34.969  40.719   2.980
41122W        W 9351   5.407  30.308   2.307
41123W        W 9352  39.485  31.090   3.790
41124W        W 9353  13.023   6.635   1.511
41125W        W 9354   9.655  32.350   3.689
41126W        W 9355   1.240  17.124  14.944
41127W        W 9356   8.791  36.469  14.758
41128W        W 9357   2.964  27.602  13.429
41129W        W 9358  32.219   7.924   0.215
41130W        W 9359  34.062  16.920   1.227
41131W        W 9360   4.764  31.809   0.061
41132W        W 9361  20.507  19.552  12.380
41133W        W 9362  43.460  21.963   1.709
41134W        W 9363  37.994   1.541  13.331
41135W        W 9364  18.714  15.792   2.201
41136W        W 9365  27.591  21.738  11.496
41137W        W 9366   1.398  39.937   4.593
41138W        W 9367   8.060  22.296   1.303
41139W        W 9368  30.586  19.341  12.436
41140W        W 9369  14.770  23.142  13.143
41141W        W 9370  42.447  12.831   3.926
41142W        W 9371  41.279  38.115  11.183
41143W        W 9372  29.038   2.888  12.960
41144W        W 9373  22.437  42.044   2.916
41145W        W 9374  37.956   2.524  11.235
41146W        W 9375  25.329  23.671   3.662
41147W        W 9376  22.164   6.187  12.024
41148W        W 9377   3.836  35.067   3.234
41149W        W 9378  36.962  32.708   0.040
41150W        W 9379  27.274  27.608  12.079
41151W        W 9380  32.089  38.876   0.810
41152W        W 9381   6.275   1.264  12.177
41153W        W 9382   8.398   7.478  10.770
41154W        W 9383  22.043  13.799  10.706
41155W        W 9384  35.484   0.832  13.156
41156W        W 9385  39.331  12.575  12.692
41157W        W 9386   5.744  31.645   2.953
41158W        W 9387   0.185   9.525  13.597
41159W        W 9388  19.597  20.509  14.494
41160W        W 9389  44.265  19.948  12.051
41161W        W 9390  28.370  11.615   0.198
41162W        W 9391  13.136  11.332   0.840
41163W        W 9392  21.248  28.952  13.594
41164W        W 9393  44.296  34.566   0.887
41165W        W 9394  23.558   0.648  11.084
41166W        W 9395  10.443   1.339   3.225
41167W        W 9396  30.584  10.099   5.007
41168W        W 9397  27.371  20.819   4.236
41169W        W 9398   6.502  31.709  14.664
41170W        W 9399  22.491   4.706   2.736
41171W        W 9400  18.183  33.407   1.905
41172W        W 9401  43.144  26.755   2.730
41173W        W 9402  26.352   0.227  14.871
41174W        W 9403  11.780  41.197  12.117
41175W        W 9404  42.078  39.802   1.907
41176W        W 9405  33.287   2.979  11.412
41177W        W 9406  27.059   7.164   1.699
41178W        W 9407  21.191  42.732  14.456
41179W        W 9408  20.563  26.301   0.588
41180W        W 9409  12.317  10.556   4.819
41181W        W 9410  40.240   1.726   0.695
41182W        W 9411  40.589  11.615  13.773
41183W        W 9412  38.416  15.233   1.743
41184W        W 9413  20.889   5.858   0.410
41185W        W 9414  26.981   6.116   3.798
41186W        W 9415  11.392  10.470  12.198
41187W        W 9416  10.842   4.219  13.916
41188W        W 9417   9.141  44.472  10.312
41189W        W 9418  29.116  27.998  10.965
41190W        W 9419  26.683  42.866  10.911
41191W        W 9420  26.586  19.680   0.997
41192W        W 9421  31.457   2.809  12.489
41193W        W 9422   7.498  40.036  13.694
41194W        W 9423  17.098   4.863  14.242
41195W        W 9424   0.726   5.895  13.424
41196W        W 9425   1.244   9.628  12.197
41197W        W 9426  17.924  44.675  11.947
41198W        W 9427  19.441  19.104   3.364
41199W        W 9428  12.917   0.325  14.874
41200W        W 9429   1.745  38.577  10.463
41201W        W 9430  28.124  34.016  14.825
41202W        W 9431  23.650  15.253   1.634
41203W        W 9432  30.376  24.265   2.754
41204W        W 9433  19.920  28.469   4.420
41205W        W 9434  42.707  14.129  12.135
41206W        W 9435  37.335  44.499   5.143
41207W        W 9436  40.118  42.264  12.442
41208W        W 9437  13.406  32.815   4.138
41209W        W 9438  17.357  18.922   5.069
41210W        W 9439   5.195  40.454   2.806
41211W        W 9440  40.805  15.656  13.036
41212W        W 9441  44.503  11.843  12.111
41213W        W 9442   7.763  15.561   1.173
41214W        W 9443   5.267   0.824   0.724
41215W        W 9444  10.610  36.588   1.836
41216W        W 9445  17.831  41.011  14.985
41217W        W 9446  26.707  16.732   1.728
41218W        W 9447  26.182  37.798  14.676
41219W        W 9448  13.521  37.286  11.553
41220W        W 9449  26.785  44.895   1.467
41221W        W 9450  15.000   0.987  13.821
41222W        W 9451  28.624  32.027   4.732
41223W        W 9452  15.139  41.486  13.738
41224W        W 9453  10.263   5.139   2.681
41225W        W 9454  33.899   0.725  10.521
41226W        W 9455  21.921  38.325   1.397
41227W        W 9456  20.061   4.234   2.421
41228W        W 9457  34.639  23.693   4.182
41229W        W 9458  35.831  34.159   2.474
41230W        W 9459  30.147  44.288   4.503
41231W        W 9460  29.691  25.300  11.049
41232W        W 9461  30.766  15.244  14.364
41233W        W 9462  18.656  11.914   4.597
41234W        W 9463  42.326   0.259   3.809
41235W        W 9464   6.451  43.286  11.912
41236W        W 9465  26.639  26.527  13.519
41237W        W 9466  26.418   5.616  13.360
41238W        W 9467  29.431  39.312   4.194
41239W        W 9468  13.171   5.387   0.297
41240W        W 9469  26.055  17.081  10.737
41241W        W 9470   9.915  27.934   2.816
41242W        W 9471  37.694  10.443   4.930
41243W        W 9472  10.835  13.980   2.139
41244W        W 9473  36.711  16.116   4.893
41245W        W 9474  39.496  29.653   3.628
41246W        W 9475  44.511  29.225   4.512
41247W        W 9476  12.644  25.718   3.635
41248W        W 9477   4.631  11.201   2.201
41249W        W 9478  32.113  34.566   2.743
41250W        W 9479  21.701  34.894  14.524
41251W        W 9480  39.692  14.335  11.772
41252W        W 9481   4.756  43.853   3.707
41253W        W 9482  21.695  23.028  14.103
41254W        W 9483  23.571  10.258  13.887
41255W        W 9484  39.349   4.950   3.328
41256W        W 9485  32.626  19.212   2.363
41257W        W 9486   3.793  42.849  11.639
41258W        W 9487  40.905   3.987  14.174
41259W        W 9488  44.178  12.190  13.525
41260W        W 9489  15.268  17.768  12.931
41261W        W 9490  44.448  18.877   4.285
41262W        W 9491   6.724  20.592  13.217
41263W        W 9492  14.302   9.672  14.619
41264W        W 9493  35.686  40.036  14.437
41265W        W 9494  33.061  36.428   2.906
41266W        W 9495   1.117  20.702   1.993
41267W        W 9496  21.352   8.248  13.450
41268W        W 9497  13.242  43.024  12.949
41269W        W 9498   9.602   4.494   2.483
41270W        W 9499  29.623   9.891  11.408
41271W        W 9500  29.649  32.890   4.090
41272W        W 9501  13.337  16.088  13.992
41273W        W 9502   6.784  15.279   4.512
41274W        W 9503  23.996  14.027   3.647
41275W        W 9504  21.792  17.189   0.627
41276W        W 9505  31.079   0.806   2.232
41277W        W 9506  41.014  17.283   0.869
41278W        W 9507  38.715  22.148  14.467
41279W        W 9508  12.711   9.409   3.353
41280W        W 9509  39.092  17.251   3.369
41281W        W 9510  22.532  11.860   4.209
41282W        W 9511  43.992  30.455  14.835
41283W        W 9512  12.483  40.130  10.631
41284W        W 9513  35.098  41.994   2.374
41285W        W 9514   7.304  20.575  12.466
41286W        W 9515   5.943  24.836   0.226
41287W        W 9516   0.473   9.299  14.364
41288W        W 9517  40.903  38.528   2.703
41289W        W 9518  23.714   4.212  10.601
41290W        W 9519  18.661   9.406   4.125
41291W        W 9520  16.648  13.067   1.457
41292W        W 9521  11.338  23.375   0.947
41293W        W 9522  35.067  11.389  12.936
41294W        W 9523  29.808  24.122   2.763
41295W        W 9524  41.918  30.888   3.693
41296W        W 9525  35.089   3.758   1.809
41297W        W 9526  40.408  32.174   2.725
41298W        W 9527  21.018  34.101  10.624
41299W        W 9528  34.924  28.900  12.017
41300W        W 9529  38.812  35.274  12.279
41301W        W 9530  12.408   9.611  11.707
41302W        W 9531  10.397  34.214  11.419
41303W        W 9532  42.893  15.905  14.389
41304W        W 9533  34.359  22.211  11.158
41305W        W 9534  13.202  25.216   0.220
41306W        W 9535   7.440  26.880  13.016
41307W        W 9536  44.768  11.540   3.157
41308W        W 9537  31.384  41.743   2.893
41309W        W 9538  13.714   6.345  13.196
41310W        W 9539  40.593   4.752   4.984
41311W        W 9540  26.071  43.768   3.217
41312W        W 9541  42.295  23.516  11.942
41313W        W 9542   9.000   3.839  10.633
41314W        W 9543  20.787  44.029   0.332
41315W        W 9544   7.090  33.776  13.860
41316W        W 9545  35.910  18.039  11.559
41317W        W 9546   0.513  23.102  13.851
41318W        W 9547  15.862   7.725  13.279
41319W        W 9548  18.314  24.626  11.144
41320W        W 9549  25.609  28.077  13.888
41321W        W 9550  37.246   4.201  13.907
41322W        W 9551  34.114  19.622  11.472
41323W        W 9552  27.671  36.676  12.659
41324W        W 9553  20.030  19.164   1.327
41325W        W 9554  32.149   6.351   3.770
41326W        W 9555  19.773  20.630  13.100
41327W        W 9556   0.279  37.188   2.924
41328W        W 9557  39.888  19.994   4.266
41329W        W 9558  33.109  20.173   0.799
41330W        W 9559  36.604  12.550  13.579
41331W        W 9560  40.637  40.636   2.253
41332W        W 9561  30.941  37.953  11.096
41333W        W 9562  21.131   3.182   2.766
41334W        W 9563  25.215  27.719   4.228
41335W        W 9564  39.310   6.488   1.214
41336W        W 9565   0.556  40.424  13.955
41337W        W 9566  41.927  32.476  11.403
41338W        W 9567  43.421  12.603  12.881
41339W        W 9568  29.367  23.052   3.683
41340W        W 9569  34.052  25.018  12.864
41341W        W 9570  32.043  10.813  11.044
41342W        W 9571   5.427  32.112  13.106
41343W        W 9572  16.946  42.021   3.377
41344W        W 9573  44.845  15.283   3.128
41345W        W 9574  37.013  43.899   4.059
41346W        W 9575  39.481   3.541   0.903
41347W        W 9576  16.272  32.947   3.684
41348W        W 9577   8.576  30.221  13.076
41349W        W 9578  22.629   5.956  12.036
41350W        W 9579  40.551  22.156   3.072
41351W        W 9580   5.068  24.914   3.198
41352W        W 9581  41.838  15.531   2.725
41353W        W 9582   1.502   8.614  12.036
41354W        W 9583  37.109   4.845  11.984
41355W        W 9584   5.798  11.200  12.391
41356W        W 9585  19.397  30.022   0.391
41357W        W 9586  16.273  27.395  14.342
41358W        W 9587  29.549  17.014   2.026
41359W        W 9588  13.736  11.384  11.194
41360W        W 9589  41.048  37.961  13.114
41361W        W 9590  39.228  31.952  13.399
41362W        W 9591  33.269   1.938   3.058
41363W        W 9592   4.230  28.527   3.338
41364W        W 9593  34.553   6.817  12.135
41365W        W 9594  30.881  18.743   3.209
41366W        W 9595  40.744  32.964   3.053
41367W        W 9596  15.193   7.119   3.517
41368W        W 9597  12.605  18.486  14.914
41369W        W 9598   6.840  29.973  14.775
41370W        W 9599   6.256  44.398  11.135
41371W        W 9600   0.831  37.902   1.230
41372W        W 9601   4.475   2.494   2.861
41373W        W 9602  20.376  25.784   2.235
41374W        W 9603  19.135   1.397   3.699
41375W        W 9604  16.312   3.228  10.715
41376W        W 9605  41.984  40.417  14.712
41377W        W 9606   5.417  11.339  12.092
41378W        W 9607  15.245   8.167  12.006
41379W        W 9608  32.053  20.486  10.090
41380W        W 9609  19.629   9.179  14.980
41381W        W 9610  12.342  42.539  11.196
41382W        W 9611   0.936   9.228   2.489
41383W        W 9612  33.993  34.067  11.971
41384W        W 9613  36.570   1.839  14.465
41385W        W 9614  10.293  38.041  13.587
41386W        W 9615   9.765  34.504  14.299
41387W        W 9616   5.859  31.828  11.635
41388W        W 9617  25.066   0.344  14.000
41389W        W 9618   6.118  33.055   0.283
41390W        W 9619  17.800  20.037  14.642
41391W        W 9620  32.943  23.158  13.346
41392W        W 9621  18.968  32.840   2.235
41393W        W 9622  23.688  24.389  13.026
41394W        W 9623  16.317  35.210   3.141
41395W        W 9624   5.140   4.887  11.297
41396W        W 9625  20.341  10.826  12.175
41397W        W 9626   2.472  35.570   1.889
41398W        W 9627  44.955   4.272  14.083
41399W        W 9628  39.527   4.908   0.392
41400W        W 9629  25.683  12.827   1.840
41401W        W 9630   1.306  24.064   0.413
41402W        W 9631  28.498  38.889  13.738
41403W        W 9632  17.273  16.760  12.822
41404W        W 9633  34.403  13.095   3.674
41405W        W 9634  38.627  26.480   2.873
41406W        W 9635  41.481  21.177  10.347
41407W        W 9636  13.305   3.594   4.300
41408W        W 9637  13.337   3.357  11.726
41409W        W 9638  32.224  16.544   3.546
41410W        W 9639  30.580  13.140   0.267
41411W        W 9640  18.102  35.140   5.019
41412W        W 9641  34.785  14.603  11.150
41413W        W 9642  23.398  33.166   2.008
41414W        W 9643  21.021  10.945   0.304
41415W        W 9644  13.692   6.664  14.106
41416W        W 9645   1.459  41.982   4.756
41417W        W 9646  20.584  10.666  13.062
41418W        W 9647   1.396  16.392  14.378
41419W        W 9648   8.659  32.898  14.417
41420W        W 9649  28.854  17.545  13.397
41421W        W 9650  41.567  41.256   3.239
41422W        W 9651   7.571  14.269  13.135
41423W        W 9652   6.838   7.890   3.110
41424W        W 9653  33.088  20.616   4.207
41425W        W 9654  14.595   1.221   1.843
41426W        W 9655   6.830  19.599   3.068
41427W        W 9656  11.700   1.292  13.493
41428W        W 9657   8.803  35.950   1.054
41429W        W 9658  26.654   8.992  12.920
41430W        W 9659  37.714  27.453  11.210
41431W        W 9660  26.087   2.765   2.618
41432W        W 9661  28.141  15.450  13.735
41433W        W 9662  24.171  14.925   2.767
41434W        W 9663  32.659   9.374   3.332
41435W        W 9664  38.040  23.038  11.955
41436W        W 9665  20.149  34.843   2.938
41437W        W 9666  31.061   4.679  10.975
41438W        W 9667  35.955  32.224  11.448
41439W        W 9668  18.248   3.374   0.703
41440W        W 9669  17.373  15.283  11.543
41441W        W 9670  11.422  44.549   3.019
41442W        W 9671  20.862  41.320   2.818
41443W        W 9672   5.894  40.717  13.464
41444W        W 9673  27.887  29.491  11.858
41445W        W 9674   0.258  42.319  13.568
41446W        W 9675  18.320   4.459  13.598
41447W        W 9676  35.844  20.198   1.383
41448W        W 9677  34.982  13.250  14.776
41449W        W 9678   2.808  44.762  12.145
41450W        W 9679  11.070  30.563  10.692
41451W        W 9680  24.596  15.019   0.978
41452W        W 9681  30.355  41.278   3.494
41453W        W 9682   9.708  15.586   4.894
41454W        W 9683  27.064  26.003  14.031
41455W        W 9684  29.927  36.660   1.907
41456W        W 9685   4.878  21.134  10.963
41457W        W 9686  29.112  28.021  14.829
41458W        W 9687   9.124  35.962  10.607
41459W        W 9688  24.604  40.329   0.257
41460W        W 9689  11.594  35.321   1.213
41461W        W 9690   5.245  44.993  13.366
41462W        W 9691  36.160  28.151  14.307
41463W        W 9692  28.302  11.270  10.118
41464W        W 9693  25.165   8.682  12.098
41465W        W 9694  12.757  32.912  12.536
41466W        W 9695  28.187  10.007  11.644
41467W        W 9696  32.629   6.239  13.595
41468W        W 9697   8.543  41.205   1.457
41469W        W 9698  43.835  11.216   0.554
41470W        W 9699  44.427  37.091  11.096
41471W        W 9700  16.727  17.171  10.248
41472W        W 9701  25.346  13.817  10.210
41473W        W 9702   3.877   1.404   4.626
41474W        W 9703  16.286  16.004   4.924
41475W        W 9704  35.553  14.664  14.522
41476W        W 9705  11.949  31.248   2.931
41477W        W 9706  39.961   4.464  10.423
41478W        W 9707  28.531  25.359   2.213
41479W        W 9708   2.854  20.683   2.462
41480W        W 9709  29.626  13.780  12.003
41481W        W 9710  25.392  27.032  14.904
41482W        W 9711   5.097  37.439  14.576
41483W        W 9712  18.890  30.040   0.328
41484W        W 9713  44.996  44.520  12.349
41485W        W 9714   0.297  35.036   2.613
41486W        W 9715   9.086  33.496   2.700
41487W        W 9716  40.480   0.312  12.406
41488W        W 9717  37.759  10.526   4.404
41489W        W 9718  27.728   7.423   2.897
41490W        W 9719   7.117  38.952  10.473
41491W        W 9720   9.619  42.900  12.077
41492W        W 9721  34.899   8.694  14.420
41493W        W 9722   6.027   5.263   0.895
41494W        W 9723   5.817  27.692   2.841
41495W        W 9724   5.967   1.351  13.975
41496W        W 9725  39.576   2.270   0.044
41497W        W 9726   0.283  44.424  11.615
41498W        W 9727  38.589  40.078   1.243
41499W        W 9728  16.150  28.479   2.947
41500W        W 9729  30.635   6.875  14.346
41501W        W 9730  22.284  23.697  14.233
41502W        W 9731  13.170  27.174  12.569
41503W        W 9732  31.398  27.153  12.574
41504W        W 9733  13.738  29.657  10.652
41505W        W 9734  35.559  33.514   2.936
41506W        W 9735  29.444  40.428   3.221
41507W        W 9736   7.547  35.274   2.716
41508W        W 9737  18.210  22.141  13.765
41509W        W 9738   5.053  27.103   3.547
41510W        W 9739  25.206  16.029  14.866
41511W        W 9740  28.981  44.897   4.333
41512W        W 9741   5.634  32.090  12.023
41513W        W 9742  33.787  36.261  13.788
41514W        W 9743   2.206  31.057  13.388
41515W        W 9744  17.552  35.940  10.491
41516W        W 9745  32.765  36.552   3.876
41517W        W 9746  38.127   5.772  14.676
41518W        W 9747  31.657  36.561   2.624
41519W        W 9748  44.869  38.742  10.853
41520W        W 9749  37.035  13.685   1.267
41521W        W 9750   1.375  36.451   3.179
41522W        W 9751  30.435  32.603   1.736
41523W        W 9752   0.379  33.357   3.279
41524W        W 9753  15.335  29.944  11.973
41525W        W 9754  34.867  40.634  13.169
41526W        W 9755  38.470   8.084   0.951
41527W        W 9756  39.677   8.354  11.107
41528W        W 9757  37.754  26.673  14.033
41529W        W 9758  13.592  38.243   0.950
41530W        W 9759   0.675  15.271  13.432
41531W        W 9760  15.641  41.051   2.800
41532W        W 9761  16.547   7.150   3.949
41533W        W 9762  29.893  37.216   1.812
41534W        W 9763  36.485   7.786  14.518
41535W        W 9764   7.038  26.984  11.151
41536W        W 9765   9.563  42.021  11.959
41537W        W 9766  14.738  17.010   4.830
41538W        W 9767  34.918  20.251  10.543
41539W        W 9768  12.124   1.830  13.110
41540W        W 9769  18.251   6.733   1.286
41541W        W 9770  24.718  35.363   0.324
41542W        W 9771   6.523  42.853  11.649
41543W        W 9772   6.076  16.123  14.429
41544W        W 9773  29.161  36.906  12.117
41545W        W 9774  38.913  12.895  12.508
41546W        W 9775  29.982  34.455   4.656
41547W        W 9776   0.338   7.085   1.866
41548W        W 9777  29.578  40.617   4.502
41549W        W 9778   9.388  23.083  14.284
41550W        W 9779  26.222   0.581   1.920
41551W        W 9780  15.696  36.068  14.956
41552W        W 9781  27.323   5.915   1.626
41553W        W 9782  20.084  10.755   4.884
41554W        W 9783  27.789  41.117  11.593
41555W        W 9784  41.202  35.947  10.930
41556W        W 9785   8.847  20.208   2.450
41557W        W 9786  18.528  44.020   2.269
41558W        W 9787  34.548  37.534   4.328
41559W        W 9788   4.687  27.159  11.261
41560W        W 9789  18.215  37.629   0.200
41561W        W 9790  20.190  15.131   0.476
41562W        W 9791  37.873  39.802  13.497
41563W        W 9792   2.369  21.597   1.167
41564W        W 9793  22.793  22.299   4.172
41565W        W 9794  42.723   6.831   1.938
41566W        W 9795   7.700  20.663  12.837
41567W        W 9796  30.894  10.647   4.340
41568W        W 9797   6.702  19.630  12.488
41569W        W 9798   8.571  43.998   2.133
41570W        W 9799  21.147   2.641   0.695
41571W        W 9800   7.713  38.577   3.595
41572W        W 9801  24.422  13.683  12.868
41573W        W 9802  37.560  36.118  13.890
41574W        W 9803  39.243  19.190  12.997
41575W        W 9804  32.381  24.500   4.793
41576W        W 9805  20.165  37.917  11.365
41577W        W 9806  42.010  11.701   3.527
41578W        W 9807  23.163   5.562  14.231
41579W        W 9808  34.236  28.748   1.814
41580W        W 9809  25.209  15.158   2.193
41581W        W 9810  24.145  25.967  11.682
41582W        W 9811   1.231   9.417  13.899
41583W        W 9812  28.422   0.320   2.842
41584W        W 9813  42.555   6.238  11.596
41585W        W 9814   5.689  29.965   4.083
41586W        W 9815  20.102  17.023   2.821
41587W        W 9816  41.072  43.449  12.790
41588W        W 9817  12.613   5.202   2.747
41589W        W 9818   3.674  34.481   0.689
41590W        W 9819  30.248   4.679   5.105
41591W        W 9820  13.413  22.662  13.922
41592W        W 9821   7.559   2.998   1.316
41593W        W 9822   1.053  44.963   1.404
41594W        W 9823  14.173   2.773  11.547
41595W        W 9824   3.937   1.485  11.626
41596W        W 9825  33.828  23.649   0.278
41597W        W 9826  33.408  13.324   1.999
41598W        W 9827  32.713  39.026  14.418
41599W        W 9828  42.485  12.184   2.842
41600W        W 9829  28.904  44.685   4.880
41601W        W 9830  24.571  42.960  10.530
41602W        W 9831  11.705  38.826   1.852
41603W        W 9832  42.864  41.851  10.521
41604W        W 9833  38.601  26.547   3.692
41605W        W 9834  29.891  25.714   0.517
41606W        W 9835  27.954  44.452  14.254
41607W        W 9836   4.035  35.004  14.869
41608W        W 9837  16.989  33.875   3.113
41609W        W 9838  31.107  27.382   4.594
41610W        W 9839  33.942  19.718   1.996
41611W        W 9840   6.273  29.130   0.855
41612W        W 9841  22.064  42.098   3.678
41613W        W 9842  11.781  44.953  12.978
41614W        W 9843  25.087  39.329  10.949
41615W        W 9844  26.381  25.259  11.387
41616W        W 9845  20.875   9.234  11.421
41617W        W 9846  18.874  22.319  11.521
41618W        W 9847  15.545   9.744   2.362
41619W        W 9848   4.291  41.371  14.151
41620W        W 9849  17.263   9.884   3.661
41621W        W 9850   0.591  44.261   0.415
41622W        W 9851  28.946  39.287   2.272
41623W        W 9852  16.653  31.189   1.884
41624W        W 9853  25.091   9.189   0.330
41625W        W 9854  15.123  18.125   2.644
41626W        W 9855  16.791  22.107   3.999
41627W        W 9856  19.249   8.871   4.579
41628W        W 9857  36.071  32.577  10.999
41629W        W 9858  43.844  37.045   2.579
41630W        W 9859  13.265   9.250   1.424
41631W        W 9860  18.694  19.778   5.176
41632W        W 9861  36.110  18.292  13.527
41633W        W 9862  33.396  24.277  14.161
41634W        W 9863   5.299  43.462  11.146
41635W        W 9864   8.883   8.702  14.738
41636W        W 9865  34.584  15.409  13.984
41637W        W 9866  12.264   0.887   2.935
41638W        W 9867  14.719  26.390   1.838
41639W        W 9868  27.107  15.568   1.516
41640W        W 9869  27.564   7.850  11.868
41641W        W 9870  18.926  37.862   0.042
41642W        W 9871  23.473  25.644  12.480
41643W        W 9872   1.946  21.658   1.908
41644W        W 9873  26.800   9.181   4.926
41645W        W 9874  28.952  39.052  14.416
41646W        W 9875  22.231  19.061  10.922
41647W        W 9876  14.695  20.616   0.458
41648W        W 9877  34.142  42.511   1.852
41649W        W 9878  27.032  29.903  14.655
41650W        W 9879  35.149  27.409  13.414
41651W        W 9880  15.569  27.039   0.846
41652W        W 9881   8.460   9.331  14.522
41653W        W 9882   0.370  12.127   2.002
41654W        W 9883  36.955  44.699  14.006
41655W        W 9884   5.813  18.604   0.903
41656W        W 9885   7.704  13.995   4.672
41657W        W 9886  14.388  17.384   9.879
41658W        W 9887  14.171   6.429   4.387
41659W        W 9888  42.541   0.700  13.608
41660W        W 9889   3.423  33.675  13.160
41661W        W 9890  15.616  27.654  11.518
41662W        W 9891  42.713   0.907   0.449
41663W        W 9892  10.326  15.222   3.613
41664W        W 9893  12.934   8.955  13.089
41665W        W 9894   3.172  36.949   1.822
41666W        W 9895  32.436   7.861  10.736
41667W        W 9896   2.859   1.324  12.341
41668W        W 9897   4.774  36.383  12.365
41669W        W 9898   0.279  30.386   1.189
41670W        W 9899  28.592  43.628   2.223
41671W        W 9900  13.838  13.119  10.211
41672W        W 9901  23.729  23.085   0.263
41673W        W 9902  11.773  23.516  11.934
41674W        W 9903  23.547   9.767  10.511
41675W        W 9904  42.049   5.779  14.398
41676W        W 9905   9.673  17.273  12.958
41677W        W 9906  44.347  41.884   4.561
41678W        W 9907  41.289  12.669  13.833
41679W        W 9908   8.697  36.345   4.009
41680W        W 9909  12.102   6.723  10.922
41681W        W 9910   4.926  26.962  10.465
41682W        W 9911  14.783  21.911   1.463
41683W        W 9912  24.133  30.553   1.266
41684W        W 9913  27.467  36.957  11.102
41685W        W 9914   1.261  19.685   4.395
41686W        W 9915  21.713  29.469  12.087
41687W        W 9916  41.845  23.079  13.983
41688W        W 9917   7.696  31.366   0.018
41689W        W 9918  34.147   2.512  14.772
41690W        W 9919  11.736  27.311   2.677
41691W        W 9920   2.272  31.574   4.177
41692W        W 9921  29.834   2.802  14.920
41693W        W 9922  24.506   1.600   4.036
41694W        W 9923  22.146   0.524   4.193
41695W        W 9924   4.691  29.041   0.491
41696W        W 9925  27.974  35.014  10.676
41697W        W 9926  19.144  29.623   1.027
41698W        W 9927  33.606  22.643  10.700
41699W        W 9928   1.754  16.227   2.705
41700W        W 9929  22.699  35.545   4.671
41701W        W 9930  16.798  25.543  14.411
41702W        W 9931  40.630   0.323   2.377
41703W        W 9932  12.075  30.935   2.061
41704W        W 9933  37.731  24.183   4.636
41705W        W 9934  15.890  27.877   1.263
41706W        W 9935  23.597   6.168   4.524
41707W        W 9936  42.467  28.632  11.559
41708W        W 9937  33.193  20.030  13.393
41709W        W 9938   8.771  19.398  10.806
41710W        W 9939  18.782  15.530   3.177
41711W        W 9940   0.997   9.439  10.780
41712W        W 9941  35.769  12.429   4.060
41713W        W 9942   9.637   5.411   3.427
41714W        W 9943  39.496  26.030  12.421
41715W        W 9944  23.394  26.632  12.615
41716W        W 9945  44.361  15.629   0.464
41717W        W 9946   1.383  11.204   3.428
41718W        W 9947  36.771  25.468   3.215
41719W        W 9948  30.117  30.652  14.286
41720W        W 9949   6.083   8.574   3.132
41721W        W 9950   3.945  34.287  10.665
41722W        W 9951  41.785  38.791   4.321
41723W        W 9952  15.627  31.391   4.098
41724W        W 9953  37.935  21.075   0.744
41725W        W 9954  36.310  43.956  12.047
41726W        W 9955  24.684   2.417  11.074
41727W        W 9956   3.488  35.878  13.863
41728W        W 9957  24.470  30.625  14.233
41729W        W 9958  10.408  39.372   1.428
41730W        W 9959  38.871  31.167  10.751
41731W        W 9960  12.623  17.564   3.819
41732W        W 9961   0.227  31.988   4.093
41733W        W 9962  23.694  17.192   4.847
41734W        W 9963  15.835  24.694   0.858
41735W        W 9964   8.745  13.759   0.798
41736W        W 9965  41.797  12.673  10.454
41737W        W 9966  34.257  12.742  14.906
41738W        W 9967  21.126  43.949  10.258
41739W        W 9968  32.077  31.352   4.578
41740W        W 9969  16.258  17.282   3.813
41741W        W 9970   5.149  24.553  12.944
41742W        W 9971  11.705  30.970  14.480
41743W        W 9972  15.135  32.113  14.975
41744W        W 9973  26.549  44.032  11.425
41745W        W 9974   8.849  42.700  12.715
41746W        W 9975  43.554  34.256   1.416
41747W        W 9976  21.902  23.607  12.954
41748W        W 9977  44.001  22.092  13.726
41749W        W 9978  44.935  43.285   1.660
41750W        W 9979  28.204  19.761  13.984
41751W        W 9980   0.404  15.819  10.683
41752W        W 9981  37.414   8.922   0.340
41753W        W 9982  29.443  21.355   4.245
41754W        W 9983  36.747  38.787  11.893
41755W        W 9984  32.584  22.275  11.306
41756W        W 9985   7.221  39.352   3.213
41757W        W 9986  42.775  42.812   0.297
41758W        W 9987  22.532  11.107   0.034
41759W        W 9988   5.426  13.657  11.244
41760W        W 9989  10.519  38.965  14.799
41761W        W 9990   8.076  23.953   0.636
41762W        W 9991   7.825   0.217  10.505
41763W        W 9992  11.381  11.248   4.156
41764W        W 9993  41.302  34.082  12.072
41765W        W 9994  36.949   9.814  14.375
41766W        W 9995   5.422  11.649  11.693
41767W        W 9996   8.184  36.863  10.652
41768W        W 9997  15.432  28.893   2.372
41769W        W 9998   3.419  21.805   3.258
41770W        W 9999  30.966   1.127  11.910
41771W        W10000  18.059  30.473   2.231
41772W        W10001  23.758  25.679   1.184
41773W        W10002  11.160  12.486  13.478
41774W        W10003  34.427  25.693   3.294
41775W        W10004  10.939  30.509  12.973
41776W        W10005  16.738  11.365  14.978
41777W        W10006  37.119  13.864   1.744
41778W        W10007   1.225  29.489   2.973
41779W        W10008  18.109   0.214  11.101
41780W        W10009  15.069  28.265  13.551
41781W        W10010  20.190   7.616  14.014
41782W        W10011  11.549  44.101   2.731
41783W        W10012  42.377  10.793   2.114
41784W        W10013  43.969  37.870   0.248
41785W        W10014  17.095  44.378   3.245
41786W        W10015  32.270  31.404   1.455
41787W        W10016  31.158  13.133   1.188
41788W        W10017  29.360  10.553  10.340
41789W        W10018  16.084  26.029   3.544
41790W        W10019  30.553   2.911  12.165
41791W        W10020  28.184   3.676   2.139
41792W        W10021   2.163  26.481   3.810
41793W        W10022  35.994  29.390   1.360
41794W        W10023   6.768  32.625  12.735
41795W        W10024  36.080  40.589   4.272
41796W        W10025   1.256  27.022  13.256
41797W        W10026   2.359  35.430  11.561
41798W        W10027  14.448  40.899  13.055
41799W        W10028  11.423  38.844  10.604
41800W        W10029  12.851   3.307  14.618
41801W        W10030  42.265  33.794  12.028
41802W        W10031  30.565  15.769   4.549
41803W        W10032  30.500   1.439   3.610
41804W        W10033  44.179   5.049   1.529
41805W        W10034  40.117   4.781   0.901
41806W        W10035  25.211  36.234  10.101
41807W        W10036  31.052  10.990   1.124
41808W        W10037  44.430   8.839  10.771
41809W        W10038  18.089   3.081  11.540
41810W        W10039   9.840  40.979  13.979
41811W        W10040  25.046   9.647   0.581
41812W        W10041   4.670  13.674   3.100
41813W        W10042   9.381  25.269   2.329
41814W        W10043  28.900  31.652  12.450
41815W        W10044   9.968   6.795   3.346
41816W        W10045  12.809  36.709  13.774
41817W        W10046  22.890  25.689  11.263
41818W        W10047  10.707   6.244  13.007
41819W        W10048   0.206   6.540  11.120
41820W        W10049  14.359  43.739  12.058
41821W        W10050  13.105  15.580  10.647
41822W        W10051  20.216  13.876  11.197
41823W        W10052   2.369  30.926  10.717
41824W        W10053  43.703  31.930  12.134
41825W        W10054  15.257   4.948  10.840
41826W        W10055  10.846  11.359   3.151
41827W        W10056  31.713   8.300   2.222
41828W        W10057  23.021  24.088   1.212
41829W        W10058  27.962  43.722  10.676
41830W        W10059   4.709  35.719   0.894
41831W        W10060  36.399   1.712   4.572
41832W        W10061  35.904  24.390   1.738
41833W        W10062  29.103   9.727   4.389
41834W        W10063  25.573   8.191  13.343
41835W        W10064  19.493  43.257  11.584
41836W        W10065  24.263   1.761  10.623
41837W        W10066   0.650  33.404  11.294
41838W        W10067  13.620  23.216   0.870
41839W        W10068   6.250  28.574  13.969
41840W        W10069  34.224  12.986   2.921
41841W        W10070   6.754  44.752   0.451
41842W        W10071   0.407  23.216  12.934
41843W        W10072   5.473  37.140  10.510
41844W        W10073   7.097  13.169   4.415
41845W        W10074  33.876  41.752  12.647
41846W        W10075   0.235  35.139  12.117
41847W        W10076  41.999  16.660  14.808
41848W        W10077  18.378  37.023  13.544
41849W        W10078  31.392  18.268   3.989
41850W        W10079  40.417  43.937   0.002
41851W        W10080  28.158  17.477  10.660
41852W        W10081  14.663  23.000   3.434
41853W        W10082  20.000  21.176  12.841
41854W        W10083   6.258  35.396  13.311
41855W        W10084  14.025  34.050  12.425
41856W        W10085  19.287  24.945  12.478
41857W        W10086  25.511  14.788  10.520
41858W        W10087  19.977  43.694   3.851
41859W        W10088   5.374  20.559  13.331
41860W        W10089  25.706  36.822   0.832
41861W        W10090  23.542   0.441   0.526
41862W        W10091  18.672  36.037   3.581
41863W        W10092  23.209  15.357  11.961
41864W        W10093   2.731  18.043   2.379
41865W        W10094  10.616  44.910  12.076
41866W        W10095  17.409   9.310   4.074
41867W        W10096  43.290   0.200   4.502
41868W        W10097  25.131  28.478   0.006
41869W        W10098  42.035  31.142   5.122
41870W        W10099  12.045  21.703   1.424
41871W        W10100  44.429  36.029   1.225
41872W        W10101   1.577  35.922  13.852
41873W        W10102  12.029   1.719   2.914
41874W        W10103  25.398  34.943   4.542
41875W        W10104  32.543   8.168   3.490
41876W        W10105  37.444  26.917   3.100
41877W        W10106  15.135  33.604   4.157
41878W        W10107  13.290  37.607  12.845
41879W        W10108  19.562  25.117   4.599
41880W        W10109   8.822   0.442  13.819
41881W        W10110  40.562  25.650   1.472
41882W        W10111  12.399   4.101  12.975
41883W        W10112  42.700  15.876  10.172
41884W        W10113  18.045  39.402  11.255
41885W        W10114  17.703  40.430  13.510
41886W        W10115   7.861  41.453  14.857
41887W        W10116  39.443  26.577  14.467
41888W        W10117   3.916  19.114   0.530
41889W        W10118  31.037   1.056  12.802
41890W        W10119   5.864   0.951   1.142
41891W        W10120  30.758  38.992   1.766
41892W        W10121  39.866  43.015   3.292
41893W        W10122  32.242  19.097  14.521
41894W        W10123  23.222   9.305   4.391
41895W        W10124  44.566  38.932   4.124
41896W        W10125  37.042  11.602  10.759
41897W        W10126  37.757  36.186   0.883
41898W        W10127   8.430  38.937  11.051
41899W        W10128   7.161  26.841   3.547
41900W        W10129  11.736  33.598  14.126
41901W        W10130   5.168  38.164  12.785
41902W        W10131  13.096  27.930  10.633
41903W        W10132  19.783   1.265   1.192
41904W        W10133  16.682  41.272  10.514
41905W        W10134  13.174  21.633   1.654
41906W        W10135  30.948  21.717   2.880
41907W        W10136  29.046  39.814   2.773
41908W        W10137  16.140  23.495  13.922
41909W        W10138  12.668   4.219   1.844
41910W        W10139  31.911  25.771   1.835
41911W        W10140  15.002   3.838  12.452
41912W        W10141  33.888  44.553   3.372
41913W        W10142  21.915  34.020   3.605
41914W        W10143  24.018  39.625   3.580
41915W        W10144  34.239   7.869   3.699
41916W        W10145  25.243  19.661  10.103
41917W        W10146  20.523  41.414  11.894
41918W        W10147   9.033  33.413  14.264
41919W        W10148  20.491   5.377   4.070
41920W        W10149  17.028  34.714   0.467
41921W        W10150  42.337  27.521  13.282
41922W        W10151  25.686  25.546   1.784
41923W        W10152  38.499   2.209  12.003
41924W        W10153  43.331  11.867   4.724
41925W        W10154  44.103  17.787  11.124
41926W        W10155  29.366  28.196  12.551
41927W        W10156  37.461  17.560  10.711
41928W        W10157  39.118  15.830  11.063
41929W        W10158  43.977  33.674   2.740
41930W        W10159  40.630  28.639  13.130
41931W        W10160  16.807   7.406  12.387
41932W        W10161  39.905  21.684   1.443
41933W        W10162  14.712  13.355  12.520
41934W        W10163  14.260  24.724  10.623
41935W        W10164  19.154  30.001  11.684
41936W        W10165  27.365  40.601  13.989
41937W        W10166  19.472   0.476  12.400
41938W        W10167  42.960  33.965  14.349
41939W        W10168  28.538  23.549  14.893
41940W        W10169  35.768  26.702   2.090
41941W        W10170  43.068  28.545  10.643
41942W        W10171  13.134  14.805   2.866
41943W        W10172   0.365  27.202  13.858
41944W        W10173  33.110  34.881  12.810
41945W        W10174  17.649  17.844  12.111
41946W        W10175  33.494  21.599  11.831
41947W        W10176   1.539  10.219   3.045
41948W        W10177  33.954  12.576  10.478
41949W        W10178  18.427  33.818   0.989
41950W        W10179   8.766  21.065   4.839
41951W        W10180  34.372  14.662   3.554
41952W        W10181  38.747  19.305   0.359
41953W        W10182  16.176  27.420  13.824
41954W        W10183  32.526  28.186  11.615
41955W        W10184   2.367  36.447   1.759
41956W        W10185  19.617  35.295  10.680
41957W        W10186  10.744  32.577  11.135
41958W        W10187  13.181  18.659   0.188
41959W        W10188   5.055   3.137  10.996
41960W        W10189  43.158  35.879  13.400
41961W        W10190  38.916  41.788  10.755
41962W        W10191  43.690  20.297  11.078
41963W        W10192  19.833  24.057  12.359
41964W        W10193  22.729  42.023  14.961
41965W        W10194  28.960  33.988  12.727
41966W        W10195  14.070  36.880   4.123
41967W        W10196   3.940   5.671   3.766
41968W        W10197   9.317  41.189  14.893
41969W        W10198   8.050  32.303  11.606
41970W        W10199  19.995  39.232   0.019
41971W        W10200   0.469   6.349   3.410
41972W        W10201   1.956   3.192  12.541
41973W        W10202  30.388  28.530   3.047
41974W        W10203   3.935   1.660   3.300
41975W        W10204  27.435  26.590   0.990
41976W        W10205  12.042   8.285  14.247
41977W        W10206  16.142  17.272  12.088
41978W        W10207  22.501  19.799   4.999
41979W        W10208  39.615   9.413   1.908
41980W        W10209  13.638   5.231   2.055
41981W        W10210  17.687  29.706  11.980
41982W        W10211  17.700   0.269  10.726
41983W        W10212  37.580   3.108   1.317
41984W        W10213  41.520   1.476  13.354
41985W        W10214  37.770  44.116   1.741
41986W        W10215  42.935  12.599  13.923
41987W        W10216   7.712  14.336   4.194
41988W        W10217  13.759  40.714  13.414
41989W        W10218   2.332  25.687   3.280
41990W        W10219   1.194  19.158   0.828
41991W        W10220  15.496   5.853  11.333
41992W        W10221  13.869  11.566   0.862
41993W        W10222  39.077   5.035  13.521
41994W        W10223  44.072   2.945   3.472
41995W        W10224   0.292  43.944  11.054
41996W        W10225  44.250  15.581  10.305
41997W        W10226  12.424  40.648  14.987
41998W        W10227  33.078  41.997   2.309
41999W        W10228  25.247  37.434  12.993
42000W        W10229  30.677  29.923  11.449
42001W        W10230  21.172  36.004  11.664
42002W        W10231  29.329  39.402   0.185
42003W        W10232   6.831  40.372  12.453
42004W        W10233   5.895  24.172   1.055
42005W        W10234  37.939   5.567  12.532
42006W        W10235  39.697  21.748   3.695
42007W        W10236  26.610  25.626   1.650
42008W        W10237  20.053  32.648  14.926
42009W        W10238  22.092  10.070  13.451
42010W        W10239  38.538  37.523   4.556
42011W        W10240  42.358  40.991  12.593
42012W        W10241  41.857   3.921  14.797
42013W        W10242  23.678  30.855   0.358
42014W        W10243  27.045  29.526  10.820
42015W        W10244  12.603  18.513   1.022
42016W        W10245   1.383  44.018   1.409
42017W        W10246  21.449  25.609   2.123
42018W        W10247   8.219   3.738   1.074
42019W        W10248  35.972  30.503  14.281
42020W        W10249   7.929  25.534  10.443
42021W        W10250  44.740  37.368  10.319
42022W        W10251  31.208  36.126  11.906
42023W        W10252  26.939  12.702  11.140
42024W        W10253  36.058  41.771   3.604
42025W        W10254   7.832  11.878  13.405
42026W        W10255  30.763   2.193   3.080
42027W        W10256  41.398  38.274   1.247
42028W        W10257   1.781  24.015  11.225
42029W        W10258  34.620  17.193   3.777
42030W        W10259  40.103  41.676  13.862
42031W        W10260  31.279  43.524  12.066
42032W        W10261  16.621  23.739   1.258
42033W        W10262  34.964  36.946   1.877
42034W        W10263  26.610   9.868   0.901
42035W        W10264  16.818   5.678   2.785
42036W        W10265  21.148  33.729   3.908
42037W        W10266  16.593  43.071   2.719
42038W        W10267   5.709  14.736   2.331
42039W        W10268   1.270   4.742   2.677
42040W        W10269  23.516  40.278  10.946
42041W        W10270  19.551   3.527   0.335
42042W        W10271   5.865  43.482   4.064
42043W        W10272  11.839   8.740  14.036
42044W        W10273  14.077  12.505  10.644
42045W        W10274   8.425   8.502  13.025
42046W        W10275  17.621  12.143   3.871
42047W        W10276  34.241   6.937  11.610
42048W        W10277  40.859  12.351  12.077
42049W        W10278  43.423   1.570   0.010
42050W        W10279   4.865  42.529   2.127
42051W        W10280  34.467   7.858  12.882
42052W        W10281  12.281  33.534   1.957
42053W        W10282  24.299  23.093   2.167
42054W        W10283  13.641  44.793   0.433
42055W        W10284   9.356   6.898   1.331
42056W        W10285  29.535  21.205  12.514
42057W        W10286  18.796  20.061   2.340
42058W        W10287  20.610  31.641   1.924
42059W        W10288   7.063  36.393   3.387
42060W        W10289  28.033  14.644  13.058
42061W        W10290  26.641  14.673  12.131
42062W        W10291   8.890  12.734   3.937
42063W        W10292  31.149  24.246   0.569
42064W        W10293  18.195  10.881  14.365
42065W        W10294  39.732  10.231   0.285
42066W        W10295  39.030   1.294   2.159
42067W        W10296  35.125  40.560   1.230
42068W        W10297  34.604  18.224  13.315
42069W        W10298  22.358  12.714  10.221
42070W        W10299  37.002  10.570   0.821
42071W        W10300  40.228  37.527   4.203
42072W        W10301  23.580  15.259   4.493
42073W        W10302  30.825  38.402   4.251
42074W        W10303  21.248  35.440  11.121
42075W        W10304  42.923   1.075  12.878
42076W        W10305  18.310  17.855   2.956
42077W        W10306   2.565  41.428  12.908
42078W        W10307  18.876   5.021  10.387
42079W        W10308  34.981   4.704  10.715
42080W        W10309  18.854   3.481   3.317
42081W        W10310   6.723  42.594  10.749
42082W        W10311  39.944  37.868  12.573
42083W        W10312  24.985  27.709  12.603
42084W        W10313  40.573   9.070  12.041
42085W        W10314  24.527  37.867   3.563
42086W        W10315   6.198  40.441   3.766
42087W        W10316  38.386  11.884  11.342
42088W        W10317  36.883  20.799   0.387
42089W        W10318  41.430  39.002  10.623
42090W        W10319  18.778  40.643   1.307
42091W        W10320   6.955  28.217  13.811
42092W        W10321   8.105   9.553   2.914
42093W        W10322   5.362  17.194  12.009
42094W        W10323  31.492   3.029   0.437
42095W        W10324   1.331  40.302  14.726
42096W        W10325   1.389  40.126   4.096
42097W        W10326  22.698  37.225  12.043
42098W        W10327   4.300  44.289   0.015
42099W        W10328  10.180  15.307  12.597
42100W        W10329  43.739  28.424   4.038
42101W        W10330  39.490  10.508   1.926
42102W        W10331  20.673   9.460  12.388
42103W        W10332  37.821  21.498   1.562
42104W        W10333  34.571  17.067  10.249
42105W        W10334  28.084   1.939  14.630
42106W        W10335  29.865  42.856   4.122
42107W        W10336  31.932   7.362  12.260
42108W        W10337  23.742  33.022  10.735
42109W        W10338  12.841  10.627   1.303
42110W        W10339   6.227   9.059  13.786
42111W        W10340  26.666   1.236   2.687
42112W        W10341  39.811  29.054   0.917
42113W        W10342   6.953  40.037  14.288
42114W        W10343  23.105  44.201  11.875
42115W        W10344  26.292  39.894  14.956
42116W        W10345  18.287  13.841  13.410
42117W        W10346  21.290  18.108  14.032
42118W        W10347  44.201  43.896   0.101
42119W        W10348  25.684  35.619   4.162
42120W        W10349  30.155  20.613  12.134
42121W        W10350   1.330  41.413   2.669
42122W        W10351  14.898  10.898   5.039
42123W        W10352  42.167  12.120  11.535
42124W        W10353  10.151  38.487  11.917
42125W        W10354   0.939  39.874   4.370
42126W        W10355  43.583  42.040  13.848
42127W        W10356  32.822   4.723  11.127
42128W        W10357   8.156  35.989   1.834
42129W        W10358  35.404  39.642  12.803
42130W        W10359  25.499  27.775   0.426
42131W        W10360  13.500  24.127  10.399
42132W        W10361  17.764  30.905   2.386
42133W        W10362   3.221  21.588   2.788
42134W        W10363  10.583  29.626  12.565
42135W        W10364  31.918  35.484   0.441
42136W        W10365  20.088  13.930   1.635
42137W        W10366  41.926  23.115  11.040
42138W        W10367  40.484  15.090   1.968
42139W        W10368  21.250  34.551   1.472
42140W        W10369  27.226  24.628   0.474
42141W        W10370  37.967   9.337  12.887
42142W        W10371   3.501   7.927  14.892
42143W        W10372  30.526  18.797  11.549
42144W        W10373  31.451   9.336  12.470
42145W        W10374  26.185  39.314   2.895
42146W        W10375  15.283  11.455   4.245
42147W        W10376  13.065   3.347  12.161
42148W        W10377  36.035   9.879  14.914
42149W        W10378  19.673   8.246  14.838
42150W        W10379  41.115  15.146   4.583
42151W        W10380  34.077  20.924  14.323
42152W        W10381   4.541  20.917  14.975
42153W        W10382  37.897  36.287  12.565
42154W        W10383  29.174  21.277   0.367
42155W        W10384  36.051   4.238  10.551
42156W        W10385  17.808   7.785  13.833
42157W        W10386  15.058  14.173   2.241
42158W        W10387   5.868  32.846   4.103
42159W        W10388  34.969  21.168  12.675
42160W        W10389  29.607  13.108   0.725
42161W        W10390  29.409  14.065  11.615
42162W        W10391  25.147  14.981   5.016
42163W        W10392  42.025  25.048   0.211
42164W        W10393  16.591  39.006  10.696
42165W        W10394  35.533  42.357   3.279
42166W        W10395  42.916   1.227  11.600
42167W        W10396  16.361  38.699   2.263
42168W        W10397   4.300   2.462   3.339
42169W        W10398  34.414  22.280   3.937
42170W        W10399   3.261   0.499  12.101
42171W        W10400  13.686  14.577  11.430
42172W        W10401   2.019  25.549  11.995
42173W        W10402   4.978  42.984   4.275
42174W        W10403  37.042  39.800  11.671
42175W        W10404  41.456  42.896  13.827
42176W        W10405  11.120   6.967   3.725
42177W        W10406  11.317   5.771   3.340
42178W        W10407   3.318   4.417  14.317
42179W        W10408  25.725  38.565   2.275
42180W        W10409  22.245   2.784  11.667
42181W        W10410  35.005   1.205   3.827
42182W        W10411   8.752  25.949  11.055
42183W        W10412  33.985   7.927  13.071
42184W        W10413  30.130  39.056  14.909
42185W        W10414  40.606  14.108   0.864
42186W        W10415  35.199   6.951  10.026
42187W        W10416  28.733   6.702  12.406
42188W        W10417  11.850  43.473   3.712
42189W        W10418  34.292  30.429   2.225
42190W        W10419  19.115  31.098   1.815
42191W        W10420  34.952  33.837   1.844
42192W        W10421  38.424   1.088   3.156
42193W        W10422  34.150  36.017   2.345
42194W        W10423  42.017  14.334   5.178
42195W        W10424   5.220  12.752   1.346
42196W        W10425  12.572  44.751   3.677
42197W        W10426  33.170  40.984   0.867
42198W        W10427  12.755  17.832  12.162
42199W        W10428  27.392  15.731  13.087
42200W        W10429   0.222  21.643   3.818
42201W        W10430  15.535  18.669   3.228
42202W        W10431  32.934  26.436  10.723
42203W        W10432   3.797   1.516  12.331
42204W        W10433  12.146  33.416  12.924
42205W        W10434  14.216  24.210  13.352
42206W        W10435   5.483   9.809   4.466
42207W        W10436  11.485  22.179  13.055
42208W        W10437  17.741  20.568   3.771
42209W        W10438  18.746  16.813   2.328
42210W        W10439  30.496  40.316   1.966
42211W        W10440   4.442  26.989  13.031
42212W        W10441  44.738   8.355  14.833
42213W        W10442   6.722  27.465  12.838
42214W        W10443  14.316  42.224   0.555
42215W        W10444   8.719  13.203  12.399
42216W        W10445  35.346   4.971   1.519
42217W        W10446   6.790   7.673  10.809
42218W        W10447  28.398  27.621   3.655
42219W        W10448  34.729  33.583  12.505
42220W        W10449  28.372  15.575   0.237
42221W        W10450  17.643   5.434   4.549
42222W        W10451  27.080  22.486   0.701
42223W        W10452  43.417  28.899  10.894
42224W        W10453   8.261  20.734  14.145
42225W        W10454  23.575  12.304  12.078
42226W        W10455   1.194  14.847  12.430
42227W        W10456  28.624  29.144  12.997
42228W        W10457   0.328  41.438  14.096
42229W        W10458  13.474  15.208   1.046
42230W        W10459  26.482  29.017   3.699
42231W        W10460  28.903  31.932  14.391
42232W        W10461  15.387  27.724   2.874
42233W        W10462  34.351   3.244  13.939
42234W        W10463  40.761  28.971  12.006
42235W        W10464  18.249  43.343  12.525
42236W        W10465  30.148  12.633   1.977
42237W        W10466  41.487  16.141  12.089
42238W        W10467  40.458  29.099   2.847
42239W        W10468  23.954  29.461  13.605
42240W        W10469  21.920  29.674  13.539
42241W        W10470  33.330   5.682  14.879
42242W        W10471  39.798  41.880  12.506
42243W        W10472  29.753  10.881   0.394
42244W        W10473  21.199  43.721  10.718
42245W        W10474  14.986  18.424   4.305
42246W        W10475  36.552  12.445   3.802
42247W        W10476  34.107  41.958  11.149
42248W        W10477  16.072   9.707   4.118
42249W        W10478  43.312  38.405   4.059
42250W        W10479  12.415  43.950   1.879
42251W        W10480  11.300  31.487  11.511
42252W        W10481  20.085  43.545   1.633
42253W        W10482  22.644   6.229   0.760
42254W        W10483   6.966  24.713   2.416
42255W        W10484   9.689  20.846  10.858
42256W        W10485  27.091  33.597   3.094
42257W        W10486  41.726  38.914  11.047
42258W        W10487  12.562  17.706   1.480
42259W        W10488  12.931  10.244   4.070
42260W        W10489   0.983  15.617  14.238
42261W        W10490  16.869  23.245  14.917
42262W        W10491  15.174   1.953   3.671
42263W        W10492  37.298  18.222  13.847
42264W        W10493  38.841  22.503  11.210
42265W        W10494   4.565  44.208   4.979
42266W        W10495   9.906  29.678  10.651
42267W        W10496  15.145  44.318  13.909
42268W        W10497  44.309  29.015  13.907
42269W        W10498   0.109  44.041  13.951
42270W        W10499  19.562  30.992   2.789
42271W        W10500  33.182  41.468   0.678
42272W        W10501  37.612  38.559   0.695
42273W        W10502   3.206   5.909  14.035
42274W        W10503  30.453  37.444  10.594
42275W        W10504  44.950  17.089   3.963
42276W        W10505  15.069   9.738   4.107
42277W        W10506  20.534  10.198  13.815
42278W        W10507  43.589  41.612   3.163
42279W        W10508  37.916  28.493   3.153
42280W        W10509  35.824  29.072  14.283
42281W        W10510  19.068   8.754   0.196
42282W        W10511  16.098  10.199  12.675
42283W        W10512  31.439   0.361  12.110
42284W        W10513  25.953  25.593   2.431
42285W        W10514   2.536  17.721  13.831
42286W        W10515  32.178   3.065  14.053
42287W        W10516  39.302  14.261  12.097
42288W        W10517  34.139  28.399   4.640
42289W        W10518  19.663   7.182  12.623
42290W        W10519   7.251   3.947  13.138
42291W        W10520  22.792   7.226   0.360
42292W        W10521  21.809  35.290   1.255
42293W        W10522  21.562   2.698   4.047
42294W        W10523   5.440  22.069  13.380
42295W        W10524   5.298  30.678   1.490
42296W        W10525  10.649  43.077  14.079
42297W        W10526  19.502   8.828   1.017
42298W        W10527  36.928  18.009  11.994
42299W        W10528  37.333   9.132   0.813
42300W        W10529  15.418  39.960   0.192
42301W        W10530  13.092  30.715  11.446
42302W        W10531  42.164  11.627   2.236
42303W        W10532  18.256  18.785  12.092
42304W        W10533  40.680  26.233   2.795
42305W        W10534  16.660   2.495  11.031
42306W        W10535   0.850   4.277  14.528
42307W        W10536   2.883  38.381   0.266
42308W        W10537  11.625  28.327  13.598
42309W        W10538   9.737  25.095  12.424
42310W        W10539  20.490  34.026   0.949
42311W        W10540  10.343  15.665   1.768
42312W        W10541  41.781  20.168   2.232
42313W        W10542  43.063   3.996  11.195
42314W        W10543  14.230  23.702  14.515
42315W        W10544  11.355  37.844  11.895
42316W        W10545   1.839  22.515  12.076
42317W        W10546  41.759  21.101  10.767
42318W        W10547  10.646  39.457   4.267
42319W        W10548  22.667  44.004   3.114
42320W        W10549  17.849  21.998  10.678
42321W        W10550  43.978  29.832  12.480
42322W        W10551  26.822  38.584   1.861
42323W        W10552  23.835  34.844   3.201
42324W        W10553  13.968  10.302  10.660
42325W        W10554  44.536  39.630   0.343
42326W        W10555  13.810  35.587  14.312
42327W        W10556   2.734  20.205  14.436
42328W        W10557  10.925   4.299   0.351
42329W        W10558   1.895   8.113  10.761
42330W        W10559  14.324  11.543  14.520
42331W        W10560  16.213  24.769   1.832
42332W        W10561  16.357   1.932  11.904
42333W        W10562  41.299   4.967  12.555
42334W        W10563  31.265   6.424  13.790
42335W        W10564  10.265  32.810  13.561
42336W        W10565  11.712  38.433   2.375
42337W        W10566  11.359  24.132  10.684
42338W        W10567  22.176  33.470   1.899
42339W        W10568  19.058  25.076  11.149
42340W        W10569  27.742  44.158  11.564
42341W        W10570   9.137  10.202   1.309
42342W        W10571  13.282  37.506   4.143
42343W        W10572   8.338   2.922  13.951
42344W        W10573  43.906  15.942  13.442
42345W        W10574   2.143   7.417   2.608
42346W        W10575  36.891  43.265   4.739
42347W        W10576   2.381   7.837   2.759
42348W        W10577  13.779  13.886   0.383
42349W        W10578  17.167  40.399  12.336
42350W        W10579  18.046  35.981  13.088
42351W        W10580   2.734  35.922   2.656
42352W        W10581   2.509  12.751   4.230
42353W        W10582  26.414  22.750   4.927
42354W        W10583  38.757   7.940   3.151
42355W        W10584  27.917  12.675  11.048
42356W        W10585  30.383  16.138   3.700
42357W        W10586   5.358  39.566   4.894
42358W        W10587  33.368  26.743  13.062
42359W        W10588  20.255  21.508   2.704
42360W        W10589  37.561  38.130  10.635
42361W        W10590  22.676  21.633  11.291
42362W        W10591  12.081  37.899  10.791
42363W        W10592  30.630  33.831  11.088
42364W        W10593  17.155   8.450   1.751
42365W        W10594   7.442  34.163  10.781
42366W        W10595   8.438  39.494  12.879
42367W        W10596  33.751  27.786   1.904
42368W        W10597  27.176  21.214   0.382
42369W        W10598  34.088  12.766   4.672
42370W        W10599   1.704  27.175  13.463
42371W        W10600   3.353  19.817  12.115
42372W        W10601  20.699   1.284  14.031
42373W        W10602  34.867  17.811   5.547
42374W        W10603  27.285   1.972  13.451
42375W        W10604  14.502   7.462  12.182
42376W        W10605  26.005  30.428   2.279
42377W        W10606  34.545  33.050   3.351
42378W        W10607  26.914  35.290  12.163
42379W        W10608   3.958  34.299   4.994
42380W        W10609  35.371  37.833  13.894
42381W        W10610  29.187  13.887  13.965
42382W        W10611  14.860  37.041  12.006
42383W        W10612  14.289   2.143  10.897
42384W        W10613   5.276  14.846  13.398
42385W        W10614   8.133  39.933  11.554
42386W        W10615  38.980  31.743   2.273
42387W        W10616  10.182  16.361   4.477
42388W        W10617  13.356  29.149  14.675
42389W        W10618  22.580  44.783  11.799
42390W        W10619  20.803  24.807   1.332
42391W        W10620  26.950   2.289   1.875
42392W        W10621  17.082  11.814   0.010
42393W        W10622  34.920  15.189   3.057
42394W        W10623   5.418   7.589   0.457
42395W        W10624  12.463  28.519   1.137
42396W        W10625   8.937   0.260   4.096
42397W        W10626  32.640  43.434  12.863
42398W        W10627  15.455  12.396   5.036
42399W        W10628  36.031  44.401  11.315
42400W        W10629  14.285  35.338  11.145
42401W        W10630  38.995   5.401  11.189
42402W        W10631  36.925  25.769   2.835
42403W        W10632  43.935  14.095  12.846
42404W        W10633  25.984  22.922   0.811
42405W        W10634  17.128  33.919  13.961
42406W        W10635  32.868  14.751  11.134
42407W        W10636  20.167   4.365  13.055
42408W        W10637  38.838   0.173   1.828
42409W        W10638  30.997  18.497  10.621
42410W        W10639  29.431  18.566  12.507
42411W        W10640  14.186   8.352  12.516
42412W        W10641   0.722  24.023  11.864
42413W        W10642  20.596  18.657  12.844
42414W        W10643  18.265  34.810   4.062
42415W        W10644  43.941  10.644   1.391
42416W        W10645  35.081  15.840   0.764
42417W        W10646  22.553  43.928  11.957
42418W        W10647  15.141  11.146  12.845
42419W        W10648  29.186  37.229  12.964
42420W        W10649   4.235   8.381  12.547
42421W        W10650  18.634  32.464   4.198
42422W        W10651  36.362   7.274   0.830
42423W        W10652  27.778  27.216   5.215
42424W        W10653  16.131   4.901   2.730
42425W        W10654  23.002  27.661  11.597
42426W        W10655  24.819  21.553   3.115
42427W        W10656  17.151  26.298   4.930
42428W        W10657  20.921  16.877  12.513
42429W        W10658  42.697  37.938   2.807
42430W        W10659  28.234  38.189   4.951
42431W        W10660  27.544  18.065  14.251
42432W        W10661  29.646  21.743   3.842
42433W        W10662  21.390   8.386   3.709
42434W        W10663  23.462  31.460   3.685
42435W        W10664   1.562  16.618  11.403
42436W        W10665   7.397  30.376  12.678
42437W        W10666   6.352   9.416  14.754
42438W        W10667  23.563  22.703  10.658
42439W        W10668  18.480  34.945  11.123
42440W        W10669  17.121  10.706  14.854
42441W        W10670  43.356  38.009  13.536
42442W        W10671  33.269  36.900  13.025
42443W        W10672   5.240   0.513   1.881
42444W        W10673  11.775   0.025   4.904
42445W        W10674  44.246  30.707  10.110
42446W        W10675  27.612   7.311  12.586
42447W        W10676   2.165  21.973  13.845
42448W        W10677  28.089  27.741  10.370
42449W        W10678  29.042  32.378   0.204
42450W        W10679  29.564  35.094  10.635
42451W        W10680  13.685   8.859   3.575
42452W        W10681  28.909   4.960   1.656
42453W        W10682  29.043  42.432  12.016
42454W        W10683  43.064  11.286   1.583
42455W        W10684  19.828  16.194   3.836
42456W        W10685  36.672   2.159   1.131
42457W        W10686  27.219  22.831   4.169
42458W        W10687  25.388  26.445   2.140
42459W        W10688  27.942  12.779  14.483
42460W        W10689  33.609  26.082   3.075
42461W        W10690  29.660   1.529   3.690
42462W        W10691  12.430  30.559   4.141
42463W        W10692  42.052  23.154   4.891
42464W        W10693  22.999  14.717   1.168
42465W        W10694  38.913  33.078   3.341
42466W        W10695   3.718  26.014  14.484
42467W        W10696  44.722  22.565   0.704
42468W        W10697  16.603  39.062  13.113
42469W        W10698  13.041  43.367  13.356
42470W        W10699  10.375  21.006   3.201
42471W        W10700  33.182  37.412  12.922
42472W        W10701  24.577  12.748   1.503
42473W        W10702   2.516  12.737  14.060
42474W        W10703  21.733  28.699  12.857
42475W        W10704  31.922  20.199   9.678
42476W        W10705  29.432  29.132  13.618
42477W        W10706   3.755  44.428   1.358
42478W        W10707  17.327  16.657   2.540
42479W        W10708  22.058  43.510  13.036
42480W        W10709   0.409  26.124  10.779
42481W        W10710  42.749  29.055   0.877
42482W        W10711  20.093  33.800   1.220
42483W        W10712   4.094  32.472   3.481
42484W        W10713  38.542  12.296  11.612
42485W        W10714  37.130  12.343  13.008
42486W        W10715   5.280  10.606   0.790
42487W        W10716  12.728  36.621   2.099
42488W        W10717  26.206  32.685   2.920
42489W        W10718  31.597  32.499   0.969
42490W        W10719  25.115  24.134  12.563
42491W        W10720  31.652  26.003   0.446
42492W        W10721  14.318  23.875  12.930
42493W        W10722  23.483   8.432  12.415
42494W        W10723  43.743   2.556   3.560
42495W        W10724  41.306  38.512  14.423
42496W        W10725  33.054  25.700  13.349
42497W        W10726  24.425  23.070   4.404
42498W        W10727  30.440  37.128  13.580
42499W        W10728  30.615  11.264  10.220
42500W        W10729   4.882  35.892  12.464
42501W        W10730  44.833  24.236  13.468
42502W        W10731  26.596   9.460   3.384
42503W        W10732   6.230  13.385  13.968
42504W        W10733  11.550   1.021  12.311
42505W        W10734  15.542  38.801   0.262
42506W        W10735   6.910   7.837  13.813
42507W        W10736  30.506  19.639   1.897
42508W        W10737  22.943  11.308   1.892
42509W        W10738  25.189   0.043   2.782
42510W        W10739  42.998   2.872  10.641
42511W        W10740  21.185  27.063   4.535
42512W        W10741   9.946  18.159  11.662
42513W        W10742   7.897  35.919  12.545
42514W        W10743  37.275  23.314  12.901
42515W        W10744   1.947  42.894  12.832
42516W        W10745  44.438   6.894  14.916
42517W        W10746  30.238  14.726  13.840
42518W        W10747   2.067  37.838  14.632
42519W        W10748  29.162  10.293   1.224
42520W        W10749   7.230  16.428  13.856
42521W        W10750  30.178  25.302   0.780
42522W        W10751  41.659  28.421   2.695
42523W        W10752  34.445   9.612   5.052
42524W        W10753   3.705  39.302   1.410
42525W        W10754  33.570  25.551   0.341
42526W        W10755  23.319  44.030  11.003
42527W        W10756  14.550   0.908  11.104
42528W        W10757   2.669   7.302  11.981
42529W        W10758   4.710  35.344  10.286
42530W        W10759   9.346  34.385  10.896
42531W        W10760  12.488   2.455   3.503
42532W        W10761  16.358  15.126  11.611
42533W        W10762   6.653  20.477   4.153
42534W        W10763   6.272  38.631   2.720
42535W        W10764   0.466  29.611   3.912
42536W        W10765  21.906  10.275  12.530
42537W        W10766  18.041  36.337  10.993
42538W        W10767  32.625  22.796   3.185
42539W        W10768  11.297  27.782   0.901
42540W        W10769  25.724   8.377  14.386
42541W        W10770   5.292  21.927   0.941
42542W        W10771  44.793  36.074   4.551
42543W        W10772  13.388  43.944   4.089
42544W        W10773  39.430   6.191  14.646
42545W        W10774  11.128  36.999   2.416
42546W        W10775   1.483  20.048  11.065
42547W        W10776   6.120  40.375  11.192
42548W        W10777  30.595  28.080  11.035
42549W        W10778  34.484  32.192  14.924
42550W        W10779  11.872  31.458  12.192
42551W        W10780  43.239   3.711   2.232
42552W        W10781  30.139  21.723  11.473
42553W        W10782   5.516   6.160   1.356
42554W        W10783  40.254  17.809   3.651
42555W        W10784  28.557  12.406   1.247
42556W        W10785  28.773   0.847   4.790
42557W        W10786  34.856  13.231   0.281
42558W        W10787  29.164  17.985  11.324
42559W        W10788  20.863  14.215   0.984
42560W        W10789  14.670  20.509  11.492
42561W        W10790   1.420  35.064  13.907
42562W        W10791  37.803  32.571  12.108
42563W        W10792  26.904   8.402   0.890
42564W        W10793  28.496  21.979   4.603
42565W        W10794  21.900  14.686  13.758
42566W        W10795  32.086  25.439  14.884
42567W        W10796  11.274  44.764  13.973
42568W        W10797  30.033  31.805  10.652
42569W        W10798  11.111  21.811   0.664
42570W        W10799   4.641  10.991   5.160
42571W        W10800   0.174  40.612   2.563
42572W        W10801  40.793   5.244   3.629
42573W        W10802  37.238  15.013  11.966
42574W        W10803   7.300  29.132   4.167
42575W        W10804   3.176  25.240  11.580
42576W        W10805  11.071  31.479  14.079
42577W        W10806  22.913   8.664   0.371
42578W        W10807  32.502  36.062   4.608
42579W        W10808  20.263   4.156  13.502
42580W        W10809  39.070  33.159  11.612
42581W        W10810   0.872  41.203  12.320
42582W        W10811  20.894  20.187  14.210
42583W        W10812  21.211  26.072   2.246
42584W        W10813  31.868   2.729  13.144
42585W        W10814  13.124  38.010   2.490
42586W        W10815   0.300  34.666  11.908
42587W        W10816   3.676  26.891  11.982
42588W        W10817  19.216  39.731   1.277
42589W        W10818  40.057  26.703  10.601
42590W        W10819  19.095  22.484  11.075
42591W        W10820  44.408  28.151   4.998
42592W        W10821   1.388  14.567  13.814
42593W        W10822  33.860  15.983   2.801
42594W        W10823  30.964   9.697   1.755
42595W        W10824  15.364  44.587   1.819
42596W        W10825  32.935   8.638  13.792
42597W        W10826  22.892  28.588   3.897
42598W        W10827  22.332  41.346   0.258
42599W        W10828  29.199   8.835   4.523
42600W        W10829   7.429   1.849  13.008
42601W        W10830  13.761   0.367  11.198
42602W        W10831  16.974  32.327  10.561
42603W        W10832  13.225  25.901  14.000
42604W        W10833  35.616  34.755  12.627
42605W        W10834   2.248  42.885   3.496
42606W        W10835  36.647  26.144  10.955
42607W        W10836  17.048   1.810   3.252
42608W        W10837  32.933   9.712   1.163
42609W        W10838  21.605  17.022   1.389
42610W        W10839   7.022  13.631  12.250
42611W        W10840  43.339  24.767  14.801
42612W        W10841  28.920   5.746   2.769
42613W        W10842  32.617  13.457  14.964
42614W        W10843   6.870  43.263  13.739
42615W        W10844  14.095  26.063   4.745
42616W        W10845  36.943  34.622  12.406
42617W        W10846  20.592   5.459   3.294
42618W        W10847  11.728  14.746  13.168
42619W        W10848  18.183  24.325  13.422
42620W        W10849  22.462  28.719  13.409
42621W        W10850  15.608  12.552  13.028
42622W        W10851  22.186  32.928   3.367
42623W        W10852  24.991  11.141   4.579
42624W        W10853  11.676  24.519  12.169
42625W        W10854  31.116   5.187   4.715
42626W        W10855   6.406  39.888  11.208
42627W        W10856  18.273   6.508  11.078
42628W        W10857  35.179  20.956   0.619
42629W        W10858  18.666   6.725   2.158
42630W        W10859   5.808  36.737  10.400
42631W        W10860   1.656  15.844  13.542
42632W        W10861   0.371  15.109   1.274
42633W        W10862   4.476  19.530  10.622
42634W        W10863  26.665  43.407  12.713
42635W        W10864  42.379   8.269  13.745
42636W        W10865   9.248  25.211   3.690
42637W        W10866  33.836  19.976  14.470
42638W        W10867  26.600  40.797   1.725
42639W        W10868  13.348  26.227  12.632
42640W        W10869  33.929  13.204   0.750
42641W        W10870   9.745   9.218   2.272
42642W        W10871  27.580  39.929   1.925
42643W        W10872  39.602  16.686   1.677
42644W        W10873   8.881  26.568   3.133
42645W        W10874  14.586  31.155   1.876
42646W        W10875  25.666  14.025   3.538
42647W        W10876  27.182  37.933   0.499
42648W        W10877  34.932  13.685  12.561
42649W        W10878  36.842  14.923  14.945
42650W        W10879  44.162  42.312   3.325
42651W        W10880  36.431  17.999  12.167
42652W        W10881  41.570   8.210   1.485
42653W        W10882  31.141  24.007  11.665
42654W        W10883  16.605  23.689   3.199
42655W        W10884   0.068   3.763   3.560
42656W        W10885  29.932   3.146   4.379
42657W        W10886  10.332  18.035   1.710
42658W        W10887  10.343  17.796   3.277
42659W        W10888  35.844  40.341  11.116
42660W        W10889  32.999   6.652   3.803
42661W        W10890  11.718   8.399  13.059
42662W        W10891  23.035   4.661  14.761
42663W        W10892  34.420  27.103   0.123
42664W        W10893  12.723  41.203   0.219
42665W        W10894   3.708  20.724   0.751
42666W        W10895  37.186   4.849   2.318
42667W        W10896  42.244  28.556   0.305
42668W        W10897  38.007  25.562  12.073
42669W        W10898  35.083  40.235   1.708
42670W        W10899  32.717  42.014  13.131
42671W        W10900  39.851  44.869   4.742
42672W        W10901  28.755  35.562   2.682
42673W        W10902  40.827   8.272  12.241
42674W        W10903  23.220  16.512   4.475
42675W        W10904  11.755  12.835  14.315
42676W        W10905  13.410  43.489  12.084
42677W        W10906   5.968  38.906   1.679
42678W        W10907  22.822  15.778   5.041
42679W        W10908   7.157  28.040   0.298
42680W        W10909  13.084  41.753   0.837
42681W        W10910   7.181  34.986  10.996
42682W        W10911   2.663   2.906  13.540
42683W        W10912  42.999   8.307   2.767
42684W        W10913  11.680  39.378   1.959
42685W        W10914  43.967  25.459  14.377
42686W        W10915  23.152  25.604   0.132
42687W        W10916  12.122  31.478  11.609
42688W        W10917   3.349   1.254   1.864
42689W        W10918   1.386  16.251   2.307
42690W        W10919   0.961  34.390  11.918
42691W        W10920   2.883   2.672   5.169
42692W        W10921   5.913  41.241  13.462
42693W        W10922  30.947  22.434  11.473
42694W        W10923   3.985   2.757  14.242
42695W        W10924  27.311   5.155   0.875
42696W        W10925  20.465  41.429  13.268
42697W        W10926  25.923  41.727   0.310
42698W        W10927  44.603   7.497  10.605
42699W        W10928   0.579  14.789  11.058
42700W        W10929  10.066  21.565   2.289
42701W        W10930  13.483   3.499   0.838
42702W        W10931  39.084   3.161  13.820
42703W        W10932  36.839  19.987  13.665
42704W        W10933  10.153  31.816   4.992
42705W        W10934  36.304   3.359   0.365
42706W        W10935  44.683  13.137   1.429
42707W        W10936   4.223  21.967  11.949
42708W        W10937  12.119  10.238   0.093
42709W        W10938  35.577  15.955  10.325
42710W        W10939  39.624  39.354  11.071
42711W        W10940  31.823  35.474  12.746
42712W        W10941  25.595  37.279  13.346
42713W        W10942  11.295  33.584   4.613
42714W        W10943  27.952  13.630   2.778
42715W        W10944  33.552  33.969   0.871
42716W        W10945  37.672  23.707   9.880
42717W        W10946  30.394  14.620   0.332
42718W        W10947   3.820  39.603  12.939
42719W        W10948  37.982  37.279   2.831
42720W        W10949  20.119   4.084  12.637
42721W        W10950  34.997  29.436   3.391
42722W        W10951  12.066  38.403   1.999
42723W        W10952  22.243   8.799   0.004
42724W        W10953  13.116   3.163  13.527
42725W        W10954  17.820  22.675   1.839
42726W        W10955  38.928  18.699   2.876
42727W        W10956   3.385  41.939  12.993
42728W        W10957  17.889   5.754   0.387
42729W        W10958  32.456  26.751  12.008
42730W        W10959  36.509  42.830   2.276
42731W        W10960  41.752  38.984  13.316
42732W        W10961  15.275  16.986  12.589
42733W        W10962  13.118  21.780   4.478
42734W        W10963  42.543  22.004   3.718
42735W        W10964   5.603  42.809   5.020
42736W        W10965  38.290   3.801   3.596
42737W        W10966  17.637  14.727  12.940
42738W        W10967   2.194  26.560   1.259
42739W        W10968  41.566  10.488   1.018
42740W        W10969  11.384   1.213   1.764
42741W        W10970  25.162  41.838  13.227
42742W        W10971  16.601  31.980  10.018
42743W        W10972   8.682  24.544   0.154
42744W        W10973  28.596   8.202   0.274
42745W        W10974   8.839  12.957  12.830
42746W        W10975  24.779  24.042   2.129
42747W        W10976  40.524  28.091  12.337
42748W        W10977  12.746  34.934   2.439
42749W        W10978  44.199   8.735  14.600
42750W        W10979   4.692   0.757   4.606
42751W        W10980  17.055  42.520   0.261
42752W        W10981  22.083  24.249   3.740
42753W        W10982   3.979  32.114  14.302
42754W        W10983   3.633  13.696   1.142
42755W        W10984  15.832  40.745  14.865
42756W        W10985  28.715  13.879   2.423
42757W        W10986   8.426  27.519   3.025
42758W        W10987  40.383  28.510   2.424
42759W        W10988  37.966  24.563  13.095
42760W        W10989   2.303  18.518  12.594
42761W        W10990  27.063   4.241   1.982
42762W        W10991   0.402  38.797  10.692
42763W        W10992  10.058  41.509   9.713
42764W        W10993  35.449  37.016  12.031
42765W        W10994  32.647  23.185  11.012
42766W        W10995  18.765  12.380   2.796
42767W        W10996  35.666  33.702  14.890
42768W        W10997   6.886  13.061  13.475
42769W        W10998  19.747   6.808   1.198
42770W        W10999  23.836  29.862  12.369
42771W        W11000  32.078  23.449  10.432
42772W        W11001  11.762   8.082  11.690
42773W        W11002  18.681  15.645  10.719
42774W        W11003  28.522  42.249  11.991
42775W        W11004   7.788  38.449   4.602
42776W        W11005  24.539  19.607  14.411
42777W        W11006   1.982   3.317  11.619
42778W        W11007  34.019  30.686   4.641
42779W        W11008  37.037   9.262   0.379
42780W        W11009  21.466  44.364  10.220
42781W        W11010  29.046  14.355  12.003
42782W        W11011   4.888  16.777  13.916
42783W        W11012   1.175   3.922  13.910
42784W        W11013  37.237  11.997   4.848
42785W        W11014  24.041   0.760  14.890
42786W        W11015  25.077  15.129   1.685
42787W        W11016  23.423  24.191  13.425
42788W        W11017  37.404   3.628   2.600
42789W        W11018   8.873   9.614   0.228
42790W        W11019  30.517  22.567  12.054
42791W        W11020  30.567   2.163  11.120
42792W        W11021   9.196   5.221  10.688
42793W        W11022  11.804   8.546  11.487
42794W        W11023  22.218  38.725   2.329
42795W        W11024   0.918  32.496  12.977
42796W        W11025   6.746  35.043   0.054
42797W        W11026  32.836  40.983  13.968
42798W        W11027  19.630   5.269  12.948
42799W        W11028   8.414  18.768  11.268
42800W        W11029   2.296   5.511  11.852
42801W        W11030  15.714  24.999   1.913
42802W        W11031  27.438  24.085   1.181
42803W        W11032  22.795   1.840  10.627
42804W        W11033  36.177  42.738   4.108
42805W        W11034   4.206  15.540  12.105
42806W        W11035  24.254   2.221  10.915
42807W        W11036   8.385   9.588  13.986
42808W        W11037  32.670  25.980  12.512
42809W        W11038  18.499  25.022   3.677
42810W        W11039  43.763  23.217   3.356
42811W        W11040  37.333   6.594  11.241
42812W        W11041   1.468  42.546  11.155
42813W        W11042  42.457  22.758   0.350
42814W        W11043  44.339   9.148  10.279
42815W        W11044   2.517  40.989   3.780
42816W        W11045  32.096   0.339  12.880
42817W        W11046  41.892  25.407   3.737
42818W        W11047   7.239  33.348  12.305
42819W        W11048  34.735  32.625  10.928
42820W        W11049  25.591  36.993   1.757
42821W        W11050  20.982  35.079  12.369
42822W        W11051  18.037  38.485  11.177
42823W        W11052  37.429   4.337  12.100
42824W        W11053  36.628  39.086  10.641
42825W        W11054  21.240  19.999  13.321
42826W        W11055  11.394  14.237  14.257
42827W        W11056  24.804  23.138  11.666
42828W        W11057  25.783  33.936   1.267
42829W        W11058  44.827  20.180  13.398
42830W        W11059  28.608  29.186   2.108
42831W        W11060   8.940  30.678   1.249
42832W        W11061  36.532   5.944   0.523
42833W        W11062  17.419   7.677  11.165
42834W        W11063  17.091  11.395  13.493
42835W        W11064   6.384   9.679  14.308
42836W        W11065  30.629  43.286   3.875
42837W        W11066  24.063  15.848  10.747
42838W        W11067   1.718  12.879   3.705
42839W        W11068  34.572  22.936   4.842
42840W        W11069   4.718  31.024  14.403
42841W        W11070  41.793  16.942  14.438
42842W        W11071  13.866   4.711  13.122
42843W        W11072  16.816  21.357   3.078
42844W        W11073  10.189  33.121  11.537
42845W        W11074  13.184  36.489   0.320
42846W        W11075  21.780  28.928  12.360
42847W        W11076  22.393  33.246  11.259
42848W        W11077  13.405  39.997  12.441
42849W        W11078  31.813  29.803   4.234
42850W        W11079   3.688   8.412  11.366
42851W        W11080  31.126   0.753   0.422
42852W        W11081  32.578  32.013   4.274
42853W        W11082  38.614  29.188   2.351
42854W        W11083  13.364   6.869   1.230
42855W        W11084  37.274   2.738   2.252
42856W        W11085  35.944  38.019   0.373
42857W        W11086   5.349  17.991  10.648
42858W        W11087  31.539  39.943  12.538
42859W        W11088  15.195  25.496  12.982
42860W        W11089  43.856  11.936  10.970
42861W        W11090  36.890   3.725   4.189
42862W        W11091  27.944  10.337   1.790
42863W        W11092  23.611  23.564   0.020
42864W        W11093   3.403  21.243  13.561
42865W        W11094  16.174  40.547  14.481
42866W        W11095  17.016  23.553  13.950
42867W        W11096   6.934  21.560   1.845
42868W        W11097  13.291  17.119  13.104
42869W        W11098  19.747  36.493   2.231
42870W        W11099  19.455  12.869  14.993
42871W        W11100  20.339  26.967  12.630
42872W        W11101  16.309   0.017  13.394
42873W        W11102  24.661  24.674   1.025
42874W        W11103  24.825  43.406  14.556
42875W        W11104  35.112  32.593   2.697
42876W        W11105  38.324   1.454  12.580
42877W        W11106  25.508  22.092   0.473
42878W        W11107  41.104  23.786   4.215
42879W        W11108  12.954  13.330   5.360
42880W        W11109   1.456  42.971  11.905
42881W        W11110  29.134  23.445  13.487
42882W        W11111  39.891   2.288   2.243
42883W        W11112  31.635  42.223  11.156
42884W        W11113  39.830  14.261   1.841
42885W        W11114  25.304  34.129   1.308
42886W        W11115  35.478  35.009  11.285
42887W        W11116  21.507  17.773   5.025
42888W        W11117  23.077  44.274  14.017
42889W        W11118  36.481   3.376  10.686
42890W        W11119  14.647   5.503  11.102
42891W        W11120  10.559  14.584  12.241
42892W        W11121   9.592  25.500   2.868
42893W        W11122   4.192  40.940  14.982
42894W        W11123   2.878  40.751  13.657
42895W        W11124  25.583   6.905   4.314
42896W        W11125  28.512  27.653   0.443
42897W        W11126  38.961  42.459  14.292
42898W        W11127   4.406   2.167  12.316
42899W        W11128  43.269  44.008   1.365
42900W        W11129  27.540  25.031   0.679
42901W        W11130  11.153  35.409   3.377
42902W        W11131  19.033  25.097   1.341
42903W        W11132  36.541  28.469  12.518
42904W        W11133  17.681  11.048  14.514
42905W        W11134  38.312  15.308   3.907
42906W        W11135  22.777  40.960  13.393
42907W        W11136  22.225  21.276  14.917
42908W        W11137  12.751  36.627   1.275
42909W        W11138  24.864  12.161   3.668
42910W        W11139   8.663  10.188  11.685
42911W        W11140  43.960   8.340  13.408
42912W        W11141  17.976  16.135  11.093
42913W        W11142  23.898  37.329   2.726
42914W        W11143  10.907  13.252   4.121
42915W        W11144  37.567  17.603  12.029
42916W        W11145  27.546  15.846   0.510
42917W        W11146  21.613  14.977   1.573
42918W        W11147  32.717  12.271  10.721
42919W        W11148  11.440  43.451   4.057
42920W        W11149  30.971  24.696   3.835
42921W        W11150  26.144  15.479   2.192
42922W        W11151   0.522  42.463   3.571
42923W        W11152  34.678   9.855   4.077
42924W        W11153  36.910   8.989  10.074
42925W        W11154  19.632  20.195  14.934
42926W        W11155  21.493  16.376  12.488
42927W        W11156   7.757  12.973   2.340
42928W        W11157  11.662  26.561  13.111
42929W        W11158  33.734   8.947   5.131
42930W        W11159  28.958  14.779  14.475
42931W        W11160   0.498  40.964   2.730
42932W        W11161  36.530  19.575   3.886
42933W        W11162  37.425  30.642  14.230
42934W        W11163  26.889  32.903   1.119
42935W        W11164  31.021  17.885   0.868
42936W        W11165   4.903  30.583   3.237
42937W        W11166  24.945  34.012   0.822
42938W        W11167  24.143  35.569  10.263
42939W        W11168  16.297  23.959   2.877
42940W        W11169   3.388  30.694   4.233
42941W        W11170  23.540  23.848   2.891
42942W        W11171  33.037   2.290  14.888
42943W        W11172  38.390  43.037   0.560
42944W        W11173  16.088  19.553  13.935
42945W        W11174  22.566   2.627   3.832
42946W        W11175  20.856  19.787   1.154
42947W        W11176   9.629  25.626  13.507
42948W        W11177  17.553  19.266  10.672
42949W        W11178  23.601  10.991  11.824
42950W        W11179  41.554  24.553   4.799
42951W        W11180  37.494  16.596   0.035
42952W        W11181  36.139   9.249  14.253
42953W        W11182   2.681  16.958  13.363
42954W        W11183  13.875  41.588  14.598
42955W        W11184  29.295  23.208  11.892
42956W        W11185  32.686  36.059   4.119
42957W        W11186  16.506  31.370  13.921
42958W        W11187  31.995   5.871   1.885
42959W        W11188  39.338  33.669   5.063
42960W        W11189  25.669   5.975   0.799
42961W        W11190  12.371  38.930   4.912
42962W        W11191  19.999   9.685   4.012
42963W        W11192  34.736   7.781   3.811
42964W        W11193  20.603  27.653   1.793
42965W        W11194   4.321  34.449  14.794
42966W        W11195  34.947  33.443  11.184
42967W        W11196  14.324  32.838  13.122
42968W        W11197  12.651  20.196  11.635
42969W        W11198  18.282  35.304   4.030
42970W        W11199   8.403   6.290  13.723
42971W        W11200  35.986  29.664   4.814
42972W        W11201  32.545  14.754   0.263
42973W        W11202   1.880  12.782  13.221
42974W        W11203  40.048  42.056   3.411
42975W        W11204  18.702  19.816   0.410
42976W        W11205  13.109  23.915   3.639
42977W        W11206   8.519  44.033  13.965
42978W        W11207  29.610   9.401   0.445
42979W        W11208  19.739   3.136   0.866
42980W        W11209  29.669  13.858  13.761
42981W        W11210  20.660  17.835  13.867
42982W        W11211  37.033  23.078  14.413
42983W        W11212   2.089   8.252   1.974
42984W        W11213  19.527  44.335   1.757
42985W        W11214  17.464  35.487  12.674
42986W        W11215   9.572  42.400   4.573
42987W        W11216  19.203   4.750   3.359
42988W        W11217  39.357  33.385   0.846
42989W        W11218  36.562  25.141  12.653
42990W        W11219  23.586  38.530   1.386
42991W        W11220   1.293  27.958  11.541
42992W        W11221  32.057  17.821  12.896
42993W        W11222  11.298  28.977   2.329
42994W        W11223  39.698  14.070   5.046
42995W        W11224  24.932  23.894  14.914
42996W        W11225   7.453  31.646   4.221
42997W        W11226  30.611  20.226  14.514
42998W        W11227  31.381   0.785   2.864
42999W        W11228  32.134  41.550   0.748
43000W        W11229  15.803  35.114   0.327
43001W        W11230  24.529  11.063   5.090
43002W        W11231  23.321  35.414  14.754
43003W        W11232  11.069  35.387  14.384
43004W        W11233  14.613   8.784   3.653
43005W        W11234  21.942  27.045   3.881
43006W        W11235   9.212   3.657  13.052
43007W        W11236  25.987   5.848   3.649
43008W        W11237  32.385   0.374  11.609
43009W        W11238  17.636  25.219  14.615
43010W        W11239   3.791   6.878  14.855
43011W        W11240  26.949  12.882  14.533
43012W        W11241  22.269  17.050  14.518
43013W        W11242   6.429  16.052   4.672
43014W        W11243  36.760  40.724   1.348
43015W        W11244  24.001  34.036  11.007
43016W        W11245   9.906  30.411  11.129
43017W        W11246  14.500  19.007   4.162
43018W        W11247  35.699   1.477  14.542
43019W        W11248  39.825   5.641  10.632
43020W        W11249  40.002  33.936  14.356
43021W        W11250  31.762   0.378   0.944
43022W        W11251  41.083   0.112  14.309
43023W        W11252   3.421  18.276  12.970
43024W        W11253  22.334   8.702   2.305
43025W        W11254   2.772  33.207  13.879
43026W        W11255  17.066   3.252   2.212
43027W        W11256  13.821  35.845  11.874
43028W        W11257  37.550  42.073  11.993
43029W        W11258   5.308  26.719   1.881
43030W        W11259  30.959  26.588  12.887
43031W        W11260   8.494   0.325   1.079
43032W        W11261  10.669  38.462   0.875
43033W        W11262  39.385  39.300   3.326
43034W        W11263  22.257  10.105   4.450
43035W        W11264  31.418  19.177  13.441
43036W        W11265   8.913  42.819   2.714
43037W        W11266   6.909  42.340  13.876
43038W        W11267  30.366  26.038  13.074
43039W        W11268  35.704  43.305   3.400
43040W        W11269  44.305  30.228   4.730
43041W        W11270   3.304  28.378  12.037
43042W        W11271   5.262  34.610   4.714
43043W        W11272   3.317   7.708   2.249
43044W        W11273  25.394  23.597  12.154
43045W        W11274  27.225  17.568  11.065
43046W        W11275  26.671  43.462   4.389
43047W        W11276  24.277   7.670   3.897
43048W        W11277   1.591   4.359   3.936
43049W        W11278  31.371  17.695   3.312
43050W        W11279   5.611  28.700   2.789
43051W        W11280  32.652  12.745   4.762
43052W        W11281  19.612  33.861   0.998
43053W        W11282  17.842  13.405  14.034
43054W        W11283   3.794  22.247  14.803
43055W        W11284  35.990  37.644   2.150
43056W        W11285  16.050   8.720  11.189
43057W        W11286  32.864   9.215  11.608
43058W        W11287  16.197   7.870   0.971
43059W        W11288  10.570  11.429   1.026
43060W        W11289  23.994  40.777   2.692
43061W        W11290  35.404  40.509  14.404
43062W        W11291  13.881  30.339  14.840
43063W        W11292  40.801  12.479   4.261
43064W        W11293  38.550  42.361   0.899
43065W        W11294   5.407  16.768  14.066
43066W        W11295  14.228  34.883   3.681
43067W        W11296  17.526  27.697   3.661
43068W        W11297  10.398  38.899  11.139
43069W        W11298   0.885   0.578   3.344
43070W        W11299  37.036  19.514   4.125
43071W        W11300   9.297  22.991   0.685
43072W        W11301   8.207  33.644  13.889
43073W        W11302  15.625  42.080   2.940
43074W        W11303  33.158  34.625   1.442
43075W        W11304  15.864   4.520   3.122
43076W        W11305   7.835  41.511   2.673
43077W        W11306  15.077  24.722   3.640
43078W        W11307  25.902  44.508   3.917
43079W        W11308  43.940   7.242   2.155
43080W        W11309  36.147   8.620   1.226
43081W        W11310  26.158  23.539   2.344
43082W        W11311   9.415  14.693   0.055
43083W        W11312  25.567  40.724   4.145
43084W        W11313  30.914  28.934  10.991
43085W        W11314  10.310  14.151  11.587
43086W        W11315   3.470  23.210  12.254
43087W        W11316  27.160   0.267  10.986
43088W        W11317  42.180  26.628   4.381
43089W        W11318  36.424  39.841   1.223
43090W        W11319  35.183  24.709   2.217
43091W        W11320  34.905  36.423  12.496
43092W        W11321  30.922  42.921  11.048
43093W        W11322   6.899  10.863   0.466
43094W        W11323   4.458  16.196   1.842
43095W        W11324  31.076  17.027  13.024
43096W        W11325  10.321  29.648  14.391
43097W        W11326  24.665   5.998   3.216
43098W        W11327   9.267   6.684  11.686
43099W        W11328  38.397  14.592  11.438
43100W        W11329  23.925  24.306  13.491
43101W        W11330  25.162  24.349  14.006
43102W        W11331  33.550  34.477   0.775
43103W        W11332  41.677  15.250   4.565
43104W        W11333  14.226  34.130   4.524
43105W        W11334  19.741  23.517  11.576
43106W        W11335  27.615  26.497  12.622
43107W        W11336  24.847   5.218   2.886
43108W        W11337  37.956  31.888  12.872
43109W        W11338  11.107  25.748   1.681
43110W        W11339  42.428  16.960  11.741
43111W        W11340  23.445  13.260   5.239
43112W        W11341  30.535  11.743  13.436
43113W        W11342  13.319  44.172   5.065
43114W        W11343  13.627  19.298   3.716
43115W        W11344  29.989  13.602  11.120
43116W        W11345  10.651  15.682   4.872
43117W        W11346  10.891   4.532  10.634
43118W        W11347  38.538  37.927   1.350
43119W        W11348  22.276  42.824   0.413
43120W        W11349  26.147  33.709   0.395
43121W        W11350  32.534   4.181   3.400
43122W        W11351  24.454  20.032   2.639
43123W        W11352   4.810  34.655  12.869
43124W        W11353   7.087  19.620   0.242
43125W        W11354   0.016  20.533   4.030
43126W        W11355  40.406   6.125  12.094
43127W        W11356  10.245   8.931   1.682
43128W        W11357  44.669  28.489   3.546
43129W        W11358   6.149  12.792  11.929
43130W        W11359  16.195  28.200  11.655
43131W        W11360  11.669  35.823   1.201
43132W        W11361  17.118   6.952  13.781
43133W        W11362  34.065  10.212   2.450
43134W        W11363  27.711   6.967   0.813
43135W        W11364  14.406  30.605   0.430
43136W        W11365  19.478  41.416  12.002
43137W        W11366  21.596  44.788   2.491
43138W        W11367  14.849  32.141  10.578
43139W        W11368  40.141  38.380   0.977
43140W        W11369  12.603  30.977  11.583
43141W        W11370  37.862  15.806   2.152
43142W        W11371   0.290   0.770   2.285
43143W        W11372   5.837  32.716  13.016
43144W        W11373  27.399  41.914   4.818
43145W        W11374  30.486  37.124  11.360
43146W        W11375  20.927   3.726  10.647
43147W        W11376  43.033   0.279   2.221
43148W        W11377   0.941  41.982   4.783
43149W        W11378  18.209  29.174  11.520
43150W        W11379  38.697  42.755   2.736
43151W        W11380  34.930  35.463  12.628
43152W        W11381  39.068   0.338  12.437
43153W        W11382  40.338  21.528  12.481
43154W        W11383  36.410  25.955   0.316
43155W        W11384  41.480  15.681  13.889
43156W        W11385   9.913  19.027   0.716
43157W        W11386  34.084  41.775  12.172
43158W        W11387   2.477  16.152   4.392
43159W        W11388   5.758  27.669  13.889
43160W        W11389  19.692   7.680  11.224
43161W        W11390  21.021  29.796  13.508
43162W        W11391   6.255  42.804   3.226
43163W        W11392  33.931  39.282   4.690
43164W        W11393  19.877  41.543   0.358
43165W        W11394  22.696   2.006   2.753
43166W        W11395  13.565  23.537   1.298
43167W        W11396  20.230  14.246   3.098
43168W        W11397   5.858  33.576  13.416
43169W        W11398   3.867  44.959  11.582
43170W        W11399  29.183   2.511  14.410
43171W        W11400  26.065  33.150   2.729
43172W        W11401   1.660  27.964   3.237
43173W        W11402  40.433  38.000   4.214
43174W        W11403  29.093  30.123  12.884
43175W        W11404   7.694  11.958   0.871
43176W        W11405  25.977  35.897  13.564
43177W        W11406   3.054   2.274   2.436
43178W        W11407  40.910  31.403   0.114
43179W        W11408  24.918  22.248   2.350
43180W        W11409  39.364  26.781   3.311
43181W        W11410   7.321  42.995  14.319
43182W        W11411  19.874  19.493   5.067
43183W        W11412  43.287   4.724   0.039
43184W        W11413  32.493  37.856   3.809
43185W        W11414  39.157  24.724   0.939
43186W        W11415  41.534  22.189   3.107
43187W        W11416  23.566  13.723  14.513
43188W        W11417  16.247  25.904  13.749
43189W        W11418  40.984  42.054   3.243
43190W        W11419  16.155   7.425  10.716
43191W        W11420  18.715  24.556   4.382
43192W        W11421  11.937   4.601   3.679
43193W        W11422  44.298  16.548   3.208
43194W        W11423  29.204  42.837  14.145
43195W        W11424  13.735  25.516   0.416
43196W        W11425  32.541  23.757   3.150
43197W        W11426  32.826  26.514  10.236
43198W        W11427  15.914  17.074  11.284
43199W        W11428  35.789  43.719   1.814
43200W        W11429  28.777  24.733   0.342
43201W        W11430  22.778   4.360   0.419
43202W        W11431   3.232  35.375  10.977
43203W        W11432  26.137  25.437  11.853
43204W        W11433  44.872  23.186  13.529
43205W        W11434  28.019   8.862  14.295
43206W        W11435   1.490  42.240  14.692
43207W        W11436  38.447  44.145   4.664
43208W        W11437  22.180  36.353   1.695
43209W        W11438  24.841   1.659   1.504
43210W        W11439  24.933  43.923  12.941
43211W        W11440  22.655  27.695  11.969
43212W        W11441  42.416  30.342  12.354
43213W        W11442  17.635   7.103  11.517
43214W        W11443  41.660   7.698   1.626
43215W        W11444  23.238   1.358   3.287
43216W        W11445  21.666  41.070   0.436
43217W        W11446  19.316  32.485  11.225
43218W        W11447  34.180   1.372  13.919
43219W        W11448  43.542  29.454  13.759
43220W        W11449  37.618  31.539  12.436
43221W        W11450  31.870   7.439   2.439
43222W        W11451  40.853  39.168   4.374
43223W        W11452  26.601   4.639   1.383
43224W        W11453  11.130  41.424   0.240
43225W        W11454  21.055  30.874   1.817
43226W        W11455  35.138  12.939  11.121
43227W        W11456   1.139  17.800   3.026
43228W        W11457  20.911  37.025  11.100
43229W        W11458  19.926   0.027   0.368
43230W        W11459  17.143  40.430  13.421
43231W        W11460   6.998   8.081  13.364
43232W        W11461  23.268  16.780   1.315
43233W        W11462  10.317  36.545   9.878
43234W        W11463   3.824  21.332   1.838
43235W        W11464  24.536   3.898   0.645
43236W        W11465   7.675  31.526  12.934
43237W        W11466  17.645  13.672  13.302
43238W        W11467   4.294  19.693  12.484
43239W        W11468  36.558  38.483   0.784
43240W        W11469   8.870  23.068  14.159
43241W        W11470  30.378   2.727  11.693
43242W        W11471  16.760   2.030  14.555
43243W        W11472  10.352  26.738   0.748
43244W        W11473  41.780  23.603  11.148
43245W        W11474  21.587  33.598   4.664
43246W        W11475  34.112  10.871  10.849
43247W        W11476  22.782   2.345   1.332
43248W        W11477  17.284  16.143  12.097
43249W        W11478  33.763  17.109   2.692
43250W        W11479  22.654  42.189   0.504
43251W        W11480  34.627  42.362   1.755
43252W        W11481  43.534  39.477  14.159
43253W        W11482  27.601  39.921  10.850
43254W        W11483   9.869  15.669   4.381
43255W        W11484  25.628  27.719   2.243
43256W        W11485   2.389  12.215   2.226
43257W        W11486   2.151  10.388  14.216
43258W        W11487  32.068  36.841   0.509
43259W        W11488  21.449  18.594  11.977
43260W        W11489  16.000   2.270  13.195
43261W        W11490   4.423  38.524   4.743
43262W        W11491  10.852  12.590  14.058
43263W        W11492  10.379   9.909  12.385
43264W        W11493   1.885  40.374  10.686
43265W        W11494   8.935  36.078   3.236
43266W        W11495  44.534   2.539   1.016
43267W        W11496  44.677  33.251   0.969
43268W        W11497  19.741  44.440   1.283
43269W        W11498  41.388  27.741   2.274
43270W        W11499  16.066  35.256   1.777
43271W        W11500  37.808  24.129   1.683
43272W        W11501  10.408  25.186   5.037
43273W        W11502  32.585  17.244  12.076
43274W        W11503  16.332   6.211   2.306
43275W        W11504  16.846  30.590   3.742
43276W        W11505   3.881  38.094   3.710
43277W        W11506  40.023   1.291   0.921
43278W        W11507  15.545   1.288   2.241
43279W        W11508   6.088  38.571   0.597
43280W        W11509  19.792  19.086  12.977
43281W        W11510   8.784   6.231  14.709
43282W        W11511   9.895   1.925  10.532
43283W        W11512  15.990  35.901  10.626
43284W        W11513  36.992  21.989   2.286
43285W        W11514  20.196  40.400   0.701
43286W        W11515  20.285  16.243   2.380
43287W        W11516  44.076   7.612  10.553
43288W        W11517  16.187  39.471  12.000
43289W        W11518  21.029  42.929   1.914
43290W        W11519   2.004  15.833   4.792
43291W        W11520  17.140  28.509   4.351
43292W        W11521   2.812  11.880   4.285
43293W        W11522  37.561  22.506   1.795
43294W        W11523  26.036  35.660   0.268
43295W        W11524  26.657  36.575  11.079
43296W        W11525   7.494   9.586   2.267
43297W        W11526  23.685   9.205   3.186
43298W        W11527   0.541  44.062  14.898
43299W        W11528  33.355   5.764   2.185
43300W        W11529   1.265  41.935   4.304
43301W        W11530   3.908   6.072  11.609
43302W        W11531   5.914  12.749   4.369
43303W        W11532  23.753  41.861   0.707
43304W        W11533  25.924  12.161   3.614
43305W        W11534  37.291  34.581  11.132
43306W        W11535   4.682  11.869   1.297
43307W        W11536  30.377  21.253  11.419
43308W        W11537  28.615  34.471  12.171
43309W        W11538  33.634   7.591  10.522
43310W        W11539  17.103  35.158  12.917
43311W        W11540  31.975  26.405   5.067
43312W        W11541  16.618  34.869  13.782
43313W        W11542  40.565  11.453   4.186
43314W        W11543   7.203  23.704   0.826
43315W        W11544  29.613  14.723   2.203
43316W        W11545  44.272  31.425   1.368
43317W        W11546   0.797  27.312   0.583
43318W        W11547  15.656   7.774  11.151
43319W        W11548  44.495   3.936  14.841
43320W        W11549  17.264  33.342   1.806
43321W        W11550  17.454   2.352   0.344
43322W        W11551  15.948  14.616   1.363
43323W        W11552  36.763  15.418  10.882
43324W        W11553  12.297   3.204   1.467
43325W        W11554  22.977  26.969  11.141
43326W        W11555  29.222  35.900   1.396
43327W        W11556  32.986  21.443   1.850
43328W        W11557  10.745  18.789   2.318
43329W        W11558  41.403  42.622  14.271
43330W        W11559   0.951  11.119   3.144
43331W        W11560  34.331  17.019  11.904
43332W        W11561  33.390   7.384  11.848
43333W        W11562  20.607   1.836  10.416
43334W        W11563  18.837  26.678   4.120
43335W        W11564   7.278   7.934   1.270
43336W        W11565   8.114  32.468   2.824
43337W        W11566   9.092  16.010  14.198
43338W        W11567  41.380   4.426  10.613
43339W        W11568  20.797   6.824  12.001
43340W        W11569   1.916  42.260   0.483
43341W        W11570  27.933  27.624   2.425
43342W        W11571  13.174  40.420  12.622
43343W        W11572  22.956   3.958   4.417
43344W        W11573  30.543  11.412  11.681
43345W        W11574  37.216  34.017  13.310
43346W        W11575  17.489   0.414   2.503
43347W        W11576  15.752  10.970  14.336
43348W        W11577   0.454  12.972   2.337
43349W        W11578  33.906  26.410   4.684
43350W        W11579  10.047   9.591  10.718
43351W        W11580   9.173  15.162  12.252
43352W        W11581  12.763   7.728  12.429
43353W        W11582  20.721  19.969  13.354
43354W        W11583   3.800  36.073  13.451
43355W        W11584   1.322  38.824  14.735
43356W        W11585  10.111  37.591  13.430
43357W        W11586  36.499  24.329  12.933
43358W        W11587  32.742  43.186   4.262
43359W        W11588  12.644  19.308  14.864
43360W        W11589   2.053  40.207  11.138
43361W        W11590   7.050  26.968   1.271
43362W        W11591  32.964  44.525   1.465
43363W        W11592  16.083   1.816  11.080
43364W        W11593  40.311   9.115  12.707
43365W        W11594  41.386  42.126   2.909
43366W        W11595  43.282  35.137  13.991
43367W        W11596   1.591  27.012   0.171
43368W        W11597  21.998  20.052  12.875
43369W        W11598  21.231   7.736  11.904
43370W        W11599   5.928   4.868  14.327
43371W        W11600  25.009  16.270  13.299
43372W        W11601  33.658  36.191   3.129
43373W        W11602   5.305  44.482  13.394
43374W        W11603  33.831   2.185  12.754
43375W        W11604   3.278   3.359  13.598
43376W        W11605  19.788  34.821  14.898
43377W        W11606   3.785  10.578  11.002
43378W        W11607   0.862   2.722  13.433
43379W        W11608   1.492  16.783   1.384
43380W        W11609   3.031  22.521   1.947
43381W        W11610  37.414  35.875  13.453
43382W        W11611  39.787  22.798   2.244
43383W        W11612  30.485  14.313   1.834
43384W        W11613  43.583  11.870  12.476
43385W        W11614  44.127  31.650   0.930
43386W        W11615  26.428  34.497   0.773
43387W        W11616  36.811  29.959   0.943
43388W        W11617   1.279  43.467  10.852
43389W        W11618  30.875  25.077  14.957
43390W        W11619  27.388  10.687   4.233
43391W        W11620  44.412  20.440   3.410
43392W        W11621   0.368  19.023  12.524
43393W        W11622  11.165  30.204  14.358
43394W        W11623  42.390  12.832  12.592
43395W        W11624  38.265  26.658   0.935
43396W        W11625  18.617  15.375  13.653
43397W        W11626  19.062  28.245   3.516
43398W        W11627  21.339  14.032  12.187
43399W        W11628  17.698  11.166   4.532
43400W        W11629  43.863  26.989   3.355
43401W        W11630  10.855  17.740  11.143
43402W        W11631  10.853  44.216  14.259
43403W        W11632  41.870  39.643   4.636
43404W        W11633  16.475  27.987  10.694
43405W        W11634  23.296  15.619  13.438
43406W        W11635   8.249  40.957   1.806
43407W        W11636   4.002  18.074   0.146
43408W        W11637  16.084  38.544   1.815
43409W        W11638  36.850   4.727   3.275
43410W        W11639  14.279  29.658  12.351
43411W        W11640  23.204  23.275  12.408
43412W        W11641  44.256  23.131   0.339
43413W        W11642  17.752  21.095  11.376
43414W        W11643   0.682  42.315  11.957
43415W        W11644   3.344  40.693  14.522
43416W        W11645  10.168   1.677   2.272
43417W        W11646  14.162  29.193   1.803
43418W        W11647  37.547  39.821   2.098
43419W        W11648  22.109  33.855  14.926
43420W        W11649  34.590   4.161   0.658
43421W        W11650  25.519  15.313   3.319
43422W        W11651  17.997  27.494   1.791
43423W        W11652  34.050  39.449  13.136
43424W        W11653  14.216  20.326  10.555
43425W        W11654  44.745  41.507  11.498
43426W        W11655  13.538  28.659  11.664
43427W        W11656  30.084   5.937  14.416
43428W        W11657  37.091  41.045  14.021
43429W        W11658   6.427   1.954  13.899
43430W        W11659  25.169   4.347  10.368
43431W        W11660  31.037   2.849  10.994
43432W        W11661  20.736  12.285   3.509
43433W        W11662  27.687   4.668   2.679
43434W        W11663  29.704  34.156  13.727
43435W        W11664  40.221  41.885   0.915
43436W        W11665   3.451   5.507  12.642
43437W        W11666  22.288  14.389  12.887
43438W        W11667   9.604   7.780   4.603
43439W        W11668  32.524  44.917   3.584
43440W        W11669  33.720  11.290  14.886
43441W        W11670  44.275  31.764  13.793
43442W        W11671  24.527  18.745  14.454
43443W        W11672  29.358  13.111  12.416
43444W        W11673  18.770  40.256   3.200
43445W        W11674  24.469  26.157  14.196
43446W        W11675  14.120  14.309  10.666
43447W        W11676   4.216  28.548  14.046
43448W        W11677  21.908  28.160   2.563
43449W        W11678  22.310  17.330   0.759
43450W        W11679  12.627  18.645  13.341
43451W        W11680  39.256  28.049  12.913
43452W        W11681  20.697  12.670   1.123
43453W        W11682   7.492  31.639   0.472
43454W        W11683   3.974  42.403   3.856
43455W        W11684  29.625  25.308   0.218
43456W        W11685   9.030  36.877   2.743
43457W        W11686  42.624  22.522  14.868
43458W        W11687  21.813  31.698  13.009
43459W        W11688  12.080   4.212  14.538
43460W        W11689  18.157  34.791  14.273
43461W        W11690  21.152   5.861   1.852
43462W        W11691  34.336  16.283  10.686
43463W        W11692  29.521   3.524   0.495
43464W        W11693  40.462  22.159  13.623
43465W        W11694  13.619  20.200  13.843
43466W        W11695  22.284  16.036   2.702
43467W        W11696  32.154  34.858  11.847
43468W        W11697  34.625  13.600  13.045
43469W        W11698  39.547  12.094  14.079
43470W        W11699  30.317  37.690   0.494
43471W        W11700  40.103  30.975  12.844
43472W        W11701  22.745   8.888   3.820
43473W        W11702  19.193   7.787   0.244
43474W        W11703  33.176  23.440  12.531
43475W        W11704  21.874  36.146   3.352
43476W        W11705   6.189  39.961   0.453
43477W        W11706   2.925  13.747  11.017
43478W        W11707  23.135  39.073  10.947
43479W        W11708  29.459  42.075  14.448
43480W        W11709  37.064  24.146  13.395
43481W        W11710  10.206  39.392  14.799
43482W        W11711   5.938  27.400   0.866
43483W        W11712  38.788  21.425   2.731
43484W        W11713  25.525  35.164   3.640
43485W        W11714  30.911  41.825  13.627
43486W        W11715  12.113  44.063  11.931
43487W        W11716   3.262  41.128  13.621
43488W        W11717  29.696  40.610  14.493
43489W        W11718  32.499  26.242   4.991
43490W        W11719  29.958   5.427   3.936
43491W        W11720   1.722  16.519   0.821
43492W        W11721  43.517   0.642   0.857
43493W        W11722  28.096  38.216   2.095
43494W        W11723  14.216  14.163  12.498
43495W        W11724  27.097   0.410   0.757
43496W        W11725  27.633   9.162   1.836
43497W        W11726  31.578   3.312   0.869
43498W        W11727  38.243  41.381  14.458
43499W        W11728  25.722   1.498  13.854
43500W        W11729  29.808  40.046  14.005
43501W        W11730  25.767  35.000  11.652
43502W        W11731  36.527  30.373  10.695
43503W        W11732  42.113  18.771   0.304
43504W        W11733  28.554  26.066  11.790
43505W        W11734   4.458   2.735  14.937
43506W        W11735  31.013  30.172   3.796
43507W        W11736   0.411  44.923  11.601
43508W        W11737  10.265  39.030  12.592
43509W        W11738   3.379   1.929  11.507
43510W        W11739  24.842   7.226   1.367
43511W        W11740  28.211   9.922   4.872
43512W        W11741   8.669  21.707  12.531
43513W        W11742  25.606  24.572  13.021
43514W        W11743  32.181   3.421   1.374
43515W        W11744  10.209  24.080   2.424
43516W        W11745   8.320  30.627   3.303
43517W        W11746   7.278  29.928   2.720
43518W        W11747  38.159  31.892  11.099
43519W        W11748  25.077   8.755   4.349
43520W        W11749  38.341   6.364   1.394
43521W        W11750   6.622  40.038   1.386
43522W        W11751   4.098  39.331   1.742
43523W        W11752  36.936  36.174  12.553
43524W        W11753  31.354  26.986   2.879
43525W        W11754  39.698  33.737   3.367
43526W        W11755  19.522  18.899   0.247
43527W        W11756  41.004  27.177   1.600
43528W        W11757   0.962  40.277  14.268
43529W        W11758   8.136  29.410   2.237
43530W        W11759   7.669  43.456  13.794
43531W        W11760  38.522  27.237   3.143
43532W        W11761  29.960  14.633  14.332
43533W        W11762  39.651  23.156  10.655
43534W        W11763  35.747   1.973   2.877
43535W        W11764   8.398   6.873  12.068
43536W        W11765  13.380   9.215  10.995
43537W        W11766  29.638  15.334  13.129
43538W        W11767  15.191  12.870  11.870
43539W        W11768   0.779   0.805   1.981
43540W        W11769  10.804   9.351  14.977
43541W        W11770  15.341  23.454   0.864
43542W        W11771  38.540  24.082  10.599
43543W        W11772  23.499  35.130   0.860
43544W        W11773  22.639   7.062   3.350
43545W        W11774   8.867   9.502  10.860
43546W        W11775   6.300  22.222  10.948
43547W        W11776  22.165   9.177  14.456
43548W        W11777  43.175  36.268  12.537
43549W        W11778  22.725  19.259  12.247
43550W        W11779  13.320  21.684   3.638
43551W        W11780  44.677  13.273  12.903
43552W        W11781  27.020  40.934   2.813
43553W        W11782   0.360  29.068  11.209
43554W        W11783  14.275  19.534   3.423
43555W        W11784  28.580  43.456  13.935
43556W        W11785  18.118  35.601  13.964
43557W        W11786   5.542  41.993   2.461
43558W        W11787   3.924  25.569   4.317
43559W        W11788  15.727   5.430   0.804
43560W        W11789   1.737  19.177   0.903
43561W        W11790  33.589   2.483   4.570
43562W        W11791  28.144   6.646  10.999
43563W        W11792  32.105  12.047  11.519
43564W        W11793  11.888  18.677   2.453
43565W        W11794  26.795  41.393   2.777
43566W        W11795  42.703  14.070  12.876
43567W        W11796  39.067  31.421   2.668
43568W        W11797  20.486  38.980   4.621
43569W        W11798   5.911  13.279   0.945
43570W        W11799  44.823   3.022  14.249
43571W        W11800   6.323  14.613  12.776
43572W        W11801  12.003  17.595  13.079
43573W        W11802  44.796  26.475  14.275
43574W        W11803  13.367  41.002  14.815
43575W        W11804  34.003  12.350   3.688
43576W        W11805  44.562  12.285   0.913
43577W        W11806  16.533  14.086   4.543
43578W        W11807  18.897  41.765  14.431
43579W        W11808  16.379  22.450   2.721
43580W        W11809  42.849   6.478   2.307
43581W        W11810  40.407  43.741  10.788
43582W        W11811  22.159   2.509  10.915
43583W        W11812  27.613   5.945  14.491
43584W        W11813  23.463  21.991   0.698
43585W        W11814  21.994  19.488   4.253
43586W        W11815  19.969   8.691   0.807
43587W        W11816  44.736  23.125   2.577
43588W        W11817   3.712  26.238   2.430
43589W        W11818  20.011   0.898   4.571
43590W        W11819  33.866   8.919  11.654
43591W        W11820  37.513  32.918   4.161
43592W        W11821  39.083  20.312  10.799
43593W        W11822   1.766  19.824  14.288
43594W        W11823  22.542  42.314   2.319
43595W        W11824  38.516  34.349  10.863
43596W        W11825   7.949  22.066   3.682
43597W        W11826  39.576  35.321   4.556
43598W        W11827  22.566  37.115   3.564
43599W        W11828   7.155  21.931   4.254
43600W        W11829  24.315   8.736  12.167
43601W        W11830   7.260   5.239   3.878
43602W        W11831  39.665  43.613  11.617
43603W        W11832  23.151  19.125   2.768
43604W        W11833  23.027  25.464  13.443
43605W        W11834  18.779  14.348  14.050
43606W        W11835  38.350  35.926  12.042
43607W        W11836   4.326  25.376  13.388
43608W        W11837  26.675  32.646   4.481
43609W        W11838   1.275  44.025  13.102
43610W        W11839  30.593   6.432   4.560
43611W        W11840   2.260   7.437   0.279
43612W        W11841  36.170  44.366  12.556
43613W        W11842   3.177  14.789   4.239
43614W        W11843  44.279  34.629  13.495
43615W        W11844  11.660   8.303   4.023
43616W        W11845   2.322  31.347   3.128
43617W        W11846  14.337  42.359   3.275
43618W        W11847  32.106   9.901  10.981
43619W        W11848  12.902  21.512  13.860
43620W        W11849  27.616  33.124  10.595
43621W        W11850  22.020  16.427  13.158
43622W        W11851  16.798   8.125   3.681
43623W        W11852  24.954  28.477   1.426
43624W        W11853   5.247   3.916  14.386
43625W        W11854  36.855  38.110   0.972
43626W        W11855  21.096   1.169  10.749
43627W        W11856  39.593  37.961  10.862
43628W        W11857  23.353  24.082   2.471
43629W        W11858   5.647  17.181   2.414
43630W        W11859  20.572  12.584  12.605
43631W        W11860  15.123   5.875  11.695
43632W        W11861   6.278   5.710  11.113
43633W        W11862   2.981  23.174   4.298
43634W        W11863   9.772   9.300   4.192
43635W        W11864  11.124   7.396  14.930
43636W        W11865  28.283  21.900  11.955
43637W        W11866  23.949  26.989  12.962
43638W        W11867  14.085   3.413  10.719
43639W        W11868  24.693  38.788   2.164
43640W        W11869   9.244   0.996  11.564
43641W        W11870  35.465  43.507  11.681
43642W        W11871  20.297   4.927   1.335
43643W        W11872   5.158   7.761   4.365
43644W        W11873   8.691  38.095   0.437
43645W        W11874  18.947  30.905  12.520
43646W        W11875  23.475  25.075  14.331
43647W        W11876  43.454  31.095   0.165
43648W        W11877  26.346   1.799  13.608
43649W        W11878   9.795  11.720  11.142
43650W        W11879  32.439  44.861  11.496
43651W        W11880  40.294  42.279   1.262
43652W        W11881  32.517  25.726  14.980
43653W        W11882  20.241  28.005  11.276
43654W        W11883  31.624   9.814  12.601
43655W        W11884  24.008   0.279   4.174
43656W        W11885  24.023  14.237  13.328
43657W        W11886  18.477  20.942  12.939
43658W        W11887  18.746  11.597   0.723
43659W        W11888  36.530  40.466  12.137
43660W        W11889  36.419  35.449  13.264
43661W        W11890   5.262  41.045   4.178
43662W        W11891  28.692  21.578  12.824
43663W        W11892  43.195  34.371  13.295
43664W        W11893  13.632   5.464   3.691
43665W        W11894  40.950  27.441  11.951
43666W        W11895  41.523   0.080   0.283
43667W        W11896   9.172  30.992  10.906
43668W        W11897   4.350   5.373  13.026
43669W        W11898  18.660   2.173   2.830
43670W        W11899  37.776  16.712  12.323
43671W        W11900  18.612  14.704   2.600
43672W        W11901  27.019  24.810   0.914
43673W        W11902   5.351  23.924  13.780
43674W        W11903  26.168  19.575  12.225
43675W        W11904  12.687  25.466  13.449
43676W        W11905  15.817  31.583   2.701
43677W        W11906  30.381  14.923  11.980
43678W        W11907  35.530  23.448  12.490
43679W        W11908   4.982  28.679  11.085
43680W        W11909   2.244  25.029   1.472
43681W        W11910  38.479   3.401  14.473
43682W        W11911  34.833  44.209  14.415
43683W        W11912  30.065  25.462   1.924
43684W        W11913   6.912  36.118  10.695
43685W        W11914  41.316  18.047  10.730
43686W        W11915  40.891  12.263   0.767
43687W        W11916  12.901  42.966   3.375
43688W        W11917  34.887  17.485  10.217
43689W        W11918   8.991  14.027   2.651
43690W        W11919   7.814  13.696  13.920
43691W        W11920   3.795  32.665   4.196
43692W        W11921  32.641  15.220   0.540
43693W        W11922  17.136  41.826  10.989
43694W        W11923  32.664   0.923   3.264
43695W        W11924   4.909  17.376  12.186
43696W        W11925   7.780  28.706   3.337
43697W        W11926  22.669  16.152   1.804
43698W        W11927  27.143  14.081  11.090
43699W        W11928  19.497   5.194  11.562
43700W        W11929  21.765  43.016  13.456
43701W        W11930  15.313   6.253   3.206
43702W        W11931  43.598   4.740   3.662
43703W        W11932  39.481  39.937  11.478
43704W        W11933   9.652  34.432  13.801
43705W        W11934  18.081   7.272   3.678
43706W        W11935  31.698  18.593  11.179
43707W        W11936  22.201  36.917  11.755
43708W        W11937  41.430  24.106  13.441
43709W        W11938  10.712  10.224  10.610
43710W        W11939  34.003   4.933  12.923
43711W        W11940   0.359  15.543   4.309
43712W        W11941  35.043  17.333  14.842
43713W        W11942   5.885   8.167   4.723
43714W        W11943  30.679   1.502   0.756
43715W        W11944  12.896  38.396  13.955
43716W        W11945  13.331  31.973   4.220
43717W        W11946   4.236  13.629  12.155
43718W        W11947  16.806  36.297   1.371
43719W        W11948   5.157  31.929   3.198
43720W        W11949  39.967   5.310   3.250
43721W        W11950  24.222  39.894  12.372
43722W        W11951  11.865  39.272   2.956
43723W        W11952  12.306  20.923   3.431
43724W        W11953  30.889  12.226  12.652
43725W        W11954  37.992  22.417  11.307
43726W        W11955  37.587  10.949   1.777
43727W        W11956  33.063  21.186   3.311
43728W        W11957  44.881   7.317  12.840
43729W        W11958  43.277  36.416   3.333
43730W        W11959  24.253  25.617   1.021
43731W        W11960  40.955  31.301   5.349
43732W        W11961  28.590  12.749   4.802
43733W        W11962   2.563  17.516   0.033
43734W        W11963  18.175  28.201  14.871
43735W        W11964  44.534   5.735  14.411
43736W        W11965   3.438  16.634  11.205
43737W        W11966  22.572   4.375   3.176
43738W        W11967   1.440  23.304   2.325
43739W        W11968  29.097  24.491   1.313
43740W        W11969  22.750   2.268  13.114
43741W        W11970  10.584  40.906  13.414
43742W        W11971  27.410  26.976   0.355
43743W        W11972  25.310   3.951   1.367
43744W        W11973  40.967  32.419  11.098
43745W        W11974  25.659  39.633  14.151
43746W        W11975  26.870  40.736  13.864
43747W        W11976  13.068  41.421  14.880
43748W        W11977  43.219  44.030  11.100
43749W        W11978  26.533  32.414  11.656
43750W        W11979  39.644  29.085  13.564
43751W        W11980  19.799  37.470   1.989
43752W        W11981   8.678  23.211   3.584
43753W        W11982  32.887  44.610   4.141
43754W        W11983  23.510  34.525  11.494
43755W        W11984  17.459  29.161   1.453
43756W        W11985  10.775  32.918  11.591
43757W        W11986  41.011   5.940   3.004
43758W        W11987  32.480  39.494   1.346
43759W        W11988  29.355  29.714   3.330
43760W        W11989  11.321   1.830   1.022
43761W        W11990  17.800  34.002  10.528
43762W        W11991   0.467  27.844   1.391
43763W        W11992   0.422  32.587   2.231
43764W        W11993  42.270  26.284  11.157
43765W        W11994  35.362  25.177   2.402
43766W        W11995  29.514  15.303  13.993
43767W        W11996  11.556  42.565  13.483
43768W        W11997  42.467  36.024   3.273
43769W        W11998   1.932  16.087  13.165
43770W        W11999  13.813  38.820  13.180
43771W        W12000  32.404  22.663   4.077
43772W        W12001  18.312   2.851   0.415
43773W        W12002   1.215  43.301  13.549
43774W        W12003  12.781  39.880  14.366
43775W        W12004  33.607  35.120   4.097
43776W        W12005   8.375  19.757  12.599
43777W        W12006  34.012  14.042   2.864
43778W        W12007  29.180  32.876   0.297
43779W        W12008   8.880  35.087   4.643
43780W        W12009   2.018  35.995   4.002
43781W        W12010  19.200  17.367   2.786
43782W        W12011  34.433  39.093  12.523
43783W        W12012  30.445  17.182   1.228
43784W        W12013  31.902  35.378   2.246
43785W        W12014  33.971  43.305   4.634
43786W        W12015   9.126  16.216   2.237
43787W        W12016  22.998   8.762  10.758
43788W        W12017   2.979  15.134  11.550
43789W        W12018  23.616  14.783  12.533
43790W        W12019  10.889   8.166  11.255
43791W        W12020  32.513  37.504   1.884
43792W        W12021  11.606  31.371   3.760
43793W        W12022  35.244  42.573  10.936
43794W        W12023  35.980  10.435   0.849
43795W        W12024  28.757   3.918   3.854
43796W        W12025  13.451   2.857  11.659
43797W        W12026  16.839  32.646  12.173
43798W        W12027  29.281   5.210   1.389
43799W        W12028  39.909   4.428   2.906
43800W        W12029   4.726   3.887   0.497
43801W        W12030   0.803  40.547  13.504
43802W        W12031  25.812  38.384  13.851
43803W        W12032   5.904  11.773  14.099
43804W        W12033  34.980  44.265   2.371
43805W        W12034   9.855  18.580   0.972
43806W        W12035  41.237  11.238  13.063
43807W        W12036  44.535  11.759   2.748
43808W        W12037  38.809   7.407  13.547
43809W        W12038  41.021  23.802  13.301
43810W        W12039  12.691  25.076   3.858
43811W        W12040  22.517  36.989   2.244
43812W        W12041  29.521  22.734  11.836
43813W        W12042   3.459  10.900   1.053
43814W        W12043  35.319  24.433   1.255
43815W        W12044  26.589  22.003  10.637
43816W        W12045  38.341  33.562  11.559
43817W        W12046   2.929  23.110   3.397
43818W        W12047  39.128  19.353   0.716
43819W        W12048  23.622  36.323  15.000
43820W        W12049   2.463   1.481   4.104
43821W        W12050  44.256  27.520   2.196
43822W        W12051  14.414  31.125  14.902
43823W        W12052  14.952   3.916  11.484
43824W        W12053  17.016  28.929   3.615
43825W        W12054   9.175  10.660  13.579
43826W        W12055  17.054  15.195  12.494
43827W        W12056  18.286  13.254  14.789
43828W        W12057   7.405  31.430  14.228
43829W        W12058  21.068   9.728  10.663
43830W        W12059  28.941  41.521   1.948
43831W        W12060  32.517  33.986  11.127
43832W        W12061  19.392  43.774   1.052
43833W        W12062  39.568  21.243  14.245
43834W        W12063   8.466  17.249   3.301
43835W        W12064  28.940  25.189  11.539
43836W        W12065  43.071  17.619   3.291
43837W        W12066  25.133   6.910   2.316
43838W        W12067  29.135   7.639   2.726
43839W        W12068  12.653  14.293   4.536
43840W        W12069  36.972  43.944   3.123
43841W        W12070  13.249  44.887  14.926
43842W        W12071   7.453  25.452  13.953
43843W        W12072  41.729  20.013  12.157
43844W        W12073  19.338  40.893  12.016
43845W        W12074  15.319  32.039   4.894
43846W        W12075  40.813  18.715   4.719
43847W        W12076  19.667  10.168  10.673
43848W        W12077  23.745   0.563  10.492
43849W        W12078  13.674  20.233   3.395
43850W        W12079   3.646  19.550   4.096
43851W        W12080  11.735  22.282  14.386
43852W        W12081  18.685   3.455   1.279
43853W        W12082  31.663  30.583  12.519
43854W        W12083  33.535  34.091  13.115
43855W        W12084   6.898   1.801   4.610
43856W        W12085  42.405  41.480  14.046
43857W        W12086  33.086  26.751  13.492
43858W        W12087  13.606  30.271  12.009
43859W        W12088  43.447  25.070   3.413
43860W        W12089  34.649  28.337  10.796
43861W        W12090  13.548  26.502  10.226
43862W        W12091  11.840  30.445  13.789
43863W        W12092  44.721  28.159  11.067
43864W        W12093   6.637  36.346  13.894
43865W        W12094  31.965   9.145  11.621
43866W        W12095  31.436  32.379  14.036
43867W        W12096  34.124   4.729   3.322
43868W        W12097  24.765   0.489   0.746
43869W        W12098  35.984   1.840  13.631
43870W        W12099   0.810  22.506   0.288
43871W        W12100  28.781  41.099   2.233
43872W        W12101  13.594  37.351  13.162
43873W        W12102  23.939  35.166  14.266
43874W        W12103  14.112   2.195  14.820
43875W        W12104   4.788  42.925   1.164
43876W        W12105   0.968  41.560   3.752
43877W        W12106  35.309  28.178  11.586
43878W        W12107   2.726  31.663   3.306
43879W        W12108   1.753  29.342  14.032
43880W        W12109  24.120  11.999  14.377
43881W        W12110  13.017  27.200   3.381
43882W        W12111  12.310   9.833  12.459
43883W        W12112   4.854  11.090   1.686
43884W        W12113  31.621  29.682  14.388
43885W        W12114   6.065  17.979   2.757
43886W        W12115   0.750  42.455   1.319
43887W        W12116   8.597   9.338   1.641
43888W        W12117  39.796  19.496  14.924
43889W        W12118  11.055  44.857   1.716
43890W        W12119   5.747  21.787  14.082
43891W        W12120  14.988   3.285  14.815
43892W        W12121   3.431   5.341   4.710
43893W        W12122  42.268   5.749   4.690
43894W        W12123  14.482  29.971   2.381
43895W        W12124  17.204  33.313  14.577
43896W        W12125  42.503   2.614  10.696
43897W        W12126  16.774  38.321  14.950
43898W        W12127  29.931  41.231  11.946
43899W        W12128   2.318  36.481  13.465
43900W        W12129  41.947  15.107   0.561
43901W        W12130   4.938  39.789  11.196
43902W        W12131  16.151   0.714   1.700
43903W        W12132  42.062  12.655  13.893
43904W        W12133  30.052  15.372  11.565
43905W        W12134  39.916   8.129  13.575
43906W        W12135  34.926  37.135   3.332
43907W        W12136  15.110  24.285   0.407
43908W        W12137  29.352   0.900  13.372
43909W        W12138  30.827  13.966   5.041
43910W        W12139   3.218  38.081   1.894
43911W        W12140  38.295   9.256   5.021
43912W        W12141  33.171  33.444  10.737
43913W        W12142  31.490   9.970  11.631
43914W        W12143  41.265  11.618  10.706
43915W        W12144  31.804   5.302   0.758
43916W        W12145  15.068  20.779  12.160
43917W        W12146   5.012  27.092   1.235
43918W        W12147  18.304   7.797  10.625
43919W        W12148  26.063   8.181   1.896
43920W        W12149  21.621  44.164   4.143
43921W        W12150   4.374  36.800   0.799
43922W        W12151  36.426   2.824  12.162
43923W        W12152   5.221  14.629  14.333
43924W        W12153  29.294  11.369   3.124
43925W        W12154  39.529   7.393   1.185
43926W        W12155  36.969   2.864  11.038
43927W        W12156  21.789   8.954   2.273
43928W        W12157  30.154  28.523  13.977
43929W        W12158   1.302  27.423  11.646
43930W        W12159  44.680  17.143  11.880
43931W        W12160   7.887  12.126  13.957
43932W        W12161  41.332  29.875  13.140
43933W        W12162  31.987  35.608   2.714
43934W        W12163   2.741  25.274  13.828
43935W        W12164  21.227  41.355  14.375
43936W        W12165  25.047   7.693  12.825
43937W        W12166   6.805  38.588  12.137
43938W        W12167  22.643  31.687   0.953
43939W        W12168  32.400  40.699  10.639
43940W        W12169  39.862  40.008   2.961
43941W        W12170  41.274  10.823  11.757
43942W        W12171   0.590   1.224   2.227
43943W        W12172   5.876  25.048   1.665
43944W        W12173  38.771  41.319  10.509
43945W        W12174  17.103  23.494   2.555
43946W        W12175  31.842  43.521   1.393
43947W        W12176  34.214  35.653   1.138
43948W        W12177  20.582  10.365  11.200
43949W        W12178  37.473  38.882  13.492
43950W        W12179   2.109  15.605  13.523
43951W        W12180  22.507  14.834  14.467
43952W        W12181  34.074   4.855   4.763
43953W        W12182   0.754  11.246  12.540
43954W        W12183  34.019   2.454   1.421
43955W        W12184   3.630  19.272  13.485
43956W        W12185  21.660  19.610  10.721
43957W        W12186  17.306   8.252   2.223
43958W        W12187  13.790  44.445  14.556
43959W        W12188   0.019  43.895   3.312
43960W        W12189  17.132  25.604   1.275
43961W        W12190   6.192   4.914   1.618
43962W        W12191  43.312  35.611   1.908
43963W        W12192  21.632  16.369   4.307
43964W        W12193   7.980   4.789  10.589
43965W        W12194  22.700  38.816  12.031
43966W        W12195   3.990  27.945   0.941
43967W        W12196  24.876   4.276  12.894
43968W        W12197  11.342  19.174  10.707
43969W        W12198  42.831  12.671   0.874
43970W        W12199  20.449   1.961   2.226
43971W        W12200  38.399  21.120   2.849
43972W        W12201  43.965  18.874   0.933
43973W        W12202  41.617  25.931   2.480
43974W        W12203  42.352  22.780   4.355
43975W        W12204  27.620   3.849   1.309
43976W        W12205   8.688   2.425  10.643
43977W        W12206  34.178  18.412  12.766
43978W        W12207  21.995  44.239  14.878
43979W        W12208  37.619  13.389  13.310
43980W        W12209   2.673  34.338   0.792
43981W        W12210  40.130   7.705  13.331
43982W        W12211  36.015  10.400   1.743
43983W        W12212  16.837  15.763  10.069
43984W        W12213  35.516   0.992  12.145
43985W        W12214  17.048  16.217   3.286
43986W        W12215  19.943  28.021  12.872
43987W        W12216  37.890  38.201   4.366
43988W        W12217  40.507   7.289  13.825
43989W        W12218  14.820  26.873   2.040
43990W        W12219  20.039  21.289   2.229
43991W        W12220  41.339  31.592   2.372
43992W        W12221  25.451  15.117   0.700
43993W        W12222  42.794  17.312   0.270
43994W        W12223  14.975  44.790   2.124
43995W        W12224  41.515  35.154  10.991
43996W        W12225   7.917  16.522  11.254
43997W        W12226  30.142  20.177   0.776
43998W        W12227   1.644  10.326   2.547
43999W        W12228   9.662  11.703   1.376
44000W        W12229  32.466  14.234   2.218
44001W        W12230  25.709   1.334   0.801
44002W        W12231  31.045  10.161  14.891
44003W        W12232  34.070  34.873   4.133
44004W        W12233   2.708   8.662   1.290
44005W        W12234  29.193  37.957  11.983
44006W        W12235  31.475  29.724   3.048
44007W        W12236  25.239  38.791  13.423
44008W        W12237  12.353   0.072   4.068
44009W        W12238   5.707   5.726   4.716
44010W        W12239   7.475  15.691   3.874
44011W        W12240   3.639  29.470  13.680
44012W        W12241  15.109  14.632   0.228
44013W        W12242  44.892  15.139  13.868
44014W        W12243   7.072  29.462   2.499
44015W        W12244  19.666  32.467  11.641
44016W        W12245  14.280  17.367   1.797
44017W        W12246  29.398  39.378   3.085
44018W        W12247   6.807  17.752  13.851
44019W        W12248  13.654  23.163  13.857
44020W        W12249  36.072  43.908  13.349
44021W        W12250  38.186  11.706   1.763
44022W        W12251  34.716  33.553   5.041
44023W        W12252  14.748  37.473   2.626
44024W        W12253   9.087  21.975  12.300
44025W        W12254  38.906   3.371  12.377
44026W        W12255   1.467  34.472  12.025
44027W        W12256   9.401  29.193   0.646
44028W        W12257  35.744  43.542   0.945
44029W        W12258  31.008  34.541   0.924
44030W        W12259   0.648  24.694  12.988
44031W        W12260  11.796  13.359   0.053
44032W        W12261  29.416  31.955  14.337
44033W        W12262   2.860  27.754   1.338
44034W        W12263  27.677   2.179   3.661
44035W        W12264  30.061  19.231  10.777
44036W        W12265  43.330  22.980  12.780
44037W        W12266  15.526  18.729  14.855
44038W        W12267   1.329  33.133  13.286
44039W        W12268  39.074  11.377  12.281
44040W        W12269  21.617  36.396   2.976
44041W        W12270  27.317  22.982  11.199
44042W        W12271  30.613  38.923   0.032
44043W        W12272  43.834   4.263  10.653
44044W        W12273  26.222  35.839  11.732
44045W        W12274  22.439  22.930  13.353
44046W        W12275  40.325  40.408   3.572
44047W        W12276  25.029  34.489   3.074
44048W        W12277  38.896  24.294   3.172
44049W        W12278  16.398  40.437   0.890
44050W        W12279  28.986   4.813   3.188
44051W        W12280  15.570   4.883   1.850
44052W        W12281  24.967   3.625  14.917
44053W        W12282  10.871  14.487   2.382
44054W        W12283  20.127  30.524  12.060
44055W        W12284  18.212  22.227  13.257
44056W        W12285   0.640  16.007   3.704
44057W        W12286  11.816   2.717  14.294
44058W        W12287  38.466  32.419   5.069
44059W        W12288  21.123  22.155  10.301
44060W        W12289  21.703  31.488  13.639
44061W        W12290  12.225  39.131  12.385
44062W        W12291   7.698  39.975  10.616
44063W        W12292  18.067  36.393   0.191
44064W        W12293  26.570   8.726  12.083
44065W        W12294  37.967   6.320  14.473
44066W        W12295  40.128   0.311   2.507
44067W        W12296   5.762  24.589  10.779
44068W        W12297   7.183  27.454  11.204
44069W        W12298  43.671  15.605  11.721
44070W        W12299  27.497  30.139   4.921
44071W        W12300  24.988   2.004  13.156
44072W        W12301  34.417  11.500  14.343
44073W        W12302  40.376  32.695   4.588
44074W        W12303   2.169  23.252   3.674
44075W        W12304  14.211  35.386   2.254
44076W        W12305   1.461  32.545   4.461
44077W        W12306  32.602  22.931   4.678
44078W        W12307  44.080  39.905   1.507
44079W        W12308  22.622   9.565  13.524
44080W        W12309  32.361   3.290  11.599
44081W        W12310  23.163  10.728  11.766
44082W        W12311  11.173  31.248   4.553
44083W        W12312  22.642  35.223  13.345
44084W        W12313  23.105   0.847   2.656
44085W        W12314  33.005   3.750  10.809
44086W        W12315   2.842  11.625   3.802
44087W        W12316  41.476  36.056   4.833
44088W        W12317  10.720   5.271   4.015
44089W        W12318  14.160  21.727   4.222
44090W        W12319  36.422  23.571   1.865
44091W        W12320  20.057  20.725  10.355
44092W        W12321  10.105  43.320  12.819
44093W        W12322  29.170  42.333   2.274
44094W        W12323   4.900  10.633   2.201
44095W        W12324  20.122  31.438  13.869
44096W        W12325  37.877   0.044  13.314
44097W        W12326  14.251  32.714  12.387
44098W        W12327   5.240  33.882   3.299
44099W        W12328  31.711  10.884   2.739
44100W        W12329  11.564  17.000   2.307
44101W        W12330   2.529  28.634   1.246
44102W        W12331  18.788  42.524  12.106
44103W        W12332  37.852  19.852  11.535
44104W        W12333   3.518   3.799  13.475
44105W        W12334  26.295  42.823  11.245
44106W        W12335   6.328   2.331   3.603
44107W        W12336   8.785  23.412  11.225
44108W        W12337  16.717  27.692  10.123
44109W        W12338  20.158  14.250  14.800
44110W        W12339  44.066  43.564   1.306
44111W        W12340  21.577   7.468   0.251
44112W        W12341  28.083   0.432  10.601
44113W        W12342  22.809   4.293   2.701
44114W        W12343  43.416  36.135  14.082
44115W        W12344  16.751  36.273   4.567
44116W        W12345  27.500  26.873  11.097
44117W        W12346  11.505  33.134  12.088
44118W        W12347  10.408  27.482  11.192
44119W        W12348  34.830  43.789  11.140
44120W        W12349  31.898  21.991   4.015
44121W        W12350  24.282  37.908   0.349
44122W        W12351  26.447  20.231   2.893
44123W        W12352   7.149  42.255  12.895
44124W        W12353  43.480   6.955  13.525
44125W        W12354   8.377  21.879  14.768
44126W        W12355  43.024  40.281   5.095
44127W        W12356   0.433   0.998   4.103
44128W        W12357  36.479  13.131  11.252
44129W        W12358   3.422  39.372   4.905
44130W        W12359   3.383  27.834   1.770
44131W        W12360  17.579  32.753  12.056
44132W        W12361   6.300  18.779   1.648
44133W        W12362  25.727  41.053   1.307
44134W        W12363  29.572  31.853   2.279
44135W        W12364  27.439   3.377  13.938
44136W        W12365  44.478  18.718  14.812
44137W        W12366  10.113  11.827  14.628
44138W        W12367  31.852   7.194   3.421
44139W        W12368  26.538  10.221   1.720
44140W        W12369  41.483  13.684  14.567
44141W        W12370   5.216  30.904   5.025
44142W        W12371  14.154  36.359   0.055
44143W        W12372  28.158  19.530  10.278
44144W        W12373  14.271  27.479   1.870
44145W        W12374  24.030   8.825  12.981
44146W        W12375  30.681   1.357  14.127
44147W        W12376   3.412  41.241   3.850
44148W        W12377  22.729  32.641  12.919
44149W        W12378   8.277  19.088   3.567
44150W        W12379  34.690  27.423   0.453
44151W        W12380  30.260   8.715  12.012
44152W        W12381  22.891   4.362  12.550
44153W        W12382  17.348  28.224  14.041
44154W        W12383  37.881  29.984   3.114
44155W        W12384  35.491  34.082  12.523
44156W        W12385  21.580  16.706   2.296
44157W        W12386   9.613  43.561   1.128
44158W        W12387  13.335  25.243  11.132
44159W        W12388  16.720   2.186   1.416
44160W        W12389  26.979  17.066  13.393
44161W        W12390  40.401  30.643   2.860
44162W        W12391  12.476   0.900  12.546
44163W        W12392  33.486  24.105  12.161
44164W        W12393   9.339   7.199  12.556
44165W        W12394  33.569  13.862  11.852
44166W        W12395  16.277   8.708   4.534
44167W        W12396  40.742  38.857  11.119
44168W        W12397  12.581  44.927  11.505
44169W        W12398  24.513  42.915   2.796
44170W        W12399  14.847  41.588   2.301
44171W        W12400  41.787   5.415   0.176
44172W        W12401  15.893   9.751   1.265
44173W        W12402   8.933  12.911  14.131
44174W        W12403   5.020  38.962   0.294
44175W        W12404  33.276  10.091  12.388
44176W        W12405  28.055  31.205  14.921
44177W        W12406  20.821   5.500   0.867
44178W        W12407  21.934   8.746   2.735
44179W        W12408   4.422  42.604  11.003
44180W        W12409  20.897  22.797   0.391
44181W        W12410  12.124   7.293   3.389
44182W        W12411  24.085  21.190   1.277
44183W        W12412  36.357  12.301   0.858
44184W        W12413  15.805  36.456   3.732
44185W        W12414  36.299  37.861  11.830
44186W        W12415  27.133  26.501   3.423
44187W        W12416   6.210  31.277  14.223
44188W        W12417   8.642  42.271  12.952
44189W        W12418  28.941   7.763   4.195
44190W        W12419  38.687  35.944  10.218
44191W        W12420  23.676   3.893   1.814
44192W        W12421  10.317  11.922   1.990
44193W        W12422  13.830  10.462   3.673
44194W        W12423   5.704  31.339  11.623
44195W        W12424   4.520   1.272   2.429
44196W        W12425  43.997   7.248   1.582
44197W        W12426  30.877   5.878   2.585
44198W        W12427   8.056  14.110   1.121
44199W        W12428  29.368  35.051   4.211
44200W        W12429  28.397  25.662   1.130
44201W        W12430  21.850  30.665   4.783
44202W        W12431  37.573  18.253   3.930
44203W        W12432  22.204  34.979   2.397
44204W        W12433  22.619  32.334  12.464
44205W        W12434  40.049   7.901   2.335
44206W        W12435  26.600  31.368  13.378
44207W        W12436  23.990  31.324  12.687
44208W        W12437  31.471  15.943  14.096
44209W        W12438  34.291  16.327   0.316
44210W        W12439  32.417  37.445  10.702
44211W        W12440  39.958  21.106  14.559
44212W        W12441  30.374  24.663   3.115
44213W        W12442  19.217  24.804   5.491
44214W        W12443  33.858  30.148   2.922
44215W        W12444   1.739   1.417   3.757
44216W        W12445  43.037   3.350  11.531
44217W        W12446  31.277  34.345   1.344
44218W        W12447   8.207   0.845  13.151
44219W        W12448  23.901  14.031   1.809
44220W        W12449  40.239  22.051   4.095
44221W        W12450   2.909  14.698  13.906
44222W        W12451  39.750  35.192  12.293
44223W        W12452  29.244  29.701   1.873
44224W        W12453   3.494   5.559  11.073
44225W        W12454  22.363   8.214   3.337
44226W        W12455  17.217   0.384  12.070
44227W        W12456  32.613  31.657   1.151
44228W        W12457  31.440  19.768   1.810
44229W        W12458  32.937   9.100   1.843
44230W        W12459  18.774  31.294  14.857
44231W        W12460   3.362  16.006   2.098
44232W        W12461  35.106  20.658  12.191
44233W        W12462  19.562  31.411  11.585
44234W        W12463   2.651  39.297  12.765
44235W        W12464   7.526  35.500   2.246
44236W        W12465  14.138  13.173   1.876
44237W        W12466   6.944  38.003   2.108
44238W        W12467  25.112  43.769  14.928
44239W        W12468  10.197  42.000  11.227
44240W        W12469  23.620  25.122  11.736
44241W        W12470  17.190   9.171  14.956
44242W        W12471  44.037  37.155   0.917
44243W        W12472  20.730  19.200  14.545
44244W        W12473  21.061  35.172   3.783
44245W        W12474  20.107  41.287   4.269
44246W        W12475  12.269   3.603   0.276
44247W        W12476  10.117   4.416   4.091
44248W        W12477  34.770  39.098  14.315
44249W        W12478  14.128  16.932   9.832
44250W        W12479  27.351  28.945   4.104
44251W        W12480  41.016   4.722   2.010
44252W        W12481  42.411   3.775  14.923
44253W        W12482  33.564  41.465   3.098
44254W        W12483  43.049  29.756   0.585
44255W        W12484  30.995   1.331   1.328
44256W        W12485  26.128  18.505   3.513
44257W        W12486  18.825  40.833  12.087
44258W        W12487   1.027  43.141   4.119
44259W        W12488  15.230  30.844   2.796
44260W        W12489  44.385  31.384   4.943
44261W        W12490  37.554  38.856   4.175
44262W        W12491  12.303   0.995  14.476
44263W        W12492  40.354   7.468   1.774
44264W        W12493   4.651  14.078  14.989
44265W        W12494  31.881  34.819  14.933
44266W        W12495   1.283   4.241   1.713
44267W        W12496  34.456  37.025   1.147
44268W        W12497  42.742  38.565   3.259
44269W        W12498  33.679  23.239  12.527
44270W        W12499  40.744  10.062  12.169
44271W        W12500   2.863  11.946  13.060
44272W        W12501   6.818   4.059   0.703
44273W        W12502   9.423  38.816  12.965
44274W        W12503   1.317  13.404   0.933
44275W        W12504  11.756   3.665   3.747
44276W        W12505  14.262  37.238  13.936
44277W        W12506  25.853  37.396  11.391
44278W        W12507  36.904  27.191   2.686
44279W        W12508   0.386  18.266  10.572
44280W        W12509  21.767  30.448   1.384
44281W        W12510   6.195   6.179   0.222
44282W        W12511  30.192  28.011  14.824
44283W        W12512  25.476  41.500   3.178
44284W        W12513  41.259  10.852   0.784
44285W        W12514  22.497  22.827   0.668
44286W        W12515   6.345  28.232  14.384
44287W        W12516   1.712   7.913  14.301
44288W        W12517  16.637  12.799  10.707
44289W        W12518  11.979   1.461  13.902
44290W        W12519  10.885  20.121   3.777
44291W        W12520  20.814  38.031   2.312
44292W        W12521   5.932  38.027   0.975
44293W        W12522  16.252  34.854   0.476
44294W        W12523  17.597  38.685  14.606
44295W        W12524  41.382  11.826   4.641
44296W        W12525  43.562  18.197   0.495
44297W        W12526  20.490  37.935  14.336
44298W        W12527  19.103  36.579   2.930
44299W        W12528  16.196  24.342  11.998
44300W        W12529  27.950   4.682   4.136
44301W        W12530  13.243  15.006   2.370
44302W        W12531   6.934   1.730   0.421
44303W        W12532   6.439  41.352   1.316
44304W        W12533  41.485  24.053   1.817
44305W        W12534  28.993  21.982  12.935
44306W        W12535  36.374   9.465   1.553
44307W        W12536   5.752   9.442   0.404
44308W        W12537  44.232  29.756  12.996
44309W        W12538  27.840   7.154  10.095
44310W        W12539   5.604  14.974   0.224
44311W        W12540  33.260  10.960  11.305
44312W        W12541  36.657  34.520  14.308
44313W        W12542  32.432  21.226   4.719
44314W        W12543  38.093  15.886   3.503
44315W        W12544   3.267   0.669  14.850
44316W        W12545  40.398   1.993   1.123
44317W        W12546  38.653  16.087   0.204
44318W        W12547  41.836   5.842  12.493
44319W        W12548  41.295  44.839  14.722
44320W        W12549   4.897  36.317  10.853
44321W        W12550  42.871  13.482   4.004
44322W        W12551   9.733  15.230   3.231
44323W        W12552  29.253  41.316   2.366
44324W        W12553  27.108  16.752  14.465
44325W        W12554  29.680   4.023   1.547
44326W        W12555   4.765  38.077   4.135
44327W        W12556  10.608  23.775  14.384
44328W        W12557  12.080   7.420  14.356
44329W        W12558  29.923  42.441   0.404
44330W        W12559  26.421   3.867   4.949
44331W        W12560  32.965   1.334   0.364
44332W        W12561  35.715  14.193   3.827
44333W        W12562  10.838  11.124  10.601
44334W        W12563   7.863  24.669   0.491
44335W        W12564   1.332   9.118  12.111
44336W        W12565  18.270  29.969   0.264
44337W        W12566   8.760  26.038   4.381
44338W        W12567  17.731  43.001  14.302
44339W        W12568  37.095  40.831  10.696
44340W        W12569   3.442  29.518   1.391
44341W        W12570  44.427  18.205   3.855
44342W        W12571  35.881   7.688   1.523
44343W        W12572  22.959  20.666  12.875
44344W        W12573   3.349  21.645   4.312
44345W        W12574   9.810   7.176  13.361
44346W        W12575  30.920  19.281  13.302
44347W        W12576  23.072  26.240  11.847
44348W        W12577  13.778  10.490   1.693
44349W        W12578  40.919  30.179  13.053
44350W        W12579   0.983  23.821  11.479
44351W        W12580  33.693  32.073   4.420
44352W        W12581   7.654   4.463  13.553
44353W        W12582  31.566  40.519  14.785
44354W        W12583  44.496  31.637  10.611
44355W        W12584   1.124  41.845  12.918
44356W        W12585   9.335  19.881  14.807
44357W        W12586  27.292   2.134  14.334
44358W        W12587  44.733  19.732  13.138
44359W        W12588  22.194   1.299   3.266
44360W        W12589  41.844  20.529  12.104
44361W        W12590  22.976  18.544   4.286
44362W        W12591  38.069  15.741   4.470
44363W        W12592  18.764  23.186  11.217
44364W        W12593  32.381  39.628  12.951
44365W        W12594  40.324  20.820   2.818
44366W        W12595  16.634  19.512  13.496
44367W        W12596  24.455  37.256  14.379
44368W        W12597   6.384  44.270  12.014
44369W        W12598  34.381  13.146  12.983
44370W        W12599  31.070  33.838   4.851
44371W        W12600  18.841  10.736  12.037
44372W        W12601  12.172  26.696   0.404
44373W        W12602   8.631  35.853   1.946
44374W        W12603  37.418   6.187  10.722
44375W        W12604  34.294  31.701   1.949
44376W        W12605   7.578  13.824   4.193
44377W        W12606  17.835  21.418   2.751
44378W        W12607  18.275  38.514  12.184
44379W        W12608  13.231  23.458  11.992
44380W        W12609  29.258  35.332   5.018
44381W        W12610  24.251  20.460  11.250
44382W        W12611  22.050  33.495   2.809
44383W        W12612  10.128  25.959  11.189
44384W        W12613  14.316  36.940  10.730
44385W        W12614  38.398  23.090   0.521
44386W        W12615  24.144  26.525   4.558
44387W        W12616  35.935  23.319   0.030
44388W        W12617  36.439   8.207  11.136
44389W        W12618  41.797  43.732   3.138
44390W        W12619   3.086  28.236   3.205
44391W        W12620   0.264   8.055   4.148
44392W        W12621  14.214   4.260   4.370
44393W        W12622  24.151  33.139   0.429
44394W        W12623  40.487   2.010  12.528
44395W        W12624  35.939  20.622   0.339
44396W        W12625  16.570   1.320  10.542
44397W        W12626  32.649  41.902  11.209
44398W        W12627  32.285   3.425   4.212
44399W        W12628  38.147  11.837  14.819
44400W        W12629  10.863  25.727  11.509
44401W        W12630  13.238  33.112   3.094
44402W        W12631  11.625  36.053  14.360
44403W        W12632  19.884  25.065  14.960
44404W        W12633  27.432  33.258   1.352
44405W        W12634   3.317  25.287   0.944
44406W        W12635  21.253   0.345   0.359
44407W        W12636   1.345  33.838  14.271
44408W        W12637  27.715  24.447   1.424
44409W        W12638  42.758  26.208   0.245
44410W        W12639   6.433  40.443   1.662
44411W        W12640  26.639  41.497   1.911
44412W        W12641   9.855  32.151   0.219
44413W        W12642   2.360  12.928  12.920
44414W        W12643  14.409  17.967   4.533
44415W        W12644  43.806  20.209  11.928
44416W        W12645   6.919  29.946   0.820
44417W        W12646  36.255  15.043   0.017
44418W        W12647   9.323  38.987   4.706
44419W        W12648  12.147  17.818  14.832
44420W        W12649  34.568  17.135   4.612
44421W        W12650  38.533  22.882  11.924
44422W        W12651  31.324  16.779   0.559
44423W        W12652   3.430  28.602   3.274
44424W        W12653  34.939  34.107  11.473
44425W        W12654   3.443   5.535   2.516
44426W        W12655  36.342  41.472   4.174
44427W        W12656  12.695  39.478   3.762
44428W        W12657  25.753  10.762   9.797
44429W        W12658  12.384   3.782   1.339
44430W        W12659  43.416  44.240  12.036
44431W        W12660  11.171  15.164   1.927
44432W        W12661  34.937   5.354   4.115
44433W        W12662  30.708  17.413   0.829
44434W        W12663  22.676  19.562  12.955
44435W        W12664  10.302  37.371  13.849
44436W        W12665  34.139  35.123  14.954
44437W        W12666  41.231  18.204  11.579
44438W        W12667   0.695  21.900   3.782
44439W        W12668   5.208  30.508  14.996
44440W        W12669  20.558  13.718  10.805
44441W        W12670  15.268   9.102  12.843
44442W        W12671  31.386  29.851  13.944
44443W        W12672  36.877  44.389  14.988
44444W        W12673  10.468  21.108   0.020
44445W        W12674  27.956  18.385   3.180
44446W        W12675  32.148  28.596   4.558
44447W        W12676  16.446  32.355   3.915
44448W        W12677   3.707  33.014  13.888
44449W        W12678  32.300  34.181   1.455
44450W        W12679   0.269   5.247  14.421
44451W        W12680   7.248  34.402   4.931
44452W        W12681   6.674  31.200   0.542
44453W        W12682  20.257  39.177   1.494
44454W        W12683   1.092   5.238  14.204
44455W        W12684  28.959  39.646  10.821
44456W        W12685   6.423  30.086   0.882
44457W        W12686   0.413  42.562  11.159
44458W        W12687  30.376  21.658   4.559
44459W        W12688  27.003   9.617  14.620
44460W        W12689  37.897  24.617  12.148
44461W        W12690  29.883  14.654  13.315
44462W        W12691   9.564   3.696   2.717
44463W        W12692   6.616   0.145   1.891
44464W        W12693   2.359  41.959  13.335
44465W        W12694  32.685  19.270   1.474
44466W        W12695   7.412  42.776  11.543
44467W        W12696   8.832  16.213  11.705
44468W        W12697  38.964  18.197   4.717
44469W        W12698  37.534  32.003   0.015
44470W        W12699  22.200  24.495  10.406
44471W        W12700   0.063  40.471  14.118
44472W        W12701  39.947  38.280  11.032
44473W        W12702  12.865   4.786   0.939
44474W        W12703  22.318  34.599  14.045
44475W        W12704  44.338  16.860   1.831
44476W        W12705   3.482   1.338   2.390
44477W        W12706  27.547  17.550  14.338
44478W        W12707  24.879  28.268   4.962
44479W        W12708  39.463   1.293   0.855
44480W        W12709  13.064  33.168  12.180
44481W        W12710  34.178   1.059  11.863
44482W        W12711   3.728  42.702   4.730
44483W        W12712   7.836  41.051  12.934
44484W        W12713   7.295  21.252   3.026
44485W        W12714  33.669  19.750   0.504
44486W        W12715   1.617  33.888   4.955
44487W        W12716  44.240   8.377  10.604
44488W        W12717  31.704  19.768  14.978
44489W        W12718   4.124  34.991  12.551
44490W        W12719  28.383  29.391  10.591
44491W        W12720  16.919   8.171  13.935
44492W        W12721   5.938  19.608   4.675
44493W        W12722  39.747  41.301   3.230
44494W        W12723   5.735  43.350  11.412
44495W        W12724  30.244   9.231  11.936
44496W        W12725  39.025  10.804   1.752
44497W        W12726   2.795  19.066   2.380
44498W        W12727  21.979  36.066   4.707
44499W        W12728  41.600  22.677  13.575
44500W        W12729   2.559   1.093   2.842
44501W        W12730  43.059   6.906   2.949
44502W        W12731  28.987  33.321  12.099
44503W        W12732  41.053   9.188   1.899
44504W        W12733   9.531  34.336   3.318
44505W        W12734  11.545   4.219  14.528
44506W        W12735  30.566  24.484  14.837
44507W        W12736  23.076  23.729   2.208
44508W        W12737  36.739  27.066  13.975
44509W        W12738  22.477  15.085  11.551
44510W        W12739  28.934  19.701   3.092
44511W        W12740  21.059  27.124   2.793
44512W        W12741  37.542  11.900   2.642
44513W        W12742   9.607  21.991   2.264
44514W        W12743  24.585  34.608   1.346
44515W        W12744  19.543  30.176  12.845
44516W        W12745   2.487  14.335   0.300
44517W        W12746  14.522   5.256   2.282
44518W        W12747  16.716   0.517   0.639
44519W        W12748  33.513  27.655  14.979
44520W        W12749  32.206  16.551  12.539
44521W        W12750  22.936  20.733  10.958
44522W        W12751  15.156  33.655  14.031
44523W        W12752  12.220  27.270   2.877
44524W        W12753  40.864  33.840  11.156
44525W        W12754  40.755  13.580   2.764
44526W        W12755  41.024  16.262   4.222
44527W        W12756  40.573   9.514  14.002
44528W        W12757   1.346  16.644  10.414
44529W        W12758  10.341  19.136  12.675
44530W        W12759  33.104   3.217   2.295
44531W        W12760  40.083   7.955   0.927
44532W        W12761  28.278  41.652   1.330
44533W        W12762  26.422  15.049   0.820
44534W        W12763   8.698  37.610   0.696
44535W        W12764  10.223  31.468   2.627
44536W        W12765  36.936  13.147   1.190
44537W        W12766   5.862  23.427  12.949
44538W        W12767  23.634  33.490  10.381
44539W        W12768  21.796  11.245  14.296
44540W        W12769  19.508  36.935  12.059
44541W        W12770  30.413   6.820   3.933
44542W        W12771  10.093  20.354   5.120
44543W        W12772  17.416  38.091   0.285
44544W        W12773  22.178  17.602   2.376
44545W        W12774  19.261   7.283   0.385
44546W        W12775  22.528  34.350  12.497
44547W        W12776   8.595  20.501  13.328
44548W        W12777  29.770  31.851  11.183
44549W        W12778  23.181  38.929   3.026
44550W        W12779  37.745   4.101  11.001
44551W        W12780  15.345   2.200   3.219
44552W        W12781  12.795  24.021   0.453
44553W        W12782  44.257  41.350   3.785
44554W        W12783   7.927  25.190  13.934
44555W        W12784  22.054  13.118   4.681
44556W        W12785   4.455   5.825   3.766
44557W        W12786   7.742  17.063   4.559
44558W        W12787  23.257  12.259  13.908
44559W        W12788  19.344  17.136  10.340
44560W        W12789  26.928  32.476   4.044
44561W        W12790  24.616  40.817  14.161
44562W        W12791   8.074  36.025  14.843
44563W        W12792  39.931  26.799   4.983
44564W        W12793  29.807  17.786   1.662
44565W        W12794  23.220  33.648   1.111
44566W        W12795   1.745   6.312   0.554
44567W        W12796  11.020  10.564   0.296
44568W        W12797  27.200  20.558  12.378
44569W        W12798  39.357   9.806   5.048
44570W        W12799  32.470  11.987  13.945
44571W        W12800  15.409   8.139  14.981
44572W        W12801  14.657  40.992  11.972
44573W        W12802  36.304  21.260   2.496
44574W        W12803   7.818  18.837  14.492
44575W        W12804  11.097  29.017   1.456
44576W        W12805  10.317  41.110   4.190
44577W        W12806  21.129   5.100   2.248
44578W        W12807  39.612  41.780   0.906
44579W        W12808  37.516   8.321   4.462
44580W        W12809  38.238  12.250  11.010
44581W        W12810  23.544   7.692   1.485
44582W        W12811  21.408  19.502  14.995
44583W        W12812  36.946   1.161   1.067
44584W        W12813  31.089  38.889   1.345
44585W        W12814   5.767  14.290   0.901
44586W        W12815   0.802  27.784  13.583
44587W        W12816  17.100  24.601   0.480
44588W        W12817  15.270  26.726  12.438
44589W        W12818  35.136  27.280   1.610
44590W        W12819  28.458  12.565  13.322
44591W        W12820  40.581  33.978   4.117
44592W        W12821  25.710  17.571   0.334
44593W        W12822  31.528  11.421  12.128
44594W        W12823  33.044  16.368   2.764
44595W        W12824  37.378  23.529  14.015
44596W        W12825  23.332   9.668  13.998
44597W        W12826   0.820   9.887  11.478
44598W        W12827  19.986  31.095  14.728
44599W        W12828  16.051  39.009  11.829
44600W        W12829  38.602  11.932  10.782
44601W        W12830   1.230  10.237  13.026
44602W        W12831  41.631  21.329   2.586
44603W        W12832  27.185  19.067   1.915
44604W        W12833   6.903  25.600  12.844
44605W        W12834   3.915   6.259   2.572
44606W        W12835  31.377  34.803   4.053
44607W        W12836  44.702  21.439   4.892
44608W        W12837  32.319  23.174  11.418
44609W        W12838  39.452  15.620   2.148
44610W        W12839   6.673  44.768   3.961
44611W        W12840   1.710  27.456  13.921
44612W        W12841  11.832  22.488   4.480
44613W        W12842  34.340  44.898   2.536
44614W        W12843  26.663  32.399   1.201
44615W        W12844  11.858   2.955  13.437
44616W        W12845  44.516  23.300  10.653
44617W        W12846  17.708  25.651   4.123
44618W        W12847  30.270   5.493   1.372
44619W        W12848  29.127   7.871  12.017
44620W        W12849  37.587  37.834   4.132
44621W        W12850  20.646  42.044  10.565
44622W        W12851   2.893  12.222  12.615
44623W        W12852  34.649  13.577   2.740
44624W        W12853   6.773  23.838  14.255
44625W        W12854  36.349  42.899   5.133
44626W        W12855  27.068   3.859   4.420
44627W        W12856   9.093  32.063  10.665
44628W        W12857   6.648  34.109   3.390
44629W        W12858  10.359  28.507   3.633
44630W        W12859  37.745  37.918   5.025
44631W        W12860  15.671  33.367   3.360
44632W        W12861  23.164   1.385   4.222
44633W        W12862  30.216  11.157   2.972
44634W        W12863  13.190  33.394   1.423
44635W        W12864  27.768  42.408   4.177
44636W        W12865  13.887  23.904  12.491
44637W        W12866  43.367   1.041  14.891
44638W        W12867  33.423  42.894   0.831
44639W        W12868  16.575  22.000   0.344
44640W        W12869  35.571   1.797   2.407
44641W        W12870  21.251  39.398   0.841
44642W        W12871  10.606  36.994  12.616
44643W        W12872  17.006  20.836   0.860
44644W        W12873  44.854  15.581   1.772
44645W        W12874  13.616   1.693  11.102
44646W        W12875  37.396  42.916  14.075
44647W        W12876   9.419  41.512  13.518
44648W        W12877   0.024  28.473  13.635
44649W        W12878  18.715  26.903   0.605
44650W        W12879  11.252  39.643  11.754
44651W        W12880  37.427  37.642  14.550
44652W        W12881  23.911   1.825  12.364
44653W        W12882  24.426   5.822   3.635
44654W        W12883   1.853  11.743  13.041
44655W        W12884  31.019  36.056   0.481
44656W        W12885  44.779  27.515   3.175
44657W        W12886  17.755   6.434   4.147
44658W        W12887  29.584  23.721  11.136
44659W        W12888  39.022  19.498  12.032
44660W        W12889  41.328  32.137   4.579
44661W        W12890  11.412  20.973  12.451
44662W        W12891  39.920  39.521   2.768
44663W        W12892   5.849  28.032   1.845
44664W        W12893  30.763  40.778  11.201
44665W        W12894   5.738  39.740  13.598
44666W        W12895  26.684  32.271  14.581
44667W        W12896   4.705  27.776  10.578
44668W        W12897  14.132   6.628  13.156
44669W        W12898  11.234  21.570  14.340
44670W        W12899  42.212  42.903   4.124
44671W        W12900  13.683  23.926  13.406
44672W        W12901  11.341  14.344   3.225
44673W        W12902  40.864   5.361   4.513
44674W        W12903  29.673   9.459  11.142
44675W        W12904  15.445  13.655   4.862
44676W        W12905  26.041   9.141  14.330
44677W        W12906  24.533   4.318  11.522
44678W        W12907  11.614  43.382  11.500
44679W        W12908  12.357  18.737   2.243
44680W        W12909  23.258   1.366   2.210
44681W        W12910  26.166  13.847  12.783
44682W        W12911   3.303  38.806   3.569
44683W        W12912   6.785   1.940   2.594
44684W        W12913  38.430  40.759  11.615
44685W        W12914   0.898  28.654   2.204
44686W        W12915  19.294  39.039   4.611
44687W        W12916   6.869  42.238   1.328
44688W        W12917  30.373  21.025   3.287
44689W        W12918  37.300  40.273   0.775
44690W        W12919  30.370  18.873  13.955
44691W        W12920  24.769  38.947  13.577
44692W        W12921  23.989  35.998   3.637
44693W        W12922   6.306  10.606   3.854
44694W        W12923  34.113   6.742   1.396
44695W        W12924   2.316  14.867   1.371
44696W        W12925  12.813  27.246  14.810
44697W        W12926  28.801  10.743   0.272
44698W        W12927  34.157   2.916  14.418
44699W        W12928   7.949  29.591   1.218
44700W        W12929   8.240  30.039   2.789
44701W        W12930  43.069   8.960   0.459
44702W        W12931  40.423   0.767   4.564
44703W        W12932  37.975   0.203  13.837
44704W        W12933  28.002  32.580   2.694
44705W        W12934  14.386  39.066  13.528
44706W        W12935   4.773  30.965  11.975
44707W        W12936  27.151  17.806   3.306
44708W        W12937  12.301  40.969   4.119
44709W        W12938  12.304   8.385  14.687
44710W        W12939  12.106  35.139   1.279
44711W        W12940  11.251  32.973   3.091
44712W        W12941   0.842   4.533  10.135
44713W        W12942  26.699   9.337   2.191
44714W        W12943   1.480  27.504  10.780
44715W        W12944  16.168  39.046  12.322
44716W        W12945  18.993  34.776   0.392
44717W        W12946  22.598  12.175   3.140
44718W        W12947   9.428   0.729   1.755
44719W        W12948  33.896   1.849  11.213
44720W        W12949  37.046  10.709   2.626
44721W        W12950  35.055  16.336   1.907
44722W        W12951   4.979  14.256   0.504
44723W        W12952  35.411  27.928  12.081
44724W        W12953   4.361  25.743   3.609
44725W        W12954   1.148  25.637  11.483
44726W        W12955  35.544  31.413   2.751
44727W        W12956  40.611  17.587   1.803
44728W        W12957   9.302  41.757  12.672
44729W        W12958  39.557   4.317  14.800
44730W        W12959  32.902  16.858  11.906
44731W        W12960  30.834  31.526   4.004
44732W        W12961   5.676   0.723  12.535
44733W        W12962  27.529  27.482   0.323
44734W        W12963  41.499  35.878  10.506
44735W        W12964   9.414  11.621   2.365
44736W        W12965   3.943  28.914   4.339
44737W        W12966   7.190  41.916   1.036
44738W        W12967  22.689  19.196   3.642
44739W        W12968  30.302   3.712   0.253
44740W        W12969  24.533  29.704  14.448
44741W        W12970   8.799  40.987   4.023
44742W        W12971  10.475  38.444   3.039
44743W        W12972  11.834   7.695  13.557
44744W        W12973  30.605  43.830  14.496
44745W        W12974  40.899  43.225   0.379
44746W        W12975   8.451  36.030   0.223
44747W        W12976  41.021  11.119  12.079
44748W        W12977  28.639  26.047  11.294
44749W        W12978  36.468  12.613   4.762
44750W        W12979  44.564  27.499   1.221
44751W        W12980  42.898  37.410   1.708
44752W        W12981  21.568  43.462   0.711
44753W        W12982   2.355  29.097   1.720
44754W        W12983  40.432  20.094  13.895
44755W        W12984  22.056  41.414  12.398
44756W        W12985  36.297  12.889   3.904
44757W        W12986  37.309   6.415   4.056
44758W        W12987   2.637  17.107   0.365
44759W        W12988  31.678   0.263   1.717
44760W        W12989   6.561  27.648   2.578
44761W        W12990  26.698  12.371   0.411
44762W        W12991   7.784  13.884  11.263
44763W        W12992  34.598  29.497   0.998
44764W        W12993  19.534  27.327  13.915
44765W        W12994  17.005  43.320   0.181
44766W        W12995   4.691  27.106  12.057
44767W        W12996  15.559  29.179  12.308
44768W        W12997   2.534  35.368   0.802
44769W        W12998  28.161  18.106   4.529
44770W        W12999  10.760  13.176   2.855
44771W        W13000   2.001  27.476   4.303
44772W        W13001  10.724  19.079   4.180
44773W        W13002  11.112  35.603  11.325
44774W        W13003  17.323  35.350  13.454
44775W        W13004  12.762  29.960   4.770
44776W        W13005  36.392  37.868   0.168
44777W        W13006  15.166  14.115   4.243
44778W        W13007   8.164  35.540   3.119
44779W        W13008  44.548  15.295  11.526
44780W        W13009  21.144  43.213  10.507
44781W        W13010   4.152  43.568   4.152
44782W        W13011  28.352  38.516   0.225
44783W        W13012  27.144  36.056  11.134
44784W        W13013  24.396  22.766   1.783
44785W        W13014  14.727  12.344   2.295
44786W        W13015   0.821  40.404  11.521
44787W        W13016   5.801  36.186  13.405
44788W        W13017  28.036  10.261   4.526
44789W        W13018   8.944  43.831   3.606
44790W        W13019  28.974  24.780  11.878
44791W        W13020  35.526  43.823  10.573
44792W        W13021  41.132   8.774  14.069
44793W        W13022  14.883  22.244  14.866
44794W        W13023   9.874  36.510  10.345
44795W        W13024   6.612   1.408   3.015
44796W        W13025  23.702  32.444   2.691
44797W        W13026  27.174  35.630   0.572
44798W        W13027   0.355  15.313   2.954
44799W        W13028  39.237  21.079   4.273
44800W        W13029   4.260   3.270  13.372
44801W        W13030  32.401  31.920   3.774
44802W        W13031  33.324  37.508   1.441
44803W        W13032  31.600   0.920   0.332
44804W        W13033  38.593   7.446   2.179
44805W        W13034  24.920  12.412   0.798
44806W        W13035  41.971  14.131   1.228
44807W        W13036  37.519   1.298   0.352
44808W        W13037  28.547  43.270   2.836
44809W        W13038  27.012  42.104  13.881
44810W        W13039  28.047   5.024   2.512
44811W        W13040  12.092  25.034  11.541
44812W        W13041  39.945  35.942  13.504
44813W        W13042  15.320  36.679   2.051
44814W        W13043   3.296  16.404  10.762
44815W        W13044  10.850  16.758  14.588
44816W        W13045  29.721  43.274   1.512
44817W        W13046  35.410  12.431  13.585
44818W        W13047  39.141  18.062   0.819
44819W        W13048  42.498  31.112   2.650
44820W        W13049  11.384  37.396  10.638
44821W        W13050  10.613  21.476   3.169
44822W        W13051  21.265  29.676   1.400
44823W        W13052  10.445   8.850   2.141
44824W        W13053  32.573  10.248  14.828
44825W        W13054  25.562  27.971   1.804
44826W        W13055  38.044   4.984   1.197
44827W        W13056  42.649  32.021  14.574
44828W        W13057  43.655  30.432   5.326
44829W        W13058  44.025  40.986   0.221
44830W        W13059   9.487  26.971   0.789
44831W        W13060   8.958  33.866  13.110
44832W        W13061  43.397  27.164   4.682
44833W        W13062  29.499   5.689  11.287
44834W        W13063  23.013  18.244   2.280
44835W        W13064  32.380  34.895  10.031
44836W        W13065  36.541  21.738  14.020
44837W        W13066  38.769  13.837  12.617
44838W        W13067   6.716  35.594   4.672
44839W        W13068  15.574  20.018  14.415
44840W        W13069  26.673  13.346   1.220
44841W        W13070   9.382  30.889  12.943
44842W        W13071  35.539  32.060   4.608
44843W        W13072   0.901  29.974   1.916
44844W        W13073  44.346  10.781   1.961
44845W        W13074   4.806  17.621  13.194
44846W        W13075   7.292  25.862   3.718
44847W        W13076  36.357   8.773  11.962
44848W        W13077  35.560  22.856  10.821
44849W        W13078  35.943   9.359   1.850
44850W        W13079   2.872  21.283  11.562
44851W        W13080  30.380   8.237   3.992
44852W        W13081   9.772   8.763  12.023
44853W        W13082   7.896   3.149  12.115
44854W        W13083  44.889  37.296   1.473
44855W        W13084  40.629  31.934   1.905
44856W        W13085   8.836  16.038   1.233
44857W        W13086  16.572  10.312   1.393
44858W        W13087  22.476  13.394   5.020
44859W        W13088  18.248  26.030   3.487
44860W        W13089  18.590   5.785   2.207
44861W        W13090   5.455  26.769   2.660
44862W        W13091  10.326  43.530   2.330
44863W        W13092  19.991   6.668   2.813
44864W        W13093  20.990   9.736   1.867
44865W        W13094  12.154  30.678  14.486
44866W        W13095  27.491   4.726  13.983
44867W        W13096  43.356  19.806   2.674
44868W        W13097  24.031  22.699  14.378
44869W        W13098  19.941   5.836  14.755
44870W        W13099   8.378  36.717   3.827
44871W        W13100  26.004   5.999  11.014
44872W        W13101   3.234  32.848   4.112
44873W        W13102  23.025  33.023   2.327
44874W        W13103  27.987  26.425   2.725
44875W        W13104  15.529  18.239  14.592
44876W        W13105  25.548  10.370   3.708
44877W        W13106  20.312  40.023  14.764
44878W        W13107  11.776  29.973  13.978
44879W        W13108  42.387  16.006  13.505
44880W        W13109  23.181  38.985  12.819
44881W        W13110  38.267  38.661  13.096
44882W        W13111   5.711  42.218   2.893
44883W        W13112  13.986   3.408   0.913
44884W        W13113  37.955  27.626   2.271
44885W        W13114  40.902   2.805  13.905
44886W        W13115  11.262   9.225   0.219
44887W        W13116  33.955   3.401  11.932
44888W        W13117   5.345  17.682  14.015
44889W        W13118  10.703  24.229  11.477
44890W        W13119  28.465  39.779  11.128
44891W        W13120  23.971  40.448   3.115
44892W        W13121   0.849  26.609  12.080
44893W        W13122   7.630  37.448  12.866
44894W        W13123   5.986  10.655  11.615
44895W        W13124   6.413  41.459  12.819
44896W        W13125   3.863   1.235   1.797
44897W        W13126  32.333  34.053  13.985
44898W        W13127   0.194   5.964  13.249
44899W        W13128  11.258  10.367  11.505
44900W        W13129  29.134   5.926  11.576
44901W        W13130  32.401   8.204  13.897
44902W        W13131  27.841  21.199  14.005
44903W        W13132   0.529  19.302   0.186
44904W        W13133  28.173  18.599   3.706
44905W        W13134   6.814  28.484  14.326
44906W        W13135   3.188  32.957   1.556
44907W        W13136  16.820  28.971   3.084
44908W        W13137  12.646   2.964   0.979
44909W        W13138  13.147  37.690  12.094
44910W        W13139  22.581  35.948  14.317
44911W        W13140  20.068  36.414   3.875
44912W        W13141  22.625  12.397   1.207
44913W        W13142  11.651  20.310  14.053
44914W        W13143  12.577  41.448  13.641
44915W        W13144   1.502  13.870   1.752
44916W        W13145   6.193  44.763   3.187
44917W        W13146  28.255   2.892  13.872
44918W        W13147   9.606  12.007  11.506
44919W        W13148  44.274  10.567  13.847
44920W        W13149  37.973  44.902   3.704
44921W        W13150  33.709  13.721   1.668
44922W        W13151  41.420   2.912  13.872
44923W        W13152  19.658   3.299  12.100
44924W        W13153  17.766  15.194   4.027
44925W        W13154  26.123  35.129  13.941
44926W        W13155  26.593   2.011   4.620
44927W        W13156  18.229  15.621  12.899
44928W        W13157   8.798  16.157   2.683
44929W        W13158  18.684  20.994  13.439
44930W        W13159  21.629  39.481  12.037
44931W        W13160   5.510  16.479   2.760
44932W        W13161  21.087   7.171   3.182
44933W        W13162   7.844  44.919  11.665
44934W        W13163  19.369  20.701  11.093
44935W        W13164   6.374   9.743   0.178
44936W        W13165  22.841  38.883  14.703
44937W        W13166   4.952  39.699  10.343
44938W        W13167  15.485  36.073  11.471
44939W        W13168  35.079  14.170  11.143
44940W        W13169   3.341  33.934  13.610
44941W        W13170  29.933  10.701  10.729
44942W        W13171  22.102  34.812   3.365
44943W        W13172   5.501  24.144  12.793
44944W        W13173  20.178  32.341   0.332
44945W        W13174  27.133  39.582   1.327
44946W        W13175  40.445  19.646  12.144
44947W        W13176  35.353   4.243   2.325
44948W        W13177  39.487  43.320   3.046
44949W        W13178  25.802  13.353   3.272
44950W        W13179  26.133  42.958   5.087
44951W        W13180  29.448  15.865  11.158
44952W        W13181  36.276   4.502  13.931
44953W        W13182  36.344  44.824   3.130
44954W        W13183  24.199  40.352   4.563
44955W        W13184   3.816  19.266  11.406
44956W        W13185   9.002  15.586   0.471
44957W        W13186  13.594  18.139  10.161
44958W        W13187  18.003  41.793  10.997
44959W        W13188  30.478  20.511   0.501
44960W        W13189  22.743  10.440   0.789
44961W        W13190  35.144   0.737  11.889
44962W        W13191  34.645  18.547   4.267
44963W        W13192  15.826  34.523   4.879
44964W        W13193  25.320  26.196  13.951
44965W        W13194  34.121  17.592   3.260
44966W        W13195   3.843  16.918  13.813
44967W        W13196  20.982  40.375   0.253
44968W        W13197  14.628  25.569   0.196
44969W        W13198   1.911  16.686   0.331
44970W        W13199   5.549  40.869   2.565
44971W        W13200  21.133  22.279   3.754
44972W        W13201  32.363   4.753   1.247
44973W        W13202   1.776  29.622  12.930
44974W        W13203   9.809  43.324   2.621
44975W        W13204   8.252  15.684  13.525
44976W        W13205  22.710  23.756   0.980
44977W        W13206   9.382  44.285  10.760
44978W        W13207  18.443  12.761   1.370
44979W        W13208  31.943  38.608   3.196
44980W        W13209  19.200  20.788   1.796
44981W        W13210  23.955   5.893   4.783
44982W        W13211  36.897  11.640  13.913
44983W        W13212  41.453  36.048   3.173
44984W        W13213  34.072  40.358   3.210
44985W        W13214  35.648  11.050   4.189
44986W        W13215  43.755   7.347   2.626
44987W        W13216  18.605  42.677  11.621
44988W        W13217   3.661   6.234  14.188
44989W        W13218  25.616   4.820  12.042
44990W        W13219  35.409  22.491   0.246
44991W        W13220  20.797  29.643   1.813
44992W        W13221  20.821  43.079   0.345
44993W        W13222  36.434  24.263  13.979
44994W        W13223  29.576  21.146  14.413
44995W        W13224   0.209  32.563  12.486
44996W        W13225  23.144  28.706  14.849
44997W        W13226  34.536   2.700   0.223
44998W        W13227  20.226  39.429  14.196
44999W        W13228   3.808  42.742   5.242
45000W        W13229  25.656  43.575  14.124
45001W        W13230   5.295   0.858  14.329
45002W        W13231  18.896  21.144  10.445
45003W        W13232   1.489  26.905  12.807
45004W        W13233  44.395  38.420   1.378
45005W        W13234  22.093  44.896  11.128
45006W        W13235  31.328   5.412  10.734
45007W        W13236   1.721  16.823  13.988
45008W        W13237  20.973  22.402   1.313
45009W        W13238   6.397   1.003   3.739
45010W        W13239  33.784  30.737   4.173
45011W        W13240   4.429  33.861   2.455
45012W        W13241  25.133  31.509   1.370
45013W        W13242  14.106  38.251   0.947
45014W        W13243  41.799  26.669   0.081
45015W        W13244  30.588  37.887   2.987
45016W        W13245  30.040  26.508   4.780
45017W        W13246   4.190   6.101   1.795
45018W        W13247  38.615  25.904  14.932
45019W        W13248   5.296  34.157   3.743
45020W        W13249  22.497  10.884  12.423
45021W        W13250  23.264  42.967   0.217
45022W        W13251  16.541  25.745   2.853
45023W        W13252  15.134  26.082   3.287
45024W        W13253  26.110  12.529   1.236
45025W        W13254  13.125  18.844   4.098
45026W        W13255  38.031  35.608   1.344
45027W        W13256  10.707   1.846  11.241
45028W        W13257  44.506  42.400   2.904
45029W        W13258  28.036  35.478  14.708
45030W        W13259  31.218   6.455   3.661
45031W        W13260  21.401  19.486  12.026
45032W        W13261   7.857   2.747  14.015
45033W        W13262   4.876  23.614  11.740
45034W        W13263  36.927   3.548   1.943
45035W        W13264  10.767  34.812  11.037
45036W        W13265  23.626  25.770   0.343
45037W        W13266  10.894  42.131  13.066
45038W        W13267   1.490  10.295   3.553
45039W        W13268  15.868  28.200  13.399
45040W        W13269   8.508  19.178   1.175
45041W        W13270  10.856  44.301  12.451
45042W        W13271  10.386  15.191  10.114
45043W        W13272  32.011  11.238  13.913
45044W        W13273  39.768  35.767  11.048
45045W        W13274   6.429   4.355  13.840
45046W        W13275  44.411   8.792  11.292
45047W        W13276  14.111  33.920  11.782
45048W        W13277  10.700  36.074  14.820
45049W        W13278  35.209  41.946   3.377
45050W        W13279  12.612  21.457   4.624
45051W        W13280  23.509  13.994  10.905
45052W        W13281  33.693   2.971  12.065
45053W        W13282  33.483  42.350  13.443
45054W        W13283   5.364  27.496  12.629
45055W        W13284  20.628  33.894  11.068
45056W        W13285  19.575  11.910   0.325
45057W        W13286  34.228  25.027  12.375
45058W        W13287  38.968  43.441  14.342
45059W        W13288  16.557  40.967  13.965
45060W        W13289   0.432  18.887  11.190
45061W        W13290   2.072  29.363  13.612
45062W        W13291  41.501  37.829   0.301
45063W        W13292  14.900  23.678  11.505
45064W        W13293  33.035  19.590  12.780
45065W        W13294  43.490   6.333   4.851
45066W        W13295  43.853  20.512  11.514
45067W        W13296  13.299  29.438  10.483
45068W        W13297  19.643  37.584  12.806
45069W        W13298  13.545  35.416  13.286
45070W        W13299   2.228  36.086  12.815
45071W        W13300  22.752  41.941  13.150
45072W        W13301   5.949  37.894  11.534
45073W        W13302  15.854   0.297  11.172
45074W        W13303  14.258  42.347  13.082
45075W        W13304  36.568  41.631   2.827
45076W        W13305  27.845  41.101  12.575
45077W        W13306  10.345  38.909   3.729
45078W        W13307  23.525  40.824   4.056
45079W        W13308  43.245   5.716   3.687
45080W        W13309  16.797  37.482   1.662
45081W        W13310  25.567  23.489  11.653
45082W        W13311  43.498  37.138  14.588
45083W        W13312   0.449  32.052   1.604
45084W        W13313  39.499   7.326   0.672
45085W        W13314  10.316   6.767  14.040
45086W        W13315  24.057   0.297   0.936
45087W        W13316  11.287   6.246  11.137
45088W        W13317  28.161  13.709   2.314
45089W        W13318  23.786   2.808  11.533
45090W        W13319   3.981   5.991  12.736
45091W        W13320  26.553  27.403  10.711
45092W        W13321  24.629  16.562   1.338
45093W        W13322  11.304  34.283  11.572
45094W        W13323  15.243  16.080   3.543
45095W        W13324   1.209  25.782   1.280
45096W        W13325   3.375   7.438   1.268
45097W        W13326  42.523  26.629  11.557
45098W        W13327   9.646  37.519   4.823
45099W        W13328  36.300  22.559   1.526
45100W        W13329   4.858   2.802   1.870
45101W        W13330  27.166  44.498  13.877
45102W        W13331  13.023  25.184   1.610
45103W        W13332  13.193  20.217  11.661
45104W        W13333  32.837  44.946  13.829
45105W        W13334  38.445   2.934  13.786
45106W        W13335  14.782  14.604  10.097
45107W        W13336   8.435  22.544  11.542
45108W        W13337  32.031  15.102   2.444
45109W        W13338  20.313   9.003   4.010
45110W        W13339  27.168  31.089  14.892
45111W        W13340  44.447  43.336  13.930
45112W        W13341   7.207  16.196  10.968
45113W        W13342  31.354  39.102   0.041
45114W        W13343  12.795  43.783  10.796
45115W        W13344  23.452  14.084   1.008
45116W        W13345  17.890   0.961   4.425
45117W        W13346   8.200  20.075  13.449
45118W        W13347  33.175   0.241   4.042
45119W        W13348  41.988   7.347   4.519
45120W        W13349  24.517  14.219   4.070
45121W        W13350   5.244   7.705   1.305
45122W        W13351  35.328   7.382  10.738
45123W        W13352  14.766  35.343   1.205
45124W        W13353  19.740  15.434  13.333
45125W        W13354   3.960  23.511  11.363
45126W        W13355   6.661   7.430  14.966
45127W        W13356  10.378  41.275   0.732
45128W        W13357  41.283  30.066  13.998
45129W        W13358  25.597  39.170  13.372
45130W        W13359  30.791  16.220   5.044
45131W        W13360  24.762  16.468  10.684
45132W        W13361  23.999  29.138  14.017
45133W        W13362  24.202   8.227  14.568
45134W        W13363  33.500  15.385  11.082
45135W        W13364  12.725  20.055  10.750
45136W        W13365  27.775  11.184  11.039
45137W        W13366   2.063  21.457   3.361
45138W        W13367  26.109  20.933   9.899
45139W        W13368  18.755  33.100  10.802
45140W        W13369  30.489  38.103   1.278
45141W        W13370   3.434  30.094  13.392
45142W        W13371  15.125   7.203   2.529
45143W        W13372   2.206  24.987   4.125
45144W        W13373  35.867  16.428   4.948
45145W        W13374  13.671  10.283  12.935
45146W        W13375  44.809  38.805   2.721
45147W        W13376  36.594  34.945   0.123
45148W        W13377  42.910   9.297  11.914
45149W        W13378  38.904   4.271   0.483
45150W        W13379  13.692  21.229  11.127
45151W        W13380  21.291  12.771   3.937
45152W        W13381  27.854  43.711  12.590
45153W        W13382  33.490  30.579   2.007
45154W        W13383   0.322  44.228  12.086
45155W        W13384  31.678   8.088   3.735
45156W        W13385  24.137  23.112   2.647
45157W        W13386  23.765  16.002   1.226
45158W        W13387  24.062  44.900  13.292
45159W        W13388  12.084  30.115   2.643
45160W        W13389  20.408  26.288   1.460
45161W        W13390  23.122   9.451  12.611
45162W        W13391  21.621  30.188  12.999
45163W        W13392   9.227  43.064   0.497
45164W        W13393  34.594  22.663   2.098
45165W        W13394   4.447  11.820  13.903
45166W        W13395  44.730  13.669   0.847
45167W        W13396  23.503  41.996   1.208
45168W        W13397  29.088  20.030  10.671
45169W        W13398  13.359  11.766   0.868
45170W        W13399  23.735  18.882   1.170
45171W        W13400  10.304  15.169  14.849
45172W        W13401   4.104  43.888  14.731
45173W        W13402  32.006   5.366   1.671
45174W        W13403  31.474  27.268  10.549
45175W        W13404  14.669  22.774   1.879
45176W        W13405  28.170  11.892   3.331
45177W        W13406  26.881  22.632   4.696
45178W        W13407  19.444  38.507   4.108
45179W        W13408  27.061  43.690  12.877
45180W        W13409  44.427  21.040   4.723
45181W        W13410  27.580  38.300   2.834
45182W        W13411   4.760  18.659   1.844
45183W        W13412   3.947  14.740   4.861
45184W        W13413  44.359   4.117   4.540
45185W        W13414  20.133  12.242  14.534
45186W        W13415  38.990   2.349   1.906
45187W        W13416  23.972  26.354   1.805
45188W        W13417  15.760  35.060   2.732
45189W        W13418   1.209  15.372   2.353
45190W        W13419   0.330  20.165  10.637
45191W        W13420  32.034  32.578  14.797
45192W        W13421  13.841  24.670  13.916
45193W        W13422  30.905  22.678   2.654
45194W        W13423  29.642   1.210  10.640
45195W        W13424  13.392  29.938  10.353
45196W        W13425   8.473  12.773  12.435
45197W        W13426  20.726  34.433  11.893
45198W        W13427  10.307  31.910   0.227
45199W        W13428  42.415  27.104   4.481
45200W        W13429  17.769  34.669  13.564
45201W        W13430  26.930   6.262  11.411
45202W        W13431  11.999  39.288  12.873
45203W        W13432  34.498  14.570   4.552
45204W        W13433   0.718   8.854   1.191
45205W        W13434  37.082  22.279   1.816
45206W        W13435  18.158  16.859   4.101
45207W        W13436  42.817  42.064   3.508
45208W        W13437   1.830  11.604   1.855
45209W        W13438  34.343   4.841   2.864
45210W        W13439  36.835  33.020   4.033
45211W        W13440  25.955   7.108   2.790
45212W        W13441  21.219  38.847   0.118
45213W        W13442   3.151  39.213  14.306
45214W        W13443  16.446  26.734   0.849
45215W        W13444  20.552  25.829   3.347
45216W        W13445  43.111  27.706  12.016
45217W        W13446  27.869  26.118   4.743
45218W        W13447  32.994   3.257   3.714
45219W        W13448  38.047  32.034   2.343
45220W        W13449  11.716   2.314   3.840
45221W        W13450  34.514  16.748   1.375
45222W        W13451   7.836  39.866   4.378
45223W        W13452  15.387  40.160  12.366
45224W        W13453  28.941  23.443   4.678
45225W        W13454  19.218   0.882  14.934
45226W        W13455  15.568   0.882   3.057
45227W        W13456  29.230  18.616   1.468
45228W        W13457  13.569   3.963   2.163
45229W        W13458  17.629  15.844  10.845
45230W        W13459  24.107  20.730   4.861
45231W        W13460  19.985   6.220  10.729
45232W        W13461  17.507   0.783   2.961
45233W        W13462  22.699  24.611  14.570
45234W        W13463  19.284  21.092   1.348
45235W        W13464  29.808   3.798   0.109
45236W        W13465  22.249  30.331  10.453
45237W        W13466  38.518  22.293   0.811
45238W        W13467  20.276  13.736   0.724
45239W        W13468  27.272   7.292   4.992
45240W        W13469   8.250   9.256  10.914
45241W        W13470   6.370  23.256  14.602
45242W        W13471  30.024  14.811  10.627
45243W        W13472  28.481  13.615   2.786
45244W        W13473  10.274   6.194  10.305
45245W        W13474  13.713  43.519   3.222
45246W        W13475  35.000  29.931   3.623
45247W        W13476   1.986  14.412   0.233
45248W        W13477  13.853  12.783   4.993
45249W        W13478  31.539  19.053  11.971
45250W        W13479  28.835  10.336   3.984
45251W        W13480  31.527   0.438  13.021
45252W        W13481  41.950  37.323  10.786
45253W        W13482  33.821   4.352   4.922
45254W        W13483   9.225  17.188   2.620
45255W        W13484  14.313  11.711   4.131
45256W        W13485   9.776  38.332  11.191
45257W        W13486  27.996  30.111  13.637
45258W        W13487  27.687  19.768  12.638
45259W        W13488   2.328  22.491   0.009
45260W        W13489  36.858  28.884  10.985
45261W        W13490  18.477   4.130   2.765
45262W        W13491  32.159  40.858   2.725
45263W        W13492  13.156  39.602  10.737
45264W        W13493  23.437  20.089  11.184
45265W        W13494  29.490  29.081  12.599
45266W        W13495  27.232  25.568   3.375
45267W        W13496  43.366  24.188   1.361
45268W        W13497  12.310  26.526  11.519
45269W        W13498  41.420  27.417  14.772
45270W        W13499   9.728  23.819   4.722
45271W        W13500  40.863   2.877  11.724
45272W        W13501  23.003  11.387  14.937
45273W        W13502  30.860  12.207   4.669
45274W        W13503   5.327  23.535   2.359
45275W        W13504  43.289  16.877   3.744
45276W        W13505  20.652  19.675  10.895
45277W        W13506  13.700  43.788   2.785
45278W        W13507  16.244  11.885  13.056
45279W        W13508  42.796  19.997  13.386
45280W        W13509  17.151  11.079  14.492
45281W        W13510  21.796  23.978   4.112
45282W        W13511   4.801  43.434   3.174
45283W        W13512   1.478  15.276  12.452
45284W        W13513  17.258   3.313  10.403
45285W        W13514  20.773  16.222   1.402
45286W        W13515  44.505  12.858   4.199
45287W        W13516   3.774  39.511   2.353
45288W        W13517   2.147  40.823  12.015
45289W        W13518  23.943  32.949   4.300
45290W        W13519   9.430  24.876  14.942
45291W        W13520  16.548  15.266  13.348
45292W        W13521  12.691  12.122  12.398
45293W        W13522  34.969   2.519  13.869
45294W        W13523  11.091  18.668  14.544
45295W        W13524  31.883  29.714  12.627
45296W        W13525   8.374  42.079   3.799
45297W        W13526   8.099  34.968   4.149
45298W        W13527  12.735  43.275   3.757
45299W        W13528   7.677  44.361  14.321
45300W        W13529  12.409  21.233  12.239
45301W        W13530  12.315   8.815  13.789
45302W        W13531  23.882  38.524   0.261
45303W        W13532   5.629  29.218   2.795
45304W        W13533  13.566   0.301  12.942
45305W        W13534  44.925  39.356  14.405
45306W        W13535  11.338  33.449   2.448
45307W        W13536   5.410  37.483  12.156
45308W        W13537  20.595   9.092   2.210
45309W        W13538  21.976  25.633  11.469
45310W        W13539  38.421   3.268  11.716
45311W        W13540  17.033   7.421  14.109
45312W        W13541  29.999  14.222   0.205
45313W        W13542  10.636   6.827  10.923
45314W        W13543  37.322  16.036   0.841
45315W        W13544  44.936   8.793  13.978
45316W        W13545   8.345  18.224  12.545
45317W        W13546  24.562  15.283   0.350
45318W        W13547  31.064   0.594  11.719
45319W        W13548  20.353  25.657  10.154
45320W        W13549  27.508  10.834  10.743
45321W        W13550  42.047  30.048  11.369
45322W        W13551  13.774  26.667   3.099
45323W        W13552  38.573  22.110   0.319
45324W        W13553  29.233  27.544  11.215
45325W        W13554  37.297  11.774   3.981
45326W        W13555   4.674  38.721   5.194
45327W        W13556  27.011  23.107  11.585
45328W        W13557  38.631   1.903   2.840
45329W        W13558  41.258  10.475   1.982
45330W        W13559  31.520  38.620  14.962
45331W        W13560  17.562  30.984   5.133
45332W        W13561  16.805  12.924  12.604
45333W        W13562  33.981   8.927  14.335
45334W        W13563  19.295  29.408  14.513
45335W        W13564  13.252  19.213   0.971
45336W        W13565  34.568  22.272   1.266
45337W        W13566  29.394  34.392  13.363
45338W        W13567  42.850  25.136  13.874
45339W        W13568  20.016   3.277  10.035
45340W        W13569  28.329  37.204  11.146
45341W        W13570  18.593   8.117  12.529
45342W        W13571  16.491   5.779  12.963
45343W        W13572  42.408   4.700  10.492
45344W        W13573   3.230  22.603   4.141
45345W        W13574  20.418  15.228   2.308
45346W        W13575  15.615  44.531  12.534
45347W        W13576  37.814   6.416   4.064
45348W        W13577  21.518  27.626  11.338
45349W        W13578  40.499  19.109   4.562
45350W        W13579  30.747  34.456   1.391
45351W        W13580  25.931  38.971  12.959
45352W        W13581  28.936   0.292  12.963
45353W        W13582  31.040  17.598  13.128
45354W        W13583  19.542  38.525  14.863
45355W        W13584  21.574   9.872  11.948
45356W        W13585  26.861  30.402   1.650
45357W        W13586   8.565  41.962  10.771
45358W        W13587  12.648  27.211   0.687
45359W        W13588  27.129  13.767  10.681
45360W        W13589  44.957  24.007  13.924
45361W        W13590  18.693  29.866  14.882
45362W        W13591  44.875  31.530   2.441
45363W        W13592  14.169  25.967   3.512
45364W        W13593  26.407  42.235   0.736
45365W        W13594  41.630   7.955   0.686
45366W        W13595   7.070  21.631   0.054
45367W        W13596  23.503  41.633  12.166
45368W        W13597   9.222  13.256   4.579
45369W        W13598  37.397  24.139   3.400
45370W        W13599   7.679  33.151  13.489
45371W        W13600  29.621  18.231   4.708
45372W        W13601  28.286  39.245   1.155
45373W        W13602  39.231  10.825  14.743
45374W        W13603  18.456  24.598  12.145
45375W        W13604  10.049   2.900  13.973
45376W        W13605   4.117   6.193  14.432
45377W        W13606  40.546  31.535  11.313
45378W        W13607  23.124   9.664   3.588
45379W        W13608  15.135  11.591  11.077
45380W        W13609   1.196  30.150   3.765
45381W        W13610   0.345   8.019   0.395
45382W        W13611  13.167  13.988   2.386
45383W        W13612  34.919  23.707  14.417
45384W        W13613  16.765  13.371  10.369
45385W        W13614  13.867   3.515   2.247
45386W        W13615  35.529   3.347  11.595
45387W        W13616  40.318  38.045  13.923
45388W        W13617  22.922  20.540  12.307
45389W        W13618  22.989   8.335  14.924
45390W        W13619  27.322  15.226  13.918
45391W        W13620  29.390  41.492  13.387
45392W        W13621  40.845  16.555  11.599
45393W        W13622   2.402  22.293  11.017
45394W        W13623  18.183  20.336   1.827
45395W        W13624  11.416  22.133  11.675
45396W        W13625  23.009   1.780   0.056
45397W        W13626   6.844   5.703  11.774
45398W        W13627  25.830  13.199  12.308
45399W        W13628  33.198   4.400  11.874
45400W        W13629   5.478  35.257  13.370
45401W        W13630  20.082  14.080  14.327
45402W        W13631  17.693   8.585  14.528
45403W        W13632  15.181  12.205   1.680
45404W        W13633  35.554   2.165   1.651
45405W        W13634  32.600  36.355  13.476
45406W        W13635  12.323   0.542  11.008
45407W        W13636  15.492   8.452   3.229
45408W        W13637   9.475  22.028  12.654
45409W        W13638  39.767  44.513   0.501
45410W        W13639   1.616  30.321  12.073
45411W        W13640  10.875  18.077  11.674
45412W        W13641  21.934  40.446  14.354
45413W        W13642   6.755  39.119   3.348
45414W        W13643  35.078   9.856   2.195
45415W        W13644  32.084  19.728  12.929
45416W        W13645  17.123  39.291  11.483
45417W        W13646  21.275  22.971   4.997
45418W        W13647   4.772  22.853  10.082
45419W        W13648  16.042  14.005   2.048
45420W        W13649  23.244  18.068   1.857
45421W        W13650   8.994  20.102  12.643
45422W        W13651   2.716  39.906   3.464
45423W        W13652  42.536  20.518   1.952
45424W        W13653  15.326  13.746  13.424
45425W        W13654  20.859  39.057   2.241
45426W        W13655  19.739  11.743   0.805
45427W        W13656  34.876  39.946  10.791
45428W        W13657  35.493  35.354   3.879
45429W        W13658  15.273  16.587  13.984
45430W        W13659  23.958   5.764  12.940
45431W        W13660   8.011  44.065   2.707
45432W        W13661   2.179  37.840   4.196
45433W        W13662  33.143  32.112  10.637
45434W        W13663   4.963  20.260  11.056
45435W        W13664  35.882   6.725   1.802
45436W        W13665   0.756  14.013   1.126
45437W        W13666  28.162  26.443  11.684
45438W        W13667  31.341  17.257   2.318
45439W        W13668   4.695  44.801  12.502
45440W        W13669  41.418  18.128   0.696
45441W        W13670  25.467  20.108   1.882
45442W        W13671  14.530  23.827   4.998
45443W        W13672  37.556  37.510   0.027
45444W        W13673  23.651   0.132  12.562
45445W        W13674  12.359  32.501  10.905
45446W        W13675  18.710  21.997   0.434
45447W        W13676  29.197  39.313  12.976
45448W        W13677  13.090   0.669  14.346
45449W        W13678  15.570  11.895   2.772
45450W        W13679  17.793  18.057   1.402
45451W        W13680  13.817  37.391   1.582
45452W        W13681  24.888  19.046   3.332
45453W        W13682  34.112  30.262  11.021
45454W        W13683  39.075  15.428   1.799
45455W        W13684  20.820  12.789   4.167
45456W        W13685   0.892  33.785   1.429
45457W        W13686  35.465  21.043   3.840
45458W        W13687  42.372  43.323   1.286
45459W        W13688  22.565   6.450  10.825
45460W        W13689  32.147  23.200  10.926
45461W        W13690  13.702  36.451   0.316
45462W        W13691  16.349  21.141  13.290
45463W        W13692  11.033  22.479  10.606
45464W        W13693  38.958   2.333   0.958
45465W        W13694  20.225  38.408  10.710
45466W        W13695  28.494   5.138   0.339
45467W        W13696  31.116  28.891  13.757
45468W        W13697  27.705  29.434  12.333
45469W        W13698  42.911   5.511  12.218
45470W        W13699  14.672  43.545  10.607
45471W        W13700  12.429  26.826  12.057
45472W        W13701   2.127   7.383  12.006
45473W        W13702   3.960  30.248  12.457
45474W        W13703  16.625   7.151  13.798
45475W        W13704  27.564   4.935   2.253
45476W        W13705  38.930  33.347   5.139
45477W        W13706  29.008   6.250   0.999
45478W        W13707  33.091  41.227  13.036
45479W        W13708  12.827  38.902  14.529
45480W        W13709  38.928  37.937   1.730
45481W        W13710   9.234  19.747  11.648
45482W        W13711  32.762  34.868  14.514
45483W        W13712  11.565  32.387   4.142
45484W        W13713  26.937   3.782   4.923
45485W        W13714  36.047  16.814   2.851
45486W        W13715  28.407  10.828  14.334
45487W        W13716  40.126  39.071   2.606
45488W        W13717  18.532   6.261   4.494
45489W        W13718  17.274  16.373   4.099
45490W        W13719   3.044  37.879   0.261
45491W        W13720  36.082  26.044   0.884
45492W        W13721   8.062  11.761   2.702
45493W        W13722  38.596   7.860  13.395
45494W        W13723  31.464  14.964   1.048
45495W        W13724   7.636  24.081  11.131
45496W        W13725   1.421  14.510  14.703
45497W        W13726  10.494   7.336   2.604
45498W        W13727   6.249  17.220  12.456
45499W        W13728  35.526  18.142  10.590
45500W        W13729   5.400  20.562   0.311
45501W        W13730  44.510  33.706   4.226
45502W        W13731  27.901  32.889   0.876
45503W        W13732  29.576  26.441  11.951
45504W        W13733  11.229  41.704   1.169
45505W        W13734  34.214  18.588   1.857
45506W        W13735  32.972  20.098  11.848
45507W        W13736  11.295  17.307   0.097
45508W        W13737  16.182   7.824   1.485
45509W        W13738  25.632  29.009   2.148
45510W        W13739  14.668   2.261  11.856
45511W        W13740   3.779  33.641   3.221
45512W        W13741   7.124  42.853  12.502
45513W        W13742  28.367  38.820   0.841
45514W        W13743  23.289  30.387  13.353
45515W        W13744  22.168  12.752   3.407
45516W        W13745  34.437  19.446   1.334
45517W        W13746  20.844  16.221   2.281
45518W        W13747  30.643  18.541  11.970
45519W        W13748  32.148   8.266  12.569
45520W        W13749  33.967  38.360   0.335
45521W        W13750  11.425  18.903   3.712
45522W        W13751   7.270  37.437  12.462
45523W        W13752  33.410   5.408   3.224
45524W        W13753   8.328   3.310   2.730
45525W        W13754  38.927   3.948  11.617
45526W        W13755   8.040   9.035  10.503
45527W        W13756  20.067   8.657   4.937
45528W        W13757  27.472  13.323  13.913
45529W        W13758  44.531  30.013  11.582
45530W        W13759  31.854   7.856  12.447
45531W        W13760   6.985  20.073  13.920
45532W        W13761  17.160  14.208   2.798
45533W        W13762  10.186  12.655  11.850
45534W        W13763   7.208  22.491  11.698
45535W        W13764  16.424  19.941   5.577
45536W        W13765  29.014  22.499  13.599
45537W        W13766  41.351  10.311  14.006
45538W        W13767  25.436   6.425   0.897
45539W        W13768  20.820  13.694  14.356
45540W        W13769  34.641  20.230   0.846
45541W        W13770   9.141   5.426   1.852
45542W        W13771  39.570  28.463  11.655
45543W        W13772  25.051  30.366   4.065
45544W        W13773  23.601   4.187   3.208
45545W        W13774  41.460  29.955   4.962
45546W        W13775  29.750  11.884  11.955
45547W        W13776   6.688  44.002  12.411
45548W        W13777  16.674  20.790   3.708
45549W        W13778  30.352  31.897  11.921
45550W        W13779  42.766  38.541  13.098
45551W        W13780  38.064  26.722  13.636
45552W        W13781  42.243   4.743   4.864
45553W        W13782  39.647  29.623  14.832
45554W        W13783   8.549  37.543  10.852
45555W        W13784   7.091   1.479   3.223
45556W        W13785  37.295  29.833   3.703
45557W        W13786  26.470  14.903  14.364
45558W        W13787  43.297  23.490   3.133
45559W        W13788  20.547  11.574  12.852
45560W        W13789  24.400  39.826  11.888
45561W        W13790  35.998  39.652   4.375
45562W        W13791   2.792  14.782   4.659
45563W        W13792  11.782  23.740   4.551
45564W        W13793  41.306  10.216  10.994
45565W        W13794  13.732  12.182  13.058
45566W        W13795  39.921  19.116  11.024
45567W        W13796  40.506   8.121   3.040
45568W        W13797  17.771   0.539  12.867
45569W        W13798   0.791  39.848  12.210
45570W        W13799  16.820  39.345   4.085
45571W        W13800  44.077  22.738   2.527
45572W        W13801  39.900  20.072  14.244
45573W        W13802  10.320  16.688   3.677
45574W        W13803  25.486  12.788  12.437
45575W        W13804  15.518  21.760   3.815
45576W        W13805  21.012   6.406  13.967
45577W        W13806  18.102  30.178   2.766
45578W        W13807  43.023  31.130  13.364
45579W        W13808   0.994  43.835  12.154
45580W        W13809   2.742   2.831   2.280
45581W        W13810  11.326  27.252   0.881
45582W        W13811   2.003   5.700   3.287
45583W        W13812  24.541  28.668   2.833
45584W        W13813  44.047  24.683  10.727
45585W        W13814  18.466  13.444  13.960
45586W        W13815  19.731  23.894  13.324
45587W        W13816  31.225   0.495  13.450
45588W        W13817  28.429  25.115  11.034
45589W        W13818   7.189  12.153   3.626
45590W        W13819  37.929  20.420  12.003
45591W        W13820  18.362  21.274   4.529
45592W        W13821   7.560  29.574  10.779
45593W        W13822  33.049  25.220  14.289
45594W        W13823  27.897  40.564  11.645
45595W        W13824  43.799  28.154  10.917
45596W        W13825   3.004  42.381  11.010
45597W        W13826   9.595  14.845   0.817
45598W        W13827  32.852  14.259  11.264
45599W        W13828  31.484  40.888   0.750
45600W        W13829  40.583  27.672  11.671
45601W        W13830  41.553  26.008   4.121
45602W        W13831  17.230  17.843  13.904
45603W        W13832  16.583  17.769   4.913
45604W        W13833  42.920  28.720  11.101
45605W        W13834   6.358  16.629  12.883
45606W        W13835  10.461  12.973   9.786
45607W        W13836  37.300   9.371   1.287
45608W        W13837   2.021  14.640  12.096
45609W        W13838  38.464  26.268   4.426
45610W        W13839  24.466  30.892  12.837
45611W        W13840  44.430   5.243  10.489
45612W        W13841  34.997  10.201   2.844
45613W        W13842  27.945  30.450  10.632
45614W        W13843   9.111  38.970   3.155
45615W        W13844  19.306  24.627   3.472
45616W        W13845  11.120  29.078  10.611
45617W        W13846  34.578   2.856  11.078
45618W        W13847   9.568  16.055   4.141
45619W        W13848  19.242  28.175   0.384
45620W        W13849  22.137   5.503   4.589
45621W        W13850  39.922  22.402   0.994
45622W        W13851  33.833  30.440  14.858
45623W        W13852  42.713  17.200   1.138
45624W        W13853  19.619  22.147  12.970
45625W        W13854  44.416  29.295  12.934
45626W        W13855   4.765   9.688  12.449
45627W        W13856   8.915  10.323   2.886
45628W        W13857  17.765  26.613  14.381
45629W        W13858  31.105  16.160   2.657
45630W        W13859  22.586   9.543  12.032
45631W        W13860  20.315  32.531  13.402
45632W        W13861   5.848  38.874   1.172
45633W        W13862   7.840   7.222   0.952
45634W        W13863   4.876  27.398   2.024
45635W        W13864  40.881  14.563   2.761
45636W        W13865   8.073  41.993  13.416
45637W        W13866  19.879   9.111  11.755
45638W        W13867  30.662  26.149  13.503
45639W        W13868  37.979  24.930   0.834
45640W        W13869  39.067   7.053   3.292
45641W        W13870  41.383  25.458   1.788
45642W        W13871   6.342   3.316  13.978
45643W        W13872   2.065  30.720  12.530
45644W        W13873  22.126   4.984   2.474
45645W        W13874  25.562   4.822   2.267
45646W        W13875  29.186  31.681  12.879
45647W        W13876  20.809   1.291  14.539
45648W        W13877  38.589  41.772  11.577
45649W        W13878  36.544  33.135  13.908
45650W        W13879  18.731   5.797   4.635
45651W        W13880  19.624  11.723  14.819
45652W        W13881   7.867  17.706   2.293
45653W        W13882  37.132   3.004  14.441
45654W        W13883  23.543  28.486  11.481
45655W        W13884  36.994  21.209   0.695
45656W        W13885  10.880  20.458   0.843
45657W        W13886  41.284  38.743   1.615
45658W        W13887  34.103  12.442  13.595
45659W        W13888   9.560  11.132   2.222
45660W        W13889  24.600  31.487   1.387
45661W        W13890  39.038  33.554   2.599
45662W        W13891  36.641  11.382   1.818
45663W        W13892   7.894   9.501  11.753
45664W        W13893  42.506  25.179   0.359
45665W        W13894  19.279  13.098   2.819
45666W        W13895  18.888  39.462   3.841
45667W        W13896   0.737  11.020   3.853
45668W        W13897   8.793   9.665  14.330
45669W        W13898  31.685   3.569  11.197
45670W        W13899  30.292   0.734  12.527
45671W        W13900  25.605   0.660   5.286
45672W        W13901  35.061   3.265  12.692
45673W        W13902  17.733  23.814  14.814
45674W        W13903   7.751   2.248  13.937
45675W        W13904   0.532  38.418  13.108
45676W        W13905   6.747   9.697  13.292
45677W        W13906  21.764  23.632  13.834
45678W        W13907  32.944   7.610  14.102
45679W        W13908   2.844  33.592  10.485
45680W        W13909  21.533  13.206   4.748
45681W        W13910  20.346  11.605  13.586
45682W        W13911   9.351  12.397   4.503
45683W        W13912  22.752   7.946   3.055
45684W        W13913  20.263  43.036  14.365
45685W        W13914  26.540  27.983  14.074
45686W        W13915  33.139  19.638   5.262
45687W        W13916  15.651   2.232  11.925
45688W        W13917  18.807  24.692  12.935
45689W        W13918   4.907  31.463   0.444
45690W        W13919   9.122  33.163  11.646
45691W        W13920  35.910  23.773   1.414
45692W        W13921  25.527   0.551  13.834
45693W        W13922   7.221  37.377   1.936
45694W        W13923  43.455  24.968   0.260
45695W        W13924  32.675  42.548   1.878
45696W        W13925  39.462  15.612   3.726
45697W        W13926   2.276  26.257  14.342
45698W        W13927  36.292  17.435   3.192
45699W        W13928   4.213   8.231  13.453
45700W        W13929  18.821  10.326   1.841
45701W        W13930  24.927   9.462   1.481
45702W        W13931  13.352  25.526   9.885
45703W        W13932  40.517  20.100   0.990
45704W        W13933  43.905  37.959   3.634
45705W        W13934  26.230  19.202  11.866
45706W        W13935  34.489   6.332   2.008
45707W        W13936   0.817  39.988   2.857
45708W        W13937  20.692   0.830  10.581
45709W        W13938  12.947  25.502   4.007
45710W        W13939   9.971  27.220  14.449
45711W        W13940  37.181  44.362   3.896
45712W        W13941  27.452  32.505   4.115
45713W        W13942  44.838   2.940   2.184
45714W        W13943   2.726  10.945   3.046
45715W        W13944  20.366  27.982   2.825
45716W        W13945  13.122  20.137   0.247
45717W        W13946   2.832  34.505  11.422
45718W        W13947   8.888  18.049   1.205
45719W        W13948   4.749   0.238  14.936
45720W        W13949  38.829  17.177   5.088
45721W        W13950  25.514   7.113   3.062
45722W        W13951   4.910  14.811  13.812
45723W        W13952  36.502  11.820  11.053
45724W        W13953   3.270  27.430  13.812
45725W        W13954   8.381  24.179  14.352
45726W        W13955  36.142   5.288   2.853
45727W        W13956  17.879   1.911  11.601
45728W        W13957   0.005   0.334  10.971
45729W        W13958   2.829  18.077   3.299
45730W        W13959  29.060  32.055  10.767
45731W        W13960  17.029   0.412  13.838
45732W        W13961  35.272   8.373   5.011
45733W        W13962  16.678  27.556   1.291
45734W        W13963   1.917   6.105   3.668
45735W        W13964  36.444  31.712   1.383
45736W        W13965  30.454  36.807  13.981
45737W        W13966  24.561  31.181  11.531
45738W        W13967  10.689   5.151   3.041
45739W        W13968  38.990  39.773   3.922
45740W        W13969  11.998  20.394  11.897
45741W        W13970  42.452  32.796   3.306
45742W        W13971  14.803   6.929  13.795
45743W        W13972   3.270  36.722   1.381
45744W        W13973   9.372  41.225  12.604
45745W        W13974  11.571   7.246  12.065
45746W        W13975   7.778  23.709   4.821
45747W        W13976  21.039  12.312  12.599
45748W        W13977  37.286  26.740   4.014
45749W        W13978  19.172  25.049   2.645
45750W        W13979  34.929  34.482  13.970
45751W        W13980  21.140  19.015  11.960
45752W        W13981   3.928  29.243  12.700
45753W        W13982  40.408  24.081   0.263
45754W        W13983  38.560   9.212   1.861
45755W        W13984  34.429   6.506  10.444
45756W        W13985  31.880  16.163  11.894
45757W        W13986  15.726  12.724   3.819
45758W        W13987   9.053  20.310   1.164
45759W        W13988  10.873  13.167   1.037
45760W        W13989  20.462  27.116   3.816
45761W        W13990  10.823  27.125   4.444
45762W        W13991  14.796  41.302   5.104
45763W        W13992  32.567  24.971   5.047
45764W        W13993  15.335   0.348  12.878
45765W        W13994  36.390   2.943   1.329
45766W        W13995  37.001   7.327   3.792
45767W        W13996  18.578  23.402   2.792
45768W        W13997  42.901  31.905   1.531
45769W        W13998  21.774  28.608  13.827
45770W        W13999  38.335  40.309  10.533
45771W        W14000  20.091  25.162   2.755
45772W        W14001   9.354  10.157   2.535
45773W        W14002  36.502  28.247  13.900
45774W        W14003  21.524  11.146  14.973
45775W        W14004   0.420  37.416   2.409
45776W        W14005  42.404  34.018  12.506
45777W        W14006   4.645  39.884  10.723
45778W        W14007  18.503  33.838   3.220
45779W        W14008  15.651  19.191   1.941
45780W        W14009  44.401  29.509  14.058
45781W        W14010  29.532   7.297  12.445
45782W        W14011  20.529  37.041   0.412
45783W        W14012  42.955  40.436   3.606
45784W        W14013  43.913  40.704  13.385
45785W        W14014  33.135   6.560   2.461
45786W        W14015  23.269  38.976  13.383
45787W        W14016  23.711  21.534   0.771
45788W        W14017  42.472   6.645  13.558
45789W        W14018  11.673  24.005  12.082
45790W        W14019  24.025   8.777   4.120
45791W        W14020  37.347  26.090   2.787
45792W        W14021  16.833   3.869  14.372
45793W        W14022  14.015  41.931  12.890
45794W        W14023   1.024  11.591  11.487
45795W        W14024  12.208  10.340  14.602
45796W        W14025  21.715  13.244  11.171
45797W        W14026   6.404  12.693  10.764
45798W        W14027  12.607  38.000  13.814
45799W        W14028   8.609  27.407   4.675
45800W        W14029  24.175  10.706   4.210
45801W        W14030  28.642   5.449   0.762
45802W        W14031   5.323  23.079   3.338
45803W        W14032  20.747  11.329   2.727
45804W        W14033  32.430  10.359  11.630
45805W        W14034  13.669   3.341   4.025
45806W        W14035  10.950  25.339   3.974
45807W        W14036   5.836  24.385   3.229
45808W        W14037  17.303   3.022  12.065
45809W        W14038  15.704  23.755  14.029
45810W        W14039  35.075  16.611   3.164
45811W        W14040   1.187   1.995  12.497
45812W        W14041   0.052   0.709  10.633
45813W        W14042  25.123  24.371  14.952
45814W        W14043   6.880  26.568  14.960
45815W        W14044   7.943   9.293  13.106
45816W        W14045  42.181  36.255   2.593
45817W        W14046   0.149  21.559  10.876
45818W        W14047  12.693  19.598   4.803
45819W        W14048  40.381  20.187   1.882
45820W        W14049  24.166  26.045   2.158
45821W        W14050  12.736   7.106   0.569
45822W        W14051  28.541  36.632   4.164
45823W        W14052  16.299  15.026   1.298
45824W        W14053  37.319  37.946   1.877
45825W        W14054  31.614   7.171   1.796
45826W        W14055  40.889  27.711  13.473
45827W        W14056  40.979   3.721   1.231
45828W        W14057  36.051  40.616  11.966
45829W        W14058  40.509  18.235   4.937
45830W        W14059  32.585  29.126  14.070
45831W        W14060  29.341  10.293   2.176
45832W        W14061  12.907   4.018   4.274
45833W        W14062  37.775  22.849  11.182
45834W        W14063  35.090   6.500  10.309
45835W        W14064  21.123   5.929  12.005
45836W        W14065  19.687  14.354  14.100
45837W        W14066  35.378   8.794  14.230
45838W        W14067  20.126  36.092  12.483
45839W        W14068  34.198  23.646  13.413
45840W        W14069  29.072   3.206   0.613
45841W        W14070   2.901  32.098  13.208
45842W        W14071  41.922  26.341   2.527
45843W        W14072  35.740  13.503   4.867
45844W        W14073   8.932  36.414  10.433
45845W        W14074  42.975  18.311  11.245
45846W        W14075  30.181   2.379  11.361
45847W        W14076  26.085  40.306  11.705
45848W        W14077  12.374   1.315   2.672
45849W        W14078  13.094  22.587  10.606
45850W        W14079  24.482   3.672   4.723
45851W        W14080   4.520  35.551   9.827
45852W        W14081  34.890  40.662  12.196
45853W        W14082  22.325  17.488   4.207
45854W        W14083   3.709  13.527  10.596
45855W        W14084  20.475  31.048  13.822
45856W        W14085  43.084  15.961   1.985
45857W        W14086   9.372  24.390  10.411
45858W        W14087   4.849  32.356  10.204
45859W        W14088  25.016   6.743  11.151
45860W        W14089  12.242  13.145   2.282
45861W        W14090  27.650  21.715   4.635
45862W        W14091  13.649  38.932   1.388
45863W        W14092   2.163  11.126  14.880
45864W        W14093  24.683   7.811   1.722
45865W        W14094  33.489   6.370   4.077
45866W        W14095  26.280   1.857  10.471
45867W        W14096  32.115  13.593   4.589
45868W        W14097  26.028  39.826   2.877
45869W        W14098  11.100  20.815  11.063
45870W        W14099  23.559  34.795   2.767
45871W        W14100   1.272  32.601   1.232
45872W        W14101   1.165  36.888  12.951
45873W        W14102  22.224  30.139  13.907
45874W        W14103   6.394  35.919  14.134
45875W        W14104  11.930  25.307  10.118
45876W        W14105  34.830  35.074  14.404
45877W        W14106  30.023  32.094   3.852
45878W        W14107  37.846  42.540   1.654
45879W        W14108   1.819   8.282  13.395
45880W        W14109   3.024  17.815   1.782
45881W        W14110  22.595   5.692   0.812
45882W        W14111   0.572   2.474   2.719
45883W        W14112  31.722   5.610  13.535
45884W        W14113  11.677  36.544  13.107
45885W        W14114  30.575   2.394  12.100
45886W        W14115   9.964  17.255  11.596
45887W        W14116  12.190  32.473  13.951
45888W        W14117  26.664  33.959   2.987
45889W        W14118   1.986  11.759  11.222
45890W        W14119  14.351  31.973  10.654
45891W        W14120   1.409  38.959   0.803
45892W        W14121  28.693  35.832  11.189
45893W        W14122  40.553  27.932  14.846
45894W        W14123  40.863   3.578  12.487
45895W        W14124  33.913  21.496  11.490
45896W        W14125  14.133  39.660   1.243
45897W        W14126  44.189  41.770  12.664
45898W        W14127  11.057  11.404  13.521
45899W        W14128   1.993  16.477   3.099
45900W        W14129  31.133  32.073  11.446
45901W        W14130  18.913  43.326   4.216
45902W        W14131  25.899  44.814  11.237
45903W        W14132  38.594  29.230  14.496
45904W        W14133  36.103  25.599  14.485
45905W        W14134   1.580  31.096   0.239
45906W        W14135   3.918  10.854   4.502
45907W        W14136   8.939  17.083   0.383
45908W        W14137   8.649  33.498  14.614
45909W        W14138  25.909   0.949   4.163
45910W        W14139  18.680  16.059  11.521
45911W        W14140  12.798  39.120  13.517
45912W        W14141  24.005   2.090   4.688
45913W        W14142  31.017  31.089  12.413
45914W        W14143  43.536  42.620   2.739
45915W        W14144   0.056  42.351   2.263
45916W        W14145  22.012  25.667   3.383
45917W        W14146  27.579  43.340   2.668
45918W        W14147  24.436  44.321   2.505
45919W        W14148  26.580   0.514   2.291
45920W        W14149   7.601  25.943  12.873
45921W        W14150   7.452  28.174  14.871
45922W        W14151   5.859  30.196  13.347
45923W        W14152  44.390   4.451  14.962
45924W        W14153  42.377   3.015  11.611
45925W        W14154  17.683  35.869  13.895
45926W        W14155   9.900  12.088  12.831
45927W        W14156  11.714  32.976   3.315
45928W        W14157  40.021  38.603   2.814
45929W        W14158  10.684  14.997   0.166
45930W        W14159  18.399  37.913  14.318
45931W        W14160  43.485   0.862  14.095
45932W        W14161  37.597  31.024   1.806
45933W        W14162  20.509  27.120   0.879
45934W        W14163  24.613   7.441  14.961
45935W        W14164  42.525  15.869   2.252
45936W        W14165  27.368   9.341  10.540
45937W        W14166  35.096  36.595  11.983
45938W        W14167   0.052  41.625  14.733
45939W        W14168  26.624   2.002   1.477
45940W        W14169  19.079  34.291  10.885
45941W        W14170   1.728  36.071  11.995
45942W        W14171  33.142  40.038  10.934
45943W        W14172  28.729  18.166  13.589
45944W        W14173   6.699  41.583  11.525
45945W        W14174  16.823  37.522  13.799
45946W        W14175  15.281  31.861  10.701
45947W        W14176  39.960   6.934  13.961
45948W        W14177   8.381  17.131  14.288
45949W        W14178  18.754  23.442   5.268
45950W        W14179  16.282  27.593  10.383
45951W        W14180  35.096  14.639   1.296
45952W        W14181  10.418  31.347  13.531
45953W        W14182   9.290  25.432   4.173
45954W        W14183  21.487  38.767   1.472
45955W        W14184  12.598   3.950   2.279
45956W        W14185  19.720  10.206   0.712
45957W        W14186  26.242  42.275  11.749
45958W        W14187  14.646  18.041  11.546
45959W        W14188  32.445  22.030   1.038
45960W        W14189  14.112  22.712   0.271
45961W        W14190  26.910  28.134  11.196
45962W        W14191  25.057  23.572  11.769
45963W        W14192   9.619  18.569  11.564
45964W        W14193  25.478   9.316   2.297
45965W        W14194  39.893   2.778  14.911
45966W        W14195  43.746  42.919   3.934
45967W        W14196  28.198  18.687   2.796
45968W        W14197  25.746   6.284   2.205
45969W        W14198  10.800  41.697  10.791
45970W        W14199   8.155  17.017   0.829
45971W        W14200  12.408  21.510   1.100
45972W        W14201  36.743  26.264   3.780
45973W        W14202  25.485  22.703   3.110
45974W        W14203  24.659   9.683   3.197
45975W        W14204  14.765  44.331  13.489
45976W        W14205  27.740   6.709  11.288
45977W        W14206  16.118  37.796   1.457
45978W        W14207  36.822  32.994   3.468
45979W        W14208  38.813  39.133  11.037
45980W        W14209  32.404   4.801   2.138
45981W        W14210  15.865  32.599   2.675
45982W        W14211   2.878  39.111  11.249
45983W        W14212   9.840  22.043  14.355
45984W        W14213  43.017  33.095  10.137
45985W        W14214   4.496  42.110  11.920
45986W        W14215   7.181  12.266  12.604
45987W        W14216  39.122  15.044  12.928
45988W        W14217  39.572  26.342   1.766
45989W        W14218  24.650  35.291  11.088
45990W        W14219  41.327  32.650   4.614
45991W        W14220   6.517  13.337   2.294
45992W        W14221  12.358  35.042  11.159
45993W        W14222  12.799   2.393  14.175
45994W        W14223  41.765  16.138  11.640
45995W        W14224  44.465  18.453  13.236
45996W        W14225  35.005  33.072   2.401
45997W        W14226   5.280  20.713   1.196
45998W        W14227   4.725  33.611   4.681
45999W        W14228  36.997  37.208  12.420
46000W        W14229  23.689  20.119   2.320
46001W        W14230  12.993  16.260   2.737
46002W        W14231   4.470  20.473  14.635
46003W        W14232  27.195  31.162   4.039
46004W        W14233  15.682  11.169  14.812
46005W        W14234  28.180   7.688   1.847
46006W        W14235   4.843  26.406   1.762
46007W        W14236  28.232  19.290   2.690
46008W        W14237   2.210  32.428   0.942
46009W        W14238  29.545   4.500   3.728
46010W        W14239  31.830   5.666   2.336
46011W        W14240  41.962  40.404  13.365
46012W        W14241   2.865  44.727   2.745
46013W        W14242   1.012  33.944   4.224
46014W        W14243   9.955  33.072   2.261
46015W        W14244  26.393  30.486  14.908
46016W        W14245  37.138  30.509  12.968
46017W        W14246  28.654  23.319  12.533
46018W        W14247  40.867  44.831   4.636
46019W        W14248   9.835   8.221   2.319
46020W        W14249  30.499  35.446   1.523
46021W        W14250  39.082  30.394   2.675
46022W        W14251  34.998  23.768   5.071
46023W        W14252   1.223  42.645   1.416
46024W        W14253  35.940  15.537   3.095
46025W        W14254  41.257  41.766   0.683
46026W        W14255  26.967  43.043  13.448
46027W        W14256  21.530  15.149  10.702
46028W        W14257  38.643  19.200   0.888
46029W        W14258  11.858  27.367  14.415
46030W        W14259  24.702  23.513   1.374
46031W        W14260  14.262  25.096   0.669
46032W        W14261   2.950  24.951   4.847
46033W        W14262  40.308  18.800  11.141
46034W        W14263  19.731   7.799   2.416
46035W        W14264  26.981  13.725   2.939
46036W        W14265  10.385  35.369   4.823
46037W        W14266  35.938  32.443  13.560
46038W        W14267  26.093   1.597  13.200
46039W        W14268  19.664  24.754  13.087
46040W        W14269  30.067   0.893  12.097
46041W        W14270  40.525   8.140   2.399
46042W        W14271  23.792   6.163  14.054
46043W        W14272  18.946   1.188  11.657
46044W        W14273  29.906   6.774   0.332
46045W        W14274  44.382   4.367   3.103
46046W        W14275  24.079  21.551   3.793
46047W        W14276  21.707   3.142   1.269
46048W        W14277   7.052  43.210  14.769
46049W        W14278   2.281   2.032   9.517
46050W        W14279  26.875  28.931   4.248
46051W        W14280  39.889   2.138  11.160
46052W        W14281  29.246  42.889   0.823
46053W        W14282  13.148  31.612   4.526
46054W        W14283  37.079   7.754   0.738
46055W        W14284   0.573  16.185   3.223
46056W        W14285  17.880  41.339  13.029
46057W        W14286  16.995   8.132   1.374
46058W        W14287  20.181  36.306  11.991
46059W        W14288  23.026   7.353   3.159
46060W        W14289  42.255  36.424   2.105
46061W        W14290   5.676  11.649  10.902
46062W        W14291  13.767  22.374   1.800
46063W        W14292  23.672  36.085   1.738
46064W        W14293  32.933   9.946  12.037
46065W        W14294   1.120  37.738  11.083
46066W        W14295   8.914  20.141  13.141
46067W        W14296  29.140  28.562  11.615
46068W        W14297  24.648  43.034  14.245
46069W        W14298  27.662  40.416   4.605
46070W        W14299  24.513   8.997   4.965
46071W        W14300  19.240  34.608  13.489
46072W        W14301  29.088  34.862   3.342
46073W        W14302  11.224  11.063  10.946
46074W        W14303  29.435  12.876  13.797
46075W        W14304   8.251  29.512   2.733
46076W        W14305  25.907  31.037  13.828
46077W        W14306  36.910  12.673  12.341
46078W        W14307   5.959   3.530   2.271
46079W        W14308  31.472  19.201   1.758
46080W        W14309   3.437  44.783   2.749
46081W        W14310  41.571  32.778   3.211
46082W        W14311  30.818   4.890   0.830
46083W        W14312  35.088  43.065  10.798
46084W        W14313  27.976  18.797  13.875
46085W        W14314  31.304   5.227   2.854
46086W        W14315  36.926  28.584   1.196
46087W        W14316   9.625  35.936  11.553
46088W        W14317  19.681  12.096   4.947
46089W        W14318   5.531  38.083   1.784
46090W        W14319  21.852  13.302  13.922
46091W        W14320   5.132  18.710  12.985
46092W        W14321  23.162  36.087   1.419
46093W        W14322  22.589  29.952   2.812
46094W        W14323  10.894  22.799   1.500
46095W        W14324  14.429  40.872  11.234
46096W        W14325  22.517  10.030  14.337
46097W        W14326  40.397  26.317  14.734
46098W        W14327  14.278   8.841  12.688
46099W        W14328  15.584   2.761   2.864
46100W        W14329   3.394  11.225  11.476
46101W        W14330  34.520  35.124   3.200
46102W        W14331  43.922  27.515   0.663
46103W        W14332  17.302  40.757  13.056
46104W        W14333   4.233  43.520   0.561
46105W        W14334  40.791  13.113  14.541
46106W        W14335   2.923   8.586   4.297
46107W        W14336  14.749  39.062   4.329
46108W        W14337   1.020  31.746  11.472
46109W        W14338  24.673   4.523   3.167
46110W        W14339  29.979  25.720  10.902
46111W        W14340  37.879  18.734  12.629
46112W        W14341   5.701   9.235   1.903
46113W        W14342  22.009   0.818   1.260
46114W        W14343  40.568  19.421  13.505
46115W        W14344  26.114   9.116   0.260
46116W        W14345   5.239  43.782  14.043
46117W        W14346  15.805   3.035  12.779
46118W        W14347  13.121  23.281  12.915
46119W        W14348  43.421  13.882   3.379
46120W        W14349  35.313   1.280  12.524
46121W        W14350  36.679  27.046   0.777
46122W        W14351  19.345  16.112  10.978
46123W        W14352   9.465  18.048  10.803
46124W        W14353  10.658  36.366  11.919
46125W        W14354  19.582  10.401  14.336
46126W        W14355  15.853   9.293   2.193
46127W        W14356  38.942   4.970   1.282
46128W        W14357   9.770  44.368  12.312
46129W        W14358   1.452  37.994  11.801
46130W        W14359   9.684  26.590   5.016
46131W        W14360  25.241  18.045  11.523
46132W        W14361  15.634  15.741  12.595
46133W        W14362  39.600  24.527   4.536
46134W        W14363  32.381  41.507   2.948
46135W        W14364  29.515  17.700  11.585
46136W        W14365  25.086  34.605   2.189
46137W        W14366   6.570  31.412  11.193
46138W        W14367  14.000  13.616   4.009
46139W        W14368   8.076   4.751  12.872
46140W        W14369  18.296  20.071   2.256
46141W        W14370  28.507  28.747  13.300
46142W        W14371  10.102  30.677  10.680
46143W        W14372   8.966  29.906  13.579
46144W        W14373  16.501  20.257   1.944
46145W        W14374  21.063   9.707  12.077
46146W        W14375  14.158  34.145  13.404
46147W        W14376  18.051  12.744  14.781
46148W        W14377   9.684   2.290   3.569
46149W        W14378  33.483   4.778   1.877
46150W        W14379  13.548   9.659   0.253
46151W        W14380  22.573  23.265  13.720
46152W        W14381  41.115  30.927   4.048
46153W        W14382  15.730  25.177  11.914
46154W        W14383  18.861   2.814  11.163
46155W        W14384   7.238  41.798   2.028
46156W        W14385   9.414  16.558   4.105
46157W        W14386  32.226   6.226  14.872
46158W        W14387  39.075  26.949   1.594
46159W        W14388  36.880  30.509   2.701
46160W        W14389   7.858  24.484  11.363
46161W        W14390  35.968  12.843   3.140
46162W        W14391  37.345  28.073   4.088
46163W        W14392  15.227  12.817   5.209
46164W        W14393  29.422  35.872  13.404
46165W        W14394  13.282  17.051  12.054
46166W        W14395   2.387   3.290   2.310
46167W        W14396  29.820  41.249   3.615
46168W        W14397  21.685  38.476  14.078
46169W        W14398  30.088  27.179   1.754
46170W        W14399  27.020   7.349   2.183
46171W        W14400  25.504   9.811   0.359
46172W        W14401  28.211  18.687  14.322
46173W        W14402   0.361  39.308   0.800
46174W        W14403  41.509  26.892  12.430
46175W        W14404  31.096  11.425  12.891
46176W        W14405  23.491  35.628   0.762
46177W        W14406  10.667  37.606   1.755
46178W        W14407  20.185   5.717  14.320
46179W        W14408  25.732  29.771  10.761
46180W        W14409  26.559  17.473   4.211
46181W        W14410  44.763  29.057   3.584
46182W        W14411  32.368  23.560  12.160
46183W        W14412   5.781  32.079   0.764
46184W        W14413   2.688  39.094  10.779
46185W        W14414  28.189  10.755  12.147
46186W        W14415  27.854  17.459  12.096
46187W        W14416  40.051  44.895  12.897
46188W        W14417  30.376  40.508  13.342
46189W        W14418   4.516  26.382  11.714
46190W        W14419  14.350  32.617   4.317
46191W        W14420   2.194  20.659   3.392
46192W        W14421  35.767   0.412  13.010
46193W        W14422  22.658  17.599   2.164
46194W        W14423  18.261  12.739   4.054
46195W        W14424  21.854   0.744   3.244
46196W        W14425  35.423   3.309   2.285
46197W        W14426  16.715  19.653   4.576
46198W        W14427   9.810  34.427   4.262
46199W        W14428  26.873  13.634  11.131
46200W        W14429  30.699  15.641  12.299
46201W        W14430  38.989  23.741  11.437
46202W        W14431   3.404  21.626  11.362
46203W        W14432  18.369  17.290  11.435
46204W        W14433  14.926  34.728  10.769
46205W        W14434  11.715  10.269  11.333
46206W        W14435  33.478   7.658   1.006
46207W        W14436  26.105  44.376  14.142
46208W        W14437  36.479  13.285   3.436
46209W        W14438  42.827   8.396   3.718
46210W        W14439  35.766  24.668   1.290
46211W        W14440  31.112  18.163  12.844
46212W        W14441   7.273  37.106   2.922
46213W        W14442  30.269  38.553  14.878
46214W        W14443   4.203  11.837   2.881
46215W        W14444   6.819  17.640   3.065
46216W        W14445  33.954  12.618   0.734
46217W        W14446  42.558   9.148   1.782
46218W        W14447  18.231  42.504  12.955
46219W        W14448  11.358  21.367  11.697
46220W        W14449  40.426  30.763   1.238
46221W        W14450  23.752  19.146   1.901
46222W        W14451   3.713   6.447   4.181
46223W        W14452  27.161  22.068  11.525
46224W        W14453  12.288   0.029  11.084
46225W        W14454  12.162   0.822   0.432
46226W        W14455   4.802  38.509  14.601
46227W        W14456  25.866  13.894  10.209
46228W        W14457  13.113  19.094  12.641
46229W        W14458  36.391  44.375   4.060
46230W        W14459  30.375  21.166   4.758
46231W        W14460  29.389   9.478  11.611
46232W        W14461  37.398  26.109   1.750
46233W        W14462   0.704   9.239   0.842
46234W        W14463  44.071  30.120   3.576
46235W        W14464  25.172  16.446   2.253
46236W        W14465  20.829   1.343   0.442
46237W        W14466  15.971  25.675  11.614
46238W        W14467  35.252  16.175   2.917
46239W        W14468  11.681  32.664   3.731
46240W        W14469   9.107  44.386   1.389
46241W        W14470  31.669  20.022  11.513
46242W        W14471  29.428  29.582   0.460
46243W        W14472  23.437  18.999   3.205
46244W        W14473  14.078  22.668  10.747
46245W        W14474  25.079  13.193   3.694
46246W        W14475   8.755  42.467   1.018
46247W        W14476   8.810  17.821   3.329
46248W        W14477  27.131  13.179  11.076
46249W        W14478  15.857  24.014   1.578
46250W        W14479  42.648  13.736   4.717
46251W        W14480  43.774  27.536  13.766
46252W        W14481  43.570  14.590  14.430
46253W        W14482  25.408  16.660  11.167
46254W        W14483   8.607  15.630   2.707
46255W        W14484  13.832  24.201   2.680
46256W        W14485  29.306  31.914   1.355
46257W        W14486   8.836  42.504  11.866
46258W        W14487  36.794  39.111  12.894
46259W        W14488  25.602  20.532   0.464
46260W        W14489  31.897  33.484   0.299
46261W        W14490  30.519   6.722   2.646
46262W        W14491  24.094   5.476   0.256
46263W        W14492   1.852  12.795   1.862
46264W        W14493  38.466   2.482   1.882
46265W        W14494  13.149   9.371   0.025
46266W        W14495  16.699   4.135   2.868
46267W        W14496  35.349  16.680   4.972
46268W        W14497   7.157  14.135   2.018
46269W        W14498  14.489  10.262  10.619
46270W        W14499   7.136  40.385   2.915
46271W        W14500  10.971  15.620   3.855
46272W        W14501  21.307  16.245   1.328
46273W        W14502  13.818  19.147  13.390
46274W        W14503  32.448  24.976  14.871
46275W        W14504  24.651  32.486   3.679
46276W        W14505  29.083  43.379  14.335
46277W        W14506  21.074  25.556  12.931
46278W        W14507   5.072  36.404   3.261
46279W        W14508   3.851  36.648  11.482
46280W        W14509  38.571   9.902  10.663
46281W        W14510  11.896   8.831   3.057
46282W        W14511  41.920  43.049  12.662
46283W        W14512   4.369  14.179   1.395
46284W        W14513  19.811  34.871   0.815
46285W        W14514  28.507  31.886   1.604
46286W        W14515  44.725  34.533   0.524
46287W        W14516  30.182  14.647   4.944
46288W        W14517  13.785   3.857  10.671
46289W        W14518  13.374  39.516   2.309
46290W        W14519  22.493  21.734  12.708
46291W        W14520  13.477  15.249   4.480
46292W        W14521  37.553  12.271  12.274
46293W        W14522  38.324  15.607   0.169
46294W        W14523  13.782  30.304  10.293
46295W        W14524   4.270  35.074   1.380
46296W        W14525  38.190  14.266   0.820
46297W        W14526  12.190  16.222  10.591
46298W        W14527   0.488  13.543   3.224
46299W        W14528  29.803  24.591   4.445
46300W        W14529  27.993  16.999  11.631
46301W        W14530  22.474  35.073   1.838
46302W        W14531   7.582  23.596   1.176
46303W        W14532  12.721  35.544   2.610
46304W        W14533  37.425  29.096  14.273
46305W        W14534  16.293   0.533  12.066
46306W        W14535  36.019   8.837  10.613
46307W        W14536  18.168  36.460  11.497
46308W        W14537  16.837  13.293   3.643
46309W        W14538  36.046  20.244  14.374
46310W        W14539  10.356  27.688  10.694
46311W        W14540  25.491   9.365   0.606
46312W        W14541  19.828  27.595   4.153
46313W        W14542  41.366  31.162  10.590
46314W        W14543  38.768   3.423  13.484
46315W        W14544  30.354  34.976   3.216
46316W        W14545   0.869  39.438   3.145
46317W        W14546  44.469  35.889  14.806
46318W        W14547  10.383  33.522  13.062
46319W        W14548  32.854  34.864   1.805
46320W        W14549  32.321  33.993  14.507
46321W        W14550   3.914  14.970  13.875
46322W        W14551  15.212  16.579  11.249
46323W        W14552   7.213  16.122  12.334
46324W        W14553  40.321  12.366   4.502
46325W        W14554  25.804   0.779  12.700
46326W        W14555  20.700  31.950   1.502
46327W        W14556  43.920  13.863   2.192
46328W        W14557  35.436  11.170   0.932
46329W        W14558  37.290  16.742   3.721
46330W        W14559  23.793  12.420   1.763
46331W        W14560  10.766  10.056  11.577
46332W        W14561  16.125  42.805   3.330
46333W        W14562  18.988   9.626  11.080
46334W        W14563  25.562  35.883  10.200
46335W        W14564  30.619  22.532  10.238
46336W        W14565  11.379  22.997   4.205
46337W        W14566  42.039   7.357   3.579
46338W        W14567  16.619  29.420   0.730
46339W        W14568  39.502   6.535  12.994
46340W        W14569  32.462  24.514   4.210
46341W        W14570  24.211   5.980   0.287
46342W        W14571   8.868  25.931   0.386
46343W        W14572  31.706  39.253   0.807
46344W        W14573  42.971  31.010  12.827
46345W        W14574  36.404  23.768   3.699
46346W        W14575  31.871  38.767   4.101
46347W        W14576  34.613  38.596  14.976
46348W        W14577  36.994  15.375   2.675
46349W        W14578  40.633  20.791   0.251
46350W        W14579  30.110  21.308   1.774
46351W        W14580  26.139  18.776  11.569
46352W        W14581   6.297  14.713   4.356
46353W        W14582  14.524   5.978   2.223
46354W        W14583   8.026  28.505  12.699
46355W        W14584  16.963  39.946  12.012
46356W        W14585  41.772   4.586  14.865
46357W        W14586  44.836   1.310   4.208
46358W        W14587  12.271  26.956   1.922
46359W        W14588  44.884  14.134   3.678
46360W        W14589  39.070  28.895   2.864
46361W        W14590   9.179   4.406   3.940
46362W        W14591  26.651   7.459   1.814
46363W        W14592  14.164  24.528   4.655
46364W        W14593   4.833   1.718   3.234
46365W        W14594  12.292   7.895  14.478
46366W        W14595  30.046  13.273   3.744
46367W        W14596  28.281  20.771  13.331
46368W        W14597  42.085  17.216   2.483
46369W        W14598  20.646  27.339   1.346
46370W        W14599  39.771  43.386   1.718
46371W        W14600   0.307  33.954  13.091
46372W        W14601   9.564   1.221  14.941
46373W        W14602  32.547   0.828   1.836
46374W        W14603   8.253   3.954  12.014
46375W        W14604   1.763  13.424  12.426
46376W        W14605  20.722   8.714   4.488
46377W        W14606  22.826   6.411  11.291
46378W        W14607  33.873  44.738  11.532
46379W        W14608  41.324  10.762  13.236
46380W        W14609  42.767  38.049  12.267
46381W        W14610   6.566  10.753   2.111
46382W        W14611  32.558  21.295   3.376
46383W        W14612  17.152  44.869   4.640
46384W        W14613  20.238  10.764   4.241
46385W        W14614   7.934  44.989  13.224
46386W        W14615  29.553   2.287  10.683
46387W        W14616   1.225  37.223  13.801
46388W        W14617   9.698  20.812  11.354
46389W        W14618   0.733  32.166   0.188
46390W        W14619  22.282   8.721   1.386
46391W        W14620  25.516  44.456   2.284
46392W        W14621  25.059  20.508  13.628
46393W        W14622  38.349  17.960  14.026
46394W        W14623  37.573  18.537  10.983
46395W        W14624  12.340  36.527  13.935
46396W        W14625  31.809  20.169  10.572
46397W        W14626  17.201   5.150   0.523
46398W        W14627  14.586   7.435  13.850
46399W        W14628   0.514  29.008  14.548
46400W        W14629  21.498  16.840  14.031
46401W        W14630  15.642  37.118  10.687
46402W        W14631  43.385  24.578   3.118
46403W        W14632  25.074  10.172   1.460
46404W        W14633  14.882   7.727   1.734
46405W        W14634  28.060  41.650  10.749
46406W        W14635  20.830   9.810  13.966
46407W        W14636  32.279  25.003   2.130
46408W        W14637   8.268  22.723  14.687
46409W        W14638   7.115  15.853  14.846
46410W        W14639  19.470  32.032  10.414
46411W        W14640  40.756  43.424   2.120
46412W        W14641  25.621  33.760  12.807
46413W        W14642  42.709   3.946   0.418
46414W        W14643  23.346   4.298   1.839
46415W        W14644  28.598  33.870   1.179
46416W        W14645  24.613  12.095  11.181
46417W        W14646  13.392  35.170  11.113
46418W        W14647  27.207   3.513  14.461
46419W        W14648  43.293  23.231   3.581
46420W        W14649  40.117  23.277   0.242
46421W        W14650  17.207  44.739  11.107
46422W        W14651  43.830   1.573  14.646
46423W        W14652   0.097  27.794  10.860
46424W        W14653  38.051  11.313  13.163
46425W        W14654   7.218  38.314   0.306
46426W        W14655  10.132  27.698  14.267
46427W        W14656  27.527  19.034  13.861
46428W        W14657  20.204  41.873  10.827
46429W        W14658  43.327  42.435  14.602
46430W        W14659  34.097  21.558  14.966
46431W        W14660   4.887  41.054   1.760
46432W        W14661   4.897   2.130  12.514
46433W        W14662  14.834  31.639  10.575
46434W        W14663  36.808  44.036  12.093
46435W        W14664  38.880   5.298  10.682
46436W        W14665   3.227   1.970  12.847
46437W        W14666  16.210  22.923  12.905
46438W        W14667  42.981  24.281  11.079
46439W        W14668  19.995  13.870   2.149
46440W        W14669  13.142  37.408   0.747
46441W        W14670  34.751   0.159  10.702
46442W        W14671  40.443  15.287   2.879
46443W        W14672   9.246  13.701   0.018
46444W        W14673  19.792  10.095  14.702
46445W        W14674  29.471  44.432   2.866
46446W        W14675   8.403   8.114   1.960
46447W        W14676  14.352  44.242   1.853
46448W        W14677  26.523  19.494   1.476
46449W        W14678  28.532  11.881   1.182
46450W        W14679   8.768  18.510   3.773
46451W        W14680   9.097  38.818   1.414
46452W        W14681   0.946  14.120  14.686
46453W        W14682  11.106   4.007  14.334
46454W        W14683  16.658  34.561   1.396
46455W        W14684  39.992  30.417   1.236
46456W        W14685  16.850   7.552  13.076
46457W        W14686  32.518  24.159  12.838
46458W        W14687  21.569  25.746  12.880
46459W        W14688  41.927   0.350   0.494
46460W        W14689  30.853   6.795  12.986
46461W        W14690  37.579   7.705   3.614
46462W        W14691  17.581  41.991  10.748
46463W        W14692  40.630  38.431   0.888
46464W        W14693  17.681  43.492  14.092
46465W        W14694  10.394  26.168  14.313
46466W        W14695  13.878  35.638   3.596
46467W        W14696  24.186  14.386  11.585
46468W        W14697  30.847  42.753   1.722
46469W        W14698  20.559  38.254  11.612
46470W        W14699   4.033   8.193   0.351
46471W        W14700   5.277  14.126  13.610
46472W        W14701  24.904  14.706  12.110
46473W        W14702  42.020  44.961  14.585
46474W        W14703  37.335  42.300   0.955
46475W        W14704  20.831  33.473  11.999
46476W        W14705  36.391  26.761  13.048
46477W        W14706  29.185  20.181   3.797
46478W        W14707  23.722  11.342   0.281
46479W        W14708  17.776   4.754   1.350
46480W        W14709   8.286   1.176   1.318
46481W        W14710  29.419   2.285   3.236
46482W        W14711  37.375  23.074  11.675
46483W        W14712  16.226  35.228  13.951
46484W        W14713   1.850  38.728  11.343
46485W        W14714  27.913  18.280  13.903
46486W        W14715  35.586  20.425  14.249
46487W        W14716  42.944  37.642  11.460
46488W        W14717  41.960  39.449  14.909
46489W        W14718   3.024  18.217  11.451
46490W        W14719  18.695  37.495  12.567
46491W        W14720   4.228  20.178   3.050
46492W        W14721  25.656  43.832  12.507
46493W        W14722  39.600  19.004   0.003
46494W        W14723   5.865  35.537   1.821
46495W        W14724  12.897  32.919   4.124
46496W        W14725  37.071  26.662  11.927
46497W        W14726  24.077  31.189  13.576
46498W        W14727  11.185   2.342   1.948
46499W        W14728  40.476  32.132   1.436
46500W        W14729  27.904  19.187  11.155
46501W        W14730  22.139   7.266   2.112
46502W        W14731  32.236  40.982   4.052
46503W        W14732  18.135  17.167   3.693
46504W        W14733   1.968   4.793  11.468
46505W        W14734  32.494  21.525   1.729
46506W        W14735  44.274  17.153   1.274
46507W        W14736   9.445  21.835   1.473
46508W        W14737  30.565  18.061   2.658
46509W        W14738  15.333  14.129   3.733
46510W        W14739  33.399  26.570   4.627
46511W        W14740  34.771  27.747   4.490
46512W        W14741  36.462  44.124  14.533
46513W        W14742  16.816  43.418  12.108
46514W        W14743  30.079  32.444  14.066
46515W        W14744  26.595  32.492   0.633
46516W        W14745  19.630   5.466   2.414
46517W        W14746  28.960   6.745   3.742
46518W        W14747  36.530  33.367   3.246
46519W        W14748  15.728  33.384  12.871
46520W        W14749  30.153  27.455   4.270
46521W        W14750  16.232  32.545  11.570
46522W        W14751  28.624   1.558   4.066
46523W        W14752  16.068  15.482  11.849
46524W        W14753   4.194  34.600  10.282
46525W        W14754  14.367  13.488  10.431
46526W        W14755  32.133  27.458  13.940
46527W        W14756  31.013  20.238   0.084
46528W        W14757  15.742  27.043  14.862
46529W        W14758   8.982  22.019  12.832
46530W        W14759  17.261  38.468   3.779
46531W        W14760  40.065  39.434  13.886
46532W        W14761   3.825  16.252   3.837
46533W        W14762  20.893  29.488  11.534
46534W        W14763   5.415  15.368   1.658
46535W        W14764  10.005   1.234  13.550
46536W        W14765  18.590   2.273  12.665
46537W        W14766  42.124   2.710  14.437
46538W        W14767   0.684   9.614   2.746
46539W        W14768  16.237   5.721   2.451
46540W        W14769  14.291  42.976  11.387
46541W        W14770   6.199   4.401   4.558
46542W        W14771   8.190  43.221   2.336
46543W        W14772  25.416  25.641   2.190
46544W        W14773  28.208  23.991  13.205
46545W        W14774  30.729   6.189  10.694
46546W        W14775  20.250  43.195  13.504
46547W        W14776  39.036  14.684  12.133
46548W        W14777   5.506  38.334  12.242
46549W        W14778  39.899  24.296  12.291
46550W        W14779  33.951  34.077  11.443
46551W        W14780  28.966   1.816   0.265
46552W        W14781  42.539  29.850   4.124
46553W        W14782   9.178  13.784  13.024
46554W        W14783  44.861  20.983   3.817
46555W        W14784  28.031  15.936  11.561
46556W        W14785   7.276   2.205  14.688
46557W        W14786   2.021   7.375  11.184
46558W        W14787  28.741  39.140  10.604
46559W        W14788  34.912  34.752   3.253
46560W        W14789  17.705   1.933   1.977
46561W        W14790  24.581  37.728  12.103
46562W        W14791  44.808  12.762   0.811
46563W        W14792  22.287  31.993  13.804
46564W        W14793  39.018  23.966   4.141
46565W        W14794  17.345  44.443  13.932
46566W        W14795  20.168   9.239  13.743
46567W        W14796  17.815  32.653  13.416
46568W        W14797   2.417  19.208  11.453
46569W        W14798  11.302   6.364  13.998
46570W        W14799  16.632  39.953   2.671
46571W        W14800  18.598   3.929   0.801
46572W        W14801  43.956  20.077   0.324
46573W        W14802  23.458  44.087   0.196
46574W        W14803  41.893   4.904   4.532
46575W        W14804  16.809  26.567   3.104
46576W        W14805  27.274  43.937   1.429
46577W        W14806  33.433   3.461   0.294
46578W        W14807  15.321  21.510  14.791
46579W        W14808  21.859  32.585  13.529
46580W        W14809  12.420  25.173  14.785
46581W        W14810  35.319   2.905  14.879
46582W        W14811  30.854  32.338   3.589
46583W        W14812  23.479  41.368   4.179
46584W        W14813  41.231  19.967  11.473
46585W        W14814  19.148  32.016   4.051
46586W        W14815  36.652  30.476   0.875
46587W        W14816  29.617  18.643   4.146
46588W        W14817  30.847  23.161   3.778
46589W        W14818  30.533  14.285  12.993
46590W        W14819  39.315  10.412  13.536
46591W        W14820  31.783  23.642  12.964
46592W        W14821  35.308  30.255  12.072
46593W        W14822  24.492   9.454  12.501
46594W        W14823  14.661  28.319  11.633
46595W        W14824  40.495   9.384   3.210
46596W        W14825  41.874  32.957  11.631
46597W        W14826   1.784  37.934   1.206
46598W        W14827  19.127  39.479   3.405
46599W        W14828   5.653  37.512  10.835
46600W        W14829  43.761  31.561  11.104
46601W        W14830  44.339  19.731  12.801
46602W        W14831  25.456  14.761   2.442
46603W        W14832  26.604  22.162   4.832
46604W        W14833  14.650  41.354  12.949
46605W        W14834  29.845  24.138   1.868
46606W        W14835  39.929   5.913   4.133
46607W        W14836  31.107  34.077   2.132
46608W        W14837  39.580  27.559   9.856
46609W        W14838  11.228  43.240   3.609
46610W        W14839   0.664  37.680   2.784
46611W        W14840  11.611   5.267  12.044
46612W        W14841  30.417   3.740  14.479
46613W        W14842  10.109  32.103  10.787
46614W        W14843  15.183  28.561   1.527
46615W        W14844  30.935  39.177   0.351
46616W        W14845   8.649   5.946  11.621
46617W        W14846  44.894  33.334  13.476
46618W        W14847  23.603  31.520  10.713
46619W        W14848   3.085  32.437   3.247
46620W        W14849  16.848   9.168  10.774
46621W        W14850  29.911  23.656   4.640
46622W        W14851  18.100  13.704   0.554
46623W        W14852  21.509  43.565   1.629
46624W        W14853   7.121   5.336   3.376
46625W        W14854  35.090   3.212  14.518
46626W        W14855  10.349  33.031  14.021
46627W        W14856  18.282  29.545  14.357
46628W        W14857  18.638  30.943  11.421
46629W        W14858   3.719   1.020   0.688
46630W        W14859  44.201  12.560  12.509
46631W        W14860   9.195  36.900   1.252
46632W        W14861  42.888   1.315   3.005
46633W        W14862  29.100  36.452  12.407
46634W        W14863  28.006  27.629  12.509
46635W        W14864  21.313  21.645  11.487
46636W        W14865  13.647   5.380  13.362
46637W        W14866  13.633  44.715   1.349
46638W        W14867  33.902  17.412   1.268
46639W        W14868   6.659   1.233  13.055
46640W        W14869   6.708   3.893  10.996
46641W        W14870  12.877  24.185  10.466
46642W        W14871  13.845  36.856   0.708
46643W        W14872  35.690   1.891   1.226
46644W        W14873  20.525  29.614   3.122
46645W        W14874  41.516  25.457   4.600
46646W        W14875  23.724  11.970   3.660
46647W        W14876   0.414  13.445  12.393
46648W        W14877  17.062   7.728   2.241
46649W        W14878  26.520  25.569  12.174
46650W        W14879  29.480  39.405  13.884
46651W        W14880  33.928   9.228   0.316
46652W        W14881  27.158   9.359   0.606
46653W        W14882  27.570  15.210  12.522
46654W        W14883  21.363  25.308   4.240
46655W        W14884  31.508  34.205   1.810
46656W        W14885  33.800  28.592   3.572
46657W        W14886  32.666   6.282   3.725
46658W        W14887  32.471   6.403   4.182
46659W        W14888  41.637   7.164  13.362
46660W        W14889  29.986   5.423   3.413
46661W        W14890   0.832  31.279  13.354
46662W        W14891  13.162  42.374  12.588
46663W        W14892  38.131  20.210   1.270
46664W        W14893   8.117  22.573   0.520
46665W        W14894  36.739  11.643  14.488
46666W        W14895  15.764   9.732   0.218
46667W        W14896  13.262  38.765  13.933
46668W        W14897  31.325  34.631   0.486
46669W        W14898  43.793  26.017  11.616
46670W        W14899   9.318  22.193   1.864
46671W        W14900   1.122  44.535   4.506
46672W        W14901  36.313  37.355   1.243
46673W        W14902  17.463  44.212   0.173
46674W        W14903  44.791  30.820   3.765
46675W        W14904   6.892  15.659   0.277
46676W        W14905  21.314  37.554  14.450
46677W        W14906  11.792   4.918   3.226
46678W        W14907  34.789  29.122  11.531
46679W        W14908  39.316  28.625   9.886
46680W        W14909  15.692  35.345  11.992
46681W        W14910   9.370  32.368  11.459
46682W        W14911   3.403  31.599  10.857
46683W        W14912  43.561  10.782   0.444
46684W        W14913  33.118  17.393   4.030
46685W        W14914  39.029  25.651   2.857
46686W        W14915  41.830  18.336   0.429
46687W        W14916  19.193  42.807  12.200
46688W        W14917  17.795  26.673  10.982
46689W        W14918  31.614  29.579  10.516
46690W        W14919  29.182   9.882   0.902
46691W        W14920  35.950  39.597   0.414
46692W        W14921  25.585   9.806  10.443
46693W        W14922  29.620  13.312   2.888
46694W        W14923  28.077  21.640   4.926
46695W        W14924  20.147  24.154   1.198
46696W        W14925  37.858   6.645   0.284
46697W        W14926  30.461  35.434  14.980
46698W        W14927  40.745   8.716  13.537
46699W        W14928  26.003  37.567   4.390
46700W        W14929  10.966  41.939   0.759
46701W        W14930  18.669  23.064   0.447
46702W        W14931  37.399  42.808   1.763
46703W        W14932  31.617  20.779  11.993
46704W        W14933   1.265   0.827   0.480
46705W        W14934  30.798   4.587   1.337
46706W        W14935  33.113   7.294   1.760
46707W        W14936   3.344  25.020  11.136
46708W        W14937   8.687  22.237  12.465
46709W        W14938   6.897  40.250  11.634
46710W        W14939  32.125  42.962  14.607
46711W        W14940  26.809  42.549   5.184
46712W        W14941  20.578  33.913  13.113
46713W        W14942  29.095   8.401   4.101
46714W        W14943  14.092  28.033   0.665
46715W        W14944  19.596  32.389  14.958
46716W        W14945  41.535  11.767  14.114
46717W        W14946  36.167  11.094  11.558
46718W        W14947   1.350  29.458  10.729
46719W        W14948  38.628  31.127   2.705
46720W        W14949   1.484  25.723  10.656
46721W        W14950   3.043  29.469   3.714
46722W        W14951  33.721  23.186  14.054
46723W        W14952  30.503   0.443   2.587
46724W        W14953  27.648  20.316  12.138
46725W        W14954   0.348  39.930  13.407
46726W        W14955  11.862  22.818   1.434
46727W        W14956   3.942  38.969   0.575
46728W        W14957   7.695   7.338   3.678
46729W        W14958  44.385  31.082   3.597
46730W        W14959  40.264   5.769  12.443
46731W        W14960  38.585  32.764   4.729
46732W        W14961  13.738  34.193   4.351
46733W        W14962  17.581  40.756   1.351
46734W        W14963  40.490  42.349  10.969
46735W        W14964  12.202  21.679   4.408
46736W        W14965  32.986  33.100  12.423
46737W        W14966  31.447  12.321  11.982
46738W        W14967  10.856  33.974   0.393
46739W        W14968  13.565  36.154   1.874
46740W        W14969  13.718  34.393  14.205
46741W        W14970   0.975  10.232  10.030
46742W        W14971  21.735   8.560  14.322
46743W        W14972   3.388  39.782  12.481
46744W        W14973   7.226  32.877  13.486
46745W        W14974  10.298  30.469   2.864
46746W        W14975   5.171  32.574   2.369
46747W        W14976  34.592   8.333  11.071
46748W        W14977  10.058  43.325   1.221
46749W        W14978   3.905   2.030  12.402
46750W        W14979  24.401  13.810   4.710
46751W        W14980   5.068  43.882   4.272
46752W        W14981  23.663  37.421   2.271
46753W        W14982   4.714   9.167  14.901
46754W        W14983   0.326   9.130  13.879
46755W        W14984   9.404  36.530  14.471
46756W        W14985   9.181  25.910  14.875
46757W        W14986   2.329  22.771   0.456
46758W        W14987  14.577  36.523   4.634
46759W        W14988  28.959  19.286   3.791
46760W        W14989   3.810  21.166  11.956
46761W        W14990   9.747  24.378   2.344
46762W        W14991  44.158   9.486  14.311
46763W        W14992   8.100  21.634   0.145
46764W        W14993   0.405   9.703  11.721
46765W        W14994   2.651  21.670   2.927
46766W        W14995  21.583   0.146   4.219
46767W        W14996  22.455  41.817   4.184
46768W        W14997  22.287  34.468  10.761
46769W        W14998  11.381  13.547  11.986
46770W        W14999  38.270  44.462  10.789
46771W        W15000  23.957  40.341  13.889
46772W        W15001  34.497   3.270   0.950
46773W        W15002  33.698  21.199   4.113
46774W        W15003  39.513   5.178   4.356
46775W        W15004  30.970  16.202   1.322
46776W        W15005   5.200  37.060   0.404
46777W        W15006  25.644  33.551  13.890
46778W        W15007   0.673  22.386   3.972
46779W        W15008   0.666  22.912  14.329
46780W        W15009  37.897   7.145   2.392
46781W        W15010  11.197  35.964   0.877
46782W        W15011   8.026   3.412   3.156
46783W        W15012  41.385   3.521   2.368
46784W        W15013  23.549  17.740  14.318
46785W        W15014  40.937  33.326  12.783
46786W        W15015  18.431   9.846   2.980
46787W        W15016   1.633  26.579   3.909
46788W        W15017  37.074   7.375   2.793
46789W        W15018  21.441  39.046   2.872
46790W        W15019  20.008  23.228  14.246
46791W        W15020  34.183  41.818   1.364
46792W        W15021   7.686  37.975  10.639
46793W        W15022   9.171  12.613  13.723
46794W        W15023  39.824  10.148   3.962
46795W        W15024  13.454  42.709  11.546
46796W        W15025  32.672  12.381   2.757
46797W        W15026  32.664  17.733   3.293
46798W        W15027   4.901  33.966  13.866
46799W        W15028  32.561  32.816  10.408
46800W        W15029  13.461  26.946  12.943
46801W        W15030  19.991  27.089  13.039
46802W        W15031  15.881  15.258  11.423
46803W        W15032  10.685  35.183  10.122
46804W        W15033  20.192  14.112  13.430
46805W        W15034  44.685   5.427   2.031
46806W        W15035  39.403  18.323  12.756
46807W        W15036  32.377  12.311   0.278
46808W        W15037  21.734  16.193  10.682
46809W        W15038  36.390  41.850  13.325
46810W        W15039  14.667  27.159   2.963
46811W        W15040  10.128  35.096   2.685
46812W        W15041   6.528  35.537  12.037
46813W        W15042  30.327  32.519  10.588
46814W        W15043  36.337  31.625  12.079
46815W        W15044  30.575  31.109  13.078
46816W        W15045  29.552  24.613   4.912
46817W        W15046  29.422  33.369   1.364
46818W        W15047  23.039  21.021   2.776
46819W        W15048  13.703  32.318   1.044
46820W        W15049  18.702  15.605   5.079
46821W        W15050  23.597   5.204  13.733
46822W        W15051  43.521  26.633  14.522
46823W        W15052  10.113  10.991  10.228
46824W        W15053  28.276  16.954   0.114
46825W        W15054  26.180   7.361  13.431
46826W        W15055  21.079  44.698   4.801
46827W        W15056   6.389  22.972   0.803
46828W        W15057   9.037  19.616  11.201
46829W        W15058  44.996  31.130  14.777
46830W        W15059  41.819  29.052  12.635
46831W        W15060  34.023  29.979   0.006
46832W        W15061  33.547  43.360   2.005
46833W        W15062  21.055  22.860   4.461
46834W        W15063  40.876  34.124   0.953
46835W        W15064  31.508   8.773  14.008
46836W        W15065  36.065  11.891   0.690
46837W        W15066  36.413  15.802  10.693
46838W        W15067  31.611   5.804  10.911
46839W        W15068  30.754  11.073  11.025
46840W        W15069  40.916   7.161   0.378
46841W        W15070  22.160  25.685   3.903
46842W        W15071   5.178  36.639  13.577
46843W        W15072  29.229   1.458   1.731
46844W        W15073  18.736  20.542   0.877
46845W        W15074   0.272   3.176  13.516
46846W        W15075  31.833  29.487   3.714
46847W        W15076  39.987  24.525  10.785
46848W        W15077  40.949  11.357  14.036
46849W        W15078  16.751   4.516   3.215
46850W        W15079   2.364  33.376  10.553
46851W        W15080  11.311  23.007  13.575
46852W        W15081  16.766  23.113   3.550
46853W        W15082  28.912   4.280  14.321
46854W        W15083  17.705  43.360  13.589
46855W        W15084  18.068   8.216  13.754
46856W        W15085   8.783  30.417   4.603
46857W        W15086  18.676  10.127  12.573
46858W        W15087  34.453  31.189  14.766
46859W        W15088  35.691  41.221  13.837
46860W        W15089  31.394  26.188  12.984
46861W        W15090  33.944  37.523  13.523
46862W        W15091  31.971   2.346   4.582
46863W        W15092  41.807  18.105  14.927
46864W        W15093  10.984  40.518  12.066
46865W        W15094  40.383   5.008   3.349
46866W        W15095  19.532  19.605   2.119
46867W        W15096  12.173  12.096  12.908
46868W        W15097  28.304  39.747  13.736
46869W        W15098  16.148  22.137  12.470
46870W        W15099  20.261  15.058   4.028
46871W        W15100  34.899  20.099   2.208
46872W        W15101  24.716  14.297   2.736
46873W        W15102  43.231  35.664  13.899
46874W        W15103   7.531  13.899  13.532
46875W        W15104  20.916  36.712  14.459
46876W        W15105   0.028  26.202   2.735
46877W        W15106   7.088  38.820   3.091
46878W        W15107  40.160   7.032  11.829
46879W        W15108  32.592  40.482  14.944
46880W        W15109  24.533  44.698  14.258
46881W        W15110  39.225   8.397  12.950
46882W        W15111  12.089  16.073   4.232
46883W        W15112   8.623  17.771  10.710
46884W        W15113  41.441  11.250  13.973
46885W        W15114  34.403   3.835  12.941
46886W        W15115  36.632  22.246   4.051
46887W        W15116  34.524  35.895   4.593
46888W        W15117   1.182   4.845  13.874
46889W        W15118   7.021  35.430  11.213
46890W        W15119   4.584  13.287   4.868
46891W        W15120  34.890   0.300  11.755
46892W        W15121   0.627   3.524   2.194
46893W        W15122  41.464   6.343  10.708
46894W        W15123  32.188  44.377   1.555
46895W        W15124  34.422   1.985   3.680
46896W        W15125  30.494   2.819   3.872
46897W        W15126   0.289  13.693  10.662
46898W        W15127  11.232  28.552  13.362
46899W        W15128  30.594  19.850   3.862
46900W        W15129   1.458  38.474  11.559
46901W        W15130  21.083   1.985   3.289
46902W        W15131  12.601  30.536   1.150
46903W        W15132  42.616  30.456   2.506
46904W        W15133  26.408  33.223  14.979
46905W        W15134  32.625   4.760   1.675
46906W        W15135  14.054  15.863   3.257
46907W        W15136  27.435  36.602   1.188
46908W        W15137  11.282   5.335  10.829
46909W        W15138   3.259   4.091   2.399
46910W        W15139  31.478  31.739   2.395
46911W        W15140   1.478  14.284   3.591
46912W        W15141  17.114  41.064   0.493
46913W        W15142  10.592   6.848  11.420
46914W        W15143   4.498  16.375   2.694
46915W        W15144  42.607  30.476   4.748
46916W        W15145   9.877   6.520  13.912
46917W        W15146  17.290  35.978   3.660
46918W        W15147  10.910  33.352   1.236
46919W        W15148  33.331   4.062   3.698
46920W        W15149  38.028  32.557   3.505
46921W        W15150   9.875  24.543  12.483
46922W        W15151  39.584  35.008  10.818
46923W        W15152   1.002  12.579   4.097
46924W        W15153  24.411  38.583  13.586
46925W        W15154  14.787  27.497   0.728
46926W        W15155  15.756  20.418   2.875
46927W        W15156  44.712  19.440   1.147
46928W        W15157  12.459  11.882  10.769
46929W        W15158  29.859  43.968  10.644
46930W        W15159  37.501  10.566  13.332
46931W        W15160   4.478   7.708  12.995
46932W        W15161  12.840  24.099   1.383
46933W        W15162  23.476  32.502  11.073
46934W        W15163  18.659  23.500   1.853
46935W        W15164  32.946  36.307  11.997
46936W        W15165  30.664  43.010  14.714
46937W        W15166  10.803   9.101   0.433
46938W        W15167  26.581  38.880   5.027
46939W        W15168  31.341  28.375  11.521
46940W        W15169  27.656  42.387  11.073
46941W        W15170   0.729   4.225   4.945
46942W        W15171  34.553  35.879  10.701
46943W        W15172  11.287  24.440   1.912
46944W        W15173   0.280  44.512  13.896
46945W        W15174  12.643  27.217   2.197
46946W        W15175  38.004  16.867   2.230
46947W        W15176  22.744  44.810   2.697
46948W        W15177  37.343  36.616   2.718
46949W        W15178  42.571  11.916   4.049
46950W        W15179  18.820  23.566   0.404
46951W        W15180  31.738  15.203   4.945
46952W        W15181  42.493  33.540  14.147
46953W        W15182  39.205   4.755  12.445
46954W        W15183  21.867  10.528  13.328
46955W        W15184  34.120  35.463  13.237
46956W        W15185  37.975  25.788   3.897
46957W        W15186  43.503  39.265   2.767
46958W        W15187   5.892  11.136  13.419
46959W        W15188  19.107  14.810   2.452
46960W        W15189   6.848   5.934   0.014
46961W        W15190   4.938   0.921  13.950
46962W        W15191  33.210  19.394  11.189
46963W        W15192   3.842  15.706  12.549
46964W        W15193  40.382   1.245   0.560
46965W        W15194   9.351  11.292  12.087
46966W        W15195  43.710  26.160   1.460
46967W        W15196  26.477  32.817  12.822
46968W        W15197   9.752  36.309  11.900
46969W        W15198   7.806   5.877   3.419
46970W        W15199  33.639   5.550   2.786
46971W        W15200   6.455  29.661   4.700
46972W        W15201  29.245  39.223   4.759
46973W        W15202  26.025  24.464   0.257
46974W        W15203  19.716  18.241  14.292
46975W        W15204   9.641  18.651  14.416
46976W        W15205  21.703   5.833   4.526
46977W        W15206  17.253   0.395  12.931
46978W        W15207  28.349  19.717  12.029
46979W        W15208  15.040  10.698   2.904
46980W        W15209  23.364   0.329  12.131
46981W        W15210  33.589   4.385   2.642
46982W        W15211   4.876  31.923   2.690
46983W        W15212  20.495  35.853   5.047
46984W        W15213  20.476  14.298  13.031
46985W        W15214  37.849  41.273  12.138
46986W        W15215  17.276  26.459  12.886
46987W        W15216  17.089   2.389  11.278
46988W        W15217   0.269  27.456  12.575
46989W        W15218   5.920  26.718  13.908
46990W        W15219  42.376  41.972  10.676
46991W        W15220  12.138  23.660  10.632
46992W        W15221  33.483   8.699   3.303
46993W        W15222  28.325  11.462   3.131
46994W        W15223  17.373  33.538  13.601
46995W        W15224  44.022  17.630   2.195
46996W        W15225  21.088  35.357   0.335
46997W        W15226  44.490  23.588  14.469
46998W        W15227  12.456   1.258  13.895
46999W        W15228  27.120  25.483  14.013
47000W        W15229  39.569   5.517  11.087
47001W        W15230  20.725  29.861   3.540
47002W        W15231   9.172  21.257   1.633
47003W        W15232  24.256  15.616   4.987
47004W        W15233  32.072  23.491   3.169
47005W        W15234  21.244  13.754  11.365
47006W        W15235  19.189  43.432   0.676
47007W        W15236  23.598   2.353   1.727
47008W        W15237   7.788  30.114   0.761
47009W        W15238   6.562  14.147  14.760
47010W        W15239  24.933  44.343   1.328
47011W        W15240  10.805  25.090   2.848
47012W        W15241   3.061  26.285   0.925
47013W        W15242   4.670  27.738   2.937
47014W        W15243  34.537  23.655   4.716
47015W        W15244   8.436   7.396   1.457
47016W        W15245  16.613  39.818   1.700
47017W        W15246  25.272  36.482  13.257
47018W        W15247  23.109  17.848  10.799
47019W        W15248  15.644  21.366  10.155
47020W        W15249  17.083  44.899  13.997
47021W        W15250  11.112  38.566  10.916
47022W        W15251  15.675  12.603   0.486
47023W        W15252  44.233   9.756  11.589
47024W        W15253  19.658  12.696  10.692
47025W        W15254   5.811  38.835   2.911
47026W        W15255  43.749  36.595   2.308
47027W        W15256  22.458  40.403  11.653
47028W        W15257   6.827  23.483  13.794
47029W        W15258   8.416  31.085   1.861
47030W        W15259  12.626   8.362   0.841
47031W        W15260  10.573  23.549  10.703
47032W        W15261  11.548   0.011   2.760
47033W        W15262  24.957  36.548  11.695
47034W        W15263  31.182   7.425   1.645
47035W        W15264  25.199  28.640  10.787
47036W        W15265  10.622  33.135   4.255
47037W        W15266  41.349   3.706  11.689
47038W        W15267  36.172  15.162   1.771
47039W        W15268  32.577  12.964  14.033
47040W        W15269   4.328   6.324  11.382
47041W        W15270  43.826   1.722   2.532
47042W        W15271  10.151  10.145  10.633
47043W        W15272  34.322  26.686   3.189
47044W        W15273  18.283  32.152   2.785
47045W        W15274  39.062  12.602  10.203
47046W        W15275  44.424  36.881   0.734
47047W        W15276  31.756  16.047   4.095
47048W        W15277   5.414  23.783  11.714
47049W        W15278   8.966  36.041   0.036
47050W        W15279  43.551  24.479  12.989
47051W        W15280  29.153   0.800  11.893
47052W        W15281   0.084  35.091  13.293
47053W        W15282   4.310   0.647   3.746
47054W        W15283   9.261  40.393   1.666
47055W        W15284  35.505  28.650   0.109
47056W        W15285  10.261  31.668   0.746
47057W        W15286  10.479  17.843  10.816
47058W        W15287  27.100  42.843   0.786
47059W        W15288  20.743   5.344  10.996
47060W        W15289   0.896  12.698  12.168
47061W        W15290  15.026  42.871  13.866
47062W        W15291  35.275  32.341  12.005
47063W        W15292  25.779  43.148  10.294
47064W        W15293  40.353  10.792  13.413
47065W        W15294  29.723   6.725  13.435
47066W        W15295  30.599  26.882  12.111
47067W        W15296  12.283   9.218  10.894
47068W        W15297  41.148  22.835  11.156
47069W        W15298  29.585   0.700  10.415
47070W        W15299  22.168  35.431   3.455
47071W        W15300  14.746   0.714   4.174
47072W        W15301  30.459  36.309  12.892
47073W        W15302  43.648  41.250   4.874
47074W        W15303  40.239  21.998  14.996
47075W        W15304  40.596  41.043  12.558
47076W        W15305  39.999  39.186   3.988
47077W        W15306  25.604  12.575   2.764
47078W        W15307   5.690  33.375   0.258
47079W        W15308  38.392   1.355   2.705
47080W        W15309  36.925  26.566  12.413
47081W        W15310  43.726  35.171   2.735
47082W        W15311  15.737  17.565  13.121
47083W        W15312   6.953  24.749   3.338
47084W        W15313  44.713   8.834   3.634
47085W        W15314   3.204  24.680  12.443
47086W        W15315  33.062  33.044  11.538
47087W        W15316   2.704  19.227  13.951
47088W        W15317  26.976  24.156   0.387
47089W        W15318  42.285  12.737   0.105
47090W        W15319  29.918  32.114   0.731
47091W        W15320   0.413  15.230  13.865
47092W        W15321  30.654  18.192   1.818
47093W        W15322  23.842  24.289   4.300
47094W        W15323  22.465  15.741   0.825
47095W        W15324  14.500  10.254   4.733
47096W        W15325  12.463   3.812  13.440
47097W        W15326  36.594   4.681   1.454
47098W        W15327  25.549  12.993  10.748
47099W        W15328  16.285   4.226   3.152
47100W        W15329  12.315  29.515  10.736
47101W        W15330  22.100  21.269  13.939
47102W        W15331  20.088   4.395   1.931
47103W        W15332  27.637  38.128   2.347
47104W        W15333  26.089  32.338   3.747
47105W        W15334  11.348  34.909   0.329
47106W        W15335  32.850  20.460  12.379
47107W        W15336   5.280  17.592   4.157
47108W        W15337  42.878  38.890  11.701
47109W        W15338  17.697  31.935  12.935
47110W        W15339   9.396  37.544   3.965
47111W        W15340  18.980  18.204   0.005
47112W        W15341   6.201  42.037   2.832
47113W        W15342  15.145  42.302   0.310
47114W        W15343   4.903  22.275   0.933
47115W        W15344  20.181  44.286  10.188
47116W        W15345  10.378  14.765  10.473
47117W        W15346  33.608   9.370   0.975
47118W        W15347  30.890  40.322   4.239
47119W        W15348  28.982  15.168   0.793
47120W        W15349  11.784  20.702   4.097
47121W        W15350  33.655  18.638   0.976
47122W        W15351  41.934  37.316  12.768
47123W        W15352  19.600  12.195   2.139
47124W        W15353  41.897  44.759   3.270
47125W        W15354   1.878  21.970   3.341
47126W        W15355  12.217  36.800  14.431
47127W        W15356  42.887  10.819   2.269
47128W        W15357  31.911  20.246   2.849
47129W        W15358  32.907  26.011  14.782
47130W        W15359   5.413   4.854   2.929
47131W        W15360  20.832  29.980   1.420
47132W        W15361  33.784  29.023   4.449
47133W        W15362  33.018   1.869  12.348
47134W        W15363   8.519   8.790   2.336
47135W        W15364  36.051  28.686  14.977
47136W        W15365  38.595   8.896   3.662
47137W        W15366  25.260  17.819   0.332
47138W        W15367  18.667  44.821   4.053
47139W        W15368   6.829  25.615   3.755
47140W        W15369  37.333   0.842   1.347
47141W        W15370   7.724   4.912  11.557
47142W        W15371   6.394  20.608  11.879
47143W        W15372  17.027  28.015   0.987
47144W        W15373   3.674  37.054  13.304
47145W        W15374  43.407   7.673  11.207
47146W        W15375   5.208   0.567   2.852
47147W        W15376  27.400  28.624  11.914
47148W        W15377  10.520  27.710  12.990
47149W        W15378  35.609   9.887  14.610
47150W        W15379  31.078  11.447  12.384
47151W        W15380  26.926   6.693  11.674
47152W        W15381  34.810   7.727  11.107
47153W        W15382  21.282  42.723  10.498
47154W        W15383  12.863   2.884   0.325
47155W        W15384   6.472  39.195  14.265
47156W        W15385   4.798  20.714   1.430
47157W        W15386  34.488  30.401  10.644
47158W        W15387  16.047  37.768  10.716
47159W        W15388  34.686   7.789  12.421
47160W        W15389  22.450  14.046   2.962
47161W        W15390  40.271  24.555   0.115
47162W        W15391   3.348  44.541  13.258
47163W        W15392  22.063   3.877  10.617
47164W        W15393  29.688  29.609   4.619
47165W        W15394   7.323  32.588   4.136
47166W        W15395   4.071   1.224  11.197
47167W        W15396   4.305   4.832  11.011
47168W        W15397   3.304  35.867   1.305
47169W        W15398   3.038  43.384  11.799
47170W        W15399  17.438  42.141   3.248
47171W        W15400  23.697   1.831   3.877
47172W        W15401  25.377  13.428  12.174
47173W        W15402   5.950  12.596   3.127
47174W        W15403  22.195  25.432   2.260
47175W        W15404   5.407  28.782  11.379
47176W        W15405  42.792  26.511   3.653
47177W        W15406  34.067  33.839   1.966
47178W        W15407  14.745  26.493  13.324
47179W        W15408  37.561  14.248  12.529
47180W        W15409  33.708  30.323  11.491
47181W        W15410   2.829  34.584  10.612
47182W        W15411  17.571  26.075   2.833
47183W        W15412  39.037  29.367  11.505
47184W        W15413  11.247   8.083  10.856
47185W        W15414  19.014   5.215  14.325
47186W        W15415  22.196   6.924   0.751
47187W        W15416  40.086  39.564  12.065
47188W        W15417  36.232  16.904   2.366
47189W        W15418  14.973  37.964   2.536
47190W        W15419   0.780  19.084   3.140
47191W        W15420  21.171  19.048   5.080
47192W        W15421   9.714   5.307  13.147
47193W        W15422  41.564  14.711   1.829
47194W        W15423   3.276  40.076  12.067
47195W        W15424  25.943   5.648  11.956
47196W        W15425  26.032   2.477   1.766
47197W        W15426  43.215  17.975  10.866
47198W        W15427  37.421  26.112   1.239
47199W        W15428   2.876  14.244  11.134
47200W        W15429  29.476  30.929   1.383
47201W        W15430   9.674   5.009   1.330
47202W        W15431  32.098  21.548  10.947
47203W        W15432  31.413   3.355  11.586
47204W        W15433  22.755  20.781  11.598
47205W        W15434  15.057  21.574  10.897
47206W        W15435   8.700  24.686  11.704
47207W        W15436  10.523  39.027  10.301
47208W        W15437  12.679  12.599  12.602
47209W        W15438  23.020  44.058   1.410
47210W        W15439  41.060  33.394   0.805
47211W        W15440  40.809  25.394  14.787
47212W        W15441  18.665  13.908   9.894
47213W        W15442  38.093  40.806   0.294
47214W        W15443  34.176  27.488   1.864
47215W        W15444  32.346  41.493  14.402
47216W        W15445   5.419  28.032   1.166
47217W        W15446  16.458  39.177   3.264
47218W        W15447  12.232  18.795  10.436
47219W        W15448  36.030  16.289   2.888
47220W        W15449  41.053  24.583   0.345
47221W        W15450  40.485  17.912  11.627
47222W        W15451  23.243  33.322   0.673
47223W        W15452  20.046  44.851  11.832
47224W        W15453  18.633  33.982  14.991
47225W        W15454   1.370  20.131   0.806
47226W        W15455  25.395  27.176   2.765
47227W        W15456  10.816  33.178  12.197
47228W        W15457  33.547  20.067   3.268
47229W        W15458  44.142  26.855  10.935
47230W        W15459  43.767   4.278   3.795
47231W        W15460  31.936  13.994  10.273
47232W        W15461   7.937  26.980  12.138
47233W        W15462  15.297   5.414  12.876
47234W        W15463  11.843  11.625  14.329
47235W        W15464  34.022  21.613  14.029
47236W        W15465  30.621  10.493  11.465
47237W        W15466  11.659  10.277   2.784
47238W        W15467   5.311  43.278  10.649
47239W        W15468   1.402  16.906  14.454
47240W        W15469  17.756  32.580   1.204
47241W        W15470  14.331  28.457   0.957
47242W        W15471  37.070  17.116   2.928
47243W        W15472   4.299  30.224  10.610
47244W        W15473   5.842  23.068  10.623
47245W        W15474   5.462  14.577   2.793
47246W        W15475  26.460  18.157  13.790
47247W        W15476  41.283  11.389   0.878
47248W        W15477  38.999  12.156   1.289
47249W        W15478   2.846   3.340  13.311
47250W        W15479   0.495   1.505  11.972
47251W        W15480  39.019  29.477   4.523
47252W        W15481  44.878  22.953   0.287
47253W        W15482  16.180   1.018  13.487
47254W        W15483  13.659  21.623   2.451
47255W        W15484   7.360  14.123  12.647
47256W        W15485  22.840  22.748   4.989
47257W        W15486  19.111  42.276   2.297
47258W        W15487  22.157  41.114  13.033
47259W        W15488   8.525  29.626   4.199
47260W        W15489   7.342   0.806  14.703
47261W        W15490   7.113   1.309  14.908
47262W        W15491   2.007  12.603  12.760
47263W        W15492   6.727  12.171  10.660
47264W        W15493  17.780  15.075   0.685
47265W        W15494  31.374  31.973  10.975
47266W        W15495  43.940  31.964   2.018
47267W        W15496   3.711  11.261  14.808
47268W        W15497  15.314   6.398  13.959
47269W        W15498  37.572  10.774  14.824
47270W        W15499  41.415  37.932   0.783
47271W        W15500   5.949   0.843  11.155
47272W        W15501   5.840  42.035   1.415
47273W        W15502  26.241   2.279   2.781
47274W        W15503  11.339  27.444  12.822
47275W        W15504   7.142  32.062   4.144
47276W        W15505  21.698  32.442  12.124
47277W        W15506   1.470   4.890  11.495
47278W        W15507  31.883   5.880   3.786
47279W        W15508   9.090  43.529  11.610
47280W        W15509  28.885  37.430  12.018
47281W        W15510  10.083   5.945  10.721
47282W        W15511  17.527   1.538   1.304
47283W        W15512  33.020  15.928   4.490
47284W        W15513  24.075  19.788  12.030
47285W        W15514   8.852  38.743  14.133
47286W        W15515   9.074  21.188  13.968
47287W        W15516  19.216  24.154   1.658
47288W        W15517   8.806  10.046   1.921
47289W        W15518  38.209  39.583  13.139
47290W        W15519  19.570   3.293  11.579
47291W        W15520  23.065   0.345   2.845
47292W        W15521  38.756  40.384  11.439
47293W        W15522  31.047   6.003   1.681
47294W        W15523  34.760   4.768  12.556
47295W        W15524  44.873  10.296  13.224
47296W        W15525  16.746  25.409  12.911
47297W        W15526   3.920  18.148   1.615
47298W        W15527  12.276   5.801   2.372
47299W        W15528   6.765  19.646   2.089
47300W        W15529  44.906  19.243  13.333
47301W        W15530  43.392  11.055   2.337
47302W        W15531  21.256   0.316  11.083
47303W        W15532   0.998  26.868   0.782
47304W        W15533  37.151  29.707  13.287
47305W        W15534  38.985  15.008  10.777
47306W        W15535  25.240   2.015   1.477
47307W        W15536  38.942  35.245   3.746
47308W        W15537  12.150  25.078   2.157
47309W        W15538  41.137  28.420   4.685
47310W        W15539   4.718   9.879  13.042
47311W        W15540  27.766  18.345  11.985
47312W        W15541  30.577  26.374   4.049
47313W        W15542  17.709   8.403   0.919
47314W        W15543  30.238   9.315  11.092
47315W        W15544  21.759  36.162  11.118
47316W        W15545   0.757  12.341  11.094
47317W        W15546  28.158   5.682   3.206
47318W        W15547  13.843  36.529  12.900
47319W        W15548  10.170  19.646  14.351
47320W        W15549  16.774  18.642  13.911
47321W        W15550  32.768   0.768  11.539
47322W        W15551   4.477  25.927   0.769
47323W        W15552  12.177  43.543   0.340
47324W        W15553  44.909  14.142  13.847
47325W        W15554   2.034  19.576  13.018
47326W        W15555  27.332  16.551  14.891
47327W        W15556  35.586  40.616   3.587
47328W        W15557  20.627  35.052  13.890
47329W        W15558  36.784   9.281   1.293
47330W        W15559  35.061   0.469   1.252
47331W        W15560   9.762  11.755   3.312
47332W        W15561  38.342   9.041  11.114
47333W        W15562  13.213  26.229  13.602
47334W        W15563  11.751  39.450  11.576
47335W        W15564  10.793  35.640   0.919
47336W        W15565  43.014  42.202  11.422
47337W        W15566  33.634  34.577   1.288
47338W        W15567  31.555   5.197   1.431
47339W        W15568   8.952  39.133   3.651
47340W        W15569  19.430  36.451  14.022
47341W        W15570  18.307   5.826   3.644
47342W        W15571  43.484  43.638  14.489
47343W        W15572  25.830  25.608   4.836
47344W        W15573  34.872  13.834   4.787
47345W        W15574  13.837  31.915   0.725
47346W        W15575  25.713  34.390   0.054
47347W        W15576  23.664  18.609  13.091
47348W        W15577   5.850  42.191  10.706
47349W        W15578  18.614   9.845  13.582
47350W        W15579  12.177  17.500  12.562
47351W        W15580  17.225   5.385   2.988
47352W        W15581   0.385  23.454  13.402
47353W        W15582  15.635  29.420  12.787
47354W        W15583   7.702  15.363   1.672
47355W        W15584  18.593   9.703   1.738
47356W        W15585  25.016  16.708  13.704
47357W        W15586  27.220  31.286   2.228
47358W        W15587  43.527  33.014  12.924
47359W        W15588   9.152   3.794  14.439
47360W        W15589  25.933  39.162   3.333
47361W        W15590  40.726  17.655  13.560
47362W        W15591   0.188   8.826   4.516
47363W        W15592  14.562  38.676   3.727
47364W        W15593  43.812   7.653   4.365
47365W        W15594  34.979  16.120   3.369
47366W        W15595   5.468  44.381  12.359
47367W        W15596  24.670   8.659  13.971
47368W        W15597  12.249   6.136   2.767
47369W        W15598  28.729  25.125  12.440
47370W        W15599  38.141  28.559   2.668
47371W        W15600   0.351  40.039   1.755
47372W        W15601  24.112  21.196   2.437
47373W        W15602  35.785  38.373   4.053
47374W        W15603  21.636  14.995   4.586
47375W        W15604  41.970   2.332   1.947
47376W        W15605   7.854  24.446  10.820
47377W        W15606  36.751  13.830  13.399
47378W        W15607  26.754  13.416   2.613
47379W        W15608  19.959  38.703  12.060
47380W        W15609  20.687   7.395  13.936
47381W        W15610   4.418  27.116  12.509
47382W        W15611  30.358  10.296   1.984
47383W        W15612  22.175  43.030  14.440
47384W        W15613  43.813  19.279   4.832
47385W        W15614  14.193  21.037   2.813
47386W        W15615  44.725   7.477   0.234
47387W        W15616  35.587  10.180   0.604
47388W        W15617  16.591   8.711   0.800
47389W        W15618  14.301  40.154  13.717
47390W        W15619  35.865  38.849   3.843
47391W        W15620  14.987  20.801   4.530
47392W        W15621  40.079  15.196  11.585
47393W        W15622  15.930  16.085  11.501
47394W        W15623  44.541  15.625  12.706
47395W        W15624  44.608  33.924  13.963
47396W        W15625  31.213  42.241  14.087
47397W        W15626  39.091   8.795  11.169
47398W        W15627  43.261  24.476   4.815
47399W        W15628  30.113   7.638  10.704
47400W        W15629   4.315   1.463   1.698
47401W        W15630   7.686   9.107  12.693
47402W        W15631   7.433  12.730  12.478
47403W        W15632   7.407  30.586   2.256
47404W        W15633  19.571  17.706   4.963
47405W        W15634   6.338  30.766  14.364
47406W        W15635  11.775  30.528  14.798
47407W        W15636  16.887  13.198   2.823
47408W        W15637  43.335   5.655  12.445
47409W        W15638  24.562  16.607   3.082
47410W        W15639  28.701  25.667   4.561
47411W        W15640  27.662  29.944  12.395
47412W        W15641   6.750  18.009  11.546
47413W        W15642   1.231  23.146   0.499
47414W        W15643  36.518  22.079  13.320
47415W        W15644  30.622  38.407   2.070
47416W        W15645   0.052  21.017   2.100
47417W        W15646  23.799   6.888   2.325
47418W        W15647  30.150  17.171   1.663
47419W        W15648  39.468   2.899   2.279
47420W        W15649   0.733  42.502   0.377
47421W        W15650  23.570  25.077  11.233
47422W        W15651   1.771   6.873   1.401
47423W        W15652  13.659  44.388  10.936
47424W        W15653   3.461   5.459   3.877
47425W        W15654  41.811  22.935   2.738
47426W        W15655  14.815  37.656  11.945
47427W        W15656  30.950  43.302   0.054
47428W        W15657  30.116  33.418  11.852
47429W        W15658  13.621  25.408  12.221
47430W        W15659  44.038   8.674   1.688
47431W        W15660  25.585  30.070  13.072
47432W        W15661  35.939  41.738  13.110
47433W        W15662  16.587  39.417  14.738
47434W        W15663   2.547   6.823   1.849
47435W        W15664  27.391   6.729  14.876
47436W        W15665  44.964   8.364   0.293
47437W        W15666   2.968  14.336  14.353
47438W        W15667  35.857  12.177  13.511
47439W        W15668   3.240   1.536  12.069
47440W        W15669   8.689  37.167   3.719
47441W        W15670  33.543  30.346  13.319
47442W        W15671   2.196  36.179  12.136
47443W        W15672  16.489  22.069  13.404
47444W        W15673  13.349  38.242  14.122
47445W        W15674  18.990  16.621   3.058
47446W        W15675  34.070  12.127  11.170
47447W        W15676  17.728  16.555   1.322
47448W        W15677  20.152  40.016   3.227
47449W        W15678  32.902  19.662   4.280
47450W        W15679   1.424   4.348  13.003
47451W        W15680   7.698  20.648  14.851
47452W        W15681  40.872  26.825   0.138
47453W        W15682  27.652   6.349  10.489
47454W        W15683  43.473  29.558  11.125
47455W        W15684   9.650  41.765   0.415
47456W        W15685   0.891  43.054   1.401
47457W        W15686  41.216   8.768   4.997
47458W        W15687  40.796   5.917  13.812
47459W        W15688  20.605  17.967   4.952
47460W        W15689  28.738  42.741   0.039
47461W        W15690  23.941  30.646  14.478
47462W        W15691  30.618  30.412  11.048
47463W        W15692  19.599  43.531  12.022
47464W        W15693  19.858  30.296  12.455
47465W        W15694  14.690  15.822   4.891
47466W        W15695  19.050  40.584   4.676
47467W        W15696   7.886  32.507   1.845
47468W        W15697  29.429  38.638   4.044
47469W        W15698  38.474  37.094   2.051
47470W        W15699   8.340  39.981   2.676
47471W        W15700  10.607   2.857   3.437
47472W        W15701  43.863  23.117   2.215
47473W        W15702  24.958  29.754  12.770
47474W        W15703  41.303   0.897  12.536
47475W        W15704  15.568  22.314  14.445
47476W        W15705   3.717  32.806   0.326
47477W        W15706   7.818  40.057  12.930
47478W        W15707  29.521  31.901   4.223
47479W        W15708  12.232  31.017   3.518
47480W        W15709  35.324  20.287   1.456
47481W        W15710  19.198  32.441   1.254
47482W        W15711  24.645  35.918  12.001
47483W        W15712  10.394  15.510   1.264
47484W        W15713   3.733  42.015  13.569
47485W        W15714  21.042  12.582  13.855
47486W        W15715  42.302  22.680   3.265
47487W        W15716  17.238   1.530  14.280
47488W        W15717  42.234  32.717  13.936
47489W        W15718  34.650  14.801  14.525
47490W        W15719   6.853  41.845   0.391
47491W        W15720  11.179  28.607  11.349
47492W        W15721  34.053  43.504   1.899
47493W        W15722  36.344  31.382  14.620
47494W        W15723  20.192  23.921   4.145
47495W        W15724  36.417  44.671   4.526
47496W        W15725   7.816  28.391   1.737
47497W        W15726  24.364  26.887  13.920
47498W        W15727  13.351   4.491   3.862
47499W        W15728  20.517  31.898   3.718
47500W        W15729  15.881  16.436   4.261
47501W        W15730  43.252   5.658   0.555
47502W        W15731   8.812  33.918   1.888
47503W        W15732  44.760  32.479  10.974
47504W        W15733  30.957  42.272  12.573
47505W        W15734  12.350  12.734   2.686
47506W        W15735  14.299  26.972  12.501
47507W        W15736  43.445  38.331  11.111
47508W        W15737  25.162  36.093   3.906
47509W        W15738  11.333  43.420  11.940
47510W        W15739  30.093  21.460  11.027
47511W        W15740   1.870  38.207   4.628
47512W        W15741  39.022  12.885  14.902
47513W        W15742   7.728  31.382   1.350
47514W        W15743   5.169  31.325   0.870
47515W        W15744  17.386  27.160  11.350
47516W        W15745   9.335  30.403   2.150
47517W        W15746  38.468  44.103   3.765
47518W        W15747  10.338  40.123  13.428
47519W        W15748  15.623  30.387   1.334
47520W        W15749  38.846  42.580  10.997
47521W        W15750  39.646  31.380  11.805
47522W        W15751  24.581   2.797  13.469
47523W        W15752  28.169  44.436  11.435
47524W        W15753  19.660   2.454   1.380
47525W        W15754   8.875  22.484   1.819
47526W        W15755  34.577  15.360   1.788
47527W        W15756  18.596   7.603   0.874
47528W        W15757  22.580  22.247  12.612
47529W        W15758  13.710  21.383   0.792
47530W        W15759  11.312  13.815  12.440
47531W        W15760  15.010  30.558  14.243
47532W        W15761  21.182  20.629  11.363
47533W        W15762  42.067  12.672  14.405
47534W        W15763  38.360  13.201   1.874
47535W        W15764   7.889  42.464  11.515
47536W        W15765  11.288  18.286  11.433
47537W        W15766  30.679  36.810  11.734
47538W        W15767   2.913  44.593  11.177
47539W        W15768   8.271  44.572  11.077
47540W        W15769  36.194   3.525   3.046
47541W        W15770  35.494  17.569   4.857
47542W        W15771  29.660  15.574  13.585
47543W        W15772  21.556   3.452   2.592
47544W        W15773  19.089  21.492  13.326
47545W        W15774   2.382   1.318   4.591
47546W        W15775  32.408  39.995   0.121
47547W        W15776   0.860   4.290   1.062
47548W        W15777   1.928  16.103   2.246
47549W        W15778  41.596  21.318  11.182
47550W        W15779  42.336  16.752   3.937
47551W        W15780  35.904  32.882   2.328
47552W        W15781  42.557   5.238  14.968
47553W        W15782  34.515   1.463  10.681
47554W        W15783   5.126   6.419   4.934
47555W        W15784  36.464   2.201  14.896
47556W        W15785  18.493  33.293   4.471
47557W        W15786  39.782   3.811   4.074
47558W        W15787  16.913  19.210  14.883
47559W        W15788  28.077  11.402   0.854
47560W        W15789   4.713  44.365  14.703
47561W        W15790  26.495   2.782  14.277
47562W        W15791  17.646  31.775  11.139
47563W        W15792  21.590  26.646  12.917
47564W        W15793  36.851  29.574  13.693
47565W        W15794  25.821  12.022   4.432
47566W        W15795  26.664  40.861  13.414
47567W        W15796  36.181   5.720  14.330
47568W        W15797  10.789  34.113  13.614
47569W        W15798  39.816  22.588   0.522
47570W        W15799  33.947  18.398  14.381
47571W        W15800   4.759  19.866  13.595
47572W        W15801  25.041  28.700   2.689
47573W        W15802  29.868  25.198  11.564
47574W        W15803  42.389  39.959   1.522
47575W        W15804  12.606   7.318   3.186
47576W        W15805  42.294  39.551  10.742
47577W        W15806  44.337  35.063   0.538
47578W        W15807  37.286  23.690   2.251
47579W        W15808  38.613  25.646   0.410
47580W        W15809   8.894  15.803  10.583
47581W        W15810  34.443   8.904  14.064
47582W        W15811  34.676  27.346   1.843
47583W        W15812  28.999   9.442   3.867
47584W        W15813  35.704  36.815  11.641
47585W        W15814  30.951  30.087  12.571
47586W        W15815  14.331  40.275  11.525
47587W        W15816  20.729  41.624   3.217
47588W        W15817   2.857  39.406   3.431
47589W        W15818  36.650  23.646   5.153
47590W        W15819  22.577  20.968  14.404
47591W        W15820   7.515  24.447   1.190
47592W        W15821  34.625   2.841   0.705
47593W        W15822  23.434  20.079   2.792
47594W        W15823  38.640  22.452   4.936
47595W        W15824  15.304   0.600  12.013
47596W        W15825  27.167  25.042   3.554
47597W        W15826  20.320  10.111   4.918
47598W        W15827  43.345   1.360  12.975
47599W        W15828   6.288  33.832  14.321
47600W        W15829  33.110  43.334   4.586
47601W        W15830   0.241   6.918   2.368
47602W        W15831  35.215  43.425  11.240
47603W        W15832  41.904  14.196  14.518
47604W        W15833   8.604  39.477   4.876
47605W        W15834  17.566  10.714   4.751
47606W        W15835  25.948  29.366  13.590
47607W        W15836  18.267  14.575   4.122
47608W        W15837  10.668   7.600   2.166
47609W        W15838  41.346  21.908   0.788
47610W        W15839  41.378  44.016   3.159
47611W        W15840  23.983  13.508   3.546
47612W        W15841  29.458  21.055  11.667
47613W        W15842  37.068  22.045  10.684
47614W        W15843  10.124  35.117   4.161
47615W        W15844  44.340   9.244   5.000
47616W        W15845   4.766  24.471  11.954
47617W        W15846  35.178  16.109   3.874
47618W        W15847   6.819  35.105  13.536
47619W        W15848  16.227  17.669   3.454
47620W        W15849  13.254  38.539  12.467
47621W        W15850  31.428  27.213   0.958
47622W        W15851  12.298  17.228   4.099
47623W        W15852  11.256   2.279  10.624
47624W        W15853  17.228  21.757   4.635
47625W        W15854  13.523  37.955   3.253
47626W        W15855  14.546  19.996  11.488
47627W        W15856  30.540  15.738   2.364
47628W        W15857  14.108  27.372  11.656
47629W        W15858  34.666  31.498  11.898
47630W        W15859   2.191  26.466  13.837
47631W        W15860  41.056  26.286   1.793
47632W        W15861  23.075   9.869  13.577
47633W        W15862  23.513  18.218   1.424
47634W        W15863  32.957  32.299  12.029
47635W        W15864  30.491  13.789   4.637
47636W        W15865   2.102  41.732  11.992
47637W        W15866  44.966  16.062  10.561
47638W        W15867  25.694  13.823   4.773
47639W        W15868  21.243  26.334  14.886
47640W        W15869  21.157  17.317  12.341
47641W        W15870  24.009   7.706  11.950
47642W        W15871  10.214  25.556   3.250
47643W        W15872  39.526  14.752  13.459
47644W        W15873  30.884  40.439   1.650
47645W        W15874  33.083   0.007  11.115
47646W        W15875  31.651  31.348   3.358
47647W        W15876  21.610   7.100   3.176
47648W        W15877  29.691   5.007   4.638
47649W        W15878  15.614  37.657   1.659
47650W        W15879  26.943  26.668   2.355
47651W        W15880  40.769  15.803  14.008
47652W        W15881  10.623   7.621   1.516
47653W        W15882  42.336  41.673  13.568
47654W        W15883   3.689  41.014   0.809
47655W        W15884  20.393   7.553   4.061
47656W        W15885  26.333  31.715   4.990
47657W        W15886  11.118  35.581   4.252
47658W        W15887  21.033  34.080   4.998
47659W        W15888   2.236  33.776   1.982
47660W        W15889  43.467  19.515  14.462
47661W        W15890  24.089  40.986   0.774
47662W        W15891  14.134  29.212  12.066
47663W        W15892   6.234   3.650   1.461
47664W        W15893  29.524   7.169  11.117
47665W        W15894  36.182  21.633  12.538
47666W        W15895  44.709   4.057  11.101
47667W        W15896  18.212  16.596  11.926
47668W        W15897  43.270  44.748  14.011
47669W        W15898   0.477   5.605  14.795
47670W        W15899   4.325  11.395   0.396
47671W        W15900  27.909  38.059  14.376
47672W        W15901  19.211  31.663   3.091
47673W        W15902  40.405  16.408  10.667
47674W        W15903   2.188  26.720   4.831
47675W        W15904   3.687  19.636  13.830
47676W        W15905   5.620  18.226  13.355
47677W        W15906  19.697  40.551  11.813
47678W        W15907  23.449  40.986   0.867
47679W        W15908  20.006  40.088  10.811
47680W        W15909  19.633  11.783  12.985
47681W        W15910   8.003  36.031  12.064
47682W        W15911  32.491  26.523  11.106
47683W        W15912  16.239  42.786   0.314
47684W        W15913   6.925  36.262  12.969
47685W        W15914  22.954  13.160   1.804
47686W        W15915  23.928  26.730   2.173
47687W        W15916   3.625  41.331  12.828
47688W        W15917  10.770  18.644   1.266
47689W        W15918  27.950  43.773  14.964
47690W        W15919  21.675   4.231  10.664
47691W        W15920   5.964  38.122  14.900
47692W        W15921   7.788  15.188   0.786
47693W        W15922  12.907  37.416   1.196
47694W        W15923  14.523  34.322  11.152
47695W        W15924  36.406  14.263   0.420
47696W        W15925  21.220  32.889   2.724
47697W        W15926  24.381  38.208  12.026
47698W        W15927   9.072  24.270  13.812
47699W        W15928  27.375  18.953  12.984
47700W        W15929  30.214  40.915   4.484
47701W        W15930  11.614  15.667  11.055
47702W        W15931  16.536   7.218   4.445
47703W        W15932  15.363  15.831  12.063
47704W        W15933  10.868  40.853  14.488
47705W        W15934   3.557  43.346  10.911
47706W        W15935  32.133  42.819  12.980
47707W        W15936  42.328  25.464   0.803
47708W        W15937   3.659  28.245  12.476
47709W        W15938  23.547  18.933  11.984
47710W        W15939  44.455  19.480  13.524
47711W        W15940  37.135  31.700  10.378
47712W        W15941  27.719  12.874  13.994
47713W        W15942  10.801   6.143   1.795
47714W        W15943  28.062   3.399  12.374
47715W        W15944  29.614   7.356   2.749
47716W        W15945  17.703   5.444  14.790
47717W        W15946  38.012  24.090   4.168
47718W        W15947  36.978  30.444   3.216
47719W        W15948   3.264  18.495  12.522
47720W        W15949  22.686  27.721   2.248
47721W        W15950  38.437  39.166  10.559
47722W        W15951  14.077  10.065  14.377
47723W        W15952  34.409  33.842  12.201
47724W        W15953  41.365  34.495  12.991
47725W        W15954  20.000  29.443   3.844
47726W        W15955  17.337  35.906  12.350
47727W        W15956  20.572  15.782  13.824
47728W        W15957   7.787  30.326   2.033
47729W        W15958  43.837   1.159  12.968
47730W        W15959  18.052  39.473   1.654
47731W        W15960  10.363  25.747  10.745
47732W        W15961  39.756  37.705   4.162
47733W        W15962  17.344   7.306   2.376
47734W        W15963  11.917  30.474   4.182
47735W        W15964  42.840  16.170  11.511
47736W        W15965  34.444  28.155   3.095
47737W        W15966  39.742  31.337   1.398
47738W        W15967  22.246  26.453  13.963
47739W        W15968  19.777  12.642  13.295
47740W        W15969  10.136  36.232   5.039
47741W        W15970   6.708  40.116   0.537
47742W        W15971   0.550  35.728  12.702
47743W        W15972  43.955   5.236   0.411
47744W        W15973   6.361   0.446  13.914
47745W        W15974  41.001  20.981  12.127
47746W        W15975   7.005  16.314   2.976
47747W        W15976  31.533  40.697   2.126
47748W        W15977  10.094  43.956  13.732
47749W        W15978  27.528  19.465  11.967
47750W        W15979  11.664   3.610   4.941
47751W        W15980  30.656  35.518  11.228
47752W        W15981   9.106  43.544  12.942
47753W        W15982  27.474  41.430   1.611
47754W        W15983  27.157  35.491   1.890
47755W        W15984  30.419  11.832   3.602
47756W        W15985  18.283   5.298   2.217
47757W        W15986  29.137  15.790  10.465
47758W        W15987  25.214   3.865   3.289
47759W        W15988  12.160  44.456  12.288
47760W        W15989  16.871  22.496  12.425
47761W        W15990  18.046  19.427   2.085
47762W        W15991  42.442  24.537   4.206
47763W        W15992  15.091  38.529   0.570
47764W        W15993  22.618  21.618   4.722
47765W        W15994  40.804  19.953  11.193
47766W        W15995   3.713  11.351   0.931
47767W        W15996  29.023  25.198   0.731
47768W        W15997  43.905  41.541   4.129
47769W        W15998  44.941  24.748  11.401
47770W        W15999  36.400  15.530   3.667
47771W        W16000  24.571  19.842   3.112
47772W        W16001  32.112  29.032  10.736
47773W        W16002   7.080  39.102   1.290
47774W        W16003  15.946  29.206  11.010
47775W        W16004  43.489  41.376  11.085
47776W        W16005   3.333  16.354   0.100
47777W        W16006  42.800  23.471  12.080
47778W        W16007  27.175  31.248   3.513
47779W        W16008  28.138  37.958   1.655
47780W        W16009  24.659  24.980   3.918
47781W        W16010  27.524  19.393   0.924
47782W        W16011  39.436  35.830  13.479
47783W        W16012  13.445  22.616  10.172
47784W        W16013  42.882   4.397  10.342
47785W        W16014  17.569  39.529  11.361
47786W        W16015  44.468  15.295  13.072
47787W        W16016  18.977  42.390   3.215
47788W        W16017   1.857  18.104  10.588
47789W        W16018  25.305  33.255   1.647
47790W        W16019  28.585  41.758   0.004
47791W        W16020   8.210  11.645   2.204
47792W        W16021  22.609  17.630  13.988
47793W        W16022   8.381  12.405   0.205
47794W        W16023  12.272  40.948  14.078
47795W        W16024   5.184  12.747  13.402
47796W        W16025   9.133  26.546  13.794
47797W        W16026  37.368  22.301  14.248
47798W        W16027  16.091  20.548  12.132
47799W        W16028   4.969  14.378   5.117
47800W        W16029  16.800  42.010   4.419
47801W        W16030  20.114  38.404  11.227
47802W        W16031  44.754   6.321   0.741
47803W        W16032  44.270  16.564   2.267
47804W        W16033   8.079  31.530  11.155
47805W        W16034  37.779  27.954  11.412
47806W        W16035  29.951  34.637  13.824
47807W        W16036  10.347  11.323  13.884
47808W        W16037  31.438  35.349  12.426
47809W        W16038  43.421  16.781   4.803
47810W        W16039  12.945  16.183   3.679
47811W        W16040   9.436  30.397  13.000
47812W        W16041  38.467  39.211  11.926
47813W        W16042  11.925  34.415   0.568
47814W        W16043  11.264  12.036   2.361
47815W        W16044   4.329   3.033   0.768
47816W        W16045   2.944  19.551  12.903
47817W        W16046   8.787   1.174  11.367
47818W        W16047   1.931   4.921   5.227
47819W        W16048  31.484  36.067   4.079
47820W        W16049   0.416  11.411   1.455
47821W        W16050  22.626  40.509  13.668
47822W        W16051  34.921   2.206  10.651
47823W        W16052   5.407  40.496  14.451
47824W        W16053  15.082  40.339  14.497
47825W        W16054  21.135  25.430  10.139
47826W        W16055   4.753  26.266  11.010
47827W        W16056  32.400  39.802   3.735
47828W        W16057  22.210   9.339  10.712
47829W        W16058  31.096  18.753  13.397
47830W        W16059  29.587   1.747   1.411
47831W        W16060  43.517  39.287  13.666
47832W        W16061  44.988   8.471  13.518
47833W        W16062  29.618  10.639  11.345
47834W        W16063   2.499  17.119   0.876
47835W        W16064  22.684  10.204   2.196
47836W        W16065  29.087  40.697  11.711
47837W        W16066  13.245  41.571  13.042
47838W        W16067   5.725   2.892  13.414
47839W        W16068  41.891  41.057   4.899
47840W        W16069  13.714  14.771   3.166
47841W        W16070  19.854   4.506   0.792
47842W        W16071  36.625  30.075   2.914
47843W        W16072  14.630   8.375   0.466
47844W        W16073   9.774   9.617  13.476
47845W        W16074  24.326   0.143  11.104
47846W        W16075  15.530  22.529  13.356
47847W        W16076  25.221  38.257  10.614
47848W        W16077  29.373   2.397   1.628
47849W        W16078  38.339  40.940  12.093
47850W        W16079  26.525  41.050  11.448
47851W        W16080  43.750  11.957   2.411
47852W        W16081  21.672  42.692   4.630
47853W        W16082  43.102  13.626   2.615
47854W        W16083  27.155  15.042  13.470
47855W        W16084  26.672  10.380  10.728
47856W        W16085   4.618  22.006  12.823
47857W        W16086  40.960  26.699  10.661
47858W        W16087   0.539  33.538   2.794
47859W        W16088  36.766  19.675   1.383
47860W        W16089  22.019   5.708  13.091
47861W        W16090  19.118   1.066   2.447
47862W        W16091  10.605   3.015  12.944
47863W        W16092  10.962  40.092  11.604
47864W        W16093  38.638  28.706  13.575
47865W        W16094  18.166  22.190   1.290
47866W        W16095   8.634  35.580   0.680
47867W        W16096  25.674   2.442   0.314
47868W        W16097  18.242  39.773  14.551
47869W        W16098  16.673  37.386   4.804
47870W        W16099  38.560  44.831   2.434
47871W        W16100  40.073  14.140   2.301
47872W        W16101  34.817   4.160  13.764
47873W        W16102   3.685  41.808  14.030
47874W        W16103   4.357  31.963  13.340
47875W        W16104  25.672  11.901   1.335
47876W        W16105  17.715  27.392  12.913
47877W        W16106  12.573  15.130  10.230
47878W        W16107  22.742   2.878  11.397
47879W        W16108   7.257  23.273  13.983
47880W        W16109  13.322  38.159   1.407
47881W        W16110  37.844  15.802   0.278
47882W        W16111   0.207  44.343   3.728
47883W        W16112  19.570   0.005   4.524
47884W        W16113  34.389   6.912  12.853
47885W        W16114  37.334  17.221  13.422
47886W        W16115  38.164   9.293  11.983
47887W        W16116  27.335  25.078  13.709
47888W        W16117   1.687   2.644   1.446
47889W        W16118  15.756  31.706  10.726
47890W        W16119  43.921   8.055   4.778
47891W        W16120  42.184  22.580  11.068
47892W        W16121  28.375  10.770  13.510
47893W        W16122  36.088  26.650   1.222
47894W        W16123  23.777  41.891   1.698
47895W        W16124   6.386  33.450  11.869
47896W        W16125  23.594  20.026  14.354
47897W        W16126  10.702  23.284  13.366
47898W        W16127  29.163  12.560  11.533
47899W        W16128  37.058  31.644  13.377
47900W        W16129  14.796  29.805   4.880
47901W        W16130  11.446  11.334  12.969
47902W        W16131  23.763   8.199   4.189
47903W        W16132  19.841   7.392  10.342
47904W        W16133   0.889  32.875  13.539
47905W        W16134  41.010  35.909  13.817
47906W        W16135  11.234  40.616   2.601
47907W        W16136   4.038  44.384  12.153
47908W        W16137  31.437  28.484  12.959
47909W        W16138  20.151   2.672  13.359
47910W        W16139   4.470  17.844  14.022
47911W        W16140  34.406   4.193   1.189
47912W        W16141   9.369  37.539  11.272
47913W        W16142  44.779  13.687   4.633
47914W        W16143   7.468   7.475  12.863
47915W        W16144  36.497  21.505   4.526
47916W        W16145  35.422  12.246   2.899
47917W        W16146  41.412  20.454  13.890
47918W        W16147   3.375   8.799   4.112
47919W        W16148  13.546  10.901   0.348
47920W        W16149  14.241  11.651  12.556
47921W        W16150  34.470  20.734   4.652
47922W        W16151  39.498   7.512   2.216
47923W        W16152  30.460  14.425  12.105
47924W        W16153  39.826  33.244   3.379
47925W        W16154  16.010  11.867  10.751
47926W        W16155  13.710   8.695  14.018
47927W        W16156  33.895  21.639   4.401
47928W        W16157  43.609  34.638  14.536
47929W        W16158  35.258  33.602  12.454
47930W        W16159  38.521  30.333   4.355
47931W        W16160  12.731  32.015  13.106
47932W        W16161  29.568  37.900  14.938
47933W        W16162  25.880  31.512   0.836
47934W        W16163  22.521   6.416  12.907
47935W        W16164  44.769   5.173   2.969
47936W        W16165  39.897  43.930  13.293
47937W        W16166  24.513  43.368   4.040
47938W        W16167  21.822  25.145  11.568
47939W        W16168  34.067  19.750  10.837
47940W        W16169   3.324  28.333   1.826
47941W        W16170   3.285   5.407   2.985
47942W        W16171  10.797  26.718   4.108
47943W        W16172  32.274  18.661  14.792
47944W        W16173   3.456   2.325   0.155
47945W        W16174  28.402  35.560  12.005
47946W        W16175  36.557  29.671  14.497
47947W        W16176  42.847  40.841  12.505
47948W        W16177  25.716   4.095   3.272
47949W        W16178  16.469  38.229   3.157
47950W        W16179   3.837  31.535   4.345
47951W        W16180  34.978  10.268   4.197
47952W        W16181  41.768   1.170  12.529
47953W        W16182   1.761  32.624   3.196
47954W        W16183  36.278  13.141  10.781
47955W        W16184  40.796  40.719   4.257
47956W        W16185  44.252  22.471   2.131
47957W        W16186  26.997  39.307   2.408
47958W        W16187  36.009  42.135  12.228
47959W        W16188   5.901   5.865   2.631
47960W        W16189   4.507  34.854  11.191
47961W        W16190  37.884  25.061   5.070
47962W        W16191  43.894  30.362  12.495
47963W        W16192  43.881  13.728   3.224
47964W        W16193  26.150  24.089  11.210
47965W        W16194  43.658  36.979  10.639
47966W        W16195   5.259   3.861   1.202
47967W        W16196   5.629  23.753   1.909
47968W        W16197   6.826  36.609   0.817
47969W        W16198  43.232  13.747  11.515
47970W        W16199  39.812  27.242  12.889
47971W        W16200  15.204  20.628  11.618
47972W        W16201  39.705   7.393  13.108
47973W        W16202  35.242  33.633   4.911
47974W        W16203  13.450  16.659  12.361
47975W        W16204  24.710   2.006  14.481
47976W        W16205  21.992   1.905  12.879
47977W        W16206   6.030   8.827   1.031
47978W        W16207  12.952  14.263   1.952
47979W        W16208   8.278  38.842   0.319
47980W        W16209   6.636  15.041   0.156
47981W        W16210  24.768  28.272   2.573
47982W        W16211  21.301  36.449   1.634
47983W        W16212   3.873  30.028   1.777
47984W        W16213  25.189  34.154  13.418
47985W        W16214  21.967  22.993  13.574
47986W        W16215   7.704  29.973  14.065
47987W        W16216  35.485  29.618   3.178
47988W        W16217  41.877   8.297  13.579
47989W        W16218   9.746  11.528   0.341
47990W        W16219  40.645   5.993  10.346
47991W        W16220  10.345  16.789  12.388
47992W        W16221  44.278  13.666  10.711
47993W        W16222   7.437   8.815   2.823
47994W        W16223  20.137   2.360   4.352
47995W        W16224   8.853  19.574  13.493
47996W        W16225  29.054  43.361   0.817
47997W        W16226  14.364  22.488   4.567
47998W        W16227  33.561  20.175  13.791
47999W        W16228  30.311   6.753  10.464
48000W        W16229  41.528   3.477   3.148
48001W        W16230  22.576  44.200   5.075
48002W        W16231  31.873  31.891   3.762
48003W        W16232  14.032  34.507  11.068
48004W        W16233   3.284  27.072   4.135
48005W        W16234  20.556  12.849  12.140
48006W        W16235  32.522  25.100   0.911
48007W        W16236   7.807  25.517   1.827
48008W        W16237  31.034  37.177   4.678
48009W        W16238   1.766  20.728   4.727
48010W        W16239  34.055  33.739   0.953
48011W        W16240  38.244   5.374   0.272
48012W        W16241  43.757  17.585   3.752
48013W        W16242   5.523  34.835  12.612
48014W        W16243  13.569  40.987  14.328
48015W        W16244  20.371  12.383  14.995
48016W        W16245   2.224  32.846  13.780
48017W        W16246   7.682  17.085  11.245
48018W        W16247  22.345  30.847   4.901
48019W        W16248   0.665   5.966  10.658
48020W        W16249  17.611  44.887  14.119
48021W        W16250  30.952  33.038  14.390
48022W        W16251   5.715  22.489   1.273
48023W        W16252  37.765  24.543  10.670
48024W        W16253  14.724  10.584  11.578
48025W        W16254  33.002   5.928  10.839
48026W        W16255   9.281  33.166   1.875
48027W        W16256  44.466  19.975   4.261
48028W        W16257   8.189  14.587   3.419
48029W        W16258  28.050  18.129  12.998
48030W        W16259  20.996  26.008   0.233
48031W        W16260   2.406   4.712   3.314
48032W        W16261  19.090  16.068  11.820
48033W        W16262   4.738  18.057  12.901
48034W        W16263  15.680  39.639   2.310
48035W        W16264  43.799  30.046   3.137
48036W        W16265  27.935   7.914   0.161
48037W        W16266  13.747  32.879   3.745
48038W        W16267  28.497  29.048   2.915
48039W        W16268  15.951  43.933  14.233
48040W        W16269  20.166  39.135   2.863
48041W        W16270  28.695  27.092   3.374
48042W        W16271  40.737  30.526  11.525
48043W        W16272  35.897  16.560  10.913
48044W        W16273  21.662  30.881   0.741
48045W        W16274  43.627  21.152  13.441
48046W        W16275  42.094  35.510  14.496
48047W        W16276  27.695  39.145  13.245
48048W        W16277   6.272  42.325  10.966
48049W        W16278  23.037  15.270   4.396
48050W        W16279  21.668  24.457   1.966
48051W        W16280  16.855  15.792  13.122
48052W        W16281  26.673   9.621   4.215
48053W        W16282  37.957  27.692   0.873
48054W        W16283  20.410   8.598   3.670
48055W        W16284   8.766  20.843   0.456
48056W        W16285  21.174  20.495  13.202
48057W        W16286  27.423   5.837  12.041
48058W        W16287  17.234   2.731  11.642
48059W        W16288  27.970   6.808  10.501
48060W        W16289   2.120  25.677   0.164
48061W        W16290  40.474  19.216  11.877
48062W        W16291  34.889  31.680  10.717
48063W        W16292  32.457  30.591  13.907
48064W        W16293  26.563  20.526   1.457
48065W        W16294  10.794  31.037  13.381
48066W        W16295  17.955  36.863   0.401
48067W        W16296   2.354  35.595   0.366
48068W        W16297  34.020  30.108  14.506
48069W        W16298  37.364  34.209   1.782
48070W        W16299  36.771   9.414   4.262
48071W        W16300  29.627   1.900   4.734
48072W        W16301   9.500  29.497  11.551
48073W        W16302  25.908  42.624   0.031
48074W        W16303   4.363  13.654  13.111
48075W        W16304  26.702  36.877  10.652
48076W        W16305   3.395  39.333   3.050
48077W        W16306  10.191  44.256  11.535
48078W        W16307   1.415   0.920  10.705
48079W        W16308  40.978  44.502   1.179
48080W        W16309  13.906  16.749   3.287
48081W        W16310  24.972  23.661   4.054
48082W        W16311  36.883  20.033  14.199
48083W        W16312   3.893  27.168  14.948
48084W        W16313  11.158  34.749  13.894
48085W        W16314  38.009  19.792   0.360
48086W        W16315   9.183  21.589  12.643
48087W        W16316  38.516  44.632   0.893
48088W        W16317  33.645  38.851  14.538
48089W        W16318  38.823  11.294  14.912
48090W        W16319  39.533  19.525  13.603
48091W        W16320  39.294  38.018  13.814
48092W        W16321  39.396  12.426   1.566
48093W        W16322  12.824  35.716  13.957
48094W        W16323  30.729   3.402  12.297
48095W        W16324  27.088  29.812   9.826
48096W        W16325  43.421  35.381   0.914
48097W        W16326  35.754  16.181  12.081
48098W        W16327  13.834   3.748   3.774
48099W        W16328  28.840  32.094   3.099
48100W        W16329  22.927   7.832   2.241
48101W        W16330  18.991  33.781  11.584
48102W        W16331  15.692  27.168  10.742
48103W        W16332   3.421  31.194   0.826
48104W        W16333  32.481  40.297  13.551
48105W        W16334  31.592  22.552  13.816
48106W        W16335  24.539  21.840   2.237
48107W        W16336  19.357  14.737   4.197
48108W        W16337  13.774  23.775   1.758
48109W        W16338   0.203   4.375  11.583
48110W        W16339  36.285  36.038   4.297
48111W        W16340  14.241  10.903   1.905
48112W        W16341  23.740  13.542   2.899
48113W        W16342  32.002  27.601  10.538
48114W        W16343  41.817  40.894  13.468
48115W        W16344  17.831  35.860  11.017
48116W        W16345   7.944   7.691  12.030
48117W        W16346  27.075  30.912  13.946
48118W        W16347   5.651   1.803  14.400
48119W        W16348  43.291  21.226   0.320
48120W        W16349  19.512   8.211   1.318
48121W        W16350  21.929  42.990  11.603
48122W        W16351  24.507  11.332   4.644
48123W        W16352  26.461  20.696  10.230
48124W        W16353  15.565  40.615  11.133
48125W        W16354   5.978  44.978  12.048
48126W        W16355   6.382  20.694  14.515
48127W        W16356  19.079   5.667  11.692
48128W        W16357  30.275  17.878  10.591
48129W        W16358  19.864  25.873   2.311
48130W        W16359  32.113  31.149   3.232
48131W        W16360  28.894  32.198   1.717
48132W        W16361  37.813   7.909   2.640
48133W        W16362  30.619  13.249  14.234
48134W        W16363   3.711  43.917   0.790
48135W        W16364  23.653  44.578   4.155
48136W        W16365   1.126  24.991   0.782
48137W        W16366  44.292  36.048   3.763
48138W        W16367  13.567  44.319  10.410
48139W        W16368  35.154  15.707   4.250
48140W        W16369  21.671   9.376  12.079
48141W        W16370  18.335  38.576  12.678
48142W        W16371  13.755   5.753   3.286
48143W        W16372  21.224  42.792   1.249
48144W        W16373  24.766  20.613   2.696
48145W        W16374  23.076  29.263   4.113
48146W        W16375   0.054  40.381  12.423
48147W        W16376  37.916  40.331  14.440
48148W        W16377  36.046  26.605  10.907
48149W        W16378  43.585  33.903   2.432
48150W        W16379  20.147  10.379  11.966
48151W        W16380  40.342  30.182  11.411
48152W        W16381  19.231   8.853  13.400
48153W        W16382  25.658  40.447   4.919
48154W        W16383  15.030   5.423  12.439
48155W        W16384  28.009   0.984   2.262
48156W        W16385  34.818  21.677   0.314
48157W        W16386   1.956   5.264  13.597
48158W        W16387   2.270  10.356  13.276
48159W        W16388  12.238  31.016  12.969
48160W        W16389  19.516  31.413   1.025
48161W        W16390  44.705  42.264  10.978
48162W        W16391   1.962  29.808  13.847
48163W        W16392   6.329  26.245  11.040
48164W        W16393  19.997   5.357   1.222
48165W        W16394   3.683  25.944   2.859
48166W        W16395   4.285  19.968  12.043
48167W        W16396   9.328  22.025  14.467
48168W        W16397   1.265  13.123   3.291
48169W        W16398   9.589  42.595   0.862
48170W        W16399  15.249   2.452   3.676
48171W        W16400  35.592  24.026   2.431
48172W        W16401  16.151   7.444   4.078
48173W        W16402  41.796  27.818  10.712
48174W        W16403  25.494  37.521   4.569
48175W        W16404  44.412  20.356   0.390
48176W        W16405  27.430  22.665  13.571
48177W        W16406  10.855  43.500  13.819
48178W        W16407  41.275  40.021  12.447
48179W        W16408  43.546   2.607   4.017
48180W        W16409  34.457  29.632  13.997
48181W        W16410  28.458  28.707  11.785
48182W        W16411  20.567  18.717  12.349
48183W        W16412  11.252  23.722  12.032
48184W        W16413  16.179  35.062  14.977
48185W        W16414  33.585  40.435  13.844
48186W        W16415  13.644  41.755   4.085
48187W        W16416  35.451   8.804   1.005
48188W        W16417  38.127  25.693   0.632
48189W        W16418  10.446  33.081   4.770
48190W        W16419  29.892  41.781  14.428
48191W        W16420  36.580  41.871   2.236
48192W        W16421  21.870  13.480  13.118
48193W        W16422  14.352  33.696  13.611
48194W        W16423  40.367  24.949  12.916
48195W        W16424  31.433  40.855  11.225
48196W        W16425  32.458  16.094  12.594
48197W        W16426   1.705  43.297   2.950
48198W        W16427  33.250  32.891   1.807
48199W        W16428  26.924  10.785   3.165
48200W        W16429  28.789  27.927  14.443
48201W        W16430  28.143  36.869   2.157
48202W        W16431  35.447  11.575   4.174
48203W        W16432  13.869  14.044   3.710
48204W        W16433   0.353  35.406   4.123
48205W        W16434  12.299   0.448  12.780
48206W        W16435  44.480  41.324  13.479
48207W        W16436  14.872  44.360   1.832
48208W        W16437  44.914  24.532   3.472
48209W        W16438  37.551  10.439   1.825
48210W        W16439  38.519   4.501  10.903
48211W        W16440   8.175  37.947  12.360
48212W        W16441  44.714  36.916  14.026
48213W        W16442   9.457   2.902  10.647
48214W        W16443  27.865  10.862  13.534
48215W        W16444  44.227  23.271   4.586
48216W        W16445  38.618  39.367  13.745
48217W        W16446  39.539  18.557  14.741
48218W        W16447  30.078  37.832  14.991
48219W        W16448  41.527  17.103   0.883
48220W        W16449  41.443  12.914   0.730
48221W        W16450   5.649  12.525  13.283
48222W        W16451  24.218  39.523   0.371
48223W        W16452  20.628   2.074   5.007
48224W        W16453  28.775  38.443  10.840
48225W        W16454  23.284   6.891   2.380
48226W        W16455  16.911  35.049  12.092
48227W        W16456  36.379  36.158   1.955
48228W        W16457  43.867  38.890   4.613
48229W        W16458  29.656  40.573  10.717
48230W        W16459  37.451  15.568  14.357
48231W        W16460   0.411  33.159  10.812
48232W        W16461  44.363  10.401   1.238
48233W        W16462  20.797  27.873   3.205
48234W        W16463   2.812  15.301   4.889
48235W        W16464  15.731  12.179   3.210
48236W        W16465  25.135  11.814  10.631
48237W        W16466   9.802  26.217  12.112
48238W        W16467  11.676  37.834   3.664
48239W        W16468  30.393  32.997  14.502
48240W        W16469  11.205  25.536   0.279
48241W        W16470  19.068  13.662   0.849
48242W        W16471  13.027  11.218   2.264
48243W        W16472  30.563  14.872  13.448
48244W        W16473  19.387  10.881   4.096
48245W        W16474   1.871  33.510  10.654
48246W        W16475  39.934  10.472   4.879
48247W        W16476  36.163   0.409  13.931
48248W        W16477  40.026  43.958  11.415
48249W        W16478  35.662  15.214   0.889
48250W        W16479   2.199   2.920  12.936
48251W        W16480  43.854  37.850  11.130
48252W        W16481  36.398   9.306  12.388
48253W        W16482  14.878   5.203   1.333
48254W        W16483  36.686  19.059  13.875
48255W        W16484  39.773  27.367   1.250
48256W        W16485  33.498  38.381   4.647
48257W        W16486   7.235  31.355  14.748
48258W        W16487   2.379  10.627  10.969
48259W        W16488  33.038   8.235  10.726
48260W        W16489  11.774   8.412   0.319
48261W        W16490  23.822   5.758  14.888
48262W        W16491   4.426  41.353   4.577
48263W        W16492   6.877  43.526  11.739
48264W        W16493   5.425   0.545   2.370
48265W        W16494  39.906   0.259  13.645
48266W        W16495  25.066  28.432   0.512
48267W        W16496   5.794  36.072   1.740
48268W        W16497  12.118  16.316  14.359
48269W        W16498  19.413  10.890   0.525
48270W        W16499  36.348   4.254   2.191
48271W        W16500  17.176  30.512   0.885
48272W        W16501   6.755  30.528  11.595
48273W        W16502  20.531  12.387   0.482
48274W        W16503  23.886  40.566  14.706
48275W        W16504   3.355  37.600  12.050
48276W        W16505  44.943  26.499   1.371
48277W        W16506  43.995  14.269  11.469
48278W        W16507  25.597  21.907   3.186
48279W        W16508  27.549  17.050  11.972
48280W        W16509  32.101  37.303   2.198
48281W        W16510  38.024   1.847   0.525
48282W        W16511  18.536  18.714  13.597
48283W        W16512  28.988  24.689   0.816
48284W        W16513  29.164  44.217   0.926
48285W        W16514  25.808  37.109   4.257
48286W        W16515  30.404   2.211   1.703
48287W        W16516  25.491  20.973  11.637
48288W        W16517  23.509  29.442   4.656
48289W        W16518  34.654  41.561   2.812
48290W        W16519  39.725   4.645  12.502
48291W        W16520  19.100  16.621  11.749
48292W        W16521   2.745  23.684   0.103
48293W        W16522  15.973   7.366   1.654
48294W        W16523   6.380  14.778  14.785
48295W        W16524  13.088  28.712  12.446
48296W        W16525  43.324  14.742   4.534
48297W        W16526   3.292  26.536   2.390
48298W        W16527  40.010  10.256  12.856
48299W        W16528  23.662  41.731  11.098
48300W        W16529  19.663  31.472   2.920
48301W        W16530   7.295  18.434   3.613
48302W        W16531  39.886  41.894   0.456
48303W        W16532  20.068  44.297  14.022
48304W        W16533  35.602   0.845   0.886
48305W        W16534  34.105  21.558   2.690
48306W        W16535  43.568  29.756   1.635
48307W        W16536  21.454  34.764  10.165
48308W        W16537  32.702  44.225   2.839
48309W        W16538  37.456  39.532  14.240
48310W        W16539  43.629  14.868   3.148
48311W        W16540   8.658  11.152   4.939
48312W        W16541  27.346  13.841  13.859
48313W        W16542  43.961  10.900  10.951
48314W        W16543  12.008  41.577   2.422
48315W        W16544  19.689  13.192   1.908
48316W        W16545   8.776   1.618  12.085
48317W        W16546  18.197   8.517   0.742
48318W        W16547   7.488   0.986  14.213
48319W        W16548  16.116  33.328  10.193
48320W        W16549   2.618   1.875   0.084
48321W        W16550  20.534  32.024  10.343
48322W        W16551  41.019  27.405  14.297
48323W        W16552  37.030  25.957   4.569
48324W        W16553  27.751  22.216   3.706
48325W        W16554  33.997  17.616   4.056
48326W        W16555  24.517  14.488  13.283
48327W        W16556   6.571  34.996  14.013
48328W        W16557  31.500  38.879   3.188
48329W        W16558  19.312  26.073  12.054
48330W        W16559  18.713  34.500   1.276
48331W        W16560  14.123  44.967   1.453
48332W        W16561  40.401  38.458  14.212
48333W        W16562  12.642  41.866   3.858
48334W        W16563  29.392  43.766   0.780
48335W        W16564   6.811  18.597  14.697
48336W        W16565  31.008   7.270   4.047
48337W        W16566  38.010  39.114  12.908
48338W        W16567  41.341  11.422   1.684
48339W        W16568  20.528  33.516   1.242
48340W        W16569   9.706  19.547   4.611
48341W        W16570  29.724  24.829  12.525
48342W        W16571   0.496   3.767  14.906
48343W        W16572   1.421  10.092  13.530
48344W        W16573  38.299  16.609  11.679
48345W        W16574  35.782  12.631  14.797
48346W        W16575   8.696  24.451   2.601
48347W        W16576   5.799  30.033  13.835
48348W        W16577   8.792  19.199   4.278
48349W        W16578  17.610   4.809  14.023
48350W        W16579  23.075   2.922  14.616
48351W        W16580  11.968  38.053   4.541
48352W        W16581   2.647  37.969   3.292
48353W        W16582  34.687   1.893   0.320
48354W        W16583  34.174  29.101   2.287
48355W        W16584   8.291  17.241   2.779
48356W        W16585  24.033  10.944  13.250
48357W        W16586  22.064  15.235  12.474
48358W        W16587  21.502  13.096   3.606
48359W        W16588   0.699  30.563  12.312
48360W        W16589   0.844  22.437  11.659
48361W        W16590  43.234  40.801  11.191
48362W        W16591   1.198  22.119   1.640
48363W        W16592   6.662  31.365  13.995
48364W        W16593  15.384  36.977  12.010
48365W        W16594  33.121  44.299   5.027
48366W        W16595   1.375   2.613   4.576
48367W        W16596  42.480   6.991   0.355
48368W        W16597  43.397  12.099   1.282
48369W        W16598  35.751  26.479   5.014
48370W        W16599  17.141  23.721  11.951
48371W        W16600  19.530  22.741  12.916
48372W        W16601  15.554  19.424  12.022
48373W        W16602  16.611  21.549  11.529
48374W        W16603  24.638  19.282  12.909
48375W        W16604  17.177  43.934  10.728
48376W        W16605  12.073  40.108  13.951
48377W        W16606  26.477  43.845  12.938
48378W        W16607  20.946   4.770  12.747
48379W        W16608  28.255   4.960   3.822
48380W        W16609  11.003  30.962  14.941
48381W        W16610   1.230   6.810   1.426
48382W        W16611   5.256  25.941   4.230
48383W        W16612  27.696  29.096   1.000
48384W        W16613  38.152   8.317   0.258
48385W        W16614  26.504  43.052  13.245
48386W        W16615  29.550  11.857  12.886
48387W        W16616  12.060  29.319  14.374
48388W        W16617  39.564  28.369   4.176
48389W        W16618   5.332   3.220   0.564
48390W        W16619  19.699  43.554   0.410
48391W        W16620   4.873  25.016   4.555
48392W        W16621  19.284  31.938   2.672
48393W        W16622  26.622  31.353   0.379
48394W        W16623  10.824   8.734   4.650
48395W        W16624  18.352  25.115  12.088
48396W        W16625  35.238  22.614  13.373
48397W        W16626  44.508   4.872   0.935
48398W        W16627  34.637  10.769  13.369
48399W        W16628  13.709   8.946   4.110
48400W        W16629  36.597  38.199   1.434
48401W        W16630   3.500  30.566   4.714
48402W        W16631   2.242  23.824   5.154
48403W        W16632  34.271  12.670  13.174
48404W        W16633  20.996   4.659  10.699
48405W        W16634  43.998   8.212  14.389
48406W        W16635  36.867  21.777   4.189
48407W        W16636   1.271  29.121  13.994
48408W        W16637  29.312  20.116  12.133
48409W        W16638  12.225  37.043  13.909
48410W        W16639  14.796  37.375  12.394
48411W        W16640  34.411  11.841  14.923
48412W        W16641  42.930  29.214  12.032
48413W        W16642   0.404  23.523  12.536
48414W        W16643  24.001   7.590   3.484
48415W        W16644  18.161  22.485  14.873
48416W        W16645  43.777  39.792   0.481
48417W        W16646  26.942  29.917   1.456
48418W        W16647   5.862  28.198   1.355
48419W        W16648  38.701  32.975   2.773
48420W        W16649  44.949  33.362   1.889
48421W        W16650  27.135  21.004   1.014
48422W        W16651  12.792   8.844   0.831
48423W        W16652  10.656  16.026   4.458
48424W        W16653  13.361  16.065  11.107
48425W        W16654  41.221  43.060   4.230
48426W        W16655  36.930  14.666   3.803
48427W        W16656  17.646  32.582  14.317
48428W        W16657  42.858  20.324   2.313
48429W        W16658  12.965  18.627  11.549
48430W        W16659  15.547   2.639  14.469
48431W        W16660  41.435  40.978   1.793
48432W        W16661  30.778  34.635   3.236
48433W        W16662  34.563  21.378  12.934
48434W        W16663   3.122   0.793   1.733
48435W        W16664   4.856  24.988  11.986
48436W        W16665   5.950  12.818  12.992
48437W        W16666  41.900  40.518   2.329
48438W        W16667  23.188   1.819   3.928
48439W        W16668   4.743  35.707   5.157
48440W        W16669  43.966  39.359   0.729
48441W        W16670  29.149  11.256  10.676
48442W        W16671  28.935  35.561  12.047
48443W        W16672  14.840  38.250   3.702
48444W        W16673  27.718   7.133   4.337
48445W        W16674  41.491   8.403   0.440
48446W        W16675   7.198  44.719   1.321
48447W        W16676  26.419  40.566   3.211
48448W        W16677   0.426  28.134  13.596
48449W        W16678   0.328   5.192  11.165
48450W        W16679  13.606   4.713   1.898
48451W        W16680  20.679  26.525   1.843
48452W        W16681  44.411  15.304  14.036
48453W        W16682  36.457  42.322   4.791
48454W        W16683  18.041  40.816  14.541
48455W        W16684  17.701  20.147   4.055
48456W        W16685  42.925   8.945  11.088
48457W        W16686   3.865  21.661   2.990
48458W        W16687   2.894  40.284   0.380
48459W        W16688  19.861  31.965  11.701
48460W        W16689   2.437   8.687  14.920
48461W        W16690  35.997  19.884   2.148
48462W        W16691  34.453  14.138   3.724
48463W        W16692  37.992  26.971  10.565
48464W        W16693  18.593  35.385   3.283
48465W        W16694  11.646   8.085   2.178
48466W        W16695  15.509  23.117   3.559
48467W        W16696  18.733  26.972  11.222
48468W        W16697  42.553  16.282  14.350
48469W        W16698   8.434  35.586   1.153
48470W        W16699  38.940  17.566  12.350
48471W        W16700  28.753  42.556   4.352
48472W        W16701  35.510   6.671   3.141
48473W        W16702  31.591  39.362  11.336
48474W        W16703  24.166  12.946  14.844
48475W        W16704  26.631   5.313   1.272
48476W        W16705   9.665  44.777  14.713
48477W        W16706  40.529  11.990   1.969
48478W        W16707   3.301  18.116   4.743
48479W        W16708  25.471   4.800   0.344
48480W        W16709  39.335  38.311  11.618
48481W        W16710   0.771   4.488  13.469
48482W        W16711  25.522  14.611   4.197
48483W        W16712  41.068  34.148   2.389
48484W        W16713  38.842   6.182   3.072
48485W        W16714   6.275   3.433   3.580
48486W        W16715  43.991  36.883   1.356
48487W        W16716  35.897  17.752   3.383
48488W        W16717  11.942  42.746   1.295
48489W        W16718  38.527  44.075  12.105
48490W        W16719  36.348   2.298  13.500
48491W        W16720  37.487  12.796   4.150
48492W        W16721  13.447   9.828  11.899
48493W        W16722  26.982  36.865  12.589
48494W        W16723   2.059  25.243   3.185
48495W        W16724  27.904   8.805   1.183
48496W        W16725  42.528  36.195   1.270
48497W        W16726  41.439  23.831   3.120
48498W        W16727  16.089  35.529  13.528
48499W        W16728  29.879  20.334   1.705
48500W        W16729  21.523   3.898   3.720
48501W        W16730   1.028  14.394   2.294
48502W        W16731   5.401  26.740  13.975
48503W        W16732  38.578  15.805   2.723
48504W        W16733  26.441  21.581  13.344
48505W        W16734  43.603  24.074   3.697
48506W        W16735   9.195  10.603   4.416
48507W        W16736  30.627  29.183   4.362
48508W        W16737  11.639  12.726  13.466
48509W        W16738  21.621  25.225  12.051
48510W        W16739  39.734  17.232   4.192
48511W        W16740  35.777  32.421   0.431
48512W        W16741   1.292  32.003   0.519
48513W        W16742  39.908   2.720  12.876
48514W        W16743   9.750  24.197  11.134
48515W        W16744  14.283   1.381   4.280
48516W        W16745  31.943  25.558   1.336
48517W        W16746  31.046   0.568  12.973
48518W        W16747  15.672  13.274   4.525
48519W        W16748  16.377  38.994  10.139
48520W        W16749  30.862  19.705  12.966
48521W        W16750  40.370  13.394  11.115
48522W        W16751  22.244  14.195   4.144
48523W        W16752  13.848  36.015   3.249
48524W        W16753  21.394  43.276   3.964
48525W        W16754  40.041  27.508  11.251
48526W        W16755  21.459  36.152   0.923
48527W        W16756  14.503  33.125   2.721
48528W        W16757  18.699  41.903   0.893
48529W        W16758  32.407   3.210  14.494
48530W        W16759  36.458  43.695  11.641
48531W        W16760  22.015  34.862  10.906
48532W        W16761   1.224  19.716   4.917
48533W        W16762  44.809  41.618   3.761
48534W        W16763  27.892  10.630   0.855
48535W        W16764   0.334   2.635  13.592
48536W        W16765  24.037  11.465  10.314
48537W        W16766  30.632   7.642   4.784
48538W        W16767  16.835  21.989  11.376
48539W        W16768  16.964  36.787   2.786
48540W        W16769   4.323   5.677  13.512
48541W        W16770  43.234  33.130  14.406
48542W        W16771  12.378   2.785   0.562
48543W        W16772   7.713   9.282  11.312
48544W        W16773   1.393  23.036  10.476
48545W        W16774  33.853   9.466   3.950
48546W        W16775  17.914  32.554  11.674
48547W        W16776   9.279  21.666   1.929
48548W        W16777  27.633  28.143  10.710
48549W        W16778  29.044  23.062   0.237
48550W        W16779  29.870  37.061  11.230
48551W        W16780  19.128  24.038  13.546
48552W        W16781   8.691   2.954  14.314
48553W        W16782  32.640  29.486  13.062
48554W        W16783  19.815  13.595  12.932
48555W        W16784  38.343  37.094   4.202
48556W        W16785   8.237  20.151   1.504
48557W        W16786  20.843  38.556   2.388
48558W        W16787  21.203   9.860   1.375
48559W        W16788  40.701  26.049  12.043
48560W        W16789  18.729  30.424   1.016
48561W        W16790  27.440   2.456  11.060
48562W        W16791  11.263  25.204   3.114
48563W        W16792  31.186   9.668   0.010
48564W        W16793  16.354  15.195   4.589
48565W        W16794  33.484   3.555   4.540
48566W        W16795   6.193   4.851  12.081
48567W        W16796  31.574  19.227  10.464
48568W        W16797  31.847  26.421  13.010
48569W        W16798  40.084  16.821   3.274
48570W        W16799  24.535  22.252   1.897
48571W        W16800  28.190  27.176   3.386
48572W        W16801  13.133  23.695  11.557
48573W        W16802  33.224   7.757   0.537
48574W        W16803  12.229  10.343  12.560
48575W        W16804  36.272  42.572   0.843
48576W        W16805  32.909  39.826  12.753
48577W        W16806  29.766  33.160   4.543
48578W        W16807  44.904  28.924   4.116
48579W        W16808  34.670  39.917   0.995
48580W        W16809  19.109  13.807  12.523
48581W        W16810   4.383  33.912  11.203
48582W        W16811  18.850  20.429  12.517
48583W        W16812  19.139  26.614   0.540
48584W        W16813   4.224  21.762  12.506
48585W        W16814  31.455  17.240  13.324
48586W        W16815  44.927   0.769   0.934
48587W        W16816  39.921   3.290  14.800
48588W        W16817  12.667  20.693   1.440
48589W        W16818  20.603  43.974  14.494
48590W        W16819  42.981  19.141  10.443
48591W        W16820  34.350   8.919  13.130
48592W        W16821  22.929  23.007   3.670
48593W        W16822  20.819  24.185   1.823
48594W        W16823  38.453  18.386   0.342
48595W        W16824  39.335  43.950   0.003
48596W        W16825  39.782  16.390   3.215
48597W        W16826  19.228  19.984   0.235
48598W        W16827  22.123  33.942  13.395
48599W        W16828   7.741   3.236  12.931
48600W        W16829  29.323  39.860  11.136
48601W        W16830  44.704  44.378   4.012
48602W        W16831   8.352  40.093  14.139
48603W        W16832   2.311  23.162   2.095
48604W        W16833   3.651   8.387  10.507
48605W        W16834  27.697  38.644   2.439
48606W        W16835  25.157  25.823  11.638
48607W        W16836  41.895   5.407   4.569
48608W        W16837  32.478  16.550   0.793
48609W        W16838  33.399  18.204  11.492
48610W        W16839   0.293  32.985   4.410
48611W        W16840  33.969  26.747  11.930
48612W        W16841  39.324  34.345   1.319
48613W        W16842  34.503  42.969   0.510
48614W        W16843  31.874  13.893  11.983
48615W        W16844   9.173  19.233   3.937
48616W        W16845   7.316  19.204  12.926
48617W        W16846   3.364  12.140  13.179
48618W        W16847   4.360  12.799   4.905
48619W        W16848  23.560   4.245   2.307
48620W        W16849   7.295  38.571   4.730
48621W        W16850  13.399   5.847  14.702
48622W        W16851  24.455  41.627  13.491
48623W        W16852  36.737  38.985   0.783
48624W        W16853  43.098  38.039  11.830
48625W        W16854   1.026   4.981   1.872
48626W        W16855  18.203  14.053   4.091
48627W        W16856  44.300  23.936   3.152
48628W        W16857  14.698  12.280  11.572
48629W        W16858  19.491  11.183  10.723
48630W        W16859  37.362  32.483  11.830
48631W        W16860  41.512  37.275  14.418
48632W        W16861  33.253   4.174  10.528
48633W        W16862   7.142  23.528   4.042
48634W        W16863  40.258  12.056   4.933
48635W        W16864   9.217   9.125   0.982
48636W        W16865  27.682  44.932   4.512
48637W        W16866  15.544  24.700   1.282
48638W        W16867  21.728  44.439   2.102
48639W        W16868  11.780  22.968  11.937
48640W        W16869   1.893   9.705  10.788
48641W        W16870  25.745   6.222   1.265
48642W        W16871  31.870   8.459   1.421
48643W        W16872  40.274  16.632   0.961
48644W        W16873   9.714  43.718   2.973
48645W        W16874  38.979  31.865  14.915
48646W        W16875  44.348  24.606  11.132
48647W        W16876  42.792   0.202  14.421
48648W        W16877  34.642  31.341   4.033
48649W        W16878  20.752  29.173  11.932
48650W        W16879   9.977  29.836  11.147
48651W        W16880  31.521  19.036  11.467
48652W        W16881  33.630  23.099   1.833
48653W        W16882  11.605  42.983   3.885
48654W        W16883   9.186  12.733  11.088
48655W        W16884  11.861  14.323   1.834
48656W        W16885  17.031  20.665  11.883
48657W        W16886  25.599  34.162  12.464
48658W        W16887  14.330  39.314   5.147
48659W        W16888  37.020  24.257  12.875
48660W        W16889  15.338  23.493  14.889
48661W        W16890  22.946  30.651  11.079
48662W        W16891  37.387  10.183   4.581
48663W        W16892  23.186  10.432   4.247
48664W        W16893  29.347  17.636  12.486
48665W        W16894   6.523  20.079   0.020
48666W        W16895   8.375  39.554  10.347
48667W        W16896   0.646  24.486   2.927
48668W        W16897  36.469  37.446   4.619
48669W        W16898   1.522  30.074  13.340
48670W        W16899  28.714  21.004   0.441
48671W        W16900   2.894   0.826   0.814
48672W        W16901   1.512   6.464   1.179
48673W        W16902   6.933  23.079   3.557
48674W        W16903  19.031  20.239  11.082
48675W        W16904  41.445  23.006   1.450
48676W        W16905  26.445   2.214   1.931
48677W        W16906  13.849   1.358  13.554
48678W        W16907  18.285  43.289  14.852
48679W        W16908  29.987   8.017  14.297
48680W        W16909  27.802  10.667   2.175
48681W        W16910  34.036  21.145   1.147
48682W        W16911  34.003   3.865  13.905
48683W        W16912  19.285  17.318  11.810
48684W        W16913  39.414   6.664  14.912
48685W        W16914  43.932  30.552  11.981
48686W        W16915  20.950  34.946  11.822
48687W        W16916  29.816   1.896  12.028
48688W        W16917  34.206  36.087  12.368
48689W        W16918  39.583  40.432  13.795
48690W        W16919  33.520   0.400   2.266
48691W        W16920  40.783  40.106  14.260
48692W        W16921  19.077  40.171  12.645
48693W        W16922  25.470   3.793   2.363
48694W        W16923  18.801   7.692  10.867
48695W        W16924  30.876  29.579  12.436
48696W        W16925  19.260   4.205   3.852
48697W        W16926  17.810  23.983  13.047
48698W        W16927  34.372  44.038   1.892
48699W        W16928  40.081   0.428  12.702
48700W        W16929   4.752   3.406  13.304
48701W        W16930  44.569   4.410   0.476
48702W        W16931  37.833  26.911  10.070
48703W        W16932  12.192  30.705  12.429
48704W        W16933  39.875  12.825   2.346
48705W        W16934  33.958  14.096   1.949
48706W        W16935  30.415  24.321   0.653
48707W        W16936  26.944   8.976  12.485
48708W        W16937  24.902  20.858  13.998
48709W        W16938  13.697  19.714   2.658
48710W        W16939  32.139  36.874   4.618
48711W        W16940  26.984  43.732   2.893
48712W        W16941   8.944  38.870  11.092
48713W        W16942   3.739  26.927  13.242
48714W        W16943  34.381   2.005   2.863
48715W        W16944   5.319   0.096   2.705
48716W        W16945  39.400  28.340  10.313
48717W        W16946  44.591  24.407  13.969
48718W        W16947   0.733  31.156   0.465
48719W        W16948  35.328  41.681   1.710
48720W        W16949  25.990   8.590   1.001
48721W        W16950  18.555   4.348   0.469
48722W        W16951  32.602  40.583   2.789
48723W        W16952   3.321  15.064   2.447
48724W        W16953   8.126  17.036  11.796
48725W        W16954  26.028  41.619   2.229
48726W        W16955  22.801   1.786   3.586
48727W        W16956  35.652  23.781  10.620
48728W        W16957  34.958   5.638  10.805
48729W        W16958  31.871  26.822   0.141
48730W        W16959  41.936   1.042   4.970
48731W        W16960  21.019  13.309   1.677
48732W        W16961   8.950  23.877  11.075
48733W        W16962   4.307  21.482   2.766
48734W        W16963  22.028  28.034  12.983
48735W        W16964  18.855  42.917   1.248
48736W        W16965  24.667   7.088  13.829
48737W        W16966  13.146  23.143  13.982
48738W        W16967  26.025  35.928   5.374
48739W        W16968   7.104  24.721   1.093
48740W        W16969  19.768  39.580  12.451
48741W        W16970   7.598  27.180  11.308
48742W        W16971  13.641  24.524  11.638
48743W        W16972   0.603  44.639   5.030
48744W        W16973  33.460  17.582   2.856
48745W        W16974  44.836  14.088  14.876
48746W        W16975   7.743  34.569   3.300
48747W        W16976  33.663  26.943  13.426
48748W        W16977  42.275   5.799  11.555
48749W        W16978  39.849   9.093   2.746
48750W        W16979  20.823  30.823   3.094
48751W        W16980  18.019   1.176  14.890
48752W        W16981  28.055   9.205   1.479
48753W        W16982  26.637   0.278   0.533
48754W        W16983   2.461  37.762   3.736
48755W        W16984  43.242  28.946   4.984
48756W        W16985  16.490  20.681   2.292
48757W        W16986  16.584   4.216   1.355
48758W        W16987   2.290  28.475  14.193
48759W        W16988  42.443  31.641  11.635
48760W        W16989  38.394  15.719  13.340
48761W        W16990  17.281   6.734  12.530
48762W        W16991  25.663   2.720  11.668
48763W        W16992  26.287  32.935   1.934
48764W        W16993   9.944   7.408  10.679
48765W        W16994  29.623  42.482  12.642
48766W        W16995  10.731  31.533  12.123
48767W        W16996  38.079  20.137  12.896
48768W        W16997   3.471  27.892   3.085
48769W        W16998  15.336  15.789  10.486
48770W        W16999  34.352  40.301   0.855
48771W        W17000  44.972  28.681  11.092
48772W        W17001   7.675   1.776   3.389
48773W        W17002  20.486  27.472   2.813
48774W        W17003  15.071  11.279  11.907
48775W        W17004  19.756   1.663  11.851
48776W        W17005  11.660  12.023  11.309
48777W        W17006   1.873  28.050   1.426
48778W        W17007  27.920   4.390  12.037
48779W        W17008  43.569  29.242  11.568
48780W        W17009   4.631   7.767  14.288
48781W        W17010  37.923   9.280   4.617
48782W        W17011  21.496   1.738   3.120
48783W        W17012  27.145  31.111  12.391
48784W        W17013  42.566  16.719  12.447
48785W        W17014  33.498  44.740  11.082
48786W        W17015  12.145  20.285  14.229
48787W        W17016  10.653   5.360  14.100
48788W        W17017   4.694  14.947  12.545
48789W        W17018  40.646  27.550  13.034
48790W        W17019  19.097  26.706  10.202
48791W        W17020  36.977  39.050   1.251
48792W        W17021  22.262  40.763  13.424
48793W        W17022  23.176  21.532   2.816
48794W        W17023  41.987  36.964  13.749
48795W        W17024  26.550  38.961  14.690
48796W        W17025  23.559  34.877  11.074
48797W        W17026   1.012  41.769  14.474
48798W        W17027   6.404  31.817  13.366
48799W        W17028  42.006  43.607  12.555
48800W        W17029  32.531  39.428   4.172
48801W        W17030   2.881  38.788   1.367
48802W        W17031  19.326   6.150   1.915
48803W        W17032  13.853  19.260   0.757
48804W        W17033  41.421  10.152   1.413
48805W        W17034  31.800   6.597   4.207
48806W        W17035  19.627  42.291  14.422
48807W        W17036   6.159  13.777  13.298
48808W        W17037  13.104   3.926   2.463
48809W        W17038  36.918  32.516   4.077
48810W        W17039  36.299   6.482   4.195
48811W        W17040  40.542  35.662   0.355
48812W        W17041   8.797  15.321   3.871
48813W        W17042   3.009   8.090   3.072
48814W        W17043  33.670  20.033   1.673
48815W        W17044  16.809  16.552   4.117
48816W        W17045  32.917   7.039  14.906
48817W        W17046  39.856  40.047   1.901
48818W        W17047  29.575  18.737   3.625
48819W        W17048  33.516  19.264   4.562
48820W        W17049   5.901  42.263  14.860
48821W        W17050  27.683  40.771  14.914
48822W        W17051  38.947  27.912  13.329
48823W        W17052  36.561   7.751   0.780
48824W        W17053   1.746  21.286   3.744
48825W        W17054  20.691  41.512  12.799
48826W        W17055  14.689  35.704   3.967
48827W        W17056   7.158  18.982   1.482
48828W        W17057   7.847  24.240   2.388
48829W        W17058  37.883  34.379   0.858
48830W        W17059  29.668  29.217   0.731
48831W        W17060  22.221  10.216  12.966
48832W        W17061  39.875   4.790   3.280
48833W        W17062  39.489  34.263   0.279
48834W        W17063  15.697  21.761   0.513
48835W        W17064  17.191  26.544   0.540
48836W        W17065  23.374  36.947  12.651
48837W        W17066  10.894  40.273   2.397
48838W        W17067  27.503  21.610   0.561
48839W        W17068  28.053  39.955  14.566
48840W        W17069  28.961  38.772   2.237
48841W        W17070  28.344  29.585   1.285
48842W        W17071  34.701   9.151   3.288
48843W        W17072  25.002  36.935  10.497
48844W        W17073  11.805  43.169  10.327
48845W        W17074   2.695  23.956   0.885
48846W        W17075  42.886  16.676  11.133
48847W        W17076  10.142  27.637   4.657
48848W        W17077  21.180  40.754  12.909
48849W        W17078  43.428  29.766  12.483
48850W        W17079  20.471  16.478  12.433
48851W        W17080   4.324  24.896  13.173
48852W        W17081  24.083  14.783  13.245
48853W        W17082  26.744   3.762  14.325
48854W        W17083  44.698  15.680   9.747
48855W        W17084  15.374   0.315  14.501
48856W        W17085  22.954  15.381   0.025
48857W        W17086  30.686   2.253   1.246
48858W        W17087  34.043  16.644   4.460
48859W        W17088  17.103  26.939   4.060
48860W        W17089  37.658  41.393   4.982
48861W        W17090   0.399   5.884  14.324
48862W        W17091  40.413   1.985  11.644
48863W        W17092  17.804  30.047   2.376
48864W        W17093  39.756  26.022  13.575
48865W        W17094   5.268  29.667   4.033
48866W        W17095   3.090  37.038   1.008
48867W        W17096   7.705   1.717  11.224
48868W        W17097   3.028  19.753  14.437
48869W        W17098  44.784  25.444   0.845
48870W        W17099  38.697  31.277   4.105
48871W        W17100  41.552  24.750  14.053
48872W        W17101  35.866  30.911  13.380
48873W        W17102   8.222  44.865  10.588
48874W        W17103  29.973  14.744   9.862
48875W        W17104  31.434   7.507  12.447
48876W        W17105  28.153  25.401  14.910
48877W        W17106  14.111  19.136   0.257
48878W        W17107   7.967  25.077  14.917
48879W        W17108   6.933  36.965  12.489
48880W        W17109  28.504  30.525   3.654
48881W        W17110  41.303   3.051   5.089
48882W        W17111  21.743   5.156   2.896
48883W        W17112  34.642  20.714  13.535
48884W        W17113  36.378  29.388  12.479
48885W        W17114  44.517  41.820  13.559
48886W        W17115  43.569  25.677   1.300
48887W        W17116  30.936  26.654   2.883
48888W        W17117   7.336   8.751   3.700
48889W        W17118  13.059  27.375  13.936
48890W        W17119  43.941   0.928   0.866
48891W        W17120  33.813  26.306  11.221
48892W        W17121  25.956  28.114  12.950
48893W        W17122  24.006  31.813   1.819
48894W        W17123  13.127  21.272   4.608
48895W        W17124  16.883  19.623   3.562
48896W        W17125  21.133  44.682  11.851
48897W        W17126   2.881  15.725  12.517
48898W        W17127   6.931  35.854   1.377
48899W        W17128  30.872  33.553  13.535
48900W        W17129  23.957   7.213   2.710
48901W        W17130  28.018  22.471  12.746
48902W        W17131  44.470  19.295  13.011
48903W        W17132  42.937  17.680  12.637
48904W        W17133   5.273  12.303  14.064
48905W        W17134  27.951  34.971   9.822
48906W        W17135  12.701  21.682  11.492
48907W        W17136  40.820  35.998  12.485
48908W        W17137  44.018  13.336   1.316
48909W        W17138  15.628   6.310  11.556
48910W        W17139   0.295  17.229   1.429
48911W        W17140  13.579  25.599  13.060
48912W        W17141   5.940  11.522   2.346
48913W        W17142  44.814  32.967  11.473
48914W        W17143   6.235  39.905   2.392
48915W        W17144   5.553  21.785  11.645
48916W        W17145  29.300  28.662   1.307
48917W        W17146  33.104  12.176   1.112
48918W        W17147  14.832  29.606   3.587
48919W        W17148  14.219  30.463   2.386
48920W        W17149  14.220  26.587  14.500
48921W        W17150   5.784  21.480   1.223
48922W        W17151   9.454  20.084  13.020
48923W        W17152  25.463   5.450   4.456
48924W        W17153  32.647  27.066   4.638
48925W        W17154   9.285  41.822  14.861
48926W        W17155  28.659  15.275  11.430
48927W        W17156  42.304  31.578  14.427
48928W        W17157  34.672  34.884  10.614
48929W        W17158   9.524   5.212   3.896
48930W        W17159  13.658  39.715   0.907
48931W        W17160   9.652  21.493  12.894
48932W        W17161   4.645  23.557   4.426
48933W        W17162  34.577  17.556  14.975
48934W        W17163  27.245  12.699  13.985
48935W        W17164   7.124  12.284  14.471
48936W        W17165  33.187   2.169  13.135
48937W        W17166  30.648  11.606  13.954
48938W        W17167   9.754  11.099  14.251
48939W        W17168   6.800  21.785   4.922
48940W        W17169  17.102  28.957   4.639
48941W        W17170  42.199  43.370   2.277
48942W        W17171  40.102  20.176   1.364
48943W        W17172  38.620  28.961  14.036
48944W        W17173   0.425  28.980   1.273
48945W        W17174  12.228  29.418   3.684
48946W        W17175   0.482   4.042   0.808
48947W        W17176  16.051   4.684  11.592
48948W        W17177  16.594  20.987  10.134
48949W        W17178   0.744  14.516  12.397
48950W        W17179   6.385  11.281   2.637
48951W        W17180  38.179  35.543   3.280
48952W        W17181  31.771  28.637   1.634
48953W        W17182   3.917  42.399   0.938
48954W        W17183  25.471  35.636   1.681
48955W        W17184  42.852  41.858  12.810
48956W        W17185  10.404  29.306   3.831
48957W        W17186  11.330  21.119   1.333
48958W        W17187  23.756  30.357  13.571
48959W        W17188  34.658  39.547   2.356
48960W        W17189  17.331  33.476  14.110
48961W        W17190  16.772  43.991   0.478
48962W        W17191  24.463  32.817   1.205
48963W        W17192  41.678  14.395   3.015
48964W        W17193   9.112   7.242   0.665
48965W        W17194  33.179  39.229   3.665
48966W        W17195  35.390  27.923   0.412
48967W        W17196  21.469  40.954   3.699
48968W        W17197  35.606   0.020  11.986
48969W        W17198   7.413  12.316  12.163
48970W        W17199  16.605  31.272  14.463
48971W        W17200  20.143   2.216   4.841
48972W        W17201  22.052  23.304   4.616
48973W        W17202   0.977  34.080  14.596
48974W        W17203  23.905   2.801  12.031
48975W        W17204  17.122  28.653  13.144
48976W        W17205  42.113   9.971  14.016
48977W        W17206  28.861   8.284   1.917
48978W        W17207  35.820  31.977  13.836
48979W        W17208  30.235  24.188  14.564
48980W        W17209  26.954  42.558   1.227
48981W        W17210  11.805  27.010  14.784
48982W        W17211  17.921   9.734   0.514
48983W        W17212   8.371  25.017  13.745
48984W        W17213  12.730  26.080  11.875
48985W        W17214  41.613  28.577  11.687
48986W        W17215  21.524  15.741  14.380
48987W        W17216  21.641   7.411   3.597
48988W        W17217   4.280  28.998  12.406
48989W        W17218  36.556  39.962  11.449
48990W        W17219  18.901   8.316   2.139
48991W        W17220  35.364  38.205  14.270
48992W        W17221  24.885  22.501  12.887
48993W        W17222   7.651   8.705  11.969
48994W        W17223  23.463  37.499  11.045
48995W        W17224  11.074  13.487  13.211
48996W        W17225  14.778  15.161   0.759
48997W        W17226  28.265  31.632   4.685
48998W        W17227   9.698  19.840   0.882
48999W        W17228   5.997  19.219   3.839
49000W        W17229  43.794  33.544  14.985
49001W        W17230   7.941  14.882  14.993
49002W        W17231  23.482  22.480  12.394
49003W        W17232  11.906  26.219   0.380
49004W        W17233   6.577  43.007   1.746
49005W        W17234  15.062  38.193   1.580
49006W        W17235  27.443  35.553   2.844
49007W        W17236   7.231  29.160  10.871
49008W        W17237   2.861   4.988  11.656
49009W        W17238  18.211  21.282  14.041
49010W        W17239  35.062  44.406  11.327
49011W        W17240  26.410  14.914   4.306
49012W        W17241  13.034   5.752   0.662
49013W        W17242  25.355  43.427   0.250
49014W        W17243  15.085  40.046   4.123
49015W        W17244  39.947   2.806   2.018
49016W        W17245  37.997   2.875   4.588
49017W        W17246  10.311   7.126  13.473
49018W        W17247  29.973  12.127   1.862
49019W        W17248  17.736  44.540  12.979
49020W        W17249   6.402  35.417  14.390
49021W        W17250  41.095  26.227   0.959
49022W        W17251  32.146  38.560  12.526
49023W        W17252   5.768  16.293  10.797
49024W        W17253  30.642  31.930   1.456
49025W        W17254  28.415  30.931  12.019
49026W        W17255  11.570  28.977  11.003
49027W        W17256  37.018  14.088   0.394
49028W        W17257  16.742  11.522   3.058
49029W        W17258  29.454  26.519   4.799
49030W        W17259   2.820  11.843   0.831
49031W        W17260  23.563  40.414   3.675
49032W        W17261  20.096   7.449  13.537
49033W        W17262  39.012  12.145   4.058
49034W        W17263  39.405  13.708  14.768
49035W        W17264  12.721  11.306   3.337
49036W        W17265  11.264  19.116  12.472
49037W        W17266  43.461  39.502  10.677
49038W        W17267  11.125  40.001  13.103
49039W        W17268  19.289   0.937   1.876
49040W        W17269  29.766  40.527   4.997
49041W        W17270   1.784  23.542  11.980
49042W        W17271  22.169  41.327  14.757
49043W        W17272   4.836  14.300  13.804
49044W        W17273   8.315  30.101   3.363
49045W        W17274  36.033   6.721  11.135
49046W        W17275  35.746  13.152   1.144
49047W        W17276  37.421  36.915  13.358
49048W        W17277  18.607  37.924  13.839
49049W        W17278   0.800  33.914  13.531
49050W        W17279  24.119  24.310   0.190
49051W        W17280   8.919   8.731  14.229
49052W        W17281  27.477   2.522   1.680
49053W        W17282  33.097  26.195   1.249
49054W        W17283   2.455   1.828  11.575
49055W        W17284  27.340  39.506   4.236
49056W        W17285  41.746  15.662   5.074
49057W        W17286  36.558   0.818  10.743
49058W        W17287  29.144  12.263   2.286
49059W        W17288  21.487   6.022   0.108
49060W        W17289  39.915  14.158   0.372
49061W        W17290  21.749  30.732   3.116
49062W        W17291  29.673   4.511   2.813
49063W        W17292  21.445  19.092   3.602
49064W        W17293  25.480  42.801  14.780
49065W        W17294  40.074  13.680  12.500
49066W        W17295  25.556  16.778   2.377
49067W        W17296   1.054   3.253   2.676
49068W        W17297   5.675  28.159  10.853
49069W        W17298   0.030  22.550  10.702
49070W        W17299  39.396  28.107   5.425
49071W        W17300  38.095  42.329   0.662
49072W        W17301  41.731   6.753   1.742
49073W        W17302   6.971   6.735  13.161
49074W        W17303  15.780  12.707  12.550
49075W        W17304  26.775  19.063   0.255
49076W        W17305  22.144  11.550  13.558
49077W        W17306   3.059   6.388   0.276
49078W        W17307  28.922  19.967   0.275
49079W        W17308   5.117  19.819   1.441
49080W        W17309  28.673  42.726  11.107
49081W        W17310  11.139   3.297  12.224
49082W        W17311  40.020   7.878  12.867
49083W        W17312   0.814  24.019  11.040
49084W        W17313  43.400   4.860  12.563
49085W        W17314   4.043  41.445   1.467
49086W        W17315  37.560  27.674   3.310
49087W        W17316  15.650  34.650  13.442
49088W        W17317  15.120  20.929   3.359
49089W        W17318  17.653  13.092   0.982
49090W        W17319   2.687  21.944   4.529
49091W        W17320  30.970  17.548   3.617
49092W        W17321   2.612  22.627  11.659
49093W        W17322  20.102   9.922   0.464
49094W        W17323  10.130   1.497  12.572
49095W        W17324  20.546  18.937   3.516
49096W        W17325  18.786  14.184  12.414
49097W        W17326  34.508  31.927   0.971
49098W        W17327  40.303  30.595  12.495
49099W        W17328  15.763   9.336   3.211
49100W        W17329  10.122  27.181   0.559
49101W        W17330  41.101  42.449  10.702
49102W        W17331  16.432  28.964   1.412
49103W        W17332  17.716  37.431  14.527
49104W        W17333  28.134  13.064   4.984
49105W        W17334  35.566  43.323  10.731
49106W        W17335  10.219  12.676  10.137
49107W        W17336  42.572   1.430   4.410
49108W        W17337   2.952  14.706  14.843
49109W        W17338  12.326  16.208  11.473
49110W        W17339  33.519  27.874   0.770
49111W        W17340  23.671  27.217   4.330
49112W        W17341  31.006  18.417   0.877
49113W        W17342   5.548  43.569  12.141
49114W        W17343  40.760  11.688  10.731
49115W        W17344  18.785  30.528   4.449
49116W        W17345   1.274  10.164  12.139
49117W        W17346   0.307  32.323  13.814
49118W        W17347  36.420  41.333   2.382
49119W        W17348  35.534  38.531   4.640
49120W        W17349  11.152  42.962  11.070
49121W        W17350  40.014   2.461   4.409
49122W        W17351  32.796   4.174  14.418
49123W        W17352  28.412   0.272  13.075
49124W        W17353  26.027   8.402  10.791
49125W        W17354  16.113  34.110  10.675
49126W        W17355  14.628  21.933   0.176
49127W        W17356  33.376  41.861  13.937
49128W        W17357  13.862  13.509  13.480
49129W        W17358  23.557  25.021  10.728
49130W        W17359   6.785  31.669   3.295
49131W        W17360  31.948  30.354   3.702
49132W        W17361  22.096  15.734  10.759
49133W        W17362  38.143  20.736  12.597
49134W        W17363  27.866  16.349   4.522
49135W        W17364  29.164   0.060  11.145
49136W        W17365  35.210  15.026  11.994
49137W        W17366   2.329  30.094  11.347
49138W        W17367  28.930  36.341   1.334
49139W        W17368  23.457  43.781  11.997
49140W        W17369  24.203  19.061   2.781
49141W        W17370  41.918  12.329   4.649
49142W        W17371  44.027  30.151  10.684
49143W        W17372  15.388  22.938  10.859
49144W        W17373  43.345   6.263   2.257
49145W        W17374  24.019  44.330   2.804
49146W        W17375  15.779   4.708  11.144
49147W        W17376  19.985  38.454   1.907
49148W        W17377   1.912   0.696   2.420
49149W        W17378  17.225   2.002   4.194
49150W        W17379  22.519  20.331   0.784
49151W        W17380   8.807   1.148  11.888
49152W        W17381  22.096  10.814   1.888
49153W        W17382  43.818  19.001   1.429
49154W        W17383   5.195   0.897   4.813
49155W        W17384  16.790  35.928   2.779
49156W        W17385  32.851  15.899   5.332
49157W        W17386  15.869  20.014   1.943
49158W        W17387   6.783   5.664  11.276
49159W        W17388  39.100   4.158   0.956
49160W        W17389  28.877  32.309   2.629
49161W        W17390  31.089  38.060   3.692
49162W        W17391  23.196  27.612   0.451
49163W        W17392  29.359  38.789  13.998
49164W        W17393   7.867  10.162   1.824
49165W        W17394  43.314  34.108  11.484
49166W        W17395  16.860  41.791  14.430
49167W        W17396  24.089   2.128   1.837
49168W        W17397  15.486  25.569  13.569
49169W        W17398   8.799   0.656  12.004
49170W        W17399  20.531  32.126   0.659
49171W        W17400  28.984   3.344  10.726
49172W        W17401  33.531  40.606  14.342
49173W        W17402  23.148   1.315  12.424
49174W        W17403  24.634  29.056  11.146
49175W        W17404   8.769  29.092  10.789
49176W        W17405  27.377  25.445   1.426
49177W        W17406  26.081  36.024   2.833
49178W        W17407  39.481  43.823  12.046
49179W        W17408  29.390  33.230   4.990
49180W        W17409  19.513  16.606   0.801
49181W        W17410   7.626  42.241  14.297
49182W        W17411  12.720  38.810   2.605
49183W        W17412  21.252  18.874   4.553
49184W        W17413  43.593  31.162  14.261
49185W        W17414  38.029   5.945   4.076
49186W        W17415  17.341   5.435  10.367
49187W        W17416  11.061  16.206   2.338
49188W        W17417  39.908  15.677  13.354
49189W        W17418   1.456  13.184   1.916
49190W        W17419  20.274  44.710  12.270
49191W        W17420  39.835   5.270  13.616
49192W        W17421  31.816   0.404   0.432
49193W        W17422  18.165  34.413  11.459
49194W        W17423  36.551   1.924   1.575
49195W        W17424  23.520  36.493  10.226
49196W        W17425  43.433  13.878  14.026
49197W        W17426  25.448  40.883   5.153
49198W        W17427  42.209  44.130   4.992
49199W        W17428  42.944   9.081   2.917
49200W        W17429  20.228  26.092  11.550
49201W        W17430  26.987  19.361  13.038
49202W        W17431  40.107  34.364  12.447
49203W        W17432  27.768  17.866  11.789
49204W        W17433  38.118   6.253   1.876
49205W        W17434   8.900  12.303  11.055
49206W        W17435  16.151  10.405  11.625
49207W        W17436   8.345  15.349  13.149
49208W        W17437  18.522  44.478   3.084
49209W        W17438  25.407  15.298  10.584
49210W        W17439  14.288  13.603   0.458
49211W        W17440   7.968  15.165  12.862
49212W        W17441  18.683   9.082   0.413
49213W        W17442  30.006  33.152   2.426
49214W        W17443  23.492  42.948   2.738
49215W        W17444   4.329   7.172   0.402
49216W        W17445   6.858  34.330  11.734
49217W        W17446  15.155  38.503  12.197
49218W        W17447   1.757  38.915   1.769
49219W        W17448  15.798  38.482   1.228
49220W        W17449   0.445  29.719   1.911
49221W        W17450  23.493   9.562  13.509
49222W        W17451  41.437  26.094  10.723
49223W        W17452  17.092   8.821   0.845
49224W        W17453  29.126  12.318   4.372
49225W        W17454  16.014   6.726   0.415
49226W        W17455   8.891  43.345  12.103
49227W        W17456  28.477  35.056  10.631
49228W        W17457  17.813   7.987   4.255
49229W        W17458  34.618  28.389   2.661
49230W        W17459  37.118   0.187   2.966
49231W        W17460   2.703  31.307   2.779
49232W        W17461  33.881   7.191   2.300
49233W        W17462   9.901   3.818  13.990
49234W        W17463  16.927  16.189   5.661
49235W        W17464  13.163  15.895   5.105
49236W        W17465  39.013  10.343  14.901
49237W        W17466  37.035  12.071  14.518
49238W        W17467   8.376  21.218   2.813
49239W        W17468   6.999  10.758  11.438
49240W        W17469  19.850  26.340  14.086
49241W        W17470   0.958   8.732  13.505
49242W        W17471  36.910  13.540   3.164
49243W        W17472  22.826  33.634   0.771
49244W        W17473   0.902  21.764  13.575
49245W        W17474  15.152   1.933   0.510
49246W        W17475  42.239  42.420   2.965
49247W        W17476   3.186  25.983  14.498
49248W        W17477  36.010  37.544  13.424
49249W        W17478  34.613  27.736   2.170
49250W        W17479  31.953  32.307  13.929
49251W        W17480   3.334   8.886  12.000
49252W        W17481  38.961  34.182  10.666
49253W        W17482  41.563  23.176  12.160
49254W        W17483   0.595  17.199   2.391
49255W        W17484  12.695  44.499  10.229
49256W        W17485   4.230   1.162   3.738
49257W        W17486   2.235  15.668  10.077
49258W        W17487  26.948  37.777  14.536
49259W        W17488  26.961  18.787   1.440
49260W        W17489   1.333  23.479   3.258
49261W        W17490  36.088  20.123   0.285
49262W        W17491  36.586  30.926   1.833
49263W        W17492  41.005  12.957   1.990
49264W        W17493   7.305  12.896   0.755
49265W        W17494  34.960  25.202   0.703
49266W        W17495  27.075  39.523   2.892
49267W        W17496  34.140  23.596  11.548
49268W        W17497  27.449  38.019  12.299
49269W        W17498   3.031  38.784  14.964
49270W        W17499   5.567  35.671   5.570
49271W        W17500   6.135  36.545   2.312
49272W        W17501   9.721  29.435   0.029
49273W        W17502  15.616  17.254   2.254
49274W        W17503  25.239  30.572  12.435
49275W        W17504  28.457  35.278  12.890
49276W        W17505   7.334  19.465   3.729
49277W        W17506  19.678  32.389  13.093
49278W        W17507   4.721  33.395  12.559
49279W        W17508  29.130   4.230  13.479
49280W        W17509   1.213   8.932   3.583
49281W        W17510  34.654  38.048  13.429
49282W        W17511  29.436  34.480   3.523
49283W        W17512  18.108  42.988  13.027
49284W        W17513  16.541  16.474  13.986
49285W        W17514   6.362  20.986   1.251
49286W        W17515  10.147  39.438   1.879
49287W        W17516  12.804  40.310   4.410
49288W        W17517   7.138   4.029   3.949
49289W        W17518  30.497  38.417  12.614
49290W        W17519  19.878  29.992  10.530
49291W        W17520  11.118  38.133  14.697
49292W        W17521   3.815  21.666  11.670
49293W        W17522  13.524  23.675   2.736
49294W        W17523  16.095  21.326   0.939
49295W        W17524   9.061  30.344   1.701
49296W        W17525  38.349   3.743  11.516
49297W        W17526   4.165  11.857   1.137
49298W        W17527  27.323  22.610   3.706
49299W        W17528  13.141  30.987  14.313
49300W        W17529  12.351  42.319   3.596
49301W        W17530  26.771  34.504  12.161
49302W        W17531  21.167   6.453  12.072
49303W        W17532   0.877  16.807   0.250
49304W        W17533  18.229  34.345  10.703
49305W        W17534   0.580  35.886  13.981
49306W        W17535   6.475  10.226  14.512
49307W        W17536  13.656  16.154   1.927
49308W        W17537  43.048  23.080  11.815
49309W        W17538  25.266   7.272   4.611
49310W        W17539  30.581  40.482  14.798
49311W        W17540  38.631   5.775   3.333
49312W        W17541   1.385  15.340  14.384
49313W        W17542  24.168  36.837  14.346
49314W        W17543  24.663   1.398  10.721
49315W        W17544   7.691  30.643   0.806
49316W        W17545  43.789   1.457  13.387
49317W        W17546  15.133  19.773   3.619
49318W        W17547  35.166  10.730  13.430
49319W        W17548  34.523  39.265   3.660
49320W        W17549  27.892  20.918  14.932
49321W        W17550  33.032   6.852  13.449
49322W        W17551  37.533   0.067   3.918
49323W        W17552  35.485  32.281  10.469
49324W        W17553   9.773  11.406   2.686
49325W        W17554  35.609   3.024  12.001
49326W        W17555  32.599  39.379  13.919
49327W        W17556   8.349  27.070   1.243
49328W        W17557  37.095  39.532   3.299
49329W        W17558  40.197  31.668  10.929
49330W        W17559   4.073  27.110   2.688
49331W        W17560  16.007  15.166   5.101
49332W        W17561  35.688  39.731  14.873
49333W        W17562   9.769  16.460  11.300
49334W        W17563  10.283   7.795   0.021
49335W        W17564  20.351  28.689   4.191
49336W        W17565  10.509   3.059   1.797
49337W        W17566   1.239  10.582  13.417
49338W        W17567  31.565  15.173   9.844
49339W        W17568  11.643   7.375  14.641
49340W        W17569  35.605  21.428   4.183
49341W        W17570  32.984  25.864   3.638
49342W        W17571  31.923  15.072  13.477
49343W        W17572  19.894  22.525  11.561
49344W        W17573  20.150  38.995   1.019
49345W        W17574  36.026  40.043  13.257
49346W        W17575  15.661  12.961  12.096
49347W        W17576   2.902  14.629   0.379
49348W        W17577  19.727  20.779   1.739
49349W        W17578   6.196  22.680  10.697
49350W        W17579  26.027  33.528   3.110
49351W        W17580  23.136  16.509   1.720
49352W        W17581  22.603   2.205  10.941
49353W        W17582  31.772  20.797   0.800
49354W        W17583  39.763   0.846   0.895
49355W        W17584  39.132  26.533   2.794
49356W        W17585  24.930  42.626  10.701
49357W        W17586   7.140  11.553  11.133
49358W        W17587  36.843  36.531  14.974
49359W        W17588  18.447   9.898   1.269
49360W        W17589  18.298  16.428  14.653
49361W        W17590   2.345  15.514  13.975
49362W        W17591  14.227   1.729   3.356
49363W        W17592  17.061  29.439   1.903
49364W        W17593  33.440  25.078   3.500
49365W        W17594  27.938  22.644  12.272
49366W        W17595  43.997  35.857  14.556
49367W        W17596   8.890  38.847  12.926
49368W        W17597  14.123  38.841   0.232
49369W        W17598  35.331  11.312   3.760
49370W        W17599  27.963   9.175  13.180
49371W        W17600  40.845   8.053   5.217
49372W        W17601   6.702  35.628  13.484
49373W        W17602  19.850   5.183  11.947
49374W        W17603   8.719  31.660   3.775
49375W        W17604  35.806  19.943  11.599
49376W        W17605  34.188   3.795  13.421
49377W        W17606  42.821  31.417   3.926
49378W        W17607  26.737  27.072  14.540
49379W        W17608  21.385  43.572  14.785
49380W        W17609  20.229  19.198  11.774
49381W        W17610  26.194  10.754  12.981
49382W        W17611   1.392  28.899   3.210
49383W        W17612  22.118  29.945  13.013
49384W        W17613   4.699  29.444  12.067
49385W        W17614  10.686  16.048  13.526
49386W        W17615  44.005  12.806   2.894
49387W        W17616   0.795  39.912   3.380
49388W        W17617  43.885  26.587  13.598
49389W        W17618  39.527   0.316   4.736
49390W        W17619  14.120  41.914   2.495
49391W        W17620  25.368  44.509  14.457
49392W        W17621   7.312  28.126   4.476
49393W        W17622  41.939  20.146   4.631
49394W        W17623  34.931  42.089   0.944
49395W        W17624   6.814  10.727  13.969
49396W        W17625  19.810  39.787   1.617
49397W        W17626  36.451  39.240   1.141
49398W        W17627   5.705  19.571   4.146
49399W        W17628  43.081  32.610  10.339
49400W        W17629   7.831   9.936  13.429
49401W        W17630  22.628   6.183   3.681
49402W        W17631   4.438  35.026  12.969
49403W        W17632  33.589   6.939  12.393
49404W        W17633  19.720   8.271  10.524
49405W        W17634  11.329   9.318  11.506
49406W        W17635  18.214  21.285  12.137
49407W        W17636  34.828  43.389   1.616
49408W        W17637  18.584  19.712   4.659
49409W        W17638   7.806  20.786   1.283
49410W        W17639  30.130  19.554   1.332
49411W        W17640   2.259  10.789  14.512
49412W        W17641  17.400  21.531   3.822
49413W        W17642  32.979  44.723   2.839
49414W        W17643  34.784  14.557  10.259
49415W        W17644   9.529  41.112   5.038
49416W        W17645  16.380  41.516  14.307
49417W        W17646  10.554  18.047   0.607
49418W        W17647  26.817  42.026   3.983
49419W        W17648  11.687  23.165   2.803
49420W        W17649   1.608  22.024   4.710
49421W        W17650  26.390  17.105   2.497
49422W        W17651  25.542  36.244  14.419
49423W        W17652   2.939   5.177  13.330
49424W        W17653  41.674   1.001   3.448
49425W        W17654  23.936  20.703   1.394
49426W        W17655  19.888  26.014   4.450
49427W        W17656  24.579   5.734  14.320
49428W        W17657  11.962  23.634   2.759
49429W        W17658  33.985  25.734   1.366
49430W        W17659  13.787  10.418   3.131
49431W        W17660   3.346  20.183  14.353
49432W        W17661  29.946  11.227   2.000
49433W        W17662  31.053  27.624   1.243
49434W        W17663   2.396   9.157   2.131
49435W        W17664  34.964  38.360  14.613
49436W        W17665  35.448  10.801   2.375
49437W        W17666   3.340  36.450   3.948
49438W        W17667   2.931  14.352   4.399
49439W        W17668  41.282  19.158  13.082
49440W        W17669  42.246  16.719  13.753
49441W        W17670  12.275  22.536  11.853
49442W        W17671  33.486  19.509   3.246
49443W        W17672  44.742  24.324   0.017
49444W        W17673  19.109   7.130   4.369
49445W        W17674  21.582   9.924  10.978
49446W        W17675  44.522  19.366  14.341
49447W        W17676  11.214  26.951  11.114
49448W        W17677  12.138   1.714   1.421
49449W        W17678  41.901  21.798  11.507
49450W        W17679   9.361   3.326   0.753
49451W        W17680  30.490  19.369   3.968
49452W        W17681  29.405  18.740  14.719
49453W        W17682  17.060  14.765  13.847
49454W        W17683  12.795  42.368   3.880
49455W        W17684   6.020   2.843   2.364
49456W        W17685   1.722   2.618   0.061
49457W        W17686   3.189  27.291   1.685
49458W        W17687  40.336  18.237  12.866
49459W        W17688  40.569  42.043   2.309
49460W        W17689  14.770  15.337  14.301
49461W        W17690  10.695   6.968  13.748
49462W        W17691  37.162  18.843   4.481
49463W        W17692  20.342  44.630  11.475
49464W        W17693  17.723   5.887   4.829
49465W        W17694   2.639  24.496   0.850
49466W        W17695  21.010  10.381  12.430
49467W        W17696  32.357  41.820   4.256
49468W        W17697  25.183  21.925   4.521
49469W        W17698  36.390  38.824  13.816
49470W        W17699  18.537  29.234  11.113
49471W        W17700  41.500  19.191   2.417
49472W        W17701  39.882  37.373   4.549
49473W        W17702   8.457  35.632   2.419
49474W        W17703  34.534   8.032  13.404
49475W        W17704  27.629  10.645   4.722
49476W        W17705  33.909  38.010  11.521
49477W        W17706  37.051  39.724  14.501
49478W        W17707  20.513  37.174   9.938
49479W        W17708  24.569  10.467  14.871
49480W        W17709   1.313  37.299  14.814
49481W        W17710  11.692  44.056  14.586
49482W        W17711  44.307  14.760   2.010
49483W        W17712  41.482   0.945  14.819
49484W        W17713  19.089  17.948  10.690
49485W        W17714  15.233  43.528  12.105
49486W        W17715  40.449  22.573   1.705
49487W        W17716  36.530   4.485  11.610
49488W        W17717   0.295   2.201   2.359
49489W        W17718  24.096  22.503  14.870
49490W        W17719  44.802  43.884  11.144
49491W        W17720  27.884  10.644   4.221
49492W        W17721  42.492  43.756  12.098
49493W        W17722  24.053  19.748   1.171
49494W        W17723  17.006   8.123  12.872
49495W        W17724   8.197   2.708   0.280
49496W        W17725   8.182  14.599   0.977
49497W        W17726  41.289  10.750  14.835
49498W        W17727  29.208  39.885   1.330
49499W        W17728   5.465  43.399  13.808
49500W        W17729   0.301  18.622  14.378
49501W        W17730   8.998  11.384   3.717
49502W        W17731  27.345  16.097  12.369
49503W        W17732   8.118  13.210   2.051
49504W        W17733  34.834   8.680   3.723
49505W        W17734  26.957  31.056   4.482
49506W        W17735  10.381  21.988   2.708
49507W        W17736  13.909  35.102   4.038
49508W        W17737  41.819  39.979  11.574
49509W        W17738  13.662  42.326   4.105
49510W        W17739  15.128  14.594   3.617
49511W        W17740  33.460  36.805   2.335
49512W        W17741   1.878  17.248  13.718
49513W        W17742  39.156  19.345  10.411
49514W        W17743  20.042  30.973  11.788
49515W        W17744  41.380  29.872  10.242
49516W        W17745  11.698  34.555  14.664
49517W        W17746  21.475  13.501   1.478
49518W        W17747  20.372  27.942   0.334
49519W        W17748   3.795  11.347   4.422
49520W        W17749  38.483  29.065   0.501
49521W        W17750  25.771  17.064  13.779
49522W        W17751  27.294  10.332   0.288
49523W        W17752  22.526  24.745   3.208
49524W        W17753  32.627  14.418   1.190
49525W        W17754   0.948  33.435  12.168
49526W        W17755  28.880  10.514  11.107
49527W        W17756  19.422  36.556   4.829
49528W        W17757  33.092  36.459  14.457
49529W        W17758  27.043  36.457  14.907
49530W        W17759  24.953   5.790   3.603
49531W        W17760  28.474   4.771  11.263
49532W        W17761  36.846   4.076  10.446
49533W        W17762   7.241  10.760  13.696
49534W        W17763  32.369  34.903   1.961
49535W        W17764  10.803  27.404   1.794
49536W        W17765  24.683   3.868   1.872
49537W        W17766   4.156  23.108  11.085
49538W        W17767  21.196   3.965  14.452
49539W        W17768  33.276   4.487   2.259
49540W        W17769  25.705  40.272   1.827
49541W        W17770  39.933  24.185   0.561
49542W        W17771   6.748   3.983   2.830
49543W        W17772   0.849   0.686  11.873
49544W        W17773   9.691   7.671  13.261
49545W        W17774   6.127  42.303  12.971
49546W        W17775  43.541  27.482   1.184
49547W        W17776  12.381  37.454   2.596
49548W        W17777  30.641  11.082   4.996
49549W        W17778  41.410  11.604   3.364
49550W        W17779  35.399  37.088   1.608
49551W        W17780  14.296  21.658  14.306
49552W        W17781   2.493  10.742   3.476
49553W        W17782  35.525  38.786   1.412
49554W        W17783  40.928  16.108   3.735
49555W        W17784  44.283   0.256   1.484
49556W        W17785  27.033  11.138  10.613
49557W        W17786   8.282  24.050   1.119
49558W        W17787  44.034   8.772  13.697
49559W        W17788   0.391  28.205  14.930
49560W        W17789  24.272  36.674  12.403
49561W        W17790  39.972  18.016  11.689
49562W        W17791  34.818  16.285   9.806
49563W        W17792  27.979  16.086  10.677
49564W        W17793  32.631  42.952  14.404
49565W        W17794  18.174  44.461   1.759
49566W        W17795   9.332   5.252   2.868
49567W        W17796   1.939  37.768   3.765
49568W        W17797  23.714  23.598   4.514
49569W        W17798   2.702  26.668  11.630
49570W        W17799   7.133  24.518   4.393
49571W        W17800   3.852  11.927  10.183
49572W        W17801   8.820  40.204  10.551
49573W        W17802  21.627  13.393   2.329
49574W        W17803  18.288  15.769   1.486
49575W        W17804  35.839  42.818   3.168
49576W        W17805   2.908  41.808  11.597
49577W        W17806  29.472  30.944  14.480
49578W        W17807  36.495   0.952  13.876
49579W        W17808  33.258   6.734  10.671
49580W        W17809  14.912  19.795   2.766
49581W        W17810  24.776  13.445   0.294
49582W        W17811   3.381  31.564  13.321
49583W        W17812  27.259  42.284   3.273
49584W        W17813  16.599  13.800  12.667
49585W        W17814   0.733  30.609  14.325
49586W        W17815  19.622  41.064   0.316
49587W        W17816  35.517  29.842   3.665
49588W        W17817   3.338  20.842  12.944
49589W        W17818  36.345   5.205   0.782
49590W        W17819  18.839   9.411   2.130
49591W        W17820   0.486  24.034   4.082
49592W        W17821   8.556  36.369   1.893
49593W        W17822  44.357  38.233   3.789
49594W        W17823  23.523  43.774  10.597
49595W        W17824   1.161   5.876  10.563
49596W        W17825  10.405  32.084  13.050
49597W        W17826  34.407  31.755  11.033
49598W        W17827  35.628  14.710   4.125
49599W        W17828  38.474  32.955   2.299
49600W        W17829  26.480  14.362   0.292
49601W        W17830  17.655  15.462  10.504
49602W        W17831  25.364   7.224   1.514
49603W        W17832  22.052  39.319  14.762
49604W        W17833  31.193  15.747  12.417
49605W        W17834  26.968  16.891  12.887
49606W        W17835  43.387  22.619   4.219
49607W        W17836  24.450  29.178   1.511
49608W        W17837  38.948  23.112   1.332
49609W        W17838  40.755  33.521   4.285
49610W        W17839  16.926   5.652   4.106
49611W        W17840  17.285  18.386  14.817
49612W        W17841  10.753   7.033  14.425
49613W        W17842  33.141  19.332  14.332
49614W        W17843   5.661  13.691   2.139
49615W        W17844  32.364   8.492   4.476
49616W        W17845   6.224  18.492  10.346
49617W        W17846  16.567  18.922  10.669
49618W        W17847  40.910  43.873  10.600
49619W        W17848  42.078  19.398  14.327
49620W        W17849  34.638  25.568   0.899
49621W        W17850  40.303   0.912  13.524
49622W        W17851  16.877  33.396  12.782
49623W        W17852   9.870  13.385  10.714
49624W        W17853  32.933   6.260  11.487
49625W        W17854  23.703  44.247   4.570
49626W        W17855  42.975  16.527  13.399
49627W        W17856   7.835  15.997   1.479
49628W        W17857  35.171   1.451  11.093
49629W        W17858   9.301  20.343   1.645
49630W        W17859   3.307  41.262  10.753
49631W        W17860   9.734  39.868   4.512
49632W        W17861  42.890  21.314  12.296
49633W        W17862  11.032  20.213   3.264
49634W        W17863  40.260  31.174  13.975
49635W        W17864  32.576  40.988   3.605
49636W        W17865  34.156  23.045   1.604
49637W        W17866  41.173   6.824   3.187
49638W        W17867  30.057   5.911  11.936
49639W        W17868  39.907  26.220  10.810
49640W        W17869  19.840  37.906  10.943
49641W        W17870  28.015  30.596  11.959
49642W        W17871  39.401   9.667  12.738
49643W        W17872  20.672  18.313  10.967
49644W        W17873  22.410  34.088   2.719
49645W        W17874  30.923  17.968  14.901
49646W        W17875  16.527  13.188   4.061
49647W        W17876  36.876  37.418  11.452
49648W        W17877  19.538  32.532  14.008
49649W        W17878   3.981  34.532  13.903
49650W        W17879  41.557  37.280  13.100
49651W        W17880   6.284  18.170  12.462
49652W        W17881  40.581   5.895   1.239
49653W        W17882  12.831   7.695   3.432
49654W        W17883   1.666  15.643   3.209
49655W        W17884  16.085  26.266   4.480
49656W        W17885  19.241  25.584   0.400
49657W        W17886  20.947  10.455  11.564
49658W        W17887  44.148  38.468   0.874
49659W        W17888  40.241  37.854  11.696
49660W        W17889   6.869  41.699   3.559
49661W        W17890  21.651   1.463   0.859
49662W        W17891  22.057  40.461  11.353
49663W        W17892  33.536  17.545  14.882
49664W        W17893  21.512  39.638   0.369
49665W        W17894  41.187  29.827  11.092
49666W        W17895  34.955   0.203   0.729
49667W        W17896  37.334   4.390  14.854
49668W        W17897  16.678  31.338   0.850
49669W        W17898   6.390  15.308  11.554
49670W        W17899   9.116  22.639   4.124
49671W        W17900  22.586   2.911  12.005
49672W        W17901  30.079  16.804  14.862
49673W        W17902  21.921  16.788   3.186
49674W        W17903  19.031  44.556  12.584
49675W        W17904  10.019   3.811  10.582
49676W        W17905  11.113   9.745  14.994
49677W        W17906  15.224  23.074  10.398
49678W        W17907  13.335   8.343  11.894
49679W        W17908  42.255  34.965   4.790
49680W        W17909  11.416  17.503  13.563
49681W        W17910  32.683  29.455   2.736
49682W        W17911  24.059  26.518   3.673
49683W        W17912  24.125   4.989   9.914
49684W        W17913   1.714  34.073   9.957
49685W        W17914  15.847  15.805  14.990
49686W        W17915  21.224  24.480   4.529
49687W        W17916   9.782  30.434  12.032
49688W        W17917  30.652   1.031   5.013
49689W        W17918  27.672   3.451   1.941
49690W        W17919  25.585  16.495  13.034
49691W        W17920  40.586  30.751  13.543
49692W        W17921  15.671  35.698   3.288
49693W        W17922  41.405  17.212   3.742
49694W        W17923  29.520  23.805   4.986
49695W        W17924  38.816  17.758  13.823
49696W        W17925  11.639  14.269  12.852
49697W        W17926  38.766  26.037   3.660
49698W        W17927  10.644  39.368   2.007
49699W        W17928  38.062  16.677   4.654
49700W        W17929  10.113   9.632   0.739
49701W        W17930  31.647  24.596   2.652
49702W        W17931  35.272  43.666   1.698
49703W        W17932  33.913  28.129  14.568
49704W        W17933  30.381  11.398   1.282
49705W        W17934  16.860  27.142  12.264
49706W        W17935  36.599  36.467   4.195
49707W        W17936  18.187  26.307  11.424
49708W        W17937  21.766   4.751  11.661
49709W        W17938  25.889  17.095   4.785
49710W        W17939   7.173  36.122   2.747
49711W        W17940  32.191  22.625  14.559
49712W        W17941   5.208  42.626  13.523
49713W        W17942  11.727  25.133   3.356
49714W        W17943  25.436  20.352  12.457
49715W        W17944  36.013  15.088  12.928
49716W        W17945   1.064  11.836  11.966
49717W        W17946  35.443  21.970  12.470
49718W        W17947  25.611  26.439  12.152
49719W        W17948  30.360  27.410  14.442
49720W        W17949  23.525  24.704  12.426
49721W        W17950  43.282  12.204  14.327
49722W        W17951  14.648  26.559   1.364
49723W        W17952  33.107  36.915   2.812
49724W        W17953  19.962  16.717  13.843
49725W        W17954  13.323   4.928  11.120
49726W        W17955   7.393   4.260  11.282
49727W        W17956  11.266  41.891   4.055
49728W        W17957   1.157  15.829   3.257
49729W        W17958  44.698  26.599   0.333
49730W        W17959  24.230  40.781  12.162
49731W        W17960  20.750   5.150  14.966
49732W        W17961  24.120   4.638  11.429
49733W        W17962   5.564   1.743   4.440
49734W        W17963  36.339  28.107   3.612
49735W        W17964  12.673  10.409   1.732
49736W        W17965   3.165  37.862   2.365
49737W        W17966   6.901   4.864   3.413
49738W        W17967   6.271  33.786   3.206
49739W        W17968   6.822  11.639  11.535
49740W        W17969  41.079  10.637  12.253
49741W        W17970  34.408   0.896   0.558
49742W        W17971  26.116   4.349  13.141
49743W        W17972   9.880  16.105  12.233
49744W        W17973  10.151  43.379  10.655
49745W        W17974  25.773  19.168   0.230
49746W        W17975   7.238  32.587   0.276
49747W        W17976  34.839  44.819  13.848
49748W        W17977  15.290   1.685   2.435
49749W        W17978  41.961  15.826  13.757
49750W        W17979   8.752  41.559  11.650
49751W        W17980   6.416  21.429   3.566
49752W        W17981  17.626  40.742   0.471
49753W        W17982  34.402   6.946  10.725
49754W        W17983  34.122  12.354   2.210
49755W        W17984  20.243   2.192  10.789
49756W        W17985  43.012  13.320  14.311
49757W        W17986  19.301  44.303  11.715
49758W        W17987  30.447  15.364  13.419
49759W        W17988  40.449   3.259   5.041
49760W        W17989  38.919  28.423  12.968
49761W        W17990  27.538  11.569  12.475
49762W        W17991   9.142  42.832   0.957
49763W        W17992  15.639  39.560   4.766
49764W        W17993  27.920  39.959   4.588
49765W        W17994  36.809  31.384  11.183
49766W        W17995   6.857  40.107   3.246
49767W        W17996   4.423  18.754   2.294
49768W        W17997   5.292  21.973  13.864
49769W        W17998  20.748  13.737   1.222
49770W        W17999  41.312  27.886   4.586
49771W        W18000  40.682  23.702   1.466
49772W        W18001  15.048  29.470   0.939
49773W        W18002   2.301  24.735   1.902
49774W        W18003  18.164  37.618  12.399
49775W        W18004  22.290  37.114  10.822
49776W        W18005   6.141  38.892  13.830
49777W        W18006  26.464  35.082   3.742
49778W        W18007  26.774  10.264  14.758
49779W        W18008  31.578  27.881   2.736
49780W        W18009   2.837  21.136   2.176
49781W        W18010  36.386   9.352  11.087
49782W        W18011  10.810  33.506   2.455
49783W        W18012   8.192  42.438   3.468
49784W        W18013  36.873  32.481  12.049
49785W        W18014  22.346  40.447   2.231
49786W        W18015  30.348  20.463   1.346
49787W        W18016  38.968  27.890  10.753
49788W        W18017   9.588  28.454  14.825
49789W        W18018  23.916   7.736   4.865
49790W        W18019  10.743  26.000  14.670
49791W        W18020  23.509  28.616  11.966
49792W        W18021  41.811   0.400  11.559
49793W        W18022  44.282  13.396  11.153
49794W        W18023  11.711  28.942  12.004
49795W        W18024  42.408  41.830   4.843
49796W        W18025  28.446  36.351  11.681
49797W        W18026  42.091  33.050   4.722
49798W        W18027  14.606  41.825   0.720
49799W        W18028  34.092  28.429  14.957
49800W        W18029  26.534  26.954   1.577
49801W        W18030  16.496   3.281   0.084
49802W        W18031   5.729   5.260   4.414
49803W        W18032  17.517  14.548   0.372
49804W        W18033  17.767   8.288  12.147
49805W        W18034  43.060  16.782  12.542
49806W        W18035  27.964  40.386   3.287
49807W        W18036  36.783  10.275   1.222
49808W        W18037   1.969  34.430   1.514
49809W        W18038  28.589   8.398  12.974
49810W        W18039  11.073  24.707  13.379
49811W        W18040   7.763  23.701   2.384
49812W        W18041   3.156  44.781  14.766
49813W        W18042  25.673  18.961  11.690
49814W        W18043  44.031  35.845   2.157
49815W        W18044   4.181   2.276  14.030
49816W        W18045  33.619  24.621   4.101
49817W        W18046  16.734  37.326   0.839
49818W        W18047   4.878  28.985  10.676
49819W        W18048   2.503   9.827  11.993
49820W        W18049   6.913  35.177  12.108
49821W        W18050  28.611  21.681   1.062
49822W        W18051  16.876   4.871  12.984
49823W        W18052  12.209   0.990  13.492
49824W        W18053  18.657  21.090  11.394
49825W        W18054  12.602  10.149  14.923
49826W        W18055  42.458  40.423   2.844
49827W        W18056  21.023  44.922   2.385
49828W        W18057   4.009   8.332   2.312
49829W        W18058  38.537  43.836  13.357
49830W        W18059  29.597  40.922   3.283
49831W        W18060  18.724  27.480   2.344
49832W        W18061  30.184  35.782   4.924
49833W        W18062  26.064  20.066  13.981
49834W        W18063  43.457  12.700  14.265
49835W        W18064  30.664  14.245   2.412
49836W        W18065  26.959   2.672   0.422
49837W        W18066  23.747  33.467  12.141
49838W        W18067  44.424  28.086  12.562
49839W        W18068  12.376   7.625   4.162
49840W        W18069  37.928   8.256  14.325
49841W        W18070  34.433  27.016  14.096
49842W        W18071  31.389  12.908   0.763
49843W        W18072   2.625  31.309  11.952
49844W        W18073  26.067  16.206   1.671
49845W        W18074   0.967  20.991  10.604
49846W        W18075  44.973  10.625   0.197
49847W        W18076  18.968  30.590   0.539
49848W        W18077  24.980   2.204   2.335
49849W        W18078  29.582  39.335  12.358
49850W        W18079  11.170  31.629   3.027
49851W        W18080  19.094  16.687  10.231
49852W        W18081  26.493  28.547  13.643
49853W        W18082  39.458  16.223   4.579
49854W        W18083  24.649  12.296  13.100
49855W        W18084  32.712  28.619   3.919
49856W        W18085  26.752   2.207  14.474
49857W        W18086  18.101  23.242   2.662
49858W        W18087  31.536  37.639  13.924
49859W        W18088  36.926  22.035  12.992
49860W        W18089  27.991   9.535  11.598
49861W        W18090  11.363  33.061  12.937
49862W        W18091  38.037  16.520  11.247
49863W        W18092  41.031   1.961  14.507
49864W        W18093   3.453   6.411   2.724
49865W        W18094  40.992   2.474   4.949
49866W        W18095  15.159  24.677   2.683
49867W        W18096  31.638  27.225  13.919
49868W        W18097  14.530  17.125  11.547
49869W        W18098  20.610  30.534  14.874
49870W        W18099   9.578  20.631  11.798
49871W        W18100   8.462  25.986  14.710
49872W        W18101   4.645  36.685   5.514
49873W        W18102  12.703   4.447   3.405
49874W        W18103  43.483  11.023   1.420
49875W        W18104   3.282  33.640   0.547
49876W        W18105  13.880  41.651   1.349
49877W        W18106   6.890   7.085   0.328
49878W        W18107   0.802  28.845  11.232
49879W        W18108   5.815   2.519   3.640
49880W        W18109   1.797  23.692  13.525
49881W        W18110  12.230  34.382   1.407
49882W        W18111  21.937   4.780   3.449
49883W        W18112  44.387   7.407  14.826
49884W        W18113   4.539  32.597   0.061
49885W        W18114  42.078  27.835   1.342
49886W        W18115  10.133  11.411   4.544
49887W        W18116   8.817  32.982  13.483
49888W        W18117   6.432  28.694   2.327
49889W        W18118  34.843  26.033   4.706
49890W        W18119  42.767  26.734   0.226
49891W        W18120  20.733  41.440  14.257
49892W        W18121  11.638   6.463   0.825
49893W        W18122  35.574   3.590   1.848
49894W        W18123  35.401  11.822  11.650
49895W        W18124   5.361  34.496  10.480
49896W        W18125  16.623  10.461  14.466
49897W        W18126  27.980   9.238   2.953
49898W        W18127  21.817   1.731  12.443
49899W        W18128  32.865  14.764   0.645
49900W        W18129   5.445  24.296   1.410
49901W        W18130   8.666  27.813  11.163
49902W        W18131   2.840   6.416   2.187
49903W        W18132  31.559  43.510  13.398
49904W        W18133  16.262   2.290   3.279
49905W        W18134   6.405  27.067  10.630
49906W        W18135  29.451  41.333  10.268
49907W        W18136  20.655  28.579   2.748
49908W        W18137  19.680  19.125  10.446
49909W        W18138   9.763  10.139   3.833
49910W        W18139  34.658  33.395   0.909
49911W        W18140   2.628  28.608  13.241
49912W        W18141  39.959   9.586   2.891
49913W        W18142  37.862  24.196  14.002
49914W        W18143  44.742   3.935   0.348
49915W        W18144  12.731  10.406   4.533
49916W        W18145  26.450  33.159  11.532
49917W        W18146  29.646   9.330   1.973
49918W        W18147  42.126  33.146   0.142
49919W        W18148  41.047  34.040  11.609
49920W        W18149   9.864  36.392  13.919
49921W        W18150   6.846  27.709  13.697
49922W        W18151  35.467  22.967   1.400
49923W        W18152  16.069  11.869   4.234
49924W        W18153  22.813  43.946   0.925
49925W        W18154  36.613  14.093  10.076
49926W        W18155  32.015  11.870   3.467
49927W        W18156  38.383   0.176  14.492
49928W        W18157  15.115   4.680   3.300
49929W        W18158  11.350  15.225  13.924
49930W        W18159  14.734  28.424   1.775
49931W        W18160  29.005  43.556   1.699
49932W        W18161  20.588  25.501   1.839
49933W        W18162  39.023  23.914   0.337
49934W        W18163   2.854  29.046   2.800
49935W        W18164   3.840   1.374  13.290
49936W        W18165  33.398   1.843   3.546
49937W        W18166  14.261  26.422   0.018
49938W        W18167  12.685  32.512   1.179
49939W        W18168  16.372   5.426   2.883
49940W        W18169  30.552  27.104  14.858
49941W        W18170  39.297  12.750  14.480
49942W        W18171   3.489  16.512   1.374
49943W        W18172  10.436  38.868  12.107
49944W        W18173  32.815  14.218  11.798
49945W        W18174  32.129  32.308   3.555
49946W        W18175  12.336   3.256  14.294
49947W        W18176  15.900  10.440   2.857
49948W        W18177  22.216  12.529  11.578
49949W        W18178  32.888  41.849   0.919
49950W        W18179  41.733  22.669   3.192
49951W        W18180   0.184  33.005   0.330
49952W        W18181   2.837  26.646  11.132
49953W        W18182  14.320  25.051   2.956
49954W        W18183   5.288   5.655   0.389
49955W        W18184  16.596  34.836   5.187
49956W        W18185  13.553  42.684   0.439
49957W        W18186  41.968  25.062   3.195
49958W        W18187  35.917  43.092   1.187
49959W        W18188  11.148  43.023   0.925
49960W        W18189   3.823   1.171  14.331
49961W        W18190  26.413  11.555  11.169
49962W        W18191  14.291  44.880  13.999
49963W        W18192   3.714  19.570   0.275
49964W        W18193  10.880   4.741  14.942
49965W        W18194  14.392  25.597  12.397
49966W        W18195  16.713  42.263  14.929
49967W        W18196  11.730  37.950   9.927
49968W        W18197   3.720  20.103  12.506
49969W        W18198   1.196  42.620  13.088
49970W        W18199  15.337  41.511   2.221
49971W        W18200  27.824   9.780  12.018
49972W        W18201  23.012   7.003  14.721
49973W        W18202  33.158  15.039  13.929
49974W        W18203  11.059  23.487   3.389
49975W        W18204  38.017  12.824   0.754
49976W        W18205   6.680  33.603   2.235
49977W        W18206  42.065   3.407  11.548
49978W        W18207  31.505   3.918  12.392
49979W        W18208  39.037  39.822   1.302
49980W        W18209  32.824  20.055  10.970
49981W        W18210  13.895  36.547  14.659
49982W        W18211  40.207  21.743   3.695
49983W        W18212  14.079  24.459   1.239
49984W        W18213  33.882  18.092  12.483
49985W        W18214   1.731  29.119  12.705
49986W        W18215  35.057  36.992   3.803
49987W        W18216  32.838  30.597   3.932
49988W        W18217  32.651  37.640   3.337
49989W        W18218  34.845  33.934   3.698
49990W        W18219   1.504  14.686  12.042
49991W        W18220  42.279  13.654  10.625
49992W        W18221   7.753  34.855   3.769
49993W        W18222  24.830  15.693  13.944
49994W        W18223  11.315  24.953   1.189
49995W        W18224  18.247  19.084   0.180
49996W        W18225  28.224  39.300  12.832
49997W        W18226  13.304  15.724  12.413
49998W        W18227  33.296  32.349  11.064
49999W        W18228  15.777  41.979  12.617
50000W        W18229  22.812  28.442  10.374
50001W        W18230  34.300  27.043  12.201
50002W        W18231   6.986  13.863  14.885
50003W        W18232  19.269  29.896   4.104
50004W        W18233  33.419  43.023  14.764
50005W        W18234  40.940  13.694  12.683
50006W        W18235  37.475   0.480  12.555
50007W        W18236  31.910  18.263   1.439
50008W        W18237  36.062  35.152  10.868
50009W        W18238  24.668   6.697   3.950
50010W        W18239  18.907  17.154   4.981
50011W        W18240  19.948  34.848   1.973
50012W        W18241  27.658  35.102  14.340
50013W        W18242  37.167  22.840   0.103
50014W        W18243  36.788  23.554  14.461
50015W        W18244  35.723  21.985   3.528
50016W        W18245  19.888  22.445  13.466
50017W        W18246   5.708  33.022  13.433
50018W        W18247   7.097   7.944  11.567
50019W        W18248   6.404  40.972  12.010
50020W        W18249  22.321   9.629   4.652
50021W        W18250  27.783   3.842  13.423
50022W        W18251  19.763   1.721   1.806
50023W        W18252  40.865   8.362  14.718
50024W        W18253  36.557  33.606  10.459
50025W        W18254  23.984   3.134   1.758
50026W        W18255  11.267  40.828   4.118
50027W        W18256  21.283  40.865  14.222
50028W        W18257  31.289  39.087  13.823
50029W        W18258  28.589  10.153  12.470
50030W        W18259   1.230  27.205   2.562
50031W        W18260  36.138  42.278  13.069
50032W        W18261  15.172  12.428  14.882
50033W        W18262  43.445  22.038  14.307
50034W        W18263  21.240  32.577  14.439
50035W        W18264   6.822  28.746  11.904
50036W        W18265  41.780  16.412  14.394
50037W        W18266  21.965  22.943   2.232
50038W        W18267  43.026  25.148  13.353
50039W        W18268  17.374  40.280   3.178
50040W        W18269  11.735   6.639  13.188
50041W        W18270  20.933  22.920  11.900
50042W        W18271  37.008   0.279   3.445
50043W        W18272   5.964   1.724   4.105
50044W        W18273  28.428   2.785  13.352
50045W        W18274  22.011  22.602  10.623
50046W        W18275  44.718  14.527   0.860
50047W        W18276   9.667  41.113   3.567
50048W        W18277  21.962  15.899   0.844
50049W        W18278   0.027  14.182  11.477
50050W        W18279  26.312  41.909   1.878
50051W        W18280   3.314  42.009   2.754
50052W        W18281   3.172  15.537  12.029
50053W        W18282  26.696  21.070   0.751
50054W        W18283  41.476  19.049  11.693
50055W        W18284  16.159  33.009   0.018
50056W        W18285  19.038   0.471   3.621
50057W        W18286  10.239  35.561  13.480
50058W        W18287   7.827  33.502   4.130
50059W        W18288  40.230  40.071   0.911
50060W        W18289  25.978  14.470   0.030
50061W        W18290   2.201  27.897   0.539
50062W        W18291  39.011  19.386  13.399
50063W        W18292  18.067   6.771  10.655
50064W        W18293  12.631  29.916  10.869
50065W        W18294  44.948   3.532  14.075
50066W        W18295  35.147  23.619   3.188
50067W        W18296  10.363   1.207  14.494
50068W        W18297  12.843   7.889  10.936
50069W        W18298   2.316  19.013   2.594
50070W        W18299  43.892  41.876  10.443
50071W        W18300  32.108  17.880  14.762
50072W        W18301  44.350  25.410  11.483
50073W        W18302  13.038  42.782   5.108
50074W        W18303  17.330  37.505  13.715
50075W        W18304   1.810  33.974  14.465
50076W        W18305  24.100  30.257   2.316
50077W        W18306  28.081  10.821   1.732
50078W        W18307  44.317  30.857   4.054
50079W        W18308  12.720  27.920   4.778
50080W        W18309   7.742  39.353   2.455
50081W        W18310  11.143  40.313   1.614
50082W        W18311   3.236  20.946   0.867
50083W        W18312  40.565  27.427   3.220
50084W        W18313  43.270  35.969   2.669
50085W        W18314   4.774  25.441  10.531
50086W        W18315   0.686  12.092   2.611
50087W        W18316  23.616  15.885  13.072
50088W        W18317   9.506  26.852   2.538
50089W        W18318   9.272  15.597   0.024
50090W        W18319  22.754   5.793  12.497
50091W        W18320   6.153   3.282  12.063
50092W        W18321   9.299  19.288   4.421
50093W        W18322  43.320  33.572  11.396
50094W        W18323  32.010  32.039  14.835
50095W        W18324  30.222  44.322  14.071
50096W        W18325  43.068   5.977  10.773
50097W        W18326  20.301   1.277  14.435
50098W        W18327  23.133  11.711  11.125
50099W        W18328  39.002  44.035   2.633
50100W        W18329  24.245  28.400   4.232
50101W        W18330  11.218  34.932   4.993
50102W        W18331   5.470  10.669  11.588
50103W        W18332  36.214  17.053  12.151
50104W        W18333   0.628  34.783  10.196
50105W        W18334   6.938  31.475   4.317
50106W        W18335  30.971  11.905   0.360
50107W        W18336  39.543  39.904  14.570
50108W        W18337  19.109  19.872  12.866
50109W        W18338  28.105  44.523   1.188
50110W        W18339  12.226  21.171  14.186
50111W        W18340  40.617  43.703  11.804
50112W        W18341  42.481  27.165   2.044
50113W        W18342  41.558  29.481  12.883
50114W        W18343  19.749  43.084  13.570
50115W        W18344  43.836  15.003   4.566
50116W        W18345   7.571   8.672  13.878
50117W        W18346  19.647  11.018   0.087
50118W        W18347  13.523   5.172  12.423
50119W        W18348  44.526  38.411   4.258
50120W        W18349  41.408  20.327   1.427
50121W        W18350  17.718  32.176   1.606
50122W        W18351   3.579  42.751  10.264
50123W        W18352  24.188   8.052   2.015
50124W        W18353  39.965  15.604  10.719
50125W        W18354  23.449  21.053  10.108
50126W        W18355  32.328   4.432   4.727
50127W        W18356   2.968  35.992   2.169
50128W        W18357  12.266   4.584   1.820
50129W        W18358  43.823  16.771  11.188
50130W        W18359  19.033  21.967  14.861
50131W        W18360   5.423  14.503   0.078
50132W        W18361  12.473  39.306  13.112
50133W        W18362  40.493  17.109   3.347
50134W        W18363   6.235  18.935   2.697
50135W        W18364   0.229   4.642   4.403
50136W        W18365  29.226  25.112  11.136
50137W        W18366  40.876  28.213  13.290
50138W        W18367   1.306  43.014   2.757
50139W        W18368   7.676  16.757  11.661
50140W        W18369  27.714  44.916  13.478
50141W        W18370  24.608  37.045  10.789
50142W        W18371  20.073  38.415   1.017
50143W        W18372   6.495   1.263   1.535
50144W        W18373   2.826  20.933  11.183
50145W        W18374  39.329  14.204   1.795
50146W        W18375   1.338  11.344   2.856
50147W        W18376  15.574  28.045   4.556
50148W        W18377   4.907  27.268  13.933
50149W        W18378   7.923  43.144  12.795
50150W        W18379  22.502  21.546   3.686
50151W        W18380  26.750  18.370  10.404
50152W        W18381   6.395  17.025   2.169
50153W        W18382  14.474   1.896  12.471
50154W        W18383  39.866  43.389   0.462
50155W        W18384  32.926   8.794  12.888
50156W        W18385  28.049  12.932   9.822
50157W        W18386  31.898  18.855   0.105
50158W        W18387   2.819  32.996   1.911
50159W        W18388  42.070  19.911  14.061
50160W        W18389  24.080  31.566  10.920
50161W        W18390  32.579  16.155   3.584
50162W        W18391  23.004  26.293   0.889
50163W        W18392   9.506   3.796  10.565
50164W        W18393  21.530  28.335   2.226
50165W        W18394   5.422   9.625   2.996
50166W        W18395  38.244  43.344   1.894
50167W        W18396   9.949  27.450  10.958
50168W        W18397  23.666  40.119  14.800
50169W        W18398   6.373  16.397  12.073
50170W        W18399   4.843  10.240   0.464
50171W        W18400  40.935   3.757   0.189
50172W        W18401  31.619  15.184   2.146
50173W        W18402  39.641  18.068  14.517
50174W        W18403  10.424  33.529  13.911
50175W        W18404  41.593  34.556   4.740
50176W        W18405   5.914  40.393  13.045
50177W        W18406   5.886  31.154  13.793
50178W        W18407   7.507  40.715  11.155
50179W        W18408  16.862  42.538  12.980
50180W        W18409  27.210  18.049   1.912
50181W        W18410  21.545  14.598   0.318
50182W        W18411  24.510  23.996   1.266
50183W        W18412  38.416   3.863   0.667
50184W        W18413  19.846  16.370  11.146
50185W        W18414   7.839  40.568  13.118
50186W        W18415  33.773  21.729   0.329
50187W        W18416  27.369  19.270  11.152
50188W        W18417  15.200  31.862   0.980
50189W        W18418   8.163  18.694   1.844
50190W        W18419  14.779  10.019  11.410
50191W        W18420  38.705  19.109  13.033
50192W        W18421  42.304  16.202   0.185
50193W        W18422  37.354  13.209   3.248
50194W        W18423   6.333  27.707   3.042
50195W        W18424  21.818  35.923   4.207
50196W        W18425  25.217   1.676   2.421
50197W        W18426  20.871  42.934   5.143
50198W        W18427  43.787   7.715   1.401
50199W        W18428   9.701   6.245  12.861
50200W        W18429  38.815  37.223  12.703
50201W        W18430  36.938  41.488   2.184
50202W        W18431  23.721  24.514   0.473
50203W        W18432   2.282  35.137   1.659
50204W        W18433  11.932   0.367  11.306
50205W        W18434  21.537  19.830   4.212
50206W        W18435  20.800  30.146   0.216
50207W        W18436  35.539  20.169   0.979
50208W        W18437  28.336  29.103   4.284
50209W        W18438  24.110   1.377  10.947
50210W        W18439  39.685  33.049   1.778
50211W        W18440  42.772  15.593   4.502
50212W        W18441  43.591   2.012  14.236
50213W        W18442  43.952   8.674   4.202
50214W        W18443  36.233  31.008   4.624
50215W        W18444   2.792  41.221  13.840
50216W        W18445  42.956  21.790  14.349
50217W        W18446   0.183  25.424   2.602
50218W        W18447  40.231  11.578  14.150
50219W        W18448   7.599   1.325   0.763
50220W        W18449  23.042  19.277  13.131
50221W        W18450  32.956  23.454  14.958
50222W        W18451  38.738   3.053   4.194
50223W        W18452  15.090  18.069   3.156
50224W        W18453  19.281  37.397  11.591
50225W        W18454  21.395   0.333   3.746
50226W        W18455  42.576  16.028  11.981
50227W        W18456  13.490  20.116   0.621
50228W        W18457  40.403   5.915   1.864
50229W        W18458  32.389  40.456   1.846
50230W        W18459   3.692   9.069  11.286
50231W        W18460   4.736   2.519   4.600
50232W        W18461   5.774  40.554   3.511
50233W        W18462  37.342  30.245  14.543
50234W        W18463  24.851  35.791  11.000
50235W        W18464  18.074  14.217   0.700
50236W        W18465   8.427  14.815  13.836
50237W        W18466  31.832  38.121  11.447
50238W        W18467  27.002  28.405   4.220
50239W        W18468   2.987  15.643  11.563
50240W        W18469  13.333   4.112   1.351
50241W        W18470  38.435   4.747  14.340
50242W        W18471   9.856  21.030  14.377
50243W        W18472  17.817  39.427  10.381
50244W        W18473  22.028   2.082   3.656
50245W        W18474  29.409   4.036   0.383
50246W        W18475  18.636   1.969   1.457
50247W        W18476  16.797  35.236   4.602
50248W        W18477  38.086   5.859   0.183
50249W        W18478   0.942  38.966  10.119
50250W        W18479  10.057  33.135  12.324
50251W        W18480  39.625   0.640  11.095
50252W        W18481  20.573  23.442   0.900
50253W        W18482  39.023  23.147  11.999
50254W        W18483  20.742  43.737   3.252
50255W        W18484  41.092  12.889   2.884
50256W        W18485  29.838  38.289  14.758
50257W        W18486  11.633   5.930  12.415
50258W        W18487   6.154  25.443  10.825
50259W        W18488   3.239  25.806   0.884
50260W        W18489   5.933  40.782  12.117
50261W        W18490  25.662  24.503   2.685
50262W        W18491  34.600  42.433  13.917
50263W        W18492   5.197  32.665  12.399
50264W        W18493  15.525  42.816  13.873
50265W        W18494  41.846   2.182  12.409
50266W        W18495  14.616  15.579   2.657
50267W        W18496  34.108  16.506   1.573
50268W        W18497  26.988  22.692   2.097
50269W        W18498   0.246  13.088   3.249
50270W        W18499  33.568   7.690   3.213
50271W        W18500  38.633  17.805   4.632
50272W        W18501   7.161  28.982   0.347
50273W        W18502   8.584  14.277   0.287
50274W        W18503  39.046   9.853   2.266
50275W        W18504  32.209  41.276  10.283
50276W        W18505  11.359   2.390   1.145
50277W        W18506  41.939  14.229  11.651
50278W        W18507  14.312  44.361   4.490
50279W        W18508  43.379  44.749  12.168
50280W        W18509  23.704   0.963   3.579
50281W        W18510  11.363  36.588  12.645
50282W        W18511  26.859  28.413   1.395
50283W        W18512  42.958  17.161  10.398
50284W        W18513  17.706  38.191  14.702
50285W        W18514  36.114   7.659  12.416
50286W        W18515  35.531  26.620  10.860
50287W        W18516  27.693  24.221  14.709
50288W        W18517   4.608  30.548  11.743
50289W        W18518   0.189  26.169  14.163
50290W        W18519  31.079  44.481   2.286
50291W        W18520  31.868   3.924  14.601
50292W        W18521  13.161  30.203  13.331
50293W        W18522  21.664  33.119   0.425
50294W        W18523   7.351   4.770  11.219
50295W        W18524  15.113   6.998   1.435
50296W        W18525  32.659  13.289   4.239
50297W        W18526  30.009  28.561   0.476
50298W        W18527  18.195  10.183  12.899
50299W        W18528   4.552   8.165  11.612
50300W        W18529  37.010  44.916  13.085
50301W        W18530  27.669  14.100  11.159
50302W        W18531   0.292   7.839   4.626
50303W        W18532  43.771  10.885   3.932
50304W        W18533  32.210  38.774   2.778
50305W        W18534   0.522  17.113  12.896
50306W        W18535  44.731  10.349   3.647
50307W        W18536  34.677  28.424   1.729
50308W        W18537  43.615  18.062  12.984
50309W        W18538  39.331  27.115   3.698
50310W        W18539  22.780  41.685   3.798
50311W        W18540   8.622  17.232   0.762
50312W        W18541  32.491  32.413   2.875
50313W        W18542   6.497  25.206   0.779
50314W        W18543  38.928  33.853   1.255
50315W        W18544  33.563  28.991  13.826
50316W        W18545   4.892  10.040  13.506
50317W        W18546  29.925  29.868  13.845
50318W        W18547  28.904   0.881   4.188
50319W        W18548  35.466  43.082   3.827
50320W        W18549   8.940  24.149   3.660
50321W        W18550  34.949  44.994   1.715
50322W        W18551  14.727  37.749   3.820
50323W        W18552   6.560  38.849  10.458
50324W        W18553   2.933   7.138   3.790
50325W        W18554  37.044  25.145   0.430
50326W        W18555   3.509  39.407  10.733
50327W        W18556  24.647  43.784   3.550
50328W        W18557  16.367  30.407   1.807
50329W        W18558  13.045  31.007   3.206
50330W        W18559  28.584  36.043   9.712
50331W        W18560  18.301  43.798   4.869
50332W        W18561  22.770  26.727   4.251
50333W        W18562   5.905   8.116   0.020
50334W        W18563   9.777   7.692   0.029
50335W        W18564   8.982  20.707   3.333
50336W        W18565  12.752  15.258   3.603
50337W        W18566  42.259  15.254   0.133
50338W        W18567  13.811   3.011  14.994
50339W        W18568  34.499   8.255  14.756
50340W        W18569   2.253  32.389  14.067
50341W        W18570  24.511   4.698   4.658
50342W        W18571  41.302  25.454  14.677
50343W        W18572  12.287  33.825  11.385
50344W        W18573  34.993  40.745   1.694
50345W        W18574  39.414   9.190  12.479
50346W        W18575  32.603  27.641  11.815
50347W        W18576   7.813  26.398  13.483
50348W        W18577  16.784   9.230   1.429
50349W        W18578  28.547   5.906  14.838
50350W        W18579  44.247  40.842  10.952
50351W        W18580  42.401  31.133   3.717
50352W        W18581  15.189  31.947  12.952
50353W        W18582  36.082   5.226  14.523
50354W        W18583  38.018  39.080   4.377
50355W        W18584  12.254  43.809   4.397
50356W        W18585   7.217  20.044  14.382
50357W        W18586  13.280  21.222   0.270
50358W        W18587  15.651  34.988   4.979
50359W        W18588  40.895  19.586   1.424
50360W        W18589  43.343  43.043  11.641
50361W        W18590  16.090  13.795  11.601
50362W        W18591  30.231  15.210   2.631
50363W        W18592  32.228  37.493  11.173
50364W        W18593   9.765  24.504  11.613
50365W        W18594   3.818  37.160  10.162
50366W        W18595  19.460  30.935  12.524
50367W        W18596  24.830  39.017  14.912
50368W        W18597  11.346  19.741   4.736
50369W        W18598  15.922  17.613   1.766
50370W        W18599  29.678  25.164  12.098
50371W        W18600   1.462  35.645   1.824
50372W        W18601   9.772  40.870  11.444
50373W        W18602  10.210   7.453   1.224
50374W        W18603  20.529   0.496   2.171
50375W        W18604   9.226   0.452   0.332
50376W        W18605  29.925  41.565   0.756
50377W        W18606  41.542  29.106   3.705
50378W        W18607  18.436  20.704   1.254
50379W        W18608   3.173  32.994   0.231
50380W        W18609  40.353  30.881   3.312
50381W        W18610   8.891  42.097   1.407
50382W        W18611   8.408   5.316  12.080
50383W        W18612  30.950  18.577  14.953
50384W        W18613  29.045  35.899  14.471
50385W        W18614  15.509  40.035   1.438
50386W        W18615  19.047  22.439   3.171
50387W        W18616  12.189  31.950   1.426
50388W        W18617  26.702  15.229   3.880
50389W        W18618   2.362  33.886   3.841
50390W        W18619   0.848  29.525  12.391
50391W        W18620  40.569   8.711  12.399
50392W        W18621  18.735  40.765  14.075
50393W        W18622  35.002   8.225  13.545
50394W        W18623  27.627  12.829  11.436
50395W        W18624  27.005  28.078   3.357
50396W        W18625   5.888   8.610  11.127
50397W        W18626  29.103  30.560  11.097
50398W        W18627  28.096   2.100  11.395
50399W        W18628  11.736  28.639   3.865
50400W        W18629  17.721  27.188  10.919
50401W        W18630  29.387   7.179  14.016
50402W        W18631  26.506   3.504   3.209
50403W        W18632  17.341  12.091   1.802
50404W        W18633  12.587  20.503   2.164
50405W        W18634   1.707  33.764   5.457
50406W        W18635  26.906  25.661   1.206
50407W        W18636  37.933  19.718   5.078
50408W        W18637  35.421  14.009  12.108
50409W        W18638  25.414  27.074   3.766
50410W        W18639   9.224  19.942  13.485
50411W        W18640   8.483  15.712   0.402
50412W        W18641   2.446  34.239  12.132
50413W        W18642   7.688  34.979  11.120
50414W        W18643  41.014  20.960  10.391
50415W        W18644   0.134  21.179  11.514
50416W        W18645  42.867  41.292   4.548
50417W        W18646  29.929  44.081  14.976
50418W        W18647  19.463  12.297  13.845
50419W        W18648  34.127  11.585   0.702
50420W        W18649  20.273  35.031  14.792
50421W        W18650   9.421  12.264  11.064
50422W        W18651  30.573   2.991   1.792
50423W        W18652  24.003  27.580   1.781
50424W        W18653  32.127  18.849   5.097
50425W        W18654  40.250  32.638  14.226
50426W        W18655  18.710  36.007  14.548
50427W        W18656   1.855  13.518  11.621
50428W        W18657  43.699  31.563   0.037
50429W        W18658  13.245  43.967   3.591
50430W        W18659  40.819  26.203  14.442
50431W        W18660  35.911   2.520   1.746
50432W        W18661  27.892  13.423   1.957
50433W        W18662   4.323  21.657  10.955
50434W        W18663  18.175  20.645   0.268
50435W        W18664   8.807   5.623  13.988
50436W        W18665  38.822  11.676   3.859
50437W        W18666  26.702   4.160   0.191
50438W        W18667  35.427   5.858  10.704
50439W        W18668  11.519  31.055   4.232
50440W        W18669   6.921  33.183   2.417
50441W        W18670  44.389  38.805   4.594
50442W        W18671  11.779  38.174  13.538
50443W        W18672  23.986  12.977   4.492
50444W        W18673  29.852  14.118   0.686
50445W        W18674  32.610   0.430  12.974
50446W        W18675  10.121  35.366   0.275
50447W        W18676  24.096   9.288   4.864
50448W        W18677  29.567  14.565   4.605
50449W        W18678  43.513  35.982   3.149
50450W        W18679  33.857   0.041   2.445
50451W        W18680  37.306   1.037   3.712
50452W        W18681  11.675   5.370  12.918
50453W        W18682  44.543  20.239   2.723
50454W        W18683   2.410  13.277  10.737
50455W        W18684  39.669  11.802   3.377
50456W        W18685   1.810  35.364  11.671
50457W        W18686  17.805  16.956   0.476
50458W        W18687  39.462  10.667   0.197
50459W        W18688   8.263  11.338   1.769
50460W        W18689  13.378  29.591  12.433
50461W        W18690  10.248   3.786  14.400
50462W        W18691  16.154   7.389  13.743
50463W        W18692  21.473  24.054  13.757
50464W        W18693  34.576  18.068  12.840
50465W        W18694   5.471  31.541   4.376
50466W        W18695  38.113  17.777   4.568
50467W        W18696  39.931  41.637  11.676
50468W        W18697  21.497  41.598  11.015
50469W        W18698   3.835   3.043   4.523
50470W        W18699   3.737  10.159  13.595
50471W        W18700  12.478  19.870   0.904
50472W        W18701  34.954  41.317   1.787
50473W        W18702  35.406   5.811  10.162
50474W        W18703   8.382  17.509   2.331
50475W        W18704  42.282  10.404   3.275
50476W        W18705  10.114  34.117   1.364
50477W        W18706  36.425  26.376   3.382
50478W        W18707  21.195  33.394   1.912
50479W        W18708   9.250  40.236   0.726
50480W        W18709  29.387  37.505   2.177
50481W        W18710  36.280  33.945   2.344
50482W        W18711  23.621  37.057   4.571
50483W        W18712   0.978  41.825  10.714
50484W        W18713  13.243   2.876  12.532
50485W        W18714  17.278  41.582   0.427
50486W        W18715   3.275  42.642   4.426
50487W        W18716  29.876  26.719   1.180
50488W        W18717  22.028   0.781  10.536
50489W        W18718  37.425  12.642   3.203
50490W        W18719  24.167  37.939  10.660
50491W        W18720  38.569  28.165   2.040
50492W        W18721  32.970  40.363  12.079
50493W        W18722   7.462   8.247   0.780
50494W        W18723  13.840  10.743   2.196
50495W        W18724  17.649  19.215   4.557
50496W        W18725  21.735   1.872   1.861
50497W        W18726  10.579  16.084   1.540
50498W        W18727   3.827  20.635  13.003
50499W        W18728  18.579   0.245   0.384
50500W        W18729  18.077  15.271   1.415
50501W        W18730   1.352  21.510  13.497
50502W        W18731  43.245  35.518   3.246
50503W        W18732  38.116  11.069  11.029
50504W        W18733  11.302  28.817   3.235
50505W        W18734  27.781  25.234  12.551
50506W        W18735  34.148   5.603   2.867
50507W        W18736  26.672  44.111   2.619
50508W        W18737  25.159  35.642   0.250
50509W        W18738  10.144  19.502   2.343
50510W        W18739  18.760  24.231  13.901
50511W        W18740   6.325   9.153  14.296
50512W        W18741  16.766  40.512   1.245
50513W        W18742  38.141  19.029   0.890
50514W        W18743  14.859  39.921   0.216
50515W        W18744  12.492  30.683  14.883
50516W        W18745  12.167   9.381  10.406
50517W        W18746  16.129  12.136  11.192
50518W        W18747  16.065   2.715  14.349
50519W        W18748  31.442  38.219   0.902
50520W        W18749  35.475  29.944  10.666
50521W        W18750  20.234  25.978  10.565
50522W        W18751  15.097  11.731   2.839
50523W        W18752  14.286  38.972   4.032
50524W        W18753  18.739  24.849   9.854
50525W        W18754   2.088  21.128   4.627
50526W        W18755  20.965  26.759   3.170
50527W        W18756   7.611  13.333   3.273
50528W        W18757  16.534  29.076   3.479
50529W        W18758  35.963  12.865   1.500
50530W        W18759  18.175   1.961   0.669
50531W        W18760   5.238  32.011  10.209
50532W        W18761   2.822  41.897  12.521
50533W        W18762  19.240  31.385   0.300
50534W        W18763  19.298  41.419  10.607
50535W        W18764   1.316  22.811   2.425
50536W        W18765  44.925  12.109  12.765
50537W        W18766  43.399  32.696  14.935
50538W        W18767   5.778  33.363   1.781
50539W        W18768  40.931  39.925  14.759
50540W        W18769   7.842  20.248   3.762
50541W        W18770  18.004   9.930  11.140
50542W        W18771  44.296  43.032  11.156
50543W        W18772  36.117  15.095  11.980
50544W        W18773   7.510  11.690   4.376
50545W        W18774  37.813  34.490   1.827
50546W        W18775  15.651   1.282   0.495
50547W        W18776  13.217  14.999  12.915
50548W        W18777   1.510  16.278   4.659
50549W        W18778  31.708  37.529  11.884
50550W        W18779  13.035  37.809   3.418
50551W        W18780  37.305   5.314  13.698
50552W        W18781  19.496  15.101   2.211
50553W        W18782  15.568   0.546  12.450
50554W        W18783  40.540  18.772   1.690
50555W        W18784  24.129  26.014   4.534
50556W        W18785   3.768   3.287  13.472
50557W        W18786  10.132  36.892   2.948
50558W        W18787  18.949  44.910  11.051
50559W        W18788  29.099  19.106   0.905
50560W        W18789   5.321  18.494   0.751
50561W        W18790  30.457  30.213  10.615
50562W        W18791  38.653  26.933  14.815
50563W        W18792  36.428  16.602  12.343
50564W        W18793  20.725  28.635   3.272
50565W        W18794  15.560  22.011  13.416
50566W        W18795  17.205   7.432   1.846
50567W        W18796  13.719  31.510   3.382
50568W        W18797   8.339  37.322   0.023
50569W        W18798   5.133  40.729   0.121
50570W        W18799  43.645  22.634   2.222
50571W        W18800   8.373   5.848  12.054
50572W        W18801  40.309  18.384  10.390
50573W        W18802  18.238  38.705   2.712
50574W        W18803  19.828  30.513  11.650
50575W        W18804  37.522  28.392  14.300
50576W        W18805  42.526  12.731  14.644
50577W        W18806  43.946   3.236  13.977
50578W        W18807  32.504  14.885   1.431
50579W        W18808  34.685  26.060  12.881
50580W        W18809   7.765  11.071   3.318
50581W        W18810  36.057  19.854  12.489
50582W        W18811  28.223   8.473   1.414
50583W        W18812  37.991  23.666  11.271
50584W        W18813  42.170  28.360   2.721
50585W        W18814  26.547  43.617   2.525
50586W        W18815  42.202  14.850  10.784
50587W        W18816  42.260  44.797   2.395
50588W        W18817   4.701   0.814   1.731
50589W        W18818   6.984  24.768  14.425
50590W        W18819  38.745  43.533   4.550
50591W        W18820  23.183   9.595   2.680
50592W        W18821  10.920   8.341   0.888
50593W        W18822  36.495   5.634  11.024
50594W        W18823  27.650   8.436  13.480
50595W        W18824   2.207  36.939   3.283
50596W        W18825  43.492  18.252  11.214
50597W        W18826  19.812  32.413   3.300
50598W        W18827  12.275  32.424   2.386
50599W        W18828   8.245  23.919   2.287
50600W        W18829   1.736  42.456  10.733
50601W        W18830   2.865  11.114  12.057
50602W        W18831  35.040  38.790   1.579
50603W        W18832  42.813   2.137   5.169
50604W        W18833  43.981  29.696  14.291
50605W        W18834  22.157  14.988   4.714
50606W        W18835   1.783  22.261   0.802
50607W        W18836  40.643  31.642   1.342
50608W        W18837  30.648  11.332  13.167
50609W        W18838  15.622   6.653  11.159
50610W        W18839   3.684   4.366   1.634
50611W        W18840  35.383  20.663   4.724
50612W        W18841  31.670   8.760  12.139
50613W        W18842   7.460  34.242   3.747
50614W        W18843  17.592  39.484  13.037
50615W        W18844   7.361  12.136   3.141
50616W        W18845  13.637  13.288   4.207
50617W        W18846  11.108   5.940  12.458
50618W        W18847  26.611   4.507   2.340
50619W        W18848  44.663  14.489  14.142
50620W        W18849  14.634  44.406   2.275
50621W        W18850   9.631  11.659  12.920
50622W        W18851  22.030   5.285   3.334
50623W        W18852  15.634  10.309  12.404
50624W        W18853   6.498  15.142   4.103
50625W        W18854  43.953  26.058  13.538
50626W        W18855  19.747  10.094   4.228
50627W        W18856  37.334  41.354  12.939
50628W        W18857  40.112  33.196   4.134
50629W        W18858  26.690   5.909  13.037
50630W        W18859   5.546  39.216  11.970
50631W        W18860   3.738   9.742   3.030
50632W        W18861  10.773  14.531  12.744
50633W        W18862  12.200  19.254   3.157
50634W        W18863  13.385  43.032  10.506
50635W        W18864  11.651  25.115  10.589
50636W        W18865  31.720  20.073   4.572
50637W        W18866  25.059   7.190  13.011
50638W        W18867  15.297  30.654  11.574
50639W        W18868  41.364  30.467   3.318
50640W        W18869  35.222   1.807   2.796
50641W        W18870  33.590  18.801  10.676
50642W        W18871   0.719  16.624  13.917
50643W        W18872  18.652  21.520  11.085
50644W        W18873  34.366   2.486   3.721
50645W        W18874  33.841  28.679  13.030
50646W        W18875  24.081  23.489  14.860
50647W        W18876  16.360   7.885  11.439
50648W        W18877   2.940  26.247   4.558
50649W        W18878   5.686   5.501   1.812
50650W        W18879   9.769  35.691  12.466
50651W        W18880  25.173  44.624   0.979
50652W        W18881  43.820   7.452   3.882
50653W        W18882  42.511  17.472  14.828
50654W        W18883  34.334   0.503  14.329
50655W        W18884  39.392  35.405  12.927
50656W        W18885  11.277  32.727   4.867
50657W        W18886  22.195  41.588  12.860
50658W        W18887  35.357  30.366  14.317
50659W        W18888  37.099   6.746  13.479
50660W        W18889   5.811  17.906  12.445
50661W        W18890  12.111  41.968  12.499
50662W        W18891  20.199  21.689  10.485
50663W        W18892  32.870  13.290  13.260
50664W        W18893  27.698  40.505   3.725
50665W        W18894  40.917  43.945   3.828
50666W        W18895  24.091  17.973   0.025
50667W        W18896  36.014  38.843   4.633
50668W        W18897  21.714   9.676   0.790
50669W        W18898  36.361  41.122   0.718
50670W        W18899  11.574  18.183   5.121
50671W        W18900  11.870  34.878   0.320
50672W        W18901  31.904  41.896  13.841
50673W        W18902  32.609  33.568  12.022
50674W        W18903  28.656  34.082   3.664
50675W        W18904  13.402  15.820  10.290
50676W        W18905   9.901  26.705   3.158
50677W        W18906  14.382  44.253   0.893
50678W        W18907  30.155   6.271  11.606
50679W        W18908  13.715   6.175  13.919
50680W        W18909  44.713  38.974  14.057
50681W        W18910  29.955  44.251  11.593
50682W        W18911  12.413  13.908  14.106
50683W        W18912   2.633  33.487   3.661
50684W        W18913  35.227  13.397  11.433
50685W        W18914   7.853  20.199  13.050
50686W        W18915  13.111  25.268  11.605
50687W        W18916  41.423  38.261  12.934
50688W        W18917  24.653  42.756   3.682
50689W        W18918  15.501  34.306   1.649
50690W        W18919  25.007  44.001  10.705
50691W        W18920  17.904   9.249   4.017
50692W        W18921  18.326  13.408  11.279
50693W        W18922  43.539  34.654  13.014
50694W        W18923   1.921  31.663  14.908
50695W        W18924   1.036  19.593  12.607
50696W        W18925  31.416  22.564   0.632
50697W        W18926  14.215  43.475   1.302
50698W        W18927  21.560   3.921  13.088
50699W        W18928   2.632  11.712   1.455
50700W        W18929  29.496   3.024   2.737
50701W        W18930  34.910  30.957   2.326
50702W        W18931   5.955  19.189   0.320
50703W        W18932  39.387   8.440  10.703
50704W        W18933  25.016  40.539   1.015
50705W        W18934  17.632  16.494   0.274
50706W        W18935  42.493  43.005   4.604
50707W        W18936   4.842   7.814  13.339
50708W        W18937   4.342  31.691   0.603
50709W        W18938  30.646   1.796   1.984
50710W        W18939  14.069  10.863   3.030
50711W        W18940  29.161   1.361  14.325
50712W        W18941  44.812  26.646  12.007
50713W        W18942  16.851  37.944   4.137
50714W        W18943  36.542  36.340   1.314
50715W        W18944  27.164  34.839  14.388
50716W        W18945   4.605  39.419   1.723
50717W        W18946  42.761  44.781  10.650
50718W        W18947   8.166  18.169   0.852
50719W        W18948  11.161  36.791   3.743
50720W        W18949  21.228  33.047  14.205
50721W        W18950  43.244  27.647   4.876
50722W        W18951  44.010   0.886  12.559
50723W        W18952   3.653  10.452   1.249
50724W        W18953  20.779  25.568  14.051
50725W        W18954   0.998   1.687   1.242
50726W        W18955  14.753  33.932  13.827
50727W        W18956  37.598  37.635   2.918
50728W        W18957  38.342  25.143   1.862
50729W        W18958   6.886  21.946   0.510
50730W        W18959  22.600  42.296   4.347
50731W        W18960  34.048   9.400   1.364
50732W        W18961  20.514  44.259   4.330
50733W        W18962  42.772  28.887  13.960
50734W        W18963  21.104  44.399   1.688
50735W        W18964  41.782  13.582   3.626
50736W        W18965  31.524  11.279  13.125
50737W        W18966   2.283   5.813   1.070
50738W        W18967  21.328  33.395   4.262
50739W        W18968   9.546   8.247   1.886
50740W        W18969   2.783  12.514   0.053
50741W        W18970  35.874  17.328  12.401
50742W        W18971  36.085   4.741   4.637
50743W        W18972  19.107  12.178   4.091
50744W        W18973  20.964  14.689   2.157
50745W        W18974   8.462  23.551  13.377
50746W        W18975  38.278  17.569   3.301
50747W        W18976  31.371  17.678   0.514
50748W        W18977   1.323   9.640  11.277
50749W        W18978  39.610  41.823  14.204
50750W        W18979  39.759   7.402   3.772
50751W        W18980   7.267  29.270  14.390
50752W        W18981  33.319  38.874  13.158
50753W        W18982   1.281   4.384  10.529
50754W        W18983  25.028  40.610  13.924
50755W        W18984  24.414   9.203   2.270
50756W        W18985  39.448  24.499  12.033
50757W        W18986  19.996  15.759  10.189
50758W        W18987   1.004  40.957  13.269
50759W        W18988  22.468  36.117  11.987
50760W        W18989  43.979  20.997  11.590
50761W        W18990  34.056  28.556  13.506
50762W        W18991   0.535  20.849  11.091
50763W        W18992  15.561  26.000   2.836
50764W        W18993   0.286  35.065   0.274
50765W        W18994  27.140  12.706   2.846
50766W        W18995  37.465  21.702   1.251
50767W        W18996   0.239  13.172   0.553
50768W        W18997  18.544   1.266   0.358
50769W        W18998  15.705   5.378   4.629
50770W        W18999  14.314  36.645  13.085
50771W        W19000   9.322  27.894  12.333
50772W        W19001   0.976  29.094   2.422
50773W        W19002   1.274  26.180   3.185
50774W        W19003   7.569  43.686   1.889
50775W        W19004  14.192  29.250  14.758
50776W        W19005  19.541   1.891   3.122
50777W        W19006  33.533  32.995  12.110
50778W        W19007  16.283  37.547   4.489
50779W        W19008   6.772  30.282   4.960
50780W        W19009  28.647  10.813  11.697
50781W        W19010  32.110  36.562  14.415
50782W        W19011   0.884  26.016  13.370
50783W        W19012   0.908  20.564  13.788
50784W        W19013  37.571  13.866  13.101
50785W        W19014  12.348  17.996   2.772
50786W        W19015  43.356  33.855  13.368
50787W        W19016  12.833   5.676  11.965
50788W        W19017  24.751  34.889  11.587
50789W        W19018  35.843  17.132   0.230
50790W        W19019  24.203  13.274  10.721
50791W        W19020  15.600   5.371   3.602
50792W        W19021  12.106  40.366   0.300
50793W        W19022  11.571  30.484  10.767
50794W        W19023  17.983   0.587  13.833
50795W        W19024  34.754  25.952  14.724
50796W        W19025  13.370  31.008  14.792
50797W        W19026   4.719  30.064  13.960
50798W        W19027  15.707  41.347   1.894
50799W        W19028  43.954  35.763   1.229
50800W        W19029  36.072   1.919  14.564
50801W        W19030  32.480  11.675   3.361
50802W        W19031  27.257  38.692   2.726
50803W        W19032   5.712   9.583   3.749
50804W        W19033  32.344   7.853   4.988
50805W        W19034  23.694   7.187  12.863
50806W        W19035   5.381  44.384   4.883
50807W        W19036  41.953  16.698   1.803
50808W        W19037  36.834  40.988   4.820
50809W        W19038  33.179  22.237  11.769
50810W        W19039  12.273  11.433  13.547
50811W        W19040  39.305  27.449   1.464
50812W        W19041  22.714  22.153   0.125
50813W        W19042   1.362  32.419   0.218
50814W        W19043  35.792   9.894   3.733
50815W        W19044  12.740   7.154   4.123
50816W        W19045  16.593   5.036  12.570
50817W        W19046   9.870  29.719   3.155
50818W        W19047   4.347  35.337   0.894
50819W        W19048  33.176   6.941  11.999
50820W        W19049  41.986  15.330  10.589
50821W        W19050  31.927  12.597   2.770
50822W        W19051  23.465  41.334  14.498
50823W        W19052  11.392  20.016   2.395
50824W        W19053  43.071  37.226   4.731
50825W        W19054   0.793  38.282   0.262
50826W        W19055  21.917   2.501  11.363
50827W        W19056  21.045  44.991   3.360
50828W        W19057  41.578  41.604  12.435
50829W        W19058  11.264  37.514  13.527
50830W        W19059  14.343  17.813  13.445
50831W        W19060  22.964   4.164  11.563
50832W        W19061   3.308   9.209   5.026
50833W        W19062  35.323  14.335   0.900
50834W        W19063  38.019  44.532   1.936
50835W        W19064  11.826  18.583   3.814
50836W        W19065  30.327  43.201   1.485
50837W        W19066  22.198  30.044   0.212
50838W        W19067   0.333  34.151  13.585
50839W        W19068  38.402  15.534  12.861
50840W        W19069  14.390  37.694   3.396
50841W        W19070  34.537  31.766   1.482
50842W        W19071  29.702  22.252   3.724
50843W        W19072  34.569  41.001   1.538
50844W        W19073  16.309  18.855  10.240
50845W        W19074  21.084  39.783   1.180
50846W        W19075  28.137  19.188   3.669
50847W        W19076  32.197  12.164   2.649
50848W        W19077  32.498  42.379  12.378
50849W        W19078  16.749  10.672  13.807
50850W        W19079  11.879  40.676   9.946
50851W        W19080  30.904  28.576  14.961
50852W        W19081  35.032  31.676  11.524
50853W        W19082  39.822  26.992   0.305
50854W        W19083   2.267  31.092  14.328
50855W        W19084  11.794  15.201  12.913
50856W        W19085  21.466   5.090   4.142
50857W        W19086  17.032  15.277   0.867
50858W        W19087  37.214  33.000  14.705
50859W        W19088  28.076  14.667   3.609
50860W        W19089  20.100  20.723  14.669
50861W        W19090  35.855  16.708  12.023
50862W        W19091  17.325  22.573   2.811
50863W        W19092  19.730  16.800   1.746
50864W        W19093  32.385  43.422   3.197
50865W        W19094  21.085  36.888   1.906
50866W        W19095  23.099  19.591   1.274
50867W        W19096   8.200  38.608  11.676
50868W        W19097  16.362  18.875   4.925
50869W        W19098  43.455  35.556   0.318
50870W        W19099  36.374  21.111  10.940
50871W        W19100   2.370  20.283  14.814
50872W        W19101  25.065  27.690  11.143
50873W        W19102  19.666  38.865   2.800
50874W        W19103  38.287  26.416  12.345
50875W        W19104  27.787  37.111   4.139
50876W        W19105  29.945   0.300   3.367
50877W        W19106  32.165  20.134   4.346
50878W        W19107  17.997   8.089   1.318
50879W        W19108  36.997   7.413   4.295
50880W        W19109  15.151  29.385  12.921
50881W        W19110   2.896  38.422   3.134
50882W        W19111   8.378  40.395  10.328
50883W        W19112  44.322  38.929  13.268
50884W        W19113  19.174  11.993   1.510
50885W        W19114  35.103  38.530   0.089
50886W        W19115   9.981  21.901  10.983
50887W        W19116  37.030  32.466   3.018
50888W        W19117   0.318  20.481  12.025
50889W        W19118  28.992   3.693   0.465
50890W        W19119  35.218  30.934   4.613
50891W        W19120  19.129  11.162  11.920
50892W        W19121  29.597  32.223  13.917
50893W        W19122  25.884   0.344   1.180
50894W        W19123  16.078   5.923   4.603
50895W        W19124  20.186   7.131   2.714
50896W        W19125  24.426  25.956  14.700
50897W        W19126  40.060  28.036   0.278
50898W        W19127  31.922  16.493  14.797
50899W        W19128  16.416  44.282   4.795
50900W        W19129  17.967  29.063   1.490
50901W        W19130   3.672  35.911  11.118
50902W        W19131  17.169  11.310   3.307
50903W        W19132  27.800  24.322  13.311
50904W        W19133  16.117  21.184  14.828
50905W        W19134  43.614  29.550   4.322
50906W        W19135   0.358  39.300  10.688
50907W        W19136   1.837  24.993  10.716
50908W        W19137  40.516  28.939  13.523
50909W        W19138   5.306   4.447  11.087
50910W        W19139  22.542   8.068   4.939
50911W        W19140  14.114  41.062  13.475
50912W        W19141  29.151  37.742  13.875
50913W        W19142  34.315  37.445   2.320
50914W        W19143  37.311  31.693   4.846
50915W        W19144   3.620   2.841   0.264
50916W        W19145   7.852  10.352  13.061
50917W        W19146  34.003  30.034   0.519
50918W        W19147  31.641  40.865   2.609
50919W        W19148   4.775   1.377   1.434
50920W        W19149  26.333   5.228  14.623
50921W        W19150  18.969  24.242   3.584
50922W        W19151  36.659   3.410   1.186
50923W        W19152  14.589  25.978   4.683
50924W        W19153  33.342  42.501  12.602
50925W        W19154  23.495  11.383  10.909
50926W        W19155  19.329  24.082  13.052
50927W        W19156  11.791   8.301   2.664
50928W        W19157   6.362  23.570   0.032
50929W        W19158  16.211  21.092  10.477
50930W        W19159  31.534  39.184   2.295
50931W        W19160  14.154  36.433   0.569
50932W        W19161  22.279  36.535   1.240
50933W        W19162   3.753   1.111   1.257
50934W        W19163  13.689   9.399  13.157
50935W        W19164  13.719  24.519   4.081
50936W        W19165  16.164  16.531  11.675
50937W        W19166  11.711  28.679   2.440
50938W        W19167  20.292   6.412   1.945
50939W        W19168  40.510  11.967   4.231
50940W        W19169  33.097  32.017   0.511
50941W        W19170  10.829  23.167   2.559
50942W        W19171  33.905  20.236  10.766
50943W        W19172  34.500  39.879   0.524
50944W        W19173  13.818  14.856  13.791
50945W        W19174  15.177   5.256   3.270
50946W        W19175  34.410  21.692   3.153
50947W        W19176  36.928  36.176  13.426
50948W        W19177   4.842  44.264  10.154
50949W        W19178  12.745   0.243  11.054
50950W        W19179  40.795  28.592  11.229
50951W        W19180  23.754  34.048   2.325
50952W        W19181   3.125  21.635   3.847
50953W        W19182  11.897  20.187   3.958
50954W        W19183  33.731  42.977   0.207
50955W        W19184  19.579  35.430  14.425
50956W        W19185  15.603  36.353  12.144
50957W        W19186  32.963  11.113   2.063
50958W        W19187  22.190  37.621   3.394
50959W        W19188  29.948  37.027  13.911
50960W        W19189  44.789  29.702  13.777
50961W        W19190  16.128  43.169   2.952
50962W        W19191  18.302  10.231   0.900
50963W        W19192  26.097  39.351  11.596
50964W        W19193  21.409   4.946  12.985
50965W        W19194   4.288  38.852  12.224
50966W        W19195   4.935  19.593   4.551
50967W        W19196   5.832  43.626   4.636
50968W        W19197  40.898  31.494   1.840
50969W        W19198  14.900  10.613   4.611
50970W        W19199  18.390   2.983  11.129
50971W        W19200  39.429  34.853   4.397
50972W        W19201   9.388  35.794   2.328
50973W        W19202  29.122  19.438   1.647
50974W        W19203   4.833  18.146  10.667
50975W        W19204  12.105  14.399  10.583
50976W        W19205  14.493   7.949  12.350
50977W        W19206   2.369  16.318  14.475
50978W        W19207   7.692  44.997   2.925
50979W        W19208  29.967  35.598  11.945
50980W        W19209  15.811  13.182  10.956
50981W        W19210  29.711  44.833  12.608
50982W        W19211   0.256  18.249  13.919
50983W        W19212  26.032   4.553  11.891
50984W        W19213   8.670  14.296   3.099
50985W        W19214  11.975  43.540  11.122
50986W        W19215  21.542  38.922   1.964
50987W        W19216  17.503  20.652  10.659
50988W        W19217  31.143  22.142   0.795
50989W        W19218  15.570  23.708   2.760
50990W        W19219   6.735  44.750   2.662
50991W        W19220  21.779   3.462  12.932
50992W        W19221   9.823  26.616  13.616
50993W        W19222  23.372  37.315   2.698
50994W        W19223   7.421  29.425   0.269
50995W        W19224  44.349  40.310   3.745
50996W        W19225   0.968  36.561   0.944
50997W        W19226  26.028  40.993   4.431
50998W        W19227  23.809  28.961  13.559
50999W        W19228  10.469  35.965  13.988
51000W        W19229  36.977  42.089  14.972
51001W        W19230  18.145   5.137  11.344
51002W        W19231   8.253  11.424   4.046
51003W        W19232  17.336  27.242  10.577
51004W        W19233  31.654  38.197   2.300
51005W        W19234  22.739  24.164  12.876
51006W        W19235  22.214  35.466   1.586
51007W        W19236  34.910  37.770   0.746
51008W        W19237  30.857  19.145  11.027
51009W        W19238  32.695  37.414   0.382
51010W        W19239  21.822   0.470   4.601
51011W        W19240  37.457  30.857   3.962
51012W        W19241   6.851  43.891  10.900
51013W        W19242  34.167  44.372  12.906
51014W        W19243  29.936  37.482  13.437
51015W        W19244  29.587   4.020   4.200
51016W        W19245   6.289   1.290  12.708
51017W        W19246  30.634  31.436   1.223
51018W        W19247  25.030  14.648  14.836
51019W        W19248  17.819  33.384  13.934
51020W        W19249  12.155  42.481  12.188
51021W        W19250  25.987  28.905   3.867
51022W        W19251   9.078  44.839  14.847
51023W        W19252  12.061  23.932   0.914
51024W        W19253  44.347  34.519   2.213
51025W        W19254  36.278  37.889   2.744
51026W        W19255  17.265  14.027  14.208
51027W        W19256  36.529  40.183  13.912
51028W        W19257  17.027  33.023   1.392
51029W        W19258  12.366  30.009  11.611
51030W        W19259  44.460  10.909  12.604
51031W        W19260  21.284  26.470   0.376
51032W        W19261  31.697  36.853   0.892
51033W        W19262  43.933  28.020   4.296
51034W        W19263   4.843  41.207  11.132
51035W        W19264   6.790  43.497   3.005
51036W        W19265  24.437  30.095  13.992
51037W        W19266  38.720  27.380   2.659
51038W        W19267  15.370  24.512   2.220
51039W        W19268   3.229  40.330  11.619
51040W        W19269  17.863  44.488  14.422
51041W        W19270  16.569  37.429  10.990
51042W        W19271  26.068  33.063  10.602
51043W        W19272  24.677  31.669   4.078
51044W        W19273  41.381  12.342   4.635
51045W        W19274  40.029  15.645   0.224
51046W        W19275  36.220   7.494   1.886
51047W        W19276  22.723  42.653   3.741
51048W        W19277  33.055  43.496   2.114
51049W        W19278  23.615  30.065  14.871
51050W        W19279  31.365  42.285  12.991
51051W        W19280  11.487   5.338  13.816
51052W        W19281  27.547  29.582  14.273
51053W        W19282  33.089   5.781  12.012
51054W        W19283   3.789  30.461  10.640
51055W        W19284  10.378  34.590  13.025
51056W        W19285   1.809  21.517   4.229
51057W        W19286  24.221  21.472  15.000
51058W        W19287  30.006   4.904   0.230
51059W        W19288   3.364  34.692   2.485
51060W        W19289  22.447  12.039  11.581
51061W        W19290   9.640   9.344  11.912
51062W        W19291  30.986   3.298   4.546
51063W        W19292  39.146  15.554   1.281
51064W        W19293   8.843   5.353  12.557
51065W        W19294  17.807  19.275   0.410
51066W        W19295   1.232  11.250  12.130
51067W        W19296  22.668   7.857   0.029
51068W        W19297  12.678  16.318  12.194
51069W        W19298  44.319  13.633   0.538
51070W        W19299  13.098   1.957  13.957
51071W        W19300  31.016  35.647   3.326
51072W        W19301  14.121   0.300  12.802
51073W        W19302  34.603  42.403  11.623
51074W        W19303  21.083  16.701   2.182
51075W        W19304   0.189  44.497   4.221
51076W        W19305  15.231  27.175   5.043
51077W        W19306  21.365   8.587   2.251
51078W        W19307  18.085   9.315   4.935
51079W        W19308  22.686   8.285  11.840
51080W        W19309  35.912  32.248   2.790
51081W        W19310   3.507   7.628  10.895
51082W        W19311  17.813  23.674  12.616
51083W        W19312  16.164  39.054   4.177
51084W        W19313  32.471  43.876   3.434
51085W        W19314  32.995  29.625   4.185
51086W        W19315  27.087  34.258  11.372
51087W        W19316   2.198  43.738   2.405
51088W        W19317   1.402  28.961   1.646
51089W        W19318   5.390  10.668   2.360
51090W        W19319  24.144  30.395  10.990
51091W        W19320  17.046  34.095  12.967
51092W        W19321   7.104  28.676  12.548
51093W        W19322  37.995   0.762  13.899
51094W        W19323  20.908  21.190  14.618
51095W        W19324  29.668  34.894  14.218
51096W        W19325  43.745  41.276  11.545
51097W        W19326  33.196  18.827  14.455
51098W        W19327  43.865  32.051   2.524
51099W        W19328  43.252  25.327   5.143
51100W        W19329  41.015  19.835   4.546
51101W        W19330  37.246   5.584  12.509
51102W        W19331  38.488  28.124   4.987
51103W        W19332  33.104   4.593  12.504
51104W        W19333   9.169   7.385   3.551
51105W        W19334  42.020  12.867   2.753
51106W        W19335  26.972   8.838   3.653
51107W        W19336  28.500  24.434   2.761
51108W        W19337  22.160  30.973  14.367
51109W        W19338  16.688   1.166  13.548
51110W        W19339  42.431  41.254   0.896
51111W        W19340  35.846  11.800   4.706
51112W        W19341  43.759  10.026   3.778
51113W        W19342  25.413  32.459  12.752
51114W        W19343  41.056  40.719   3.240
51115W        W19344  37.388  43.898  14.948
51116W        W19345   4.312  11.365   4.569
51117W        W19346  33.021  40.250   0.091
51118W        W19347  26.198  14.095  14.739
51119W        W19348  42.288   8.165   4.519
51120W        W19349   2.835   5.018  12.568
51121W        W19350  16.025  27.089   1.649
51122W        W19351  10.608  33.833   5.087
51123W        W19352   7.762   9.261  12.200
51124W        W19353  34.075   9.803  13.509
51125W        W19354  20.498  24.049   3.745
51126W        W19355  12.318  18.139   0.186
51127W        W19356  33.063   8.586   3.589
51128W        W19357  24.043  13.394  11.589
51129W        W19358  14.360  27.406  12.812
51130W        W19359  30.548  24.055  12.510
51131W        W19360  25.952  14.077  11.025
51132W        W19361  20.796  13.097   2.882
51133W        W19362  37.009  34.540   2.263
51134W        W19363  28.238  15.711   4.086
51135W        W19364  34.357  13.140   1.985
51136W        W19365  14.363  27.453   3.274
51137W        W19366  43.457  25.577  14.360
51138W        W19367   2.782  35.358  11.221
51139W        W19368  42.467   1.280  14.896
51140W        W19369  26.641  11.108  14.225
51141W        W19370  26.882  41.728   4.853
51142W        W19371   5.899   5.726   3.123
51143W        W19372  16.050   3.928  11.133
51144W        W19373  20.022   6.104  10.028
51145W        W19374  21.047  26.586   4.938
51146W        W19375  18.163  30.645  13.078
51147W        W19376   7.744  30.212   4.997
51148W        W19377  11.393  19.060  14.492
51149W        W19378  26.576  35.329  13.773
51150W        W19379  43.506  14.391   3.243
51151W        W19380   0.772  39.122   2.720
51152W        W19381  13.215   1.968   5.095
51153W        W19382  17.357  21.258   4.588
51154W        W19383  38.500  23.410  12.887
51155W        W19384  25.274  14.237   9.871
51156W        W19385  36.378  42.813   0.399
51157W        W19386  36.675  22.456  11.550
51158W        W19387  38.261   7.238   0.817
51159W        W19388  27.935  29.809  14.947
51160W        W19389  42.093  32.018   4.952
51161W        W19390  40.782  22.203  12.848
51162W        W19391   2.822  16.070  14.382
51163W        W19392  28.756   7.665  12.727
51164W        W19393  33.868  19.031   2.570
51165W        W19394  32.780   5.967  14.014
51166W        W19395  39.030  30.386   0.784
51167W        W19396  43.369  21.491  14.368
51168W        W19397  34.151  23.146   4.587
51169W        W19398  25.037   9.252  13.330
51170W        W19399   0.456  23.920   1.619
51171W        W19400  33.453  22.109   3.939
51172W        W19401   6.223  18.495  13.995
51173W        W19402  38.447  31.967  10.644
51174W        W19403  22.042   3.403  11.130
51175W        W19404  34.009  43.867   3.746
51176W        W19405   0.542  35.075  13.063
51177W        W19406   9.303  16.647   1.315
51178W        W19407  17.298  31.005  11.489
51179W        W19408   8.422  26.414  12.968
51180W        W19409  33.018   3.804  12.132
51181W        W19410  42.525  25.180  13.455
51182W        W19411  23.099  40.388   2.772
51183W        W19412  39.785   3.898   4.584
51184W        W19413  31.970   8.941   2.794
51185W        W19414  11.920  42.881  11.539
51186W        W19415  14.771  28.832  11.494
51187W        W19416  25.995  17.481   0.792
51188W        W19417  12.206  23.299  12.130
51189W        W19418  11.085  31.794  11.864
51190W        W19419  34.199   3.674  11.579
51191W        W19420  24.088   9.298   3.794
51192W        W19421  23.021  34.850   3.603
51193W        W19422  20.075  39.281  11.111
51194W        W19423   3.017  30.464   4.494
51195W        W19424  27.460  43.880  10.561
51196W        W19425   9.154  34.447  12.881
51197W        W19426  28.727  39.050  14.887
51198W        W19427  12.854  33.740  13.421
51199W        W19428  35.217  10.127  10.223
51200W        W19429  30.233   4.375  12.451
51201W        W19430  25.212  18.734  13.313
51202W        W19431  18.164  35.454  12.401
51203W        W19432  41.835  39.075   1.373
51204W        W19433   6.684  26.968   0.442
51205W        W19434  20.951  33.480  11.076
51206W        W19435  15.734  17.290   3.662
51207W        W19436  27.010   4.442   1.132
51208W        W19437  15.626   8.336  14.491
51209W        W19438   2.252   0.024   2.776
51210W        W19439  43.320  18.752  10.331
51211W        W19440   4.430  30.831  12.947
51212W        W19441  10.614  38.827  11.605
51213W        W19442  21.204  41.599  12.562
51214W        W19443  14.628  40.473   1.449
51215W        W19444   1.360   1.766   1.826
51216W        W19445   3.754  12.287  12.039
51217W        W19446  34.807  12.761   3.982
51218W        W19447   3.213  38.530   4.528
51219W        W19448  27.473   9.796  10.769
51220W        W19449  44.455  34.445  12.932
51221W        W19450  38.644  34.417   4.248
51222W        W19451  37.370  10.921  11.017
51223W        W19452  37.516  26.546   4.819
51224W        W19453  31.883  35.653  11.705
51225W        W19454  40.822  38.224   3.295
51226W        W19455  10.506  27.673  13.905
51227W        W19456  13.763  21.531  10.720
51228W        W19457  16.788  43.438   1.366
51229W        W19458  31.598   3.835   0.872
51230W        W19459   0.836  44.310  10.423
51231W        W19460  29.155   9.829  14.022
51232W        W19461  22.261  28.971  11.690
51233W        W19462   4.832  29.541  14.334
51234W        W19463  39.227  38.618   1.093
51235W        W19464   6.944   6.581   0.457
51236W        W19465  20.661  22.465   3.687
51237W        W19466  16.803  22.550   1.841
51238W        W19467  14.220  19.665  12.594
51239W        W19468   1.315   0.830  12.092
51240W        W19469  14.055   7.061  13.416
51241W        W19470   8.330  28.271  11.129
51242W        W19471  13.913  30.784   3.189
51243W        W19472  31.917  42.243  12.097
51244W        W19473   0.603  12.445  12.546
51245W        W19474  43.847   3.225   3.078
51246W        W19475  19.210  14.366   3.667
51247W        W19476  42.857  43.452   3.866
51248W        W19477  19.213   7.779   1.437
51249W        W19478   9.971   0.916  14.904
51250W        W19479  32.528  41.814   0.517
51251W        W19480  16.880  24.214  11.460
51252W        W19481  20.827  28.295   0.296
51253W        W19482  32.620   1.927   5.129
51254W        W19483  26.232  29.606  13.954
51255W        W19484  33.546  28.523  13.585
51256W        W19485  23.231  16.200  14.820
51257W        W19486  29.941  39.062   1.813
51258W        W19487   6.398   7.816  14.020
51259W        W19488  42.794   0.026   1.326
51260W        W19489  17.798  42.521   2.489
51261W        W19490  13.931  10.341  14.778
51262W        W19491  23.246  44.301   0.615
51263W        W19492  15.769  29.450  10.614
51264W        W19493  22.388  40.813  10.025
51265W        W19494  24.886  21.735  14.439
51266W        W19495  43.084   8.890  10.066
51267W        W19496   5.822  28.964  13.136
51268W        W19497   5.476  21.800   1.839
51269W        W19498  40.021  29.461  10.456
51270W        W19499  31.278   3.312  13.181
51271W        W19500  20.491  15.122  10.701
51272W        W19501   1.484  31.952  10.618
51273W        W19502  40.674  28.630   4.590
51274W        W19503  22.245   9.293   4.024
51275W        W19504  44.221  10.626   3.951
51276W        W19505  39.834  13.351  14.755
51277W        W19506   0.243  14.677   2.036
51278W        W19507  34.696  15.937   4.245
51279W        W19508  25.354  39.541   2.331
51280W        W19509  21.481  12.216  11.553
51281W        W19510  18.644  15.583   2.672
51282W        W19511  28.903   5.474   0.288
51283W        W19512  41.265  25.244   0.975
51284W        W19513  21.835   0.121   2.847
51285W        W19514  17.945  41.467  11.925
51286W        W19515  25.702   2.903  13.951
51287W        W19516  12.353   4.616  14.378
51288W        W19517  29.172   7.410  12.881
51289W        W19518  34.457  21.045  12.555
51290W        W19519  35.681   4.015   3.582
51291W        W19520   1.766   1.466   1.956
51292W        W19521  24.944  22.518   3.165
51293W        W19522  28.191  38.036  11.483
51294W        W19523  11.319  13.166   0.775
51295W        W19524   3.820  32.104   2.204
51296W        W19525  44.792   3.837   3.129
51297W        W19526   2.171   3.525  10.303
51298W        W19527  37.339  42.477  12.572
51299W        W19528   6.391  32.962  10.561
51300W        W19529   2.841  36.602  14.996
51301W        W19530  24.506  19.050  13.839
51302W        W19531  26.523  38.973   1.168
51303W        W19532  16.069  22.592  11.580
51304W        W19533  35.305   6.711  12.970
51305W        W19534  41.135  30.860   1.944
51306W        W19535   6.110  33.384  10.619
51307W        W19536  41.403  26.512  13.349
51308W        W19537   3.385  20.869  12.025
51309W        W19538   5.795  42.254   0.937
51310W        W19539  35.125   6.715  14.540
51311W        W19540  21.193  30.305  13.675
51312W        W19541  11.115  33.442   2.907
51313W        W19542  20.040  10.074  13.826
51314W        W19543   9.278  36.857   4.066
51315W        W19544  42.751  38.877  13.560
51316W        W19545  29.337  11.201  12.397
51317W        W19546  39.575   4.870  12.045
51318W        W19547   2.433   7.908   1.755
51319W        W19548  23.957  20.044   1.870
51320W        W19549  17.926  38.937  13.391
51321W        W19550  21.107  28.007   1.102
51322W        W19551  37.845  27.429  14.529
51323W        W19552  42.537   5.819  10.837
51324W        W19553  14.286  44.744  14.846
51325W        W19554  13.294  22.662   4.567
51326W        W19555  44.533  33.663  10.673
51327W        W19556   9.160  33.963  10.666
51328W        W19557  39.113  12.530   4.887
51329W        W19558  43.413  18.743  12.515
51330W        W19559  39.063  27.611   9.840
51331W        W19560  28.022  15.668   0.717
51332W        W19561  41.859  36.637   3.253
51333W        W19562  29.583  31.497  10.821
51334W        W19563  37.849  39.295  13.435
51335W        W19564   0.649  39.426   4.666
51336W        W19565  21.285   9.193   5.031
51337W        W19566  26.432   3.297  14.444
51338W        W19567  39.268  41.252  12.100
51339W        W19568  44.477   5.139   4.549
51340W        W19569  38.040  38.043  12.476
51341W        W19570  27.084   7.266   0.377
51342W        W19571  30.108  30.547  14.793
51343W        W19572  28.221   5.201   1.010
51344W        W19573  17.724  19.801   1.777
51345W        W19574  33.080   2.696   2.309
51346W        W19575  15.654  25.743  13.099
51347W        W19576  13.957   2.868   4.372
51348W        W19577  36.846   3.802  11.984
51349W        W19578  25.254  23.942   3.145
51350W        W19579  40.115  36.393   0.770
51351W        W19580  35.196   8.549   5.498
51352W        W19581  42.066  10.644   4.616
51353W        W19582  22.510  30.586  10.824
51354W        W19583  22.128  24.603  14.003
51355W        W19584  41.403  41.689   3.885
51356W        W19585   9.297  44.862  10.608
51357W        W19586   7.602  26.002  12.290
51358W        W19587  43.855  18.124   0.009
51359W        W19588  28.441  27.069   2.924
51360W        W19589  28.506  13.482  12.901
51361W        W19590  21.594  22.966  10.599
51362W        W19591   7.309  24.052  14.402
51363W        W19592  29.515  25.781  13.460
51364W        W19593  38.754  22.207  10.273
51365W        W19594  41.261   7.961   1.937
51366W        W19595   1.391   8.343  10.815
51367W        W19596  36.002  31.937   1.132
51368W        W19597  22.240  36.393   3.635
51369W        W19598   6.637  27.656   1.797
51370W        W19599  36.857  37.231   3.315
51371W        W19600  22.345  30.409  13.192
51372W        W19601   7.418  43.203   1.948
51373W        W19602  43.706  33.343  14.513
51374W        W19603  35.751  26.979   3.337
51375W        W19604  25.038  22.711  11.838
51376W        W19605  13.375   4.302  12.526
51377W        W19606  14.246  23.618   2.308
51378W        W19607  17.150  13.361   1.155
51379W        W19608  34.919  22.255  11.208
51380W        W19609   7.815  42.861  13.674
51381W        W19610  17.102  21.170   1.813
51382W        W19611  38.122   4.933   2.091
51383W        W19612   0.278   1.853   5.168
51384W        W19613   5.678   0.378  11.188
51385W        W19614   5.197  39.076   1.585
51386W        W19615  18.989   2.670   1.341
51387W        W19616  15.620  29.519   4.465
51388W        W19617   7.237   2.262   1.906
51389W        W19618  27.945   2.332   3.234
51390W        W19619   8.559   1.121  12.830
51391W        W19620  15.924  19.053   4.665
51392W        W19621  27.825  34.082  10.997
51393W        W19622  40.057   7.844   3.737
51394W        W19623  33.948  13.736   0.873
51395W        W19624   3.863  27.666   1.376
51396W        W19625  18.043   6.399  14.951
51397W        W19626  30.974  25.528   1.393
51398W        W19627   9.171  37.565   0.956
51399W        W19628  21.589  36.938   1.754
51400W        W19629  43.897  13.696  14.253
51401W        W19630  10.168  18.754   0.360
51402W        W19631  25.482  31.292  11.898
51403W        W19632  39.349   8.888  14.185
51404W        W19633  42.975  12.250  10.735
51405W        W19634  30.180  35.291   2.822
51406W        W19635   3.587  25.014  12.449
51407W        W19636  35.433  14.114  10.710
51408W        W19637  22.656  27.510   0.447
51409W        W19638   3.212  12.313   2.778
51410W        W19639  21.133  32.964  10.134
51411W        W19640  22.537  24.002  14.874
51412W        W19641  34.530  21.184   3.387
51413W        W19642  35.430  34.450   4.451
51414W        W19643  41.931   5.873   3.696
51415W        W19644   2.713  31.680  10.409
51416W        W19645  41.011  15.081   3.706
51417W        W19646  23.557   1.247   1.756
51418W        W19647  30.657   0.010   2.816
51419W        W19648  33.514  19.793  12.510
51420W        W19649  19.130  36.609  14.821
51421W        W19650   9.775  13.827   3.276
51422W        W19651  42.501  36.917  14.410
51423W        W19652  22.669  32.122   1.246
51424W        W19653  35.533  19.981  12.788
51425W        W19654  33.533  16.837   2.296
51426W        W19655   6.774  14.724   4.075
51427W        W19656  36.806  28.715   4.705
51428W        W19657  35.104  38.979  13.371
51429W        W19658   7.780   3.873   2.348
51430W        W19659   3.383  30.666  11.263
51431W        W19660  34.078  39.428   4.223
51432W        W19661  16.389  31.580   1.687
51433W        W19662  19.487  39.935   4.225
51434W        W19663  30.882   8.490  13.075
51435W        W19664  11.734   5.799   0.473
51436W        W19665  35.424   9.477   2.819
51437W        W19666  18.967  26.038  11.087
51438W        W19667  27.285  34.364   0.439
51439W        W19668  43.758  15.574   3.621
51440W        W19669  32.507  26.942  14.063
51441W        W19670  26.759  37.402   1.317
51442W        W19671  11.136  42.174  12.599
51443W        W19672  25.854  42.528   2.316
51444W        W19673  36.633  39.595  10.794
51445W        W19674  12.164  44.066  13.907
51446W        W19675  44.543  37.564  11.646
51447W        W19676  32.835  26.544  13.888
51448W        W19677  30.857  41.378  13.371
51449W        W19678  25.474  30.416   2.255
51450W        W19679  27.984  21.615   0.327
51451W        W19680  27.439  22.642   2.337
51452W        W19681  27.432  25.815   3.803
51453W        W19682  16.083  42.390   4.369
51454W        W19683  20.130   7.969  14.819
51455W        W19684  31.639  25.541   0.208
51456W        W19685  39.250  29.940   0.939
51457W        W19686  31.041  35.578   0.709
51458W        W19687  25.910   3.050   0.770
51459W        W19688   3.925  18.799   4.763
51460W        W19689  17.247  28.507   4.862
51461W        W19690  27.313  43.810  14.501
51462W        W19691   0.526  31.643   1.914
51463W        W19692  33.666  31.516   3.704
51464W        W19693  28.500  26.043  12.374
51465W        W19694  11.375   6.177  12.010
51466W        W19695  14.626  26.241  12.889
51467W        W19696   0.337  11.402   0.039
51468W        W19697   9.650  12.899   0.640
51469W        W19698  22.579   0.481  11.673
51470W        W19699  22.695  10.094   3.172
51471W        W19700  32.184  15.702   4.091
51472W        W19701  15.497  40.738  12.711
51473W        W19702  23.770  43.247  14.815
51474W        W19703  44.479  25.487   3.111
51475W        W19704   9.087  23.748   2.131
51476W        W19705  43.727  24.540  14.528
51477W        W19706  23.079   9.791  10.804
51478W        W19707  39.819  18.325  13.076
51479W        W19708  40.807   1.254  11.066
51480W        W19709  10.399  20.309   0.872
51481W        W19710  11.347  22.102  10.730
51482W        W19711   7.745   7.725   4.260
51483W        W19712  27.531  10.981  10.258
51484W        W19713  16.380  33.565   0.199
51485W        W19714  40.482  22.062   1.766
51486W        W19715  19.852  31.184   1.391
51487W        W19716  16.776  13.769   2.326
51488W        W19717  33.449  13.860  14.262
51489W        W19718  22.513   5.259  11.129
51490W        W19719  41.272   6.498   0.747
51491W        W19720  12.662  38.101   0.415
51492W        W19721  10.392   8.130  12.507
51493W        W19722  11.400  16.560   4.112
51494W        W19723   9.579  25.876   1.840
51495W        W19724  19.847  40.830  11.064
51496W        W19725  32.009  38.820  12.971
51497W        W19726  12.529  40.336   3.815
51498W        W19727   4.694  12.780   2.199
51499W        W19728  10.755   1.893   0.221
51500W        W19729  11.862  15.838   4.655
51501W        W19730  42.958   9.956   3.839
51502W        W19731  13.923  26.101   1.826
51503W        W19732  36.061  43.726   4.341
51504W        W19733  27.532  11.053  12.575
51505W        W19734  20.244   6.521  12.852
51506W        W19735  33.460  35.395   2.447
51507W        W19736  13.618  29.876   0.795
51508W        W19737  42.804  40.201   1.730
51509W        W19738  28.614  14.581   4.760
51510W        W19739   6.889  31.563   3.794
51511W        W19740  12.911  37.517  13.881
51512W        W19741   6.350  31.232   1.364
51513W        W19742   4.320  19.125   4.689
51514W        W19743  35.752  14.768  11.090
51515W        W19744  15.815   6.880   3.675
51516W        W19745   3.360  18.546   3.856
51517W        W19746  28.889  27.084  11.571
51518W        W19747   0.322  29.461  11.575
51519W        W19748   4.845  41.103  11.991
51520W        W19749  31.462  30.896  14.824
51521W        W19750   1.289  14.848   3.431
51522W        W19751  29.488   8.723  13.046
51523W        W19752   5.739  38.863  11.184
51524W        W19753  35.329  33.344  12.017
51525W        W19754  20.242  36.607   0.543
51526W        W19755   3.092  31.977   4.094
51527W        W19756   5.338  16.651   3.322
51528W        W19757  27.195  18.478   4.282
51529W        W19758  17.963  38.175   1.481
51530W        W19759   1.174  21.490   0.947
51531W        W19760  42.367  28.355   3.239
51532W        W19761  24.803  10.277   5.489
51533W        W19762  15.766  38.335   2.164
51534W        W19763  38.647  34.579   0.771
51535W        W19764  10.604  16.562  10.675
51536W        W19765  12.661   0.942   0.476
51537W        W19766  17.979  11.415   1.837
51538W        W19767   2.780  23.710  11.065
51539W        W19768  23.705  30.049  13.173
51540W        W19769  26.921  35.622  12.995
51541W        W19770  10.736  33.771  12.767
51542W        W19771   2.722   0.928   4.390
51543W        W19772  36.038   4.735   0.270
51544W        W19773  37.920  35.819  14.969
51545W        W19774   7.374   8.860  12.363
51546W        W19775  24.517  26.178  11.400
51547W        W19776   2.384  23.048   1.567
51548W        W19777   5.892  17.774  10.700
51549W        W19778  15.323  19.699  10.821
51550W        W19779  40.586   9.468  13.007
51551W        W19780  31.324   8.298  13.952
51552W        W19781   2.766  28.162   4.176
51553W        W19782  34.856  23.567   2.199
51554W        W19783  18.337  14.385  14.789
51555W        W19784  21.228  16.034  10.648
51556W        W19785  39.396   7.823   1.811
51557W        W19786  33.617  42.553   0.495
51558W        W19787  34.006  22.077  12.731
51559W        W19788  34.055  39.862  12.855
51560W        W19789  20.095  14.231   4.151
51561W        W19790   1.985  17.225   3.712
51562W        W19791  13.951  34.895  14.829
51563W        W19792   7.371   3.620   4.164
51564W        W19793  11.403   4.783   1.895
51565W        W19794  39.421  17.235  14.259
51566W        W19795  26.523  38.385   3.244
51567W        W19796   3.435  38.998  13.894
51568W        W19797  16.807   9.085   3.722
51569W        W19798  26.221   4.276   4.050
51570W        W19799  27.718  39.891   3.281
51571W        W19800   2.479  15.681   4.644
51572W        W19801  44.842   9.389  13.239
51573W        W19802  18.603   8.862  14.950
51574W        W19803  36.422  30.082   3.406
51575W        W19804  24.145  43.775   0.695
51576W        W19805  19.049  30.546  13.015
51577W        W19806   4.969  36.473  14.907
51578W        W19807  35.060  41.186   4.621
51579W        W19808  26.127  26.592  13.646
51580W        W19809  38.775  32.012   5.154
51581W        W19810   2.647  18.166  13.644
51582W        W19811  28.115  40.507  10.211
51583W        W19812  21.721  19.027  10.738
51584W        W19813  11.570   4.167   3.716
51585W        W19814  25.352  34.712  14.750
51586W        W19815   5.138   9.857   0.314
51587W        W19816   2.199  10.160  11.093
51588W        W19817   6.798  34.772   0.526
51589W        W19818   9.803  37.141   0.187
51590W        W19819  33.131  42.528   1.660
51591W        W19820  25.666  27.628  13.624
51592W        W19821  21.430  13.046  14.781
51593W        W19822  13.787  30.676   1.764
51594W        W19823  15.132  25.776  10.798
51595W        W19824  40.843  33.394  11.466
51596W        W19825  23.068  24.452  13.751
51597W        W19826  23.181  16.508  14.384
51598W        W19827  28.080  11.941   0.917
51599W        W19828  11.858  22.953   0.157
51600W        W19829  28.221  11.918   3.832
51601W        W19830  39.054  26.394   1.770
51602W        W19831  43.012   0.727   0.836
51603W        W19832  12.581  10.180   2.730
51604W        W19833  41.291  13.686   3.817
51605W        W19834  34.565  30.387   1.178
51606W        W19835   2.240  37.878   1.993
51607W        W19836  39.370  19.697  13.125
51608W        W19837  41.206   6.161   0.222
51609W        W19838  21.000  40.267  12.958
51610W        W19839  12.293  39.771  14.292
51611W        W19840  35.971  15.081   3.338
51612W        W19841  23.584  35.761  10.893
51613W        W19842  25.888  43.346  12.455
51614W        W19843  36.175  40.052   2.270
51615W        W19844  24.269  44.324  10.680
51616W        W19845  33.769   7.259  10.103
51617W        W19846   1.556  20.174  12.017
51618W        W19847   9.165  26.481   2.647
51619W        W19848  30.382  22.043   2.073
51620W        W19849  29.450  15.767   1.358
51621W        W19850  26.469  33.873  12.042
51622W        W19851  23.757   4.623  12.387
51623W        W19852  42.460  12.789   4.436
51624W        W19853  19.603   6.616   1.701
51625W        W19854  36.073  43.378  11.498
51626W        W19855   7.422  14.377  10.613
51627W        W19856  38.513  27.247  13.508
51628W        W19857  33.467  34.433  11.006
51629W        W19858  42.537   5.348  11.622
51630W        W19859  13.155   4.760  12.427
51631W        W19860  23.071  22.541  14.265
51632W        W19861  17.141  17.356   4.140
51633W        W19862   1.412  34.390   0.244
51634W        W19863   9.509   9.229   3.253
51635W        W19864   0.876   9.889  10.469
51636W        W19865   5.793  39.843   4.740
51637W        W19866  40.840   4.391   0.586
51638W        W19867  29.143  42.383   3.184
51639W        W19868  32.374  13.753   4.148
51640W        W19869  26.617  13.314  12.344
51641W        W19870   9.113  29.278   3.718
51642W        W19871  17.535  10.285  11.960
51643W        W19872   7.968  11.665  10.795
51644W        W19873  39.408  28.918   0.026
51645W        W19874  37.574   3.574  12.515
51646W        W19875  39.510  26.034  14.529
51647W        W19876  20.230  17.302   4.674
51648W        W19877  41.001  37.088   0.309
51649W        W19878   6.921  14.077  14.383
51650W        W19879  18.051  29.857  13.557
51651W        W19880  11.090  42.595  14.896
51652W        W19881  24.151  38.832   4.742
51653W        W19882  40.750   3.248   2.854
51654W        W19883   8.871   9.688  13.828
51655W        W19884   5.743   2.263   1.837
51656W        W19885  41.926   8.171   0.291
51657W        W19886   4.434   8.456  12.063
51658W        W19887   7.777   7.985  14.418
51659W        W19888  44.129  22.063  14.775
51660W        W19889   5.682  25.620  13.440
51661W        W19890   9.132  21.051  10.233
51662W        W19891  32.219  17.446   4.121
51663W        W19892  36.515  23.262  11.555
51664W        W19893  42.087   9.056   1.969
51665W        W19894  28.624  36.128  14.261
51666W        W19895  12.872  18.018   1.770
51667W        W19896  32.998  36.562   2.408
51668W        W19897  39.343  27.526   0.943
51669W        W19898  16.115  11.911   1.346
51670W        W19899  12.166  25.257  10.625
51671W        W19900  14.812  16.406   1.423
51672W        W19901  14.309  22.615  11.205
51673W        W19902  18.117  44.605   3.344
51674W        W19903  21.328   3.893  11.207
51675W        W19904  23.271  25.712  10.628
51676W        W19905  25.649  26.565  14.918
51677W        W19906  15.155  21.720   2.261
51678W        W19907   4.403   5.685   1.567
51679W        W19908   2.411  30.153   0.737
51680W        W19909  14.604  21.181  10.540
51681W        W19910  27.255  42.972  14.832
51682W        W19911   0.282  43.837   0.299
51683W        W19912  20.719   6.153   1.788
51684W        W19913   8.903  28.860  13.777
51685W        W19914   3.686  15.510  12.111
51686W        W19915  36.613   4.366   2.609
51687W        W19916  25.810  37.965   0.336
51688W        W19917   9.742  31.545  14.462
51689W        W19918  31.978   9.757  12.165
51690W        W19919  29.185   4.726  10.589
51691W        W19920  30.898  42.905   4.088
51692W        W19921  12.698  33.413   4.183
51693W        W19922   7.808  13.423   1.115
51694W        W19923  28.921  33.532   1.454
51695W        W19924  39.297  10.574  12.281
51696W        W19925   9.923  23.616  14.929
51697W        W19926   6.614  16.141  11.091
51698W        W19927  37.581  22.831  12.098
51699W        W19928  17.538  31.462  14.094
51700W        W19929  38.379  37.087  10.589
51701W        W19930  31.524   8.897  13.432
51702W        W19931  31.472  25.016   1.768
51703W        W19932   6.639  13.532  14.557
51704W        W19933  30.161  25.923   1.703
51705W        W19934  35.521  30.469   4.720
51706W        W19935   9.999  31.015  14.978
51707W        W19936  25.568  33.288  13.053
51708W        W19937  13.445   3.407   3.037
51709W        W19938  31.146  21.753  11.128
51710W        W19939  38.050  12.112  13.533
51711W        W19940   8.814  39.440  12.109
51712W        W19941  31.652  40.651   4.550
51713W        W19942   8.433  16.848  13.831
51714W        W19943  17.750  11.144   2.998
51715W        W19944   7.339  32.072  13.014
51716W        W19945  29.917   4.313  14.447
51717W        W19946   7.495  16.567   1.127
51718W        W19947  42.904  28.157  14.398
51719W        W19948  31.586   7.019  12.498
51720W        W19949  19.924  16.180  12.181
51721W        W19950  39.590  32.139   4.118
51722W        W19951  12.180  18.754  13.590
51723W        W19952  13.707  16.636   1.036
51724W        W19953  14.267  33.095   0.604
51725W        W19954  27.708  43.291   1.223
51726W        W19955  35.869  23.492  12.908
51727W        W19956  20.822  22.537  14.940
51728W        W19957  41.458  31.367   5.008
51729W        W19958  10.371  21.453   1.433
51730W        W19959  27.899  35.911  10.128
51731W        W19960  33.068  41.754  12.208
51732W        W19961  12.553  10.365   0.390
51733W        W19962  22.389  33.911  10.119
51734W        W19963  11.651  38.480   4.405
51735W        W19964  14.262  13.737   3.120
51736W        W19965  11.371  34.865   3.223
51737W        W19966  16.072  24.577  11.553
51738W        W19967   4.609  17.735  12.001
51739W        W19968  20.507   4.714  10.530
51740W        W19969  42.092   7.815   0.804
51741W        W19970  23.183   8.838  11.228
51742W        W19971  33.686  33.109  14.010
51743W        W19972  42.329  20.598  12.812
51744W        W19973   1.218  14.137   1.352
51745W        W19974  34.457  42.798   4.932
51746W        W19975  32.856  29.030   1.844
51747W        W19976  18.280   7.108   2.760
51748W        W19977  25.166  21.986  14.811
51749W        W19978   5.424  36.592  12.188
51750W        W19979  21.031  37.546  14.882
51751W        W19980  44.574  29.659   1.749
51752W        W19981  25.618  34.687  12.421
51753W        W19982  43.829  34.419   4.208
51754W        W19983  42.379  18.563  12.522
51755W        W19984  42.899  26.991   3.817
51756W        W19985  29.087  34.889  14.334
51757W        W19986  14.189  25.493  13.846
51758W        W19987  31.958  37.783   4.182
51759W        W19988   1.726  18.496  13.333
51760W        W19989  18.039  19.716   2.508
51761W        W19990  41.273  39.929  13.782
51762W        W19991  31.373  23.065  14.900
51763W        W19992  27.215   8.902   2.239
51764W        W19993  10.202  14.372   2.693
51765W        W19994  21.016  15.619  14.378
51766W        W19995  27.278  43.403   4.585
51767W        W19996   3.987  21.160  13.010
51768W        W19997  16.208   2.908   0.320
51769W        W19998  22.532  27.081  14.112
51770W        W19999  15.238  31.125   0.353
51771W        W20000  16.601  35.468  10.709
51772W        W20001  28.884  22.380   0.994
51773W        W20002   7.276  13.771  13.108
51774W        W20003  16.475  13.659   4.249
51775W        W20004  18.541  19.961  11.961
51776W        W20005  30.141  43.087  14.805
51777W        W20006   7.424  29.591   1.464
51778W        W20007  30.831   2.945  13.058
51779W        W20008   3.811   4.219  14.371
51780W        W20009  10.124   3.707   3.721
51781W        W20010  24.449  38.716  12.924
51782W        W20011  37.416   3.469   3.850
51783W        W20012  41.581  11.162  13.479
51784W        W20013  29.912  15.142  12.030
51785W        W20014  23.473  21.782   4.063
51786W        W20015  35.733  34.527  13.582
51787W        W20016  38.338  36.835  11.021
51788W        W20017  44.929  27.639  11.943
51789W        W20018  18.273  28.734   0.648
51790W        W20019  21.745  37.829   3.958
51791W        W20020  29.296  30.513  13.681
51792W        W20021  27.566  33.288   3.012
51793W        W20022  10.834  20.005  14.053
51794W        W20023  37.351   9.386  12.253
51795W        W20024   2.157  16.198   1.790
51796W        W20025   1.339  31.384  13.265
51797W        W20026   1.012  43.944  12.658
51798W        W20027  33.390   9.792   3.938
51799W        W20028   8.592   2.973   4.642
51800W        W20029  12.734  14.715  12.285
51801W        W20030  34.346  43.787   1.061
51802W        W20031  30.409  28.554   3.563
51803W        W20032  14.666  24.931   3.381
51804W        W20033  27.990   2.574  11.637
51805W        W20034  32.162  15.033   0.534
51806W        W20035  11.734  33.073  12.551
51807W        W20036  44.454  22.492  12.488
51808W        W20037  27.765  41.592   5.056
51809W        W20038  28.689  21.455   3.718
51810W        W20039  19.935  38.418  13.883
51811W        W20040   8.217  42.738   1.328
51812W        W20041   3.749  11.222   3.895
51813W        W20042  36.170  25.647  11.550
51814W        W20043   3.346  32.360  12.327
51815W        W20044  28.213   6.424   4.591
51816W        W20045  17.512  19.052   0.810
51817W        W20046  21.121  32.962   0.827
51818W        W20047  27.051  10.312   4.185
51819W        W20048   3.263  28.114  14.636
51820W        W20049  19.104  29.576   0.481
51821W        W20050  42.223  13.623  14.020
51822W        W20051  23.942  11.469   1.814
51823W        W20052   3.298  18.786   2.227
51824W        W20053  40.278  12.326   3.958
51825W        W20054  27.143  29.712   3.706
51826W        W20055  24.131  23.011  13.966
51827W        W20056   7.360  17.930  12.112
51828W        W20057  44.525  25.965   3.699
51829W        W20058  31.417  23.811  12.125
51830W        W20059  33.987  22.554   2.867
51831W        W20060  22.412  13.509  13.117
51832W        W20061  22.659   7.232   0.883
51833W        W20062  34.124  23.077   3.765
51834W        W20063  27.911  32.179  14.551
51835W        W20064  41.353  19.013   1.001
51836W        W20065  10.040   4.123  12.635
51837W        W20066  17.207  29.105  12.951
51838W        W20067   4.297  15.477   4.156
51839W        W20068  26.958  33.381   4.115
51840W        W20069  15.605  36.551   4.715
51841W        W20070   1.349  44.968   4.748
51842W        W20071  12.737  10.871   4.167
51843W        W20072  29.700  38.468   4.874
51844W        W20073  22.076  36.787   2.350
51845W        W20074  32.151  31.910   1.368
51846W        W20075  30.597  18.657   1.620
51847W        W20076  41.821  41.929  13.460
51848W        W20077   2.435  32.614  11.872
51849W        W20078  44.212   8.612   3.517
51850W        W20079  24.923   2.380  13.559
51851W        W20080   7.100   1.462  12.952
51852W        W20081  43.953  21.984   3.893
51853W        W20082   9.173   6.786  10.776
51854W        W20083  40.901  22.716  13.706
51855W        W20084  27.417  36.951   0.282
51856W        W20085  17.471  21.475   1.495
51857W        W20086  14.172  17.183   4.105
51858W        W20087  26.188  20.280   3.327
51859W        W20088  25.641   9.773   3.178
51860W        W20089  26.083  12.109   2.706
51861W        W20090  36.973  20.774   2.865
51862W        W20091  31.277  38.570  10.331
51863W        W20092   3.636  26.627  12.811
51864W        W20093   1.847  24.498   1.821
51865W        W20094  24.011  38.533  13.250
51866W        W20095  31.755  10.114   5.418
51867W        W20096  34.465  31.398  10.646
51868W        W20097  10.460   3.211   4.523
51869W        W20098  15.176  44.788  10.727
51870W        W20099  29.826   2.185  13.755
51871W        W20100  40.616   4.889  10.413
51872W        W20101  43.251  31.600   2.692
51873W        W20102  18.568  32.598   2.856
51874W        W20103  36.934  17.271  11.104
51875W        W20104  10.677  27.899  13.465
51876W        W20105  32.486   2.939   4.396
51877W        W20106   6.251   5.597  12.945
51878W        W20107  32.359  14.268  10.350
51879W        W20108  33.449  36.324  11.462
51880W        W20109  36.162  17.681   2.398
51881W        W20110   8.563  39.547   2.853
51882W        W20111  21.990   6.896  12.532
51883W        W20112  16.315   2.917  12.002
51884W        W20113  10.388  39.531  12.536
51885W        W20114   5.149   5.180   0.224
51886W        W20115  30.993  28.495  10.610
51887W        W20116  18.573  22.619   4.192
51888W        W20117  33.087   4.003   1.943
51889W        W20118  14.752   5.811  13.248
51890W        W20119  31.429  28.444   1.295
51891W        W20120  44.520  44.111  14.151
51892W        W20121  31.090  43.881  11.125
51893W        W20122  20.054  32.466  14.031
51894W        W20123  23.717  19.639  13.876
51895W        W20124  18.127  42.350  13.439
51896W        W20125  27.396  34.662   3.692
51897W        W20126   8.202  16.042   1.891
51898W        W20127   0.862  37.502   4.113
51899W        W20128  14.039  35.146   4.532
51900W        W20129  31.325   6.079  10.103
51901W        W20130  35.157   0.724  10.348
51902W        W20131   1.849  21.712  13.521
51903W        W20132  42.609  36.405  14.383
51904W        W20133  43.545  40.387  12.525
51905W        W20134   3.621  16.661   3.589
51906W        W20135   3.173   0.906   4.673
51907W        W20136   0.448   1.847   4.662
51908W        W20137   8.648   6.645  10.673
51909W        W20138  41.414  44.513   3.269
51910W        W20139  38.003   2.359   0.695
51911W        W20140   5.013  31.009   2.303
51912W        W20141   1.373  10.569   0.457
51913W        W20142  21.587  20.717  13.011
51914W        W20143  11.166  38.667   4.145
51915W        W20144   5.701   0.430   2.795
51916W        W20145  33.898   6.276  11.912
51917W        W20146  27.405  43.826  13.936
51918W        W20147  28.764  44.324  13.978
51919W        W20148  20.771  17.573   3.184
51920W        W20149  13.591   9.599  12.334
51921W        W20150  13.189  29.704   4.425
51922W        W20151  21.144  40.551   3.665
51923W        W20152  27.805   4.674  10.692
51924W        W20153  27.134   1.381   1.534
51925W        W20154  18.970  15.796  11.170
51926W        W20155  29.641   5.858   0.251
51927W        W20156   6.604  32.666   3.689
51928W        W20157  31.126   3.662  14.981
51929W        W20158  35.537  29.506  10.914
51930W        W20159  22.448   9.915  10.064
51931W        W20160  42.739  31.424  13.037
51932W        W20161  15.083  28.751   1.999
51933W        W20162   1.746  36.223  12.987
51934W        W20163  30.256  31.678   4.612
51935W        W20164  21.631  27.470   1.707
51936W        W20165  28.905  11.166  13.902
51937W        W20166  44.319  18.484  14.240
51938W        W20167   0.033   6.128   1.124
51939W        W20168   4.863   8.900   5.076
51940W        W20169  39.325  15.210  14.406
51941W        W20170   8.287  42.279  14.838
51942W        W20171   0.056  21.103  14.686
51943W        W20172  33.950   9.312   4.462
51944W        W20173  44.915  35.007   0.627
51945W        W20174  11.179  11.161   1.795
51946W        W20175   4.216   2.683  11.049
51947W        W20176  37.747  30.253  11.537
51948W        W20177  40.301  40.023  11.934
51949W        W20178   8.569  33.419   2.787
51950W        W20179  22.227  21.763  13.959
51951W        W20180  13.253  20.320  10.355
51952W        W20181  22.336  25.294   4.186
51953W        W20182  42.871  18.213  14.816
51954W        W20183  39.128  22.287  11.579
51955W        W20184  22.198  42.724  13.484
51956W        W20185  20.655  34.695   3.057
51957W        W20186   2.451  29.967   2.567
51958W        W20187  22.800  13.762  11.484
51959W        W20188  37.027  29.524  14.708
51960W        W20189  33.582  32.848   2.206
51961W        W20190  23.702  24.531  10.604
51962W        W20191  23.958  19.391   4.852
51963W        W20192  19.068  28.563   0.075
51964W        W20193  27.503   9.677   1.835
51965W        W20194  42.833  21.235  12.783
51966W        W20195  35.238   7.425  13.822
51967W        W20196  40.026  29.906   0.605
51968W        W20197  23.080  25.212   0.991
51969W        W20198  32.316   0.513   0.345
51970W        W20199  24.279  24.171   4.074
51971W        W20200  24.349  10.577  13.485
51972W        W20201   4.069  20.660  14.898
51973W        W20202  25.974  12.159  14.997
51974W        W20203   7.882  18.112  13.439
51975W        W20204   5.003  12.186   2.326
51976W        W20205   6.804  32.925   0.998
51977W        W20206   1.980  26.552   2.833
51978W        W20207  21.087  11.315  12.958
51979W        W20208  27.561  34.068   4.308
51980W        W20209  34.004  19.329   0.675
51981W        W20210  37.410   9.918   0.479
51982W        W20211  26.391  37.358  11.459
51983W        W20212  15.136  25.720   0.201
51984W        W20213  32.990   0.054   3.245
51985W        W20214   9.726  39.998   0.834
51986W        W20215  12.185  23.517  13.892
51987W        W20216  29.245  36.691   0.382
51988W        W20217   6.903  43.756   4.708
51989W        W20218  25.460  34.217  14.617
51990W        W20219  18.167  35.783  10.021
51991W        W20220  18.493   0.268  11.688
51992W        W20221  40.599  13.268   1.998
51993W        W20222   0.236  10.184   0.879
51994W        W20223  17.610  25.317  14.123
51995W        W20224   6.669  24.592   4.181
51996W        W20225  38.832  20.761  14.973
51997W        W20226  44.238  18.293  11.843
51998W        W20227  23.110  32.123  11.118
51999W        W20228  16.361  19.555  14.445
52000W        W20229   0.832  37.506  11.594
52001W        W20230  32.638  27.338   0.841
52002W        W20231  10.690  12.149  11.122
52003W        W20232  40.930  22.799   1.878
52004W        W20233  19.283  42.745  14.398
52005W        W20234  36.590  36.906   2.084
52006W        W20235  31.024  37.923   4.184
52007W        W20236  44.797  36.538  13.685
52008W        W20237   5.759  22.422   0.347
52009W        W20238  39.098  36.365  13.046
52010W        W20239   3.017  33.282   4.948
52011W        W20240  41.486  33.287  13.945
52012W        W20241  28.849  11.284  12.935
52013W        W20242  26.014  22.251  13.834
52014W        W20243  38.893  23.350  12.472
52015W        W20244   0.085  21.881   0.096
52016W        W20245   9.546  14.196   4.830
52017W        W20246  30.207  16.860  11.925
52018W        W20247  21.113  18.341  11.266
52019W        W20248  25.470  38.962  12.078
52020W        W20249  10.923  16.232  11.836
52021W        W20250  43.462  18.929  13.880
52022W        W20251  15.843  32.422   1.307
52023W        W20252  25.745  40.578  11.088
52024W        W20253  22.284   4.787   2.027
52025W        W20254  20.179  38.307  13.417
52026W        W20255  14.368  24.626   2.213
52027W        W20256  16.487   2.852   0.880
52028W        W20257  11.576  26.949  12.788
52029W        W20258  30.342  34.883   4.107
52030W        W20259  34.530   5.615   4.220
52031W        W20260  18.649  19.242   1.323
52032W        W20261  30.587  28.742  10.393
52033W        W20262  26.709   7.065   0.924
52034W        W20263   8.609  40.617  12.562
52035W        W20264  36.488  33.151   1.822
52036W        W20265  15.582   7.283   2.774
52037W        W20266   1.724  42.764   1.425
52038W        W20267   0.633   2.216   0.418
52039W        W20268   4.880   5.968   1.625
52040W        W20269  39.367  28.374  13.925
52041W        W20270  37.372  39.319  13.774
52042W        W20271  41.793  41.183  13.065
52043W        W20272  15.752  22.945   0.197
52044W        W20273  26.658   0.687  12.616
52045W        W20274  42.882  22.100   0.545
52046W        W20275  33.103   3.808   0.034
52047W        W20276  27.388  14.203   4.735
52048W        W20277  22.240   6.734   3.287
52049W        W20278  42.354   6.675   2.352
52050W        W20279  15.293   2.969   3.695
52051W        W20280  37.101  23.627  13.565
52052W        W20281  12.849  25.645  12.552
52053W        W20282  13.453  21.387  12.905
52054W        W20283  27.270  31.581   0.059
52055W        W20284  26.941  17.691   1.307
52056W        W20285  21.530  39.382  12.559
52057W        W20286  41.407   6.943   3.835
52058W        W20287  22.651  29.870  14.939
52059W        W20288  21.862  37.251  11.973
52060W        W20289  34.565  18.736  10.279
52061W        W20290  41.841  24.101   0.189
52062W        W20291  10.655  39.748  10.664
52063W        W20292  18.935  31.824  12.547
52064W        W20293  14.220   7.336   1.820
52065W        W20294  41.323  35.970  14.398
52066W        W20295  14.769   7.195   4.665
52067W        W20296   3.626   6.806  10.609
52068W        W20297  13.489  43.919   0.931
52069W        W20298  38.767  10.470   9.776
52070W        W20299  42.907  17.741  14.029
52071W        W20300  20.444  35.990   3.796
52072W        W20301  35.101  27.148  12.410
52073W        W20302  39.137   6.819   2.428
52074W        W20303  22.765   9.678  14.897
52075W        W20304  39.476  16.470  12.992
52076W        W20305  41.380  42.120   0.174
52077W        W20306  18.027  17.517  11.867
52078W        W20307  36.780  40.050  11.002
52079W        W20308   2.439   3.679   1.957
52080W        W20309  34.481  33.122  12.546
52081W        W20310  34.136  28.325   3.861
52082W        W20311  41.786  21.940  10.715
52083W        W20312  43.542  28.517   1.847
52084W        W20313  25.751  31.452  12.750
52085W        W20314  29.025  26.058   4.693
52086W        W20315  18.836  18.502   5.267
52087W        W20316  40.880  34.858   2.888
52088W        W20317  13.101  26.995   2.273
52089W        W20318  24.402  30.986   1.467
52090W        W20319   4.697  17.579   0.396
52091W        W20320   9.368  21.730   3.652
52092W        W20321  22.946  35.342   2.093
52093W        W20322   0.328  34.469   2.480
52094W        W20323   3.345  20.144   3.045
52095W        W20324  26.649  29.081  14.425
52096W        W20325  43.684   8.560  10.863
52097W        W20326  15.723  44.291   2.352
52098W        W20327   1.133   4.150   4.639
52099W        W20328   7.258  22.496   5.010
52100W        W20329  17.821   0.787   2.309
52101W        W20330   9.217  40.839  10.598
52102W        W20331  22.706  12.628   4.656
52103W        W20332  29.083  41.105  12.044
52104W        W20333  25.212  14.651   3.581
52105W        W20334  40.628  10.613   2.200
52106W        W20335   4.362  18.381  11.513
52107W        W20336  18.781  41.649   2.241
52108W        W20337   1.258  32.772   3.224
52109W        W20338  17.288  19.671   0.467
52110W        W20339  33.140   1.488  11.994
52111W        W20340  36.730   5.718  12.586
52112W        W20341   4.460  37.973   4.560
52113W        W20342  14.351  37.542  13.512
52114W        W20343  44.378  28.750   4.280
52115W        W20344  44.304  10.653   3.456
52116W        W20345  16.244  26.048   2.534
52117W        W20346  10.156  34.490  13.960
52118W        W20347   8.087   2.331   2.763
52119W        W20348   1.302  38.472  10.683
52120W        W20349  11.059  26.054  12.674
52121W        W20350  30.934   3.456   2.725
52122W        W20351  40.432  15.900  10.763
52123W        W20352  35.765  34.028  13.433
52124W        W20353  12.422  16.027  11.007
52125W        W20354   5.482  17.115   4.207
52126W        W20355  41.899  37.467   1.726
52127W        W20356   8.480  23.096  13.820
52128W        W20357   9.232  26.988   4.283
52129W        W20358  39.322   7.052  12.936
52130W        W20359   2.490  22.932   1.080
52131W        W20360   3.972  40.972   1.242
52132W        W20361  23.436  20.995  13.457
52133W        W20362  19.826  23.745   9.784
52134W        W20363   2.819   6.666   1.224
52135W        W20364  33.386  24.525  11.909
52136W        W20365   2.900  39.240   4.741
52137W        W20366  31.440  26.648  12.706
52138W        W20367  20.470   5.177  11.404
52139W        W20368  34.369   9.447   9.744
52140W        W20369  35.330  20.163   3.980
52141W        W20370  39.035  25.113   4.091
52142W        W20371  32.593  16.204   1.829
52143W        W20372   9.119  23.050   3.350
52144W        W20373   4.407  27.719   1.850
52145W        W20374  24.918  27.183   3.558
52146W        W20375  21.747  15.387   3.420
52147W        W20376  17.939  16.774  13.647
52148W        W20377  22.306  21.622   0.976
52149W        W20378  17.744   9.506  11.682
52150W        W20379  38.404  41.972  12.047
52151W        W20380   1.869  43.940  11.289
52152W        W20381  29.086   1.217  14.829
52153W        W20382  30.339   2.310  13.806
52154W        W20383   2.279  43.563  11.939
52155W        W20384  17.074   5.807  13.093
52156W        W20385  10.167  11.453   1.788
52157W        W20386  32.582  32.103  11.535
52158W        W20387  39.972  30.393  12.045
52159W        W20388   2.860  17.736  12.397
52160W        W20389   4.961  33.566   3.699
52161W        W20390  44.885   0.269   0.729
52162W        W20391  38.455  23.416   4.608
52163W        W20392  35.486   0.931   3.759
52164W        W20393  20.984  31.828  11.622
52165W        W20394  44.534  42.871  10.136
52166W        W20395  10.152  32.256   1.199
52167W        W20396  41.848   3.649   0.250
52168W        W20397   8.935  18.693   0.805
52169W        W20398   2.808  28.383  11.837
52170W        W20399  39.964  32.127  14.899
52171W        W20400  23.028  30.716   1.667
52172W        W20401  24.970  16.741   0.008
52173W        W20402  19.325   0.305  13.363
52174W        W20403  22.465   8.321  14.858
52175W        W20404  31.501  39.377  14.250
52176W        W20405   0.880  19.120  12.499
52177W        W20406   6.099  41.616  12.420
52178W        W20407   3.153  10.572   1.302
52179W        W20408  17.779  22.883  10.240
52180W        W20409   5.733  11.107  11.505
52181W        W20410  29.629  25.613   1.600
52182W        W20411   3.009  15.704  13.545
52183W        W20412  26.976  39.817   4.694
52184W        W20413   7.401  24.971   3.485
52185W        W20414   3.718  30.642   3.843
52186W        W20415  23.175   9.131   0.385
52187W        W20416   4.184  36.870  11.929
52188W        W20417  23.890  31.594  12.236
52189W        W20418   1.551  14.174   2.734
52190W        W20419  16.594  16.161   0.916
52191W        W20420   3.339   8.071   4.753
52192W        W20421   1.929  30.356   0.276
52193W        W20422  18.359   5.322   3.369
52194W        W20423  27.124   4.526   2.428
52195W        W20424  26.481  17.062  13.536
52196W        W20425  17.830  43.363  10.694
52197W        W20426  31.427  15.435  10.269
52198W        W20427  42.781  33.172   1.196
52199W        W20428  37.641  13.086  12.544
52200W        W20429  35.587  42.005  14.313
52201W        W20430  33.212   3.534  12.545
52202W        W20431   7.753   3.454  10.480
52203W        W20432  16.828  42.408   2.140
52204W        W20433  33.932  39.421  11.093
52205W        W20434  41.002  39.995   1.366
52206W        W20435  24.640   7.846   2.815
52207W        W20436  12.163  35.955   0.963
52208W        W20437  11.203  18.117  10.409
52209W        W20438  12.707  34.520   1.236
52210W        W20439  18.205  33.069  11.452
52211W        W20440  32.500  15.588   3.650
52212W        W20441  33.639  42.449   1.773
52213W        W20442  36.001  40.203  13.796
52214W        W20443   7.332  21.048   0.400
52215W        W20444  28.604   9.641   4.571
52216W        W20445  25.007  44.974   4.321
52217W        W20446  26.811  14.630  12.623
52218W        W20447  10.373  15.682  10.353
52219W        W20448   6.036  34.729   3.729
52220W        W20449  17.614  43.814  11.973
52221W        W20450  17.944  15.171  12.868
52222W        W20451  20.793   6.982   1.190
52223W        W20452  13.625   9.342  14.824
52224W        W20453  16.775   1.818   2.319
52225W        W20454   6.140  36.513  11.233
52226W        W20455  13.291  28.184  12.401
52227W        W20456   1.226  28.117   0.481
52228W        W20457  23.621   6.467   3.244
52229W        W20458  43.778  35.561   3.331
52230W        W20459  42.469   0.996   3.109
52231W        W20460  15.160   0.753   0.291
52232W        W20461  16.764   0.275  10.718
52233W        W20462  39.070  26.099   0.805
52234W        W20463  20.683   2.168   0.531
52235W        W20464   0.508  10.870   4.720
52236W        W20465  33.068  18.711  12.394
52237W        W20466  32.570  34.399   3.636
52238W        W20467  34.898   6.139   2.332
52239W        W20468   2.015   3.589   3.784
52240W        W20469  22.556  40.938   1.036
52241W        W20470  15.618  30.141  12.469
52242W        W20471  37.898  10.502  10.284
52243W        W20472  20.078   8.640  13.947
52244W        W20473  37.037  40.013  14.934
52245W        W20474  24.220  33.312  12.567
52246W        W20475  15.347  19.226  14.886
52247W        W20476  24.663  10.932   1.762
52248W        W20477  42.466  23.930  14.049
52249W        W20478  15.665   3.953   3.764
52250W        W20479  23.785  26.147   2.886
52251W        W20480  43.735  26.115   3.450
52252W        W20481  22.851   3.807  11.024
52253W        W20482  35.244  25.502  14.213
52254W        W20483  14.569  29.964   3.281
52255W        W20484  10.415  42.934  10.598
52256W        W20485  24.898  19.534   4.204
52257W        W20486  42.911  18.984   1.863
52258W        W20487   3.247   7.290  12.826
52259W        W20488  24.523  21.635   4.553
52260W        W20489  42.920  26.884  11.742
52261W        W20490   2.058  34.272  13.402
52262W        W20491  39.373  22.456   4.618
52263W        W20492  39.944   7.238   0.451
52264W        W20493  43.340  10.545   2.340
52265W        W20494   0.483  42.567   5.167
52266W        W20495  44.832  36.895   3.219
52267W        W20496  39.068  41.958   3.676
52268W        W20497  22.047  26.151   2.706
52269W        W20498  14.409  44.542   2.717
52270W        W20499   3.702   9.314   3.715
52271W        W20500  42.306  32.947  10.897
52272W        W20501   2.897   3.313   2.363
52273W        W20502  10.432  40.025  10.080
52274W        W20503  28.651  16.366   3.865
52275W        W20504  14.084  19.767   4.403
52276W        W20505   0.994  33.433  11.679
52277W        W20506  27.042  19.503  12.145
52278W        W20507   4.074  44.288   4.907
52279W        W20508   7.247  35.402   4.563
52280W        W20509   0.170  25.202  14.888
52281W        W20510   0.924   0.299  13.138
52282W        W20511  23.618  42.000   0.231
52283W        W20512  30.162   1.491   0.806
52284W        W20513  37.637   2.903  14.565
52285W        W20514  15.634   3.376   2.207
52286W        W20515   4.347  21.794   1.175
52287W        W20516  20.678  33.565   3.726
52288W        W20517  17.134  29.908  12.526
52289W        W20518  20.253  10.752  11.111
52290W        W20519  37.957   0.314   0.289
52291W        W20520   2.401  44.762   1.820
52292W        W20521   9.132   9.813   4.542
52293W        W20522  16.274   8.855  13.805
52294W        W20523  36.871  34.419   1.772
52295W        W20524   8.471  40.573   2.777
52296W        W20525  12.117  38.366   0.746
52297W        W20526  20.041  18.025   2.720
52298W        W20527   5.320   3.402  14.123
52299W        W20528  25.319   9.922   3.775
52300W        W20529   1.843  32.947  14.756
52301W        W20530  42.898  18.080   1.439
52302W        W20531  14.286  23.426   5.320
52303W        W20532  19.101  14.299   1.185
52304W        W20533  36.515  41.743  14.908
52305W        W20534  15.769  44.915   0.514
52306W        W20535  42.331  32.877   4.209
52307W        W20536  32.947  27.149   0.454
52308W        W20537  15.119  11.728  14.080
52309W        W20538  19.108   0.874   4.428
52310W        W20539  17.333   8.426  10.745
52311W        W20540   5.688  24.224   3.693
52312W        W20541  19.008  19.612   2.145
52313W        W20542  36.329  16.150  14.223
52314W        W20543  27.781   8.226  10.984
52315W        W20544   1.542  12.237  10.418
52316W        W20545   9.641  44.088  13.516
52317W        W20546   1.244  40.487  13.227
52318W        W20547   2.702  18.929   3.365
52319W        W20548  25.997  34.804   3.735
52320W        W20549  41.029  30.890   0.262
52321W        W20550  32.015  16.647  11.689
52322W        W20551   6.427  12.361   3.034
52323W        W20552  38.203  42.314  14.342
52324W        W20553  42.883  42.479  14.872
52325W        W20554  13.585  41.875   0.363
52326W        W20555  31.017  27.977  10.694
52327W        W20556  11.004  19.696   2.239
52328W        W20557   2.750  34.651   3.256
52329W        W20558  41.895  40.753   1.874
52330W        W20559  32.886   2.664   1.396
52331W        W20560  32.118  23.638  13.883
52332W        W20561   7.218   4.168  10.798
52333W        W20562  29.949  36.300   2.466
52334W        W20563   1.820  33.953   0.736
52335W        W20564   0.862  22.333   1.286
52336W        W20565  21.067  33.463  14.503
52337W        W20566  33.807   4.449   2.159
52338W        W20567  34.392   6.150  14.533
52339W        W20568  12.045  26.057  12.482
52340W        W20569  17.771  25.979  11.666
52341W        W20570  20.516   2.368  11.675
52342W        W20571  33.427  22.154   4.964
52343W        W20572  22.742  10.167  12.884
52344W        W20573  39.856  28.033  11.708
52345W        W20574  38.546  11.360  14.093
52346W        W20575   6.225  39.045   0.764
52347W        W20576  11.857   9.355  14.849
52348W        W20577  37.361  16.835  11.575
52349W        W20578   1.034   4.938   4.391
52350W        W20579  32.770  15.146  10.265
52351W        W20580   6.613  12.150  14.330
52352W        W20581  18.964  21.073   2.837
52353W        W20582   7.948   4.776   5.090
52354W        W20583  18.712  35.008   3.797
52355W        W20584  20.530  43.218   2.743
52356W        W20585  40.329   8.320  11.480
52357W        W20586  32.500  23.596  14.724
52358W        W20587   6.897  17.519  11.503
52359W        W20588  23.291  28.444  13.959
52360W        W20589  25.858  16.566   4.763
52361W        W20590  11.379  13.224   2.122
52362W        W20591  32.857  37.868  14.829
52363W        W20592  18.984  31.871  10.343
52364W        W20593  26.408  31.518   1.991
52365W        W20594  25.887  29.485   2.242
52366W        W20595   6.621  20.446  10.904
52367W        W20596  28.081  15.602   1.248
52368W        W20597  42.279   6.417  11.125
52369W        W20598  33.110  31.116   3.261
52370W        W20599  29.550   4.659  14.321
52371W        W20600   8.857  15.925   0.089
52372W        W20601  27.062  32.762  13.501
52373W        W20602  20.160   7.385  12.595
52374W        W20603  35.124  12.287   4.768
52375W        W20604   8.616  43.937  11.913
52376W        W20605   0.405  23.015   2.333
52377W        W20606  44.609   9.097  12.857
52378W        W20607   1.905  14.565  10.726
52379W        W20608  16.803  10.330  14.974
52380W        W20609  16.089  18.334  11.900
52381W        W20610  42.443  30.492   0.899
52382W        W20611  18.268  43.974   0.449
52383W        W20612   0.176   2.186  13.328
52384W        W20613  42.458  21.311  10.339
52385W        W20614  17.802   3.797   1.270
52386W        W20615   3.000  33.322   4.165
52387W        W20616   2.415  18.027  12.489
52388W        W20617  29.098   5.222  12.428
52389W        W20618   5.447  18.330   1.215
52390W        W20619   6.128   2.385   2.156
52391W        W20620   2.846  14.871  11.142
52392W        W20621  33.072   7.712  13.603
52393W        W20622   2.734  40.879   3.301
52394W        W20623  30.048  31.486   2.409
52395W        W20624  11.772   4.975   0.629
52396W        W20625  15.691   7.364   0.836
52397W        W20626  36.675  13.058  13.623
52398W        W20627  13.611   7.136  12.521
52399W        W20628   8.612  23.539   4.385
52400W        W20629  16.491  26.819  13.087
52401W        W20630  44.482  36.485  10.433
52402W        W20631   4.271  26.760  14.406
52403W        W20632  41.934  30.675   0.695
52404W        W20633  23.289  31.844   4.953
52405W        W20634  28.512  38.234   3.691
52406W        W20635  42.306  38.477  14.380
52407W        W20636   5.398  20.291  11.597
52408W        W20637   2.393  32.538  14.530
52409W        W20638  38.348  40.328   1.662
52410W        W20639  21.119  43.747  12.868
52411W        W20640  44.291  32.348  11.126
52412W        W20641  40.072  33.851  12.536
52413W        W20642  32.451  42.950   0.977
52414W        W20643   9.870  36.228  12.401
52415W        W20644   8.971  10.909  10.659
52416W        W20645  32.497  38.918   1.238
52417W        W20646  28.543  20.080   4.541
52418W        W20647   6.654  17.401  14.641
52419W        W20648  21.465  35.783  12.028
52420W        W20649  21.354  31.938   2.686
52421W        W20650   0.727  38.386   2.409
52422W        W20651   5.229   6.180   2.636
52423W        W20652   1.709  39.284   0.444
52424W        W20653  19.032  26.628  11.471
52425W        W20654  30.698  35.852   3.716
52426W        W20655  15.363  21.166  10.923
52427W        W20656  21.076  34.042  11.855
52428W        W20657   5.750  33.784   1.446
52429W        W20658  23.077  17.738  13.782
52430W        W20659  24.062  33.553   3.163
52431W        W20660  14.822  43.855   1.721
52432W        W20661  29.800  40.074   3.288
52433W        W20662  25.749  24.924  13.791
52434W        W20663  11.215  37.938   3.403
52435W        W20664  37.357  26.706  12.635
52436W        W20665  25.655  19.355   0.711
52437W        W20666  33.405  34.932  10.170
52438W        W20667  26.831  33.155  13.263
52439W        W20668  40.245  10.271  14.365
52440W        W20669   7.036  44.370  11.568
52441W        W20670  15.136  39.010   2.657
52442W        W20671  24.081  35.850   2.724
52443W        W20672  23.143  11.925  13.508
52444W        W20673   4.217  20.082  10.546
52445W        W20674  27.514  39.923  14.462
52446W        W20675  29.589  24.507  11.670
52447W        W20676  34.940  22.538  13.797
52448W        W20677  25.571   3.519  13.898
52449W        W20678   6.189   1.795  10.379
52450W        W20679  40.038   2.393  11.604
52451W        W20680  38.846   4.889   2.186
52452W        W20681  10.753   4.729  11.161
52453W        W20682  18.227  27.680   3.186
52454W        W20683  34.568  22.448  11.548
52455W        W20684  35.842  42.369  11.018
52456W        W20685  21.131  15.550   2.646
52457W        W20686  34.571   2.782   2.430
52458W        W20687  20.162  13.802   4.905
52459W        W20688  29.270  10.032  10.256
52460W        W20689  26.060  21.245   1.556
52461W        W20690   8.580  39.622  13.395
52462W        W20691   4.334   1.954   3.159
52463W        W20692  18.134   0.957   3.573
52464W        W20693  21.478  35.382   2.760
52465W        W20694  35.737  32.956   1.423
52466W        W20695   7.697  15.260   0.260
52467W        W20696  37.143   2.504  12.086
52468W        W20697  40.828  29.176  10.596
52469W        W20698  34.498  33.371  10.465
52470W        W20699  44.958  39.604   0.960
52471W        W20700  33.880   7.835  11.381
52472W        W20701  14.277  28.049  12.452
52473W        W20702  43.490  19.258  12.641
52474W        W20703  16.729  12.095  12.900
52475W        W20704  44.740  44.283   3.503
52476W        W20705  29.508   8.203  13.134
52477W        W20706  26.069  15.759   4.098
52478W        W20707   4.835  27.344  10.812
52479W        W20708   1.305  21.102  14.125
52480W        W20709  40.053  27.882  12.184
52481W        W20710  41.555  37.284   2.760
52482W        W20711  31.565  27.731   4.565
52483W        W20712  39.115  21.775  11.590
52484W        W20713   9.234  40.368  10.842
52485W        W20714   1.372  17.818   2.166
52486W        W20715  35.104  12.294  12.282
52487W        W20716  10.853   3.278   1.461
52488W        W20717   3.296  15.081   1.935
52489W        W20718  12.860  42.470  11.151
52490W        W20719  40.413  21.785  14.540
52491W        W20720  32.311  20.612   2.682
52492W        W20721   6.437  41.257   2.225
52493W        W20722   5.856   3.184  11.416
52494W        W20723   7.329   2.767  13.972
52495W        W20724  30.202  33.344   1.683
52496W        W20725   6.214  42.571  13.384
52497W        W20726  32.408   9.124   3.822
52498W        W20727  23.074  18.548   1.840
52499W        W20728  30.164  10.601  12.209
52500W        W20729  33.565  35.989   1.796
52501W        W20730  31.594  12.269   1.510
52502W        W20731  24.057   5.673   3.101
52503W        W20732  11.133  15.020  14.915
52504W        W20733  12.692  17.869   3.323
52505W        W20734   1.015  11.435  13.881
52506W        W20735  33.460  44.813   4.179
52507W        W20736  22.880   8.301   3.491
52508W        W20737   5.351  23.390   2.900
52509W        W20738   5.640  18.533  12.941
52510W        W20739  35.941  12.048   2.845
52511W        W20740   9.143  44.422  14.519
52512W        W20741  11.341  10.555  11.018
52513W        W20742  15.088  26.020  11.222
52514W        W20743  28.493  27.532   3.164
52515W        W20744  16.728  18.643   4.573
52516W        W20745  17.005  44.494   4.065
52517W        W20746  41.919  26.546  14.063
52518W        W20747   3.262  43.551   1.468
52519W        W20748   0.389  39.607  14.403
52520W        W20749  21.967  10.561   3.748
52521W        W20750  15.359   6.796   2.745
52522W        W20751  39.394  27.140  14.436
52523W        W20752  41.773  38.250   2.448
52524W        W20753  26.908  29.901   0.192
52525W        W20754  25.643  16.331  14.917
52526W        W20755  28.912  36.048   1.795
52527W        W20756  37.750  39.301  11.585
52528W        W20757   7.710  38.617   4.097
52529W        W20758   4.666   0.964  10.738
52530W        W20759  29.031  34.281   0.289
52531W        W20760  19.689  39.946   2.994
52532W        W20761  27.638  33.838  14.932
52533W        W20762  11.991  33.913  12.891
52534W        W20763  15.153  13.260   4.647
52535W        W20764  34.575  28.617  11.228
52536W        W20765  36.218  32.182   4.104
52537W        W20766   7.626  32.103   3.243
52538W        W20767  20.756  29.394  13.339
52539W        W20768   6.235  12.275  13.396
52540W        W20769  30.417  41.905  13.556
52541W        W20770  38.218  34.220   4.565
52542W        W20771  34.464  17.443   4.201
52543W        W20772  35.647  22.750   0.807
52544W        W20773  32.086  16.348   1.770
52545W        W20774  35.526   0.009  14.359
52546W        W20775  36.616   9.812  11.171
52547W        W20776  27.683  32.190  12.915
52548W        W20777   7.712  19.361   4.570
52549W        W20778  31.239  36.029   4.531
52550W        W20779  20.524  10.709  14.516
52551W        W20780  16.161  23.096   5.005
52552W        W20781  11.808  34.862  13.872
52553W        W20782  11.817   1.784  13.539
52554W        W20783   4.750  26.773  10.925
52555W        W20784  20.706  21.948  13.525
52556W        W20785  14.708  31.132  13.822
52557W        W20786   7.166  42.675   1.230
52558W        W20787   8.707  30.527  12.442
52559W        W20788  23.532  12.278   4.405
52560W        W20789  32.040  26.136  11.687
52561W        W20790  16.313   6.965  11.609
52562W        W20791   6.436   6.322   5.107
52563W        W20792  25.231   0.246   1.835
52564W        W20793  25.218  30.651   4.794
52565W        W20794  11.870  14.291  11.343
52566W        W20795  44.455  22.675   0.279
52567W        W20796  25.573   0.642  13.310
52568W        W20797  40.879   7.803   1.014
52569W        W20798  42.288  15.266   2.838
52570W        W20799  31.372   9.797   3.193
52571W        W20800  38.379  17.795   3.759
52572W        W20801  24.080  20.181  14.500
52573W        W20802  36.463  40.926  11.856
52574W        W20803   5.808  13.124   4.029
52575W        W20804  15.059  11.922   4.207
52576W        W20805  37.031  19.247  12.573
52577W        W20806  39.907  34.026  13.861
52578W        W20807  32.731  33.827  10.687
52579W        W20808  26.181  30.041  10.870
52580W        W20809  42.741  37.722   1.225
52581W        W20810   2.279  36.071   1.324
52582W        W20811   0.813  17.733  14.365
52583W        W20812  31.084  11.040  12.081
52584W        W20813   7.477   4.789  10.723
52585W        W20814  34.549  19.259  10.214
52586W        W20815  21.627  41.851  11.813
52587W        W20816  43.359  18.796   2.706
52588W        W20817  21.727  36.770  12.028
52589W        W20818  44.286   4.909   4.134
52590W        W20819  29.529  38.510   3.067
52591W        W20820  42.990  33.318   0.551
52592W        W20821   4.510  34.138   0.813
52593W        W20822   4.268  35.075   0.402
52594W        W20823  19.017  39.986   2.714
52595W        W20824  34.805  25.504   2.925
52596W        W20825   4.968   3.297  13.759
52597W        W20826  36.001  24.681   3.877
52598W        W20827  30.663  34.345  14.976
52599W        W20828  24.337  20.027  13.190
52600W        W20829  32.458  42.450   1.159
52601W        W20830  38.740  13.287   3.279
52602W        W20831  20.658  20.492  12.573
52603W        W20832  27.597  37.929   1.338
52604W        W20833   2.955  10.540   3.270
52605W        W20834   4.554  21.142  12.904
52606W        W20835   7.624  40.765  14.813
52607W        W20836  42.197   6.948   4.100
52608W        W20837  39.316  24.429   0.539
52609W        W20838   6.687  25.555   0.003
52610W        W20839  20.957  12.594   0.688
52611W        W20840  32.470  18.974   3.848
52612W        W20841  39.985  22.320  13.493
52613W        W20842   2.220  16.688   4.078
52614W        W20843  13.770   8.299  12.214
52615W        W20844  36.969  42.215   1.318
52616W        W20845  23.138   4.530   2.257
52617W        W20846  11.585  44.102   4.504
52618W        W20847  19.536  19.297   1.274
52619W        W20848  44.590  43.510   1.311
52620W        W20849  29.952  27.023  13.781
52621W        W20850  38.215  37.879  10.886
52622W        W20851  16.316  41.893  12.594
52623W        W20852  29.330  34.277   5.309
52624W        W20853   9.929  30.666  10.177
52625W        W20854  34.892  23.918  12.194
52626W        W20855  37.253  39.311   3.766
52627W        W20856   8.885  10.873  12.044
52628W        W20857   1.984  24.268  12.690
52629W        W20858  31.910  42.245  14.245
52630W        W20859   4.763   6.746   5.085
52631W        W20860  34.004  40.357  14.109
52632W        W20861  43.274  41.693  13.532
52633W        W20862  38.407  28.256   3.287
52634W        W20863   9.887  35.175  13.468
52635W        W20864  29.575  18.600   5.080
52636W        W20865   6.424  34.628   4.043
52637W        W20866   6.275   1.748  11.257
52638W        W20867  44.550   9.252  11.102
52639W        W20868  24.407  23.315  11.942
52640W        W20869  37.370  35.153  11.109
52641W        W20870   5.329   8.230  12.920
52642W        W20871  35.322  25.378  14.740
52643W        W20872  38.045  21.884   3.739
52644W        W20873  10.066  24.516  13.960
52645W        W20874   9.385  36.104  12.530
52646W        W20875  16.821   1.357   3.387
52647W        W20876  36.947  39.244  11.914
52648W        W20877  15.541  44.002  12.512
52649W        W20878  19.142  28.140  12.400
52650W        W20879  38.058   6.959  12.691
52651W        W20880  36.372   1.029   3.738
52652W        W20881   2.692   3.189   1.328
52653W        W20882  39.597   9.953  11.603
52654W        W20883  20.667  30.495  12.039
52655W        W20884  29.863   2.294   1.844
52656W        W20885  32.059  18.149   4.733
52657W        W20886  39.036  30.424  13.097
52658W        W20887  35.426  24.229   1.903
52659W        W20888  27.501  23.531   2.495
52660W        W20889  29.503  34.551   1.036
52661W        W20890  39.905   8.742   0.453
52662W        W20891  18.562  20.548  14.966
52663W        W20892  16.600  35.344  14.937
52664W        W20893   3.254  14.768  13.440
52665W        W20894  18.035  31.596  14.273
52666W        W20895   1.294  36.649  12.470
52667W        W20896   7.889  32.569   3.286
52668W        W20897  37.946  44.370   2.787
52669W        W20898  27.206  34.484   2.054
52670W        W20899  29.964  13.638  14.935
52671W        W20900   1.355  13.788  13.176
52672W        W20901   5.234  34.568  11.883
52673W        W20902  38.030  17.253   0.898
52674W        W20903  20.714  32.143  13.786
52675W        W20904  22.956  10.314  11.549
52676W        W20905  26.474  41.438   2.379
52677W        W20906  36.172  26.842   4.862
52678W        W20907  44.764   1.457   3.186
52679W        W20908  15.924  34.125   1.955
52680W        W20909  40.551  22.691   3.240
52681W        W20910  24.724  21.498   0.520
52682W        W20911  17.287   3.718   0.340
52683W        W20912  32.899  14.308  12.961
52684W        W20913   2.235  25.079  12.087
52685W        W20914  18.687  17.290  14.970
52686W        W20915  42.250   9.894   3.274
52687W        W20916  36.156  13.656  13.006
52688W        W20917  30.194   4.451  14.017
52689W        W20918   0.053  18.707   2.194
52690W        W20919   3.534  25.547  11.934
52691W        W20920  33.885  12.860   1.185
52692W        W20921  22.042  34.652   4.228
52693W        W20922  40.089   3.883  12.537
52694W        W20923   3.372   1.107   3.750
52695W        W20924  33.105   0.318  12.904
52696W        W20925   1.977  37.942   5.051
52697W        W20926   7.507  22.246   3.057
52698W        W20927  13.236  35.957  12.046
52699W        W20928   5.102  32.706   3.718
52700W        W20929  36.675  19.053   4.566
52701W        W20930  25.086  33.413  14.984
52702W        W20931  10.445  24.694   1.657
52703W        W20932  22.173  12.209   0.627
52704W        W20933  42.518   2.260  11.079
52705W        W20934  41.444  18.673   2.444
52706W        W20935  35.915  10.640   2.604
52707W        W20936   4.188  15.262   0.618
52708W        W20937   5.107  34.112   4.659
52709W        W20938   0.740  11.719  12.325
52710W        W20939   8.604  21.512   3.216
52711W        W20940  15.608  36.933  13.772
52712W        W20941  37.303  31.118   2.280
52713W        W20942  24.174  16.835  12.566
52714W        W20943  14.241  31.358  13.999
52715W        W20944  10.600   4.191  14.372
52716W        W20945  37.491  32.486   2.769
52717W        W20946  35.145  20.534   0.965
52718W        W20947  23.854  37.378  13.786
52719W        W20948  21.594  36.116  13.368
52720W        W20949   8.612   3.834   1.420
52721W        W20950  37.987   6.393   0.929
52722W        W20951  32.616  26.019   1.163
52723W        W20952   6.752  41.319  14.069
52724W        W20953  26.709  24.564   1.319
52725W        W20954  11.159  21.244   5.059
52726W        W20955   5.756  16.620  13.101
52727W        W20956  31.699   8.253  11.141
52728W        W20957   0.770   8.238  11.967
52729W        W20958  38.780  15.573   3.156
52730W        W20959  15.528  17.471   0.396
52731W        W20960  23.987  35.956  14.885
52732W        W20961  40.514  36.615  11.780
52733W        W20962   3.487  13.839   2.851
52734W        W20963  21.804  11.691  13.996
52735W        W20964  39.854  37.025   2.854
52736W        W20965   7.883  38.570   0.064
52737W        W20966  41.904  22.976   1.188
52738W        W20967  23.546  27.059   2.027
52739W        W20968  18.878  27.272  12.400
52740W        W20969  17.610  28.288  13.143
52741W        W20970   5.226  41.091   2.192
52742W        W20971  29.503  11.129   2.704
52743W        W20972  10.062   5.815  11.563
52744W        W20973  37.327  25.150  10.965
52745W        W20974  27.472  30.497   0.915
52746W        W20975  11.064  12.812  12.209
52747W        W20976  44.555   8.793  13.613
52748W        W20977  22.502  32.629   0.835
52749W        W20978  41.580  20.581   0.395
52750W        W20979  22.035  39.099   2.003
52751W        W20980  22.664  10.220   5.017
52752W        W20981  32.515   4.309  11.299
52753W        W20982  13.142   1.465   2.585
52754W        W20983  25.905  37.791   9.837
52755W        W20984   3.898  34.930   2.735
52756W        W20985   1.262  12.250   1.991
52757W        W20986  33.907  36.363   0.689
52758W        W20987   8.244   2.534  14.318
52759W        W20988  35.290  11.476  14.351
52760W        W20989   2.969  16.660  11.611
52761W        W20990  27.045  22.045   1.655
52762W        W20991  23.023  27.837  14.770
52763W        W20992  14.157  39.485   1.754
52764W        W20993  17.712  22.764  14.905
52765W        W20994  25.709  32.589   2.802
52766W        W20995  35.554  16.516   3.818
52767W        W20996   3.817  38.991   4.187
52768W        W20997  32.026  35.484   4.525
52769W        W20998  14.215   8.447  10.515
52770W        W20999  43.752  22.230  12.000
52771W        W21000  42.025  14.151  10.269
52772W        W21001  40.614  20.164  12.970
52773W        W21002   0.020  19.138   0.304
52774W        W21003  37.086  37.494   1.234
52775W        W21004  13.093  40.804   0.851
52776W        W21005  11.689   5.420  14.293
52777W        W21006  24.217  40.886   4.606
52778W        W21007  33.482  39.513  11.793
52779W        W21008  22.719   5.187   2.642
52780W        W21009   1.345  42.223   3.286
52781W        W21010  42.877   5.869  12.620
52782W        W21011  23.481  27.130  13.831
52783W        W21012  39.565  36.644   2.694
52784W        W21013  16.547  23.327  10.738
52785W        W21014  24.153  17.612   0.967
52786W        W21015  16.226   5.228   4.258
52787W        W21016  30.661  36.069  13.317
52788W        W21017  24.020  36.911  11.980
52789W        W21018  30.424   6.956   0.337
52790W        W21019   3.872  13.256   3.651
52791W        W21020   7.757   2.145  10.945
52792W        W21021  41.172  14.237  11.959
52793W        W21022  11.810   0.477  12.936
52794W        W21023   2.368  24.129  13.026
52795W        W21024  41.479  10.378  11.897
52796W        W21025  28.434  20.276  13.409
52797W        W21026   8.482   5.641   0.554
52798W        W21027   9.235   4.395  14.680
52799W        W21028   6.712   2.411  12.690
52800W        W21029   2.559  30.786  10.259
52801W        W21030  38.888   9.594  10.930
52802W        W21031  13.715  34.899  13.982
52803W        W21032  40.955   7.863  13.058
52804W        W21033  34.092  10.321   4.007
52805W        W21034  21.060  24.549  13.104
52806W        W21035   9.901   0.918   0.760
52807W        W21036  24.954  33.611   1.334
52808W        W21037  22.934  28.445   3.396
52809W        W21038  18.945  35.568  14.991
52810W        W21039  28.406  33.389   2.892
52811W        W21040  31.441  21.257  10.459
52812W        W21041  19.606  15.927  13.376
52813W        W21042  35.635  19.580  14.803
52814W        W21043  23.655  16.977   3.263
52815W        W21044   9.865  29.695  13.110
52816W        W21045  42.516  11.794  11.128
52817W        W21046  15.891  24.091  11.648
52818W        W21047  24.228   6.401  14.240
52819W        W21048  42.730  17.321  14.370
52820W        W21049  17.620   2.843   4.237
52821W        W21050  25.953  11.912   0.489
52822W        W21051  20.324  33.973  12.681
52823W        W21052  24.734  31.089  11.070
52824W        W21053  11.938  14.118   3.730
52825W        W21054  16.630  11.156  13.703
52826W        W21055  13.624  31.197   2.472
52827W        W21056   8.393  37.284  11.569
52828W        W21057  17.717   5.678  13.967
52829W        W21058  41.849  44.666  12.726
52830W        W21059   7.148  15.062   4.173
52831W        W21060   3.447  38.102   2.757
52832W        W21061  32.055  24.745   0.411
52833W        W21062   5.870   5.385  11.549
52834W        W21063  29.494  30.199   3.164
52835W        W21064  39.158  18.579   1.521
52836W        W21065   2.387  42.152  12.342
52837W        W21066   2.680   2.763   0.352
52838W        W21067   7.014  44.573   0.870
52839W        W21068  20.176  20.031   1.431
52840W        W21069  31.000  13.547  11.167
52841W        W21070  17.295  16.602  13.311
52842W        W21071   6.862  22.680   4.369
52843W        W21072   5.898  33.843   1.928
52844W        W21073  18.298  17.088  11.899
52845W        W21074  20.834   6.839   0.695
52846W        W21075  20.116  21.034   0.854
52847W        W21076  32.856  27.128   1.271
52848W        W21077  31.176  20.175  11.525
52849W        W21078  38.374  16.206   0.920
52850W        W21079  33.462  20.468  13.357
52851W        W21080  41.447  24.043  10.663
52852W        W21081  42.318  20.606  12.304
52853W        W21082  32.865  44.083   4.154
52854W        W21083  35.515  15.700  14.558
52855W        W21084   3.653   0.506  12.446
52856W        W21085  22.826  35.565  13.990
52857W        W21086  43.414  30.690   1.734
52858W        W21087  36.317  37.440  11.526
52859W        W21088  25.795  21.608   2.820
52860W        W21089   6.282  15.788  13.547
52861W        W21090   1.846  30.690   3.106
52862W        W21091  11.012  18.328   2.334
52863W        W21092   6.801  33.138  14.471
52864W        W21093  19.112  44.994  12.905
52865W        W21094  32.988  11.860  12.484
52866W        W21095   9.964  26.173  11.647
52867W        W21096  43.516  27.090  14.274
52868W        W21097  25.004  32.462   4.052
52869W        W21098  21.084   7.332  12.170
52870W        W21099  17.067  40.941  14.086
52871W        W21100  38.907  35.031   0.539
52872W        W21101  32.093  44.271  13.299
52873W        W21102  30.199  11.130   0.465
52874W        W21103  25.039  41.030   4.853
52875W        W21104  39.390  37.339   4.173
52876W        W21105  13.670   0.851   1.223
52877W        W21106  41.971  39.424   4.179
52878W        W21107   7.363   1.988   2.352
52879W        W21108   9.800  29.115  12.932
52880W        W21109   5.561  29.687   4.491
52881W        W21110   8.446   9.773  11.007
52882W        W21111   0.309  23.985  13.513
52883W        W21112  38.557   5.698   2.427
52884W        W21113  21.216  44.450  12.561
52885W        W21114  10.296  29.407   1.297
52886W        W21115  41.480  20.083   0.961
52887W        W21116  21.793  23.246   4.146
52888W        W21117  34.554  42.994   2.853
52889W        W21118  19.287  29.417  12.429
52890W        W21119  13.549  35.972  11.456
52891W        W21120  42.898  29.521   1.041
52892W        W21121  24.183  38.134  11.462
52893W        W21122  21.590  35.875  12.520
52894W        W21123  31.761  39.076  13.408
52895W        W21124  36.522   5.150   3.246
52896W        W21125  17.767  27.039   4.598
52897W        W21126  19.666  24.266   2.702
52898W        W21127   9.121  26.755   0.479
52899W        W21128   3.939  32.648   3.029
52900W        W21129  12.823   7.712   3.952
52901W        W21130  18.709  35.349   0.889
52902W        W21131  43.399  12.403  13.827
52903W        W21132  37.050   9.804   4.513
52904W        W21133  36.315   7.976   1.656
52905W        W21134   5.200  34.326  12.838
52906W        W21135   8.778  15.287  12.887
52907W        W21136  35.496  39.501   4.680
52908W        W21137  31.841  21.005   5.317
52909W        W21138  36.766  24.715   3.231
52910W        W21139  13.689  12.287  11.586
52911W        W21140  43.871  18.618  12.020
52912W        W21141  36.927  29.060   0.985
52913W        W21142  32.439  26.165  12.036
52914W        W21143   7.207  25.216  14.316
52915W        W21144  12.251  22.718  14.343
52916W        W21145   0.185  21.706  11.365
52917W        W21146  24.702   8.436  12.029
52918W        W21147  39.469  28.038  13.416
52919W        W21148  13.108  31.915  12.299
52920W        W21149  22.623  20.135  12.111
52921W        W21150  36.026  35.104  11.887
52922W        W21151  36.185  39.250  14.057
52923W        W21152  11.160  39.507  13.294
52924W        W21153   4.105   1.224  12.026
52925W        W21154  31.440  19.595   3.150
52926W        W21155  13.272   6.429  12.173
52927W        W21156  35.236  29.403  13.078
52928W        W21157   3.843  10.732   4.021
52929W        W21158  44.121  34.115   0.699
52930W        W21159  11.808  13.807  12.563
52931W        W21160  19.578  31.717  10.806
52932W        W21161   4.561  14.831  14.761
52933W        W21162  33.423  26.450  10.901
52934W        W21163  26.626   7.190  11.110
52935W        W21164  25.068  29.116   3.764
52936W        W21165   4.325  26.477   3.964
52937W        W21166  23.227   2.144   2.682
52938W        W21167  13.902  28.180  12.799
52939W        W21168   0.163  31.770   4.881
52940W        W21169  15.175  28.459   2.435
52941W        W21170  41.941   5.185  12.026
52942W        W21171  21.617  19.105   4.823
52943W        W21172   6.484  31.991  12.508
52944W        W21173   4.912  11.636  11.643
52945W        W21174  16.776  44.012  12.825
52946W        W21175  30.600   0.821  12.938
52947W        W21176  28.454   4.732   4.261
52948W        W21177  18.205   5.819   4.562
52949W        W21178  26.047  18.736   0.162
52950W        W21179  21.646  32.622   9.673
52951W        W21180  43.030   9.249   1.603
52952W        W21181  18.356  18.478  10.776
52953W        W21182  31.878  28.550  10.713
52954W        W21183   0.831  27.907  14.232
52955W        W21184  13.345   7.950  11.552
52956W        W21185  17.649  40.931   2.374
52957W        W21186   0.511  39.589   2.668
52958W        W21187   3.182  36.885  10.930
52959W        W21188  18.074  15.217  10.978
52960W        W21189  24.416   6.357   0.862
52961W        W21190  18.368  23.073   4.033
52962W        W21191  30.843  42.434   3.880
52963W        W21192  10.261  39.314  13.861
52964W        W21193  14.600  25.071   4.196
52965W        W21194  33.482  29.585   0.037
52966W        W21195  11.601   6.744  13.676
52967W        W21196  26.257  30.207  13.469
52968W        W21197   7.589   7.848   3.790
52969W        W21198  29.932  26.078  14.070
52970W        W21199  33.630  23.527   1.308
52971W        W21200  15.215   7.015  13.143
52972W        W21201  15.057  11.261   2.264
52973W        W21202  20.213   5.646   2.589
52974W        W21203   2.980  38.763  13.843
52975W        W21204  34.999  16.073  14.830
52976W        W21205  35.126   6.693   4.542
52977W        W21206  20.156   2.327   1.281
52978W        W21207  13.368  16.656   3.284
52979W        W21208  17.673  21.437   0.418
52980W        W21209  21.326  40.939  12.098
52981W        W21210  33.098  13.890  12.092
52982W        W21211  33.259   7.311  13.320
52983W        W21212  27.506  38.331   0.377
52984W        W21213  31.415  22.875   1.810
52985W        W21214  37.794  42.231  14.664
52986W        W21215  32.691  12.767  14.511
52987W        W21216  29.570   7.815  12.283
52988W        W21217  36.455   1.999  13.973
52989W        W21218   4.428  32.079  11.562
52990W        W21219  18.504  21.235   3.749
52991W        W21220   5.796  44.271   0.452
52992W        W21221  41.087  15.740   4.066
52993W        W21222   8.815  38.569   0.194
52994W        W21223   1.860   5.442   2.838
52995W        W21224  30.510  12.190  14.713
52996W        W21225   1.000  34.280   1.219
52997W        W21226  32.182  38.048  12.532
52998W        W21227   0.207   9.964   0.356
52999W        W21228  34.062   7.278   1.246
53000W        W21229   4.350   2.477   4.233
53001W        W21230  36.907   9.769   0.340
53002W        W21231  17.545   0.787  12.474
53003W        W21232  35.093   1.252  13.394
53004W        W21233  22.549   9.851  10.706
53005W        W21234  39.917  18.163  12.595
53006W        W21235  23.029   8.474   4.562
53007W        W21236  33.878  18.351  10.740
53008W        W21237  20.356  34.361   0.506
53009W        W21238  21.061  42.945  13.996
53010W        W21239   1.818   6.575  12.549
53011W        W21240   8.514  34.307   3.598
53012W        W21241  11.608  30.663  11.598
53013W        W21242   5.711  15.341  13.999
53014W        W21243  32.008  22.925  11.736
53015W        W21244   8.405   5.164   2.281
53016W        W21245  15.321  39.984  13.794
53017W        W21246  34.733  15.110  12.179
53018W        W21247  40.825  41.580   1.286
53019W        W21248  11.993   2.350   3.343
53020W        W21249  41.418   9.244  13.324
53021W        W21250  10.845   3.360  14.899
53022W        W21251  29.908  16.045  13.654
53023W        W21252   2.743  41.952  14.847
53024W        W21253   1.823  36.573  12.044
53025W        W21254  31.967  16.049   3.599
53026W        W21255  19.637  34.338   0.812
53027W        W21256  10.870  40.821  10.916
53028W        W21257  25.520  29.914   3.254
53029W        W21258  11.629  43.067  13.573
53030W        W21259  17.123  22.214   0.846
53031W        W21260  24.213  32.033  10.705
53032W        W21261  22.675  43.259  14.452
53033W        W21262   3.921   8.831  10.475
53034W        W21263   7.422   0.824   4.963
53035W        W21264   9.999   4.366   0.852
53036W        W21265   6.820  27.680  12.373
53037W        W21266   5.200   5.234   1.648
53038W        W21267   1.726  15.878   4.361
53039W        W21268  43.249  28.560   3.411
53040W        W21269  25.925  23.714  14.508
53041W        W21270  23.580  42.741   4.700
53042W        W21271  38.999  23.218   4.752
53043W        W21272  20.589  12.057  12.619
53044W        W21273   3.308  39.823  11.544
53045W        W21274  12.729  28.975   3.905
53046W        W21275   6.851   2.331   3.460
53047W        W21276  38.369  24.588  11.489
53048W        W21277  27.278   6.398   0.285
53049W        W21278  34.451  44.948   1.816
53050W        W21279  31.048  10.961  12.648
53051W        W21280  17.119  19.080  12.837
53052W        W21281   8.852  31.362   1.792
53053W        W21282  21.856  37.160  11.076
53054W        W21283   0.412  29.564  14.838
53055W        W21284   3.874  15.028  11.644
53056W        W21285   5.808  23.743  14.063
53057W        W21286  44.365  31.722   2.230
53058W        W21287  14.810  15.554  10.637
53059W        W21288   4.316  25.975  14.839
53060W        W21289  19.016  29.554   2.340
53061W        W21290  29.377  40.814  12.716
53062W        W21291  31.026  30.866   1.641
53063W        W21292   9.633  32.948  14.751
53064W        W21293  37.554   1.151   4.153
53065W        W21294  30.059  15.770  12.836
53066W        W21295  13.067  31.896   0.362
53067W        W21296  35.660  39.849   3.900
53068W        W21297  18.342  14.628  12.429
53069W        W21298  21.943   3.872  13.967
53070W        W21299  43.863  42.382  12.202
53071W        W21300  29.887  10.168   2.248
53072W        W21301  35.334  29.075   1.811
53073W        W21302   2.822   3.735   4.061
53074W        W21303  10.749  41.474  12.090
53075W        W21304  29.644  32.379   4.114
53076W        W21305  37.173  43.483   3.802
53077W        W21306   9.340   1.741   2.829
53078W        W21307  32.349  32.650  13.813
53079W        W21308  22.130  18.166   0.858
53080W        W21309  43.733   3.005   2.636
53081W        W21310  13.776   3.335   4.522
53082W        W21311  14.201   4.919  12.164
53083W        W21312   5.131  31.691  11.018
53084W        W21313  27.345  25.145   1.899
53085W        W21314  13.291  38.892  13.402
53086W        W21315  11.279   6.808  13.063
53087W        W21316   9.410  27.510  11.514
53088W        W21317  41.441  14.862   0.481
53089W        W21318   8.733  27.974   2.219
53090W        W21319  17.394  41.728   2.408
53091W        W21320   8.592  33.618   1.434
53092W        W21321   4.628   5.971  13.907
53093W        W21322   5.372  12.281   1.591
53094W        W21323   4.442   0.258  12.530
53095W        W21324   5.884  19.096   4.871
53096W        W21325  24.491  18.132   1.307
53097W        W21326  42.428  36.021  10.457
53098W        W21327  31.083  27.898   4.616
53099W        W21328  23.031  28.892  13.912
53100W        W21329   8.441  13.732   3.273
53101W        W21330  23.475  32.472  11.983
53102W        W21331  15.638  14.288  11.861
53103W        W21332   3.411  43.949   1.791
53104W        W21333  17.001  28.634  14.007
53105W        W21334  19.569   0.979  12.420
53106W        W21335  15.235  31.576  11.683
53107W        W21336  35.239  33.117   1.437
53108W        W21337  40.257  14.586   2.114
53109W        W21338  20.200   3.829  11.299
53110W        W21339  13.714  13.844   1.487
53111W        W21340  22.520  31.527  10.567
53112W        W21341  22.263  39.375  12.961
53113W        W21342  32.849  19.964   2.694
53114W        W21343  24.099  18.716  13.449
53115W        W21344  38.477   0.238   4.600
53116W        W21345  36.733  21.098  12.823
53117W        W21346  35.316  40.137  10.992
53118W        W21347  21.534  25.780  12.364
53119W        W21348   9.795  20.510  14.486
53120W        W21349   0.970   6.183   5.034
53121W        W21350  10.169   0.344   0.243
53122W        W21351  23.196  13.002   4.077
53123W        W21352  44.041  16.708   1.398
53124W        W21353  20.332  14.988   2.755
53125W        W21354   9.950  34.384  10.170
53126W        W21355   8.909  26.552  13.138
53127W        W21356  42.733  15.242  11.120
53128W        W21357  37.024  25.781  11.983
53129W        W21358  37.013  34.420  13.700
53130W        W21359  18.107  13.647   2.470
53131W        W21360  22.283  28.939  14.496
53132W        W21361  15.368   8.862  14.531
53133W        W21362  17.197  24.060   3.254
53134W        W21363  33.085  39.998  14.357
53135W        W21364  15.203   8.415  12.499
53136W        W21365   7.355  22.491  14.495
53137W        W21366  36.542  32.783  10.915
53138W        W21367  19.150  12.243   2.378
53139W        W21368  22.237   5.087   3.773
53140W        W21369  43.775  11.747   0.784
53141W        W21370  18.566  33.303   2.250
53142W        W21371  43.466   4.870   1.026
53143W        W21372   7.341  18.386  13.009
53144W        W21373  23.119  37.892   3.876
53145W        W21374   0.070  11.250  11.508
53146W        W21375  11.138   5.925  14.797
53147W        W21376  40.288  10.207  11.118
53148W        W21377   7.742  44.042   2.230
53149W        W21378   8.166  17.053  12.942
53150W        W21379   0.564  40.625   3.999
53151W        W21380  41.381   7.466  12.362
53152W        W21381   3.847  20.089  13.017
53153W        W21382  18.228  30.165  12.625
53154W        W21383   2.450  44.463  14.706
53155W        W21384   2.993  37.441   1.760
53156W        W21385  31.945  39.330  12.954
53157W        W21386   5.327  22.982  10.690
53158W        W21387  42.633   4.786   3.407
53159W        W21388   6.344  24.102   0.245
53160W        W21389  25.751  11.171   4.512
53161W        W21390  39.123  24.118   0.976
53162W        W21391  32.421  23.438   1.777
53163W        W21392  29.496  16.165  10.594
53164W        W21393  11.683   5.574   3.692
53165W        W21394   0.257   2.310   4.507
53166W        W21395   1.219  39.561  11.542
53167W        W21396  32.856  41.230  11.544
53168W        W21397  19.897  37.490   2.482
53169W        W21398  38.022  34.976   3.987
53170W        W21399  37.908  13.362  14.903
53171W        W21400  31.371  40.975  13.985
53172W        W21401  18.556  27.156   4.256
53173W        W21402  11.722  37.765   0.498
53174W        W21403  25.459  16.550   1.480
53175W        W21404  31.028  15.050   4.350
53176W        W21405  30.982  28.156   1.376
53177W        W21406  41.426  25.997  13.520
53178W        W21407  28.693  43.196   1.363
53179W        W21408   7.282   5.534  11.566
53180W        W21409   4.978  22.100  14.264
53181W        W21410  23.512  33.887  12.308
53182W        W21411  32.324  37.992  11.225
53183W        W21412   1.865   1.773   3.026
53184W        W21413  33.055   3.728   2.373
53185W        W21414  19.027  28.739   4.388
53186W        W21415  17.828  44.230  11.181
53187W        W21416  28.141  35.713   0.194
53188W        W21417  31.062  41.987  10.913
53189W        W21418  23.456  17.669   0.779
53190W        W21419  13.878  11.677  12.936
53191W        W21420  19.757   7.514   1.967
53192W        W21421  19.654  35.041  11.383
53193W        W21422  40.084  31.103   2.138
53194W        W21423  31.869  28.000  10.822
53195W        W21424  27.105  19.005   4.228
53196W        W21425  11.587  43.252  12.794
53197W        W21426   3.218   3.393   3.130
53198W        W21427  23.673  32.960  11.967
53199W        W21428   0.913  21.070   1.712
53200W        W21429  34.124  31.937   2.382
53201W        W21430   4.866  28.265  11.400
53202W        W21431   1.316   7.619  14.461
53203W        W21432  12.305   6.640  10.448
53204W        W21433  27.129  41.596  13.930
53205W        W21434  20.241  24.557   4.623
53206W        W21435  35.479  11.294   4.615
53207W        W21436  40.290   2.357  12.882
53208W        W21437  36.510  10.227  11.929
53209W        W21438  31.012  33.931   2.602
53210W        W21439   5.775  13.276   1.806
53211W        W21440  36.075   5.743   0.710
53212W        W21441  28.416  35.957  10.223
53213W        W21442  44.831  21.714  13.510
53214W        W21443  10.821  29.552   3.626
53215W        W21444  44.704  34.175   4.429
53216W        W21445  27.632  12.741   2.690
53217W        W21446  21.125  11.229  12.021
53218W        W21447  31.918  19.979  11.033
53219W        W21448  34.799   2.994  14.895
53220W        W21449  19.807  43.870   0.801
53221W        W21450  29.112  31.485   2.276
53222W        W21451  28.539  42.384   3.890
53223W        W21452  30.874  21.227   5.003
53224W        W21453  17.010  17.130   3.173
53225W        W21454  10.739   8.291  13.957
53226W        W21455  17.862  39.952  14.907
53227W        W21456  42.923  23.150  13.109
53228W        W21457  33.837   4.340   1.237
53229W        W21458   9.551  16.359  13.199
53230W        W21459  22.463   3.905  14.001
53231W        W21460  43.854  14.533   3.878
53232W        W21461   4.869  23.705  11.189
53233W        W21462  29.427  24.693  12.130
53234W        W21463  32.568  26.108   3.040
53235W        W21464  27.974   6.719  11.738
53236W        W21465  29.608  40.444  13.026
53237W        W21466  22.578  11.477  14.668
53238W        W21467  17.512  18.526   0.728
53239W        W21468   7.960  19.178   1.666
53240W        W21469  36.279  25.571   2.904
53241W        W21470  20.030   0.573  10.615
53242W        W21471  34.386  27.487   4.241
53243W        W21472  38.306   7.896   2.762
53244W        W21473   3.709   2.270   2.589
53245W        W21474  16.959  14.707   1.918
53246W        W21475  12.009  41.399  11.697
53247W        W21476  37.208   7.365  14.841
53248W        W21477  15.609   1.765   0.241
53249W        W21478  36.408   1.793  10.683
53250W        W21479   9.986  11.370  14.889
53251W        W21480   2.457  25.898  14.018
53252W        W21481  18.019  38.895   2.268
53253W        W21482  28.333  40.063   2.365
53254W        W21483  13.815  39.409  11.402
53255W        W21484  37.062   1.190  11.056
53256W        W21485  16.123  34.569  12.113
53257W        W21486  41.361  23.952  14.874
53258W        W21487  12.561  15.101   1.064
53259W        W21488   5.847   3.804  10.161
53260W        W21489   0.064  16.995  12.680
53261W        W21490   6.969  33.732   0.405
53262W        W21491  42.991  23.045   4.521
53263W        W21492  43.083  28.260   1.897
53264W        W21493  40.992  34.511   0.563
53265W        W21494  21.697   1.443  14.290
53266W        W21495  22.684  44.259  14.419
53267W        W21496  42.395  30.807  13.742
53268W        W21497   5.958  31.008  10.790
53269W        W21498  37.671  28.693   0.529
53270W        W21499  35.053   1.214  12.050
53271W        W21500  17.626  23.196   1.883
53272W        W21501  32.405  37.217   3.482
53273W        W21502  42.010  13.170  10.672
53274W        W21503   3.773   8.136  10.929
53275W        W21504  36.896   1.653   1.858
53276W        W21505   1.155  31.164   3.827
53277W        W21506  21.560  30.415  12.496
53278W        W21507  15.108  36.742  11.660
53279W        W21508  15.789  18.922  13.535
53280W        W21509  17.456  37.518   3.068
53281W        W21510  32.961  19.464   2.696
53282W        W21511  12.549  18.105  11.476
53283W        W21512  24.441  35.173   5.727
53284W        W21513  42.063  22.270   4.369
53285W        W21514   5.222  16.487  11.632
53286W        W21515  20.401   7.624  14.481
53287W        W21516  28.915  23.359  13.024
53288W        W21517  44.365  24.105  14.668
53289W        W21518  23.688  22.692   3.165
53290W        W21519  27.217  20.328  11.880
53291W        W21520  10.834  44.100   4.134
53292W        W21521  13.380  42.442  11.115
53293W        W21522   6.199  12.351  11.080
53294W        W21523  23.703  10.719  12.447
53295W        W21524   3.510  29.535  11.431
53296W        W21525  15.252  38.918   4.143
53297W        W21526  31.101  41.391  13.827
53298W        W21527  10.177  10.928   1.885
53299W        W21528  35.995  13.627  10.741
53300W        W21529   0.492  13.593   0.391
53301W        W21530  31.589  39.474   0.319
53302W        W21531   1.414   0.492  10.991
53303W        W21532  14.227   6.319   1.989
53304W        W21533  18.817  40.377  11.590
53305W        W21534   5.309  13.276   3.264
53306W        W21535   7.797   1.426  11.942
53307W        W21536   8.856   1.451   4.689
53308W        W21537  19.873  43.532  13.344
53309W        W21538   1.405  34.433   9.748
53310W        W21539  15.338  28.282  14.786
53311W        W21540   1.665  41.273  13.363
53312W        W21541  41.826  21.035  12.101
53313W        W21542   1.562  12.557   0.472
53314W        W21543  27.737  36.893   2.741
53315W        W21544   5.646   4.297  10.721
53316W        W21545  30.889   2.961   2.648
53317W        W21546  36.006  12.885  12.402
53318W        W21547   7.971  37.298   4.341
53319W        W21548  18.379  30.745   5.463
53320W        W21549  36.899   8.687   2.568
53321W        W21550  40.804  10.201  11.000
53322W        W21551  27.959  42.478   4.637
53323W        W21552  32.379  13.168   4.656
53324W        W21553  36.578  24.198   2.194
53325W        W21554  17.616  13.917   0.607
53326W        W21555  12.804  41.870  10.687
53327W        W21556   2.186   1.464   2.778
53328W        W21557  41.827   3.879   2.382
53329W        W21558   8.316  20.104  11.443
53330W        W21559   2.774  31.139  14.324
53331W        W21560  32.484  17.683  13.850
53332W        W21561  31.422  38.359  11.686
53333W        W21562  12.500  31.649   1.701
53334W        W21563   5.166  42.907   2.464
53335W        W21564  16.306  41.941  13.499
53336W        W21565  32.809  36.578   3.337
53337W        W21566   0.380  40.833   0.008
53338W        W21567  38.766  33.956  11.117
53339W        W21568  10.058  42.440   0.765
53340W        W21569  44.034  15.199  10.602
53341W        W21570   9.189  24.284   0.932
53342W        W21571  11.603  21.835   3.167
53343W        W21572  21.256  12.220  13.058
53344W        W21573  21.085  18.645  10.407
53345W        W21574  31.606  37.151  11.089
53346W        W21575  34.501  34.076   4.328
53347W        W21576  31.438  35.526   0.268
53348W        W21577   8.069  44.197   1.389
53349W        W21578  15.221  40.276  10.974
53350W        W21579   1.149  19.660  14.566
53351W        W21580   0.513  17.323  11.383
53352W        W21581  33.812   1.305   2.754
53353W        W21582  15.173  11.446   9.737
53354W        W21583  37.086  39.182  14.542
53355W        W21584  25.486  39.774  10.746
53356W        W21585  43.071  25.786   0.184
53357W        W21586  43.965  14.269  12.357
53358W        W21587  13.590  28.113  10.749
53359W        W21588   8.933  17.219  14.365
53360W        W21589  23.611  29.138   3.234
53361W        W21590  41.555   1.510  14.822
53362W        W21591  16.571  20.594   0.999
53363W        W21592  43.550  33.776  10.545
53364W        W21593  31.054  22.290   0.307
53365W        W21594  16.543  21.048  11.448
53366W        W21595  29.687   4.244  11.143
53367W        W21596   3.721  19.954   5.065
53368W        W21597   7.794   1.267  13.873
53369W        W21598  16.213  17.514   2.930
53370W        W21599   0.904  44.686   2.408
53371W        W21600  20.277  10.714   0.195
53372W        W21601  39.778  18.609   4.596
53373W        W21602  33.137  20.706   2.365
53374W        W21603  18.708  44.015   3.210
53375W        W21604   3.724  37.045  14.767
53376W        W21605  12.834   6.713   4.429
53377W        W21606  43.510  23.022  13.782
53378W        W21607   5.433  30.883  13.868
53379W        W21608  33.301  21.988   1.091
53380W        W21609   2.304   2.885   4.167
53381W        W21610  22.180   2.944  14.105
53382W        W21611   8.352  40.278   3.203
53383W        W21612   6.356  23.542   4.844
53384W        W21613  23.994  26.552  13.240
53385W        W21614  17.104  15.676   4.526
53386W        W21615  28.849  40.199  14.066
53387W        W21616  41.053  31.598  10.375
53388W        W21617  16.153  34.470   3.504
53389W        W21618  23.049   2.298   3.178
53390W        W21619   3.933   8.629  12.164
53391W        W21620   2.446  13.089   0.008
53392W        W21621  11.853  15.092  13.976
53393W        W21622  36.872  32.889   1.025
53394W        W21623  27.792   8.464   3.927
53395W        W21624  29.474  27.668  10.779
53396W        W21625   3.712  25.672   0.966
53397W        W21626  20.164  21.699  11.003
53398W        W21627  33.566   1.012  12.621
53399W        W21628  38.687  21.200  11.508
53400W        W21629  33.313  42.993  12.451
53401W        W21630  28.100   3.748   0.723
53402W        W21631  30.431  42.490   4.866
53403W        W21632  26.050  19.723  11.164
53404W        W21633  29.692  39.504   1.624
53405W        W21634  24.936  11.881  13.058
53406W        W21635  37.829  42.447   1.120
53407W        W21636  35.311   0.001   3.898
53408W        W21637  10.678  32.436   3.529
53409W        W21638  16.843  34.104   0.737
53410W        W21639  19.306   6.329  11.988
53411W        W21640  39.395  22.953  10.256
53412W        W21641  17.650  41.221   3.227
53413W        W21642  15.080  38.373  10.939
53414W        W21643  12.361  19.761  10.547
53415W        W21644   8.274  30.473  12.150
53416W        W21645  24.419  13.124   2.704
53417W        W21646  17.778  38.656   1.477
53418W        W21647  26.275  22.986  11.192
53419W        W21648  18.791   3.257   1.877
53420W        W21649  43.430   1.396   3.857
53421W        W21650  18.042  11.908   3.238
53422W        W21651   8.227  22.748  10.542
53423W        W21652   6.421  37.828   2.148
53424W        W21653  15.479  40.019  10.147
53425W        W21654  42.677   8.339  14.872
53426W        W21655  37.627  18.853  11.388
53427W        W21656  34.677  35.414   1.147
53428W        W21657  14.041  19.595   4.879
53429W        W21658  19.190  40.277   3.721
53430W        W21659  15.225  23.437  10.780
53431W        W21660   5.621  21.687  12.173
53432W        W21661  13.773  23.531  12.140
53433W        W21662  41.294  38.464  12.152
53434W        W21663   5.464  29.851  13.453
53435W        W21664  21.225  26.009   1.312
53436W        W21665  33.891   5.970  14.850
53437W        W21666  38.962  23.144  13.745
53438W        W21667  13.931  34.622   0.963
53439W        W21668  31.052  38.883  14.252
53440W        W21669  34.144  33.260   0.764
53441W        W21670  38.584  35.500  13.288
53442W        W21671  42.800  37.630  11.951
53443W        W21672  33.467   1.186   0.466
53444W        W21673  42.485   1.490  11.530
53445W        W21674  18.608   5.254  12.756
53446W        W21675  39.442  24.043  12.269
53447W        W21676  21.837  10.380   3.246
53448W        W21677  16.303  41.356   3.308
53449W        W21678  14.146   1.162  10.812
53450W        W21679  12.658  11.153  12.295
53451W        W21680  25.617  32.542   3.713
53452W        W21681  43.261   8.472   4.674
53453W        W21682  21.546  31.596  12.583
53454W        W21683  31.490  18.186   3.493
53455W        W21684  15.688  15.388  12.215
53456W        W21685  16.335  30.750  13.924
53457W        W21686  24.494   8.519  12.966
53458W        W21687  44.563   3.746   3.649
53459W        W21688   3.243  15.946   2.634
53460W        W21689  12.177  18.332  10.711
53461W        W21690   2.219  34.209  10.685
53462W        W21691   9.206  23.057  12.476
53463W        W21692  30.171   1.792  11.129
53464W        W21693  27.188  36.394   2.208
53465W        W21694  34.467  39.564   1.842
53466W        W21695  12.348  35.000  13.665
53467W        W21696  26.491   6.601   0.796
53468W        W21697  32.322  25.694   0.893
53469W        W21698  25.475  14.696  14.354
53470W        W21699  24.799  27.276   4.806
53471W        W21700   2.033  29.244  14.470
53472W        W21701  11.508  27.137  13.761
53473W        W21702   1.025  17.227  13.114
53474W        W21703  33.781   5.425   0.307
53475W        W21704  18.914  36.371   4.753
53476W        W21705   1.221  44.522   2.805
53477W        W21706  16.593  24.079   2.228
53478W        W21707  17.134  38.084  12.491
53479W        W21708  12.928  30.648  13.510
53480W        W21709  10.426  14.273   2.197
53481W        W21710  37.999  11.555  12.609
53482W        W21711  13.045  13.582   0.780
53483W        W21712   4.692   8.448  10.642
53484W        W21713  39.619   8.989   2.240
53485W        W21714  22.757  38.891  13.377
53486W        W21715  16.997  35.637   1.965
53487W        W21716   9.041  29.573   4.141
53488W        W21717  10.223  36.143   0.032
53489W        W21718  41.164  23.161  11.744
53490W        W21719  19.205  25.489   2.915
53491W        W21720  15.645  32.966  12.562
53492W        W21721  19.249  35.766   0.347
53493W        W21722  19.277  32.804  11.632
53494W        W21723  18.377  14.802  13.551
53495W        W21724  39.026   1.931   1.633
53496W        W21725   3.867  12.088   0.360
53497W        W21726  28.540  20.655  13.793
53498W        W21727   6.521  39.904   0.066
53499W        W21728  35.761   0.435  10.648
53500W        W21729  13.817   7.897   2.718
53501W        W21730  30.454   0.505  11.689
53502W        W21731   8.419  14.141  13.523
53503W        W21732   1.651  15.632   0.519
53504W        W21733  43.864  25.525  11.290
53505W        W21734  22.115  37.847  11.500
53506W        W21735   3.282  19.688   1.471
53507W        W21736  15.745  21.540  13.978
53508W        W21737   9.356   9.760  11.411
53509W        W21738   3.187  28.049  12.472
53510W        W21739  27.000  30.495   2.144
53511W        W21740  26.209  19.696  13.083
53512W        W21741  29.482  22.749   4.133
53513W        W21742   1.501  23.969   4.131
53514W        W21743   3.412   4.929  10.964
53515W        W21744  32.408  30.847   3.737
53516W        W21745   7.385   3.949   0.335
53517W        W21746  17.669  11.045  11.721
53518W        W21747  29.471  20.707   3.679
53519W        W21748  11.434  39.060   0.965
53520W        W21749   8.719  22.675   4.451
53521W        W21750   5.840  29.498  12.978
53522W        W21751  24.230  18.514   2.805
53523W        W21752   6.054  42.928  13.704
53524W        W21753  27.627  20.968   3.799
53525W        W21754  30.472  15.579   2.884
53526W        W21755  26.071   4.654   2.602
53527W        W21756  33.037   6.847   2.871
53528W        W21757  25.624  11.733   3.388
53529W        W21758  31.836  22.026  11.589
53530W        W21759  35.198  24.677  14.530
53531W        W21760   9.248  41.719  11.683
53532W        W21761  22.654  32.256   3.125
53533W        W21762  21.722  12.809   3.180
53534W        W21763  39.306  29.435  13.333
53535W        W21764  21.216  36.246  10.492
53536W        W21765  39.951  41.027  11.071
53537W        W21766  35.859  19.999   4.577
53538W        W21767   4.672  29.456  13.433
53539W        W21768  26.017  35.848  10.776
53540W        W21769   9.934  10.915  14.675
53541W        W21770  11.112  21.781  14.905
53542W        W21771  41.795  40.341   3.715
53543W        W21772  35.395  20.206   4.488
53544W        W21773  35.456  10.149   3.458
53545W        W21774   4.883  33.511  14.096
53546W        W21775  40.319  39.496   2.342
53547W        W21776  20.202  13.325  14.833
53548W        W21777  40.160  21.986  12.665
53549W        W21778  12.175  25.237   2.648
53550W        W21779   5.779   8.566   3.798
53551W        W21780   9.656  17.744  12.504
53552W        W21781  35.282  26.731   1.912
53553W        W21782   7.118   2.465  12.038
53554W        W21783  43.864  37.069   4.149
53555W        W21784  14.026   9.906  10.289
53556W        W21785  11.022  31.674   1.846
53557W        W21786  15.177  23.831   3.130
53558W        W21787  35.153  38.329   3.250
53559W        W21788  36.902  25.196   4.082
53560W        W21789  20.628  38.768  11.583
53561W        W21790  35.007  19.365   4.552
53562W        W21791  37.235  19.674  14.317
53563W        W21792  42.772  21.232   0.372
53564W        W21793   5.675   0.289  13.368
53565W        W21794  37.383  24.674  12.348
53566W        W21795   4.523   6.181   4.298
53567W        W21796  10.208   8.272  13.462
53568W        W21797  42.614   1.993  14.102
53569W        W21798  25.478  37.302   0.968
53570W        W21799   4.036   2.114   1.247
53571W        W21800  31.206  11.744   1.745
53572W        W21801  42.387   4.920  11.878
53573W        W21802   7.954  39.058   2.837
53574W        W21803  17.622  41.768  13.914
53575W        W21804  15.557  33.400   0.922
53576W        W21805  38.115  31.132   2.709
53577W        W21806  36.365   0.496   1.200
53578W        W21807  35.568   7.240  10.305
53579W        W21808   3.457   1.881  14.782
53580W        W21809  14.655  22.041   4.586
53581W        W21810  38.543  30.548  12.394
53582W        W21811  14.824   2.266   0.828
53583W        W21812   5.745  14.150  11.953
53584W        W21813   1.901  14.750   2.183
53585W        W21814  31.691  18.835   2.680
53586W        W21815   0.496  30.442   4.121
53587W        W21816  14.691  34.757   1.922
53588W        W21817  11.655  35.515  14.473
53589W        W21818   1.977  27.871   3.964
53590W        W21819  35.281  11.806   2.631
53591W        W21820  44.323   1.380   3.952
53592W        W21821   6.426  23.666   0.546
53593W        W21822  14.610  18.371  10.177
53594W        W21823  37.628  23.755   0.909
53595W        W21824  39.384  37.564   0.470
53596W        W21825  38.558   7.427   2.717
53597W        W21826  17.280   8.426  12.534
53598W        W21827   6.119  10.103   0.560
53599W        W21828  10.535  22.413   4.152
53600W        W21829  43.367  37.849   0.740
53601W        W21830  42.954  10.428   1.067
53602W        W21831  33.195  21.018   0.889
53603W        W21832  30.023  19.515  11.369
53604W        W21833  38.357  34.848   2.189
53605W        W21834  12.981  15.784   1.432
53606W        W21835   1.774  41.911   0.840
53607W        W21836  33.176   5.922   1.213
53608W        W21837  44.489  12.607   2.375
53609W        W21838   3.889  21.219   5.427
53610W        W21839  29.938  28.072  13.830
53611W        W21840  10.116  38.915   1.201
53612W        W21841   7.510  18.699  12.609
53613W        W21842  19.672   8.050   1.821
53614W        W21843   4.400  28.305  11.176
53615W        W21844  32.044  35.263  14.044
53616W        W21845  22.453  38.341  11.248
53617W        W21846  18.526  18.100   5.432
53618W        W21847   4.345  15.926   3.831
53619W        W21848   6.665   1.141  11.548
53620W        W21849  37.065  27.098  14.392
53621W        W21850  11.534  15.966   2.348
53622W        W21851   0.366   9.283  11.409
53623W        W21852  13.807  26.547   0.349
53624W        W21853   9.061  28.548   1.403
53625W        W21854  18.567  26.067   2.719
53626W        W21855  16.527  15.760  14.507
53627W        W21856  36.505  14.070  14.929
53628W        W21857  19.882  10.123  13.330
53629W        W21858  38.276  41.228  10.414
53630W        W21859  18.626  29.903   3.647
53631W        W21860   0.732  36.870   3.774
53632W        W21861  14.092  39.142   1.226
53633W        W21862  42.925  35.371   0.257
53634W        W21863  25.207  18.124   4.646
53635W        W21864  39.989  39.240  13.397
53636W        W21865  22.980  41.381  12.581
53637W        W21866   5.501   4.354  13.935
53638W        W21867   1.931  13.693  14.649
53639W        W21868  36.563  31.601  11.621
53640W        W21869   8.129  39.396   0.974
53641W        W21870  25.497  30.947   0.259
53642W        W21871  21.677   8.324   4.416
53643W        W21872   8.776  14.443  14.825
53644W        W21873  12.302  25.971  14.329
53645W        W21874  13.996  23.796   5.077
53646W        W21875  30.521  30.174   4.577
53647W        W21876  44.394  16.325   2.730
53648W        W21877  37.783  17.734   0.991
53649W        W21878  19.853  23.548  13.758
53650W        W21879  25.523  24.506   1.802
53651W        W21880  38.405   2.743  11.120
53652W        W21881  31.984  10.243  13.863
53653W        W21882   5.570   2.832   2.657
53654W        W21883   2.368  25.359  11.478
53655W        W21884  42.370  39.883   4.598
53656W        W21885   7.832  25.232  11.486
53657W        W21886  33.663  37.663   0.479
53658W        W21887  10.484  17.509  12.047
53659W        W21888  16.845   5.177   2.706
53660W        W21889  42.416  28.780  11.082
53661W        W21890  36.598   7.344  11.995
53662W        W21891  19.275  23.506   4.131
53663W        W21892  16.640  26.703   4.087
53664W        W21893  25.139   0.114  14.449
53665W        W21894  38.514  23.629  13.451
53666W        W21895   5.661  23.620  14.549
53667W        W21896   0.183  26.008  11.597
53668W        W21897  12.994  41.224  11.577
53669W        W21898  29.032   6.868  11.267
53670W        W21899  23.833  33.198  13.855
53671W        W21900  38.335  22.113  13.135
53672W        W21901  28.645  30.531   2.110
53673W        W21902  14.082  26.715  13.958
53674W        W21903  31.060  43.970   2.186
53675W        W21904  40.448  15.580  13.463
53676W        W21905  10.694  14.154  11.921
53677W        W21906  20.085  26.513  12.367
53678W        W21907  27.881   3.099  11.582
53679W        W21908  30.923   7.198  14.685
53680W        W21909  39.421  34.310  11.224
53681W        W21910  38.336  19.505   4.858
53682W        W21911  25.553   1.446  14.346
53683W        W21912   4.731  29.508   4.041
53684W        W21913   4.587  33.678   5.171
53685W        W21914  27.362  18.770   2.302
53686W        W21915  14.498  36.112  14.573
53687W        W21916  35.584   6.894  14.377
53688W        W21917  31.297  28.677   3.332
53689W        W21918  36.031  34.193  11.584
53690W        W21919  37.137  21.529  10.433
53691W        W21920  32.149  11.450  14.796
53692W        W21921  15.398  22.637   0.481
53693W        W21922  13.375  11.102  14.913
53694W        W21923  36.564   6.936   4.134
53695W        W21924   2.882  41.384  13.354
53696W        W21925  42.455  41.316   1.430
53697W        W21926   0.037  20.177  13.881
53698W        W21927  34.979  10.602  10.388
53699W        W21928  44.503  22.667  10.641
53700W        W21929  26.438   9.739  13.539
53701W        W21930  37.343  35.994  14.382
53702W        W21931   6.708  22.137  13.963
53703W        W21932  42.756  40.394   0.299
53704W        W21933  24.921  21.392   3.768
53705W        W21934   1.111   9.406  11.712
53706W        W21935  43.050  11.702   0.451
53707W        W21936  44.448  39.721   1.825
53708W        W21937   1.418  31.334   2.146
53709W        W21938   3.526   9.331   2.634
53710W        W21939  10.788  30.879  11.394
53711W        W21940   7.914  43.757   4.590
53712W        W21941  33.370  12.903   2.700
53713W        W21942  18.252  20.071  11.555
53714W        W21943  10.554   4.664   2.700
53715W        W21944  41.831  30.400   3.533
53716W        W21945  37.482  31.933  13.138
53717W        W21946   0.392  33.786   0.707
53718W        W21947  13.796  11.031   2.625
53719W        W21948  21.031  27.122   0.731
53720W        W21949  11.161  26.557  14.410
53721W        W21950  22.434  12.269   0.194
53722W        W21951  13.662  14.742   2.322
53723W        W21952  19.399  11.722   4.255
53724W        W21953   6.402   5.793  12.010
53725W        W21954   9.097  27.644  11.933
53726W        W21955   3.907  19.698   4.593
53727W        W21956  14.772   3.408  13.402
53728W        W21957  44.084   7.227  14.425
53729W        W21958  21.789  15.888   2.098
53730W        W21959   2.447   1.475   1.407
53731W        W21960   6.438  38.221   3.056
53732W        W21961  29.986   7.946  12.972
53733W        W21962   0.804  10.310   3.715
53734W        W21963   2.270  13.821   2.402
53735W        W21964   6.826  10.677   4.640
53736W        W21965  11.600   2.849   0.997
53737W        W21966  42.848  40.762  13.471
53738W        W21967  38.599  22.995   0.050
53739W        W21968  29.787   0.447   0.278
53740W        W21969  13.511  31.550   4.864
53741W        W21970  19.614   5.459  14.387
53742W        W21971   0.967  27.989   4.251
53743W        W21972  44.897  41.544  13.803
53744W        W21973  15.498  10.159  14.655
53745W        W21974  21.088  23.266   3.648
53746W        W21975  41.030  41.305  12.523
53747W        W21976  10.812  28.686   4.384
53748W        W21977  36.154  33.700  11.749
53749W        W21978  12.440  43.123   3.177
53750W        W21979  10.301   0.745  10.721
53751W        W21980  15.686  29.645  14.700
53752W        W21981  29.878  28.925   2.586
53753W        W21982  19.604  16.093  14.873
53754W        W21983  31.297   0.301   1.142
53755W        W21984  20.654  28.091   0.789
53756W        W21985  34.664  17.796   1.314
53757W        W21986  41.479  34.586   3.624
53758W        W21987   1.280  13.591   2.185
53759W        W21988   8.432  11.147  12.040
53760W        W21989  35.938   3.947   4.545
53761W        W21990  35.033   6.415   4.984
53762W        W21991  27.550  42.870   2.918
53763W        W21992  11.637  37.071   2.675
53764W        W21993   8.272  24.097  12.408
53765W        W21994  13.161  39.401   0.195
53766W        W21995  40.984  31.267  11.207
53767W        W21996  35.887  25.397  12.303
53768W        W21997   8.141  40.797   1.317
53769W        W21998  25.553  23.658  13.086
53770W        W21999  10.453  18.782  14.083
53771W        W22000   7.733  18.317  10.822
53772W        W22001  10.452  18.616  12.918
53773W        W22002   4.172  36.549   2.918
53774W        W22003  33.780  39.300   9.985
53775W        W22004  21.283  38.164  14.011
53776W        W22005  44.503  14.530  13.371
53777W        W22006  22.610  11.915   9.925
53778W        W22007  38.320  26.051   1.760
53779W        W22008  40.379  16.940  12.483
53780W        W22009   8.807  10.382  12.178
53781W        W22010  27.360   2.448  11.915
53782W        W22011  44.234  24.237  13.644
53783W        W22012   6.923  43.311   1.475
53784W        W22013   9.613  26.655   3.600
53785W        W22014  36.844  23.258   1.749
53786W        W22015  22.041   6.186  12.932
53787W        W22016   6.872   7.893  12.407
53788W        W22017  23.717  12.658  13.363
53789W        W22018  11.779  39.268  10.614
53790W        W22019  24.595  22.767  13.869
53791W        W22020   3.511  29.090  14.470
53792W        W22021   9.192  26.562  11.561
53793W        W22022  29.782   9.375   3.382
53794W        W22023  18.795   7.608  14.455
53795W        W22024  10.432  35.023  12.268
53796W        W22025  44.279   8.161   0.783
53797W        W22026  26.116  43.206  11.563
53798W        W22027  28.090   3.320   2.476
53799W        W22028  44.681  13.558  14.766
53800W        W22029  37.530   9.759   2.412
53801W        W22030  34.514  42.305   0.308
53802W        W22031  34.005  44.613   2.228
53803W        W22032  12.615  34.016   1.428
53804W        W22033   5.296  41.874   4.644
53805W        W22034  44.849  24.011   2.630
53806W        W22035  37.319  17.701  13.649
53807W        W22036  44.411  32.271   5.261
53808W        W22037  18.554  26.543   1.939
53809W        W22038  35.837  11.135  11.155
53810W        W22039   0.667  22.757  12.059
53811W        W22040   4.141   9.303  13.539
53812W        W22041  39.946  19.740   5.182
53813W        W22042  36.998  42.969  14.418
53814W        W22043  22.088  44.034   3.859
53815W        W22044   0.298  35.480   1.389
53816W        W22045  20.690  43.216  13.233
53817W        W22046   8.735  10.640   3.294
53818W        W22047   9.300   0.241   3.386
53819W        W22048  17.397  43.284   4.069
53820W        W22049  26.940   0.928   3.743
53821W        W22050  40.441  35.091  10.826
53822W        W22051  20.991  13.242   3.340
53823W        W22052  27.669  24.047  12.895
53824W        W22053   1.565  12.026   0.416
53825W        W22054  11.824  39.972  13.493
53826W        W22055   7.267   5.789   0.997
53827W        W22056  14.631  34.849  14.285
53828W        W22057   6.373  23.308  12.623
53829W        W22058  33.064  41.026  13.516
53830W        W22059   4.345  15.260  13.885
53831W        W22060  30.688   5.443   3.657
53832W        W22061  41.909   2.750  11.555
53833W        W22062  24.476   0.669   3.062
53834W        W22063  35.997  36.092   2.280
53835W        W22064  37.896  18.326   2.749
53836W        W22065  22.010  38.631   1.807
53837W        W22066  36.936  15.316  12.227
53838W        W22067  11.543   9.275   2.612
53839W        W22068  36.503  26.618  11.146
53840W        W22069  35.925  14.480   4.532
53841W        W22070  34.309  11.180  13.389
53842W        W22071   4.238  22.591   1.501
53843W        W22072  43.439   9.209   1.283
53844W        W22073   5.703  12.829   0.318
53845W        W22074   2.555  30.060   2.067
53846W        W22075  12.817   9.432  13.356
53847W        W22076   9.123   2.179  11.188
53848W        W22077   8.499  44.678   3.223
53849W        W22078  21.571  28.788   2.503
53850W        W22079  28.554   5.965   1.040
53851W        W22080  14.551  11.375   2.238
53852W        W22081  18.874  20.802   3.695
53853W        W22082  32.079  11.892   0.133
53854W        W22083   3.382  27.273  10.237
53855W        W22084  35.507  27.643   1.747
53856W        W22085  43.297   2.632  11.403
53857W        W22086  20.040  27.196  11.202
53858W        W22087  16.675  36.040   1.810
53859W        W22088  40.882  10.389   3.337
53860W        W22089  34.746  39.355  14.892
53861W        W22090  10.167  24.331  10.818
53862W        W22091   2.365   9.685   0.722
53863W        W22092  41.620  44.562  13.508
53864W        W22093   0.151  22.022  10.644
53865W        W22094  38.879  34.912  12.611
53866W        W22095  13.830   1.313   1.372
53867W        W22096  18.484  37.088   2.688
53868W        W22097  19.764  23.475  12.409
53869W        W22098  19.170   6.341   2.380
53870W        W22099  21.715  24.928   1.719
53871W        W22100  26.682  19.793  12.368
53872W        W22101   7.199  14.140   4.149
53873W        W22102  21.674  42.560   2.403
53874W        W22103  30.051  16.195  13.130
53875W        W22104  12.537  34.549  11.039
53876W        W22105   6.387  39.913   3.728
53877W        W22106   0.511  12.598  13.506
53878W        W22107   3.177   8.303   3.905
53879W        W22108  20.134  31.880  11.281
53880W        W22109  35.154  25.996   1.683
53881W        W22110  11.925  27.916   1.966
53882W        W22111   0.712  15.761   0.185
53883W        W22112  22.754  16.838  14.428
53884W        W22113  17.784  41.893  14.875
53885W        W22114  30.122  17.614  12.921
53886W        W22115  18.708   6.402   4.025
53887W        W22116   0.167  24.301   4.438
53888W        W22117  40.374  27.985   2.248
53889W        W22118  35.427  40.624  11.038
53890W        W22119  33.809  22.092   1.017
53891W        W22120  31.526  18.550  13.143
53892W        W22121  36.182   6.539  12.591
53893W        W22122  17.046  29.073  14.631
53894W        W22123  27.115  26.604   2.890
53895W        W22124   5.543   1.236   3.583
53896W        W22125   3.422  30.201  11.076
53897W        W22126  44.862  38.287   0.340
53898W        W22127  14.699   8.079  10.680
53899W        W22128  23.589  39.787  11.063
53900W        W22129  26.578  35.092   2.904
53901W        W22130  39.516   7.204  12.424
53902W        W22131  28.945  24.202   2.665
53903W        W22132  35.091  35.562  13.588
53904W        W22133  16.324  34.466  11.617
53905W        W22134   8.302   5.749  13.031
53906W        W22135   2.995   1.844   1.488
53907W        W22136   4.616  22.037   5.030
53908W        W22137   7.956  14.187   3.693
53909W        W22138  29.872  18.726  14.069
53910W        W22139  43.228  21.009  11.024
53911W        W22140   3.685  22.653  10.811
53912W        W22141  26.875  31.353   1.811
53913W        W22142   1.418   1.652   0.921
53914W        W22143  10.820  22.534  12.109
53915W        W22144   1.762  12.453  13.590
53916W        W22145  11.438  24.588   0.208
53917W        W22146  22.263   9.352  13.973
53918W        W22147  12.108  23.493  11.505
53919W        W22148  17.207  27.959  12.046
53920W        W22149  42.325  36.015   0.399
53921W        W22150  12.795  28.919   2.376
53922W        W22151  17.202  33.620  14.984
53923W        W22152   7.239   2.159  10.631
53924W        W22153   3.936   8.978   1.847
53925W        W22154  15.745  33.588   2.873
53926W        W22155  22.228  21.603  11.649
53927W        W22156   3.003   8.897  12.435
53928W        W22157  42.533  23.055  11.716
53929W        W22158   0.264  42.856  14.357
53930W        W22159  29.479  10.301   0.793
53931W        W22160  31.025  12.795   3.730
53932W        W22161  10.717  39.836   0.518
53933W        W22162  19.729  18.701   1.851
53934W        W22163  12.593  27.536  12.072
53935W        W22164   4.288  24.600  11.123
53936W        W22165  39.149  16.921   4.732
53937W        W22166  31.846   5.328  10.778
53938W        W22167  32.581  13.836  11.473
53939W        W22168  18.655   2.459  13.235
53940W        W22169  22.198  15.028  11.111
53941W        W22170  16.826   8.776   0.321
53942W        W22171  15.147  21.245  10.455
53943W        W22172  15.638  13.145   3.576
53944W        W22173   7.229  23.531  14.433
53945W        W22174  33.722  29.172  11.528
53946W        W22175  18.022  32.986  11.922
53947W        W22176   2.819  44.115  14.446
53948W        W22177  35.569  16.765   5.439
53949W        W22178   1.533   9.826  13.090
53950W        W22179  40.438  33.110  10.592
53951W        W22180  38.962  35.682   2.229
53952W        W22181   9.985   5.787   3.503
53953W        W22182   2.725   8.239  14.818
53954W        W22183  20.133  21.221   5.007
53955W        W22184   8.479  14.181   3.575
53956W        W22185   2.390  17.299  13.612
53957W        W22186  17.906   6.248  10.670
53958W        W22187   6.214  21.279   5.150
53959W        W22188  17.248  25.110   2.988
53960W        W22189  38.815  21.638  14.339
53961W        W22190   2.766   1.347   3.637
53962W        W22191  40.700  22.385   2.119
53963W        W22192   6.331  15.897  12.001
53964W        W22193  29.969   4.038  13.122
53965W        W22194  25.596  27.622   3.878
53966W        W22195  38.787  41.925   5.109
53967W        W22196  38.920  10.093  13.482
53968W        W22197  19.546  10.173  13.864
53969W        W22198  21.646   5.854  12.142
53970W        W22199  21.610  33.048  13.391
53971W        W22200   5.938   6.384  13.915
53972W        W22201  36.512  10.616  10.636
53973W        W22202  37.359   3.250   2.251
53974W        W22203   3.211   4.585   4.970
53975W        W22204  43.799  44.839   2.357
53976W        W22205  12.887   4.698  14.391
53977W        W22206  12.612  28.655  13.752
53978W        W22207  13.172  25.718  13.481
53979W        W22208  40.758   4.131   1.526
53980W        W22209  40.892   3.340   3.884
53981W        W22210  26.315  31.580  10.223
53982W        W22211  12.555   1.921  12.546
53983W        W22212  34.517  23.860  13.882
53984W        W22213   8.560  29.004   3.657
53985W        W22214   3.819  33.515   1.890
53986W        W22215  29.324   2.303   4.658
53987W        W22216  27.178  35.642   5.029
53988W        W22217  37.591  24.102   2.239
53989W        W22218  19.853  26.680   4.205
53990W        W22219  24.791  10.730   3.764
53991W        W22220   3.625   0.002  13.306
53992W        W22221  40.348  23.556   3.845
53993W        W22222  15.719  33.428  11.919
53994W        W22223  10.472   4.975   1.723
53995W        W22224  22.704  12.212  11.990
53996W        W22225  38.524  42.053   2.249
53997W        W22226   1.969  33.637  12.155
53998W        W22227  23.770  15.662   4.172
53999W        W22228  26.559  43.408   1.419
54000W        W22229  24.093  11.596   4.400
54001W        W22230  19.716  29.707   1.908
54002W        W22231   9.714  40.528   0.810
54003W        W22232   9.800  27.738   4.301
54004W        W22233  37.343  43.026  13.588
54005W        W22234   3.265   3.376   4.046
54006W        W22235  28.357  19.252  12.872
54007W        W22236  11.145   2.862   1.241
54008W        W22237  38.022   0.979   2.809
54009W        W22238  15.303  40.570   3.989
54010W        W22239  37.605  43.965  13.351
54011W        W22240  28.683  10.834   2.421
54012W        W22241  25.469  32.276   4.132
54013W        W22242  22.486   2.963  10.465
54014W        W22243   6.022  16.620  14.598
54015W        W22244  14.564   3.118   3.878
54016W        W22245  10.625  20.756   2.114
54017W        W22246  35.139   5.805   3.499
54018W        W22247  29.157  34.348  14.359
54019W        W22248  25.541   8.137  13.864
54020W        W22249   4.322  11.607  11.638
54021W        W22250  14.657  13.289   0.810
54022W        W22251  14.042  37.949   3.086
54023W        W22252  21.344  14.838  12.926
54024W        W22253  11.336  30.847  12.946
54025W        W22254  12.179  25.801  12.048
54026W        W22255  31.067  13.904   2.235
54027W        W22256  10.732  43.904   2.103
54028W        W22257  10.195  13.727   0.964
54029W        W22258  28.420  36.416   1.317
54030W        W22259  42.934  36.964  10.757
54031W        W22260  41.989  29.620   9.956
54032W        W22261  24.411  41.346  12.943
54033W        W22262  27.615  17.088   3.105
54034W        W22263   1.725  10.301   2.058
54035W        W22264  22.543  15.545  12.470
54036W        W22265  38.044  34.465   2.310
54037W        W22266  22.785  28.884  14.367
54038W        W22267   1.540  22.731  10.847
54039W        W22268  35.430  23.120   3.838
54040W        W22269  27.438  39.385  11.791
54041W        W22270  10.985  30.659  14.210
54042W        W22271  16.984  21.044   2.711
54043W        W22272   4.005  34.280  14.389
54044W        W22273  36.309  40.022   3.137
54045W        W22274  28.871  33.437  12.985
54046W        W22275  22.823  25.175   5.107
54047W        W22276  21.422  28.047  13.846
54048W        W22277  11.418  10.981   3.720
54049W        W22278  28.164  31.436  12.947
54050W        W22279  18.531  22.983  10.791
54051W        W22280  33.641  42.843  10.683
54052W        W22281   4.143  20.965   1.992
54053W        W22282  40.954   4.047  13.631
54054W        W22283  35.059  18.629  14.277
54055W        W22284   6.857   4.741  14.411
54056W        W22285  24.255  31.371   4.158
54057W        W22286  10.402  18.650  11.255
54058W        W22287   1.365  28.954  10.623
54059W        W22288  21.373  41.132  11.239
54060W        W22289  22.795   5.682  14.879
54061W        W22290  20.235   7.760   3.228
54062W        W22291  41.081  17.808   1.733
54063W        W22292  16.062  31.188  11.574
54064W        W22293  27.446   5.329  12.210
54065W        W22294   0.399  39.332  14.869
54066W        W22295  34.643  40.406   3.299
54067W        W22296  44.197  37.375  10.262
54068W        W22297   1.916  44.192  12.482
54069W        W22298  21.829  14.844  14.971
54070W        W22299  30.072  23.439   4.165
54071W        W22300  15.831   7.911  14.782
54072W        W22301  32.606  28.359   0.889
54073W        W22302   6.259  22.872  12.383
54074W        W22303   3.842  44.550  13.430
54075W        W22304  27.605  23.566  10.719
54076W        W22305  11.726  43.947   2.260
54077W        W22306   1.337  21.999   3.487
54078W        W22307   0.485  38.894   2.351
54079W        W22308  13.763   0.603  13.981
54080W        W22309  21.639  39.472  14.457
54081W        W22310  42.076  36.560   3.920
54082W        W22311  30.890  32.220   0.301
54083W        W22312  42.538  23.039   4.760
54084W        W22313  40.725   1.980   1.977
54085W        W22314  34.563  41.402  14.898
54086W        W22315   6.172   0.050   3.619
54087W        W22316  14.567  39.625  12.212
54088W        W22317  11.894  38.258  12.554
54089W        W22318  12.580  29.391   2.249
54090W        W22319  38.424  18.981  14.029
54091W        W22320  19.719  17.335   4.589
54092W        W22321  40.904  41.087  12.077
54093W        W22322  31.030  20.229  12.490
54094W        W22323  13.110  20.228  13.908
54095W        W22324   7.856  37.852   0.914
54096W        W22325  26.728  23.928   0.790
54097W        W22326  42.507   4.832  12.848
54098W        W22327  34.018  31.035  12.626
54099W        W22328  10.536   8.181  11.633
54100W        W22329   4.969  31.350  13.546
54101W        W22330  18.100  23.356  11.656
54102W        W22331  32.525   5.722  12.412
54103W        W22332  25.646  11.308  12.419
54104W        W22333  29.957  24.470   0.441
54105W        W22334   3.731  13.207  14.087
54106W        W22335  29.084   2.346  13.099
54107W        W22336  10.574   6.885  11.908
54108W        W22337  13.921  11.862   2.143
54109W        W22338  19.219  22.187  13.857
54110W        W22339  12.386  41.775   3.382
54111W        W22340  33.037  35.333  14.419
54112W        W22341  21.078   4.227  14.922
54113W        W22342  43.220  26.624  12.060
54114W        W22343  14.601   1.074  14.887
54115W        W22344   0.089  15.804  14.441
54116W        W22345  31.369   6.715   4.502
54117W        W22346  19.764   0.668  12.812
54118W        W22347  18.175   9.939  14.389
54119W        W22348   2.115  20.932  10.135
54120W        W22349  12.916  31.506  12.034
54121W        W22350  14.190  31.473   3.674
54122W        W22351   3.927  14.157  11.981
54123W        W22352   8.750   4.842   1.241
54124W        W22353  43.778  18.095  12.023
54125W        W22354   4.932  37.374   4.123
54126W        W22355  31.538   7.768   0.761
54127W        W22356  21.132   9.679  11.165
54128W        W22357  39.662  32.918  14.255
54129W        W22358  32.174  18.554  11.414
54130W        W22359   4.182  42.465   4.700
54131W        W22360   1.253   2.956   1.431
54132W        W22361  36.957  39.410  14.100
54133W        W22362  17.642  19.181   1.328
54134W        W22363  23.945  33.572  13.466
54135W        W22364  38.210  11.293  12.185
54136W        W22365  36.941  36.443   1.008
54137W        W22366   6.970  22.539  14.157
54138W        W22367  39.938  19.439   4.295
54139W        W22368  21.007  12.169  10.586
54140W        W22369  17.553  15.312  13.679
54141W        W22370   7.745  26.652   2.284
54142W        W22371  20.704   3.924  14.376
54143W        W22372  42.956  30.192   0.050
54144W        W22373   0.391  40.133  14.376
54145W        W22374  23.255  12.717   1.742
54146W        W22375  28.412  28.573  10.924
54147W        W22376  43.364  17.290   1.713
54148W        W22377  30.959   1.993  10.790
54149W        W22378  43.544  37.417   4.756
54150W        W22379  33.370   8.776  14.896
54151W        W22380  35.445   0.319   0.883
54152W        W22381  43.432  26.968   0.304
54153W        W22382  14.865  15.364   2.237
54154W        W22383  12.401  22.472  13.906
54155W        W22384   9.813  38.355   2.245
54156W        W22385  31.434  28.868   2.876
54157W        W22386  13.615  27.656   3.769
54158W        W22387  26.718  26.010  12.400
54159W        W22388  41.853  20.656   4.569
54160W        W22389   6.265  35.069  10.976
54161W        W22390  44.673  35.433   0.743
54162W        W22391  12.308  40.991  10.423
54163W        W22392  16.126  15.150   0.453
54164W        W22393  38.104  43.804  11.914
54165W        W22394  21.189  25.024  12.887
54166W        W22395  36.275  20.831   3.323
54167W        W22396  11.361   1.264   0.200
54168W        W22397  11.700  22.008   1.809
54169W        W22398   3.980   3.243  13.963
54170W        W22399   3.032   1.996  13.332
54171W        W22400  15.339  11.677  13.120
54172W        W22401  38.773  44.810  12.509
54173W        W22402  23.762  16.192  13.943
54174W        W22403  15.338  13.761  12.084
54175W        W22404  13.139   3.406   2.632
54176W        W22405  44.993  12.734   4.134
54177W        W22406  28.985  17.367  14.260
54178W        W22407  15.079  13.777  11.568
54179W        W22408  23.711  42.877   2.158
54180W        W22409  31.930   2.318  13.567
54181W        W22410  28.447  38.372  12.359
54182W        W22411  28.196  14.066  11.098
54183W        W22412  23.441  18.667   4.457
54184W        W22413  12.047   5.909  11.502
54185W        W22414  36.356   4.886   1.918
54186W        W22415  43.894  32.539   2.711
54187W        W22416  23.545  21.143   2.786
54188W        W22417   7.983  27.175   3.215
54189W        W22418  21.467  31.107  11.941
54190W        W22419  24.328  34.399   2.739
54191W        W22420  44.775  13.762   3.222
54192W        W22421  21.042   9.761  14.434
54193W        W22422  42.379  17.200  12.193
54194W        W22423   2.331  24.866  10.607
54195W        W22424  42.281  12.590   2.409
54196W        W22425   9.699  25.221   3.374
54197W        W22426  18.788  24.255  11.027
54198W        W22427  15.501  13.749  10.273
54199W        W22428   4.740  14.183   3.236
54200W        W22429   8.922  14.936  13.810
54201W        W22430  38.422  13.633  11.711
54202W        W22431   3.809  28.452   4.126
54203W        W22432  14.603  27.124   0.408
54204W        W22433  40.522  32.081  10.958
54205W        W22434  28.215   4.232   4.112
54206W        W22435  14.077  32.802  11.576
54207W        W22436  38.084  30.589   0.807
54208W        W22437   6.446  27.034  14.005
54209W        W22438   1.007   8.332   2.808
54210W        W22439  14.083   2.145  14.005
54211W        W22440  34.035  29.628  14.298
54212W        W22441  35.451   3.332  13.511
54213W        W22442  19.560  32.168  12.051
54214W        W22443  29.403  19.087   1.360
54215W        W22444  35.685  28.708   2.095
54216W        W22445  26.068  18.064  14.988
54217W        W22446   7.326   9.742   1.216
54218W        W22447   2.202   1.706   2.190
54219W        W22448  25.499  16.892   4.495
54220W        W22449  31.396  28.874  11.446
54221W        W22450  31.403  16.834   3.239
54222W        W22451  16.665  35.111  10.322
54223W        W22452  13.101  43.490   0.308
54224W        W22453  22.123  30.116   2.670
54225W        W22454  27.378  21.227   2.355
54226W        W22455  20.726   7.160  11.580
54227W        W22456  28.613  30.491   2.631
54228W        W22457  28.339  33.315  13.038
54229W        W22458  33.453  40.502   1.951
54230W        W22459  22.025  10.890   2.409
54231W        W22460  37.216  20.320   4.843
54232W        W22461  20.068  17.155  10.217
54233W        W22462  39.847  23.728   3.751
54234W        W22463  37.861   3.430   2.389
54235W        W22464  38.094   3.523   5.145
54236W        W22465  19.818   1.262  12.795
54237W        W22466  15.165   2.389  14.764
54238W        W22467  42.048   9.216   3.921
54239W        W22468  28.643   0.927   3.463
54240W        W22469  37.361  42.202   3.358
54241W        W22470  15.035  20.179  12.850
54242W        W22471   9.809  31.447   0.878
54243W        W22472  20.948  42.831  11.681
54244W        W22473  28.667   6.161  11.480
54245W        W22474  28.428  25.731   0.256
54246W        W22475  37.940  32.350   1.947
54247W        W22476   7.441   9.857   1.734
54248W        W22477   6.217  14.555   0.945
54249W        W22478   4.248  10.155  13.396
54250W        W22479  41.582  35.525  14.450
54251W        W22480  23.072  41.904  12.423
54252W        W22481   3.937  27.151   1.321
54253W        W22482  11.609  33.556   0.131
54254W        W22483  15.694  27.468   1.737
54255W        W22484  15.742  30.064   2.926
54256W        W22485  28.756  39.900   3.224
54257W        W22486  24.233  15.648  11.973
54258W        W22487  23.122  23.522  14.824
54259W        W22488  44.765  38.511  11.872
54260W        W22489  17.580   4.326   3.535
54261W        W22490  44.408   7.964  12.011
54262W        W22491  13.731  22.225  13.995
54263W        W22492  25.047  17.508  12.073
54264W        W22493  15.177  19.062   1.721
54265W        W22494  33.971  13.803  12.366
54266W        W22495  15.340  33.928  14.469
54267W        W22496  31.957  36.056  10.928
54268W        W22497  34.200   8.489   1.907
54269W        W22498  25.236  44.942   1.398
54270W        W22499  15.823  11.295   0.293
54271W        W22500   2.209  21.623   2.610
54272W        W22501  11.632  10.092   3.658
54273W        W22502  32.486  22.437  12.848
54274W        W22503   3.240  35.559   2.268
54275W        W22504  30.393  24.192  13.379
54276W        W22505  25.125  33.816  13.795
54277W        W22506  25.415  13.598  12.965
54278W        W22507  30.370  43.597   3.547
54279W        W22508  28.058  18.737   0.922
54280W        W22509   6.116   5.075  12.940
54281W        W22510  37.852  29.903   2.274
54282W        W22511  18.482  26.194  13.920
54283W        W22512  38.583  29.063  14.995
54284W        W22513  31.417   5.974  13.970
54285W        W22514  12.249  11.665  14.004
54286W        W22515  36.806  30.881  13.849
54287W        W22516  26.099  21.550   0.672
54288W        W22517   8.864  44.386  14.956
54289W        W22518  26.716  35.791   4.166
54290W        W22519  21.548   0.432  14.957
54291W        W22520   3.830   0.484   0.859
54292W        W22521   8.428   5.348  11.188
54293W        W22522  15.375  13.234   3.147
54294W        W22523   5.494  37.049  11.037
54295W        W22524  22.475  32.026  10.297
54296W        W22525   8.567  43.467  11.734
54297W        W22526   4.941  24.269  13.500
54298W        W22527  16.672  28.383  12.998
54299W        W22528  21.077  26.136   2.754
54300W        W22529  14.243  28.276   2.218
54301W        W22530  14.273   1.813   0.591
54302W        W22531   2.204  18.980   0.884
54303W        W22532   7.669  28.791  12.947
54304W        W22533  26.630   3.248   2.788
54305W        W22534   9.363  30.893   2.322
54306W        W22535  29.440   6.814   2.891
54307W        W22536   6.178   5.372   3.763
54308W        W22537  13.889  18.590  11.599
54309W        W22538  11.611  40.562  10.893
54310W        W22539  15.345  20.165  11.075
54311W        W22540  17.032  26.132   1.237
54312W        W22541  14.376   6.827  14.968
54313W        W22542  16.024  34.984   1.292
54314W        W22543   4.744  44.317   1.539
54315W        W22544  35.920  37.008  10.745
54316W        W22545   0.796   7.425   2.537
54317W        W22546  23.017  13.770   1.195
54318W        W22547  13.194  44.951   1.473
54319W        W22548   4.694  22.434  10.902
54320W        W22549   6.892  27.314  14.050
54321W        W22550  39.130   3.177   1.022
54322W        W22551   9.203   0.762  13.986
54323W        W22552  27.886  28.114   1.350
54324W        W22553  27.214  26.832   3.961
54325W        W22554  10.366  35.142  11.765
54326W        W22555  18.333  36.313  11.987
54327W        W22556  10.687  29.858   0.350
54328W        W22557  42.136   6.614   2.831
54329W        W22558  16.367  32.345  10.737
54330W        W22559  31.606  22.428   1.992
54331W        W22560  38.836  44.516   1.309
54332W        W22561  28.431  38.628  14.710
54333W        W22562  28.951  25.653  11.833
54334W        W22563   8.194   6.602   1.611
54335W        W22564  37.533  14.852  13.799
54336W        W22565  16.202  32.394   1.672
54337W        W22566  35.647  17.180   1.467
54338W        W22567   7.236   0.044   0.750
54339W        W22568  25.788  39.382   4.195
54340W        W22569  41.002  40.011  10.838
54341W        W22570  35.922  25.161  13.607
54342W        W22571  24.030  10.144   2.763
54343W        W22572  12.070  44.778  10.683
54344W        W22573   2.616  18.680  10.934
54345W        W22574  24.388  42.523   0.789
54346W        W22575   2.346  17.026  12.498
54347W        W22576  23.104  43.020   4.048
54348W        W22577  37.645  44.955  10.542
54349W        W22578  14.138  42.684   2.774
54350W        W22579  31.072  25.203  14.446
54351W        W22580  15.650  17.190  13.453
54352W        W22581   3.509  32.879  14.401
54353W        W22582  44.335  33.894   1.324
54354W        W22583  38.293  32.095   2.817
54355W        W22584  13.860  18.834  11.140
54356W        W22585   2.956  10.819   4.210
54357W        W22586  14.822   4.270   1.740
54358W        W22587  14.275   0.471   2.740
54359W        W22588  34.894  33.724   4.498
54360W        W22589  38.813   9.689   2.813
54361W        W22590  22.731  42.278  12.661
54362W        W22591   3.180  18.240  11.941
54363W        W22592  10.798   9.386   0.901
54364W        W22593   1.533  40.512   2.316
54365W        W22594  14.775  43.460  11.914
54366W        W22595  14.070   1.367   1.850
54367W        W22596   7.532  26.507   5.198
54368W        W22597  23.495   4.741   4.890
54369W        W22598  30.203  36.568  12.493
54370W        W22599  41.172   6.415   2.851
54371W        W22600  26.445   3.944  14.801
54372W        W22601  32.412  36.149  11.140
54373W        W22602   7.490  29.650  12.599
54374W        W22603  16.194  12.049  12.187
54375W        W22604   4.043  27.889  11.925
54376W        W22605  43.001   7.788   2.793
54377W        W22606  33.389  33.313   0.327
54378W        W22607  16.368   0.730   0.076
54379W        W22608  44.487  31.882  14.614
54380W        W22609   7.477  20.246  13.984
54381W        W22610  29.534  37.594   0.348
54382W        W22611  14.659   1.640   4.500
54383W        W22612   8.453   2.687  11.519
54384W        W22613   8.318   3.265  10.734
54385W        W22614   8.300  15.520  14.417
54386W        W22615  22.464  40.018  13.785
54387W        W22616  37.946  19.050  14.907
54388W        W22617  28.005  26.819   3.068
54389W        W22618  40.866  18.510   3.797
54390W        W22619  43.340  35.999   4.477
54391W        W22620  39.171  41.462   0.899
54392W        W22621   1.406  19.193   4.533
54393W        W22622  43.776  38.722  11.166
54394W        W22623  17.597  18.526   2.207
54395W        W22624  18.667   0.872  10.318
54396W        W22625  11.783  36.326   1.161
54397W        W22626  13.757  25.142   0.776
54398W        W22627   2.651   9.573   4.159
54399W        W22628   5.680   7.841   4.332
54400W        W22629  44.254  27.388  11.063
54401W        W22630  20.512  30.348   1.248
54402W        W22631   0.935  19.197  14.851
54403W        W22632  19.885  30.024   0.540
54404W        W22633  42.646  19.983   0.444
54405W        W22634   4.772  36.012  14.864
54406W        W22635   7.594   3.114   4.914
54407W        W22636  18.595  36.599   5.109
54408W        W22637  30.848   1.027   0.915
54409W        W22638  43.873  25.251   1.394
54410W        W22639  17.330  44.123  11.635
54411W        W22640  12.191  17.693   1.110
54412W        W22641  15.720  31.507  12.521
54413W        W22642  20.956   9.818  13.097
54414W        W22643  33.181  26.154  11.635
54415W        W22644  16.991  17.621  14.358
54416W        W22645  27.323  32.833  11.368
54417W        W22646  13.872   1.842   3.733
54418W        W22647   9.632  22.303  14.805
54419W        W22648  29.067  24.361   3.146
54420W        W22649  33.388  31.965   0.965
54421W        W22650  20.623  25.233  12.153
54422W        W22651  40.908  10.250   1.522
54423W        W22652  22.686  18.239  12.216
54424W        W22653  28.949  23.596  10.778
54425W        W22654  44.478  16.302   0.667
54426W        W22655  33.553   3.835  12.072
54427W        W22656  42.318   9.613   1.887
54428W        W22657  25.384  35.000  13.497
54429W        W22658   4.452  29.010   3.289
54430W        W22659  41.434  15.732  10.671
54431W        W22660  43.912  24.186  10.583
54432W        W22661  12.297   8.758  14.311
54433W        W22662  37.068  17.303  13.872
54434W        W22663  42.000   2.399  12.859
54435W        W22664  43.383  20.305   2.808
54436W        W22665  25.233  23.158  14.315
54437W        W22666  17.072   3.410   1.356
54438W        W22667  29.893  28.162   1.832
54439W        W22668  24.736  37.518  10.962
54440W        W22669  14.164  41.483   2.760
54441W        W22670  34.437  23.217   0.811
54442W        W22671  25.036  14.315   4.196
54443W        W22672   5.986   3.380  10.917
54444W        W22673  11.575  13.093   1.624
54445W        W22674  33.105  37.993  13.426
54446W        W22675   5.367   5.289  14.758
54447W        W22676  17.069   8.903  13.476
54448W        W22677  33.652   2.479  10.633
54449W        W22678  42.443  26.464  10.679
54450W        W22679   3.323  33.894  11.078
54451W        W22680  33.366  37.375  10.540
54452W        W22681  35.096  33.023   3.349
54453W        W22682   6.376  28.642   4.309
54454W        W22683  33.167  34.343   4.113
54455W        W22684  35.061  21.197   5.229
54456W        W22685   4.714   2.365   9.895
54457W        W22686  20.945  28.359   3.647
54458W        W22687  39.841  39.265   1.031
54459W        W22688  20.478  23.025  14.108
54460W        W22689  10.789  13.110  11.472
54461W        W22690  15.781  40.057  14.028
54462W        W22691   5.650  29.692  14.790
54463W        W22692  11.134  26.592   2.818
54464W        W22693  19.049   5.896  14.948
54465W        W22694  44.268  35.202  10.759
54466W        W22695  18.011  39.650  12.135
54467W        W22696  14.262  16.661   0.366
54468W        W22697  13.799  17.059  12.318
54469W        W22698  24.962  23.551   1.834
54470W        W22699  35.459  39.823   0.324
54471W        W22700  35.005  43.835  12.084
54472W        W22701  44.038  37.445   1.341
54473W        W22702  11.681  34.206   3.717
54474W        W22703  25.499  33.757  14.890
54475W        W22704  34.581  43.215  12.948
54476W        W22705   8.608  42.706   3.149
54477W        W22706  14.588  41.218  13.463
54478W        W22707  33.649   5.327  12.891
54479W        W22708  11.698   7.155  13.359
54480W        W22709   4.864  16.374  11.236
54481W        W22710  23.262  34.261  10.570
54482W        W22711  15.669  31.581  13.926
54483W        W22712  12.906  31.208   4.677
54484W        W22713   4.569  29.162   1.963
54485W        W22714   4.482   9.014  13.773
54486W        W22715  42.604  42.734   2.801
54487W        W22716  35.088  31.979  13.571
54488W        W22717  32.395  30.321  14.460
54489W        W22718  39.248  24.768  12.912
54490W        W22719  41.756  24.274  11.597
54491W        W22720  39.372  33.872  14.845
54492W        W22721  37.500  16.891   0.456
54493W        W22722  42.185  19.447  12.761
54494W        W22723  26.951  11.203  12.809
54495W        W22724  18.592   0.617   3.124
54496W        W22725   2.851  18.752   1.883
54497W        W22726  19.631   1.503  12.337
54498W        W22727  31.187  42.482   4.269
54499W        W22728  36.973  41.364  12.132
54500W        W22729  33.040  25.170   4.860
54501W        W22730  13.246  17.136   1.360
54502W        W22731  43.067   4.836  13.407
54503W        W22732  36.989   0.355   1.935
54504W        W22733  18.283  36.622  14.229
54505W        W22734  35.618   3.173   4.995
54506W        W22735  25.583  23.744   1.253
54507W        W22736  22.993  29.206  14.733
54508W        W22737  41.391   1.792  10.818
54509W        W22738  43.670  14.250  13.413
54510W        W22739   5.457  38.555   3.799
54511W        W22740  28.459  32.382   1.427
54512W        W22741  19.149   0.937  10.881
54513W        W22742   1.375  42.731  14.783
54514W        W22743  17.259  13.629   3.657
54515W        W22744  44.995  38.963  10.411
54516W        W22745  31.013  19.455   1.827
54517W        W22746  35.986  11.750  13.774
54518W        W22747  30.938  22.914   5.175
54519W        W22748  37.947   4.554   3.348
54520W        W22749  11.248   8.234  12.927
54521W        W22750  15.751  15.675   1.400
54522W        W22751  27.026  12.876   3.322
54523W        W22752   0.348  17.313   0.777
54524W        W22753  23.694   6.264   0.015
54525W        W22754  39.500  14.379  11.287
54526W        W22755  12.378  33.008   4.170
54527W        W22756   9.905   3.385   1.053
54528W        W22757  29.407  38.138  14.496
54529W        W22758  19.574   6.456  14.264
54530W        W22759  27.108   2.781  12.920
54531W        W22760  36.318  39.262  12.986
54532W        W22761  40.461  14.848  13.879
54533W        W22762  31.644   0.657   1.359
54534W        W22763  43.948   4.878  14.420
54535W        W22764  40.942  44.022   1.422
54536W        W22765   3.598  39.351   0.416
54537W        W22766  34.814  43.698  14.439
54538W        W22767  41.576  42.171  11.531
54539W        W22768  37.903  15.223   2.969
54540W        W22769   4.007   4.877  14.968
54541W        W22770   7.607   4.161   4.273
54542W        W22771  28.693   9.216   2.355
54543W        W22772  33.569  43.756   1.350
54544W        W22773  44.802   0.835  11.073
54545W        W22774   1.162  37.535   3.638
54546W        W22775  39.609  20.531  11.469
54547W        W22776  30.373  21.185  13.946
54548W        W22777  15.816  36.468   2.328
54549W        W22778  40.612  39.040   1.295
54550W        W22779  13.524   0.899   1.708
54551W        W22780   8.872  18.535  11.170
54552W        W22781  42.283  13.445  11.094
54553W        W22782   2.156   7.173   3.699
54554W        W22783   0.297   1.967   0.063
54555W        W22784  24.673   9.184   3.131
54556W        W22785  42.961   0.257  13.936
54557W        W22786   1.928  34.488   9.732
54558W        W22787  35.809  13.660   3.921
54559W        W22788  15.168  33.339  13.561
54560W        W22789  24.788  33.043  13.904
54561W        W22790   3.878  17.752  13.359
54562W        W22791  37.130  40.675   0.507
54563W        W22792  28.160  35.354  12.408
54564W        W22793  42.475  43.344   4.198
54565W        W22794  34.576  29.632   3.094
54566W        W22795  25.984   8.892  13.744
54567W        W22796   2.258  21.768  14.312
54568W        W22797  32.626  12.647  12.268
54569W        W22798  22.891  40.900  11.941
54570W        W22799  10.105  28.480  14.875
54571W        W22800  27.983   6.271  11.454
54572W        W22801   4.468   4.035   3.279
54573W        W22802   9.354   1.951  13.542
54574W        W22803   8.775   0.274  14.308
54575W        W22804  33.835   6.558  11.504
54576W        W22805  29.977  29.552  13.364
54577W        W22806   7.886  19.647   4.113
54578W        W22807  41.382   0.449   4.858
54579W        W22808  16.117   7.133  14.543
54580W        W22809  39.445  16.736  14.296
54581W        W22810   1.383  20.584  13.995
54582W        W22811  10.314  27.634   3.221
54583W        W22812   4.472  34.023   1.743
54584W        W22813  25.150   8.161   0.550
54585W        W22814  14.690  33.221  10.055
54586W        W22815   3.419  38.450   3.161
54587W        W22816  28.153  42.952  12.072
54588W        W22817  14.637  38.505   0.887
54589W        W22818  36.044  11.395  10.750
54590W        W22819  22.363   9.337   1.700
54591W        W22820  16.753  36.080   5.055
54592W        W22821   6.128  16.689  12.443
54593W        W22822   9.908   4.918  12.816
54594W        W22823  43.944   9.762   3.367
54595W        W22824  10.694   9.305   1.956
54596W        W22825  24.026   1.248   0.828
54597W        W22826   4.410   9.442   3.071
54598W        W22827  20.835  19.880   3.375
54599W        W22828   3.365   6.749  11.500
54600W        W22829  33.966  15.777  13.530
54601W        W22830  37.029  15.791  14.889
54602W        W22831  24.169  30.614  10.520
54603W        W22832  40.327   0.837  12.418
54604W        W22833  42.404  30.946   4.815
54605W        W22834   8.852   5.652  13.015
54606W        W22835  23.454  33.578   3.179
54607W        W22836  44.832   0.531  12.414
54608W        W22837   8.611   0.780  10.942
54609W        W22838  24.648  36.452   0.189
54610W        W22839  28.442  42.901  12.527
54611W        W22840   0.342  25.454  13.484
54612W        W22841  31.544  12.728   1.754
54613W        W22842  22.047  14.101   0.939
54614W        W22843   2.785  22.473  13.800
54615W        W22844  37.519  37.860  12.944
54616W        W22845  23.793  13.327  14.825
54617W        W22846  27.118  15.417   3.654
54618W        W22847  40.244   6.242  12.602
54619W        W22848  17.200  43.314  13.428
54620W        W22849   9.305  32.149   1.793
54621W        W22850   5.332   6.933   4.057
54622W        W22851  11.328  23.399  13.912
54623W        W22852  33.393   4.345   3.135
54624W        W22853  34.379  34.385  13.893
54625W        W22854  38.485   4.732   1.385
54626W        W22855  18.227  28.527  13.493
54627W        W22856  32.060  22.287   1.777
54628W        W22857   2.556   4.323  12.092
54629W        W22858  43.852  40.334   4.952
54630W        W22859  33.425  12.333  12.915
54631W        W22860  22.716   6.978  11.973
54632W        W22861  21.096  24.013  11.481
54633W        W22862   3.697   4.318   2.217
54634W        W22863   2.752  27.614  11.491
54635W        W22864  32.060  35.535   0.949
54636W        W22865   3.171   7.907  11.172
54637W        W22866  12.852  34.753   3.322
54638W        W22867  39.783  17.835   1.845
54639W        W22868  35.389  12.066  13.086
54640W        W22869  20.165  17.378   0.642
54641W        W22870  15.212   3.318  12.038
54642W        W22871  37.205  34.452   4.522
54643W        W22872  11.586  17.006  13.356
54644W        W22873   8.795  26.223  10.633
54645W        W22874  39.623  25.109  11.585
54646W        W22875  27.200  11.974   2.351
54647W        W22876  16.104   7.813   2.395
54648W        W22877  10.959  31.922  14.345
54649W        W22878  36.703  24.698   2.256
54650W        W22879   0.679   6.771   2.095
54651W        W22880  32.394  27.158  11.661
54652W        W22881  19.102   9.175  14.835
54653W        W22882  36.785   0.703   0.277
54654W        W22883  29.579  26.366  12.797
54655W        W22884  21.656  36.627   3.447
54656W        W22885  15.182  43.280   3.224
54657W        W22886  29.830  27.238  11.633
54658W        W22887  16.055  36.850  14.432
54659W        W22888  16.065  31.712   0.315
54660W        W22889  20.091  27.668  13.634
54661W        W22890   1.744   6.831  11.189
54662W        W22891  40.572  31.184  14.400
54663W        W22892  31.074  17.087  13.631
54664W        W22893  13.628  41.016  12.065
54665W        W22894  31.880  15.712   4.511
54666W        W22895  26.423  25.678  12.661
54667W        W22896  20.771   9.274   0.718
54668W        W22897   7.394  10.157   0.900
54669W        W22898  11.911  43.111   2.652
54670W        W22899   0.796  14.688  11.517
54671W        W22900   0.294  37.118   3.953
54672W        W22901   0.017   9.103   2.366
54673W        W22902  14.822  28.710  13.584
54674W        W22903   4.226  33.615   0.946
54675W        W22904  30.730  25.252  11.186
54676W        W22905  11.715  16.237   3.341
54677W        W22906  23.253  27.482   3.171
54678W        W22907  44.507  31.566   3.438
54679W        W22908  12.723   9.172   0.403
54680W        W22909  32.618   9.214  13.002
54681W        W22910  35.522  12.788   4.353
54682W        W22911  22.569  16.084   4.343
54683W        W22912  43.328  32.779   3.549
54684W        W22913  14.118  41.437   3.270
54685W        W22914   7.224  39.863   1.744
54686W        W22915  14.248   5.470   3.273
54687W        W22916   5.788  44.139   4.678
54688W        W22917  24.746  30.136   3.694
54689W        W22918  29.516   8.251   0.899
54690W        W22919  29.001  28.936  13.341
54691W        W22920  16.294  21.541  10.258
54692W        W22921  24.235  40.890   3.191
54693W        W22922  32.954   3.211  10.793
54694W        W22923  35.555   4.211  12.495
54695W        W22924  26.409  31.959  14.916
54696W        W22925  41.758  28.668  13.967
54697W        W22926  30.012  32.686  13.610
54698W        W22927  17.233   7.407  11.596
54699W        W22928   2.331  36.961  12.628
54700W        W22929  27.693  36.476  11.155
54701W        W22930  44.779  42.969   3.623
54702W        W22931   1.931  32.869   3.680
54703W        W22932  11.845  43.288  14.023
54704W        W22933   6.446   9.938   1.927
54705W        W22934  21.433  28.170   1.695
54706W        W22935   7.828  44.493   2.917
54707W        W22936   7.850  28.120  11.141
54708W        W22937  19.444  33.150   3.217
54709W        W22938  10.659   9.605   0.441
54710W        W22939  38.424  22.586  13.381
54711W        W22940  43.132  39.394   4.271
54712W        W22941  24.231  16.294  13.762
54713W        W22942  43.074  18.962   1.016
54714W        W22943  26.565  30.042  13.863
54715W        W22944  43.315   8.563   0.684
54716W        W22945  31.676   2.989  14.029
54717W        W22946   3.787  36.383   0.332
54718W        W22947   5.261  16.229  10.925
54719W        W22948  19.523   9.870  13.033
54720W        W22949  37.619  38.018  14.853
54721W        W22950  20.780  35.977  12.538
54722W        W22951  24.671  30.531  13.757
54723W        W22952  15.114  17.788   0.432
54724W        W22953  43.978   4.431  13.062
54725W        W22954  38.015  15.249  14.850
54726W        W22955  33.923   0.366  12.330
54727W        W22956  22.109  19.874   1.456
54728W        W22957  14.200  16.354  14.903
54729W        W22958  25.894  22.214  12.974
54730W        W22959  21.123  11.411  11.529
54731W        W22960  18.463  20.993   2.927
54732W        W22961  23.998  21.847   4.251
54733W        W22962  19.205  23.613   5.481
54734W        W22963  11.857  25.531   2.260
54735W        W22964  22.581  22.243   2.044
54736W        W22965  39.953  13.919  12.952
54737W        W22966  42.447  40.599  10.772
54738W        W22967  29.940   6.709  11.734
54739W        W22968   8.906  35.162   3.791
54740W        W22969  41.579  26.599  10.650
54741W        W22970  42.615  27.176  12.041
54742W        W22971  26.528  22.183  13.967
54743W        W22972   3.987   3.784   4.968
54744W        W22973  19.410  15.505  11.108
54745W        W22974  43.232  24.647  13.394
54746W        W22975  35.807  21.442   3.249
54747W        W22976   2.657  43.242  12.131
54748W        W22977  23.992   0.870  12.827
54749W        W22978   5.943  23.869  14.947
54750W        W22979  14.239  27.684  13.300
54751W        W22980  43.328  27.237   2.105
54752W        W22981  10.550  33.059  11.158
54753W        W22982   7.927   9.035   2.847
54754W        W22983  12.242  37.062   1.032
54755W        W22984   8.857  19.543   1.234
54756W        W22985  33.004  15.950  13.240
54757W        W22986  15.820  10.240   0.051
54758W        W22987  23.655  44.740  10.782
54759W        W22988  30.061  44.452  13.597
54760W        W22989   2.812   9.273  11.186
54761W        W22990  31.584  21.563  13.280
54762W        W22991   2.638  15.699   3.281
54763W        W22992  13.233  10.190   4.489
54764W        W22993  24.168  23.241  14.416
54765W        W22994  14.845  35.697   1.571
54766W        W22995  19.170  24.766   4.475
54767W        W22996   6.379  34.025  14.803
54768W        W22997  18.789   6.000   0.392
54769W        W22998   8.743  18.806   2.390
54770W        W22999   3.398  41.464  14.889
54771W        W23000  40.348   9.369   0.405
54772W        W23001  35.969  27.430   3.135
54773W        W23002  32.067  24.931   3.425
54774W        W23003  34.135   7.567  14.495
54775W        W23004  18.657  18.303  13.333
54776W        W23005  13.197   2.456   2.247
54777W        W23006  19.645  10.276  12.063
54778W        W23007  31.104  43.154   1.876
54779W        W23008  11.232  26.730   3.308
54780W        W23009  25.440  12.720  12.945
54781W        W23010   9.255   1.981  14.626
54782W        W23011   7.815   0.953   4.183
54783W        W23012  28.469  39.337   1.789
54784W        W23013  37.598  11.151  13.423
54785W        W23014   2.166   8.164   0.669
54786W        W23015  28.498  40.399   3.278
54787W        W23016   0.348  33.055   1.992
54788W        W23017  17.073  15.829  10.941
54789W        W23018  35.901   7.303   0.603
54790W        W23019  17.259  41.881   4.246
54791W        W23020  44.688  12.451  12.407
54792W        W23021  31.229  15.414   2.392
54793W        W23022  32.604  21.453   5.190
54794W        W23023  32.522  30.504  12.201
54795W        W23024  30.096  27.010  10.715
54796W        W23025   2.276   1.952   2.634
54797W        W23026   5.346  25.144  11.404
54798W        W23027   6.341  43.792   4.766
54799W        W23028  36.817  20.252  12.471
54800W        W23029   3.414   2.728  12.373
54801W        W23030   7.380  41.447  13.547
54802W        W23031  31.779  18.768  14.605
54803W        W23032   6.778  38.376   1.270
54804W        W23033  39.499  44.325   2.917
54805W        W23034  14.881  25.035   2.924
54806W        W23035  27.633  11.604   1.992
54807W        W23036  20.033   3.595   3.770
54808W        W23037   5.907  21.965  14.532
54809W        W23038   5.487  31.080   1.223
54810W        W23039  38.388  39.028   0.905
54811W        W23040  32.902   8.445   1.224
54812W        W23041   9.932  41.482  13.546
54813W        W23042  41.077  23.756  12.803
54814W        W23043  10.902  42.081   0.259
54815W        W23044  19.217   2.232   4.757
54816W        W23045  13.247  15.840   2.842
54817W        W23046  14.399  13.875   1.750
54818W        W23047  33.038  19.089   4.515
54819W        W23048  35.107   3.075  10.222
54820W        W23049  34.825  43.906  13.968
54821W        W23050  24.756  36.684  12.539
54822W        W23051  37.358  13.266  11.624
54823W        W23052   0.265   0.963  13.093
54824W        W23053   1.652  43.309  10.522
54825W        W23054   6.769  44.517  12.577
54826W        W23055  19.374  14.717  12.094
54827W        W23056  31.983  14.365  11.801
54828W        W23057   6.629  25.076   2.335
54829W        W23058   8.156   1.348   4.190
54830W        W23059  42.974  22.804   4.979
54831W        W23060  41.405  13.216   2.195
54832W        W23061  23.174  44.323  13.510
54833W        W23062  29.612  16.767  14.497
54834W        W23063  38.042  33.949   2.773
54835W        W23064  30.408  41.126   1.364
54836W        W23065  19.599  16.021   3.352
54837W        W23066  43.322  39.996   0.268
54838W        W23067  11.453  32.666   0.874
54839W        W23068  11.517   4.401  11.210
54840W        W23069  24.757  10.829   5.498
54841W        W23070  32.641   9.928   0.801
54842W        W23071  40.285  39.870   2.688
54843W        W23072   7.355  16.073   2.206
54844W        W23073  42.775  33.870   2.738
54845W        W23074  26.097  34.478   3.144
54846W        W23075  38.032  18.002   4.110
54847W        W23076  27.710  39.387  12.790
54848W        W23077  32.987  30.158   3.704
54849W        W23078   6.190  34.007   1.280
54850W        W23079  40.854  19.484  11.027
54851W        W23080  14.142  32.406   5.161
54852W        W23081  13.100  16.050  12.007
54853W        W23082   1.071  31.413   3.147
54854W        W23083  19.283   6.912   0.910
54855W        W23084  19.839  43.935   1.327
54856W        W23085  44.962  33.380   4.196
54857W        W23086  33.936   9.771   0.292
54858W        W23087  19.698  27.565  11.942
54859W        W23088  30.624  33.112   4.343
54860W        W23089  41.073  15.412  12.624
54861W        W23090  22.506  18.104   2.292
54862W        W23091  17.797  15.454   2.685
54863W        W23092  41.640  42.914  11.106
54864W        W23093  22.842  37.357   0.370
54865W        W23094  29.129  28.550   0.810
54866W        W23095  23.610  38.934  11.592
54867W        W23096  26.038  34.880  12.643
54868W        W23097  14.791  39.441  11.170
54869W        W23098  35.643  18.841   4.342
54870W        W23099  16.792  33.213   0.963
54871W        W23100  44.979  22.634   1.157
54872W        W23101   4.890  38.407   1.563
54873W        W23102  19.694   3.920  14.380
54874W        W23103  33.403  37.155  14.869
54875W        W23104  20.529   8.344   1.503
54876W        W23105   9.207  43.943   3.134
54877W        W23106  32.879  39.285   0.570
54878W        W23107  33.179  43.933   4.556
54879W        W23108  18.225  44.115  13.794
54880W        W23109   7.893  17.162  13.408
54881W        W23110   0.837  12.516   1.618
54882W        W23111  11.338   1.019  14.755
54883W        W23112  20.441  17.006  12.476
54884W        W23113  27.034  29.971  14.108
54885W        W23114  18.929  23.164   2.501
54886W        W23115   3.065  20.861   4.338
54887W        W23116   7.887  25.889  11.823
54888W        W23117  29.460  39.549   3.611
54889W        W23118  15.164   8.878  11.477
54890W        W23119  18.222  35.934  13.572
54891W        W23120  33.500  37.055  13.962
54892W        W23121  20.504   2.608   0.337
54893W        W23122  38.825   8.766  12.934
54894W        W23123  36.085   5.377   1.996
54895W        W23124  17.939  20.602   1.161
54896W        W23125  24.874  26.729   1.935
54897W        W23126  35.334  22.658   4.541
54898W        W23127  20.857  36.059   3.184
54899W        W23128   4.138  23.544   2.104
54900W        W23129  20.054  38.881  10.738
54901W        W23130  42.194  19.696   4.767
54902W        W23131   3.780  35.256   1.268
54903W        W23132  44.461  26.610   1.210
54904W        W23133  42.890  16.635   4.722
54905W        W23134  13.725  25.708  13.964
54906W        W23135   7.386  21.777  10.593
54907W        W23136   0.210  31.964  10.329
54908W        W23137  12.448  42.856  10.719
54909W        W23138  22.025   3.894   0.913
54910W        W23139  34.889  14.239   0.307
54911W        W23140   5.193  40.817  11.085
54912W        W23141  32.023   7.854   2.175
54913W        W23142  35.422  29.872   2.720
54914W        W23143   5.899  18.632   4.595
54915W        W23144  32.902  30.056  10.551
54916W        W23145  26.159  18.569   4.446
54917W        W23146   4.030  17.350   3.271
54918W        W23147  26.524   1.584  11.230
54919W        W23148  21.205  11.750  13.285
54920W        W23149  39.526  31.183   2.643
54921W        W23150  21.468  44.653   4.041
54922W        W23151   9.821   8.218  12.816
54923W        W23152  20.083  37.058   2.737
54924W        W23153  11.163  36.145  12.478
54925W        W23154   6.611  40.779  14.950
54926W        W23155  19.247  44.774  13.364
54927W        W23156   7.525  15.215   2.515
54928W        W23157   2.778  16.706  12.603
54929W        W23158   5.924  34.196  12.109
54930W        W23159  25.179  14.554   2.828
54931W        W23160  20.173  42.046   2.336
54932W        W23161  39.553  15.521  14.744
54933W        W23162  34.524  10.969   0.476
54934W        W23163  23.203  43.329  10.686
54935W        W23164  18.001   2.332   0.335
54936W        W23165   0.901  35.537  11.523
54937W        W23166  43.479  34.883   0.806
54938W        W23167  40.536  42.842  14.056
54939W        W23168  40.421  22.312   4.514
54940W        W23169   5.995   0.299  12.478
54941W        W23170  15.608  30.584   2.529
54942W        W23171  23.321  32.557  14.406
54943W        W23172  40.422   7.750   0.197
54944W        W23173  14.358  37.814  12.095
54945W        W23174   5.458  15.652  12.890
54946W        W23175  32.586   4.762  13.071
54947W        W23176  25.116   9.244  10.340
54948W        W23177  26.600  15.478  10.041
54949W        W23178   8.277  11.239  10.737
54950W        W23179   7.592  18.321   4.877
54951W        W23180   9.109  42.901  12.069
54952W        W23181  10.335   2.367   0.369
54953W        W23182  29.042  41.010   0.996
54954W        W23183  23.657  24.401  14.844
54955W        W23184  22.583  24.502  10.751
54956W        W23185  33.721  14.339  11.948
54957W        W23186  19.953   3.837  13.048
54958W        W23187  15.116   5.571  14.497
54959W        W23188  33.882  19.161  13.874
54960W        W23189   3.145  36.656   2.620
54961W        W23190  27.408  16.535  12.053
54962W        W23191  35.383  44.790  13.906
54963W        W23192   5.192  28.949  12.535
54964W        W23193  12.156  29.814   1.682
54965W        W23194   3.571   9.146  10.805
54966W        W23195  29.848  22.577   0.946
54967W        W23196  29.802  36.440  14.245
54968W        W23197  10.069  23.654   2.706
54969W        W23198   9.749   0.824  11.578
54970W        W23199   6.993   8.592  14.318
54971W        W23200  16.729  20.989   1.295
54972W        W23201  22.086  14.737   3.078
54973W        W23202  28.220  14.703   2.281
54974W        W23203  22.934  16.332   0.241
54975W        W23204  34.853  26.551   4.531
54976W        W23205  30.442   7.377  12.560
54977W        W23206  24.022  32.875  12.782
54978W        W23207  13.519  28.705   2.464
54979W        W23208  28.986  26.732   3.120
54980W        W23209  21.268  36.228   2.629
54981W        W23210  19.541  23.650   3.723
54982W        W23211  44.937   6.313   1.601
54983W        W23212  11.639  39.918   4.260
54984W        W23213  22.178  31.161  13.501
54985W        W23214   4.954   7.371   3.078
54986W        W23215  14.535  31.617   4.514
54987W        W23216  36.853  32.102  10.547
54988W        W23217  10.786  18.139   1.493
54989W        W23218  43.692  26.870   2.234
54990W        W23219  17.928  20.842  12.993
54991W        W23220  30.162   4.087   1.746
54992W        W23221  12.249  31.640   4.281
54993W        W23222  32.192  28.783  13.366
54994W        W23223  29.920  26.873   2.137
54995W        W23224  31.344   1.046  10.973
54996W        W23225  43.912  21.474  10.680
54997W        W23226  27.030  35.118  14.879
54998W        W23227   8.160  25.699   3.607
54999W        W23228  21.694  37.575   2.395
55000W        W23229   5.685   4.197  14.404
55001W        W23230  14.883  40.455  10.608
55002W        W23231  20.897   9.244   4.628
55003W        W23232  39.962  44.946   4.240
55004W        W23233  37.842  27.179  13.826
55005W        W23234  19.083   4.420  13.798
55006W        W23235  44.933  27.835   1.412
55007W        W23236  26.633   9.236  12.141
55008W        W23237  43.242  17.255  12.466
55009W        W23238   4.802  26.726   3.272
55010W        W23239  30.062  13.213   0.481
55011W        W23240   7.310  17.325   0.768
55012W        W23241  37.306  12.795   1.419
55013W        W23242   5.923  33.145  12.100
55014W        W23243  22.958  13.583  10.569
55015W        W23244   0.835  39.885  12.716
55016W        W23245  18.471  13.799  12.501
55017W        W23246  25.074  29.833   1.286
55018W        W23247  28.764  11.350  10.995
55019W        W23248  22.130  18.027   0.360
55020W        W23249  28.705  36.867  10.423
55021W        W23250  19.691   4.240  14.824
55022W        W23251  24.927  34.955  14.531
55023W        W23252  41.411  27.025  13.441
55024W        W23253   8.745  31.577   2.285
55025W        W23254  33.027  43.536  10.680
55026W        W23255  20.419  15.637   3.180
55027W        W23256  18.245  25.809  11.541
55028W        W23257  10.100  24.452   1.344
55029W        W23258   0.858  23.288  12.587
55030W        W23259  12.878  33.743   3.239
55031W        W23260  13.654  20.193   1.757
55032W        W23261  38.269  23.272   3.240
55033W        W23262  23.755   0.309   4.622
55034W        W23263  33.362   5.718   1.658
55035W        W23264  31.274  22.001   1.290
55036W        W23265  28.500  16.822   2.707
55037W        W23266  44.980  40.292   9.900
55038W        W23267  28.863  28.555  12.054
55039W        W23268  41.133  43.259   3.524
55040W        W23269   0.616  37.601  12.468
55041W        W23270  19.524  21.651  12.025
55042W        W23271  29.904   7.248   3.952
55043W        W23272  39.381  27.030   1.168
55044W        W23273   6.031  29.502  13.796
55045W        W23274   0.938  37.825  12.018
55046W        W23275  26.522  18.278   2.774
55047W        W23276  16.098  21.347   1.457
55048W        W23277   3.432  28.409   3.761
55049W        W23278  25.078  35.342   3.404
55050W        W23279   1.874  27.480   3.156
55051W        W23280  12.614  28.671  14.804
55052W        W23281  15.672  40.944   3.886
55053W        W23282  40.863  15.567   1.258
55054W        W23283  23.558  37.259  13.023
55055W        W23284   8.485  11.660  14.483
55056W        W23285  28.614  36.505   1.817
55057W        W23286  14.692  43.015  10.506
55058W        W23287  24.897  31.145  12.688
55059W        W23288  18.236  33.091  10.950
55060W        W23289  31.405   0.927  13.115
55061W        W23290  34.433   5.377   3.749
55062W        W23291  27.161  17.525  13.568
55063W        W23292  39.232  30.975  11.121
55064W        W23293  36.345  14.256   3.251
55065W        W23294  16.434  27.022   4.764
55066W        W23295   4.221  40.625   0.384
55067W        W23296  41.582  36.642   4.081
55068W        W23297  29.568  10.635   2.882
55069W        W23298  20.142  34.052  11.049
55070W        W23299   2.174   2.984  12.125
55071W        W23300   7.539   1.798  11.695
55072W        W23301   7.467  18.440  12.064
55073W        W23302  39.299  21.331   2.671
55074W        W23303  42.222  20.191  12.020
55075W        W23304  22.692  33.541   2.640
55076W        W23305  30.884  20.637  14.353
55077W        W23306   0.092  34.929   4.120
55078W        W23307  18.257   7.634   1.349
55079W        W23308  44.312  12.776  13.931
55080W        W23309  38.328   4.812   3.025
55081W        W23310  27.271  29.135   4.567
55082W        W23311  37.999   6.554  12.401
55083W        W23312  17.577  33.495   0.883
55084W        W23313  38.421  41.706  10.577
55085W        W23314  37.648   8.579   2.349
55086W        W23315   9.745   4.819   4.667
55087W        W23316  20.089  23.073  13.752
55088W        W23317  41.572  18.557  10.755
55089W        W23318  15.710   0.039   3.283
55090W        W23319  44.501   0.820  14.718
55091W        W23320  12.375  24.125  12.353
55092W        W23321  14.705  19.296  13.772
55093W        W23322  39.003   7.255   4.269
55094W        W23323   6.108  28.499   3.889
55095W        W23324  13.468  13.690  10.546
55096W        W23325  22.616  26.627   0.723
55097W        W23326  40.317   4.782   4.100
55098W        W23327  13.600  29.903  14.926
55099W        W23328   6.500  32.592  13.747
55100W        W23329  32.254  12.964  10.123
55101W        W23330  15.652  41.793   3.897
55102W        W23331   3.212   0.989  12.209
55103W        W23332  38.761  26.250  13.503
55104W        W23333  27.862  35.599   3.733
55105W        W23334  41.007  33.433   2.336
55106W        W23335   8.174  37.349   2.027
55107W        W23336  18.730  22.857  12.220
55108W        W23337  10.653  23.014  10.701
55109W        W23338  38.167   7.265   1.392
55110W        W23339  13.614  26.617  11.606
55111W        W23340   3.930  21.281   4.882
55112W        W23341  12.525  37.149   1.957
55113W        W23342  44.323  32.844  14.680
55114W        W23343  12.261  24.458   2.931
55115W        W23344   7.770  24.898  11.073
55116W        W23345  38.653  43.660   1.384
55117W        W23346  36.115  21.130   2.954
55118W        W23347  14.752   3.824  10.539
55119W        W23348  43.911  15.381   0.316
55120W        W23349   7.379  18.526  14.365
55121W        W23350  37.267  16.157   4.563
55122W        W23351   0.731  37.828   4.521
55123W        W23352  25.277  33.998   3.796
55124W        W23353  25.154  21.801   1.220
55125W        W23354  24.297  33.193  13.610
55126W        W23355  29.554  37.447   3.128
55127W        W23356  38.984  28.002  14.567
55128W        W23357  43.370  22.572  14.036
55129W        W23358  43.408  14.318   0.841
55130W        W23359  32.234  42.552   0.695
55131W        W23360  28.051   0.216   1.790
55132W        W23361  36.063   8.424   3.422
55133W        W23362  26.678  39.414   2.029
55134W        W23363  43.533  17.465  13.279
55135W        W23364   6.162   8.374  12.494
55136W        W23365  21.815  17.115  10.596
55137W        W23366  14.091  32.867   2.561
55138W        W23367  44.284  14.280   5.119
55139W        W23368  12.701  29.579  13.136
55140W        W23369  11.722  44.249  11.476
55141W        W23370  26.987  24.357   3.225
55142W        W23371   6.134   1.893  13.397
55143W        W23372  28.243   6.735  12.622
55144W        W23373  25.684  13.452  10.418
55145W        W23374   2.652  31.300  13.169
55146W        W23375  10.069  36.502   1.760
55147W        W23376  16.127  38.209  11.617
55148W        W23377  32.623  14.785  11.578
55149W        W23378  13.156  37.930  13.764
55150W        W23379  40.397  43.325  14.181
55151W        W23380  30.131  22.102   3.016
55152W        W23381   2.884  18.263   1.525
55153W        W23382  13.715  21.325   2.892
55154W        W23383  42.082   0.899   1.831
55155W        W23384  26.205  41.945  10.959
55156W        W23385  28.039   5.206   3.398
55157W        W23386  27.016  16.540  13.345
55158W        W23387  34.653  35.846   2.409
55159W        W23388  18.558  30.574   4.896
55160W        W23389  17.558   5.702  11.619
55161W        W23390  28.689  18.270  14.965
55162W        W23391  22.783   6.881   3.802
55163W        W23392  17.725  18.862  11.928
55164W        W23393  18.506   2.461   1.321
55165W        W23394  11.918   1.358  13.035
55166W        W23395  19.638   9.588  12.615
55167W        W23396   2.310   1.392  14.361
55168W        W23397  29.947   4.406   4.067
55169W        W23398   9.758  10.474  14.852
55170W        W23399  14.900  28.539   4.189
55171W        W23400  33.128  12.410  13.331
55172W        W23401   6.433   3.208  13.106
55173W        W23402  12.710  28.986   2.879
55174W        W23403  12.030   7.720   2.275
55175W        W23404  21.676  11.558   0.821
55176W        W23405  43.518  30.924   3.608
55177W        W23406   0.391   4.777  14.622
55178W        W23407  11.758  18.607   4.857
55179W        W23408  21.047  44.884   3.860
55180W        W23409  32.430  30.013  12.410
55181W        W23410  30.621  18.619  13.573
55182W        W23411  21.979  19.046   2.193
55183W        W23412  38.940  37.751   3.263
55184W        W23413  38.313   0.856   3.606
55185W        W23414  19.478   5.377   1.170
55186W        W23415   8.881  20.148   5.057
55187W        W23416  38.589  22.079   1.383
55188W        W23417  42.329   2.384   4.057
55189W        W23418  35.073   9.186  14.349
55190W        W23419  14.665  41.338   4.120
55191W        W23420  25.559  39.138  14.219
55192W        W23421  30.161  10.122   0.142
55193W        W23422  22.779  15.784  11.245
55194W        W23423  32.368   4.940  11.947
55195W        W23424  22.597  20.293   1.376
55196W        W23425   2.707   5.320  14.814
55197W        W23426  25.659  34.049  10.725
55198W        W23427  44.561  23.739   3.817
55199W        W23428   6.898  29.150  13.369
55200W        W23429   8.871  39.958   3.486
55201W        W23430   5.880  27.413   5.007
55202W        W23431  42.271  26.297  14.386
55203W        W23432  38.096  11.173   3.880
55204W        W23433  42.184  33.817  14.443
55205W        W23434  43.249  39.622   4.729
55206W        W23435   7.320  26.981  13.881
55207W        W23436  21.212  37.171  13.706
55208W        W23437  35.970  31.629   5.326
55209W        W23438  39.447  24.611  10.615
55210W        W23439  26.852  40.350  12.868
55211W        W23440  42.081  28.870  13.022
55212W        W23441  15.177  35.326  10.843
55213W        W23442   4.941   6.490  14.113
55214W        W23443  39.466   3.306   3.652
55215W        W23444  29.797  27.331   2.325
55216W        W23445  36.538   3.657  11.137
55217W        W23446   1.910  39.067  12.579
55218W        W23447  23.226   2.749  13.011
55219W        W23448  29.283  44.345   4.718
55220W        W23449  14.674  30.909   3.192
55221W        W23450  12.830  28.003  12.875
55222W        W23451  31.718  38.967   3.649
55223W        W23452  19.772  22.815   2.680
55224W        W23453  22.987  32.626  11.156
55225W        W23454  43.328  15.307   3.858
55226W        W23455  13.994  36.080  14.458
55227W        W23456  38.582  12.188  13.123
55228W        W23457   7.849  16.127   2.413
55229W        W23458   2.715  10.172  11.010
55230W        W23459   8.229   1.813   2.027
55231W        W23460  15.748  17.759  12.647
55232W        W23461  13.575  10.114   1.243
55233W        W23462   4.384  40.873   0.811
55234W        W23463  43.317   9.807  11.195
55235W        W23464  42.771  20.304   3.576
55236W        W23465   9.486  22.674  12.279
55237W        W23466   3.918  27.937   1.817
55238W        W23467  41.917  14.431  14.969
55239W        W23468   2.273  11.636   3.143
55240W        W23469  33.422  23.713   0.878
55241W        W23470   2.763  15.854  12.009
55242W        W23471  19.817  38.735   0.715
55243W        W23472  13.705   3.522  11.057
55244W        W23473  36.249  30.873  14.697
55245W        W23474  19.395  42.894   1.349
55246W        W23475  24.274  19.576  10.232
55247W        W23476  44.904  17.172  11.386
55248W        W23477  44.945  31.970  10.782
55249W        W23478  32.496   6.209   0.744
55250W        W23479  23.745  44.227  10.767
55251W        W23480  39.889  40.585   3.781
55252W        W23481  34.088  14.262   2.412
55253W        W23482  15.552  41.396  11.544
55254W        W23483  22.876  21.836  12.389
55255W        W23484   4.369  19.533   0.837
55256W        W23485   1.440  28.076   3.710
55257W        W23486  29.492  12.608   4.594
55258W        W23487  21.145  18.179  12.169
55259W        W23488  36.842  24.308   1.734
55260W        W23489  13.543  13.301  14.399
55261W        W23490  43.084   9.423  10.946
55262W        W23491   9.687  40.542  13.674
55263W        W23492  17.990   7.292  13.907
55264W        W23493   9.762   4.292   4.730
55265W        W23494   7.604  44.776   1.643
55266W        W23495  22.708  41.617   2.717
55267W        W23496  20.641  38.336   3.675
55268W        W23497  17.091   7.134  10.325
55269W        W23498   5.457   1.968   2.344
55270W        W23499  33.338  32.629  11.493
55271W        W23500  24.229   2.494   0.441
55272W        W23501  29.214  23.081   4.428
55273W        W23502  22.527  42.581   0.826
55274W        W23503   1.258   5.830  13.965
55275W        W23504  41.337   1.317   3.695
55276W        W23505  38.121  19.354  11.596
55277W        W23506   0.415   0.576   0.757
55278W        W23507  27.417  20.036   2.650
55279W        W23508  33.027  13.429   0.800
55280W        W23509  10.434  19.124  14.508
55281W        W23510   5.846   8.044   3.887
55282W        W23511   3.418  22.647  12.958
55283W        W23512  29.440  15.255   1.504
55284W        W23513  42.878  21.219   4.301
55285W        W23514   4.741  25.466   4.317
55286W        W23515   7.737   3.033   3.392
55287W        W23516  11.002  44.374  12.952
55288W        W23517  14.200  11.139  13.621
55289W        W23518  38.306   6.235  14.887
55290W        W23519  43.360  26.655  14.032
55291W        W23520  34.641  19.713  11.615
55292W        W23521  12.792   1.797  12.111
55293W        W23522  32.588  29.548   0.367
55294W        W23523   7.263  35.540   0.221
55295W        W23524   7.030  41.841  13.580
55296W        W23525   2.317  40.634  13.750
55297W        W23526  16.080  11.361  10.704
55298W        W23527   0.379  17.819   0.924
55299W        W23528  38.530  22.374   1.802
55300W        W23529  24.110   4.250  14.980
55301W        W23530  35.339  17.188  13.624
55302W        W23531  17.523   8.197   3.093
55303W        W23532  44.611  24.930   0.905
55304W        W23533  34.093  17.766   0.686
55305W        W23534  16.515   3.135   3.789
55306W        W23535  32.967  30.158  13.415
55307W        W23536  14.650   1.065  12.483
55308W        W23537  31.448  37.584  14.879
55309W        W23538   2.167   3.582   1.494
55310W        W23539  40.152  43.280   0.880
55311W        W23540   2.489  11.345  11.683
55312W        W23541  13.270  43.908  14.040
55313W        W23542   1.178  43.466  10.321
55314W        W23543  25.546  16.164  13.446
55315W        W23544  35.888   1.825   4.482
55316W        W23545  21.204   2.177  12.087
55317W        W23546  21.029  12.133  14.086
55318W        W23547  26.483  21.274  11.499
55319W        W23548  25.442  21.765  14.428
55320W        W23549   0.241  25.501  11.652
55321W        W23550  14.618  43.808   1.240
55322W        W23551   4.821  28.448  12.009
55323W        W23552  29.040  10.334  11.913
55324W        W23553   3.775  32.634   2.203
55325W        W23554  27.022   3.283  11.983
55326W        W23555   1.458  26.770  13.650
55327W        W23556  13.678  16.726  13.448
55328W        W23557  41.080  29.531   0.755
55329W        W23558   6.281  40.997   0.492
55330W        W23559  20.047  43.338  13.977
55331W        W23560  40.778  13.331  13.017
55332W        W23561   7.212  43.447  13.006
55333W        W23562  39.778  35.606  13.873
55334W        W23563  36.666  30.414   2.148
55335W        W23564   1.593   3.129   4.508
55336W        W23565  34.364  37.157  11.217
55337W        W23566  12.909  24.477  11.174
55338W        W23567  31.174   7.018   1.048
55339W        W23568  23.611  32.378   4.100
55340W        W23569   1.808   8.922  11.116
55341W        W23570  40.943  31.434   9.910
55342W        W23571  27.475  30.940  11.128
55343W        W23572   8.400  31.600  13.525
55344W        W23573  11.360  26.454   2.376
55345W        W23574  28.179   3.382  12.874
55346W        W23575  28.209  42.439  12.618
55347W        W23576  25.256  18.200   0.872
55348W        W23577   6.611  23.914  11.116
55349W        W23578  22.588  37.947   2.658
55350W        W23579   8.814  11.535   4.603
55351W        W23580  27.389  37.996  12.815
55352W        W23581  10.666   8.115   3.302
55353W        W23582  12.892   4.740   0.410
55354W        W23583  34.943  40.889  14.856
55355W        W23584  24.644  35.817  11.481
55356W        W23585  34.840  26.715  13.897
55357W        W23586  34.432  33.618  14.488
55358W        W23587  42.460  43.538   4.688
55359W        W23588  22.162   4.416  10.563
55360W        W23589  38.577  29.271   2.868
55361W        W23590  37.426   8.215   3.683
55362W        W23591  24.060  32.901   0.880
55363W        W23592   5.184  15.312  10.704
55364W        W23593   4.763  25.307   3.597
55365W        W23594   7.185   0.963  12.872
55366W        W23595  34.213  25.162  13.477
55367W        W23596  42.815  36.963   0.756
55368W        W23597  39.029   7.940  12.851
55369W        W23598   3.505  37.477   2.401
55370W        W23599  27.641  40.453   1.852
55371W        W23600  20.897  40.918   0.026
55372W        W23601   0.660  33.053  11.682
55373W        W23602  33.611  14.376   2.246
55374W        W23603  25.721  11.250  14.015
55375W        W23604   7.739  33.960   0.851
55376W        W23605   7.164  38.426   0.798
55377W        W23606  11.819  32.174   1.716
55378W        W23607  41.491  36.101  13.922
55379W        W23608  16.094  33.488   2.249
55380W        W23609  32.436   7.700   0.950
55381W        W23610  19.710   9.142  10.817
55382W        W23611   2.705   5.844  13.886
55383W        W23612  44.460  28.154   1.840
55384W        W23613   4.332  32.559  14.569
55385W        W23614  22.147  40.674  14.786
55386W        W23615  15.341  34.913  11.117
55387W        W23616  38.055  23.336  12.366
55388W        W23617  29.007   7.928   2.254
55389W        W23618  28.736  11.748  12.721
55390W        W23619  19.086  34.105   2.373
55391W        W23620  14.577  28.578  14.026
55392W        W23621  24.728  31.944  12.952
55393W        W23622  16.128  15.208   3.051
55394W        W23623  16.515  42.913  10.936
55395W        W23624  14.984  16.772  12.196
55396W        W23625   3.302  13.732   1.582
55397W        W23626  37.305   3.011  14.959
55398W        W23627  13.025  14.559   1.379
55399W        W23628  14.688  19.243   1.811
55400W        W23629   5.452   8.135  11.597
55401W        W23630  27.008  44.895   4.769
55402W        W23631  27.226   9.735  13.630
55403W        W23632  11.720  44.189  12.364
55404W        W23633  31.114   4.419   1.733
55405W        W23634   0.396  31.437   2.376
55406W        W23635  43.751  24.447   1.757
55407W        W23636  24.208  40.530   1.813
55408W        W23637  17.484  11.250   1.786
55409W        W23638  33.887  27.026   1.704
55410W        W23639  30.074   8.872   5.041
55411W        W23640   5.259  29.186  13.772
55412W        W23641   7.539  33.902  14.950
55413W        W23642  14.280  42.052  11.441
55414W        W23643  31.438  26.671  14.854
55415W        W23644   1.426  29.003  12.035
55416W        W23645  38.356   3.052   1.719
55417W        W23646  28.478  30.541   0.746
55418W        W23647  33.612  14.834   5.029
55419W        W23648  33.206  35.826  11.133
55420W        W23649   1.059  27.530  12.105
55421W        W23650  38.993  17.116  12.587
55422W        W23651  34.991  15.779  13.388
55423W        W23652  35.797  11.437   1.989
55424W        W23653  16.261  26.904   3.779
55425W        W23654   5.148  31.726  11.944
55426W        W23655  32.443  11.676  10.727
55427W        W23656  41.469   1.998   3.132
55428W        W23657  34.937  29.432  14.293
55429W        W23658  26.226  43.519  13.320
55430W        W23659  40.821  40.549  12.871
55431W        W23660  43.537  23.013   1.820
55432W        W23661  28.377   0.940  13.678
55433W        W23662  40.992  24.278   1.911
55434W        W23663  39.308  35.887  14.568
55435W        W23664  24.811  41.751  11.121
55436W        W23665   1.518  22.184  14.881
55437W        W23666  25.531  22.534  10.706
55438W        W23667  32.732  40.898   4.087
55439W        W23668  44.697  25.535  12.872
55440W        W23669  20.948  36.161   3.686
55441W        W23670   7.429  21.094  13.055
55442W        W23671   8.238  16.622  14.256
55443W        W23672  13.170  25.523   3.365
55444W        W23673  13.650  17.344  11.156
55445W        W23674   1.186  30.010  12.025
55446W        W23675  12.750  40.276   0.203
55447W        W23676  43.853   2.709   2.239
55448W        W23677  38.434  40.036   2.078
55449W        W23678  33.373   7.887  14.021
55450W        W23679  16.373   4.772  13.057
55451W        W23680   9.917  31.129  10.483
55452W        W23681  35.011  24.015  11.166
55453W        W23682  27.473   8.678   1.748
55454W        W23683  29.566   7.626  11.414
55455W        W23684  12.162  27.801  12.006
55456W        W23685  28.073  41.055  13.454
55457W        W23686  19.192  13.805   4.836
55458W        W23687  24.628  23.619  11.479
55459W        W23688  39.347   1.354  13.891
55460W        W23689  34.123  23.523  14.822
55461W        W23690   0.443  29.380  12.095
55462W        W23691  15.312  18.183   0.154
55463W        W23692  19.979  31.748   3.780
55464W        W23693  28.442  44.150   3.175
55465W        W23694  43.582  19.342   1.771
55466W        W23695   5.534   6.758  12.726
55467W        W23696  28.990   6.089   2.386
55468W        W23697  30.033  11.787   3.277
55469W        W23698  29.623   1.345  12.482
55470W        W23699  24.558   0.031   0.354
55471W        W23700  36.970   4.721  11.467
55472W        W23701  10.372  16.192  13.909
55473W        W23702  27.090  27.232  12.591
55474W        W23703   4.135  24.674   4.151
55475W        W23704  43.821  17.566  14.250
55476W        W23705  15.794  24.459  12.507
55477W        W23706  19.551  35.923   1.012
55478W        W23707  33.354  24.941   1.760
55479W        W23708  36.290   0.420  10.607
55480W        W23709  43.318  22.706  12.083
55481W        W23710   2.736   0.981   0.338
55482W        W23711  44.781  22.296   1.518
55483W        W23712   9.350  29.504  14.322
55484W        W23713  43.931  32.891  11.778
55485W        W23714  15.640  28.964   0.349
55486W        W23715  31.009   8.584  14.866
55487W        W23716   7.410  30.910  13.908
55488W        W23717  43.471  22.172  11.560
55489W        W23718  44.474   4.853  14.608
55490W        W23719   2.493  19.387   0.716
55491W        W23720  12.582  35.895   1.764
55492W        W23721  11.871  43.263   4.226
55493W        W23722  34.314   5.107  14.401
55494W        W23723  22.429  27.192   3.676
55495W        W23724  26.553  36.594  14.562
55496W        W23725  17.656   8.224  11.642
55497W        W23726   5.306  10.980   1.418
55498W        W23727  16.887  31.647  13.662
55499W        W23728  25.126  41.557   3.566
55500W        W23729   2.269  29.450  12.073
55501W        W23730  20.663  36.965  11.547
55502W        W23731  21.828  20.071  14.301
55503W        W23732  15.162  13.070   9.850
55504W        W23733  13.307  32.764  13.378
55505W        W23734  14.260  43.720   3.666
55506W        W23735  37.274   6.422   3.172
55507W        W23736  17.081  25.740   9.731
55508W        W23737  30.010  32.127   4.393
55509W        W23738  39.947  41.811  10.753
55510W        W23739  18.076  19.140   1.652
55511W        W23740   6.443  11.675   2.292
55512W        W23741   4.037  27.844  14.776
55513W        W23742  33.900  31.709  11.074
55514W        W23743  13.855   8.815  10.558
55515W        W23744   5.432  22.597   3.525
55516W        W23745  14.021  18.800   4.213
55517W        W23746  39.269  16.102   2.299
55518W        W23747  28.757   1.644  12.995
55519W        W23748  34.493  27.609  14.954
55520W        W23749   3.933  33.096   4.562
55521W        W23750  38.628  44.884  10.713
55522W        W23751  25.145  10.649   0.544
55523W        W23752  10.665  44.834   2.037
55524W        W23753  34.257  30.402  12.151
55525W        W23754  44.474  37.435   0.744
55526W        W23755  24.849  34.440   2.606
55527W        W23756  30.797  16.310  14.789
55528W        W23757  41.404   1.302   2.732
55529W        W23758  38.235   7.569   4.089
55530W        W23759  16.303   1.406   3.262
55531W        W23760  41.957   9.585  13.692
55532W        W23761  10.665   7.344   4.947
55533W        W23762  14.807   8.102   0.879
55534W        W23763  26.715  17.119   0.368
55535W        W23764   3.875  37.677  11.643
55536W        W23765  23.150   9.227   3.876
55537W        W23766  15.647  14.612   0.021
55538W        W23767  22.759  12.451  11.483
55539W        W23768  25.533   2.784   4.476
55540W        W23769  19.428  33.662   1.904
55541W        W23770  12.440  14.422  12.571
55542W        W23771  18.186  14.729  12.921
55543W        W23772  29.031   6.366  14.962
55544W        W23773   3.701  20.109   0.038
55545W        W23774  39.369  18.544  14.263
55546W        W23775  26.078  15.333   1.699
55547W        W23776  18.366  38.302   4.730
55548W        W23777  26.787  19.139  13.473
55549W        W23778  13.331  14.646  14.520
55550W        W23779  25.749  35.511   5.496
55551W        W23780  25.683  21.160  13.541
55552W        W23781   7.675  27.180   2.428
55553W        W23782  13.350  28.989  14.184
55554W        W23783  33.986  33.824  13.047
55555W        W23784  19.575  30.111  12.037
55556W        W23785  26.054  12.292  14.413
55557W        W23786   2.790  42.859  14.850
55558W        W23787  14.454  36.162  13.044
55559W        W23788  12.520  28.596  11.638
55560W        W23789   1.022  16.887  13.510
55561W        W23790  28.096  21.097  14.488
55562W        W23791  12.085  14.135   1.335
55563W        W23792  22.013   2.635  14.461
55564W        W23793  16.039   6.430  13.237
55565W        W23794  19.114  18.188   2.251
55566W        W23795  12.028  43.471   1.238
55567W        W23796  22.426  42.871  11.482
55568W        W23797  29.398  44.528   1.825
55569W        W23798   8.581  42.462  10.885
55570W        W23799  30.064   9.140  12.391
55571W        W23800  41.027  42.214   4.163
55572W        W23801  39.506  39.359  14.559
55573W        W23802   8.881  13.246   4.150
55574W        W23803  38.914  44.934   4.541
55575W        W23804  29.974   0.372  14.796
55576W        W23805  21.047  38.387   1.949
55577W        W23806  28.118   1.939   3.498
55578W        W23807  11.366  20.800   3.777
55579W        W23808  32.635  22.457   4.458
55580W        W23809   6.188  36.158  14.561
55581W        W23810  33.095  21.779   2.807
55582W        W23811   5.176  14.763   1.824
55583W        W23812  18.552  37.976  10.607
55584W        W23813  28.685  22.680   2.402
55585W        W23814  13.248   5.174   1.250
55586W        W23815  27.249  37.870   4.582
55587W        W23816  42.366  22.631  14.436
55588W        W23817   0.019  33.339   2.860
55589W        W23818  16.045  17.725  13.966
55590W        W23819   8.849  14.604   1.161
55591W        W23820  23.233   3.453   1.436
55592W        W23821  20.106  25.663  13.398
55593W        W23822  37.582  10.891  10.154
55594W        W23823  30.217  27.475  10.889
55595W        W23824  36.003  26.266   0.367
55596W        W23825  44.102  44.489  10.717
55597W        W23826  21.710  19.746  12.568
55598W        W23827  40.456   1.848   3.366
55599W        W23828  24.945  44.158  14.621
55600W        W23829  29.052  13.139   1.331
55601W        W23830   4.698  36.876  12.206
55602W        W23831  16.778  34.125   1.690
55603W        W23832   7.963  27.681  12.923
55604W        W23833  33.631  41.032   0.635
55605W        W23834  41.789   0.476   4.070
55606W        W23835  22.241  34.113   1.296
55607W        W23836  30.961  17.205   1.346
55608W        W23837  37.997  32.163  14.841
55609W        W23838  23.730   6.695  14.068
55610W        W23839   1.968  38.752  13.534
55611W        W23840   9.608  35.431   0.355
55612W        W23841  27.259  15.260   0.710
55613W        W23842  25.386  36.998  10.178
55614W        W23843  20.869  36.604  10.787
55615W        W23844  15.292  30.998  11.174
55616W        W23845  35.125  27.660   4.091
55617W        W23846  23.273  11.715   3.666
55618W        W23847  37.455   5.953   3.215
55619W        W23848  37.780  15.744  11.660
55620W        W23849  19.784  22.801  11.105
55621W        W23850  34.963  39.578  13.091
55622W        W23851  29.086  14.111   1.674
55623W        W23852  32.715   0.335  13.473
55624W        W23853  18.702  12.131   1.877
55625W        W23854  27.845  39.408   4.347
55626W        W23855  21.144  13.100  13.369
55627W        W23856  35.466  34.660  14.020
55628W        W23857   7.724   7.978   0.399
55629W        W23858  12.612  40.987   4.542
55630W        W23859  41.144  37.398   3.097
55631W        W23860   3.838  40.388  10.842
55632W        W23861   7.217  11.747  13.968
55633W        W23862  40.689  24.111  12.816
55634W        W23863   8.134  22.659  13.759
55635W        W23864  36.854  27.833  11.423
55636W        W23865  29.030  28.014   2.278
55637W        W23866  41.503  11.868  12.464
55638W        W23867  26.400  25.056  13.738
55639W        W23868  13.409   2.958   2.135
55640W        W23869   6.986  29.645   4.540
55641W        W23870  38.255   7.665   1.784
55642W        W23871  25.862   5.690  13.403
55643W        W23872  32.012  32.418   2.673
55644W        W23873  23.624  32.411   0.302
55645W        W23874  24.504  10.851  11.451
55646W        W23875  29.143  44.282   2.180
55647W        W23876  42.026  15.017   1.064
55648W        W23877  37.551  25.827  12.078
55649W        W23878   6.900  36.483  14.309
55650W        W23879  34.478  33.563   1.713
55651W        W23880  30.174  16.393  11.629
55652W        W23881   3.267   4.622   2.167
55653W        W23882  37.027  19.553  13.431
55654W        W23883  40.478  24.433  10.587
55655W        W23884  11.595  41.314  10.898
55656W        W23885  15.682  32.014  13.631
55657W        W23886  14.260  15.134   0.532
55658W        W23887   3.957  20.216  10.978
55659W        W23888  41.953   9.148  12.914
55660W        W23889  11.983  16.164   2.429
55661W        W23890   7.298   4.764   0.695
55662W        W23891  40.440   4.636  13.795
55663W        W23892  21.371   8.014   0.430
55664W        W23893  31.415  44.823   0.815
55665W        W23894  32.186  17.381   1.247
55666W        W23895  28.035  12.045  10.638
55667W        W23896   4.159  34.526   1.874
55668W        W23897  21.961  19.009   0.196
55669W        W23898  44.960  26.185   0.502
55670W        W23899  31.577  17.964   1.676
55671W        W23900  43.570   5.434  11.556
55672W        W23901  44.542   1.455   0.463
55673W        W23902  19.331   1.788  14.882
55674W        W23903  33.194  23.144   2.124
55675W        W23904  11.209   1.805   3.667
55676W        W23905   1.911  30.228  11.640
55677W        W23906  42.741   1.819  11.143
55678W        W23907  22.701  44.378  12.123
55679W        W23908  40.935   7.342  13.017
55680W        W23909   3.932  24.752   3.666
55681W        W23910  29.917   8.337  12.059
55682W        W23911   9.733  12.725  11.077
55683W        W23912  35.823  18.125  11.027
55684W        W23913  40.366  40.534  12.431
55685W        W23914  43.320  23.770   9.875
55686W        W23915   9.328  27.427   0.975
55687W        W23916  31.070  34.528   1.810
55688W        W23917   9.178   9.374  11.706
55689W        W23918  29.536  24.374  13.805
55690W        W23919  16.603   1.836  14.081
55691W        W23920  10.616  16.523   0.551
55692W        W23921  28.528  18.659   0.740
55693W        W23922   0.315  18.830   3.836
55694W        W23923  35.347  15.651   0.369
55695W        W23924   0.685  26.429  12.545
55696W        W23925  26.106  23.155   1.275
55697W        W23926  24.017  17.444   4.505
55698W        W23927  30.546  30.994   0.916
55699W        W23928  19.526  14.775  14.365
55700W        W23929  13.828  23.053  12.452
55701W        W23930  39.775  26.183   2.276
55702W        W23931  33.103   4.486  13.867
55703W        W23932  35.316  33.918  12.043
55704W        W23933   0.038  13.237  10.652
55705W        W23934  19.263  17.714  12.951
55706W        W23935  33.407  13.329   1.481
55707W        W23936  29.782  17.859  10.393
55708W        W23937  35.100  24.153   2.277
55709W        W23938   6.464  44.102  13.515
55710W        W23939  16.471   7.602  13.410
55711W        W23940  22.066  16.544  11.918
55712W        W23941  33.520  30.388   3.237
55713W        W23942  19.581  14.212  12.838
55714W        W23943   0.172   1.393  12.794
55715W        W23944   4.314  10.105   0.022
55716W        W23945  37.828   8.871  11.176
55717W        W23946   2.926  28.067   3.669
55718W        W23947  30.009   6.630  13.915
55719W        W23948  14.149  16.905  13.545
55720W        W23949  14.232  32.894   4.929
55721W        W23950  34.613   7.804  14.434
55722W        W23951   9.623  26.049   3.725
55723W        W23952  19.199  38.728  12.523
55724W        W23953  22.276  10.370   2.970
55725W        W23954  29.619  31.914   0.328
55726W        W23955   9.647  11.028   0.665
55727W        W23956  39.612  41.568  14.976
55728W        W23957   2.305  33.817  13.499
55729W        W23958  31.636   4.959  13.984
55730W        W23959   8.352  22.957   0.878
55731W        W23960  18.429  32.658  10.750
55732W        W23961   7.420  42.836   4.381
55733W        W23962   5.824  18.197   4.258
55734W        W23963   0.573   5.681   3.992
55735W        W23964   4.963  41.202  10.286
55736W        W23965  27.909   9.271  14.984
55737W        W23966  10.049  37.607   0.749
55738W        W23967  24.027  39.477  13.181
55739W        W23968  26.870  44.415  13.471
55740W        W23969  40.374  13.273   3.353
55741W        W23970  23.066  21.239  14.368
55742W        W23971  20.657   2.742  13.518
55743W        W23972   3.228   6.431   1.442
55744W        W23973  30.468  35.521  12.079
55745W        W23974  34.821   4.846   2.684
55746W        W23975   1.317  12.289   2.997
55747W        W23976  27.252  25.765   2.893
55748W        W23977  38.058   5.966   1.177
55749W        W23978  20.205  18.636  13.494
55750W        W23979  14.815  41.475  12.022
55751W        W23980  39.462  14.564   4.635
55752W        W23981   7.593  10.632   9.690
55753W        W23982  35.343   4.824   1.002
55754W        W23983  31.938  34.297  13.731
55755W        W23984  13.810  21.003   1.690
55756W        W23985  13.333  37.303  12.433
55757W        W23986  28.458   6.167   4.211
55758W        W23987   6.363  22.687  12.858
55759W        W23988  32.340  33.547   4.917
55760W        W23989  14.747  26.475   0.539
55761W        W23990   1.856   5.277   1.410
55762W        W23991   6.550   0.424   4.562
55763W        W23992  14.881  14.154   0.020
55764W        W23993  41.003  23.795  10.662
55765W        W23994   1.475  41.924  10.705
55766W        W23995  24.040  39.364  13.683
55767W        W23996  21.036  25.736   3.084
55768W        W23997   2.863  30.405  13.368
55769W        W23998  33.680  10.435   2.188
55770W        W23999   5.397  25.612   0.493
55771W        W24000   6.614  29.477   3.112
55772W        W24001  26.434  26.627   4.134
55773W        W24002  41.304   8.124   4.985
55774W        W24003  13.198  29.102   4.584
55775W        W24004  26.716  43.894   4.070
55776W        W24005  16.739   4.944   3.555
55777W        W24006  16.697   6.133   0.570
55778W        W24007  20.292  19.026   2.326
55779W        W24008   2.351  40.978   1.460
55780W        W24009  32.526  20.514   5.318
55781W        W24010  41.811  20.062  10.729
55782W        W24011  34.543  18.729  14.220
55783W        W24012  24.267  10.761   3.707
55784W        W24013   3.691  17.152  13.343
55785W        W24014  42.769  27.483   1.729
55786W        W24015   1.438  10.322   1.338
55787W        W24016   9.191  38.001   3.247
55788W        W24017  28.023  39.078   1.628
55789W        W24018  19.108  34.894  12.647
55790W        W24019  33.740  11.907   3.623
55791W        W24020  14.818  29.957   2.798
55792W        W24021  44.254  11.457  10.313
55793W        W24022   5.890  23.238  12.480
55794W        W24023   0.385   2.152  13.894
55795W        W24024  19.770  20.738  12.598
55796W        W24025  35.379   6.562   3.652
55797W        W24026  32.120  28.313   0.202
55798W        W24027  38.399  34.111  10.069
55799W        W24028   8.807  10.500  13.200
55800W        W24029  27.595  24.432   2.794
55801W        W24030  33.043  25.031   0.856
55802W        W24031  13.330   2.468   1.736
55803W        W24032  17.909   7.230   2.404
55804W        W24033  44.012  25.827   4.381
55805W        W24034  43.976  40.331   3.385
55806W        W24035  31.638  11.631   0.294
55807W        W24036   3.520  35.157  10.601
55808W        W24037   4.620  40.908  11.563
55809W        W24038  39.322  22.534   1.349
55810W        W24039  12.308   2.445  13.842
55811W        W24040   6.715   7.248  10.524
55812W        W24041   6.795  17.612  12.900
55813W        W24042  25.117  10.798  14.505
55814W        W24043  22.781  12.816  13.517
55815W        W24044  41.861  18.094   4.522
55816W        W24045  36.027  40.544   2.193
55817W        W24046  41.334  25.930   1.508
55818W        W24047  44.295  17.310  12.402
55819W        W24048  31.050  35.251   9.652
55820W        W24049  34.973  25.100   1.928
55821W        W24050  44.002  19.457  14.457
55822W        W24051   4.081  44.004  10.763
55823W        W24052  40.455  43.242   2.727
55824W        W24053   8.028  20.154  12.571
55825W        W24054   2.987  32.362   4.669
55826W        W24055  20.494  11.053  12.702
55827W        W24056  14.202  14.732  12.596
55828W        W24057  39.544  16.279  14.487
55829W        W24058  44.424  35.913   1.764
55830W        W24059  10.929  25.034   5.096
55831W        W24060  41.726  33.366   2.204
55832W        W24061  40.984  16.150  11.944
55833W        W24062   1.273  40.006  13.410
55834W        W24063   1.907   2.982   1.771
55835W        W24064   8.827  24.211  11.515
55836W        W24065   0.927  23.347   1.125
55837W        W24066  26.726  44.256   1.743
55838W        W24067  18.852  13.292  11.216
55839W        W24068  43.042  24.019  12.066
55840W        W24069  40.965  27.866   0.404
55841W        W24070  38.637   2.806   3.621
55842W        W24071  19.049  32.979   1.189
55843W        W24072  18.155  26.468   0.366
55844W        W24073  20.763  27.870  10.336
55845W        W24074  44.981  19.840   0.927
55846W        W24075  21.500  25.757   3.371
55847W        W24076   1.136  23.615  13.871
55848W        W24077  22.032  24.612  10.881
55849W        W24078  40.698   6.555   4.043
55850W        W24079  42.707  18.850   1.390
55851W        W24080  27.801  25.326   4.233
55852W        W24081   9.072  10.737  12.497
55853W        W24082  10.251  15.882  13.309
55854W        W24083  43.105  25.195  14.329
55855W        W24084  39.547  27.649  13.035
55856W        W24085  13.157  12.312  12.509
55857W        W24086  20.985  38.288   4.208
55858W        W24087  14.207  18.962  11.499
55859W        W24088   0.504  24.202   0.755
55860W        W24089  38.031  34.166  10.902
55861W        W24090  12.070  32.065   0.450
55862W        W24091   4.376   1.107  11.603
55863W        W24092  43.689  44.019   4.179
55864W        W24093  22.855  35.313  14.565
55865W        W24094  38.019   4.708   1.644
55866W        W24095  27.457   6.675  11.713
55867W        W24096  29.484  29.980  12.563
55868W        W24097  19.672  18.760   3.728
55869W        W24098  31.379  14.635  12.958
55870W        W24099  11.167   2.218   0.123
55871W        W24100  33.422  29.544  12.459
55872W        W24101  14.085  40.747  14.431
55873W        W24102  23.271  20.539   0.027
55874W        W24103  17.059   7.674   3.672
55875W        W24104  18.530  30.310   0.558
55876W        W24105   2.908  39.871   2.171
55877W        W24106  30.952  22.265   4.096
55878W        W24107  11.717   5.669  13.449
55879W        W24108  15.842  28.731  13.407
55880W        W24109   8.971   0.350   1.306
55881W        W24110   3.207  33.355   1.901
55882W        W24111   5.638  15.741  11.527
55883W        W24112  24.065  43.241   2.106
55884W        W24113  34.552  16.450   5.132
55885W        W24114  39.901  23.206   4.632
55886W        W24115  36.956  16.430  10.735
55887W        W24116  31.067  33.567  11.211
55888W        W24117  13.408  30.308   3.261
55889W        W24118  38.351   7.748  12.122
55890W        W24119  18.547  21.690   2.206
55891W        W24120  41.442  44.078  13.535
55892W        W24121  31.091  31.488   4.821
55893W        W24122  27.730  26.650   0.021
55894W        W24123   6.764  19.396   0.639
55895W        W24124  25.436  35.503   4.597
55896W        W24125  37.988  15.771  14.766
55897W        W24126  21.258   1.249  11.744
55898W        W24127  19.669  42.857   3.603
55899W        W24128  42.417  24.572   4.720
55900W        W24129   4.163   0.966  10.757
55901W        W24130   3.326  37.512  13.096
55902W        W24131  13.743  16.545   1.551
55903W        W24132  29.004   7.192   0.458
55904W        W24133  37.310  27.723   5.068
55905W        W24134   9.711  33.982   0.746
55906W        W24135  20.733  16.181  10.601
55907W        W24136  29.729  20.080  13.124
55908W        W24137   7.304  34.677   3.963
55909W        W24138  14.754  37.415  13.842
55910W        W24139  44.887  12.494  13.100
55911W        W24140  29.263   1.800   1.003
55912W        W24141   2.448  39.058   4.493
55913W        W24142   0.527   5.064   3.220
55914W        W24143   0.781  17.683   3.390
55915W        W24144  19.505  15.174  14.957
55916W        W24145  27.352  12.154   2.829
55917W        W24146   5.322  10.362   0.322
55918W        W24147  19.239  13.158   4.200
55919W        W24148   0.925  21.121   2.224
55920W        W24149  22.639  40.980  10.874
55921W        W24150  16.626  11.200  11.231
55922W        W24151  43.907   7.585  11.065
55923W        W24152  39.247  40.498  13.412
55924W        W24153  28.840  17.936   5.018
55925W        W24154   4.669   9.367   1.766
55926W        W24155  39.509  39.883  10.934
55927W        W24156  20.052   7.290   3.195
55928W        W24157  33.815  33.376   2.104
55929W        W24158   2.441   4.461   2.740
55930W        W24159  42.528  44.371   2.289
55931W        W24160  31.107   6.139  12.393
55932W        W24161  38.943  40.234   3.710
55933W        W24162  30.037  11.516  11.718
55934W        W24163  15.146  34.175  14.037
55935W        W24164  33.020  27.265   1.745
55936W        W24165  39.814  19.698   3.842
55937W        W24166  34.223  26.711   1.502
55938W        W24167  29.417  40.361   1.463
55939W        W24168  12.674  33.436  13.788
55940W        W24169  40.572   0.854   1.806
55941W        W24170  29.120   1.955   1.500
55942W        W24171  16.702  32.157  14.897
55943W        W24172  31.455  35.674  12.026
55944W        W24173  41.380  17.361  12.524
55945W        W24174  22.102  44.100   1.418
55946W        W24175  34.501  40.326  10.882
55947W        W24176  33.021   4.643   4.149
55948W        W24177  37.457  44.492  12.540
55949W        W24178  39.315   9.791   0.738
55950W        W24179  23.035  19.374  10.731
55951W        W24180  10.649  16.812   1.003
55952W        W24181  14.100  42.780  13.989
55953W        W24182  37.608  22.724  13.565
55954W        W24183  32.324  17.710  11.180
55955W        W24184  15.402  12.609   1.890
55956W        W24185  26.326  16.032   0.683
55957W        W24186   5.421  26.438   3.067
55958W        W24187   4.995  32.685  14.745
55959W        W24188  43.011  17.198   2.410
55960W        W24189  14.181  12.021  14.413
55961W        W24190   3.189  28.307  11.096
55962W        W24191   8.367   6.124   1.788
55963W        W24192   3.873  43.332   2.850
55964W        W24193  19.580  10.656   0.947
55965W        W24194  26.592   6.815  14.265
55966W        W24195  34.767  18.008  11.059
55967W        W24196  21.381  42.322  14.758
55968W        W24197  37.501   5.927   4.071
55969W        W24198  10.180  31.155  10.945
55970W        W24199   8.943  32.121   2.765
55971W        W24200  14.204  26.484   3.374
55972W        W24201  28.150  29.067  13.538
55973W        W24202  21.091  14.127  14.312
55974W        W24203  32.460  26.683  10.634
55975W        W24204  17.376  13.523  14.312
55976W        W24205  14.711  17.320  10.289
55977W        W24206  11.109  30.453  11.573
55978W        W24207  23.901  33.421  11.659
55979W        W24208  24.586  22.605  14.921
55980W        W24209  20.559  30.650  10.706
55981W        W24210  40.875  42.918   2.742
55982W        W24211  42.491  15.260   0.588
55983W        W24212  39.839  34.596  13.941
55984W        W24213  43.317  30.834  13.923
55985W        W24214  27.047   7.142  14.316
55986W        W24215  44.978  40.345  14.604
55987W        W24216  20.744  19.813   0.256
55988W        W24217  37.017   8.262   2.868
55989W        W24218  27.636  37.777   0.327
55990W        W24219   7.247  21.017   1.318
55991W        W24220   0.808  19.554  14.032
55992W        W24221  21.100  28.583  11.437
55993W        W24222  14.577  13.910   2.305
55994W        W24223  21.345  43.953  12.437
55995W        W24224  25.248  29.156   0.957
55996W        W24225  42.615  24.052   4.212
55997W        W24226  31.534  39.016  12.938
55998W        W24227  13.350  27.404   1.466
55999W        W24228  15.150   7.790  10.699
56000W        W24229  21.514  27.155  14.003
56001W        W24230  15.068   6.466   1.362
56002W        W24231  40.021  12.059  14.320
56003W        W24232  17.497   6.298   4.569
56004W        W24233  10.440   0.222  14.806
56005W        W24234  34.973  44.921  12.885
56006W        W24235   4.399  26.684   1.791
56007W        W24236  16.528  20.502   4.551
56008W        W24237  42.506  31.179  11.062
56009W        W24238  12.404   6.983  14.250
56010W        W24239  14.828  36.033   2.259
56011W        W24240  21.055  39.779   4.218
56012W        W24241  20.688  21.788  12.467
56013W        W24242  33.615  25.029   1.305
56014W        W24243  43.304  39.524   3.192
56015W        W24244  30.509  33.000   0.020
56016W        W24245  19.692  11.999  11.483
56017W        W24246  19.648  10.361  12.938
56018W        W24247   8.175  30.427  10.583
56019W        W24248  41.847  12.905   1.759
56020W        W24249  29.658  12.289   2.688
56021W        W24250  23.072  13.761  12.348
56022W        W24251  15.842  14.201   3.607
56023W        W24252  36.585   1.147   3.263
56024W        W24253  28.602  29.477   4.574
56025W        W24254  21.265  29.597   4.675
56026W        W24255  25.290  22.822   4.250
56027W        W24256  42.317   2.240  14.501
56028W        W24257   9.180  13.282  12.576
56029W        W24258   9.296  12.093   1.255
56030W        W24259  44.766  10.800  10.584
56031W        W24260   3.329   2.369  14.629
56032W        W24261  34.112  41.286   0.757
56033W        W24262  33.608   9.155   1.494
56034W        W24263  39.905   2.061   1.297
56035W        W24264  25.452  31.433  13.340
56036W        W24265  44.794  31.067   3.311
56037W        W24266  40.352  38.725  12.987
56038W        W24267  31.511  16.272   3.685
56039W        W24268  36.463   0.793  14.867
56040W        W24269   2.517  34.449  14.329
56041W        W24270  24.574   4.228   1.432
56042W        W24271  15.186  41.345   4.543
56043W        W24272  42.316   3.813  13.980
56044W        W24273  33.829  44.545   0.933
56045W        W24274  24.169  44.483   4.661
56046W        W24275  31.428  37.481   2.618
56047W        W24276  33.078  35.950   0.330
56048W        W24277  38.466   5.454  11.860
56049W        W24278   4.500  35.362   5.452
56050W        W24279  40.447   7.226  11.433
56051W        W24280   2.938   9.118   4.176
56052W        W24281  14.752  43.762  11.112
56053W        W24282  35.684  16.014   3.761
56054W        W24283  22.042  18.781  12.927
56055W        W24284  16.039  15.623  14.495
56056W        W24285  12.588  27.879  13.318
56057W        W24286  29.706   7.934   0.084
56058W        W24287   3.267  25.001   2.107
56059W        W24288  29.273  18.742  10.275
56060W        W24289  38.098  38.052   2.285
56061W        W24290  30.743  17.987  11.113
56062W        W24291  16.705  34.884   2.373
56063W        W24292   0.461  38.151   2.816
56064W        W24293  35.090  44.398  10.831
56065W        W24294  30.388  42.328   4.104
56066W        W24295  25.567  42.823  12.373
56067W        W24296  14.609   5.712  11.588
56068W        W24297  21.725  12.677  11.475
56069W        W24298  29.887  22.196  14.800
56070W        W24299  16.172  10.870  10.613
56071W        W24300  30.635  27.183   1.630
56072W        W24301  31.142  25.678  12.039
56073W        W24302  17.839  40.896   2.865
56074W        W24303   1.729  21.593   2.386
56075W        W24304   7.240  41.034   3.201
56076W        W24305  40.357  40.804   3.920
56077W        W24306  34.476  31.212  12.353
56078W        W24307  40.467  41.557  12.666
56079W        W24308  32.817  37.402   1.439
56080W        W24309   0.338  28.884   3.237
56081W        W24310   5.318  17.981   4.515
56082W        W24311  43.209  23.139   1.400
56083W        W24312  38.083  44.946   2.659
56084W        W24313  41.745  17.616  10.554
56085W        W24314  31.965  39.114   3.089
56086W        W24315  25.471  27.160   3.276
56087W        W24316   7.802  29.249   2.833
56088W        W24317  13.633  22.872   1.794
56089W        W24318  44.165   4.031  14.037
56090W        W24319  33.951  42.216  12.406
56091W        W24320   5.337  33.525   2.788
56092W        W24321   7.785  37.334   0.849
56093W        W24322   1.775  32.592  13.959
56094W        W24323  14.773  15.260   3.690
56095W        W24324  39.818  17.194  11.079
56096W        W24325  33.590  44.007  11.441
56097W        W24326  28.534  30.077   1.163
56098W        W24327  16.339   0.255   1.425
56099W        W24328  36.032   6.228   0.519
56100W        W24329  16.082  18.138   2.272
56101W        W24330  24.916  20.629  11.967
56102W        W24331   7.923  34.502  14.231
56103W        W24332  22.385  27.458  10.443
56104W        W24333  37.408   5.270   4.612
56105W        W24334   9.206  11.035  11.672
56106W        W24335  25.072  40.037  13.149
56107W        W24336  18.142  40.234  13.170
56108W        W24337   8.508  13.476  11.153
56109W        W24338  44.372  25.750   0.747
56110W        W24339  39.483  42.498  13.603
56111W        W24340  24.505  22.637  12.545
56112W        W24341  35.412  19.646  13.508
56113W        W24342  44.131  30.410  14.062
56114W        W24343  24.561  30.971  13.358
56115W        W24344  34.214  43.166   3.234
56116W        W24345  18.796   4.670  11.124
56117W        W24346   1.447   6.305   4.906
56118W        W24347  31.592  32.157  10.503
56119W        W24348  25.639  37.974   2.684
56120W        W24349  35.916  14.054  13.874
56121W        W24350  24.469  14.778  11.371
56122W        W24351  40.355  11.789   0.054
56123W        W24352   1.393  25.642   3.618
56124W        W24353  40.630  16.314   2.768
56125W        W24354  12.459   2.936   3.258
56126W        W24355  28.125  23.177   4.126
56127W        W24356  16.180  19.860   0.721
56128W        W24357  29.557   7.017  14.960
56129W        W24358   7.252  15.642  12.558
56130W        W24359  39.892  25.261   2.616
56131W        W24360   2.866  27.936   2.865
56132W        W24361  34.634  35.371   4.542
56133W        W24362  35.316  18.131   5.016
56134W        W24363  15.143  12.241   2.715
56135W        W24364  39.993  38.575  10.587
56136W        W24365  10.305  39.902  14.717
56137W        W24366   9.393   8.258   4.638
56138W        W24367  44.895  25.465   0.242
56139W        W24368  16.532  11.669   1.710
56140W        W24369  35.067   9.146   3.677
56141W        W24370  44.279  12.944   3.326
56142W        W24371  37.417  30.657  13.390
56143W        W24372  35.353   7.460   9.888
56144W        W24373  37.890  27.378  12.481
56145W        W24374  32.166   9.263   2.085
56146W        W24375  16.768  14.616   0.742
56147W        W24376  38.578  37.929  11.231
56148W        W24377  32.401   4.512  14.359
56149W        W24378  17.311  14.617  14.881
56150W        W24379   4.830  15.752  12.862
56151W        W24380  15.349  19.577   1.735
56152W        W24381  13.842  21.068  13.109
56153W        W24382   3.242  12.709  11.007
56154W        W24383  18.183  44.719  14.761
56155W        W24384  34.011  36.936   2.837
56156W        W24385  12.073  35.282   4.420
56157W        W24386   2.938  33.679  14.773
56158W        W24387  34.975   1.440   1.708
56159W        W24388  19.687   7.496  12.228
56160W        W24389   7.807   2.238   4.597
56161W        W24390  36.492  39.051   4.455
56162W        W24391  27.156  31.354  13.029
56163W        W24392  21.955   5.207  13.066
56164W        W24393  11.217  19.699   0.277
56165W        W24394  28.440  33.615  11.616
56166W        W24395  40.587  19.711   3.281
56167W        W24396   7.816  20.583   2.599
56168W        W24397   3.321   2.387   4.904
56169W        W24398  15.310  24.923  12.083
56170W        W24399   3.464  28.036   2.248
56171W        W24400   7.676  23.620   1.671
56172W        W24401  13.694  38.265  13.278
56173W        W24402   1.748   2.710  11.173
56174W        W24403  41.211   4.858   1.209
56175W        W24404  25.029  40.932  14.838
56176W        W24405   0.740   8.765   2.652
56177W        W24406   2.536  25.461  14.277
56178W        W24407  43.623  26.924  11.983
56179W        W24408  27.572  10.128   2.686
56180W        W24409   5.497  38.034  10.614
56181W        W24410  15.623  32.455  12.373
56182W        W24411  17.104  12.543  10.897
56183W        W24412  22.871  13.611  12.791
56184W        W24413  25.473  32.408  10.961
56185W        W24414  26.441  39.030  12.921
56186W        W24415  27.383  30.443   1.807
56187W        W24416  30.639  44.478  14.795
56188W        W24417  12.293   2.229  12.853
56189W        W24418  35.130  19.690  14.510
56190W        W24419  33.662   9.697  14.438
56191W        W24420   5.304  10.938  11.170
56192W        W24421  18.347  24.849  13.461
56193W        W24422  24.870  20.116  11.986
56194W        W24423  11.087  24.898  13.879
56195W        W24424  10.717  19.652   3.625
56196W        W24425  41.446  37.235   1.883
56197W        W24426  15.718  20.230  12.357
56198W        W24427   5.400  27.003  14.804
56199W        W24428  32.532  18.482   3.998
56200W        W24429  32.825  11.586   2.431
56201W        W24430   5.004   0.548   1.378
56202W        W24431  24.486  12.634   1.020
56203W        W24432  20.110  31.153  13.419
56204W        W24433  28.438  15.667  12.141
56205W        W24434   6.951  42.552  11.591
56206W        W24435  23.168  25.003  11.955
56207W        W24436   3.869  17.495  12.921
56208W        W24437  22.362  19.514   1.810
56209W        W24438  11.654  13.840   3.351
56210W        W24439  39.950  26.473  14.037
56211W        W24440  31.629   6.337  14.736
56212W        W24441  21.316  19.731   3.340
56213W        W24442  36.899  23.888   2.546
56214W        W24443  33.269   7.314  10.298
56215W        W24444   8.861  20.559  10.570
56216W        W24445  42.029   3.830  11.868
56217W        W24446  33.593  42.073  12.952
56218W        W24447  44.475  28.248  14.454
56219W        W24448   9.468   3.537   2.241
56220W        W24449  28.053  25.597  10.707
56221W        W24450  23.519  16.677  14.920
56222W        W24451  13.198  33.494  13.915
56223W        W24452  41.288  27.403  12.331
56224W        W24453   9.051  23.123  14.689
56225W        W24454  44.753  26.439   3.290
56226W        W24455  17.295  34.420  11.613
56227W        W24456  28.559  11.826   4.573
56228W        W24457  17.112   3.780   4.077
56229W        W24458  30.013  39.535  13.982
56230W        W24459  21.620  24.269  13.304
56231W        W24460  33.104  30.931   1.388
56232W        W24461  13.389   0.320  10.566
56233W        W24462  26.654   8.205  13.492
56234W        W24463  31.844  20.684   3.600
56235W        W24464  28.016  20.259   1.965
56236W        W24465  33.388   9.300   3.761
56237W        W24466  15.613  19.689   3.391
56238W        W24467  38.625   6.959   9.790
56239W        W24468  18.089  13.859  13.896
56240W        W24469  42.724   1.707   1.765
56241W        W24470  39.474  11.600   1.960
56242W        W24471  44.783  10.598   1.016
56243W        W24472  16.122  40.409   3.422
56244W        W24473   8.716  40.532   3.789
56245W        W24474   2.496  41.029  13.434
56246W        W24475  20.287  21.195   3.124
56247W        W24476  11.719  40.214  13.041
56248W        W24477   2.047  27.869  14.028
56249W        W24478  22.553   3.306   1.770
56250W        W24479  37.319   2.429  11.627
56251W        W24480  31.900  36.999   3.699
56252W        W24481  31.668  22.454  13.303
56253W        W24482  35.987  22.682  12.036
56254W        W24483   2.442  39.823  13.988
56255W        W24484   4.841  35.249  11.202
56256W        W24485   6.337  32.131   4.437
56257W        W24486  25.653   5.716  10.578
56258W        W24487   8.195   2.262  14.763
56259W        W24488   0.847  29.566  11.857
56260W        W24489  29.803  20.262  12.296
56261W        W24490   0.279   5.925   3.097
56262W        W24491  28.491  39.051  11.888
56263W        W24492  30.639  25.528  12.033
56264W        W24493  19.139   5.260  10.775
56265W        W24494  44.832   2.979  11.107
56266W        W24495   1.322   1.844   4.997
56267W        W24496  13.572   3.404  10.567
56268W        W24497  42.794  39.407   1.460
56269W        W24498   7.389  27.657   3.166
56270W        W24499  18.091  40.552   4.707
56271W        W24500   3.380   4.295   1.217
56272W        W24501  20.586   7.639   0.368
56273W        W24502  16.375  20.753   9.731
56274W        W24503  26.651  20.356  13.001
56275W        W24504  39.566  43.012  12.668
56276W        W24505  14.328  24.923  12.870
56277W        W24506   0.298  44.744  14.374
56278W        W24507  40.832  10.171   2.010
56279W        W24508  25.428  33.914  14.199
56280W        W24509  38.318  33.301  12.669
56281W        W24510  20.038  30.487  12.957
56282W        W24511  12.329  24.600   3.415
56283W        W24512  43.994   5.444  14.939
56284W        W24513  44.771   8.697  13.121
56285W        W24514   3.796  20.598  10.670
56286W        W24515  32.149  37.620  14.409
56287W        W24516  27.045  31.677  13.444
56288W        W24517  20.967   4.249  13.992
56289W        W24518   6.764  34.010  14.196
56290W        W24519  24.519  44.265  12.931
56291W        W24520   2.930   9.767  13.545
56292W        W24521  36.826  39.069  11.414
56293W        W24522   2.447  26.773  10.823
56294W        W24523  17.036  34.430   4.346
56295W        W24524  42.928   6.380   1.242
56296W        W24525   5.855  15.155  12.166
56297W        W24526   0.485  20.483  13.484
56298W        W24527  37.863  43.413  11.624
56299W        W24528   8.851   5.658  11.234
56300W        W24529   8.989  28.205  10.379
56301W        W24530  24.025  13.427   0.992
56302W        W24531  21.669  13.692   4.563
56303W        W24532  37.404  41.034   2.469
56304W        W24533  31.409  18.211  14.341
56305W        W24534  27.141  33.201  13.774
56306W        W24535  30.973  31.052   2.601
56307W        W24536  36.816  17.473   3.186
56308W        W24537  16.300  13.090  11.124
56309W        W24538  41.060  10.110  11.772
56310W        W24539  19.318   5.251  12.045
56311W        W24540  24.272  26.380   1.364
56312W        W24541  11.697  40.718   1.914
56313W        W24542   7.489  27.607   0.840
56314W        W24543   7.749  20.422   4.614
56315W        W24544   9.720  14.956  11.612
56316W        W24545  19.066  15.579  12.010
56317W        W24546  11.772  30.371  12.470
56318W        W24547   1.945  19.126   1.864
56319W        W24548   3.381  26.002   0.313
56320W        W24549  42.581   5.147  13.604
56321W        W24550  30.457   5.766  11.396
56322W        W24551   0.437  28.660  10.892
56323W        W24552  33.679  41.055   3.588
56324W        W24553  36.449  35.326   2.364
56325W        W24554   6.299   8.707   0.302
56326W        W24555   2.931  44.749  12.983
56327W        W24556   7.168   5.547   1.842
56328W        W24557  21.227  11.621   4.138
56329W        W24558  11.160   0.770   1.915
56330W        W24559  25.450  25.019  14.560
56331W        W24560  15.059  38.966   0.223
56332W        W24561  11.607  35.073   0.748
56333W        W24562   7.842  20.927  14.435
56334W        W24563  25.214  13.266   0.547
56335W        W24564  41.125  18.732  11.467
56336W        W24565  40.354  11.884  11.582
56337W        W24566  11.894  32.486  12.357
56338W        W24567   1.924   0.768   1.171
56339W        W24568   6.375  12.505  13.949
56340W        W24569  22.760   6.447  11.927
56341W        W24570   2.185   0.839  12.507
56342W        W24571  35.286   8.869  14.733
56343W        W24572  26.946  23.198   1.903
56344W        W24573  12.692  31.024  13.215
56345W        W24574  29.249  18.427   1.946
56346W        W24575  20.190  34.360  13.615
56347W        W24576   8.784  44.928  12.930
56348W        W24577  27.549  43.002   0.253
56349W        W24578  36.479  15.179  13.843
56350W        W24579   8.285  28.626  11.533
56351W        W24580   0.217  16.282  14.227
56352W        W24581  20.744   8.846  13.520
56353W        W24582  43.509  29.468  14.808
56354W        W24583  10.288  37.111  11.326
56355W        W24584  39.759   0.381   2.133
56356W        W24585  14.546  23.410   3.729
56357W        W24586  10.040  27.540   5.140
56358W        W24587  43.033  39.539   0.052
56359W        W24588  35.892  43.498  12.567
56360W        W24589  14.671   7.009   2.347
56361W        W24590  16.482   4.659   1.614
56362W        W24591  33.178   8.925   4.079
56363W        W24592  18.990  38.435   1.692
56364W        W24593  14.201  31.196   3.222
56365W        W24594  30.342  18.009  14.515
56366W        W24595  21.764  19.728   3.111
56367W        W24596  27.731  27.376  12.073
56368W        W24597   5.924  17.124  11.343
56369W        W24598   1.353   8.936  14.514
56370W        W24599   5.343   4.767  14.957
56371W        W24600  23.703  17.373  13.338
56372W        W24601  18.307  38.392   3.783
56373W        W24602  40.511  29.936  14.839
56374W        W24603  42.321   8.707  11.369
56375W        W24604   2.351  18.515   2.670
56376W        W24605  40.960  40.370  10.423
56377W        W24606  35.073  23.930  14.879
56378W        W24607  11.908   0.825  11.069
56379W        W24608   1.443   1.700   3.346
56380W        W24609  22.647  11.737  10.397
56381W        W24610  16.061  35.553  12.288
56382W        W24611   9.221  44.885   1.240
56383W        W24612  21.512  41.312   1.724
56384W        W24613  25.113   9.651   0.046
56385W        W24614  39.064   9.039   3.469
56386W        W24615   8.493   7.196   4.125
56387W        W24616   5.881  42.369   2.330
56388W        W24617  44.802  12.669  14.879
56389W        W24618  41.311  32.927  10.913
56390W        W24619   5.783  10.860   3.128
56391W        W24620  26.985  18.661   4.709
56392W        W24621   7.132  29.980   3.591
56393W        W24622   1.487  40.486   1.016
56394W        W24623  25.429  20.567   4.683
56395W        W24624  34.531   7.275   4.432
56396W        W24625  23.193  21.628  11.491
56397W        W24626  11.904  37.421  10.606
56398W        W24627  10.730  44.793   4.698
56399W        W24628  32.550   0.630  10.641
56400W        W24629  41.912  29.877   1.071
56401W        W24630  33.023   1.354  11.519
56402W        W24631   0.565  44.189  13.571
56403W        W24632   7.339  34.861   1.850
56404W        W24633   0.436   5.560   0.358
56405W        W24634  13.807  14.531   1.876
56406W        W24635  19.034   2.190   1.190
56407W        W24636  22.559  34.526  13.016
56408W        W24637  19.490   8.855  10.444
56409W        W24638  37.664   0.413   1.292
56410W        W24639  24.402  25.636  13.364
56411W        W24640   6.398  37.132   1.390
56412W        W24641  18.256  22.191   4.045
56413W        W24642  34.855   9.374   4.150
56414W        W24643  33.592  24.168  13.702
56415W        W24644  40.738   1.729   0.536
56416W        W24645  37.260  10.858   3.101
56417W        W24646  11.752  10.115  12.597
56418W        W24647  40.550  39.794   1.208
56419W        W24648  24.701  26.480  10.570
56420W        W24649  23.977  18.407   1.302
56421W        W24650  11.199  23.259   2.929
56422W        W24651  25.123   2.663  11.865
56423W        W24652  19.467  25.950  14.095
56424W        W24653  26.655  24.107  12.234
56425W        W24654  25.866  15.558  12.164
56426W        W24655   0.408   4.494  12.952
56427W        W24656  43.647  15.603   4.124
56428W        W24657  15.554  26.596  10.688
56429W        W24658  12.104  28.596  13.524
56430W        W24659  26.724   3.686   1.186
56431W        W24660  17.790   2.051   3.599
56432W        W24661  19.037  19.050  14.440
56433W        W24662   9.836   9.260   1.734
56434W        W24663   6.498  39.991  12.510
56435W        W24664   5.409  23.726  11.184
56436W        W24665  16.852  17.443   1.821
56437W        W24666   5.852  37.012  12.949
56438W        W24667  34.159  12.348   3.187
56439W        W24668  37.348  10.867  12.909
56440W        W24669  18.048  13.044  11.508
56441W        W24670  37.472  41.815  12.425
56442W        W24671  15.568   9.650   4.156
56443W        W24672  41.892  43.897   4.192
56444W        W24673  22.966   8.389   0.831
56445W        W24674  21.852  41.537  13.237
56446W        W24675  29.629   8.478  11.672
56447W        W24676   7.157  32.061   0.278
56448W        W24677  44.390  24.988   2.222
56449W        W24678   6.644  29.540  14.968
56450W        W24679   2.938  40.520   0.843
56451W        W24680  31.640  34.780   1.376
56452W        W24681   0.810  29.530   2.664
56453W        W24682  41.595   9.531  11.522
56454W        W24683  15.492  23.518  10.361
56455W        W24684  25.973  35.327   3.824
56456W        W24685  11.844  11.233   3.886
56457W        W24686  21.141  40.265  13.905
56458W        W24687  38.061  40.396   2.606
56459W        W24688   7.386  17.514  11.337
56460W        W24689  18.434  31.653  13.947
56461W        W24690  36.092  32.379  12.386
56462W        W24691   2.704  37.670  11.109
56463W        W24692  38.096  42.918   4.393
56464W        W24693  40.877  38.905  13.765
56465W        W24694  40.437  28.105   2.744
56466W        W24695  15.700  12.977  14.503
56467W        W24696  40.193   2.980  12.469
56468W        W24697   0.508   2.378   4.046
56469W        W24698  40.947   6.051   2.511
56470W        W24699  43.889  19.756   1.628
56471W        W24700  12.192  20.449   3.256
56472W        W24701   6.384  32.921  12.068
56473W        W24702  34.395  12.649   1.832
56474W        W24703   5.677  42.051  13.865
56475W        W24704   0.984  43.903   3.675
56476W        W24705   5.224  39.289  11.546
56477W        W24706   4.495  29.594  13.930
56478W        W24707   4.657  38.594   0.094
56479W        W24708  15.993   7.153  11.965
56480W        W24709  11.340   4.894  14.785
56481W        W24710  33.516  44.478  14.723
56482W        W24711  33.244  12.008   3.576
56483W        W24712  15.362  21.179  13.097
56484W        W24713  44.051   1.008   4.207
56485W        W24714  26.162  19.436   0.807
56486W        W24715  32.187   3.503  11.170
56487W        W24716  38.526  36.845   3.368
56488W        W24717  31.964  19.269   0.450
56489W        W24718  14.790   4.767  10.645
56490W        W24719  15.025  41.932  12.090
56491W        W24720  23.768  29.499  14.911
56492W        W24721  35.428   2.769   4.292
56493W        W24722  36.558  34.489  12.937
56494W        W24723  43.275  39.436  12.690
56495W        W24724  10.829  13.005  13.085
56496W        W24725  10.987  40.696   3.663
56497W        W24726  31.971  26.284   1.808
56498W        W24727  27.776  42.370  12.887
56499W        W24728  28.552  27.225  10.799
56500W        W24729   1.305  19.557  11.115
56501W        W24730   0.881  22.259  12.653
56502W        W24731   0.465  39.818   2.204
56503W        W24732  22.218  27.039  10.714
56504W        W24733   1.997  28.888  14.109
56505W        W24734  10.850   5.036  10.744
56506W        W24735  31.020   3.985   3.618
56507W        W24736   7.623  15.233   3.168
56508W        W24737  31.611  12.246   4.137
56509W        W24738   2.834  21.064   0.136
56510W        W24739  20.765  24.501  14.873
56511W        W24740  31.153   7.381   2.735
56512W        W24741   8.868  10.723   4.048
56513W        W24742   3.989   8.318   4.204
56514W        W24743  24.184  25.386  11.134
56515W        W24744  16.272  18.171  13.828
56516W        W24745  29.165   1.939  12.786
56517W        W24746   5.245  38.702   0.721
56518W        W24747  27.344   4.841  12.416
56519W        W24748  32.243  18.135  13.984
56520W        W24749  19.807  40.040  13.010
56521W        W24750  34.010  40.789  14.441
56522W        W24751  33.094  20.105  14.830
56523W        W24752  10.060  22.002  13.825
56524W        W24753  42.510  29.910   0.233
56525W        W24754   1.865  42.462   2.209
56526W        W24755   2.182  29.968  12.847
56527W        W24756  13.314  25.234  13.329
56528W        W24757   6.419  42.865   0.917
56529W        W24758  41.874  43.552   1.335
56530W        W24759  24.856  23.122   4.139
56531W        W24760   3.461  40.058  14.735
56532W        W24761  24.240  13.667   1.629
56533W        W24762  17.145  13.064  10.705
56534W        W24763  15.828  10.114   0.893
56535W        W24764   3.004  24.129  14.881
56536W        W24765  30.547   9.889  10.681
56537W        W24766  31.639  42.727  12.984
56538W        W24767  10.781  33.387   3.830
56539W        W24768   6.894  16.584  11.098
56540W        W24769   7.696  21.730  10.995
56541W        W24770   1.302  21.170  12.143
56542W        W24771   4.696  29.990   1.360
56543W        W24772   1.990  21.953  11.160
56544W        W24773  26.951  27.689  11.472
56545W        W24774  33.680  43.830   0.337
56546W        W24775  44.212  29.245   0.793
56547W        W24776  34.514  27.155   3.344
56548W        W24777  19.238  39.156   2.585
56549W        W24778   4.013   0.497   3.294
56550W        W24779  10.652  13.405   3.705
56551W        W24780  24.200  42.929  12.115
56552W        W24781  22.009  41.109   1.816
56553W        W24782   1.079  27.099   0.207
56554W        W24783  32.382  12.787   4.291
56555W        W24784  30.544  30.304  14.698
56556W        W24785  22.175  32.617   3.860
56557W        W24786  23.101  44.552  11.443
56558W        W24787   9.536   7.905   0.446
56559W        W24788  31.045  40.079  11.649
56560W        W24789  37.146  39.517  12.922
56561W        W24790  33.571  11.437   2.753
56562W        W24791   0.041  43.379   3.138
56563W        W24792  12.577  34.977   3.724
56564W        W24793   5.625  30.614   1.895
56565W        W24794  21.369   4.246   4.516
56566W        W24795  36.391  35.076  13.607
56567W        W24796  36.720   7.727   3.940
56568W        W24797   1.725   8.735  11.589
56569W        W24798  30.169  13.198  13.294
56570W        W24799   0.707  32.963  13.054
56571W        W24800  37.560  12.658   0.987
56572W        W24801   4.484  39.293  12.017
56573W        W24802   1.170   0.976   2.255
56574W        W24803  27.541  18.544   1.472
56575W        W24804  12.112  24.510  11.506
56576W        W24805  17.810  36.868  11.921
56577W        W24806  34.782   3.495  14.200
56578W        W24807  43.782  17.019  12.097
56579W        W24808   5.020  44.041  10.585
56580W        W24809  24.279  22.394  11.256
56581W        W24810  10.323  19.120  11.064
56582W        W24811   2.849   5.833   4.106
56583W        W24812  19.540  44.083  14.023
56584W        W24813   1.445  11.679   2.301
56585W        W24814  19.658  24.080   4.032
56586W        W24815   4.366  36.602  11.523
56587W        W24816  30.490  25.623   2.180
56588W        W24817  44.965   4.721  12.773
56589W        W24818  43.489   3.998  12.485
56590W        W24819  44.375  18.088   2.171
56591W        W24820  35.924   2.381  12.578
56592W        W24821  31.683  41.312  12.975
56593W        W24822  13.298  40.265   4.588
56594W        W24823  37.418  21.310  12.938
56595W        W24824  14.070  14.743  11.734
56596W        W24825   8.390  35.100  13.045
56597W        W24826  29.210  15.133  14.765
56598W        W24827  21.102   1.447   3.202
56599W        W24828   4.207  27.005  11.112
56600W        W24829  43.574   5.292   0.762
56601W        W24830  11.812   6.326  14.019
56602W        W24831  26.710  16.534  14.224
56603W        W24832  19.852  14.857  11.946
56604W        W24833   6.894   4.991  14.867
56605W        W24834  25.409  42.529   0.209
56606W        W24835  44.216  21.455   4.093
56607W        W24836  30.310  40.965  13.111
56608W        W24837   4.385  23.144  13.420
56609W        W24838  20.736   1.837  13.305
56610W        W24839  20.112  28.780  11.582
56611W        W24840  20.315  10.761  11.657
56612W        W24841  14.506  41.003  14.248
56613W        W24842  23.128  23.547   1.214
56614W        W24843  29.105  31.181  12.429
56615W        W24844  28.113  36.416   1.903
56616W        W24845   9.927  14.364   2.212
56617W        W24846   3.424  36.140  12.323
56618W        W24847  38.599  41.374   1.744
56619W        W24848  43.777  14.694  11.660
56620W        W24849  40.888  12.204   1.295
56621W        W24850  30.486  42.959  13.298
56622W        W24851  42.458  33.100  10.424
56623W        W24852  13.729  34.558  11.477
56624W        W24853  12.606  26.731  13.029
56625W        W24854  14.340  11.358   0.033
56626W        W24855  21.233  37.447  11.640
56627W        W24856   2.223   7.882  14.359
56628W        W24857  34.845   2.209   2.757
56629W        W24858   9.590  23.122   1.677
56630W        W24859  44.408  32.927  12.493
56631W        W24860  44.250  22.419  12.006
56632W        W24861   7.153  12.183   1.264
56633W        W24862  11.415  38.720   0.545
56634W        W24863  36.827  11.666   4.161
56635W        W24864  39.257  29.220  11.989
56636W        W24865  14.732  21.774  12.458
56637W        W24866  43.557  28.944   3.213
56638W        W24867  15.807   1.414   0.976
56639W        W24868  42.100  28.044   1.862
56640W        W24869  35.637  21.607   0.657
56641W        W24870   9.336  19.438  13.424
56642W        W24871  35.321   6.417   4.171
56643W        W24872  33.708  29.955  11.151
56644W        W24873  34.896  15.303  14.384
56645W        W24874   5.181  30.456  10.688
56646W        W24875  11.674  42.681   1.739
56647W        W24876   9.415  41.289  10.805
56648W        W24877  41.446  41.574  10.762
56649W        W24878   0.865  19.167  11.224
56650W        W24879  12.695   9.749   2.218
56651W        W24880   1.794  20.508   4.245
56652W        W24881   9.847  19.762   0.030
56653W        W24882   2.835  43.783  11.530
56654W        W24883  37.377   9.042  13.110
56655W        W24884  12.066  29.437   2.314
56656W        W24885  18.493  15.457  11.157
56657W        W24886  14.276  15.638  12.620
56658W        W24887  10.333   3.834  10.988
56659W        W24888  24.658  39.855   0.502
56660W        W24889  32.098  41.209  10.768
56661W        W24890   2.811  12.516   2.215
56662W        W24891  25.206  18.217  14.990
56663W        W24892  31.882   3.454  13.804
56664W        W24893  25.462  14.731   4.680
56665W        W24894  21.924  37.354   0.341
56666W        W24895  40.414   7.235   0.237
56667W        W24896  12.168   1.023   3.474
56668W        W24897  29.604  36.891  13.072
56669W        W24898   1.823  21.003   3.274
56670W        W24899  44.592  11.467  10.912
56671W        W24900  43.302  35.451   2.705
56672W        W24901  24.003  16.921  14.988
56673W        W24902  22.636   5.175   0.769
56674W        W24903  26.114  34.446  14.519
56675W        W24904  34.032   6.290   4.055
56676W        W24905  12.516  33.363  13.311
56677W        W24906  16.744  11.367  10.758
56678W        W24907  15.378   0.918  10.752
56679W        W24908  14.729  26.031   2.291
56680W        W24909  36.158  19.126   4.574
56681W        W24910   8.850  34.565  10.764
56682W        W24911   0.584   0.411  11.510
56683W        W24912  11.946  16.718   3.247
56684W        W24913  27.198  13.496   4.147
56685W        W24914  27.729   4.163   2.733
56686W        W24915  27.462  17.986  13.742
56687W        W24916  25.782  14.779  12.543
56688W        W24917   7.847  44.263  14.822
56689W        W24918  36.672  29.952  11.644
56690W        W24919  16.750  30.334  14.591
56691W        W24920  34.106  38.982   0.792
56692W        W24921  42.059  42.793  12.234
56693W        W24922   4.777  11.636   0.355
56694W        W24923  13.788  27.579   0.693
56695W        W24924   5.937  16.196  13.548
56696W        W24925  19.494  18.025   0.404
56697W        W24926  30.687  23.068   0.459
56698W        W24927  21.404  23.212   1.248
56699W        W24928  20.531   0.902   0.413
56700W        W24929  18.331  25.099  13.920
56701W        W24930  34.483   6.124  13.062
56702W        W24931   8.567  11.730   2.624
56703W        W24932  15.131  24.764  13.477
56704W        W24933  41.171  28.082   3.340
56705W        W24934   0.775  38.517  10.946
56706W        W24935   9.702   8.286  13.295
56707W        W24936  16.419  35.259   5.534
56708W        W24937   0.457  28.155   4.512
56709W        W24938  42.968  10.640   3.909
56710W        W24939  16.043  24.620   1.339
56711W        W24940  43.874  24.248   1.280
56712W        W24941  44.728   4.562  11.017
56713W        W24942  18.662   1.413   1.305
56714W        W24943  32.693  42.830   1.440
56715W        W24944  10.663  16.608  14.123
56716W        W24945  12.647  10.269   2.232
56717W        W24946  15.993  40.401  10.963
56718W        W24947  36.050  25.973  12.771
56719W        W24948  23.838  38.876  14.869
56720W        W24949  10.749  44.881   3.449
56721W        W24950   4.037  43.020   0.431
56722W        W24951  22.781  44.577   4.669
56723W        W24952  30.042  13.306   1.011
56724W        W24953  27.667  40.983   4.487
56725W        W24954  23.106  40.568  14.268
56726W        W24955  25.542  35.933   2.838
56727W        W24956  44.981   2.314   4.070
56728W        W24957  42.057  38.058  13.460
56729W        W24958  25.256  16.613   2.763
56730W        W24959  31.362   5.915  11.830
56731W        W24960  22.227   5.712   3.095
56732W        W24961  32.880  19.411  10.299
56733W        W24962  41.642   1.780   2.695
56734W        W24963  11.059   1.214  10.967
56735W        W24964   5.299  19.021   0.927
56736W        W24965  42.643  26.728   4.195
56737W        W24966  31.802  43.630  13.870
56738W        W24967   8.370  35.106   2.307
56739W        W24968  29.582  30.148  10.521
56740W        W24969   6.684  28.001   2.184
56741W        W24970  21.004  12.129   0.496
56742W        W24971  31.049  26.354   0.799
56743W        W24972  12.713   2.428   1.679
56744W        W24973  28.834  26.321  13.107
56745W        W24974  21.161  10.195  11.961
56746W        W24975  39.515   1.483   3.143
56747W        W24976  43.504  17.862   3.143
56748W        W24977  43.604   5.299  12.669
56749W        W24978  30.438  11.966   4.976
56750W        W24979  31.982  13.263  10.457
56751W        W24980  43.929   3.522   2.632
56752W        W24981  24.571   8.699   3.172
56753W        W24982  40.014   3.551   2.714
56754W        W24983   2.685  27.929   0.328
56755W        W24984  15.608  24.092   2.027
56756W        W24985   3.700  42.862   0.798
56757W        W24986  20.457  13.639   2.222
56758W        W24987  23.229  32.726   0.292
56759W        W24988  23.128  41.293   3.743
56760W        W24989  37.671   4.392  11.661
56761W        W24990  11.169  19.300  11.565
56762W        W24991  18.800  23.730  13.994
56763W        W24992  40.118   4.434  11.434
56764W        W24993  43.898   9.259  13.531
56765W        W24994   0.004  31.894  13.435
56766W        W24995  35.534  15.708  11.324
56767W        W24996  20.381  39.291   2.311
56768W        W24997   1.845  35.874  14.315
56769W        W24998  44.507  35.650  10.783
56770W        W24999   6.773  28.048  13.294
56771W        W25000   0.623  34.372  13.212
56772W        W25001  14.716   1.907  13.620
56773W        W25002  19.273  23.199   3.718
56774W        W25003   3.149  24.493   1.419
56775W        W25004  17.172  12.775  14.860
56776W        W25005  20.969  11.194   0.777
56777W        W25006  27.804  43.988  14.513
56778W        W25007  28.592  41.263  11.964
56779W        W25008  40.359   4.898   1.412
56780W        W25009   1.300  14.812  11.571
56781W        W25010   0.156  44.877  13.096
56782W        W25011  12.326  42.431   4.119
56783W        W25012  20.090  34.979   2.443
56784W        W25013   5.802   9.287  13.562
56785W        W25014  32.963  31.502   2.625
56786W        W25015  44.071  18.016   0.478
56787W        W25016   4.287   7.256  10.896
56788W        W25017  14.209  37.379   3.783
56789W        W25018  15.167  10.999  10.375
56790W        W25019  33.044   7.933   0.080
56791W        W25020  21.053  14.328  13.829
56792W        W25021  25.883   0.042   3.860
56793W        W25022  36.808  11.243  14.993
56794W        W25023  35.513   6.200   1.054
56795W        W25024  10.114  28.070   3.780
56796W        W25025  24.623  21.238   2.262
56797W        W25026  24.534  16.312   0.905
56798W        W25027  41.018  29.571  11.503
56799W        W25028  17.990  22.189   1.782
56800W        W25029  17.911  20.118  10.268
56801W        W25030  29.241  22.535   3.711
56802W        W25031  25.966  13.604   2.862
56803W        W25032  39.811  25.559  13.276
56804W        W25033  35.469  15.726   2.376
56805W        W25034  28.982   1.840   2.921
56806W        W25035   3.827  17.578   3.875
56807W        W25036  35.586  34.643  10.605
56808W        W25037  41.730  31.347   1.451
56809W        W25038  43.662   4.165  13.881
56810W        W25039  18.901  31.353  10.297
56811W        W25040   6.443   7.186   4.140
56812W        W25041  42.608  11.337   1.302
56813W        W25042   6.354   4.307   0.799
56814W        W25043  19.820  43.977  13.608
56815W        W25044  25.579   7.883   4.036
56816W        W25045  11.329   8.784  11.503
56817W        W25046  30.525  14.194  10.755
56818W        W25047  27.085  35.672  10.201
56819W        W25048  27.598  13.261   4.352
56820W        W25049  34.552   1.318  12.096
56821W        W25050  39.066  24.175   1.504
56822W        W25051  28.796   3.709  11.051
56823W        W25052  34.205  44.163   3.307
56824W        W25053  30.951  36.052  13.959
56825W        W25054   1.192  40.500  13.860
56826W        W25055   5.785  26.600  11.382
56827W        W25056  14.061  13.213  14.334
56828W        W25057  40.309  36.490   1.308
56829W        W25058  36.145  33.982  12.471
56830W        W25059  32.158   8.756   4.087
56831W        W25060   1.506  43.959  12.180
56832W        W25061   0.845  43.919   4.481
56833W        W25062  28.539  37.861   2.001
56834W        W25063  36.462  29.028   4.938
56835W        W25064  33.481   8.474   2.355
56836W        W25065  30.487  25.161   2.923
56837W        W25066  34.670  16.867   2.771
56838W        W25067  37.868   2.418   3.707
56839W        W25068  20.176  19.549   3.772
56840W        W25069  37.648  14.839   0.575
56841W        W25070  27.537  23.419   2.993
56842W        W25071  23.638  30.224  12.696
56843W        W25072  29.538  19.703  11.324
56844W        W25073  11.874  42.237   4.248
56845W        W25074   3.850  35.496   0.786
56846W        W25075   2.263  11.122   3.205
56847W        W25076  31.293  16.394   4.150
56848W        W25077  37.322  30.045  13.971
56849W        W25078   3.299   6.640   2.291
56850W        W25079  29.869  42.436   1.173
56851W        W25080  16.781  35.058   2.856
56852W        W25081  28.934  34.733   4.192
56853W        W25082  33.378  13.246  13.474
56854W        W25083   4.491  27.876   0.952
56855W        W25084  23.473  41.488   1.484
56856W        W25085  25.490  27.751   2.829
56857W        W25086   8.416  40.849  13.004
56858W        W25087  26.608  33.143   3.611
56859W        W25088   2.429   7.742   0.837
56860W        W25089   1.878  39.150   3.205
56861W        W25090  33.363  32.249   4.067
56862W        W25091  25.714  30.113   0.909
56863W        W25092  40.586  11.176   2.256
56864W        W25093  36.848   7.857   1.207
56865W        W25094  11.591  38.874   3.151
56866W        W25095   0.084  28.758   1.599
56867W        W25096   6.634  35.460   3.125
56868W        W25097  25.578   5.762  14.335
56869W        W25098  38.565  15.220  14.881
56870W        W25099  18.044  24.271   0.480
56871W        W25100  26.764  29.149  11.084
56872W        W25101  37.853   7.375  12.453
56873W        W25102  25.186  42.837   4.171
56874W        W25103   0.798  15.599   1.719
56875W        W25104  15.325  17.606  13.433
56876W        W25105  18.044   6.618  14.473
56877W        W25106  32.825  36.252  14.056
56878W        W25107  35.836  38.280  14.005
56879W        W25108  44.398  11.085   4.710
56880W        W25109  31.228  22.101  12.224
56881W        W25110  39.834  40.085   3.969
56882W        W25111  32.104  33.333   1.113
56883W        W25112  29.146  17.373  10.107
56884W        W25113  42.920   9.783  12.401
56885W        W25114  44.921  17.909   3.278
56886W        W25115  39.364  36.477  11.206
56887W        W25116  43.298   0.311   1.791
56888W        W25117  14.375  34.352   1.867
56889W        W25118  37.990  35.151   0.182
56890W        W25119  34.758  20.051   2.733
56891W        W25120  33.388  38.340  11.080
56892W        W25121  33.429  29.061  10.166
56893W        W25122  14.640  12.807  10.344
56894W        W25123  38.468   4.186  12.520
56895W        W25124   9.104  37.873  12.383
56896W        W25125  34.360   3.328   4.736
56897W        W25126   3.849  24.012  10.600
56898W        W25127  23.137  14.822  13.800
56899W        W25128  13.333  40.388  12.121
56900W        W25129  15.376  16.749  13.507
56901W        W25130   0.015  29.906   3.978
56902W        W25131   8.647  42.962   1.134
56903W        W25132  29.184   6.243   1.926
56904W        W25133  34.107  42.334  13.824
56905W        W25134  38.918   2.937   4.995
56906W        W25135   2.402  24.046  11.549
56907W        W25136  44.397  21.307  11.586
56908W        W25137  41.400  43.154  14.279
56909W        W25138   8.233  40.880  10.611
56910W        W25139  29.924  15.553   5.024
56911W        W25140  42.476  26.348  13.071
56912W        W25141  13.178  12.184  11.532
56913W        W25142  12.249  39.027   2.704
56914W        W25143   4.726  44.763   3.928
56915W        W25144  25.294  12.790   0.770
56916W        W25145   0.681   1.953  12.467
56917W        W25146  21.808  38.332   3.854
56918W        W25147  16.359   2.513  13.471
56919W        W25148  27.899  24.236  11.166
56920W        W25149  24.304   5.282   2.804
56921W        W25150   0.436   9.241  12.483
56922W        W25151   2.311   5.610   0.557
56923W        W25152  11.144  38.017   2.423
56924W        W25153  32.384  29.260   1.798
56925W        W25154  15.561  30.535  11.163
56926W        W25155  13.076  36.709  14.489
56927W        W25156   1.466   4.849  12.420
56928W        W25157  30.202  10.639  11.711
56929W        W25158  17.200  29.190  10.824
56930W        W25159  36.712  23.219  12.047
56931W        W25160  35.492   1.041  13.630
56932W        W25161  21.469  42.732  13.122
56933W        W25162  15.668  26.422   3.164
56934W        W25163   6.746  23.216  11.050
56935W        W25164  12.112  25.932   2.447
56936W        W25165  26.184  42.473   1.900
56937W        W25166  26.154   6.401  13.047
56938W        W25167   6.207   9.951  10.796
56939W        W25168  12.288  44.484   1.311
56940W        W25169   3.692  29.555  10.790
56941W        W25170  10.699  15.852  12.125
56942W        W25171   5.427   8.084   0.247
56943W        W25172   8.215  22.793   1.401
56944W        W25173  29.977  39.861   4.540
56945W        W25174   8.768  41.940   4.564
56946W        W25175  31.140  11.142  14.554
56947W        W25176  32.520  38.024   1.695
56948W        W25177  20.624   2.394   2.000
56949W        W25178  34.495  44.761   1.336
56950W        W25179   3.220  22.784   0.053
56951W        W25180  43.379  27.575  14.582
56952W        W25181  40.511  10.251  14.830
56953W        W25182  41.541   6.276  12.939
56954W        W25183  14.646  41.489   3.148
56955W        W25184  33.032  24.227  14.522
56956W        W25185  23.582   9.913   2.727
56957W        W25186  13.071  32.921   1.214
56958W        W25187  36.119  29.821   5.286
56959W        W25188  13.246   8.928  12.664
56960W        W25189  44.057  21.094   0.675
56961W        W25190  12.238  41.399   0.422
56962W        W25191   8.904   4.718   3.009
56963W        W25192  31.732  29.418   5.007
56964W        W25193  25.729  35.520  11.890
56965W        W25194   6.350  40.346  14.830
56966W        W25195  42.906   4.211   3.447
56967W        W25196   5.095  31.812  13.831
56968W        W25197  18.024   6.365   4.576
56969W        W25198  32.627  13.490  11.880
56970W        W25199   4.202  23.714  12.459
56971W        W25200   0.618  41.481  11.491
56972W        W25201  39.000  43.805  12.970
56973W        W25202  28.658  23.051   2.064
56974W        W25203  16.758  38.403   2.314
56975W        W25204  23.170  43.777  13.778
56976W        W25205   5.730   9.425  12.627
56977W        W25206  38.126  21.249  11.457
56978W        W25207  27.592  38.232   0.889
56979W        W25208  42.773   7.118  10.800
56980W        W25209  43.138  24.277   3.577
56981W        W25210  39.356  40.022   0.945
56982W        W25211  32.144  22.648   4.554
56983W        W25212  26.103  36.171   0.282
56984W        W25213  26.482  34.639  12.589
56985W        W25214  42.165  10.115   0.961
56986W        W25215  18.372  39.429   1.196
56987W        W25216   7.254  43.485  13.498
56988W        W25217  16.209  29.501   0.432
56989W        W25218  44.738  35.415  14.894
56990W        W25219   7.570  41.395  12.630
56991W        W25220  12.132  43.839  14.409
56992W        W25221  22.697  10.610   3.174
56993W        W25222  39.099  32.202   3.241
56994W        W25223  34.864   8.576  11.998
56995W        W25224   0.725  21.580   2.368
56996W        W25225  32.105  30.163  12.850
56997W        W25226  21.933  23.685   0.183
56998W        W25227   5.543  12.689   0.827
56999W        W25228   3.034   3.552   3.613
57000W        W25229  11.120  19.173   2.312
57001W        W25230  31.642   6.630  13.476
57002W        W25231  16.149   7.453  11.592
57003W        W25232   5.335  14.366  13.161
57004W        W25233  11.820  11.438  13.801
57005W        W25234  43.928   3.735  12.325
57006W        W25235  31.304   5.248  13.562
57007W        W25236  26.536   6.852   3.990
57008W        W25237  42.070  24.606   0.478
57009W        W25238  15.227  33.424  11.786
57010W        W25239  37.908  17.371   2.419
57011W        W25240  31.532  10.317  12.032
57012W        W25241   0.544  34.018  10.240
57013W        W25242  38.611  39.426  11.457
57014W        W25243   3.997  39.080   2.201
57015W        W25244  38.045  26.909   1.885
57016W        W25245  34.875  39.594  14.447
57017W        W25246  36.163  35.406   1.458
57018W        W25247  28.500   5.890   2.348
57019W        W25248  43.242  27.318   1.597
57020W        W25249  32.830   5.490  12.865
57021W        W25250  33.367  37.884  11.316
57022W        W25251  35.165  44.587   1.988
57023W        W25252   4.740  19.964  10.694
57024W        W25253  35.596  25.748   1.800
57025W        W25254  37.681  34.607  12.003
57026W        W25255  41.215  42.343   4.618
57027W        W25256  13.925  31.920   3.670
57028W        W25257  18.141   6.907   3.234
57029W        W25258  25.638   4.583  13.065
57030W        W25259  12.688  11.900   1.818
57031W        W25260   8.083  14.350   4.574
57032W        W25261  24.103  16.725  13.472
57033W        W25262  38.119  31.480  12.421
57034W        W25263  39.736  36.875   3.737
57035W        W25264  28.784  34.023   2.474
57036W        W25265  29.461  30.341  12.187
57037W        W25266  32.250   9.187  12.092
57038W        W25267  16.944  15.828  11.445
57039W        W25268  32.615  28.506   0.386
57040W        W25269  41.355  34.304  14.021
57041W        W25270  21.796  21.535   0.977
57042W        W25271   3.458   2.151   4.461
57043W        W25272  25.385  22.365  13.031
57044W        W25273  33.233  23.476   2.674
57045W        W25274  14.451  11.192  14.101
57046W        W25275   1.804  19.091   3.257
57047W        W25276  33.473  21.703  13.295
57048W        W25277   9.745  30.127   2.313
57049W        W25278  17.770  23.323  10.969
57050W        W25279  40.578  41.794  14.062
57051W        W25280  28.107   7.886  14.189
57052W        W25281  32.801  25.530   0.997
57053W        W25282  44.097  27.685  10.659
57054W        W25283  27.121   7.263  11.276
57055W        W25284  19.215  36.538   0.940
57056W        W25285  39.359  17.591   1.211
57057W        W25286  36.368   8.156  12.418
57058W        W25287  26.778  11.134  13.307
57059W        W25288   2.852  11.155   2.215
57060W        W25289   7.473  25.585   0.420
57061W        W25290  21.033  17.095   3.466
57062W        W25291   7.621   5.797  10.769
57063W        W25292  40.604   0.356  10.945
57064W        W25293  30.002   5.386   0.917
57065W        W25294   0.754  38.898  11.995
57066W        W25295  21.518   4.347   4.977
57067W        W25296  11.204  31.735   5.126
57068W        W25297  31.936  33.910   1.738
57069W        W25298   6.741  14.441  11.134
57070W        W25299   8.294  16.114  10.912
57071W        W25300  29.890  35.137   0.015
57072W        W25301  11.700  18.353  11.121
57073W        W25302   0.993  17.081  11.560
57074W        W25303  37.880  11.172   0.006
57075W        W25304  32.462  22.164  14.031
57076W        W25305  40.943  40.836   1.842
57077W        W25306  24.573   1.368  11.220
57078W        W25307   1.329  19.631  14.100
57079W        W25308  24.041  37.582  14.239
57080W        W25309  40.492  17.384   3.768
57081W        W25310  32.475  16.827   0.348
57082W        W25311  28.058   7.167  12.841
57083W        W25312  26.043  32.666  14.459
57084W        W25313  37.411  15.698   2.744
57085W        W25314  40.317  44.954   3.864
57086W        W25315  38.898  37.327  13.765
57087W        W25316  28.982  32.941   3.478
57088W        W25317   8.236   2.154  10.716
57089W        W25318   5.785  29.194  11.221
57090W        W25319  11.753  28.890  14.438
57091W        W25320  29.535  20.321   4.172
57092W        W25321  21.974  17.264   3.878
57093W        W25322  29.852  16.037  11.455
57094W        W25323  33.251  42.429   3.670
57095W        W25324  39.830  39.274   1.610
57096W        W25325  35.780  27.411   2.130
57097W        W25326  26.134  24.984   4.144
57098W        W25327  41.048  32.919   1.048
57099W        W25328  19.090  11.587   4.696
57100W        W25329   1.450  25.247   0.458
57101W        W25330  33.853  12.477   4.283
57102W        W25331  21.462  41.762   2.767
57103W        W25332  43.433  39.491   0.994
57104W        W25333   9.389  17.293   4.661
57105W        W25334  21.685  36.047   0.476
57106W        W25335  42.518  11.249   2.317
57107W        W25336  31.798  20.631   4.107
57108W        W25337   1.433  40.748   1.869
57109W        W25338  43.780  28.433  13.883
57110W        W25339   6.158  28.770   4.866
57111W        W25340  37.786  43.153  10.895
57112W        W25341  12.012  44.115  10.018
57113W        W25342  44.986  32.645   4.659
57114W        W25343   7.802  36.549   0.281
57115W        W25344   7.414  17.015   1.816
57116W        W25345   4.478  32.025  10.115
57117W        W25346   1.330   6.333   0.215
57118W        W25347  14.279  30.525  12.415
57119W        W25348   4.934  13.573  14.998
57120W        W25349  23.067   1.961  14.133
57121W        W25350  37.284  28.913   4.683
57122W        W25351   2.259  20.634   1.242
57123W        W25352  22.255  42.956   3.451
57124W        W25353  28.121   0.439  14.219
57125W        W25354  23.149  42.736   1.876
57126W        W25355   5.817  39.002   4.658
57127W        W25356  30.866  37.463   4.295
57128W        W25357  30.933  40.640   3.350
57129W        W25358  10.109  42.972   0.808
57130W        W25359  43.189  33.872   3.445
57131W        W25360  43.271  23.608   4.648
57132W        W25361  30.955  14.362  11.014
57133W        W25362  36.386  33.623   3.692
57134W        W25363  41.772  20.288  14.250
57135W        W25364   9.279  31.069   1.830
57136W        W25365  26.186  34.975   4.183
57137W        W25366   4.583  38.036   1.287
57138W        W25367  37.206  13.843   2.848
57139W        W25368  13.547   6.403   3.781
57140W        W25369  22.381   0.791   3.233
57141W        W25370  31.095  31.015   4.582
57142W        W25371  33.981  43.708  11.581
57143W        W25372  30.941  35.626   0.211
57144W        W25373   9.925  17.124  13.385
57145W        W25374  27.845  21.018  11.639
57146W        W25375  40.502  36.582   0.418
57147W        W25376  22.493  29.443   1.635
57148W        W25377  24.187   6.771   4.112
57149W        W25378  33.086   3.503   3.271
57150W        W25379   2.931  15.847   4.445
57151W        W25380   7.321   6.264   5.152
57152W        W25381  21.402  29.019   4.337
57153W        W25382   7.503  26.146   2.169
57154W        W25383  19.369  22.483  11.558
57155W        W25384   7.793  21.805   0.554
57156W        W25385   2.179   0.857   3.298
57157W        W25386  35.108  42.918   2.223
57158W        W25387  27.867  40.516   0.715
57159W        W25388  42.797  13.196   2.660
57160W        W25389  18.573   8.625   2.465
57161W        W25390  38.198  27.464   4.616
57162W        W25391  13.405   2.737  13.461
57163W        W25392  31.521  23.231  11.620
57164W        W25393  28.026   2.921   2.775
57165W        W25394  40.945  29.295  12.390
57166W        W25395  10.034   3.286  12.670
57167W        W25396  25.269  18.547  11.714
57168W        W25397  31.186  13.820  10.338
57169W        W25398  25.083  19.713   4.647
57170W        W25399  34.602  32.634   3.650
57171W        W25400  32.554  29.949   3.523
57172W        W25401   1.934  40.599   1.757
57173W        W25402  21.243   5.462  11.071
57174W        W25403  18.704  31.378  12.787
57175W        W25404  35.471   1.668   3.211
57176W        W25405   9.350   2.634   0.225
57177W        W25406   0.019  26.168  11.127
57178W        W25407   9.238  13.919   1.016
57179W        W25408  28.426  24.609   4.392
57180W        W25409  34.796   8.869  12.873
57181W        W25410  13.178  43.918   1.351
57182W        W25411   0.878  13.179  12.500
57183W        W25412  18.868  26.618  14.666
57184W        W25413   4.207  35.847   0.885
57185W        W25414  35.480   4.700  13.487
57186W        W25415   3.709  22.542   1.399
57187W        W25416  27.994  32.914   4.781
57188W        W25417  18.501  41.360  11.045
57189W        W25418   3.247  26.617   3.806
57190W        W25419  23.083  37.295  14.401
57191W        W25420  31.364   7.294   3.670
57192W        W25421  27.761  33.887  13.981
57193W        W25422  28.176  17.858  12.105
57194W        W25423  25.390  11.835  12.791
57195W        W25424   4.371   6.188  13.470
57196W        W25425  44.549  32.637  13.390
57197W        W25426   5.213  33.926  11.591
57198W        W25427  36.304  25.570  12.550
57199W        W25428  39.511  39.032   4.160
57200W        W25429  20.708   5.436   2.236
57201W        W25430   8.820  35.508  10.403
57202W        W25431  21.984  25.963  10.438
57203W        W25432  16.715   5.859   2.315
57204W        W25433  26.648  15.558   3.387
57205W        W25434  10.069  29.968  12.074
57206W        W25435  33.121   5.702   2.745
57207W        W25436  17.299  37.792   2.605
57208W        W25437  11.243   5.870   2.284
57209W        W25438   9.810  32.569  13.939
57210W        W25439   9.870  21.635  10.326
57211W        W25440  18.876  35.669   5.120
57212W        W25441  30.265  28.998   3.332
57213W        W25442  15.853   4.794  13.032
57214W        W25443  11.867  34.152   2.876
57215W        W25444   1.419  10.274   0.026
57216W        W25445  32.177   9.272  14.458
57217W        W25446  18.239  23.494   4.523
57218W        W25447  27.184  16.675  10.617
57219W        W25448  44.845  31.440   4.563
57220W        W25449  40.547  11.645   3.265
57221W        W25450  20.638  22.611  10.418
57222W        W25451   3.381  39.110  14.766
57223W        W25452  41.504  19.525  11.458
57224W        W25453   4.913  11.043  14.312
57225W        W25454  33.371   3.917  11.185
57226W        W25455  29.264  42.844   2.218
57227W        W25456  27.087  12.625  12.111
57228W        W25457  30.491  31.147  12.574
57229W        W25458  18.141  42.030  12.370
57230W        W25459   4.767   2.225   3.262
57231W        W25460  43.118  37.131   5.243
57232W        W25461  36.476  33.946   4.321
57233W        W25462  34.071   2.723   2.286
57234W        W25463   1.903  37.292  13.359
57235W        W25464  17.691  10.235   1.819
57236W        W25465  36.363  37.556  10.600
57237W        W25466  40.117  15.145   0.723
57238W        W25467  15.053   8.861   3.913
57239W        W25468  17.270  44.278   1.449
57240W        W25469  17.053  20.130   2.759
57241W        W25470  35.389  33.159  10.783
57242W        W25471  31.405  29.351  11.634
57243W        W25472  15.063  39.570   1.488
57244W        W25473  33.930  35.484  13.723
57245W        W25474  31.117  28.351  12.016
57246W        W25475   0.038  32.577   3.788
57247W        W25476  26.954  34.669   1.654
57248W        W25477  30.646  24.042   2.305
57249W        W25478  24.391   1.885  13.006
57250W        W25479  36.487  11.079   0.400
57251W        W25480  10.123  19.521  13.174
57252W        W25481  24.456  12.517   3.694
57253W        W25482  24.705  30.029   4.642
57254W        W25483  34.418  39.464   3.206
57255W        W25484  13.743  26.462   1.268
57256W        W25485  11.389  24.684  14.259
57257W        W25486  11.551  44.867  10.695
57258W        W25487   6.127  19.195   3.215
57259W        W25488  40.503  22.183   3.582
57260W        W25489  38.243  31.080  12.966
57261W        W25490  39.552  19.385   1.028
57262W        W25491  13.613  26.426   2.664
57263W        W25492  39.558  43.699  12.899
57264W        W25493   8.601  27.604   3.876
57265W        W25494  22.051  17.694   4.666
57266W        W25495   0.307  30.937  14.414
57267W        W25496  24.077   3.701   3.677
57268W        W25497  30.940   0.531   0.843
57269W        W25498  37.920  17.757  10.828
57270W        W25499  18.554  25.984   4.671
57271W        W25500  30.403  18.729   4.684
57272W        W25501  28.566  17.056  14.254
57273W        W25502  34.916  24.598   2.909
57274W        W25503  10.357  44.123   1.825
57275W        W25504  41.172  25.737   4.340
57276W        W25505  29.499  26.077   1.787
57277W        W25506  14.174  40.345   0.341
57278W        W25507  33.046  23.797   3.027
57279W        W25508  12.436   7.662  11.205
57280W        W25509  18.954   3.076   1.048
57281W        W25510  10.317  27.123   4.638
57282W        W25511   8.657  28.554   3.877
57283W        W25512  21.313  28.899   0.855
57284W        W25513  44.289   0.484  11.639
57285W        W25514  35.017   3.230  10.720
57286W        W25515  43.503  29.774  11.595
57287W        W25516   5.987   1.430   4.521
57288W        W25517  11.138  42.890  13.643
57289W        W25518  40.240   9.816  14.970
57290W        W25519  44.063  11.936   2.824
57291W        W25520  30.080   4.938   3.220
57292W        W25521  13.763  11.285  14.549
57293W        W25522   5.638  16.323  11.316
57294W        W25523  24.209  17.678   3.166
57295W        W25524   2.987  17.169  11.562
57296W        W25525  39.507  37.165   1.660
57297W        W25526   6.633  30.527   1.775
57298W        W25527  18.797   7.806  14.931
57299W        W25528  13.424  39.439   4.880
57300W        W25529   9.793  29.421   2.727
57301W        W25530  36.194   2.203  12.998
57302W        W25531  37.545   6.281  10.241
57303W        W25532  21.532   5.185  11.443
57304W        W25533  29.143   9.101  14.739
57305W        W25534  40.587  21.042  13.906
57306W        W25535   7.172  19.219  11.602
57307W        W25536  42.297   0.789  13.176
57308W        W25537  27.933   5.381  13.876
57309W        W25538  39.281   2.455   3.152
57310W        W25539  11.869   0.271   3.387
57311W        W25540  29.448  14.325  13.942
57312W        W25541  43.624  30.476   4.527
57313W        W25542  29.486  12.862   1.421
57314W        W25543  26.189  29.771   3.589
57315W        W25544  38.497  19.177   1.868
57316W        W25545  26.086   0.510   2.423
57317W        W25546   5.428  15.373  14.440
57318W        W25547  26.723   6.185   1.489
57319W        W25548  39.580   4.184   3.741
57320W        W25549  30.569   3.110  11.445
57321W        W25550  16.115  37.397  12.022
57322W        W25551  39.510  11.925   1.474
57323W        W25552  28.224  28.380   3.546
57324W        W25553  17.552  34.909  12.924
57325W        W25554  28.005   5.777   2.689
57326W        W25555  29.433  38.044   2.278
57327W        W25556  26.470  44.302  12.347
57328W        W25557   5.357  21.472  14.921
57329W        W25558  20.642  32.085   3.212
57330W        W25559  13.859  22.668   4.595
57331W        W25560  27.572  20.732   2.295
57332W        W25561  37.655   3.025   0.345
57333W        W25562  34.446   1.953  12.012
57334W        W25563  21.013   1.753   3.743
57335W        W25564  17.913  35.071  11.990
57336W        W25565  19.867  35.352  14.862
57337W        W25566  16.704  28.532  14.446
57338W        W25567  16.301  31.083   4.374
57339W        W25568   1.819  23.520  11.037
57340W        W25569  26.357  35.376   2.550
57341W        W25570  35.097  42.516  11.638
57342W        W25571  30.087   0.762   0.693
57343W        W25572  30.504   9.765  14.215
57344W        W25573   7.114  19.222  13.921
57345W        W25574  39.088  31.239  14.333
57346W        W25575  25.213  31.451   2.229
57347W        W25576  38.848  21.243   4.610
57348W        W25577  16.602  36.494  12.413
57349W        W25578  21.559  16.039   4.724
57350W        W25579   8.189  10.164  10.684
57351W        W25580   5.874  36.484   2.840
57352W        W25581  39.574   2.392   3.570
57353W        W25582   1.427  20.800  10.816
57354W        W25583  13.790  26.151   3.184
57355W        W25584  22.125   8.896   1.866
57356W        W25585  10.108   6.897  11.642
57357W        W25586   8.661  27.050   3.688
57358W        W25587  11.455  30.411   0.566
57359W        W25588  35.079  15.281  13.376
57360W        W25589  26.110   4.774  14.735
57361W        W25590  25.850   5.218  10.682
57362W        W25591  23.701  20.266   3.665
57363W        W25592   4.467  18.144   1.427
57364W        W25593  30.217   6.271   4.873
57365W        W25594  26.427   7.431  11.933
57366W        W25595  25.204  24.172   3.612
57367W        W25596  27.057  38.849  10.674
57368W        W25597  22.628   9.094   0.354
57369W        W25598  21.280  28.534  13.934
57370W        W25599  38.002  39.790   1.239
57371W        W25600  31.879  29.121   2.875
57372W        W25601   7.714  12.539   4.543
57373W        W25602  16.350  23.266  14.935
57374W        W25603   9.119  23.108   1.897
57375W        W25604   5.664  21.013   1.002
57376W        W25605  20.205  12.919  11.448
57377W        W25606  26.199   3.264   2.422
57378W        W25607  11.842   9.812  13.882
57379W        W25608  44.912   6.854   0.710
57380W        W25609  15.567  31.023   3.234
57381W        W25610  22.656  31.356  13.355
57382W        W25611  17.261   5.797   4.484
57383W        W25612  27.052   8.036   2.779
57384W        W25613  35.997   5.476  11.252
57385W        W25614  39.102  22.031   1.525
57386W        W25615  17.191  24.539   2.098
57387W        W25616  36.305  35.437  11.601
57388W        W25617  37.648  38.825  12.535
57389W        W25618  30.300  14.755  12.987
57390W        W25619   4.559   0.887   0.658
57391W        W25620  16.083   9.367  14.949
57392W        W25621  38.974  42.580   5.394
57393W        W25622  12.435  36.590  12.507
57394W        W25623  24.511  43.884  10.599
57395W        W25624  26.099  27.548  10.892
57396W        W25625  11.102  21.719   2.257
57397W        W25626  16.734   1.497  14.464
57398W        W25627  39.621  34.561  14.414
57399W        W25628  16.032  11.638  10.260
57400W        W25629  16.521  13.568   2.719
57401W        W25630  38.699  16.766  12.855
57402W        W25631  39.461   4.725   2.855
57403W        W25632  27.450  44.873  11.084
57404W        W25633  37.578  13.144   0.744
57405W        W25634  32.234  40.086  14.486
57406W        W25635  15.585  38.792   3.709
57407W        W25636  39.080   6.368   4.875
57408W        W25637  35.856  27.096  14.982
57409W        W25638   0.923  14.637  14.655
57410W        W25639   3.796  17.761  12.474
57411W        W25640  10.670  25.496  14.515
57412W        W25641  39.039  30.495   4.385
57413W        W25642  30.424  16.855   3.460
57414W        W25643  35.623  31.572   0.355
57415W        W25644  36.982   9.390  13.228
57416W        W25645   8.487  34.007  14.657
57417W        W25646  28.242  14.550   4.138
57418W        W25647  21.773  37.969   2.046
57419W        W25648  12.260  18.761   3.531
57420W        W25649  17.634  34.371  14.948
57421W        W25650  35.405  44.302   1.125
57422W        W25651  33.862  39.897   3.315
57423W        W25652  26.011  14.384  12.753
57424W        W25653  28.798  33.805  11.987
57425W        W25654  40.389  43.762   3.351
57426W        W25655  30.527  27.415   1.185
57427W        W25656  10.818  16.042   0.463
57428W        W25657   8.643  42.880  12.273
57429W        W25658  36.022  24.155   0.686
57430W        W25659  36.949   3.580  10.561
57431W        W25660  22.673  13.693  13.936
57432W        W25661  23.137  22.302   0.429
57433W        W25662  10.148  13.426  13.520
57434W        W25663  20.550  16.326   0.257
57435W        W25664  31.605  17.834  14.666
57436W        W25665  15.087  24.838  14.405
57437W        W25666  36.113  31.875  13.412
57438W        W25667  31.567   7.065   2.721
57439W        W25668  15.269  29.896   4.448
57440W        W25669  42.290  19.040  14.008
57441W        W25670  14.191  29.686   2.872
57442W        W25671  43.970  28.265  14.337
57443W        W25672  23.089  43.224   3.566
57444W        W25673  31.516  41.171   1.900
57445W        W25674  19.106  29.567   3.294
57446W        W25675   4.133  17.568  12.134
57447W        W25676   2.481  34.887   3.621
57448W        W25677  12.877  12.175   3.692
57449W        W25678  28.521  17.837   0.211
57450W        W25679  24.447  26.305  11.929
57451W        W25680  38.817  20.744  14.459
57452W        W25681  39.168  33.958   1.697
57453W        W25682   1.405  29.145   2.119
57454W        W25683  22.645  11.946   0.961
57455W        W25684   5.212   3.260   0.053
57456W        W25685  20.207  43.299  11.052
57457W        W25686  34.558   8.765  12.413
57458W        W25687  10.332  34.896   0.414
57459W        W25688  29.363  36.859  12.610
57460W        W25689  11.613  18.390   1.659
57461W        W25690  42.539  27.983   4.978
57462W        W25691  17.736  32.664   1.730
57463W        W25692  15.554  14.015   2.259
57464W        W25693   7.720  29.296   3.356
57465W        W25694  43.386   5.227   3.800
57466W        W25695   3.851  23.738   3.929
57467W        W25696  22.638  32.452   2.639
57468W        W25697  21.576  33.256  11.504
57469W        W25698  28.261  13.177   3.640
57470W        W25699  31.289  14.711   0.151
57471W        W25700   9.376  38.855  14.121
57472W        W25701   1.176  25.254   3.358
57473W        W25702   6.790   9.144  11.965
57474W        W25703  26.615  12.332  12.617
57475W        W25704  16.603   2.338  14.958
57476W        W25705  15.739  33.501  11.361
57477W        W25706  28.196   1.812   1.949
57478W        W25707  38.994  11.609   0.299
57479W        W25708   2.383  26.986   2.240
57480W        W25709  28.058   8.753  13.464
57481W        W25710  35.923  10.191   2.878
57482W        W25711  33.016  41.629  13.356
57483W        W25712  14.239  10.294  11.089
57484W        W25713  10.553  29.461   2.227
57485W        W25714   6.542  21.547  11.414
57486W        W25715   9.849  31.764  11.152
57487W        W25716  28.539  21.490  10.626
57488W        W25717  19.759  30.391   0.921
57489W        W25718  26.973  14.673   4.652
57490W        W25719  32.075  14.187   2.594
57491W        W25720  40.836  38.144   1.256
57492W        W25721  37.514  38.867   3.669
57493W        W25722   2.758  26.197  11.414
57494W        W25723  44.594  34.140   0.900
57495W        W25724  14.846  41.036  13.873
57496W        W25725   6.804  18.206   0.039
57497W        W25726  39.415  30.361   2.260
57498W        W25727   1.185   5.315  12.504
57499W        W25728  33.616   6.918   1.321
57500W        W25729  23.037  21.523  11.995
57501W        W25730  35.931  36.443   1.905
57502W        W25731  12.688  43.260   4.261
57503W        W25732  10.227   5.470  14.884
57504W        W25733  32.445  31.490   2.477
57505W        W25734  32.347  33.910   4.233
57506W        W25735  26.758   3.719  12.693
57507W        W25736   8.245  30.498  11.640
57508W        W25737   5.775  32.486  13.488
57509W        W25738  33.109  18.208  13.149
57510W        W25739  44.951  43.549  13.891
57511W        W25740  16.653  34.893  12.940
57512W        W25741  26.085   8.862   3.258
57513W        W25742   3.031   9.447   4.593
57514W        W25743  25.409  35.566   0.728
57515W        W25744  31.017  41.867  10.413
57516W        W25745  18.201  44.738  12.800
57517W        W25746  28.471  17.308   1.433
57518W        W25747  40.687  29.651   1.662
57519W        W25748  18.520   3.939   4.262
57520W        W25749   8.906   0.336  14.812
57521W        W25750  11.682   5.393  11.142
57522W        W25751  13.616  36.386  13.714
57523W        W25752  38.973   9.844   3.872
57524W        W25753  31.026  44.501   0.884
57525W        W25754  35.241  17.173   5.113
57526W        W25755  41.826  32.929  11.100
57527W        W25756   7.860  40.397   1.019
57528W        W25757  10.712  41.340  12.602
57529W        W25758  41.995   9.160  14.563
57530W        W25759  20.929  37.491   9.943
57531W        W25760  24.669  34.726   9.609
57532W        W25761  15.664  11.787  14.020
57533W        W25762  38.478  24.826   0.937
57534W        W25763  18.227  21.266   3.302
57535W        W25764  13.732  38.938   0.521
57536W        W25765  40.865  29.054   4.310
57537W        W25766  27.528  40.519   0.336
57538W        W25767  14.714  39.213   2.432
57539W        W25768   3.072  38.305   1.410
57540W        W25769  19.116  17.038  14.677
57541W        W25770   8.100  30.921   1.475
57542W        W25771  36.841   1.190  12.432
57543W        W25772  36.392   6.015  14.829
57544W        W25773   9.202  43.240  13.953
57545W        W25774  14.514  43.582   0.138
57546W        W25775   6.297  10.764  12.024
57547W        W25776  44.066  16.567  10.792
57548W        W25777  41.723  42.961   4.224
57549W        W25778   2.358  24.642   2.710
57550W        W25779   2.937  38.351  11.566
57551W        W25780  17.699  42.469   1.489
57552W        W25781  34.415  34.370  11.937
57553W        W25782  33.486  10.851   1.941
57554W        W25783   1.223   9.163   0.854
57555W        W25784  13.512   8.770   2.211
57556W        W25785  29.683  33.524   0.954
57557W        W25786  39.614  39.614  14.101
57558W        W25787  37.103  15.616  13.171
57559W        W25788   2.042  20.144   1.176
57560W        W25789  28.500  41.861   2.629
57561W        W25790  25.745   1.771  10.631
57562W        W25791  17.237  20.110  11.644
57563W        W25792  22.741  34.519   1.007
57564W        W25793  34.124  42.604   0.906
57565W        W25794   1.267  10.574   2.247
57566W        W25795   1.559  27.213   2.179
57567W        W25796  14.768  36.557  12.861
57568W        W25797   8.986   5.304  14.397
57569W        W25798   3.395  27.073  12.619
57570W        W25799   6.130  28.618  12.592
57571W        W25800  39.212  43.580  10.902
57572W        W25801  19.736  43.152   2.965
57573W        W25802  29.561   0.436   0.766
57574W        W25803  16.774  21.761  14.927
57575W        W25804  11.552  22.142  13.924
57576W        W25805  37.542  25.033   3.544
57577W        W25806   4.423  37.505   1.346
57578W        W25807  22.551  35.018   2.791
57579W        W25808  25.671  23.194  12.318
57580W        W25809  16.420  41.814  14.725
57581W        W25810  30.618  39.829   1.680
57582W        W25811  19.183   4.139  14.758
57583W        W25812  23.224  38.802   2.190
57584W        W25813   0.235  14.041   0.257
57585W        W25814  28.981  17.066   4.048
57586W        W25815   5.909   0.897   3.637
57587W        W25816  32.646  44.686  11.934
57588W        W25817  16.723  27.242  14.048
57589W        W25818  22.022  34.451  12.613
57590W        W25819   3.778   4.627  11.180
57591W        W25820  34.846  36.830   0.376
57592W        W25821   0.274  26.890   1.512
57593W        W25822  27.102  32.904   4.296
57594W        W25823   5.172  36.512  13.037
57595W        W25824  35.511   7.963   9.983
57596W        W25825  23.818   8.877   5.107
57597W        W25826  15.333  34.893   0.477
57598W        W25827  38.534  29.285  13.049
57599W        W25828   7.357  22.980  13.565
57600W        W25829  42.870  10.817  10.545
57601W        W25830  35.442  14.580   0.424
57602W        W25831   5.668  42.594  12.144
57603W        W25832  36.743  24.485   1.262
57604W        W25833  24.745  35.030   2.267
57605W        W25834  27.883   8.173  12.945
57606W        W25835  19.995  22.493  12.953
57607W        W25836  26.757  20.694   2.826
57608W        W25837  22.119  42.021  10.618
57609W        W25838   2.723  20.579  13.612
57610W        W25839  16.057  14.837   0.883
57611W        W25840  43.285  34.954  12.699
57612W        W25841   1.319  12.925   0.750
57613W        W25842  11.633  21.002   0.925
57614W        W25843  41.983  31.451  13.610
57615W        W25844  26.346  21.009  12.410
57616W        W25845   0.017  41.561   4.598
57617W        W25846  41.614  35.002   2.153
57618W        W25847  29.005  22.556   4.191
57619W        W25848  11.597   7.702   1.296
57620W        W25849  14.158  44.414  13.840
57621W        W25850  28.111  15.250  14.217
57622W        W25851   3.356  21.857   2.341
57623W        W25852  41.355  39.568   1.420
57624W        W25853  16.623  27.182  10.258
57625W        W25854  28.668  17.750  11.576
57626W        W25855   8.608  14.835   3.170
57627W        W25856  34.559  34.908   1.238
57628W        W25857  17.183  30.886   4.163
57629W        W25858  16.592  15.039  14.848
57630W        W25859  12.197  42.300   3.098
57631W        W25860  37.330  34.542  10.259
57632W        W25861  32.152  44.921   2.235
57633W        W25862  35.660  42.251   0.246
57634W        W25863  42.062   7.203  11.603
57635W        W25864  19.520  16.444  12.478
57636W        W25865   8.833  34.934   0.547
57637W        W25866  17.137  25.902   2.544
57638W        W25867  16.597  38.409   4.047
57639W        W25868  25.734  44.838   1.279
57640W        W25869  15.760  41.929   4.397
57641W        W25870   3.239  42.447  12.007
57642W        W25871  19.604  26.504  12.614
57643W        W25872   5.855  32.218  12.845
57644W        W25873  41.201  38.628  11.334
57645W        W25874  19.644  37.271   2.887
57646W        W25875   4.479  44.985  13.717
57647W        W25876  30.004  27.471  14.838
57648W        W25877  28.059   0.316  11.592
57649W        W25878  17.885   4.818   2.749
57650W        W25879  11.881   5.733  12.003
57651W        W25880  32.402  31.019   0.294
57652W        W25881  21.192  14.050  13.372
57653W        W25882  26.967  43.988   4.971
57654W        W25883  31.399  35.004  14.270
57655W        W25884   8.662  27.285   0.110
57656W        W25885  34.006  40.346  12.115
57657W        W25886  20.224   0.315  12.040
57658W        W25887   1.394  18.354  12.151
57659W        W25888  16.646   6.664  10.863
57660W        W25889  38.925   6.460  12.355
57661W        W25890   3.219  28.545  11.550
57662W        W25891  23.366  20.529  12.572
57663W        W25892  30.888   4.818  11.430
57664W        W25893  32.086  34.091  12.831
57665W        W25894  24.493  23.060   4.920
57666W        W25895  24.002   9.304  12.460
57667W        W25896   8.177   8.735   3.287
57668W        W25897   9.122  26.161   1.858
57669W        W25898  26.011  22.913   4.650
57670W        W25899   1.546   3.911  13.265
57671W        W25900  17.698  27.475   4.337
57672W        W25901  14.197  19.512  13.939
57673W        W25902  24.044   2.334  12.339
57674W        W25903  31.139  38.105  10.636
57675W        W25904  19.832  27.020   1.615
57676W        W25905   2.582  13.402  13.297
57677W        W25906  14.822  36.899   2.782
57678W        W25907  34.343  38.838   0.344
57679W        W25908  31.155  34.979   3.638
57680W        W25909  21.191  36.134  12.265
57681W        W25910  37.964  17.425  14.195
57682W        W25911  19.341   3.271  14.889
57683W        W25912  44.380  17.367  11.420
57684W        W25913  12.662  29.939   3.777
57685W        W25914  20.303  21.157   0.366
57686W        W25915  39.536  20.362  11.959
57687W        W25916  13.239   6.877  14.296
57688W        W25917  32.592  43.358  12.017
57689W        W25918  13.033  32.414   4.230
57690W        W25919   8.176  28.273  13.493
57691W        W25920  37.755  21.034   3.327
57692W        W25921  38.680   5.103   1.722
57693W        W25922   6.767  20.967   4.250
57694W        W25923  36.355  38.377   0.301
57695W        W25924  38.450  43.805  13.851
57696W        W25925  24.197  36.022   0.418
57697W        W25926  24.492  23.455   2.781
57698W        W25927  30.919  24.299   2.683
57699W        W25928  37.964   4.754  14.123
57700W        W25929  34.556  37.156   2.682
57701W        W25930   7.744  38.600   1.467
57702W        W25931  12.091  16.406   2.864
57703W        W25932  22.261  17.743   3.289
57704W        W25933  17.526  10.378   1.325
57705W        W25934  19.180  14.939  12.540
57706W        W25935  10.813   7.822  14.988
57707W        W25936  10.156  42.471   4.659
57708W        W25937  27.725  35.447  10.605
57709W        W25938  37.039  23.704  11.211
57710W        W25939   8.931  29.297  14.083
57711W        W25940  35.830  25.022   2.278
57712W        W25941  40.581  28.615  11.699
57713W        W25942   8.403  14.359  11.177
57714W        W25943   3.912   7.101   3.560
57715W        W25944  23.468  42.532   1.316
57716W        W25945  28.945  27.113   2.438
57717W        W25946  21.028   5.352  12.916
57718W        W25947  33.635  23.565  11.603
57719W        W25948  31.360  44.045   0.059
57720W        W25949  44.376   3.228  11.165
57721W        W25950  35.296  28.266   1.850
57722W        W25951  16.870  30.352  12.703
57723W        W25952  14.835  42.862   4.547
57724W        W25953  39.609  16.221   1.379
57725W        W25954  42.465  40.731  12.153
57726W        W25955  25.916  15.075   3.551
57727W        W25956  25.929  21.198  12.101
57728W        W25957  38.377  31.101  11.545
57729W        W25958   3.747   7.666  14.513
57730W        W25959   2.099  36.309  14.493
57731W        W25960  22.629  26.558   1.860
57732W        W25961  18.232  35.357  10.446
57733W        W25962   7.962  21.714   1.355
57734W        W25963  26.055  20.738   4.140
57735W        W25964  37.032   4.080  13.414
57736W        W25965  39.512   5.789   1.961
57737W        W25966  34.568  27.431  12.427
57738W        W25967   0.324  33.011  11.289
57739W        W25968  20.154  43.525   0.706
57740W        W25969  37.427  34.769  13.759
57741W        W25970  11.234  14.648   4.101
57742W        W25971  30.665   4.907   4.829
57743W        W25972  30.085  37.768  13.024
57744W        W25973   7.928  11.496   0.931
57745W        W25974  36.033   0.620   2.090
57746W        W25975  19.365  13.960  11.615
57747W        W25976  38.919  24.462  14.689
57748W        W25977  16.251  23.840  11.981
57749W        W25978  11.688   1.920  12.588
57750W        W25979  28.205  14.047  10.037
57751W        W25980  37.369  40.926   0.895
57752W        W25981   1.711  32.988   4.408
57753W        W25982  19.608  26.711   3.758
57754W        W25983   7.140  43.478  10.866
57755W        W25984  36.257  20.851  14.872
57756W        W25985  24.055  29.458   0.359
57757W        W25986  32.320  28.367   4.131
57758W        W25987  25.588  30.931   3.071
57759W        W25988  36.857  29.012   1.503
57760W        W25989  37.328  20.983   2.368
57761W        W25990   4.612  13.215   4.102
57762W        W25991  23.171   1.665  11.983
57763W        W25992  23.125  28.033  10.453
57764W        W25993  34.950  10.896   2.285
57765W        W25994   3.325  44.301  14.653
57766W        W25995  27.413   5.228  14.069
57767W        W25996  20.727  18.754  13.837
57768W        W25997  41.011  19.748   2.350
57769W        W25998   7.932  31.439   4.151
57770W        W25999  40.543   0.392   0.515
57771W        W26000  44.574  14.758  11.214
57772W        W26001  40.332  36.130   2.655
57773W        W26002  16.459  19.819  10.333
57774W        W26003  35.281   7.560   5.442
57775W        W26004  11.610  29.916  10.755
57776W        W26005  37.903  15.571  11.168
57777W        W26006  41.331  16.267  11.095
57778W        W26007  23.135  18.022   4.619
57779W        W26008  38.188  27.979  13.852
57780W        W26009   6.525  37.940  10.685
57781W        W26010   7.319  42.355   0.824
57782W        W26011  21.729  39.494  13.921
57783W        W26012  35.745  20.284  12.439
57784W        W26013   6.378  15.252   1.179
57785W        W26014   9.754   6.391  12.370
57786W        W26015  13.826  41.957  10.636
57787W        W26016  29.658  27.869  10.329
57788W        W26017   2.833   4.442   2.367
57789W        W26018   1.827  41.881   4.395
57790W        W26019  39.575  13.643  12.670
57791W        W26020  31.599  14.691  12.482
57792W        W26021  10.614  35.200   0.070
57793W        W26022  40.935   3.561  13.443
57794W        W26023  10.701  37.943   0.407
57795W        W26024  44.980   5.054   4.684
57796W        W26025  22.731   6.530   3.315
57797W        W26026  26.201  27.577   4.234
57798W        W26027  31.777  36.005   4.520
57799W        W26028  24.443  34.349   4.388
57800W        W26029  15.891  25.728  12.639
57801W        W26030   0.414  12.650   1.931
57802W        W26031  32.769  22.060  13.640
57803W        W26032  43.643  30.223  13.363
57804W        W26033  27.859  32.015   0.876
57805W        W26034  16.782   7.143  11.017
57806W        W26035  41.721   2.832   1.920
57807W        W26036  11.500  32.155   3.676
57808W        W26037   4.758  33.844   1.296
57809W        W26038  32.971  42.191  12.465
57810W        W26039  12.346  27.525  11.598
57811W        W26040  11.780  43.613   4.584
57812W        W26041  10.384  33.071   0.396
57813W        W26042   7.685  17.479   1.282
57814W        W26043  29.435  35.830  14.811
57815W        W26044  29.986   9.846   3.282
57816W        W26045  14.072   8.326   2.812
57817W        W26046  29.133  35.503   0.908
57818W        W26047  38.549  28.175  14.267
57819W        W26048  17.196  43.220   1.119
57820W        W26049  25.828  14.241   1.448
57821W        W26050  19.263  30.368   1.388
57822W        W26051  42.494  27.045   3.455
57823W        W26052  17.699  27.569  11.275
57824W        W26053   5.504  20.473  12.375
57825W        W26054   1.633  29.794   5.036
57826W        W26055  33.737  33.005   1.722
57827W        W26056  11.398  17.337   4.639
57828W        W26057  39.999   1.839  10.731
57829W        W26058  27.505   7.985   4.802
57830W        W26059   9.124  42.093   3.178
57831W        W26060  36.690  39.565  13.168
57832W        W26061  41.736  28.606   2.226
57833W        W26062  26.274  22.602  13.071
57834W        W26063   9.523  23.479   0.410
57835W        W26064  44.328  42.457   1.797
57836W        W26065  22.735   4.405   4.141
57837W        W26066  24.467   3.247  13.806
57838W        W26067  18.089  39.658  13.918
57839W        W26068  20.692  27.863  11.436
57840W        W26069  40.775   7.644  11.606
57841W        W26070  29.093  15.617  14.913
57842W        W26071  34.363  28.627  13.074
57843W        W26072  41.012  35.409  13.984
57844W        W26073  41.091  10.696   0.289
57845W        W26074  10.558   7.887  13.565
57846W        W26075   6.042  43.851   0.253
57847W        W26076  43.849   6.655   3.110
57848W        W26077  19.212   3.128  12.396
57849W        W26078  33.533   1.479  11.643
57850W        W26079   4.745   5.811  12.308
57851W        W26080  38.827  41.921  14.730
57852W        W26081  13.298  40.214  14.014
57853W        W26082  23.483  35.251   4.858
57854W        W26083  30.502  12.438  11.987
57855W        W26084  38.317  18.454  13.849
57856W        W26085   4.315  37.306   0.876
57857W        W26086  10.548  23.303  11.640
57858W        W26087  32.420  19.879  14.421
57859W        W26088  36.294  22.185  14.341
57860W        W26089  32.522   7.191   1.783
57861W        W26090  18.728  21.392  12.946
57862W        W26091  24.558  12.915  12.400
57863W        W26092  22.504  19.767  13.543
57864W        W26093  28.540  32.622  12.592
57865W        W26094  41.931  33.234  10.653
57866W        W26095  32.682  34.561  12.117
57867W        W26096  44.908  38.438  14.829
57868W        W26097  15.154  40.262   2.724
57869W        W26098  27.508  22.549   0.388
57870W        W26099  13.954  16.004  11.997
57871W        W26100  41.836  37.991   1.544
57872W        W26101  28.481  18.252   1.449
57873W        W26102   7.480  24.860   0.764
57874W        W26103  17.829  16.297  14.825
57875W        W26104  43.480  17.894   4.620
57876W        W26105  30.127  37.279   4.600
57877W        W26106  25.072  18.164   2.958
57878W        W26107   4.508  24.061  14.938
57879W        W26108  41.502  38.945  12.060
57880W        W26109  42.518  31.581  14.935
57881W        W26110  27.208   7.385  10.785
57882W        W26111  26.431  14.753   2.667
57883W        W26112   3.336   0.773   1.246
57884W        W26113   8.904  15.841   4.462
57885W        W26114   1.889   3.584  14.793
57886W        W26115   1.982  33.128   1.205
57887W        W26116  42.133  34.945  13.129
57888W        W26117  42.925  32.435  14.793
57889W        W26118  26.153  21.301  13.670
57890W        W26119   1.815   8.628  10.698
57891W        W26120  25.935  25.035   3.175
57892W        W26121  16.442  26.981  12.560
57893W        W26122  40.355  27.203  11.537
57894W        W26123   3.490   8.125  14.413
57895W        W26124  31.332  42.669   0.963
57896W        W26125  36.050  20.750   1.994
57897W        W26126   3.497   3.989  12.168
57898W        W26127  31.819  28.618  11.588
57899W        W26128  18.344  25.791  14.357
57900W        W26129  15.277  25.623   3.066
57901W        W26130  15.833   7.792  12.761
57902W        W26131   0.291  21.812   0.649
57903W        W26132  11.067   1.842  12.942
57904W        W26133  20.574  23.493   3.765
57905W        W26134  38.488  23.937   4.613
57906W        W26135  16.518  21.598   4.201
57907W        W26136  20.638  19.746   1.617
57908W        W26137  24.944  14.958  11.487
57909W        W26138  39.508  41.702   1.419
57910W        W26139  33.580  29.045  12.356
57911W        W26140  10.101  27.293  13.912
57912W        W26141   5.459  34.598  14.786
57913W        W26142   8.953  17.339   3.428
57914W        W26143  15.610  43.923   4.297
57915W        W26144   6.465   2.826   2.726
57916W        W26145  44.443  15.821   0.956
57917W        W26146  22.446   2.458  11.352
57918W        W26147  37.530  21.982   3.407
57919W        W26148  42.438  22.258   0.314
57920W        W26149  25.627  41.711  11.483
57921W        W26150  42.575  43.296  14.382
57922W        W26151  18.042  37.456   1.210
57923W        W26152  22.724  43.284  11.531
57924W        W26153  22.854  25.439   4.349
57925W        W26154  34.537  17.536  11.079
57926W        W26155   3.811   2.435  10.690
57927W        W26156  42.312  17.646   3.996
57928W        W26157  32.972  33.722  11.125
57929W        W26158  29.533  19.317  13.468
57930W        W26159  25.511  27.623  12.640
57931W        W26160  35.621  34.464   4.975
57932W        W26161  30.957   4.418  14.315
57933W        W26162  31.587  19.997   1.295
57934W        W26163  32.168  34.683   1.516
57935W        W26164   6.438   0.262   2.354
57936W        W26165  40.322  28.114   0.728
57937W        W26166  14.549  34.515   2.364
57938W        W26167  20.350  38.850  11.158
57939W        W26168  44.774   1.382   3.702
57940W        W26169  30.119   6.975  14.330
57941W        W26170  39.221  31.587   1.158
57942W        W26171  14.738   2.245   3.705
57943W        W26172  14.010  25.239   5.083
57944W        W26173  23.972  27.659   0.001
57945W        W26174   3.501  38.794  14.366
57946W        W26175  18.440  18.455  14.256
57947W        W26176  11.947  13.573  10.606
57948W        W26177  34.921  14.283  13.408
57949W        W26178   0.748   8.147   3.230
57950W        W26179  26.366  26.178   0.428
57951W        W26180  11.417  21.656   3.613
57952W        W26181   1.954  28.422   0.656
57953W        W26182  15.714  19.947  13.361
57954W        W26183  39.797  28.393   1.181
57955W        W26184  18.228  33.924   1.932
57956W        W26185  23.734  44.585  11.674
57957W        W26186   4.187   2.506   0.891
57958W        W26187  44.933  44.773  11.804
57959W        W26188   7.506   9.739  12.089
57960W        W26189  17.484  12.573   2.241
57961W        W26190  14.326   3.190   2.446
57962W        W26191   6.157  14.305   3.143
57963W        W26192  21.792  26.716  13.962
57964W        W26193   7.817   9.944  11.515
57965W        W26194  24.363   4.261  12.868
57966W        W26195  13.544  40.929   4.537
57967W        W26196  19.067   7.360  14.903
57968W        W26197  19.028  26.336   2.734
57969W        W26198  44.260  23.685  11.413
57970W        W26199  22.760  21.300  14.784
57971W        W26200  43.926  15.821   4.982
57972W        W26201   2.540  23.269  13.916
57973W        W26202  39.818  19.524   2.238
57974W        W26203  42.258  28.437  11.986
57975W        W26204  20.399  21.228  14.780
57976W        W26205  34.070  10.727   0.590
57977W        W26206  26.155  15.693   4.607
57978W        W26207  28.858  43.047   4.166
57979W        W26208  22.994  29.321   1.586
57980W        W26209  19.481   5.353   4.151
57981W        W26210  20.556  12.282  14.237
57982W        W26211  23.247  14.375   2.733
57983W        W26212  32.113  25.151  14.350
57984W        W26213  19.156  36.597   9.837
57985W        W26214  34.520   9.760   4.545
57986W        W26215  21.302  43.360   2.069
57987W        W26216   9.790  38.514  10.678
57988W        W26217  31.392  11.573  10.792
57989W        W26218  23.659  20.818   3.739
57990W        W26219   0.882  27.314  13.434
57991W        W26220   1.517   9.280   1.262
57992W        W26221  22.264  42.904  11.985
57993W        W26222  18.708  42.750   3.498
57994W        W26223  26.940   0.423  13.501
57995W        W26224  10.904  15.737   1.290
57996W        W26225  31.001  33.259  12.611
57997W        W26226  43.893  30.673  10.503
57998W        W26227  21.951   8.638   0.934
57999W        W26228  15.639   1.860   4.513
58000W        W26229  35.626  11.383  13.869
58001W        W26230  43.915  32.583  10.901
58002W        W26231   1.824  39.380  14.524
58003W        W26232  30.141   0.018  11.220
58004W        W26233  35.591  30.020  13.353
58005W        W26234  32.368  41.304  12.032
58006W        W26235  44.445  24.432  12.125
58007W        W26236  14.358  24.026   1.331
58008W        W26237  33.596  34.550  12.852
58009W        W26238  17.774   9.924   0.041
58010W        W26239  11.135  24.632  12.830
58011W        W26240   5.963  32.538  14.434
58012W        W26241  40.859  10.660   4.313
58013W        W26242  41.891  20.781  12.580
58014W        W26243  23.568  41.121   4.622
58015W        W26244  20.035   1.321   3.864
58016W        W26245  10.272  17.785   0.222
58017W        W26246   6.316  26.433   3.237
58018W        W26247  31.131  12.135  14.393
58019W        W26248  42.611  16.002  14.807
58020W        W26249  35.533  11.238  10.739
58021W        W26250  11.317  34.865  13.408
58022W        W26251   2.334  41.393   1.805
58023W        W26252  11.687  43.938  14.066
58024W        W26253   1.839   2.386  14.433
58025W        W26254   3.254  20.311  14.845
58026W        W26255  29.108  28.231   1.719
58027W        W26256  36.037  39.690  13.841
58028W        W26257  16.244  29.047   0.732
58029W        W26258  38.888  32.361   1.658
58030W        W26259  33.562  39.504   4.364
58031W        W26260   3.363  27.191   0.104
58032W        W26261   6.159  32.277  11.094
58033W        W26262  20.480  14.035  12.460
58034W        W26263  28.882  28.164  12.373
58035W        W26264   6.753  39.796   0.944
58036W        W26265   1.633   8.864  12.470
58037W        W26266   7.249  24.198  10.805
58038W        W26267  27.307  34.589  13.482
58039W        W26268   3.371  39.388   3.555
58040W        W26269   4.697   5.941  11.820
58041W        W26270  20.024   5.395   4.812
58042W        W26271  34.994  26.629   2.678
58043W        W26272   3.274  19.921  13.909
58044W        W26273  20.500  19.649   4.284
58045W        W26274   8.398  18.587  14.908
58046W        W26275  26.602  33.624   3.838
58047W        W26276   0.930   9.265  13.515
58048W        W26277   1.710  38.578  14.955
58049W        W26278  40.444  17.457   2.974
58050W        W26279  41.322  18.281   2.134
58051W        W26280  39.346   3.253  10.691
58052W        W26281  41.032  34.926   2.023
58053W        W26282   5.716   8.842  14.541
58054W        W26283   3.513  20.533   0.292
58055W        W26284  33.628  34.110   4.146
58056W        W26285  18.501  21.670   0.114
58057W        W26286  19.999   8.864   2.716
58058W        W26287  14.657   9.108  11.604
58059W        W26288  25.779   4.794  11.521
58060W        W26289  20.838   5.154   3.679
58061W        W26290  30.193  39.520   1.756
58062W        W26291  22.485  31.526   2.809
58063W        W26292  33.609   3.882  12.577
58064W        W26293  24.097  28.572  14.376
58065W        W26294  42.919  42.553  11.012
58066W        W26295  24.726  38.328   2.406
58067W        W26296  17.375  44.373  14.468
58068W        W26297  26.917  26.833   0.430
58069W        W26298   7.784  25.179   0.411
58070W        W26299   4.901  19.798  14.439
58071W        W26300  41.452  14.119  13.821
58072W        W26301  10.566  15.724   2.940
58073W        W26302  12.116  38.300  11.625
58074W        W26303  41.364  44.986   4.620
58075W        W26304   2.643   1.289   0.756
58076W        W26305  37.931  16.761  14.776
58077W        W26306  17.652  41.872   4.582
58078W        W26307  31.740  27.936  14.437
58079W        W26308  42.492  24.305   1.394
58080W        W26309  42.005  24.787   4.963
58081W        W26310  20.140   6.733  14.264
58082W        W26311  38.937  18.350  11.187
58083W        W26312  30.953  10.480  12.967
58084W        W26313  31.570  18.706  13.632
58085W        W26314  32.929   0.929  13.794
58086W        W26315   6.714  13.080   3.107
58087W        W26316  36.901   5.286  13.364
58088W        W26317  30.003  20.304   2.654
58089W        W26318  12.343  31.311   4.713
58090W        W26319  27.987  24.787  13.495
58091W        W26320  41.599  27.312   3.823
58092W        W26321  22.667  12.356   0.671
58093W        W26322  33.054  33.814   1.801
58094W        W26323  40.222  15.114   3.346
58095W        W26324  43.031  29.509  14.585
58096W        W26325  23.909  30.107  14.421
58097W        W26326   4.274  38.592   0.460
58098W        W26327  33.370  11.477   3.687
58099W        W26328  16.273  21.952  10.549
58100W        W26329  43.306  38.799  10.986
58101W        W26330  42.927  41.809   4.517
58102W        W26331  17.808  20.632  10.248
58103W        W26332  14.760  12.844  13.443
58104W        W26333   8.373  14.090  12.649
58105W        W26334  23.801  16.345  11.619
58106W        W26335  29.952   6.002  10.962
58107W        W26336  19.703  29.164  14.267
58108W        W26337  32.534  17.374   4.532
58109W        W26338   9.598  12.240   3.166
58110W        W26339  12.840  20.187  13.475
58111W        W26340  29.825  16.816   5.580
58112W        W26341  22.069  12.299   5.359
58113W        W26342  28.886  42.474  13.915
58114W        W26343  36.549  14.832   4.100
58115W        W26344   6.289   7.669  13.535
58116W        W26345  22.568  15.609   2.565
58117W        W26346  26.753   6.414  10.755
58118W        W26347  19.505  42.362   3.098
58119W        W26348  17.084  26.644   2.221
58120W        W26349  17.217  41.428  14.392
58121W        W26350  28.234  16.177  11.982
58122W        W26351   3.768  39.054   3.680
58123W        W26352  34.755  12.824  14.951
58124W        W26353  26.740   2.173   2.851
58125W        W26354   2.365  34.564   0.382
58126W        W26355  18.092  21.941   2.235
58127W        W26356  25.523  30.858   4.415
58128W        W26357   7.295  26.515   4.466
58129W        W26358  38.378  28.665   9.700
58130W        W26359   3.994  39.484  12.068
58131W        W26360   0.967  20.233   2.134
58132W        W26361  14.667  41.434   4.622
58133W        W26362  37.842  21.239  11.004
58134W        W26363  16.362  10.868  11.539
58135W        W26364  34.074  36.048   4.826
58136W        W26365  32.072  25.953  10.342
58137W        W26366  32.679  31.205  11.693
58138W        W26367  42.306  34.496   1.919
58139W        W26368  37.649  38.389   0.212
58140W        W26369  29.872  24.907  13.935
58141W        W26370  41.936  29.566  12.531
58142W        W26371  24.739  18.005  10.970
58143W        W26372  30.671   8.337   2.228
58144W        W26373   5.166  29.423  13.319
58145W        W26374  25.117   4.467   3.996
58146W        W26375  15.253  20.809   2.111
58147W        W26376  14.248  20.339  11.771
58148W        W26377   2.880  25.469   0.727
58149W        W26378   1.922  30.412  13.157
58150W        W26379  11.893   7.650   4.337
58151W        W26380  43.168   8.099   2.322
58152W        W26381  29.025  12.196  13.342
58153W        W26382  10.140  22.066   2.246
58154W        W26383   5.422   8.189   2.615
58155W        W26384   5.912  28.448   0.366
58156W        W26385  39.156  33.289   0.258
58157W        W26386   5.322  30.748  12.972
58158W        W26387  13.676  34.510   1.400
58159W        W26388   9.043  20.532  11.912
58160W        W26389   0.534  30.603   0.760
58161W        W26390  18.424  26.028  11.081
58162W        W26391  25.895  22.115  11.184
58163W        W26392  11.209  26.173  12.190
58164W        W26393  40.868  22.682  10.264
58165W        W26394   2.770  29.502   4.188
58166W        W26395  20.761  15.751  11.986
58167W        W26396  33.109  26.084  13.898
58168W        W26397   2.904   5.673   3.634
58169W        W26398   2.287  13.714   3.718
58170W        W26399  12.799  30.025  11.344
58171W        W26400   9.410  22.499  13.557
58172W        W26401   2.937  39.120  13.479
58173W        W26402  20.661  31.875  14.204
58174W        W26403   8.429  19.123   4.628
58175W        W26404  19.373  30.509   3.650
58176W        W26405  16.163  44.465  10.564
58177W        W26406  14.295  22.218   4.081
58178W        W26407  30.780   1.127   4.519
58179W        W26408  14.735  22.931   0.360
58180W        W26409  11.730   6.834   2.763
58181W        W26410   2.428  29.128   0.402
58182W        W26411  36.557  34.072  10.693
58183W        W26412  23.662  43.198  11.460
58184W        W26413  28.917  38.369  12.126
58185W        W26414  43.793  17.286  12.558
58186W        W26415  26.502   4.976   5.032
58187W        W26416   0.860  38.164   4.903
58188W        W26417   9.908  41.506  14.057
58189W        W26418   0.248  18.213   3.028
58190W        W26419  11.106  11.072   0.317
58191W        W26420  24.367  25.054   1.248
58192W        W26421  43.757  19.089  13.054
58193W        W26422  13.148  15.132  14.436
58194W        W26423   9.562  37.627   1.840
58195W        W26424  38.307  38.970  13.914
58196W        W26425   0.430  23.191  11.223
58197W        W26426  16.368  39.526   2.840
58198W        W26427  36.358  31.975  13.915
58199W        W26428  14.314  11.926   9.966
58200W        W26429  28.632  23.997   3.049
58201W        W26430  13.307   9.569   2.914
58202W        W26431  35.857  31.095   2.190
58203W        W26432  12.607   3.272  11.950
58204W        W26433  17.558  41.433  14.993
58205W        W26434  28.042   6.177   3.004
58206W        W26435  24.018  28.005  13.423
58207W        W26436   0.908  34.454   0.354
58208W        W26437   9.797   4.172   3.773
58209W        W26438   2.390  19.285  10.355
58210W        W26439   2.050  15.666  11.381
58211W        W26440  42.968  10.417   4.744
58212W        W26441  36.790  24.440  11.562
58213W        W26442   8.986  44.207  11.652
58214W        W26443   0.243  27.687   4.529
58215W        W26444  24.894  35.172  13.519
58216W        W26445  30.705  26.647  11.267
58217W        W26446  41.439   0.661  12.979
58218W        W26447   2.478  34.039   4.761
58219W        W26448   2.193  12.198  11.453
58220W        W26449  32.116  44.843  12.058
58221W        W26450  16.705  20.668  11.128
58222W        W26451  27.486  12.304  11.910
58223W        W26452  23.909  42.887  13.848
58224W        W26453  43.396  42.741  10.842
58225W        W26454   0.100  25.059   0.710
58226W        W26455  39.095  30.901   2.680
58227W        W26456  35.168   6.893  11.046
58228W        W26457  34.494  41.387  12.846
58229W        W26458   5.985   7.038  12.850
58230W        W26459   9.912  29.110   0.491
58231W        W26460  34.154  31.407   2.383
58232W        W26461  42.460  27.581   4.242
58233W        W26462  29.474   8.623  11.215
58234W        W26463   6.220  30.843   0.316
58235W        W26464  43.452  13.367   3.451
58236W        W26465  28.253  24.357  13.584
58237W        W26466   5.733  21.538   2.962
58238W        W26467  11.123  21.171  13.821
58239W        W26468   2.748  12.703  11.065
58240W        W26469  37.694   4.598  10.272
58241W        W26470   9.788  18.943  14.807
58242W        W26471   5.168   4.921   4.400
58243W        W26472   3.219  42.568   0.299
58244W        W26473  37.900  36.120   1.378
58245W        W26474  40.813  13.689   2.248
58246W        W26475  21.783   4.766   2.161
58247W        W26476  17.302  12.880  13.486
58248W        W26477  28.942  35.598   0.028
58249W        W26478  38.451  37.768   0.352
58250W        W26479  18.174   2.213  10.791
58251W        W26480  38.439  35.997  10.733
58252W        W26481  34.507   2.286  13.790
58253W        W26482  28.172   2.256   3.928
58254W        W26483   3.170  31.504  11.326
58255W        W26484  16.558  12.590  12.935
58256W        W26485  34.586  33.625   4.064
58257W        W26486  15.515  29.183  13.272
58258W        W26487  34.687  29.086   4.225
58259W        W26488  14.335  42.927  10.873
58260W        W26489   1.800   8.835  14.255
58261W        W26490   7.893  14.264  13.564
58262W        W26491   1.839  23.466   0.473
58263W        W26492  44.963  23.519   3.524
58264W        W26493  40.337   7.152  12.312
58265W        W26494  22.670  43.750  14.598
58266W        W26495  39.754  23.197  11.495
58267W        W26496   7.169  26.165  12.714
58268W        W26497  12.708  28.369  11.232
58269W        W26498  34.953  38.957   3.590
58270W        W26499  12.117  42.368  14.835
58271W        W26500  15.635  39.798  14.476
58272W        W26501  21.206   9.456  13.956
58273W        W26502  23.623  35.426  13.447
58274W        W26503  37.718  29.184   4.589
58275W        W26504  22.557   2.753  12.885
58276W        W26505  20.635  26.084   4.247
58277W        W26506  11.772  42.268  13.868
58278W        W26507  10.643  29.139  10.857
58279W        W26508  32.397   2.407   3.052
58280W        W26509   8.136   2.081  13.442
58281W        W26510  22.996  11.134  13.971
58282W        W26511  32.587  19.449   3.663
58283W        W26512  34.780   4.230   4.581
58284W        W26513  32.611  38.322  12.520
58285W        W26514   7.936   1.778  13.842
58286W        W26515  41.741  39.019   2.917
58287W        W26516  37.394  27.209  12.599
58288W        W26517   7.781  38.836  12.356
58289W        W26518  22.000  39.731   1.537
58290W        W26519  20.231  36.205   4.775
58291W        W26520  29.587  38.013  14.023
58292W        W26521   4.275  38.465  14.505
58293W        W26522   0.751   2.982  13.870
58294W        W26523  11.342  12.063   0.477
58295W        W26524  26.176   4.354   1.383
58296W        W26525  19.051  36.408  11.432
58297W        W26526   2.720   5.994   0.342
58298W        W26527  26.125  33.953   1.655
58299W        W26528  16.796  38.793   0.120
58300W        W26529  14.826  13.848  13.426
58301W        W26530  36.093  29.887  13.318
58302W        W26531  14.781  25.685   3.560
58303W        W26532   3.735  41.343   4.245
58304W        W26533  37.395  32.398   4.256
58305W        W26534  43.603  23.265   2.758
58306W        W26535   2.453  25.275   1.015
58307W        W26536   6.902   4.853   2.899
58308W        W26537  16.125  36.643  12.510
58309W        W26538  25.606  15.074   1.198
58310W        W26539  13.945   5.753   0.796
58311W        W26540  19.113   1.787   4.059
58312W        W26541  22.096  44.643   1.441
58313W        W26542  19.122  34.979   2.072
58314W        W26543  18.620   9.110   0.936
58315W        W26544   1.973  32.981   0.696
58316W        W26545  10.541  34.035  13.159
58317W        W26546  18.405  43.392   4.070
58318W        W26547  12.644   3.431   3.242
58319W        W26548  30.224  37.105   2.767
58320W        W26549  37.331  17.341   0.266
58321W        W26550   8.432  15.050   3.593
58322W        W26551  32.931  27.644   1.354
58323W        W26552  40.428  14.356   1.287
58324W        W26553  17.603  36.085   4.049
58325W        W26554  11.333  30.494   2.815
58326W        W26555  27.970  14.586   2.713
58327W        W26556   1.037  35.789   0.390
58328W        W26557   4.146   1.459   4.171
58329W        W26558  38.477   7.681   1.312
58330W        W26559  21.288  29.450  11.208
58331W        W26560   4.431  32.120   0.893
58332W        W26561  18.079   7.917  12.467
58333W        W26562  31.001  36.468   0.928
58334W        W26563  34.615  35.989   0.291
58335W        W26564  16.437  28.067   1.076
58336W        W26565  10.417   4.759  10.726
58337W        W26566  24.503   1.916  14.020
58338W        W26567   9.213   8.068   2.771
58339W        W26568   0.876  15.136  14.454
58340W        W26569   0.403  20.710  11.580
58341W        W26570  11.119  27.976   4.113
58342W        W26571   1.969   9.196   1.507
58343W        W26572  42.884   9.151  13.226
58344W        W26573  26.651  15.521  12.742
58345W        W26574   5.887  20.743   4.633
58346W        W26575  19.707  30.625   1.408
58347W        W26576  17.343   1.347   4.635
58348W        W26577  21.707  19.392   1.882
58349W        W26578  18.130  28.569  12.147
58350W        W26579  16.967  31.700   2.717
58351W        W26580  14.774  13.311  14.767
58352W        W26581  11.282   9.811   9.681
58353W        W26582  23.426  19.989   4.083
58354W        W26583  17.783  26.079   1.915
58355W        W26584  30.088  38.704  12.564
58356W        W26585  38.836   4.874   3.175
58357W        W26586  42.288  19.463  11.080
58358W        W26587  23.167  23.951  13.842
58359W        W26588  26.638  35.464  14.878
58360W        W26589  27.891  40.086   0.999
58361W        W26590   1.286  28.598   4.575
58362W        W26591  18.621  36.184  11.592
58363W        W26592  22.205   4.757  11.923
58364W        W26593  23.909  19.880   4.131
58365W        W26594  21.782  11.194   2.749
58366W        W26595   9.375  25.037   2.786
58367W        W26596   3.667  16.603   0.891
58368W        W26597  35.500   1.851  13.913
58369W        W26598  42.800  29.723   4.654
58370W        W26599   5.479  24.743   0.413
58371W        W26600   4.345  12.446  14.397
58372W        W26601   2.991  10.908  12.877
58373W        W26602  14.365  28.497  13.512
58374W        W26603  38.997   2.188  10.806
58375W        W26604  19.694  27.189  11.578
58376W        W26605   7.736  41.811   3.697
58377W        W26606  27.389  30.840   3.257
58378W        W26607   2.811  19.414   4.007
58379W        W26608   9.480  16.685  14.820
58380W        W26609  10.040  30.036   2.746
58381W        W26610  24.210  25.708  14.256
58382W        W26611   5.424  39.256   4.439
58383W        W26612  44.815  33.189  12.098
58384W        W26613   4.312   7.248  12.896
58385W        W26614  23.998  35.400   4.936
58386W        W26615  35.092   6.008   0.812
58387W        W26616  13.093  25.014   1.096
58388W        W26617  42.747   9.656  13.244
58389W        W26618  41.997  43.663  11.932
58390W        W26619  40.999  36.773   4.280
58391W        W26620  26.571  11.194  10.240
58392W        W26621   4.654  26.121   0.227
58393W        W26622  38.472  37.460  14.037
58394W        W26623  12.789   6.157  13.903
58395W        W26624  43.025  21.029   3.234
58396W        W26625  35.390   8.387   1.325
58397W        W26626  41.969  25.986  11.484
58398W        W26627  39.127  11.809  14.817
58399W        W26628  13.671  40.447  12.509
58400W        W26629  43.321   5.208  13.091
58401W        W26630   1.960  44.714  11.645
58402W        W26631  22.552   1.286  14.330
58403W        W26632  35.747  37.841  14.288
58404W        W26633  40.850  24.549  11.896
58405W        W26634   2.467  38.266   1.700
58406W        W26635  22.684   7.779  14.090
58407W        W26636  24.399  31.096   0.973
58408W        W26637   3.304   2.381  10.833
58409W        W26638  20.552  24.606   1.738
58410W        W26639  28.882  31.388  13.362
58411W        W26640   0.814   5.481  10.504
58412W        W26641  35.290  33.860  11.157
58413W        W26642  18.088   8.095  11.414
58414W        W26643  21.222   3.797  12.692
58415W        W26644  24.441   9.723  11.144
58416W        W26645  12.133  29.604  14.818
58417W        W26646   9.331  44.256   4.150
58418W        W26647  31.162  19.062   3.585
58419W        W26648  24.098  25.225  13.535
58420W        W26649  43.731  25.777   2.284
58421W        W26650  34.919  14.371  14.342
58422W        W26651  13.040  36.501   0.835
58423W        W26652  16.994   0.654   2.864
58424W        W26653   1.705   6.666  14.081
58425W        W26654  32.880  23.659  12.083
58426W        W26655   8.563  19.193   0.301
58427W        W26656  14.264  17.033   4.589
58428W        W26657  23.689  24.016  12.635
58429W        W26658  44.406   2.858  12.586
58430W        W26659  25.137   6.672  13.017
58431W        W26660  30.309   2.423   3.262
58432W        W26661  17.404  18.542   4.158
58433W        W26662  27.504  28.691  14.638
58434W        W26663  40.672  24.173   5.192
58435W        W26664  27.019  44.316   4.165
58436W        W26665  19.021  31.984   2.184
58437W        W26666  30.574  39.382  10.525
58438W        W26667  43.880  36.406  13.266
58439W        W26668   8.402  42.970   2.736
58440W        W26669   5.930  33.571   4.301
58441W        W26670  34.973  25.787   1.237
58442W        W26671  38.791  39.961  11.979
58443W        W26672   2.565  17.997   1.872
58444W        W26673  12.672   6.515   2.258
58445W        W26674  12.109   1.325   3.910
58446W        W26675   9.150  32.951   3.254
58447W        W26676  44.238  28.329   3.958
58448W        W26677  36.573  36.949  12.247
58449W        W26678  24.027  26.536  13.740
58450W        W26679   5.151  39.501  14.356
58451W        W26680  28.631  35.809  12.893
58452W        W26681  21.819  21.716   2.406
58453W        W26682  34.570  42.693  12.895
58454W        W26683  12.861  33.164  11.130
58455W        W26684  14.705  24.452  10.725
58456W        W26685  13.294  11.021   4.683
58457W        W26686  29.076   4.953   4.196
58458W        W26687  15.803  44.217   1.834
58459W        W26688  14.810  32.881  12.966
58460W        W26689   5.320   4.131  13.463
58461W        W26690  17.272  11.721  11.512
58462W        W26691  15.203  20.552   1.655
58463W        W26692  27.573  39.020   1.377
58464W        W26693  11.890  39.561   3.400
58465W        W26694   3.402  36.971   0.613
58466W        W26695  38.587  44.700   1.908
58467W        W26696   1.393  18.552  12.635
58468W        W26697   7.270  20.251   1.890
58469W        W26698  24.225  17.782  10.794
58470W        W26699  27.067  29.039  10.658
58471W        W26700  13.600  20.507   2.339
58472W        W26701  15.005  22.104  10.260
58473W        W26702  39.016  44.040   0.445
58474W        W26703   4.356  30.496  14.942
58475W        W26704   0.905   4.367  13.979
58476W        W26705   0.979   5.309   4.767
58477W        W26706  39.998  14.070   3.921
58478W        W26707  40.641  33.157   1.295
58479W        W26708  32.830  23.654  11.168
58480W        W26709  37.583  29.785  11.664
58481W        W26710   8.351  40.461   1.762
58482W        W26711  28.237   5.849  11.623
58483W        W26712  43.998  28.945   1.183
58484W        W26713   5.740   9.132  14.995
58485W        W26714   4.670  37.954   3.099
58486W        W26715  40.112  11.416  13.664
58487W        W26716  40.807  29.492   2.121
58488W        W26717  33.641  28.113  12.935
58489W        W26718  38.778   3.679   3.752
58490W        W26719  39.901   5.261   4.685
58491W        W26720  22.296  10.789   3.431
58492W        W26721  13.383  25.722  12.591
58493W        W26722  16.594   2.819   3.254
58494W        W26723   6.139  13.630   1.860
58495W        W26724  40.830  18.075   0.405
58496W        W26725  17.636  29.859  11.436
58497W        W26726   2.441  38.486   1.217
58498W        W26727  14.142  18.251   2.065
58499W        W26728  25.647  14.329  14.019
58500W        W26729  33.196  19.956   9.788
58501W        W26730  34.123  32.381   1.003
58502W        W26731  29.614  13.878   0.291
58503W        W26732  15.251  30.092  14.260
58504W        W26733  11.090  41.686  12.428
58505W        W26734   8.632   8.446   1.579
58506W        W26735  19.245   8.313  10.761
58507W        W26736  34.114  38.935  14.369
58508W        W26737  37.094   0.322   0.460
58509W        W26738  19.621  30.648   3.220
58510W        W26739  32.943  21.916  11.452
58511W        W26740  10.810  29.652   1.255
58512W        W26741  15.651  18.540  12.173
58513W        W26742  20.245  11.279   2.174
58514W        W26743  14.409  14.709  12.134
58515W        W26744  44.330  36.970   2.819
58516W        W26745  43.054  22.231   4.387
58517W        W26746  34.927  39.792  12.617
58518W        W26747  17.742  31.627  13.334
58519W        W26748   2.450  42.924   4.918
58520W        W26749  39.290  44.892  12.521
58521W        W26750  27.074   3.172   2.239
58522W        W26751   8.189  33.283  13.445
58523W        W26752   2.575  44.282   2.654
58524W        W26753  29.537  27.709   1.024
58525W        W26754   7.840  35.060   2.217
58526W        W26755  20.159  32.417  12.877
58527W        W26756  36.765  29.178  10.573
58528W        W26757  30.422  31.617  13.410
58529W        W26758   5.218  11.874   0.336
58530W        W26759   4.287  35.513  13.025
58531W        W26760  29.057  26.510  12.661
58532W        W26761   7.348  31.072  12.963
58533W        W26762  36.964  25.602   2.329
58534W        W26763  19.653  27.009   1.147
58535W        W26764  27.661  24.065   0.719
58536W        W26765  32.006  15.726  12.115
58537W        W26766  29.136  38.266  14.033
58538W        W26767  13.836  16.078  14.672
58539W        W26768  33.127   6.603  12.403
58540W        W26769  18.946   2.373  10.941
58541W        W26770  25.446  15.184  13.380
58542W        W26771  19.801  13.819   2.681
58543W        W26772  13.860  43.792   4.255
58544W        W26773   7.824  39.393   4.200
58545W        W26774  37.578  23.113  12.525
58546W        W26775  36.945  38.820  10.962
58547W        W26776  30.094  29.053   3.817
58548W        W26777  43.818   4.590  10.028
58549W        W26778   9.756   1.540   4.520
58550W        W26779  24.430   3.287  11.535
58551W        W26780  21.151  27.673  12.571
58552W        W26781  19.253  13.255   0.325
58553W        W26782  42.769   4.891  11.511
58554W        W26783  20.581  11.165   3.796
58555W        W26784  20.637  12.806   0.206
58556W        W26785   6.674  26.641   0.926
58557W        W26786  26.070  37.080  13.380
58558W        W26787  44.876   8.033   1.013
58559W        W26788  25.456  14.177   4.493
58560W        W26789  21.019   6.239  11.595
58561W        W26790  12.194  41.885  14.697
58562W        W26791  27.615   7.204  11.081
58563W        W26792  30.249   4.480   3.087
58564W        W26793  21.472  20.885  14.457
58565W        W26794  44.514   5.033  12.584
58566W        W26795  30.878  19.063   4.027
58567W        W26796   8.877  37.826  11.170
58568W        W26797  21.931  42.364   1.627
58569W        W26798   4.069   4.147  13.069
58570W        W26799  39.179  21.287  11.690
58571W        W26800   8.941  21.211   3.452
58572W        W26801  17.511  29.559   3.060
58573W        W26802  42.520  39.819  11.138
58574W        W26803  16.836   2.950   1.824
58575W        W26804  14.088  34.967  11.629
58576W        W26805  12.146  25.000   0.424
58577W        W26806  16.091  13.003   2.324
58578W        W26807  24.807  33.187   2.306
58579W        W26808  20.841  17.011   0.969
58580W        W26809  40.041  36.873   0.499
58581W        W26810  28.909  26.657   1.205
58582W        W26811   5.959  28.940   4.422
58583W        W26812  19.557  28.680   1.807
58584W        W26813  39.623   7.684  13.525
58585W        W26814   4.006  25.694  11.447
58586W        W26815  38.767  43.395  11.154
58587W        W26816  35.830  14.071  12.976
58588W        W26817  39.297   8.402  14.373
58589W        W26818  29.651  24.734  13.432
58590W        W26819  41.865   5.226   1.666
58591W        W26820  17.907  23.814   0.659
58592W        W26821  35.922  13.814   2.943
58593W        W26822  40.032  38.196   4.970
58594W        W26823  27.372  19.678  10.826
58595W        W26824  40.312  21.942  10.872
58596W        W26825  35.069   3.859   4.345
58597W        W26826  11.200  21.486  13.397
58598W        W26827   5.130  35.308  12.434
58599W        W26828  28.023  26.120   1.910
58600W        W26829  16.671  25.186   4.153
58601W        W26830  41.578  14.612   0.923
58602W        W26831  28.209  13.610   5.031
58603W        W26832  40.913  17.104  12.014
58604W        W26833   7.016  39.556  12.037
58605W        W26834   3.248  13.285  10.656
58606W        W26835  19.230  39.634   0.481
58607W        W26836  18.667   6.912  12.018
58608W        W26837  44.268  43.288  12.112
58609W        W26838  38.906   0.918   1.187
58610W        W26839  28.865  27.273   0.511
58611W        W26840  34.994  30.120  10.599
58612W        W26841  31.929   2.437   3.792
58613W        W26842   9.116   7.010  13.846
58614W        W26843  39.476  12.371  11.603
58615W        W26844  30.006  39.819   2.544
58616W        W26845   8.410  43.489   2.725
58617W        W26846  20.509  15.522  14.265
58618W        W26847   2.844   5.195   3.821
58619W        W26848  44.914  34.424  14.507
58620W        W26849  43.004  32.529  11.380
58621W        W26850   8.153  17.294  13.840
58622W        W26851  40.146  19.073  12.575
58623W        W26852  14.861  36.337  11.516
58624W        W26853  29.929  33.666   0.001
58625W        W26854  24.316   1.972  12.092
58626W        W26855  42.243   0.922  12.672
58627W        W26856  21.461   0.040  14.168
58628W        W26857   5.998  26.200  13.921
58629W        W26858  20.589  38.361   2.774
58630W        W26859  31.920  14.061   0.232
58631W        W26860  35.998  30.050   1.959
58632W        W26861  33.362  35.503   0.391
58633W        W26862  33.304  21.201  13.379
58634W        W26863   3.246  43.668   3.754
58635W        W26864   3.769  20.221   0.920
58636W        W26865   2.426  21.650  13.521
58637W        W26866   2.374  27.923  10.273
58638W        W26867  36.797   9.437  14.941
58639W        W26868  33.199  17.005  14.993
58640W        W26869  41.344   2.499   3.124
58641W        W26870   5.757  16.326   4.106
58642W        W26871  36.438  20.629  11.103
58643W        W26872  44.246   2.306  13.481
58644W        W26873  43.806  39.744  11.584
58645W        W26874  18.733  20.547   4.122
58646W        W26875   5.156   8.573   4.814
58647W        W26876  24.588  37.587   0.651
58648W        W26877  31.951   1.822  14.458
58649W        W26878   8.137  16.771   2.641
58650W        W26879   1.827   0.912  13.923
58651W        W26880   4.952   7.399  11.593
58652W        W26881  10.775  17.848   1.926
58653W        W26882  10.254  10.672   5.103
58654W        W26883  33.554   4.321  11.459
58655W        W26884   9.657  39.024   4.322
58656W        W26885  38.464   0.392  10.633
58657W        W26886  40.790  16.285  11.009
58658W        W26887  42.861  35.461  10.742
58659W        W26888   9.705  23.485  11.664
58660W        W26889  30.956  19.209  12.799
58661W        W26890  35.981  39.845   0.932
58662W        W26891  29.056  29.958   1.446
58663W        W26892  15.584  42.430   1.618
58664W        W26893   4.220   7.228   4.088
58665W        W26894  31.769  40.639   0.278
58666W        W26895  40.481  38.538   1.371
58667W        W26896  35.455  32.970   0.957
58668W        W26897   9.057  34.387   3.076
58669W        W26898  25.729   2.320  13.288
58670W        W26899  12.378  32.962   0.529
58671W        W26900   9.808  13.841   1.733
58672W        W26901   4.343  33.374   4.371
58673W        W26902  37.692  17.489   4.619
58674W        W26903  34.007  14.916   3.833
58675W        W26904  20.156   5.867   4.539
58676W        W26905  39.437   0.800   4.540
58677W        W26906  11.660  26.537  14.514
58678W        W26907  25.694  40.528  14.426
58679W        W26908  16.370   1.349   4.189
58680W        W26909  41.799   8.949   1.301
58681W        W26910  36.609   3.877  12.476
58682W        W26911  11.733  10.596   3.595
58683W        W26912  28.589  33.608   9.745
58684W        W26913  12.494  40.548   1.317
58685W        W26914   4.263  13.985   3.084
58686W        W26915  15.996  32.080   2.762
58687W        W26916   4.185  29.132   0.336
58688W        W26917  39.982   1.168   3.912
58689W        W26918  44.502  26.226   2.862
58690W        W26919  43.825   9.774  11.931
58691W        W26920  17.617  26.315  10.635
58692W        W26921  32.457  43.048   2.765
58693W        W26922   7.810  26.770  11.686
58694W        W26923  16.593  26.989  14.480
58695W        W26924  32.490  27.810   4.920
58696W        W26925  26.564   9.116  11.187
58697W        W26926  26.997   7.382  13.030
58698W        W26927   6.359  13.304  11.212
58699W        W26928  30.244  33.075   4.733
58700W        W26929  14.584   7.085  10.377
58701W        W26930  32.369  31.610  11.512
58702W        W26931  13.167  40.411   0.515
58703W        W26932  27.444  44.901  12.060
58704W        W26933  18.330  43.346  14.264
58705W        W26934   3.018   8.330  14.287
58706W        W26935   8.411  42.993  13.487
58707W        W26936  25.127  39.739   0.303
58708W        W26937  25.802   0.363   0.616
58709W        W26938  42.504  23.508  12.996
58710W        W26939  27.631  20.275   1.621
58711W        W26940  29.529  36.678   2.592
58712W        W26941  26.552  41.393  13.039
58713W        W26942  24.899   3.246   0.852
58714W        W26943  15.115  26.185  12.484
58715W        W26944   5.651  16.771  11.596
58716W        W26945  16.089  20.791   0.871
58717W        W26946  13.545   3.773  14.395
58718W        W26947   7.887   8.408  14.838
58719W        W26948  27.409  30.621  11.543
58720W        W26949  31.977  10.435   2.781
58721W        W26950  34.269  43.047   0.062
58722W        W26951  17.344   2.981  12.930
58723W        W26952  19.708  27.477   1.408
58724W        W26953   3.185   5.708   0.407
58725W        W26954   9.331  38.862  12.017
58726W        W26955  29.629  32.344  13.402
58727W        W26956  27.596  14.548   1.148
58728W        W26957  18.604  37.325   4.612
58729W        W26958  31.808  17.746  11.141
58730W        W26959  22.938  22.549  12.362
58731W        W26960  17.751   7.510  12.484
58732W        W26961  27.404  35.449  12.096
58733W        W26962  35.901   1.331   2.482
58734W        W26963  24.655  41.015  11.957
58735W        W26964  35.444   0.373  13.439
58736W        W26965  25.345  23.209   3.917
58737W        W26966  26.979  38.993   3.029
58738W        W26967  14.789  27.466   1.710
58739W        W26968   6.759  14.404   1.657
58740W        W26969   2.830   3.492  11.319
58741W        W26970  10.941  14.016  14.442
58742W        W26971  35.921  42.068  13.515
58743W        W26972   8.594  21.223   2.347
58744W        W26973   8.876   5.862   1.926
58745W        W26974  25.512  27.434   1.792
58746W        W26975  13.177   7.419   4.195
58747W        W26976  18.545  12.155  11.234
58748W        W26977  30.470   6.290   3.303
58749W        W26978  19.681  32.691   1.960
58750W        W26979  35.429  44.903   2.908
58751W        W26980  36.487  19.929  12.215
58752W        W26981  18.118  15.749   3.760
58753W        W26982  21.854  38.046  14.859
58754W        W26983  15.300  36.369   3.877
58755W        W26984  10.726  14.508   2.915
58756W        W26985   6.514  38.923   2.358
58757W        W26986  21.137  38.317   0.333
58758W        W26987  35.342  44.485  14.426
58759W        W26988  13.090  16.811   4.578
58760W        W26989  42.808  30.726   1.791
58761W        W26990  28.597  37.084  13.482
58762W        W26991  22.294   1.390   1.489
58763W        W26992   5.341   1.841  11.421
58764W        W26993   3.935   9.855   0.850
58765W        W26994   1.326  22.180  12.866
58766W        W26995  44.986  20.079   4.288
58767W        W26996  25.959  25.003  11.021
58768W        W26997  22.095  32.218  11.147
58769W        W26998  30.273  43.319   2.276
58770W        W26999  23.575  17.300  11.166
58771W        W27000  10.414   7.291  10.905
58772W        W27001   7.340  43.943  13.687
58773W        W27002  24.298   8.487   1.043
58774W        W27003  24.644  11.372   0.328
58775W        W27004  21.426  34.590   2.384
58776W        W27005  41.775  10.826  11.883
58777W        W27006  37.015   5.214  11.609
58778W        W27007  43.248   4.348   3.863
58779W        W27008  30.567  30.613   0.566
58780W        W27009  25.476   4.234  10.762
58781W        W27010  26.039   2.723   3.625
58782W        W27011  29.549  43.730  11.046
58783W        W27012   0.416  39.575   0.337
58784W        W27013  16.056   1.338  10.435
58785W        W27014  28.639  33.390  14.789
58786W        W27015  20.753  15.837   0.233
58787W        W27016  28.572  41.873   3.814
58788W        W27017  14.294  20.488  12.327
58789W        W27018   1.488  32.219  12.074
58790W        W27019  25.973  19.952   3.667
58791W        W27020  35.145  17.042  10.198
58792W        W27021   7.301  27.282  14.715
58793W        W27022  19.050  11.662  12.983
58794W        W27023  31.673  19.607   2.254
58795W        W27024   1.520  29.920  14.868
58796W        W27025  30.422  43.430  11.945
58797W        W27026  29.074  20.176   4.369
58798W        W27027  24.676   4.446  12.097
58799W        W27028  25.798  32.812  10.951
58800W        W27029  16.344   2.803   1.737
58801W        W27030  15.115  13.494  10.489
58802W        W27031  19.758  21.302   1.782
58803W        W27032  32.153  10.179   1.342
58804W        W27033  17.268  42.338   1.771
58805W        W27034   3.895  10.054  11.095
58806W        W27035   4.915  30.915  10.563
58807W        W27036  18.534  20.552  10.682
58808W        W27037  34.550   1.231   3.226
58809W        W27038  14.769  43.433   2.052
58810W        W27039  30.960  32.495  11.185
58811W        W27040   4.498   8.727  11.031
58812W        W27041  27.158  44.662  14.368
58813W        W27042  26.434  25.858   4.703
58814W        W27043  39.982  36.902  14.974
58815W        W27044  13.622  44.198  11.430
58816W        W27045  21.240  27.484   2.352
58817W        W27046   3.796   9.353   2.189
58818W        W27047  31.835  15.996   5.215
58819W        W27048  26.197   7.213  14.390
58820W        W27049  31.078   3.719   3.156
58821W        W27050  11.938   2.869   3.332
58822W        W27051   9.987  37.482  10.536
58823W        W27052  20.137  22.062   0.358
58824W        W27053  13.123  44.983  10.835
58825W        W27054  30.736  30.160   0.696
58826W        W27055  36.576  37.335  14.984
58827W        W27056  21.500  16.431  13.276
58828W        W27057  25.772  37.435  13.811
58829W        W27058  37.634  21.157  11.637
58830W        W27059  35.599  23.873  14.989
58831W        W27060   2.315  23.255  14.382
58832W        W27061  39.120  43.950  11.515
58833W        W27062  26.472  36.921   2.417
58834W        W27063  31.044  11.335   2.921
58835W        W27064  24.544  13.817  14.803
58836W        W27065   0.996  41.948   1.268
58837W        W27066  15.630   9.514  12.113
58838W        W27067  26.135  29.954   4.831
58839W        W27068   1.868  42.386   1.049
58840W        W27069  15.811  12.309   1.830
58841W        W27070  36.065  24.665  13.422
58842W        W27071  22.637  30.086  10.680
58843W        W27072   0.904  41.277   0.674
58844W        W27073  42.018  17.649  14.756
58845W        W27074   5.947  34.423   4.143
58846W        W27075  42.768  36.363   1.950
58847W        W27076  18.051  12.155  14.134
58848W        W27077   0.721   7.031  11.351
58849W        W27078  39.936  41.177  14.766
58850W        W27079  44.732   3.750   4.571
58851W        W27080  19.199  33.012  13.352
58852W        W27081   0.557  17.769   1.417
58853W        W27082  23.009   1.919  11.094
58854W        W27083  13.241  13.726  11.017
58855W        W27084  21.366  29.042  12.646
58856W        W27085   5.843  14.673  14.787
58857W        W27086  15.164  10.449  12.521
58858W        W27087  13.736   3.007  12.542
58859W        W27088  29.407  27.603   2.982
58860W        W27089   7.411  14.244   5.120
58861W        W27090  10.227  18.058  14.786
58862W        W27091  10.841  39.063   3.691
58863W        W27092  21.844  12.312  12.473
58864W        W27093  36.485  40.586   1.766
58865W        W27094  28.158  24.202   2.194
58866W        W27095  38.912  40.821   2.780
58867W        W27096  18.176  28.560   2.696
58868W        W27097  33.543   6.968  13.599
58869W        W27098  38.277   6.439  11.031
58870W        W27099   6.248   8.620   2.272
58871W        W27100  30.971  27.725   2.251
58872W        W27101   1.759  32.800  13.478
58873W        W27102  13.050  13.343  14.537
58874W        W27103  39.973   6.210  11.520
58875W        W27104  33.392  39.321   4.866
58876W        W27105  28.310  10.557   2.139
58877W        W27106  36.409  21.274  13.808
58878W        W27107  39.049  24.452  10.916
58879W        W27108  19.414  12.804   3.385
58880W        W27109  20.779  34.013  12.497
58881W        W27110  24.244  26.095  13.140
58882W        W27111  25.988   7.616  12.161
58883W        W27112  36.966  29.860  11.247
58884W        W27113  16.947  42.374   3.783
58885W        W27114  37.505   3.311  11.225
58886W        W27115   0.827  30.613  14.848
58887W        W27116  42.950   3.651   4.020
58888W        W27117   6.363  29.068  12.477
58889W        W27118  30.825   2.517   1.704
58890W        W27119  25.937   2.756  13.493
58891W        W27120  26.920  27.940   1.210
58892W        W27121  23.593  21.343   3.761
58893W        W27122  32.876  42.565  10.704
58894W        W27123  19.079  19.393   1.056
58895W        W27124   6.654  26.140   0.221
58896W        W27125  32.827   5.273   0.574
58897W        W27126   1.891  33.945   3.690
58898W        W27127  27.547  27.027  13.536
58899W        W27128  13.132  37.882   1.947
58900W        W27129  28.668  10.231   0.391
58901W        W27130  29.837  41.884   4.235
58902W        W27131  17.287   7.212   0.481
58903W        W27132  37.946  25.446   1.373
58904W        W27133  24.935   7.242  11.230
58905W        W27134  22.164  14.605   1.166
58906W        W27135  13.656   1.094  13.958
58907W        W27136  29.409  20.288   1.909
58908W        W27137   8.963   1.642   3.577
58909W        W27138   2.351  25.023   2.367
58910W        W27139  10.851  28.490   3.365
58911W        W27140  22.866  12.738  12.083
58912W        W27141   8.284  25.139   0.464
58913W        W27142  34.402   6.891   3.680
58914W        W27143  27.509  23.866  11.128
58915W        W27144  31.630   8.308   0.743
58916W        W27145  41.258  24.016   2.292
58917W        W27146  33.754  17.865  10.877
58918W        W27147  27.449  37.616  14.517
58919W        W27148  41.932  36.947   2.864
58920W        W27149   3.596  16.285   2.467
58921W        W27150  19.039   3.746  10.951
58922W        W27151  34.526   3.247  11.581
58923W        W27152  16.889  40.976  12.802
58924W        W27153  28.633   4.528   1.756
58925W        W27154  32.959  12.237   4.696
58926W        W27155  41.323  21.190   0.036
58927W        W27156  21.016  13.825   3.915
58928W        W27157  21.641   7.363  11.983
58929W        W27158   6.900   9.226   3.269
58930W        W27159  25.992   4.473   5.129
58931W        W27160  28.382  30.863   0.366
58932W        W27161  41.604   9.800   2.263
58933W        W27162   6.229   4.513  12.476
58934W        W27163  24.072  40.008  11.509
58935W        W27164  18.310  30.018   2.303
58936W        W27165  28.016  40.380   0.221
58937W        W27166  27.464  17.016  12.816
58938W        W27167  42.280  43.752  14.387
58939W        W27168  13.374  31.637   2.613
58940W        W27169  31.187  39.333   4.060
58941W        W27170  42.823  21.732  12.892
58942W        W27171  27.453   3.578   3.322
58943W        W27172  12.906   5.472   3.105
58944W        W27173  22.361  38.053   1.247
58945W        W27174  23.015  18.180   3.221
58946W        W27175   9.633   4.057  14.374
58947W        W27176  26.245  22.107   1.314
58948W        W27177  43.476  27.687   2.903
58949W        W27178  41.328   9.985   1.881
58950W        W27179  16.725  10.831   0.205
58951W        W27180   6.493   2.844  11.951
58952W        W27181  33.469   0.958   0.924
58953W        W27182  26.432  26.546   2.284
58954W        W27183  12.040   4.289  12.069
58955W        W27184  10.625  43.902  14.597
58956W        W27185  37.624  35.048   3.676
58957W        W27186  14.145  34.082   3.208
58958W        W27187  38.450  34.629  13.307
58959W        W27188  21.945   8.849   0.446
58960W        W27189   3.850   1.708   2.386
58961W        W27190   8.166  29.580   1.703
58962W        W27191  26.018  32.500   1.957
58963W        W27192  32.689  16.547  12.345
58964W        W27193   4.631  10.413   3.909
58965W        W27194  21.530  29.562   3.287
58966W        W27195  42.824  23.686  11.124
58967W        W27196   0.840   5.880  10.134
58968W        W27197  10.259  10.899  14.219
58969W        W27198   4.425  32.869  12.014
58970W        W27199  38.319  16.688  10.699
58971W        W27200  34.711   3.015   4.507
58972W        W27201  30.009  41.466   4.465
58973W        W27202  25.103  26.277   4.116
58974W        W27203  21.099  38.509  10.869
58975W        W27204  15.113  18.536   2.962
58976W        W27205  29.509  12.418   1.155
58977W        W27206  33.719  10.967   2.924
58978W        W27207  23.293  13.215  14.907
58979W        W27208  16.534  31.997   5.018
58980W        W27209  36.995  38.754   4.427
58981W        W27210  30.649  39.230   0.785
58982W        W27211  11.599   4.762   4.089
58983W        W27212  12.334  23.983   2.716
58984W        W27213  31.598  32.940  13.177
58985W        W27214  16.032  36.787  10.714
58986W        W27215   6.111  23.875  10.962
58987W        W27216  38.850  19.654   1.088
58988W        W27217  11.737  41.522  13.379
58989W        W27218  25.629   1.210  12.409
58990W        W27219  12.371   1.053  11.017
58991W        W27220  13.666   3.887  12.541
58992W        W27221  14.650  21.319   1.717
58993W        W27222  43.711  11.394  14.647
58994W        W27223  23.862  40.470   4.975
58995W        W27224   0.202  35.871   2.791
58996W        W27225  40.787  43.348  14.519
58997W        W27226  11.901  21.145  12.360
58998W        W27227  19.777  23.617   4.196
58999W        W27228  15.239  37.327   1.428
59000W        W27229  33.549  36.076  12.063
59001W        W27230   2.422  32.655   2.636
59002W        W27231  23.251  17.036   4.572
59003W        W27232  25.103  37.956  13.235
59004W        W27233  28.845  14.298  13.258
59005W        W27234  24.167  44.831  10.739
59006W        W27235  10.256  15.815  12.460
59007W        W27236   6.164  26.456  13.506
59008W        W27237  31.564  31.852   4.168
59009W        W27238  34.391   2.740  13.971
59010W        W27239  41.369  36.730  10.783
59011W        W27240  22.562  44.969   2.169
59012W        W27241  17.466  21.305   0.938
59013W        W27242  27.155  32.418   4.532
59014W        W27243  13.987  20.574   3.619
59015W        W27244  37.220  40.480   1.240
59016W        W27245   3.624  44.317   4.027
59017W        W27246  10.332  15.180  13.940
59018W        W27247  35.641   8.578   4.728
59019W        W27248   4.541  36.907   3.667
59020W        W27249  35.608   2.597  11.237
59021W        W27250  44.017  19.290  12.644
59022W        W27251  11.865  38.845  14.562
59023W        W27252   1.733  38.371  10.973
59024W        W27253  44.818  34.681   4.483
59025W        W27254  11.843  40.504  13.430
59026W        W27255   2.928   9.162  13.957
59027W        W27256   1.266  34.693  11.506
59028W        W27257  22.434   7.691   2.068
59029W        W27258   1.003  37.611  14.058
59030W        W27259   1.401  18.967  14.943
59031W        W27260   5.609  34.893  13.982
59032W        W27261  40.698  22.159   2.584
59033W        W27262  43.478  44.383  13.074
59034W        W27263  33.662  11.805  11.194
59035W        W27264   5.928  22.320   4.588
59036W        W27265  19.175  34.845  11.589
59037W        W27266  42.501   3.214  12.961
59038W        W27267   6.154  36.952  14.875
59039W        W27268   9.217   2.637   1.557
59040W        W27269  12.508  14.392  10.252
59041W        W27270  11.359  24.244  12.469
59042W        W27271  21.245  32.140   4.036
59043W        W27272  24.052   2.500   2.264
59044W        W27273  18.408  22.580   4.778
59045W        W27274  41.312  29.494   2.267
59046W        W27275  12.637  44.219  13.094
59047W        W27276  44.231  12.152  14.514
59048W        W27277  17.320  15.723   2.656
59049W        W27278  44.750  30.709  11.206
59050W        W27279  42.011  20.986   1.300
59051W        W27280  20.572   4.497  13.750
59052W        W27281  10.325   8.217   5.067
59053W        W27282  30.818  32.486  10.698
59054W        W27283  30.482  20.681   4.928
59055W        W27284  43.765  15.571   2.707
59056W        W27285  10.128  39.270   4.495
59057W        W27286  37.987  14.726  14.113
59058W        W27287  19.674  40.991  11.529
59059W        W27288  37.673  43.453   3.728
59060W        W27289  28.505  42.998  10.701
59061W        W27290  21.124  41.141  11.677
59062W        W27291  34.469  13.661   4.538
59063W        W27292   3.735  16.868   4.535
59064W        W27293  27.099  22.961  12.595
59065W        W27294   6.618   9.121  10.684
59066W        W27295  41.918   0.127  10.719
59067W        W27296   7.810  39.300  13.893
59068W        W27297  11.301  17.836   0.066
59069W        W27298  31.432   9.246   0.207
59070W        W27299  16.735   2.942  10.763
59071W        W27300  36.324  32.315   3.097
59072W        W27301   1.752  37.199  13.855
59073W        W27302  19.266  19.134   4.390
59074W        W27303  44.857  36.396   3.059
59075W        W27304  21.246  44.256   4.545
59076W        W27305  42.493  27.250  14.224
59077W        W27306  23.950  22.884  13.505
59078W        W27307  35.332   9.155   1.963
59079W        W27308  44.818  40.077   1.838
59080W        W27309   1.452  12.747  10.577
59081W        W27310  12.711  19.202  11.946
59082W        W27311  44.508  20.210  12.981
59083W        W27312  24.150  20.498  14.059
59084W        W27313  23.120   3.259   2.769
59085W        W27314  17.721  42.378  11.079
59086W        W27315   7.389  21.267   1.795
59087W        W27316  16.225  25.408   4.277
59088W        W27317  26.823  35.292   0.351
59089W        W27318  42.526   8.768  12.616
59090W        W27319  37.525  29.582   2.030
59091W        W27320  21.619  24.909  14.637
59092W        W27321  35.604  12.162  12.120
59093W        W27322  28.338   8.814  13.889
59094W        W27323  26.234  23.617   3.383
59095W        W27324  19.373   6.830  11.094
59096W        W27325   4.833  34.356  14.697
59097W        W27326   3.523  36.693   3.482
59098W        W27327  26.724  31.344   3.277
59099W        W27328  36.856  19.392  11.629
59100W        W27329   3.904  30.058  10.930
59101W        W27330  29.369  42.946   3.275
59102W        W27331  27.028  19.549   0.770
59103W        W27332   0.218  37.942   4.522
59104W        W27333  33.247  12.728  14.995
59105W        W27334  14.286  12.528  14.378
59106W        W27335  33.596  15.357   0.220
59107W        W27336  27.188  29.958  11.046
59108W        W27337  14.074   0.916  14.261
59109W        W27338  32.046  23.006   4.169
59110W        W27339  25.092   0.515  13.518
59111W        W27340  27.948   5.580  12.840
59112W        W27341  30.041  40.468  14.865
59113W        W27342  41.528   3.035  12.251
59114W        W27343  26.512   1.778  12.627
59115W        W27344  16.528  31.168  12.467
59116W        W27345   6.470  34.624  11.540
59117W        W27346  18.145  23.980   4.329
59118W        W27347  32.987  42.904  13.947
59119W        W27348  37.089  18.331  14.496
59120W        W27349  23.177  14.098   0.076
59121W        W27350  42.671  42.532   3.303
59122W        W27351  39.458  30.397   0.485
59123W        W27352  29.249  35.391  13.542
59124W        W27353  10.995   4.133   3.814
59125W        W27354  42.108   0.408  12.013
59126W        W27355  10.177  36.106  13.555
59127W        W27356  17.242  20.725   4.999
59128W        W27357  23.211  34.033  11.405
59129W        W27358   9.152  38.343   0.512
59130W        W27359  37.640  12.138   4.522
59131W        W27360  38.345   1.602   3.164
59132W        W27361  38.449  19.223   4.034
59133W        W27362   5.394  33.492  11.335
59134W        W27363  30.573   5.359   4.584
59135W        W27364   2.864  17.301   1.729
59136W        W27365  18.356  43.005   0.348
59137W        W27366  38.571  36.065   4.057
59138W        W27367  38.852  11.675  11.149
59139W        W27368  14.619   8.317  13.140
59140W        W27369  30.495   9.199   2.763
59141W        W27370  40.723   5.467   2.633
59142W        W27371  38.501  22.853   1.969
59143W        W27372   0.344  19.498  13.432
59144W        W27373  33.051   7.748  14.580
59145W        W27374  39.135   6.318  11.350
59146W        W27375  37.081  37.358   4.661
59147W        W27376  10.410  21.773   3.602
59148W        W27377  43.168  11.716   1.859
59149W        W27378  16.214  30.242  13.835
59150W        W27379  36.426  25.528  10.713
59151W        W27380  36.087  42.765  12.833
59152W        W27381  12.678  35.825   0.890
59153W        W27382  42.305   7.771   1.700
59154W        W27383  14.606   1.235   1.002
59155W        W27384  19.286  34.914   0.791
59156W        W27385  11.268  27.666  11.003
59157W        W27386  25.974   9.624   0.251
59158W        W27387  40.424  27.224   1.771
59159W        W27388   9.693  19.770   2.283
59160W        W27389  18.733  19.583  11.619
59161W        W27390   2.221  17.294   3.264
59162W        W27391  43.248  12.077   2.279
59163W        W27392   4.903  10.976   2.582
59164W        W27393  25.951  15.236  13.562
59165W        W27394  18.240  31.486   2.227
59166W        W27395  13.841   2.265   1.727
59167W        W27396  20.608   8.362   2.542
59168W        W27397  33.381  37.917   4.387
59169W        W27398  41.347   4.691   2.888
59170W        W27399  34.288  11.159   3.721
59171W        W27400   4.875  13.927   0.892
59172W        W27401  24.461  20.618   1.397
59173W        W27402  10.185  30.083   3.365
59174W        W27403  18.187  10.483  12.442
59175W        W27404  42.546  27.021  12.531
59176W        W27405  32.160  26.623  11.559
59177W        W27406  42.297  36.620  14.805
59178W        W27407  22.025  20.670  10.561
59179W        W27408  25.539  14.289  12.557
59180W        W27409  20.208  31.549   4.683
59181W        W27410  16.227   7.631  12.409
59182W        W27411  33.119  13.746   4.794
59183W        W27412  13.589  42.441  10.644
59184W        W27413   1.980   4.822  13.318
59185W        W27414  41.730   6.913  12.488
59186W        W27415   7.845  18.640  11.225
59187W        W27416  10.237   5.368   3.312
59188W        W27417   3.224   8.891  11.111
59189W        W27418   8.389   5.880  11.169
59190W        W27419  15.698  15.729  11.152
59191W        W27420  38.442   7.744  13.878
59192W        W27421   5.026   5.590  11.557
59193W        W27422  31.493  33.039  11.108
59194W        W27423  37.201  23.430   3.421
59195W        W27424  37.942  10.281   3.201
59196W        W27425   3.268   4.723  11.409
59197W        W27426   8.315   6.892  13.047
59198W        W27427  37.302   2.514  10.792
59199W        W27428   0.053  32.653  14.167
59200W        W27429   1.322  15.202   3.865
59201W        W27430  42.658   6.676   2.760
59202W        W27431   5.632   7.331   4.510
59203W        W27432  39.114  20.752   0.388
59204W        W27433   4.462  23.021  14.716
59205W        W27434   1.692   1.232   1.042
59206W        W27435   1.676  23.007  14.865
59207W        W27436   9.937   0.803   1.702
59208W        W27437   4.624  30.626   0.845
59209W        W27438  22.289  25.429   0.474
59210W        W27439  15.309   5.849  10.860
59211W        W27440  11.366   0.046  12.402
59212W        W27441   1.672  43.072   3.844
59213W        W27442  43.765   9.181   5.072
59214W        W27443  13.412  39.934   0.497
59215W        W27444  28.627  34.376  14.972
59216W        W27445  27.938   6.704  14.874
59217W        W27446   4.287  12.292   4.040
59218W        W27447  44.377  24.433   1.335
59219W        W27448  26.762  39.977   1.513
59220W        W27449  13.736  11.889  11.013
59221W        W27450  35.651  17.228  14.057
59222W        W27451   8.710   3.315  13.880
59223W        W27452  25.683  22.302   2.837
59224W        W27453  24.693  28.397   4.009
59225W        W27454  37.087  32.317   2.510
59226W        W27455  26.190   4.845   1.604
59227W        W27456  12.296  28.097  14.276
59228W        W27457  25.400  10.258   3.216
59229W        W27458  16.105  36.396   2.892
59230W        W27459  24.565  33.344  12.944
59231W        W27460  42.590   1.450   0.391
59232W        W27461  35.419  23.340  10.688
59233W        W27462  11.849   3.659  10.516
59234W        W27463  40.055  28.601   0.764
59235W        W27464   6.707   3.047   0.844
59236W        W27465  30.633  20.399  12.815
59237W        W27466  18.067  30.963   0.525
59238W        W27467  35.152  40.003   2.186
59239W        W27468  30.953  34.610  10.708
59240W        W27469   0.946  32.558   4.365
59241W        W27470  34.783  42.302   3.195
59242W        W27471   2.115  11.768   1.430
59243W        W27472  16.073  16.320   0.088
59244W        W27473  21.612  37.405  13.968
59245W        W27474   1.670  38.090   5.435
59246W        W27475  18.536  30.192   1.871
59247W        W27476   7.934  35.273   3.505
59248W        W27477  39.170   8.178   4.634
59249W        W27478  14.886   0.773  12.989
59250W        W27479  42.030  39.923   3.396
59251W        W27480   7.409  31.390  13.369
59252W        W27481  35.629  35.381   1.414
59253W        W27482  30.526  19.608  13.412
59254W        W27483  29.923   7.699  13.396
59255W        W27484  44.508  29.518  13.389
59256W        W27485   6.409  23.821   3.647
59257W        W27486  32.034  32.933  13.491
59258W        W27487  11.347  14.397  13.239
59259W        W27488  36.571  17.922  14.443
59260W        W27489  41.198   2.313   1.388
59261W        W27490  26.505  16.156  13.492
59262W        W27491  27.271  11.853   9.884
59263W        W27492  36.621  29.834  12.537
59264W        W27493  25.057   9.636   2.365
59265W        W27494  43.749  35.708   4.321
59266W        W27495   4.459  22.004  14.221
59267W        W27496  17.594  39.139  11.706
59268W        W27497   1.022  23.058  13.968
59269W        W27498  23.004  13.521   2.674
59270W        W27499  23.292  34.401  14.243
59271W        W27500  40.904  20.591   3.835
59272W        W27501  17.661  26.594   2.727
59273W        W27502   5.442  20.052   4.171
59274W        W27503   0.287   1.256   3.193
59275W        W27504  25.007   5.671  12.013
59276W        W27505   8.001   9.873  12.093
59277W        W27506  21.133  40.949   1.856
59278W        W27507   2.157  15.717   0.402
59279W        W27508  18.185  16.928  12.809
59280W        W27509   5.392  17.203   1.979
59281W        W27510  20.630   0.147   4.093
59282W        W27511  10.909  38.802  14.390
59283W        W27512  26.291   3.836   1.405
59284W        W27513  22.444  22.705  12.360
59285W        W27514  40.313   5.243  14.442
59286W        W27515  22.017  15.100   1.269
59287W        W27516  37.032  27.022   1.696
59288W        W27517  15.620   4.904   0.914
59289W        W27518  10.172  27.003   2.261
59290W        W27519  33.964  22.501  13.048
59291W        W27520   5.268  26.048   1.287
59292W        W27521  41.724   3.409  11.952
59293W        W27522  13.744  38.556  14.147
59294W        W27523  41.752  27.356  12.540
59295W        W27524   9.783  22.427  12.846
59296W        W27525  37.810  39.733  12.037
59297W        W27526  29.114  42.907  13.636
59298W        W27527  33.854  14.276   0.416
59299W        W27528  31.658  22.928  13.076
59300W        W27529  42.812  15.013  14.938
59301W        W27530  14.643   5.042  11.931
59302W        W27531  29.771   5.016   3.682
59303W        W27532  43.777  43.261  11.945
59304W        W27533   2.415  25.428   0.508
59305W        W27534   1.008  39.243  13.395
59306W        W27535  34.856   9.839  13.070
59307W        W27536  26.580  44.856  11.659
59308W        W27537  43.816  30.170   0.217
59309W        W27538  10.673  19.892  11.223
59310W        W27539  22.233  28.158  12.120
59311W        W27540  30.096  34.169   2.627
59312W        W27541  17.066  36.490  11.031
59313W        W27542  18.062  42.793   4.771
59314W        W27543  28.948  42.063  13.606
59315W        W27544  28.611   7.221  10.654
59316W        W27545  23.886  18.778   2.505
59317W        W27546  13.072   1.160   1.705
59318W        W27547  13.281  40.054  11.147
59319W        W27548  32.720  15.630   4.153
59320W        W27549   8.774  23.449   1.696
59321W        W27550  42.251  30.862   3.290
59322W        W27551   9.731  29.534  12.627
59323W        W27552  19.218  21.990   0.527
59324W        W27553   3.911   5.621  11.334
59325W        W27554  17.061   1.352   1.427
59326W        W27555  44.389   1.523   4.429
59327W        W27556  16.607  38.912  14.142
59328W        W27557  15.693   0.721  14.398
59329W        W27558  39.573   3.688  14.853
59330W        W27559  10.680  14.124   0.333
59331W        W27560  15.854   8.975  10.803
59332W        W27561   7.436  40.331  11.653
59333W        W27562  28.599   6.411   0.718
59334W        W27563  43.995  35.922  14.041
59335W        W27564  25.601  25.161   0.034
59336W        W27565  37.032  44.493  12.233
59337W        W27566  19.804  36.827   4.599
59338W        W27567  37.833  16.184   3.879
59339W        W27568  23.914  30.577  11.411
59340W        W27569  23.465   1.412   3.728
59341W        W27570  36.116   3.992   3.267
59342W        W27571   1.962  18.470   3.199
59343W        W27572  18.091  43.757   0.000
59344W        W27573  30.395  39.430   3.686
59345W        W27574  27.659  23.374  11.197
59346W        W27575  32.998   9.925  14.795
59347W        W27576  29.115   7.989  12.514
59348W        W27577  44.720   9.704   0.315
59349W        W27578  25.686  34.369  14.152
59350W        W27579   4.860   4.088   3.723
59351W        W27580   3.843  25.633  14.142
59352W        W27581  12.590   9.704   0.224
59353W        W27582  30.892  16.589   1.743
59354W        W27583  28.142  41.967  12.949
59355W        W27584  33.972  37.364   5.108
59356W        W27585   7.394   2.646  10.731
59357W        W27586   9.675  20.047   0.409
59358W        W27587  31.094   1.972   4.041
59359W        W27588  14.606  24.584   4.385
59360W        W27589  26.105   8.697  12.885
59361W        W27590  35.589  12.245  14.032
59362W        W27591  40.568  12.584  14.357
59363W        W27592   2.422   6.429  11.811
59364W        W27593  32.546   7.160  12.587
59365W        W27594  36.628   9.738  12.559
59366W        W27595  15.213   1.741  10.563
59367W        W27596  18.099  33.902  11.548
59368W        W27597   2.674  39.357   9.733
59369W        W27598  11.174  27.441   4.154
59370W        W27599  22.231  33.189  10.786
59371W        W27600  42.856  15.054   4.517
59372W        W27601  12.476  44.435  11.874
59373W        W27602  41.162  29.252  11.872
59374W        W27603  16.350  25.675  12.446
59375W        W27604  20.036  35.858  13.511
59376W        W27605  26.627  17.962  10.722
59377W        W27606  43.120  32.205   4.787
59378W        W27607  33.340  39.936   4.019
59379W        W27608  37.980  29.951   0.463
59380W        W27609  27.695  18.317   1.024
59381W        W27610  21.576  21.261   2.295
59382W        W27611  38.735   4.956  11.012
59383W        W27612   8.746  41.791  13.940
59384W        W27613  37.074  28.043   2.312
59385W        W27614  10.855  23.042   0.256
59386W        W27615  39.631   9.281  13.980
59387W        W27616   4.192  25.275   1.285
59388W        W27617  33.502  10.394  10.686
59389W        W27618  32.823   1.851   3.666
59390W        W27619  22.575  25.155   4.659
59391W        W27620  13.092  10.423  14.258
59392W        W27621  37.463   6.676   9.885
59393W        W27622  33.955  43.074   4.150
59394W        W27623  31.693   3.876   1.849
59395W        W27624  27.792  19.783   4.959
59396W        W27625  31.177   1.418   0.834
59397W        W27626  25.733  42.371  12.593
59398W        W27627  16.154  27.482   2.015
59399W        W27628  42.417   0.901   4.634
59400W        W27629  10.668  38.804  13.492
59401W        W27630  29.927  40.693   4.092
59402W        W27631  30.459  20.692   3.898
59403W        W27632  15.191  24.151   0.930
59404W        W27633  23.983   6.978  11.591
59405W        W27634  27.505   2.995  11.050
59406W        W27635  21.588  25.183   4.688
59407W        W27636   0.778   1.316   0.697
59408W        W27637  10.266  16.191   0.780
59409W        W27638  44.706  26.971   2.383
59410W        W27639  10.599  31.720  13.985
59411W        W27640  25.042  25.668   1.827
59412W        W27641  44.796  22.413   2.020
59413W        W27642  25.966  17.984  13.929
59414W        W27643  39.869  19.919  13.195
59415W        W27644  11.639  23.463   4.134
59416W        W27645  13.637   9.686   1.966
59417W        W27646  30.206  25.009   1.245
59418W        W27647  14.239  19.773  11.171
59419W        W27648  20.736   1.162   4.129
59420W        W27649  36.840  35.988  14.320
59421W        W27650  41.839  43.051   0.020
59422W        W27651  12.521   8.800  14.949
59423W        W27652  21.501  12.873   2.298
59424W        W27653  23.203  31.028  13.367
59425W        W27654   8.616   3.765  13.009
59426W        W27655  11.109  43.233  11.515
59427W        W27656  44.915  35.176   4.525
59428W        W27657  36.184  42.040  10.811
59429W        W27658  19.219   5.136   2.654
59430W        W27659  43.730  40.565  13.862
59431W        W27660  32.006  37.277  14.770
59432W        W27661  27.508  43.308  12.811
59433W        W27662  27.716  18.877  12.020
59434W        W27663   0.024  27.141  11.303
59435W        W27664  31.076  12.247  11.649
59436W        W27665  19.711  18.896  13.459
59437W        W27666  40.990  42.982  11.539
59438W        W27667  30.037   3.924  12.605
59439W        W27668  39.951  21.188  12.453
59440W        W27669  24.859  41.837  11.760
59441W        W27670  12.696  35.077   0.030
59442W        W27671  11.638  42.499   2.408
59443W        W27672   7.411  31.179   5.166
59444W        W27673  38.835  21.226   0.275
59445W        W27674  22.533  11.819   0.469
59446W        W27675  19.487  13.309   3.261
59447W        W27676  26.592  15.743  13.212
59448W        W27677  40.236  21.045  10.721
59449W        W27678  10.435  31.709  11.607
59450W        W27679  35.248   0.291  10.666
59451W        W27680  28.937   7.433  13.349
59452W        W27681  20.765  43.231   3.193
59453W        W27682  17.247   7.504   5.011
59454W        W27683  21.343   0.613   0.774
59455W        W27684  19.621  23.263  10.883
59456W        W27685   6.826  40.316   2.519
59457W        W27686  39.019  19.223  11.591
59458W        W27687  37.015   1.930   0.834
59459W        W27688   7.204  37.777  13.768
59460W        W27689  15.761  44.560  13.086
59461W        W27690  40.853  29.936   0.528
59462W        W27691   9.332   6.356   3.702
59463W        W27692   1.045   1.252   0.246
59464W        W27693  21.679  43.793   3.171
59465W        W27694  39.330  35.004  14.393
59466W        W27695  15.050  15.454   4.761
59467W        W27696  35.966  13.527  14.870
59468W        W27697   0.029  32.379   0.953
59469W        W27698  15.835   0.829  12.078
59470W        W27699   5.137  17.221  13.877
59471W        W27700  36.899  42.985  13.851
59472W        W27701  35.633  24.877   2.771
59473W        W27702  39.995   7.411   2.375
59474W        W27703   1.676  28.887  11.025
59475W        W27704  38.588  34.399  14.409
59476W        W27705  30.983  24.780  12.872
59477W        W27706  33.993  28.124   3.365
59478W        W27707  10.183  40.508   4.979
59479W        W27708  36.854  42.081  14.049
59480W        W27709  36.369  23.455   0.277
59481W        W27710  28.826  28.632  12.906
59482W        W27711  15.207   9.621  12.956
59483W        W27712  23.633  21.768  13.893
59484W        W27713  35.051  12.624   3.030
59485W        W27714  40.844  29.070  11.473
59486W        W27715  34.988   5.516  13.478
59487W        W27716   1.710  10.936  11.182
59488W        W27717  31.673  13.279  12.095
59489W        W27718  20.545  31.110  11.651
59490W        W27719  28.046  12.789   0.522
59491W        W27720  27.420  37.793   2.713
59492W        W27721   0.408  31.538   0.523
59493W        W27722  11.209  17.874   0.563
59494W        W27723  41.839  35.112  11.389
59495W        W27724   2.847   0.506  13.899
59496W        W27725  24.048  11.089   4.559
59497W        W27726   6.236  13.773  14.308
59498W        W27727  36.085   0.045  14.302
59499W        W27728  29.291  23.662   9.906
59500W        W27729  29.857  11.955  11.428
59501W        W27730  35.091   2.516   3.147
59502W        W27731   0.772   6.713   1.193
59503W        W27732  35.846   6.301   2.359
59504W        W27733   4.189  21.232  12.534
59505W        W27734   2.470  39.070   0.798
59506W        W27735  22.997  25.735   0.980
59507W        W27736  23.803  41.201  13.578
59508W        W27737  24.342  10.173  10.848
59509W        W27738  12.802  29.664  12.205
59510W        W27739  38.509  42.566   0.403
59511W        W27740   0.565  20.693   4.827
59512W        W27741   8.755  32.468  13.483
59513W        W27742  38.433   5.279   4.667
59514W        W27743  24.935   7.771   3.276
59515W        W27744  12.357  39.044   4.116
59516W        W27745   2.780  36.427   3.913
59517W        W27746  42.572  17.413  11.588
59518W        W27747  26.690   5.989  14.843
59519W        W27748  41.511   1.466   3.220
59520W        W27749  36.095  34.864  12.401
59521W        W27750  44.745  43.490  13.359
59522W        W27751   8.911   0.863  10.528
59523W        W27752  21.287   4.409  10.344
59524W        W27753   1.281   4.412  11.656
59525W        W27754   6.211  12.075  11.516
59526W        W27755  35.257  31.569   0.703
59527W        W27756   1.100  11.080  11.662
59528W        W27757   9.835  44.733  11.469
59529W        W27758  29.270  33.375  12.509
59530W        W27759  16.738  43.800   4.749
59531W        W27760  11.190  35.019   3.716
59532W        W27761  20.308   2.537   3.184
59533W        W27762  17.331   2.851   2.465
59534W        W27763  29.993  21.197   1.247
59535W        W27764  44.198  14.516   1.575
59536W        W27765   9.358  26.736  11.107
59537W        W27766  26.008  21.294  10.563
59538W        W27767  29.199   5.857  14.331
59539W        W27768  13.495  19.566  14.758
59540W        W27769  28.709  13.538  14.459
59541W        W27770   2.937   9.856  14.470
59542W        W27771  12.010  32.987  12.106
59543W        W27772  44.837  21.993   3.802
59544W        W27773   2.608  44.946   2.254
59545W        W27774  36.444  29.669  11.266
59546W        W27775  27.058  41.095  12.112
59547W        W27776  12.554   6.924  13.683
59548W        W27777  28.405  27.503   1.815
59549W        W27778  20.233   9.163  10.789
59550W        W27779  19.987   9.789   1.854
59551W        W27780  20.993  17.117   2.967
59552W        W27781  22.681  17.208   1.820
59553W        W27782   3.767   7.342   4.429
59554W        W27783  16.605  35.374   1.040
59555W        W27784  38.637  15.790  12.344
59556W        W27785  18.920  32.774  14.453
59557W        W27786  13.690   4.730   3.262
59558W        W27787   8.920  31.521  14.505
59559W        W27788  13.691  36.004  14.055
59560W        W27789   5.826  29.399   4.134
59561W        W27790  16.171   2.747   3.533
59562W        W27791  25.559  44.231   0.991
59563W        W27792  32.878  43.839  11.146
59564W        W27793  17.183  13.907   3.227
59565W        W27794  30.873  28.912  13.301
59566W        W27795  16.221  17.178   1.944
59567W        W27796  24.270  39.262   3.885
59568W        W27797  30.574  20.993  12.672
59569W        W27798  25.067  11.939   2.063
59570W        W27799  36.370  28.435   4.805
59571W        W27800  18.895  39.949  12.148
59572W        W27801   4.898   0.562   5.043
59573W        W27802   0.349   4.815  13.550
59574W        W27803  33.090  33.305  11.957
59575W        W27804  24.609  29.427   4.219
59576W        W27805  12.530  18.237   1.451
59577W        W27806  12.242   8.106   4.593
59578W        W27807  23.987  18.962  13.925
59579W        W27808   6.084  20.034  12.966
59580W        W27809  24.949  41.747   1.396
59581W        W27810  18.486  15.712   0.880
59582W        W27811  31.293  10.731   4.650
59583W        W27812  32.682  44.340   0.689
59584W        W27813  23.501  23.953   1.163
59585W        W27814  40.409   1.889  14.750
59586W        W27815   2.295  30.445   3.207
59587W        W27816  32.032  34.187   0.804
59588W        W27817  44.462  38.256   1.892
59589W        W27818  10.315  36.465  10.603
59590W        W27819  23.815  28.393   3.953
59591W        W27820  28.158   1.668   3.920
59592W        W27821  25.491  17.064   1.374
59593W        W27822  35.543  32.686  13.302
59594W        W27823  18.068  24.800  14.326
59595W        W27824  36.614  28.584  14.283
59596W        W27825  36.503  20.234  14.820
59597W        W27826  24.430   5.462  12.897
59598W        W27827  30.902  19.944   1.901
59599W        W27828  22.593  37.577  10.716
59600W        W27829  34.485   4.709   0.747
59601W        W27830   6.389  15.598   4.363
59602W        W27831  25.674  22.181  13.456
59603W        W27832  10.746  21.553   4.543
59604W        W27833  18.629   7.249   4.548
59605W        W27834  40.596  24.472   4.771
59606W        W27835  16.126  23.299   4.073
59607W        W27836  39.071  43.707   1.682
59608W        W27837  10.135   5.171   4.693
59609W        W27838  34.685  40.900   4.015
59610W        W27839  26.661  29.531   3.792
59611W        W27840  23.403  33.899  10.154
59612W        W27841  25.299  10.810   3.724
59613W        W27842  44.491  22.448  14.790
59614W        W27843  18.269  13.245   0.312
59615W        W27844  41.364  39.598  10.697
59616W        W27845  40.973  17.666   4.394
59617W        W27846  25.788  41.258  14.833
59618W        W27847  28.047  19.267   0.954
59619W        W27848  20.089  35.142  13.933
59620W        W27849  13.333  36.981   4.685
59621W        W27850  42.726  21.759   2.112
59622W        W27851   9.928   3.295   4.622
59623W        W27852  25.984  36.665  13.074
59624W        W27853  40.381   5.144   4.569
59625W        W27854  22.311  12.321   1.694
59626W        W27855  12.750   4.771   4.757
59627W        W27856  37.923  25.462  14.310
59628W        W27857  18.290  37.903  11.064
59629W        W27858  44.540  32.372   4.684
59630W        W27859  41.968   2.881  13.938
59631W        W27860  18.258  20.724  11.120
59632W        W27861  14.141   6.906  12.241
59633W        W27862  33.891  19.375  11.872
59634W        W27863  34.608  24.296  11.115
59635W        W27864  27.693  18.249  13.365
59636W        W27865  18.285  33.771   4.232
59637W        W27866  40.481   2.912   1.166
59638W        W27867   7.449  21.639  11.519
59639W        W27868  29.088  23.957   4.722
59640W        W27869  27.442  33.705   2.673
59641W        W27870  24.231  42.791  13.096
59642W        W27871  21.779   6.907   4.597
59643W        W27872  34.499   4.853   3.722
59644W        W27873  21.483  21.234   4.238
59645W        W27874  32.814   2.331  13.515
59646W        W27875   8.069   4.302  10.357
59647W        W27876  29.818   5.994   5.012
59648W        W27877  26.083  40.547   3.721
59649W        W27878   8.426   4.232   1.809
59650W        W27879  30.137  18.827   0.931
59651W        W27880  40.032  39.186   3.471
59652W        W27881  16.486  42.819  12.081
59653W        W27882   1.946  17.632  14.497
59654W        W27883  30.387  42.854   4.108
59655W        W27884   0.860   7.932  12.383
59656W        W27885   6.283  37.632   3.744
59657W        W27886   2.471  30.457   1.710
59658W        W27887  42.602   6.267  12.108
59659W        W27888   2.216  21.069   3.724
59660W        W27889  42.013  33.005  13.507
59661W        W27890  24.226  21.964   2.816
59662W        W27891  11.678  28.126   1.061
59663W        W27892  34.936  17.645   4.188
59664W        W27893  15.044  30.993  12.508
59665W        W27894  28.486  15.351  12.663
59666W        W27895  35.970  37.030  12.075
59667W        W27896   2.533  25.066   3.364
59668W        W27897  34.131  32.512  14.563
59669W        W27898  31.514  37.905   1.329
59670W        W27899  22.164   2.249   3.083
59671W        W27900  42.361  29.598   3.700
59672W        W27901  28.308   7.540  12.526
59673W        W27902   7.142  42.269  11.988
59674W        W27903  14.920  40.528   0.886
59675W        W27904  33.572   4.831   4.934
59676W        W27905  40.982   8.952   0.370
59677W        W27906   1.309  23.765   3.690
59678W        W27907   6.187   2.307  12.560
59679W        W27908  34.927  22.075  14.981
59680W        W27909  16.243   6.861  14.087
59681W        W27910   5.256   6.349  10.943
59682W        W27911  34.067  10.525   9.831
59683W        W27912  36.980  39.922   2.782
59684W        W27913  17.220  27.682  14.769
59685W        W27914  12.243  10.189   4.447
59686W        W27915  35.331  24.736   4.129
59687W        W27916  28.096  34.996   3.665
59688W        W27917  18.603   7.013   0.261
59689W        W27918  31.041   3.968   2.674
59690W        W27919  14.755   4.909   4.730
59691W        W27920   8.271  14.599   2.890
59692W        W27921  16.139   3.412  11.150
59693W        W27922   6.606  29.834   1.311
59694W        W27923  21.361  39.022  12.030
59695W        W27924  12.239  31.371  13.895
59696W        W27925  44.045  38.451  14.710
59697W        W27926  42.845   5.405  10.720
59698W        W27927  39.896  10.108  12.025
59699W        W27928  43.790  22.137  12.801
59700W        W27929  36.462   2.518  13.950
59701W        W27930  17.201   0.843  10.331
59702W        W27931  40.343  36.869  14.524
59703W        W27932  37.475  18.381   1.935
59704W        W27933  16.330   5.491  11.266
59705W        W27934   2.292  42.978   0.693
59706W        W27935  13.538  20.743   3.409
59707W        W27936   2.597   9.309  13.473
59708W        W27937  28.101  21.777   2.946
59709W        W27938   6.218  18.344   1.945
59710W        W27939  34.394  37.572  13.857
59711W        W27940  23.978  14.840   0.816
59712W        W27941  18.175  42.966  10.611
59713W        W27942  39.078  34.959   0.050
59714W        W27943  12.448  22.141  11.574
59715W        W27944  31.195  33.528   3.302
59716W        W27945  24.501  40.732  12.645
59717W        W27946  38.474  19.718   3.336
59718W        W27947   1.374  28.177   1.447
59719W        W27948  44.294   5.690  12.211
59720W        W27949   4.876  16.068  13.538
59721W        W27950  42.847  16.986  12.087
59722W        W27951  17.678  28.676   2.818
59723W        W27952  25.232  14.585  11.231
59724W        W27953   6.422  40.151   4.875
59725W        W27954  42.356  40.056  11.590
59726W        W27955  36.274  44.465   2.743
59727W        W27956  34.929  41.489  11.929
59728W        W27957   7.060  36.033   0.016
59729W        W27958  31.501  25.979   3.867
59730W        W27959  28.058  23.138   2.660
59731W        W27960   7.414  34.712  12.969
59732W        W27961  11.648   2.731  11.587
59733W        W27962   0.405  36.505  12.980
59734W        W27963  32.027  31.721  11.096
59735W        W27964   8.546  41.108  12.419
59736W        W27965   9.671  11.149  12.973
59737W        W27966   6.823  31.128  12.963
59738W        W27967   6.381  32.848  14.289
59739W        W27968   4.968  24.712   0.279
59740W        W27969  19.961  30.910  13.871
59741W        W27970  17.714  32.460  12.945
59742W        W27971  12.760   8.336  14.918
59743W        W27972  27.493  34.888  14.800
59744W        W27973  38.062   7.586  11.541
59745W        W27974  33.985   5.220   3.977
59746W        W27975   4.689  31.298  14.943
59747W        W27976  10.274  25.473  14.872
59748W        W27977  23.893  27.862  12.900
59749W        W27978   6.936  35.960  14.090
59750W        W27979  21.686  10.263  13.751
59751W        W27980  33.512   0.496  12.616
59752W        W27981  23.722  11.851   0.155
59753W        W27982  28.903   3.456   1.545
59754W        W27983   4.832  23.175  12.019
59755W        W27984  29.153  32.898   2.228
59756W        W27985  39.005  12.343  13.842
59757W        W27986  25.627   1.409  13.328
59758W        W27987   0.590  15.930  14.264
59759W        W27988  35.361   5.321   3.391
59760W        W27989  21.157  37.403   1.727
59761W        W27990  40.022  23.572   4.249
59762W        W27991  32.802  43.843  14.010
59763W        W27992  35.907  43.163   4.982
59764W        W27993  20.245  33.802  11.529
59765W        W27994  34.774  17.920   9.955
59766W        W27995  10.874  12.389  11.961
59767W        W27996  28.252  32.464   0.688
59768W        W27997  30.471  38.802  10.678
59769W        W27998  31.630  40.341  13.837
59770W        W27999  25.038  44.558   3.649
59771W        W28000   9.320   7.928  13.972
59772W        W28001  40.134  21.334  11.993
59773W        W28002  44.792  14.036   2.744
59774W        W28003  16.759  33.980   2.205
59775W        W28004  35.541  16.343  13.023
59776W        W28005  40.055  40.642  13.740
59777W        W28006   5.886  30.688  11.165
59778W        W28007  17.618  26.829  10.515
59779W        W28008  31.420  15.154  13.522
59780W        W28009  19.547  38.885  10.698
59781W        W28010   3.815  11.457  11.678
59782W        W28011  23.332  21.731   1.434
59783W        W28012   0.734   5.049  13.803
59784W        W28013  17.696  44.047  14.739
59785W        W28014  11.692  31.197  11.701
59786W        W28015  26.830   7.726   3.616
59787W        W28016  43.932  11.006   2.690
59788W        W28017  17.909   7.098  14.386
59789W        W28018  30.633  27.519   3.226
59790W        W28019  14.323  40.071  11.040
59791W        W28020   2.999  27.197   3.386
59792W        W28021  43.025  19.865  12.142
59793W        W28022  39.188   2.696  11.531
59794W        W28023   5.186  27.784   1.960
59795W        W28024  26.723  18.023   3.157
59796W        W28025   0.239  16.074   1.666
59797W        W28026  17.967  14.043  14.703
59798W        W28027   5.926  24.064  14.457
59799W        W28028  28.629   6.411   2.522
59800W        W28029  21.115   9.088   2.336
59801W        W28030  38.416  28.129   1.538
59802W        W28031  15.196   8.029   3.295
59803W        W28032  33.857   4.774   3.760
59804W        W28033  20.725  41.779  14.969
59805W        W28034  36.363  26.947  10.726
59806W        W28035  11.787   1.420   4.880
59807W        W28036   6.133  29.362  10.846
59808W        W28037   9.242  12.293  12.413
59809W        W28038  21.626   0.925  13.041
59810W        W28039  20.253  44.831  14.960
59811W        W28040   6.781  26.504  11.955
59812W        W28041  42.512  44.741  11.943
59813W        W28042  11.192  22.502   3.084
59814W        W28043  39.875  22.009  13.078
59815W        W28044  33.503  21.338   1.791
59816W        W28045  39.382   4.701   4.259
59817W        W28046  25.384  10.808   4.616
59818W        W28047   6.769  40.073   1.875
59819W        W28048  11.217  21.300  14.776
59820W        W28049  31.970  25.190   2.964
59821W        W28050  19.273   2.912  10.635
59822W        W28051  18.767  10.667  11.188
59823W        W28052  13.637  20.006  10.568
59824W        W28053  12.599  17.675  11.206
59825W        W28054  25.176  39.105   1.443
59826W        W28055  21.773   0.310  11.090
59827W        W28056  25.220  35.372   4.121
59828W        W28057  40.773  18.266   1.747
59829W        W28058  43.875  21.608  12.323
59830W        W28059   8.272  44.031  13.457
59831W        W28060  40.808  29.144   1.732
59832W        W28061   2.859   3.123   2.838
59833W        W28062  37.399  36.700   3.221
59834W        W28063   7.658  28.143   3.293
59835W        W28064  30.630  21.604  11.137
59836W        W28065  13.336  21.299  11.652
59837W        W28066  20.103  30.043  11.859
59838W        W28067   5.023  37.127  10.772
59839W        W28068  43.426  18.417   3.800
59840W        W28069   8.237  14.579  12.540
59841W        W28070  15.727  21.083  11.848
59842W        W28071   8.980  40.039   2.365
59843W        W28072  13.065  33.650  12.944
59844W        W28073  40.944  19.444  12.190
59845W        W28074  43.752  11.846   3.396
59846W        W28075  37.978  15.296  10.732
59847W        W28076  27.575  12.874   1.303
59848W        W28077  12.074  13.122   5.501
59849W        W28078  25.567  34.457   3.102
59850W        W28079   9.901  38.241   3.681
59851W        W28080  19.140  22.526   4.201
59852W        W28081  17.590  14.037  12.347
59853W        W28082  36.554  22.121   1.684
59854W        W28083   0.099  24.643  12.948
59855W        W28084  43.271   5.623   2.402
59856W        W28085  16.343   6.262  12.842
59857W        W28086  42.337  22.928   0.866
59858W        W28087   5.558  31.892  12.495
59859W        W28088  34.044  20.048   2.374
59860W        W28089  36.612  39.955  14.425
59861W        W28090  18.111  21.723  13.477
59862W        W28091  37.381  29.572   9.805
59863W        W28092  27.581  42.429   1.773
59864W        W28093  38.544  35.771   3.601
59865W        W28094  20.067  36.440   3.350
59866W        W28095  12.709  30.089   0.477
59867W        W28096  12.276   1.684  12.097
59868W        W28097  25.822  30.066   2.828
59869W        W28098  10.439  24.499   9.957
59870W        W28099  21.575  40.223   1.857
59871W        W28100  30.642  29.308  13.082
59872W        W28101  36.773  37.926  12.010
59873W        W28102  17.290   3.838   1.194
59874W        W28103  21.684  42.213  12.203
59875W        W28104  20.130  32.993  13.592
59876W        W28105  10.856  27.777   3.135
59877W        W28106  13.287  41.285  13.967
59878W        W28107  10.160  38.048  12.587
59879W        W28108  36.659   2.361  12.116
59880W        W28109  15.260  20.676   9.741
59881W        W28110  38.207   3.558  12.932
59882W        W28111  17.411  20.834  12.887
59883W        W28112  15.151   5.734  10.390
59884W        W28113  21.128  22.673  10.659
59885W        W28114   6.904  32.416   0.915
59886W        W28115   2.767  12.245  12.089
59887W        W28116  21.001  30.635  13.317
59888W        W28117   9.357  43.247   1.899
59889W        W28118   1.898   5.089   3.883
59890W        W28119  20.546  29.646   0.126
59891W        W28120  11.691  36.860  11.436
59892W        W28121  12.952  28.262  14.758
59893W        W28122  23.416  35.861  14.954
59894W        W28123  41.152  40.441   4.510
59895W        W28124  44.972   3.404   1.816
59896W        W28125   8.892  29.358   0.992
59897W        W28126  13.894  12.093   2.817
59898W        W28127  37.086   9.113   1.692
59899W        W28128   3.379   7.164   3.207
59900W        W28129  34.841  35.874   0.956
59901W        W28130  41.972  43.932   1.746
59902W        W28131  25.464   2.720  14.406
59903W        W28132  41.790  22.293   1.828
59904W        W28133  41.067  29.986   1.839
59905W        W28134  21.742  25.191   1.244
59906W        W28135   9.830  42.894   4.664
59907W        W28136  17.808   4.024  11.412
59908W        W28137   4.422  23.707  11.516
59909W        W28138  35.519  42.737   1.944
59910W        W28139  14.618  37.839   1.658
59911W        W28140  35.805  30.753  11.513
59912W        W28141  16.801  30.950  11.624
59913W        W28142  36.992  31.823   1.798
59914W        W28143  16.304  29.150   2.218
59915W        W28144  23.569  10.204  12.405
59916W        W28145  37.365  16.756  12.610
59917W        W28146  33.868  27.483   4.146
59918W        W28147   2.366   2.341  13.408
59919W        W28148   6.666  41.351   0.403
59920W        W28149   7.119  13.602   4.100
59921W        W28150  16.307  18.607   2.362
59922W        W28151   8.414  15.465   1.787
59923W        W28152   0.833  29.508   2.157
59924W        W28153  10.590  22.335  10.275
59925W        W28154  30.563  12.241  10.587
59926W        W28155  30.333  39.934  12.128
59927W        W28156  39.465   2.099   1.859
59928W        W28157  31.008   2.685  12.010
59929W        W28158  10.469  38.773  13.010
59930W        W28159  11.476  31.689   2.183
59931W        W28160  38.314  10.896  14.985
59932W        W28161  36.252  31.610  12.892
59933W        W28162   8.182   2.928  12.971
59934W        W28163   7.373  44.897  12.856
59935W        W28164  43.313  17.315   0.335
59936W        W28165  33.520   3.775   1.770
59937W        W28166  14.425  32.335  13.260
59938W        W28167   5.799   3.796  10.688
59939W        W28168   4.892  42.399  11.586
59940W        W28169  38.877  10.835  12.992
59941W        W28170  14.576  37.877   2.927
59942W        W28171  14.293   5.825   4.845
59943W        W28172  42.950  37.103   4.225
59944W        W28173  22.200   8.286  10.666
59945W        W28174  30.452  28.940  11.705
59946W        W28175   5.183  28.446  12.395
59947W        W28176  19.597  36.859  10.759
59948W        W28177  38.844  42.813   3.237
59949W        W28178   5.935  40.471   4.205
59950W        W28179  41.508  28.981   5.088
59951W        W28180  17.435  12.225  11.512
59952W        W28181  18.076   1.331   2.217
59953W        W28182  17.667   7.354   0.071
59954W        W28183  36.863  39.953   1.867
59955W        W28184  33.652   5.806  11.967
59956W        W28185  38.862  34.379  10.113
59957W        W28186   0.962  24.104  13.068
59958W        W28187  38.770   9.396   3.709
59959W        W28188  12.869  44.907  11.921
59960W        W28189  34.883  32.442   3.171
59961W        W28190  22.399  28.977   5.205
59962W        W28191   5.941  44.783   2.394
59963W        W28192   4.444  32.589  10.450
59964W        W28193  37.919   3.354  11.564
59965W        W28194  27.392  22.943   1.865
59966W        W28195  16.650  34.852  11.255
59967W        W28196   8.185  36.939  13.709
59968W        W28197  25.345  22.054  12.109
59969W        W28198  40.659  20.638   1.864
59970W        W28199  38.822  29.596  13.356
59971W        W28200   1.708   6.132   3.188
59972W        W28201   5.612  27.951  14.311
59973W        W28202  44.827  19.300  12.325
59974W        W28203  11.337  12.679  14.887
59975W        W28204  15.806  16.585   3.161
59976W        W28205  41.332  32.084  10.347
59977W        W28206  12.628   3.961  11.517
59978W        W28207  10.794  17.208   4.281
59979W        W28208  28.144   5.006  13.508
59980W        W28209  18.745  17.837  11.166
59981W        W28210   7.658  38.362   1.003
59982W        W28211  18.240  21.174   0.346
59983W        W28212  22.226  36.301  13.456
59984W        W28213  23.046   9.649   0.339
59985W        W28214   6.443  18.802   3.170
59986W        W28215  26.068   8.117  12.100
59987W        W28216  29.394   1.471   4.629
59988W        W28217  28.246  13.194   2.929
59989W        W28218  10.885  25.901  10.703
59990W        W28219  43.194  24.883   3.844
59991W        W28220  40.870  17.544   1.318
59992W        W28221  33.035  43.299  14.299
59993W        W28222  19.514  11.733   2.310
59994W        W28223  32.918   4.721   0.359
59995W        W28224  31.896  16.035   2.435
59996W        W28225  16.775   7.211   0.507
59997W        W28226   6.307  42.366   0.810
59998W        W28227   7.740  25.177   4.731
59999W        W28228  43.742  14.313  11.030
60000W        W28229   5.467  28.620  10.895
60001W        W28230  17.862  29.876  10.952
60002W        W28231  31.205  29.281   3.088
60003W        W28232  33.868   8.947  14.836
60004W        W28233  17.139  11.089   4.678
60005W        W28234   6.378  28.607   1.780
60006W        W28235  37.201   3.300  13.830
60007W        W28236  35.610  44.932   2.412
60008W        W28237   7.645  44.152   1.710
60009W        W28238   3.090  13.809   2.540
60010W        W28239  23.202  10.324   2.004
60011W        W28240  22.436   9.078  13.578
60012W        W28241  26.196  40.441  14.477
60013W        W28242   8.679  29.611  11.664
60014W        W28243  32.893  11.347   4.593
60015W        W28244  10.613  23.235   4.699
60016W        W28245  39.619  36.051  11.459
60017W        W28246  19.649  27.769   3.706
60018W        W28247  16.674  10.292   4.427
60019W        W28248   6.691  33.512  12.956
60020W        W28249  28.384  36.515  13.007
60021W        W28250  20.823  26.559   4.380
60022W        W28251  25.542  34.852   0.207
60023W        W28252  44.917   7.455  14.733
60024W        W28253  21.927  18.659   4.094
60025W        W28254  30.227  26.107   0.414
60026W        W28255  29.102  20.566   2.430
60027W        W28256  16.782  12.419  12.477
60028W        W28257  16.998  31.911   0.286
60029W        W28258  11.513  11.960   3.229
60030W        W28259  40.480  20.571  14.054
60031W        W28260   5.429  23.695  13.073
60032W        W28261  10.511   0.419  12.020
60033W        W28262   6.395   5.924   1.909
60034W        W28263   7.998  41.293   1.282
60035W        W28264  24.008  39.610  14.483
60036W        W28265   7.698  38.063   2.812
60037W        W28266  22.635  23.275   0.856
60038W        W28267  15.818  26.981   2.717
60039W        W28268   6.840  36.872   1.244
60040W        W28269  41.481  31.139  11.102
60041W        W28270  25.718  29.208   0.646
60042W        W28271   8.187  18.039  10.765
60043W        W28272  25.635  15.774  10.705
60044W        W28273   2.647  29.590   1.291
60045W        W28274  18.571  22.123   3.612
60046W        W28275   6.430   8.576  11.165
60047W        W28276   5.955  37.229   1.652
60048W        W28277  44.532  10.887   0.089
60049W        W28278  24.714  40.230   4.523
60050W        W28279  12.675  17.280  13.929
60051W        W28280  41.582  10.285   2.438
60052W        W28281  42.927  38.271   0.345
60053W        W28282  17.467  16.905  10.615
60054W        W28283  27.343   4.226  11.608
60055W        W28284  27.500  44.784  12.998
60056W        W28285  30.165  32.233   1.480
60057W        W28286  27.077  20.559  13.718
60058W        W28287  13.367   5.879   4.114
60059W        W28288  15.657   5.273  14.553
60060W        W28289  37.250  14.111   0.901
60061W        W28290  33.784  18.364   0.434
60062W        W28291  43.005  42.352  12.838
60063W        W28292  24.512   7.467  12.155
60064W        W28293  16.276   7.643  12.945
60065W        W28294  39.083  10.368  13.074
60066W        W28295  12.693   7.399  13.505
60067W        W28296   8.362  32.915   4.596
60068W        W28297  39.958  23.946   1.037
60069W        W28298   3.992  35.934  12.969
60070W        W28299  35.959  32.819   0.957
60071W        W28300  16.101  25.240  12.542
60072W        W28301   2.894   9.790   1.976
60073W        W28302  31.893  27.170  10.815
60074W        W28303  30.542  34.926  13.165
60075W        W28304  25.969  40.540  13.988
60076W        W28305  12.889   3.496   0.877
60077W        W28306  37.003   3.490  14.304
60078W        W28307  38.936  23.698  12.878
60079W        W28308   6.914  27.601   2.969
60080W        W28309  20.233   2.708  10.956
60081W        W28310  12.147  17.218   1.978
60082W        W28311  10.851  37.983  13.077
60083W        W28312  33.879  41.283  14.337
60084W        W28313  25.104  19.022   4.160
60085W        W28314  37.493  10.010   3.288
60086W        W28315  20.283  23.474   0.476
60087W        W28316  43.469  25.632  12.556
60088W        W28317  14.596  16.118  11.383
60089W        W28318  40.984   4.895   0.722
60090W        W28319   3.426  43.431   2.483
60091W        W28320  43.914  23.115  14.896
60092W        W28321   5.294  43.310  14.291
60093W        W28322  13.619  33.172  13.428
60094W        W28323  13.349  39.375   3.151
60095W        W28324  10.351  28.462   4.155
60096W        W28325  32.850  30.393   2.651
60097W        W28326  34.361   7.282  12.002
60098W        W28327   6.693  20.998  11.662
60099W        W28328  44.334  18.085   1.170
60100W        W28329  30.992  13.133   1.708
60101W        W28330  30.667  37.473  14.538
60102W        W28331  41.002  15.565   0.372
60103W        W28332   4.308  33.103  14.663
60104W        W28333  38.448  33.520   5.124
60105W        W28334  43.809  18.358   4.564
60106W        W28335  15.250  32.605  11.425
60107W        W28336  29.628  32.530   0.918
60108W        W28337  36.666  21.461  12.451
60109W        W28338   7.618   0.333  14.745
60110W        W28339  35.903  38.738  11.713
60111W        W28340  17.102   6.846  10.746
60112W        W28341  14.375  29.098   4.581
60113W        W28342   4.190  32.635   0.491
60114W        W28343  28.907  31.774   2.682
60115W        W28344  38.874  35.203  10.742
60116W        W28345   7.419  37.854   1.988
60117W        W28346  20.744  36.364  13.629
60118W        W28347  11.133  41.545   2.147
60119W        W28348  36.198  20.711  13.445
60120W        W28349  41.707  29.720  11.188
60121W        W28350  32.419   7.706   4.069
60122W        W28351  17.629  33.302   0.326
60123W        W28352  32.435  38.094   3.208
60124W        W28353  41.501  31.044  11.610
60125W        W28354   5.480  26.000   2.302
60126W        W28355  25.170   9.275   3.297
60127W        W28356   1.430   4.938   3.140
60128W        W28357   1.630  24.505  11.084
60129W        W28358  28.175   3.830  12.640
60130W        W28359   0.026  11.608  11.134
60131W        W28360  34.451   3.531  12.027
60132W        W28361  27.230   1.761  13.931
60133W        W28362  28.246  38.460  10.732
60134W        W28363  10.334  23.214   2.701
60135W        W28364  32.721  35.347   2.145
60136W        W28365  31.656  12.784  11.946
60137W        W28366  33.183  28.510   4.642
60138W        W28367  29.460   2.356   4.157
60139W        W28368  43.096  14.888   1.762
60140W        W28369  38.136  21.978   3.250
60141W        W28370  11.427  42.844  11.483
60142W        W28371   5.853  40.232  13.546
60143W        W28372   1.497   5.840   2.795
60144W        W28373  12.698  40.954  11.244
60145W        W28374   2.461   5.784  14.917
60146W        W28375  34.421  17.761   2.136
60147W        W28376  34.653  40.576   2.583
60148W        W28377   0.232   1.503  14.836
60149W        W28378  27.266  15.861  14.574
60150W        W28379  27.576  23.601   0.365
60151W        W28380  17.231  36.889   4.825
60152W        W28381   0.945   0.424   0.662
60153W        W28382  24.126  11.702   3.879
60154W        W28383   7.753   3.188   2.312
60155W        W28384  12.368  28.195  12.851
60156W        W28385  30.177  30.134  14.217
60157W        W28386  17.135  25.135  10.727
60158W        W28387  19.685  34.843   4.624
60159W        W28388  13.203   3.669   3.454
60160W        W28389  43.237  13.616  10.705
60161W        W28390  42.553   9.718   3.664
60162W        W28391  41.647  12.201   1.755
60163W        W28392  37.588  21.230  13.398
60164W        W28393   0.081  34.533  12.963
60165W        W28394   2.746  10.082   3.993
60166W        W28395   9.413  17.735  12.983
60167W        W28396  23.432   2.456   3.530
60168W        W28397  26.681   0.963  11.506
60169W        W28398  41.031  40.765  12.452
60170W        W28399  38.743  33.481   4.208
60171W        W28400   0.090  22.070  12.566
60172W        W28401  13.484  43.533   4.506
60173W        W28402   9.251  24.923   4.154
60174W        W28403  19.668  24.986   0.833
60175W        W28404  42.777  28.300   3.705
60176W        W28405  30.938   1.178   3.415
60177W        W28406  18.243   0.224  14.825
60178W        W28407   4.738  24.406  10.649
60179W        W28408  35.880  27.026  13.610
60180W        W28409  15.509  25.156  14.303
60181W        W28410  41.161  33.585  11.827
60182W        W28411  15.851  18.145   1.454
60183W        W28412  39.083  12.120   4.567
60184W        W28413   1.315  42.473   2.795
60185W        W28414   0.747  21.974   0.365
60186W        W28415  10.145   2.703  11.106
60187W        W28416  29.588  44.483  10.140
60188W        W28417  41.144  44.587  14.279
60189W        W28418  35.538   2.035  13.435
60190W        W28419  15.235  32.502   1.709
60191W        W28420  14.433  11.699   3.147
60192W        W28421  24.908  32.644   3.225
60193W        W28422  39.960   4.660  12.982
60194W        W28423  22.083   7.769   0.967
60195W        W28424   7.116   9.232   3.750
60196W        W28425  13.507  22.074  12.637
60197W        W28426  29.454   6.559  10.442
60198W        W28427  37.855  27.138  11.915
60199W        W28428  32.836  12.846  11.359
60200W        W28429  21.536   9.580  14.337
60201W        W28430  24.127  27.545  14.361
60202W        W28431  17.735  12.271   0.344
60203W        W28432  37.981  37.247  14.853
60204W        W28433   6.414  14.586  12.261
60205W        W28434  40.074  32.132  10.708
60206W        W28435  17.179  22.791   3.719
60207W        W28436  11.168  30.184   0.966
60208W        W28437  25.199  42.112   0.987
60209W        W28438  19.626  24.313  10.088
60210W        W28439   6.525  41.780  13.617
60211W        W28440  20.977  12.899   2.418
60212W        W28441   3.241  44.357  12.763
60213W        W28442  30.337  34.444  13.163
60214W        W28443   3.835  10.279   4.306
60215W        W28444  13.104   2.886  14.858
60216W        W28445   0.434  35.843   0.749
60217W        W28446  28.055  44.822  11.773
60218W        W28447  10.201   2.921   3.098
60219W        W28448  40.377  38.059  11.199
60220W        W28449  27.504  43.027  14.325
60221W        W28450  26.949   7.671  14.314
60222W        W28451  34.258  29.078  11.565
60223W        W28452  28.652  12.234  12.468
60224W        W28453  33.514  13.565  12.264
60225W        W28454  10.276  44.235   1.311
60226W        W28455  16.335  44.265   1.825
60227W        W28456  10.393  24.407  14.803
60228W        W28457  32.517  23.293   3.333
60229W        W28458  37.547  25.461  13.918
60230W        W28459  29.631  22.140   3.196
60231W        W28460  43.897  33.209   3.856
60232W        W28461   9.367   7.849   1.457
60233W        W28462   5.753   2.045  14.941
60234W        W28463  25.529  10.674   0.890
60235W        W28464   5.491  32.063  13.617
60236W        W28465  13.885  27.219  12.896
60237W        W28466   4.159  20.089   2.495
60238W        W28467  11.418   0.493  14.758
60239W        W28468  16.782  14.238  11.876
60240W        W28469  42.799  16.853   0.018
60241W        W28470  12.739  39.757   0.923
60242W        W28471   6.193  17.773   3.222
60243W        W28472   2.000  29.909  13.345
60244W        W28473  38.399  44.654  14.448
60245W        W28474  27.246   8.838  10.714
60246W        W28475  29.148   0.936  10.627
60247W        W28476   9.721  41.104   4.086
60248W        W28477  11.308  34.466  13.055
60249W        W28478  36.051  28.502   3.777
60250W        W28479  35.467   4.428   0.050
60251W        W28480  12.168  10.166  11.115
60252W        W28481   7.413  12.840  10.661
60253W        W28482  14.225  41.961  13.442
60254W        W28483   9.750   8.101  14.216
60255W        W28484  37.250  31.198  14.733
60256W        W28485  22.677  44.522  14.852
60257W        W28486   5.846  10.485   4.045
60258W        W28487  25.643  21.355  13.066
60259W        W28488  44.998  31.515  10.564
60260W        W28489  36.501  25.084  10.376
60261W        W28490  34.078  24.261  11.977
60262W        W28491  35.469   5.296  12.844
60263W        W28492   7.890   0.704   5.150
60264W        W28493  38.326  17.597  13.060
60265W        W28494  31.358  36.509   4.313
60266W        W28495  41.210  26.875   2.363
60267W        W28496  10.770  23.779  11.722
60268W        W28497   0.812  33.866  13.010
60269W        W28498  37.966  16.321  12.603
60270W        W28499  44.802  37.914   3.590
60271W        W28500  28.387  27.844   2.265
60272W        W28501   5.364  38.254  13.991
60273W        W28502  26.027  38.343   2.699
60274W        W28503   1.423  35.864   3.155
60275W        W28504  18.653  26.660  13.046
60276W        W28505  36.316  22.032  11.184
60277W        W28506  38.220  18.660   1.277
60278W        W28507  39.386  38.448   3.576
60279W        W28508   9.173  32.002   4.098
60280W        W28509   1.765  41.552  12.392
60281W        W28510  18.602  36.414  11.118
60282W        W28511   7.347  28.115  11.177
60283W        W28512   0.849  18.533   1.903
60284W        W28513  11.298  20.449  12.384
60285W        W28514   0.659  43.311  13.489
60286W        W28515  40.038   5.282   0.802
60287W        W28516   8.251  37.867   0.278
60288W        W28517  40.061  20.479  11.229
60289W        W28518   9.614  36.924   1.561
60290W        W28519  19.174  12.383   1.894
60291W        W28520  16.306  44.998  14.325
60292W        W28521  41.497  15.605  13.363
60293W        W28522  19.043  25.686  11.437
60294W        W28523  18.639  37.453  14.107
60295W        W28524  18.065  10.913  14.874
60296W        W28525  16.742  23.485  12.621
60297W        W28526  24.747  16.290  11.660
60298W        W28527  19.114  12.772   2.239
60299W        W28528  19.039   8.712   3.695
60300W        W28529  36.552  22.164  14.813
60301W        W28530  27.750  11.807   3.610
60302W        W28531   9.841   4.003   2.414
60303W        W28532  18.218  43.153  11.108
60304W        W28533  15.665   8.160   4.059
60305W        W28534  37.646   7.188  12.989
60306W        W28535   5.244   2.267   0.995
60307W        W28536   6.008  42.958  11.660
60308W        W28537  14.178  23.711  13.442
60309W        W28538  23.656  43.553  13.823
60310W        W28539  30.509   3.431  10.515
60311W        W28540  25.690  27.259   1.309
60312W        W28541   2.111   7.931   0.219
60313W        W28542  27.084  38.527   1.247
60314W        W28543  17.678  42.996  11.977
60315W        W28544  18.124   5.134   3.776
60316W        W28545  29.888   6.618  10.734
60317W        W28546  23.601  27.059  13.339
60318W        W28547  22.604   0.971   0.350
60319W        W28548  13.140  38.577   2.779
60320W        W28549  18.786  41.291  14.181
60321W        W28550  10.143  19.237  11.652
60322W        W28551  23.505  30.900  14.390
60323W        W28552  40.101   0.996  14.262
60324W        W28553   7.902  40.466  10.566
60325W        W28554  24.551  39.105  10.632
60326W        W28555  41.102  25.261  12.471
60327W        W28556  21.388  31.497  13.223
60328W        W28557  42.248  10.175  12.499
60329W        W28558  10.323   3.349   2.792
60330W        W28559  34.447   0.786  14.755
60331W        W28560  23.456  26.460  14.868
60332W        W28561  24.664  24.519   4.157
60333W        W28562  12.545   6.264   0.815
60334W        W28563  40.488  30.365   3.275
60335W        W28564  27.783  31.568  11.690
60336W        W28565  27.040  33.177  12.213
60337W        W28566  23.978  12.280   3.985
60338W        W28567  27.052  31.754   3.353
60339W        W28568   1.836   1.120   0.225
60340W        W28569  17.840  38.052  12.411
60341W        W28570   3.900  17.275  10.917
60342W        W28571  21.990  30.629  10.796
60343W        W28572   1.029  12.167  12.443
60344W        W28573  24.901   7.815   0.252
60345W        W28574  41.975  24.997   2.119
60346W        W28575  31.117  28.981  14.277
60347W        W28576  31.558  23.508   0.085
60348W        W28577   2.271  20.337  13.548
60349W        W28578  28.526  17.488  11.996
60350W        W28579  40.547  13.554  12.373
60351W        W28580  21.010   3.885  13.141
60352W        W28581   1.815  10.204  10.726
60353W        W28582   2.434  40.394  11.928
60354W        W28583  33.377  14.136  12.872
60355W        W28584  43.242  41.470  14.872
60356W        W28585  29.843  39.006  14.017
60357W        W28586  24.288  16.656   0.476
60358W        W28587  19.270  37.271  12.420
60359W        W28588  34.903  22.748  11.298
60360W        W28589  30.264  21.964  11.046
60361W        W28590  24.464  14.239  11.195
60362W        W28591  36.861  25.278   1.894
60363W        W28592  33.146   3.476  11.417
60364W        W28593  35.418  22.498  14.280
60365W        W28594  18.849  10.130  11.215
60366W        W28595   8.131  40.586  14.296
60367W        W28596  23.211  28.992   4.530
60368W        W28597   2.511   3.683   3.656
60369W        W28598  29.373  19.670  11.819
60370W        W28599  43.267  12.696  10.724
60371W        W28600  33.682  15.100  13.918
60372W        W28601  31.154  35.605   1.209
60373W        W28602  14.778  38.372   4.603
60374W        W28603  34.450  19.227  11.530
60375W        W28604  21.929  41.923   2.867
60376W        W28605   5.085  11.162   3.233
60377W        W28606   1.146  44.161   0.871
60378W        W28607  26.354   3.465  11.284
60379W        W28608  35.233   7.711   3.705
60380W        W28609  38.381  44.340  13.527
60381W        W28610  33.970   4.269  13.564
60382W        W28611  10.757  41.502   2.686
60383W        W28612  37.910  35.115  13.822
60384W        W28613   9.067  20.779   1.443
60385W        W28614  18.125   5.394   0.076
60386W        W28615  44.982   2.120  14.241
60387W        W28616   0.265   8.223  13.885
60388W        W28617  20.620  27.516   3.557
60389W        W28618  32.822  21.457  12.489
60390W        W28619  39.486  12.799   4.056
60391W        W28620   5.236  16.298   1.417
60392W        W28621  32.412   5.974   4.540
60393W        W28622   4.804  40.867   4.362
60394W        W28623  10.698  21.419   1.847
60395W        W28624  26.130  18.117  13.332
60396W        W28625   3.884   7.196   4.933
60397W        W28626  44.404  10.315  13.431
60398W        W28627  32.231  39.976  10.135
60399W        W28628  22.443  19.295  13.967
60400W        W28629   9.530  11.414  11.487
60401W        W28630  15.712  22.675   3.856
60402W        W28631  43.528  17.120   2.277
60403W        W28632  32.145  39.773   2.876
60404W        W28633   5.994   5.004  10.616
60405W        W28634  11.343  25.221  13.492
60406W        W28635  41.826   7.645  14.349
60407W        W28636  28.325  22.979   1.628
60408W        W28637   5.175  36.952  11.426
60409W        W28638  34.753  10.636  14.509
60410W        W28639   2.025   6.494  10.908
60411W        W28640  30.540  29.489   2.689
60412W        W28641  16.541  25.966   1.253
60413W        W28642   4.223  21.291  11.667
60414W        W28643  41.091  42.512  14.911
60415W        W28644  23.824  12.583   3.102
60416W        W28645   1.158  33.613  14.708
60417W        W28646   9.771  16.992  13.972
60418W        W28647   9.442   8.359   1.396
60419W        W28648  24.120   6.662   3.196
60420W        W28649  30.445  42.294   3.569
60421W        W28650  13.592  28.453  11.178
60422W        W28651  20.859  41.784   4.950
60423W        W28652  20.498   8.099   3.906
60424W        W28653   3.833   9.824  12.930
60425W        W28654   0.359  12.459   2.418
60426W        W28655  30.528   5.411   1.831
60427W        W28656  18.599  23.940  13.461
60428W        W28657   1.766  19.574   2.164
60429W        W28658  26.478   8.619  13.235
60430W        W28659  44.764  16.567  13.477
60431W        W28660  17.220  18.377  13.900
60432W        W28661   2.322   6.764   0.905
60433W        W28662   2.398   9.426  12.910
60434W        W28663   3.773  25.050   2.718
60435W        W28664  35.669  30.628  12.110
60436W        W28665  42.573  33.116  13.837
60437W        W28666   2.964   3.891   4.653
60438W        W28667  22.110  11.429  14.946
60439W        W28668  34.889  31.170  11.560
60440W        W28669  35.230  11.356   2.878
60441W        W28670  24.755  35.640  14.888
60442W        W28671   9.485  20.592   1.175
60443W        W28672  21.783  10.159   1.904
60444W        W28673   8.111  17.583  14.251
60445W        W28674  31.127   8.190   0.864
60446W        W28675  28.674  43.812  13.527
60447W        W28676  14.298   2.819   3.393
60448W        W28677   5.360  19.135   2.737
60449W        W28678  43.377  21.552  10.654
60450W        W28679  29.619  28.976   3.618
60451W        W28680  12.819  39.360   3.251
60452W        W28681  32.533  35.356  11.510
60453W        W28682  10.108  33.564   1.518
60454W        W28683  23.842  26.105  13.477
60455W        W28684  30.338  37.788  14.321
60456W        W28685  19.179  20.631  13.426
60457W        W28686  34.010  41.347   3.871
60458W        W28687  34.323  21.656  11.180
60459W        W28688  33.048   9.302   2.367
60460W        W28689  41.539  23.821  11.534
60461W        W28690  36.360  14.651  13.140
60462W        W28691   2.535  43.255   3.229
60463W        W28692  42.449  37.260  12.007
60464W        W28693  13.363  26.198  11.008
60465W        W28694  22.770  10.308  10.607
60466W        W28695  40.449  13.592  13.805
60467W        W28696  28.383  22.216  11.104
60468W        W28697  37.566   7.455  11.597
60469W        W28698  15.777  44.270  12.123
60470W        W28699  20.613  17.908  12.834
60471W        W28700  30.371   0.853  13.398
60472W        W28701  41.240  21.166  14.520
60473W        W28702  10.366  41.049   1.197
60474W        W28703  17.991  11.778  12.128
60475W        W28704  35.761   7.409  13.776
60476W        W28705  22.270  35.041   1.288
60477W        W28706  27.075   3.333  12.541
60478W        W28707  42.143   2.190  10.736
60479W        W28708  10.578  25.479   3.628
60480W        W28709  42.107  13.738   2.812
60481W        W28710   2.126  16.215   0.959
60482W        W28711  24.196   9.739   1.508
60483W        W28712   1.763  15.231  11.303
60484W        W28713  22.517  29.111  13.068
60485W        W28714  23.397  37.525   4.424
60486W        W28715  42.289  32.929  12.462
60487W        W28716  24.164  22.058   3.662
60488W        W28717  20.247  39.589   4.576
60489W        W28718  18.230  15.836  11.713
60490W        W28719  40.055  33.463   2.422
60491W        W28720  20.274   3.686  11.808
60492W        W28721  16.676  11.257  13.216
60493W        W28722  39.107  26.629  14.858
60494W        W28723  26.923  10.389  13.770
60495W        W28724  14.423  29.100   2.258
60496W        W28725  32.027  37.930   1.488
60497W        W28726  22.914  27.214   1.365
60498W        W28727   4.299  32.125   0.314
60499W        W28728   2.396  34.885   5.338
60500W        W28729   4.762   1.313  14.905
60501W        W28730  14.267  31.986   4.856
60502W        W28731  13.731  35.347   2.103
60503W        W28732  26.801   7.904   0.778
60504W        W28733  32.171  25.468  12.092
60505W        W28734  37.990   6.987  10.697
60506W        W28735  43.729  27.569   2.153
60507W        W28736  29.461   8.110  14.077
60508W        W28737  13.258   2.363  14.911
60509W        W28738   3.391  37.375  13.604
60510W        W28739   3.434  11.786   0.723
60511W        W28740  18.616  11.800   2.803
60512W        W28741   4.009   8.849  12.629
60513W        W28742   8.924  30.604   2.388
60514W        W28743  12.225  20.820   2.882
60515W        W28744  24.161   7.182   3.187
60516W        W28745  31.661  40.779  12.132
60517W        W28746  39.767   9.784  14.015
60518W        W28747  12.715  30.031   0.988
60519W        W28748  19.804   8.937  14.530
60520W        W28749  29.403  22.726  10.821
60521W        W28750  33.375  24.465   0.431
60522W        W28751  20.279  22.995   2.664
60523W        W28752   8.736  16.232  13.069
60524W        W28753  30.535   4.430   4.689
60525W        W28754   2.910  31.185  12.722
60526W        W28755  12.701  26.679  10.592
60527W        W28756   9.264   1.775   4.780
60528W        W28757  27.243  25.862  14.924
60529W        W28758  40.404   1.950  10.320
60530W        W28759  18.643  34.870   3.274
60531W        W28760  21.923  33.921   3.090
60532W        W28761  16.775  14.975   2.841
60533W        W28762  36.323   6.118   3.333
60534W        W28763  29.114  43.770   2.152
60535W        W28764  11.496   4.561   1.377
60536W        W28765  31.676  10.537   0.502
60537W        W28766  31.170  26.526  11.457
60538W        W28767   4.378  14.728  13.897
60539W        W28768  29.491  40.346  14.928
60540W        W28769   7.251  10.067   2.186
60541W        W28770  16.796  20.934   0.360
60542W        W28771   0.432  43.438  11.082
60543W        W28772  17.519  35.870  13.051
60544W        W28773  15.854   0.952   3.508
60545W        W28774  21.246  12.146  11.050
60546W        W28775  31.812  33.472  11.598
60547W        W28776   7.566  22.903  14.744
60548W        W28777  35.590   6.816  11.367
60549W        W28778   5.674  40.896  13.043
60550W        W28779   8.808  26.248  14.970
60551W        W28780   4.359  21.593  10.390
60552W        W28781  15.702  39.180  13.459
60553W        W28782  43.322   2.953   3.697
60554W        W28783  12.348  16.166  12.539
60555W        W28784   5.782  12.024  13.362
60556W        W28785  29.079  11.787   3.339
60557W        W28786  39.264   0.748   0.803
60558W        W28787  31.989  18.834   3.678
60559W        W28788  38.006  10.494  14.858
60560W        W28789  20.435   5.960  14.712
60561W        W28790  36.481  25.993   2.690
60562W        W28791   7.751   0.384   1.337
60563W        W28792  34.025  26.777  11.408
60564W        W28793  30.122  34.985   4.794
60565W        W28794  24.674  35.938   2.320
60566W        W28795  18.765  43.070  14.472
60567W        W28796   4.364   1.203   4.577
60568W        W28797  18.241   6.307  12.427
60569W        W28798  30.160   4.408  13.488
60570W        W28799  30.602   7.652  13.834
60571W        W28800  21.237   9.106  11.892
60572W        W28801  29.332   2.911  14.831
60573W        W28802  13.787   5.772  12.971
60574W        W28803  25.475  35.653  10.673
60575W        W28804  21.782  42.004   0.906
60576W        W28805  17.321  21.490  12.137
60577W        W28806  18.670  41.879   1.779
60578W        W28807  38.430   1.699  11.953
60579W        W28808  35.947  23.169  13.378
60580W        W28809   4.881  22.289   4.233
60581W        W28810  24.182   7.275   4.963
60582W        W28811  20.220   9.943   3.265
60583W        W28812  44.265  39.776   2.847
60584W        W28813  18.221  44.819   3.805
60585W        W28814   2.468   3.172  11.594
60586W        W28815  29.481  41.455  11.936
60587W        W28816  18.545   6.180  14.942
60588W        W28817  26.531  34.947  14.870
60589W        W28818  22.476   6.923   4.297
60590W        W28819  10.893  24.588   0.118
60591W        W28820  10.694  12.723   2.637
60592W        W28821  23.293  10.211  10.601
60593W        W28822  13.392  35.352  12.763
60594W        W28823  16.982   4.448   1.653
60595W        W28824  24.521  20.210   4.033
60596W        W28825  43.069  35.658   0.657
60597W        W28826  36.958  36.951   1.058
60598W        W28827  24.578   4.416  14.805
60599W        W28828  13.796  22.051   3.971
60600W        W28829  26.878   9.836   0.464
60601W        W28830  19.452  17.789  11.975
60602W        W28831  43.275   6.052  13.325
60603W        W28832  41.752  30.158   2.461
60604W        W28833  22.458   1.388   2.825
60605W        W28834  42.056   1.573   1.358
60606W        W28835   1.682  35.377   2.314
60607W        W28836  25.318  41.738  11.026
60608W        W28837  16.898  16.158   3.780
60609W        W28838  38.049   9.686   4.350
60610W        W28839  19.060   6.803   0.342
60611W        W28840  34.450  14.048   2.102
60612W        W28841  16.034  29.924  14.376
60613W        W28842  13.112  36.395  13.482
60614W        W28843  26.244  31.434  13.822
60615W        W28844  10.187  44.671  11.842
60616W        W28845  17.180  29.374  13.435
60617W        W28846  34.833  27.433  12.861
60618W        W28847   8.596  23.736  12.586
60619W        W28848  11.708  17.867   0.752
60620W        W28849  10.787   9.383   5.294
60621W        W28850  37.523   0.920   3.087
60622W        W28851  11.621  40.135   4.879
60623W        W28852  43.849  44.519  14.528
60624W        W28853   0.006  13.067   4.541
60625W        W28854   8.724  11.583   1.782
60626W        W28855  40.166  22.212   2.712
60627W        W28856  41.084  28.017   1.934
60628W        W28857  21.745  22.231  11.747
60629W        W28858  13.863  19.286  10.169
60630W        W28859  44.906  43.052  14.031
60631W        W28860  33.664  34.511   2.708
60632W        W28861  18.805  29.842   5.280
60633W        W28862  14.098   0.889   4.436
60634W        W28863  32.698  17.316   1.291
60635W        W28864  26.710  21.585  11.182
60636W        W28865  32.129  30.081   4.760
60637W        W28866   5.685  37.943   4.485
60638W        W28867  41.563   5.372   2.187
60639W        W28868   1.863  37.657  11.542
60640W        W28869   2.369   1.337  12.493
60641W        W28870  27.092   3.885   3.008
60642W        W28871   3.166  17.343  14.191
60643W        W28872  13.906   4.363   2.182
60644W        W28873   6.227   1.264   2.685
60645W        W28874  11.884  33.564  12.119
60646W        W28875  20.074  10.319   2.344
60647W        W28876  33.873  41.875  13.821
60648W        W28877  23.680  20.559  14.287
60649W        W28878   1.013  16.518  11.201
60650W        W28879  19.706  39.990  11.655
60651W        W28880  18.721  11.137  12.531
60652W        W28881  27.742  13.345  11.939
60653W        W28882  23.252  19.753  12.906
60654W        W28883  10.825   7.578  14.522
60655W        W28884  35.405  30.022  14.746
60656W        W28885  23.115  13.837   0.685
60657W        W28886  12.656  23.313  13.747
60658W        W28887  12.399  17.224   0.381
60659W        W28888  21.107  35.773  14.013
60660W        W28889  39.045   1.620  11.490
60661W        W28890  43.473  29.850  10.674
60662W        W28891   1.221  30.191  11.157
60663W        W28892  34.780  19.185  12.908
60664W        W28893  33.922  25.010  10.565
60665W        W28894  36.921  36.717   3.374
60666W        W28895  18.322  31.443  12.035
60667W        W28896  27.733  34.028   0.831
60668W        W28897  17.020  14.707   0.297
60669W        W28898  12.304   3.975  14.924
60670W        W28899  15.599  14.661  11.476
60671W        W28900  35.856  34.081  12.905
60672W        W28901  32.049  42.168   1.387
60673W        W28902  25.609  15.623  12.609
60674W        W28903   3.823  29.058  14.899
60675W        W28904  19.873  11.118  14.042
60676W        W28905  19.149  41.088   4.593
60677W        W28906  39.900   8.631  11.499
60678W        W28907  28.443  14.914  11.715
60679W        W28908  12.788  34.507   4.599
60680W        W28909   5.033  21.140   4.073
60681W        W28910   0.910  38.743  13.361
60682W        W28911  13.830  29.587  11.879
60683W        W28912  29.169  30.564  14.689
60684W        W28913  27.639  18.772  13.411
60685W        W28914  38.527  33.153   1.813
60686W        W28915  26.672  28.714   1.781
60687W        W28916  40.618  44.941  13.404
60688W        W28917  18.508  14.800   3.734
60689W        W28918  11.240  31.197   3.331
60690W        W28919  44.911  10.365  11.747
60691W        W28920  14.742  24.963  10.672
60692W        W28921  21.156  35.321  13.278
60693W        W28922  33.514  39.252  11.343
60694W        W28923  23.808   8.147   2.365
60695W        W28924  20.583  35.177  11.461
60696W        W28925  42.371  12.098   2.314
60697W        W28926   1.320  10.015   2.301
60698W        W28927  36.644  37.639   0.964
60699W        W28928  44.821   0.476   0.215
60700W        W28929  19.427  20.803  14.033
60701W        W28930  15.623  22.648   3.361
60702W        W28931  20.939  19.542   5.073
60703W        W28932  43.315  26.462  10.552
60704W        W28933   8.773  25.602  13.192
60705W        W28934   9.204  37.371   2.661
60706W        W28935  10.566  44.364  10.698
60707W        W28936  34.578   4.486   1.730
60708W        W28937  26.657  42.447   0.333
60709W        W28938  30.449  41.823   0.681
60710W        W28939  14.329  44.003  13.555
60711W        W28940  33.622  42.765  14.303
60712W        W28941  28.849  12.162  11.415
60713W        W28942  35.934   6.199   0.013
60714W        W28943  19.519   1.864  13.513
60715W        W28944  17.186  23.130   1.547
60716W        W28945  11.212   4.980  13.367
60717W        W28946  34.389   5.657   3.307
60718W        W28947  31.678   7.596   1.466
60719W        W28948  10.260  41.075  10.720
60720W        W28949  12.592   1.718   1.154
60721W        W28950   1.735   4.972  11.046
60722W        W28951  37.924   7.301  11.129
60723W        W28952  25.456   9.822   0.885
60724W        W28953  13.162  44.313   0.851
60725W        W28954  35.939   2.156   2.138
60726W        W28955   2.263  27.987  10.788
60727W        W28956  11.339  10.050  11.054
60728W        W28957  38.445  28.883   5.029
60729W        W28958  18.630  43.857  14.919
60730W        W28959  27.279   7.700   0.724
60731W        W28960  44.512   2.168   1.902
60732W        W28961  12.278   0.010  13.061
60733W        W28962  17.677  41.758  12.256
60734W        W28963  16.832  31.225  13.011
60735W        W28964  10.259  17.031  11.047
60736W        W28965  33.062   0.169  14.264
60737W        W28966  17.031  26.096   3.558
60738W        W28967  27.904  31.791  13.243
60739W        W28968  13.130  13.830  11.499
60740W        W28969  13.019  38.119   4.728
60741W        W28970  30.147  19.957  13.427
60742W        W28971  38.773  35.030  13.510
60743W        W28972  42.737  42.371  10.558
60744W        W28973   9.095  39.434   1.971
60745W        W28974  28.141   6.291  10.623
60746W        W28975   8.037  44.066   4.179
60747W        W28976  10.454  22.965   1.236
60748W        W28977  18.363  18.648  13.051
60749W        W28978  39.363   8.212   0.939
60750W        W28979  30.463  42.738  13.756
60751W        W28980  29.016  14.530  12.849
60752W        W28981  17.148  17.716  12.029
60753W        W28982  38.962  39.268   4.591
60754W        W28983  44.449   9.755  14.877
60755W        W28984  33.530  26.556   2.202
60756W        W28985  27.140  23.664   1.228
60757W        W28986  38.891  44.743   3.196
60758W        W28987  37.413  15.405   4.230
60759W        W28988  37.383  39.931   3.140
60760W        W28989  35.270  38.011  12.111
60761W        W28990  13.349   6.800   3.052
60762W        W28991  28.745  14.612   4.245
60763W        W28992  17.113  10.089   1.274
60764W        W28993  16.542  42.770  13.936
60765W        W28994  35.393   0.071   3.397
60766W        W28995  33.634  44.702   0.468
60767W        W28996  31.228  27.652   1.792
60768W        W28997  36.583   5.627   4.021
60769W        W28998  20.897  38.972   2.746
60770W        W28999   1.782  12.351  14.465
60771W        W29000  16.272  10.667   4.848
60772W        W29001  42.136  25.163  12.515
60773W        W29002   1.573  33.551   3.581
60774W        W29003  40.997  28.879  14.361
60775W        W29004  14.274  43.854   4.604
60776W        W29005  42.261   7.031  13.814
60777W        W29006   6.081  41.795  14.107
60778W        W29007  27.535  33.157   3.515
60779W        W29008  14.068  34.000   0.007
60780W        W29009  41.806   3.939   4.733
60781W        W29010  42.922   4.547   4.354
60782W        W29011   7.123  21.272   0.889
60783W        W29012  25.120  31.931   3.972
60784W        W29013  43.472  37.971  12.174
60785W        W29014  22.560  30.933   1.547
60786W        W29015  32.272   3.400  12.087
60787W        W29016  11.091  41.319  11.063
60788W        W29017  42.004  24.099   2.737
60789W        W29018  18.181  23.058  11.166
60790W        W29019  23.520  28.010  13.292
60791W        W29020  38.975  37.429   0.748
60792W        W29021  37.486  17.815  14.119
60793W        W29022  40.044  42.228   2.927
60794W        W29023  29.853   1.343   0.432
60795W        W29024  23.662  41.342  11.746
60796W        W29025  30.928   6.937   1.512
60797W        W29026  31.359  35.678   3.746
60798W        W29027  16.743  37.424   4.279
60799W        W29028  33.043   9.759   2.651
60800W        W29029  14.192  16.122  12.432
60801W        W29030   5.632  29.431   0.785
60802W        W29031  42.338  25.277  11.189
60803W        W29032   1.991   0.416   3.029
60804W        W29033  41.065  28.988  13.248
60805W        W29034   4.913  25.007   1.791
60806W        W29035  14.851  44.486  14.324
60807W        W29036  29.658  42.533   2.383
60808W        W29037  41.336   9.925   4.568
60809W        W29038  36.493   4.226  12.061
60810W        W29039  33.090  36.888   3.641
60811W        W29040  43.770  38.108   2.114
60812W        W29041   2.001  24.050   4.198
60813W        W29042  39.459  44.043   2.355
60814W        W29043   7.454   0.499   0.935
60815W        W29044  22.117   5.505   2.454
60816W        W29045  25.275  32.573  12.274
60817W        W29046  25.888  19.678   4.121
60818W        W29047   5.408  29.466   0.256
60819W        W29048   9.123  22.350  14.014
60820W        W29049  34.297  40.418   0.352
60821W        W29050  10.520  37.579  11.704
60822W        W29051  33.468  23.567  14.919
60823W        W29052  33.438   5.052   2.856
60824W        W29053  28.684  17.165   1.878
60825W        W29054  11.111  13.897   1.336
60826W        W29055  17.751   2.049  12.063
60827W        W29056   7.795  38.981  11.483
60828W        W29057   2.554   1.889  13.568
60829W        W29058  43.034  21.667   0.262
60830W        W29059  39.546  23.077  11.946
60831W        W29060  16.235   0.294  12.973
60832W        W29061  31.858  20.546  14.407
60833W        W29062  35.161   0.700   0.695
60834W        W29063   2.508  36.082  13.780
60835W        W29064  34.880   4.432   1.306
60836W        W29065  35.106  39.992   4.736
60837W        W29066  42.106  14.668  13.127
60838W        W29067  10.936   5.687  14.383
60839W        W29068  30.798   3.659   0.976
60840W        W29069   8.785  26.412   2.277
60841W        W29070   1.942   1.291  14.747
60842W        W29071   2.310   0.427  13.307
60843W        W29072   6.825  19.836   0.974
60844W        W29073   9.705   7.182  11.945
60845W        W29074  31.719  16.597   1.069
60846W        W29075  44.800  31.021  14.290
60847W        W29076  35.358   7.191   4.469
60848W        W29077   2.404  27.463   2.729
60849W        W29078  11.718  21.560  10.628
60850W        W29079  42.757  42.977   2.297
60851W        W29080  43.307  43.929  12.950
60852W        W29081   5.890   0.530  10.745
60853W        W29082  13.623  15.036  10.104
60854W        W29083  10.155  10.232  12.002
60855W        W29084  33.542  11.397  11.494
60856W        W29085  10.203  11.729  12.060
60857W        W29086  15.632   3.205   0.362
60858W        W29087   7.274  18.120  10.689
60859W        W29088  25.949  40.359   0.695
60860W        W29089  15.264  24.181   3.906
60861W        W29090   3.610   4.585  14.723
60862W        W29091  35.033  12.404  11.179
60863W        W29092  31.685   6.865  14.453
60864W        W29093  16.521  16.332   1.431
60865W        W29094  40.876   9.454   0.442
60866W        W29095  34.428  41.733   3.235
60867W        W29096  31.947  42.552  13.406
60868W        W29097  25.367  39.669   0.781
60869W        W29098  22.476  11.906   1.433
60870W        W29099   0.206   0.714   3.239
60871W        W29100   8.690  31.606   4.733
60872W        W29101  43.383   2.050   0.252
60873W        W29102  28.399  14.233  12.480
60874W        W29103  17.073  14.114   4.537
60875W        W29104  15.566  21.035  14.231
60876W        W29105  31.143  29.102  12.878
60877W        W29106  28.007   4.216   0.944
60878W        W29107  22.119  23.606  10.724
60879W        W29108   8.673  23.237  12.550
60880W        W29109  32.112  42.070  12.546
60881W        W29110  23.937  21.750  14.345
60882W        W29111   6.004  28.971  13.625
60883W        W29112  14.921  36.153   0.864
60884W        W29113  31.967   6.776   0.567
60885W        W29114  36.839  15.460   1.306
60886W        W29115   7.422  22.291  13.324
60887W        W29116  31.010   6.205   2.207
60888W        W29117  21.778  34.132   0.367
60889W        W29118  38.100  36.432  10.684
60890W        W29119  12.804  27.872  11.234
60891W        W29120  32.996  33.983  11.579
60892W        W29121  32.419  38.196  13.955
60893W        W29122   2.571  16.529  14.006
60894W        W29123  16.802   7.584   4.156
60895W        W29124  34.970  11.439   4.613
60896W        W29125   9.100   8.612  12.441
60897W        W29126   2.688   4.665   1.370
60898W        W29127  10.857  23.473  12.221
60899W        W29128   1.615  25.676   0.233
60900W        W29129  16.131   6.510  10.903
60901W        W29130  13.528  34.526   2.285
60902W        W29131   4.666   0.730  12.479
60903W        W29132  40.529   7.588  14.265
60904W        W29133  32.989  24.945  14.763
60905W        W29134  34.115  16.255  12.916
60906W        W29135  10.236  17.802  13.841
60907W        W29136  44.009   5.207  11.406
60908W        W29137   9.313   1.236  12.096
60909W        W29138  10.182   5.364  12.898
60910W        W29139  21.727  26.618  11.013
60911W        W29140   3.291  40.075   0.669
60912W        W29141  35.106  41.980  12.970
60913W        W29142  10.388  24.221  14.217
60914W        W29143   4.757   0.385   2.707
60915W        W29144   2.455  27.431   0.232
60916W        W29145  44.294  26.684   1.696
60917W        W29146  33.459  18.794  12.720
60918W        W29147  21.755  22.224   0.518
60919W        W29148   5.446  31.454   0.458
60920W        W29149  33.772  44.489  13.633
60921W        W29150  13.039  28.624  11.524
60922W        W29151  11.043   1.061  13.947
60923W        W29152   2.371  33.411   3.231
60924W        W29153  12.346   1.396   3.175
60925W        W29154  35.127   5.912   2.746
60926W        W29155  12.371  18.045   1.925
60927W        W29156   3.882  24.225   4.164
60928W        W29157   7.239  27.454   0.401
60929W        W29158  15.150  37.363  10.613
60930W        W29159  27.930  40.845   4.056
60931W        W29160  10.627  27.611   1.219
60932W        W29161  26.910  16.980   4.176
60933W        W29162  25.471   6.849   4.839
60934W        W29163  42.299   4.787   2.412
60935W        W29164  20.523  36.891   1.824
60936W        W29165  39.123  34.709   0.903
60937W        W29166  37.494  17.282   2.697
60938W        W29167  29.658   1.211  11.617
60939W        W29168  38.764  11.445  10.694
60940W        W29169  20.170  15.079   1.398
60941W        W29170   6.107  24.903  13.481
60942W        W29171  40.349  26.646   0.681
60943W        W29172  13.847  32.707  12.027
60944W        W29173  16.872  15.580  13.618
60945W        W29174  31.512  14.094   4.187
60946W        W29175  37.073  42.210   4.982
60947W        W29176  16.242   9.158   4.783
60948W        W29177  38.077   9.207  13.784
60949W        W29178  14.278   9.822  11.969
60950W        W29179  36.157  28.523   2.780
60951W        W29180  35.694  13.233  12.638
60952W        W29181  44.903  22.774  14.804
60953W        W29182  29.433  24.947   2.134
60954W        W29183  14.163   3.327   4.152
60955W        W29184  11.368   2.782  10.464
60956W        W29185  29.424  22.221   4.164
60957W        W29186  38.742  38.198  13.553
60958W        W29187  23.758  34.983  11.538
60959W        W29188  21.691   4.711   1.205
60960W        W29189  26.075  13.141  11.612
60961W        W29190  36.427  19.905  14.422
60962W        W29191  43.243  32.552   4.414
60963W        W29192  20.184  34.342   2.841
60964W        W29193  44.906  43.477   3.628
60965W        W29194  36.136   8.312  12.907
60966W        W29195  30.557  12.684   3.099
60967W        W29196  12.392  23.589  11.076
60968W        W29197  31.205  30.410  10.352
60969W        W29198  11.826  19.112   1.029
60970W        W29199  32.989   6.781  14.022
60971W        W29200  23.956   1.696   2.806
60972W        W29201  30.835  33.419  11.629
60973W        W29202   4.296  17.406   3.744
60974W        W29203  19.642  19.744  11.772
60975W        W29204  22.884  12.152  13.100
60976W        W29205  34.047   1.337   1.726
60977W        W29206  26.954  40.078   3.691
60978W        W29207  10.809  14.946   2.674
60979W        W29208  26.159  16.008   2.198
60980W        W29209  36.094  31.526  10.875
60981W        W29210  27.304  40.355  10.317
60982W        W29211  13.345  42.139   2.447
60983W        W29212  31.373   5.843   2.484
60984W        W29213   1.156  16.626   4.858
60985W        W29214  11.199  42.061   2.147
60986W        W29215   7.187  28.901  13.036
60987W        W29216  35.842  44.611  14.464
60988W        W29217   8.812  28.310  11.286
60989W        W29218   7.130   2.094  11.651
60990W        W29219  22.497  32.034   4.418
60991W        W29220  31.954  34.853   3.141
60992W        W29221   5.713  40.061  14.416
60993W        W29222  38.544  29.079  12.394
60994W        W29223  28.053  28.504  14.990
60995W        W29224  18.543  17.870   3.434
60996W        W29225   0.471  14.277  12.827
60997W        W29226   2.190  32.372   2.983
60998W        W29227   2.176  20.962  12.353
60999W        W29228  39.329   2.826  13.511
61000W        W29229  29.676  16.614   2.336
61001W        W29230  44.775  30.201  11.161
61002W        W29231  34.839   3.862   3.875
61003W        W29232  25.468  36.448   1.553
61004W        W29233   9.388   4.437   0.187
61005W        W29234  40.893  27.924   2.406
61006W        W29235   8.299  32.343  13.749
61007W        W29236   5.650  32.055   3.232
61008W        W29237  20.343  41.875  11.831
61009W        W29238  32.967  34.234  11.138
61010W        W29239  17.111   9.289  14.450
61011W        W29240  40.566  44.955   0.198
61012W        W29241  40.744   7.137  12.004
61013W        W29242  17.456  33.019  13.404
61014W        W29243  24.026  18.644  14.373
61015W        W29244  34.161   5.433  12.765
61016W        W29245  10.103  36.661   0.070
61017W        W29246   0.221  19.710  12.972
61018W        W29247  42.449   5.973  14.687
61019W        W29248   2.157   5.628   2.438
61020W        W29249   8.342  14.276  10.660
61021W        W29250  14.033  20.824   5.051
61022W        W29251  40.329  38.567  11.179
61023W        W29252  12.659  17.098   1.913
61024W        W29253   2.512  43.101   0.239
61025W        W29254   9.372  38.850   3.604
61026W        W29255  21.510  10.626  10.433
61027W        W29256  22.542  41.339   0.721
61028W        W29257  37.938  41.770  12.148
61029W        W29258  22.681  32.668   2.153
61030W        W29259  31.091  11.513  13.405
61031W        W29260  39.589  37.488  12.981
61032W        W29261   0.219  17.067  14.734
61033W        W29262  44.484  22.983  10.221
61034W        W29263   1.980  10.201   3.371
61035W        W29264  33.840   3.378   1.829
61036W        W29265  25.989  37.933   4.012
61037W        W29266   7.371  33.316  11.828
61038W        W29267  34.811   2.717   3.583
61039W        W29268  37.918  13.328  11.610
61040W        W29269  13.706  15.035   1.878
61041W        W29270  21.826  24.294   3.238
61042W        W29271  19.429  29.605  11.445
61043W        W29272  24.691  18.894   2.789
61044W        W29273  40.886  33.844   2.015
61045W        W29274   7.424  19.451  11.200
61046W        W29275  16.404   4.363  11.791
61047W        W29276   2.631  22.540   1.570
61048W        W29277  38.380  11.838   4.774
61049W        W29278  25.972  33.620  10.797
61050W        W29279  21.255   1.311   4.628
61051W        W29280  11.717  27.075  13.274
61052W        W29281   0.304  30.656  14.843
61053W        W29282  38.542  29.595  12.642
61054W        W29283   4.954  40.409   4.556
61055W        W29284  39.516   2.925   3.242
61056W        W29285  42.235   8.342  11.008
61057W        W29286  33.113   8.584  11.976
61058W        W29287  12.401  40.344  12.072
61059W        W29288  21.994  36.340  12.996
61060W        W29289  23.255  23.319   0.294
61061W        W29290  14.747   5.661   2.554
61062W        W29291  40.291  17.324   5.106
61063W        W29292  10.015  18.576   4.241
61064W        W29293  37.646  29.148  13.814
61065W        W29294  14.629  38.416  11.196
61066W        W29295  30.959  25.422   0.851
61067W        W29296   0.966  32.868   2.806
61068W        W29297   5.849  31.008   1.607
61069W        W29298  29.048  26.640   2.172
61070W        W29299   9.151  39.941   1.416
61071W        W29300  40.810  43.910  12.704
61072W        W29301  33.055  21.437  11.623
61073W        W29302  24.932  11.444  13.956
61074W        W29303  21.292  33.372   2.464
61075W        W29304  41.898   5.267   0.669
61076W        W29305  36.210  31.343  13.344
61077W        W29306  17.503   6.439   0.823
61078W        W29307  39.796  18.670  12.549
61079W        W29308  42.663  22.143  10.640
61080W        W29309  14.530   1.849  11.216
61081W        W29310  42.058  42.197   0.831
61082W        W29311   9.761  37.223   3.780
61083W        W29312   9.756  30.190  13.872
61084W        W29313  28.205  40.409   4.598
61085W        W29314  35.411  38.775  11.958
61086W        W29315   8.920   0.900   0.810
61087W        W29316   5.083  18.775   4.130
61088W        W29317  41.713  29.452   0.321
61089W        W29318  43.545  28.899   2.186
61090W        W29319  13.590  14.179  10.663
61091W        W29320   7.905  34.361  10.971
61092W        W29321  17.636  13.169   3.222
61093W        W29322  17.928  36.946   1.445
61094W        W29323   3.291  32.643  13.996
61095W        W29324  28.395  25.145  10.519
61096W        W29325   6.896  30.446  12.559
61097W        W29326  20.918  18.267  13.055
61098W        W29327   5.786   4.577  14.744
61099W        W29328  41.499  22.115  11.578
61100W        W29329   5.379  31.618  13.345
61101W        W29330  41.336  15.859  11.688
61102W        W29331   2.068  34.355  10.215
61103W        W29332   3.905  39.758   1.932
61104W        W29333  33.376  31.944  11.954
61105W        W29334  44.251   5.296  14.371
61106W        W29335  44.917  34.961  14.170
61107W        W29336  43.492  36.016   3.986
61108W        W29337  23.013  30.666  14.865
61109W        W29338  19.389   5.897   4.169
61110W        W29339  38.898  37.220   3.340
61111W        W29340  37.484  12.285   4.047
61112W        W29341   2.986  40.026   2.655
61113W        W29342   2.476   3.177   4.568
61114W        W29343  44.721   8.888   2.736
61115W        W29344  34.492  19.751  11.128
61116W        W29345   6.535  29.568  10.584
61117W        W29346  17.151  20.276   5.829
61118W        W29347  43.996  41.356  12.398
61119W        W29348  31.451  12.825   4.577
61120W        W29349  25.110  21.283  11.506
61121W        W29350  17.588  15.261  14.207
61122W        W29351  38.329  35.375   3.851
61123W        W29352  29.227   4.466  13.939
61124W        W29353   9.400  18.162   2.726
61125W        W29354  26.142  41.832  14.043
61126W        W29355   9.722  20.080   3.328
61127W        W29356  13.199  18.311   2.422
61128W        W29357  12.150  43.993   1.422
61129W        W29358  26.325  27.086   3.588
61130W        W29359   9.118   3.456  12.213
61131W        W29360  30.870  34.832   4.091
61132W        W29361  38.869  40.148   0.304
61133W        W29362   2.828  12.752   4.649
61134W        W29363  18.499  27.646   1.824
61135W        W29364  26.045  40.578  10.639
61136W        W29365  23.309  36.455  12.229
61137W        W29366  31.864   9.675  14.457
61138W        W29367  24.792  12.956   0.708
61139W        W29368  29.613  38.608   1.069
61140W        W29369  16.082  23.178   9.814
61141W        W29370  21.725  20.140   4.619
61142W        W29371  11.678  42.967   0.861
61143W        W29372   5.571  21.961   0.505
61144W        W29373   6.204  42.351   4.778
61145W        W29374  10.067  39.538  11.687
61146W        W29375  16.018  39.956   2.799
61147W        W29376  30.234  44.842  12.384
61148W        W29377  34.476  30.188  14.857
61149W        W29378  18.811  43.937   0.416
61150W        W29379   8.676  23.967  10.631
61151W        W29380  25.342   2.432   4.176
61152W        W29381  20.338  22.232  11.683
61153W        W29382  42.131  28.594   4.683
61154W        W29383  24.594  35.599   1.150
61155W        W29384  19.037  29.865  13.669
61156W        W29385   9.852  18.986   1.823
61157W        W29386  17.294  39.070   0.936
61158W        W29387  29.711  11.671   1.805
61159W        W29388  28.214  40.656   1.079
61160W        W29389  18.226  31.151  11.617
61161W        W29390  25.417   3.517  11.193
61162W        W29391  28.927  34.368  11.486
61163W        W29392  21.925  29.060   2.279
61164W        W29393  40.004  12.801  14.968
61165W        W29394  13.443  44.229   2.748
61166W        W29395   9.414  22.738  13.036
61167W        W29396   5.193  33.907   4.195
61168W        W29397   6.295   7.307  14.069
61169W        W29398  22.628  25.395   1.679
61170W        W29399  16.609  20.030  14.367
61171W        W29400  22.359  39.760   2.829
61172W        W29401  27.617  16.502  14.443
61173W        W29402  12.391  37.948  13.032
61174W        W29403  37.160  40.686   2.157
61175W        W29404  44.741  43.381  12.317
61176W        W29405   1.835   8.382  11.187
61177W        W29406  19.484  28.935  12.524
61178W        W29407  25.773  23.743  12.483
61179W        W29408   5.275  31.408   3.225
61180W        W29409  25.922   6.778  11.581
61181W        W29410   8.459   4.206  13.939
61182W        W29411  30.865   5.170  11.988
61183W        W29412   4.797   5.139   4.708
61184W        W29413   5.513  19.539  10.944
61185W        W29414  44.966  35.897  11.417
61186W        W29415  44.691  24.674  14.409
61187W        W29416   8.465  13.104  11.973
61188W        W29417  27.300  28.233  14.378
61189W        W29418  18.110  44.956  10.641
61190W        W29419  25.020  39.819  11.052
61191W        W29420  17.807  12.709  13.509
61192W        W29421   0.968   8.098  14.303
61193W        W29422  28.473   7.161   0.343
61194W        W29423  23.011  16.240  11.973
61195W        W29424  17.156   3.904   4.582
61196W        W29425  37.077  42.010  11.265
61197W        W29426  22.217  32.442   0.428
61198W        W29427  44.798   9.241   0.072
61199W        W29428  39.516  34.034   4.237
61200W        W29429  41.934  36.991   1.958
61201W        W29430  44.313  14.691  11.659
61202W        W29431  44.246   0.950  10.401
61203W        W29432   4.908  22.194  11.868
61204W        W29433  23.060   4.756  13.128
61205W        W29434  40.436  43.574  12.694
61206W        W29435  32.684  22.057  13.134
61207W        W29436   0.812   0.731   4.865
61208W        W29437  21.581  12.877  12.368
61209W        W29438  37.040   7.436  12.227
61210W        W29439   6.376   4.174  12.852
61211W        W29440  28.006  26.938   3.812
61212W        W29441  32.500  32.644  14.992
61213W        W29442  40.876  44.084  14.251
61214W        W29443  38.631  16.957  14.127
61215W        W29444  41.550   1.317  11.598
61216W        W29445  38.772  36.307   1.389
61217W        W29446  29.936  11.548  12.977
61218W        W29447  38.033  15.838  10.734
61219W        W29448  44.183  41.528  10.193
61220W        W29449  41.867  32.670   4.421
61221W        W29450   6.256   8.364  13.015
61222W        W29451   1.023  19.214  14.346
61223W        W29452  30.181  24.212   3.768
61224W        W29453  10.660  39.964   4.138
61225W        W29454  13.008   6.046   4.475
61226W        W29455  34.173  22.047   2.856
61227W        W29456  29.638  19.513  12.621
61228W        W29457   8.789  14.610   2.710
61229W        W29458  15.122  24.173  11.389
61230W        W29459  39.245  40.975   4.979
61231W        W29460   5.010  15.137  12.154
61232W        W29461  14.311  41.879   3.057
61233W        W29462  27.708  41.811  14.977
61234W        W29463  22.727  26.104   3.575
61235W        W29464  18.463   3.466   2.208
61236W        W29465  31.961  41.264   1.645
61237W        W29466  41.898  23.280  10.537
61238W        W29467  40.195  44.466   4.108
61239W        W29468  28.984  37.191  12.495
61240W        W29469  36.307  36.907  14.302
61241W        W29470  24.551  38.782  14.509
61242W        W29471  24.724  15.747   0.177
61243W        W29472   1.833  14.253   0.764
61244W        W29473  31.755  26.029   4.320
61245W        W29474  31.159   1.940  14.881
61246W        W29475  26.689  17.162   2.926
61247W        W29476  36.827  31.800   4.745
61248W        W29477   5.330   8.960  10.446
61249W        W29478  21.732  12.824   1.405
61250W        W29479  38.547  20.038  14.427
61251W        W29480  11.814   8.906  13.093
61252W        W29481   7.960  21.734  13.384
61253W        W29482  14.186  20.736  12.764
61254W        W29483  44.882  36.858  11.082
61255W        W29484  10.285  36.057   4.169
61256W        W29485  14.814  41.223  11.140
61257W        W29486  15.363  19.531   2.675
61258W        W29487   6.397  23.933   4.494
61259W        W29488  13.913  31.197  10.753
61260W        W29489  17.666  43.977  13.798
61261W        W29490  11.703  25.406   2.869
61262W        W29491  23.198  27.651   1.355
61263W        W29492  13.535  10.323  13.464
61264W        W29493  18.497  20.043   4.008
61265W        W29494  12.485  12.886  10.533
61266W        W29495  14.940  36.357   1.863
61267W        W29496  19.470  15.216  10.679
61268W        W29497  25.728  38.351  10.603
61269W        W29498   4.644  27.742  11.118
61270W        W29499   3.958  21.248   1.302
61271W        W29500  25.506   1.882  13.132
61272W        W29501  24.432  30.377  12.720
61273W        W29502  37.891  41.754  14.488
61274W        W29503  39.207   8.690   3.133
61275W        W29504  35.873  19.743   1.624
61276W        W29505  40.848  44.982  12.516
61277W        W29506  12.455   6.602   2.727
61278W        W29507  42.819  38.015  10.660
61279W        W29508  12.838  14.366  11.294
61280W        W29509  19.595  30.628  12.118
61281W        W29510   3.830  15.865   2.249
61282W        W29511  19.466  11.603   2.797
61283W        W29512  43.247   7.258  13.967
61284W        W29513  27.673  44.386   4.361
61285W        W29514   8.822  24.696   4.346
61286W        W29515  10.380  25.387   4.120
61287W        W29516  31.300   6.714   2.321
61288W        W29517  24.152   4.948   1.168
61289W        W29518  39.978  23.134  11.052
61290W        W29519  30.876  20.445   1.937
61291W        W29520  12.651  40.412   2.693
61292W        W29521  36.139  21.448   1.263
61293W        W29522   3.179  26.987  12.003
61294W        W29523  28.373  42.512   0.373
61295W        W29524  16.716  31.515  10.234
61296W        W29525  41.914  38.123  14.404
61297W        W29526  23.673  32.160  13.009
61298W        W29527  14.747  15.671  11.138
61299W        W29528  12.247   5.889  13.772
61300W        W29529  31.401  41.863  13.758
61301W        W29530  44.531   3.661   1.677
61302W        W29531  10.118  28.174   4.647
61303W        W29532  32.443  30.111   5.218
61304W        W29533  21.154  43.375   4.402
61305W        W29534   0.024   3.693  11.592
61306W        W29535  26.454   5.711  11.034
61307W        W29536  30.518  34.824  14.871
61308W        W29537  38.052  34.404  11.711
61309W        W29538  29.020  19.690  12.804
61310W        W29539  26.750  38.399   2.342
61311W        W29540  30.296  13.667   4.169
61312W        W29541  19.519   9.232   1.344
61313W        W29542  32.011  25.912   3.676
61314W        W29543  34.530  15.073   3.827
61315W        W29544  34.606   5.159  11.392
61316W        W29545  15.268  42.259   3.273
61317W        W29546  12.086  21.033  13.173
61318W        W29547  31.757   3.863   4.596
61319W        W29548   1.472   6.767   0.448
61320W        W29549  11.240  31.668   3.560
61321W        W29550  25.062   5.902  14.083
61322W        W29551  12.338   3.945   4.185
61323W        W29552  31.619  36.394  10.714
61324W        W29553  20.661  39.097   0.406
61325W        W29554  20.083  23.153   0.830
61326W        W29555   6.804  11.233   1.550
61327W        W29556   6.677  44.193   4.866
61328W        W29557  10.851   8.842  14.049
61329W        W29558  29.014  32.533  12.775
61330W        W29559  16.044  13.173  12.539
61331W        W29560  23.491  30.635  13.944
61332W        W29561  37.877  39.118   3.416
61333W        W29562  16.996  18.198  11.808
61334W        W29563   9.052  37.514   1.827
61335W        W29564  25.266  13.676   0.217
61336W        W29565  22.189  37.137   3.178
61337W        W29566   6.683  11.386  10.976
61338W        W29567  35.115  10.699   2.751
61339W        W29568  43.076  15.233  12.423
61340W        W29569  13.863  13.290  11.709
61341W        W29570   0.246   1.450   3.879
61342W        W29571   0.084  38.897   4.080
61343W        W29572  25.897  14.690   2.684
61344W        W29573  26.714  42.427  11.889
61345W        W29574  36.489  32.456  10.532
61346W        W29575  14.796  13.272  10.163
61347W        W29576  10.895  12.113   4.169
61348W        W29577  33.543  16.847  13.568
61349W        W29578   3.902  32.093  12.850
61350W        W29579  34.137  31.237  11.096
61351W        W29580  22.040  40.062   4.169
61352W        W29581  37.418  32.648   2.265
61353W        W29582  31.723  35.555   1.741
61354W        W29583   5.352  28.907  10.480
61355W        W29584  39.418  20.017   4.585
61356W        W29585  24.723  28.483  12.814
61357W        W29586  39.918  19.955  13.742
61358W        W29587   7.250  16.095   3.623
61359W        W29588  41.756  12.861  11.903
61360W        W29589   5.758  41.059   0.350
61361W        W29590  23.206   2.712   1.835
61362W        W29591  20.590  36.173   0.669
61363W        W29592   4.970  34.987   1.884
61364W        W29593  34.087  10.759  13.582
61365W        W29594  35.507  17.739   0.226
61366W        W29595  23.197  42.891   3.165
61367W        W29596   0.116   4.674   3.891
61368W        W29597  44.513  14.806  12.968
61369W        W29598   2.762  28.174  14.821
61370W        W29599  33.936  13.139  14.833
61371W        W29600  15.458  41.365   3.667
61372W        W29601  43.823   9.160  11.568
61373W        W29602  44.517  40.036   9.863
61374W        W29603  21.602  29.712   3.769
61375W        W29604  34.972   8.007   4.237
61376W        W29605  13.097  19.325  14.073
61377W        W29606  11.920   6.778   4.247
61378W        W29607  32.992  37.085   2.338
61379W        W29608  31.498  33.116   4.581
61380W        W29609   6.878  17.779   1.659
61381W        W29610  13.058  28.995  10.616
61382W        W29611   7.771  35.110  10.547
61383W        W29612  32.610  38.780   0.744
61384W        W29613  14.756  38.951   0.626
61385W        W29614   7.248  14.074  11.567
61386W        W29615  22.170  12.611   4.866
61387W        W29616  18.747  12.653   1.803
61388W        W29617  18.949  19.361  12.873
61389W        W29618  42.159   1.934   3.673
61390W        W29619  12.726  25.241   2.874
61391W        W29620  32.638  17.808  12.551
61392W        W29621  27.893   9.273  12.157
61393W        W29622  39.119  37.122  10.035
61394W        W29623  32.024  16.011  13.430
61395W        W29624  19.279  22.050   1.435
61396W        W29625  27.556  41.780   2.889
61397W        W29626  22.134  23.679  12.506
61398W        W29627   1.005  39.384  12.109
61399W        W29628  11.653  24.637  12.663
61400W        W29629  22.060  17.354  11.389
61401W        W29630  31.528   1.731   3.908
61402W        W29631   6.114  24.604  13.906
61403W        W29632   5.744   2.148   3.197
61404W        W29633  13.121  17.654  11.192
61405W        W29634  13.775   9.438   2.721
61406W        W29635  33.188  16.604  12.247
61407W        W29636  44.046  15.963  12.916
61408W        W29637  30.271  18.582   0.238
61409W        W29638  39.541  17.630  11.081
61410W        W29639  42.033  20.445  11.250
61411W        W29640  22.012  12.687   2.375
61412W        W29641  31.111   1.473  11.567
61413W        W29642   5.128  19.991   3.764
61414W        W29643  15.396  24.228   1.450
61415W        W29644  11.631  33.988  13.331
61416W        W29645  27.371  27.906  11.125
61417W        W29646  33.204   6.177   3.700
61418W        W29647  33.481  24.239  12.672
61419W        W29648  24.637  26.534   4.177
61420W        W29649  25.963   2.296   3.910
61421W        W29650  22.676  10.740  11.565
61422W        W29651  28.538  42.373   1.792
61423W        W29652  23.217  33.138   3.180
61424W        W29653  17.342   5.787  12.633
61425W        W29654  30.942  15.469   0.539
61426W        W29655  32.375  14.945  12.060
61427W        W29656  10.368  14.670  11.497
61428W        W29657  31.677   5.520  11.713
61429W        W29658  28.493   6.695   4.957
61430W        W29659   3.686  39.426  11.546
61431W        W29660   0.745  27.709   4.635
61432W        W29661  21.699  18.311   5.018
61433W        W29662  28.689  18.496   3.746
61434W        W29663   1.979  34.209   3.271
61435W        W29664   7.063  13.189   0.398
61436W        W29665  17.087  36.129  11.419
61437W        W29666  19.212  37.504   3.726
61438W        W29667  32.191   2.891  11.894
61439W        W29668  36.798   6.776   3.639
61440W        W29669  29.723  18.093  13.893
61441W        W29670   6.266   2.571   1.692
61442W        W29671   2.233  16.933   2.887
61443W        W29672  39.117   1.709  10.981
61444W        W29673  34.876  12.503   0.786
61445W        W29674  16.066  30.563  11.141
61446W        W29675  37.559  39.772  11.592
61447W        W29676   6.284  12.525   4.681
61448W        W29677  33.323   3.504  10.468
61449W        W29678   4.445  36.512   9.720
61450W        W29679   1.852  28.611   2.090
61451W        W29680  14.955  28.927   4.613
61452W        W29681  25.730  24.012   4.927
61453W        W29682  37.318  10.324  14.681
61454W        W29683  26.182  26.713  11.517
61455W        W29684  25.861  12.161   2.243
61456W        W29685  34.163  42.858   1.457
61457W        W29686  15.154   6.323   2.707
61458W        W29687  17.188  34.918   2.177
61459W        W29688  18.164  28.599   1.667
61460W        W29689  26.094  37.306  14.704
61461W        W29690  28.208  19.735  12.578
61462W        W29691  31.981  26.808  10.475
61463W        W29692   3.167   3.851  11.774
61464W        W29693  29.564   8.572   1.628
61465W        W29694  38.590  14.736  10.985
61466W        W29695  44.543   6.247   5.409
61467W        W29696  41.366  42.901  10.651
61468W        W29697   9.725   7.312   1.892
61469W        W29698  30.221  18.014  11.091
61470W        W29699   0.751  38.302   3.690
61471W        W29700   4.413  13.635  14.890
61472W        W29701   5.982  22.585  11.153
61473W        W29702  13.421  38.521   2.335
61474W        W29703  27.741  41.937   4.419
61475W        W29704   8.366  32.893  12.185
61476W        W29705  24.140  32.345   1.833
61477W        W29706  28.094   6.410  13.950
61478W        W29707  25.209  23.328   4.446
61479W        W29708  31.837  24.982  13.933
61480W        W29709  39.778  28.682  13.911
61481W        W29710  34.599  15.856  10.639
61482W        W29711  41.777  29.994  11.802
61483W        W29712  17.918  32.850  14.659
61484W        W29713   9.803  15.408   2.333
61485W        W29714   1.930   5.817  14.714
61486W        W29715  28.434   4.358  10.612
61487W        W29716   2.155   1.300  13.867
61488W        W29717  44.171  12.034  12.459
61489W        W29718   2.765  34.948  12.382
61490W        W29719  12.891  40.996   1.308
61491W        W29720  18.714  31.041   3.241
61492W        W29721   4.380   4.272   0.322
61493W        W29722  19.245  34.689  14.950
61494W        W29723  37.143  26.524  13.534
61495W        W29724  21.039   0.838  14.406
61496W        W29725   0.970  22.279  13.559
61497W        W29726   2.983  15.590   0.102
61498W        W29727  23.936  23.193   1.137
61499W        W29728  36.517  21.718  14.541
61500W        W29729  12.790  17.083   4.230
61501W        W29730  18.714  14.036   4.239
61502W        W29731   0.812  15.313  14.937
61503W        W29732  24.974  41.463   3.104
61504W        W29733  19.626  11.066  12.513
61505W        W29734   2.667  25.692  11.148
61506W        W29735  30.944  37.516   2.926
61507W        W29736  29.194  28.031   0.772
61508W        W29737   8.886   8.209  14.912
61509W        W29738  33.562  13.710   4.455
61510W        W29739  10.455  31.585   1.769
61511W        W29740  40.809  30.017  11.598
61512W        W29741  28.262  19.402  13.619
61513W        W29742  32.077   2.139  14.871
61514W        W29743  24.658  41.832  13.026
61515W        W29744  25.448  18.420  12.162
61516W        W29745   5.434  32.981   2.168
61517W        W29746  30.928  26.371   3.317
61518W        W29747  24.607   1.983   1.958
61519W        W29748  34.401  38.863   4.627
61520W        W29749  33.399   8.598  13.008
61521W        W29750  38.406  15.114   2.917
61522W        W29751  18.015   8.396   2.957
61523W        W29752  26.021   1.494   1.692
61524W        W29753  31.906   0.683  14.356
61525W        W29754  20.702  10.365   4.131
61526W        W29755  20.076  11.014   3.776
61527W        W29756  29.087   4.751  13.497
61528W        W29757  16.050   9.049   2.855
61529W        W29758  25.060  10.637   0.016
61530W        W29759  17.696  28.056  11.138
61531W        W29760  17.743  35.185   1.784
61532W        W29761  41.554  10.894  12.760
61533W        W29762   6.201   7.162   3.651
61534W        W29763  19.106   9.849   1.815
61535W        W29764  15.756  42.508  10.572
61536W        W29765  41.236  37.513  11.084
61537W        W29766  32.128  13.627  13.514
61538W        W29767  40.359  29.030   0.867
61539W        W29768   3.933   7.182  14.458
61540W        W29769   5.650  26.745   4.861
61541W        W29770  30.743  24.040  12.992
61542W        W29771  43.295  23.836  11.122
61543W        W29772  33.154  14.533  13.780
61544W        W29773  38.853  43.728   0.087
61545W        W29774  38.818  26.510   4.155
61546W        W29775  14.274  13.876  12.033
61547W        W29776  10.784   3.808   0.165
61548W        W29777  33.519  43.362   0.591
61549W        W29778  15.104  12.871   1.315
61550W        W29779  37.382  44.947   4.836
61551W        W29780  40.424   9.979  13.077
61552W        W29781  25.490  24.680  11.039
61553W        W29782   6.012  36.147   4.823
61554W        W29783  19.274  15.277   0.849
61555W        W29784  26.656  15.667   2.877
61556W        W29785  35.945  17.327   4.696
61557W        W29786   7.913  31.390  13.444
61558W        W29787  27.985  26.514   3.493
61559W        W29788   7.793  32.446  13.398
61560W        W29789  42.854  13.106   3.592
61561W        W29790  34.816   0.084   2.694
61562W        W29791  41.250  14.296   1.737
61563W        W29792  37.361  41.305  11.525
61564W        W29793  23.836  15.420  13.982
61565W        W29794   4.457  41.539  13.187
61566W        W29795  36.680   9.787  11.692
61567W        W29796  21.763  40.292   0.856
61568W        W29797  39.776  24.241   3.715
61569W        W29798  43.014   9.923   2.352
61570W        W29799  22.469  16.534   4.045
61571W        W29800  13.586  27.061   0.516
61572W        W29801  10.174  43.321   4.230
61573W        W29802  42.234  42.339   4.909
61574W        W29803  30.126  10.623   3.701
61575W        W29804  27.842  32.926  11.593
61576W        W29805   3.763  22.814   2.354
61577W        W29806  16.143  11.262  12.167
61578W        W29807  16.781  40.135   4.590
61579W        W29808  25.156  34.949  13.034
61580W        W29809  30.084   9.094   0.441
61581W        W29810   6.323  18.356  14.887
61582W        W29811  28.167  39.899   1.408
61583W        W29812  42.845  11.193  10.182
61584W        W29813   1.389  21.159   3.068
61585W        W29814  41.057  10.158   4.181
61586W        W29815  28.641  11.733   4.080
61587W        W29816  44.435  15.723   4.493
61588W        W29817  39.565   2.708   0.325
61589W        W29818  13.853  37.948  12.039
61590W        W29819  21.611   8.760   1.812
61591W        W29820   9.115  43.026  13.023
61592W        W29821   1.636  44.722   2.565
61593W        W29822  13.567  17.533  12.396
61594W        W29823   7.502   0.489   3.269
61595W        W29824  28.224  30.596   1.204
61596W        W29825  21.646   2.486  14.099
61597W        W29826   9.873   8.651  11.154
61598W        W29827  30.530  15.179  13.902
61599W        W29828  21.297  24.946   1.372
61600W        W29829  26.707  37.739   0.417
61601W        W29830  28.189  28.283  10.020
61602W        W29831  15.874  32.209  10.735
61603W        W29832   2.470   4.778   2.212
61604W        W29833   9.218  13.767   0.530
61605W        W29834  35.049  36.194   1.319
61606W        W29835  35.167  33.752   3.187
61607W        W29836  30.772  17.346  14.999
61608W        W29837  22.091  37.344   1.611
61609W        W29838  42.135  27.857   3.286
61610W        W29839   5.481  38.877  10.669
61611W        W29840  10.074   3.808  11.408
61612W        W29841   5.954  21.682   0.781
61613W        W29842  29.909  33.203   1.298
61614W        W29843   9.192  32.560  13.772
61615W        W29844  11.137  25.505   2.688
61616W        W29845  21.484  15.498  10.287
61617W        W29846  11.795  35.958   4.892
61618W        W29847  13.254  35.437   4.587
61619W        W29848  38.782  17.827  11.178
61620W        W29849  35.498  27.632   0.827
61621W        W29850  32.998  14.327   0.421
61622W        W29851  30.902  35.429  12.653
61623W        W29852  22.003  40.434   4.538
61624W        W29853  32.434  25.702  10.615
61625W        W29854  30.596  30.158   2.380
61626W        W29855  25.119   9.268   4.810
61627W        W29856  15.113  29.882  12.889
61628W        W29857  23.472  42.441  13.045
61629W        W29858  27.557  16.718  11.573
61630W        W29859  30.364  29.929  11.049
61631W        W29860   2.982   8.258   0.281
61632W        W29861  17.150   4.299  13.504
61633W        W29862   8.256  44.430   0.544
61634W        W29863   2.755  24.002  13.326
61635W        W29864   1.779   2.723   4.219
61636W        W29865  15.620   5.702  14.843
61637W        W29866   0.463  29.673   0.787
61638W        W29867  43.621   2.083   3.757
61639W        W29868  22.629  10.087  13.385
61640W        W29869  28.133  34.790   2.207
61641W        W29870  42.051  10.247   0.066
61642W        W29871  35.558  15.549  12.573
61643W        W29872  36.966  11.243   2.300
61644W        W29873  44.409   7.579   2.219
61645W        W29874  25.537  12.210   4.050
61646W        W29875  33.648  26.521   0.370
61647W        W29876  22.996  37.549   1.139
61648W        W29877  27.511  42.820  10.359
61649W        W29878   9.959   4.325  14.028
61650W        W29879  44.470  18.504  12.679
61651W        W29880  14.024  27.414  12.422
61652W        W29881  43.552  27.212  13.368
61653W        W29882  29.507  30.107   4.658
61654W        W29883  31.952  18.184   1.990
61655W        W29884   5.217  28.470  14.960
61656W        W29885   9.714  36.888  10.671
61657W        W29886  31.436  36.569  13.084
61658W        W29887   3.470   9.339  14.312
61659W        W29888  13.642  19.502   4.524
61660W        W29889  17.326  23.633  11.017
61661W        W29890  33.181  33.867   3.304
61662W        W29891  10.567  26.329  13.838
61663W        W29892  26.140   3.188   3.420
61664W        W29893  37.125   5.496   2.759
61665W        W29894  10.123  16.385  12.602
61666W        W29895   7.812  18.478   4.102
61667W        W29896   1.924  41.429   0.846
61668W        W29897   0.045  20.010   1.834
61669W        W29898  42.579  28.567  14.347
61670W        W29899  32.012  11.347   2.698
61671W        W29900   5.704  16.751   1.763
61672W        W29901  42.778  21.165   3.772
61673W        W29902  13.059  28.603   3.446
61674W        W29903  12.253   7.834  12.639
61675W        W29904  16.851  37.623   3.699
61676W        W29905  18.118  43.691  11.145
61677W        W29906   3.018  19.239   1.382
61678W        W29907  12.223  28.936   0.294
61679W        W29908  10.010   0.365   1.436
61680W        W29909   4.501  11.403   1.289
61681W        W29910  27.462  37.393  11.592
61682W        W29911   1.193  44.981   4.245
61683W        W29912  23.184   2.846   3.239
61684W        W29913  23.500  43.534  11.045
61685W        W29914   9.185   0.511  13.449
61686W        W29915  37.394  27.643  14.855
61687W        W29916  36.418   9.598  10.539
61688W        W29917  17.697  40.421  12.983
61689W        W29918   6.669   7.183  11.033
61690W        W29919   7.621  27.112   1.128
61691W        W29920   7.133  42.391   4.380
61692W        W29921   0.694   4.348  12.541
61693W        W29922  22.066  42.337   2.124
61694W        W29923  18.376  18.651   0.941
61695W        W29924   5.234  33.106   4.541
61696W        W29925  24.960  15.460  10.751
61697W        W29926   4.701  22.817  12.484
61698W        W29927  29.616  38.884  12.563
61699W        W29928  32.078  11.727   1.178
61700W        W29929  39.458  30.877  13.988
61701W        W29930  22.981  34.615  12.510
61702W        W29931  34.136  27.640   2.361
61703W        W29932  21.842  27.453  10.434
61704W        W29933  39.851  29.529   2.295
61705W        W29934  36.514  26.934   1.246
61706W        W29935  35.206   8.129   2.812
61707W        W29936  20.649  31.563  13.783
61708W        W29937   1.648  18.312  11.539
61709W        W29938  33.470  36.276   9.957
61710W        W29939  27.657  33.918   1.805
61711W        W29940  34.223   8.187  11.578
61712W        W29941   1.209  30.388   2.362
61713W        W29942  32.074  11.586  14.303
61714W        W29943   4.995  34.275   3.077
61715W        W29944  36.074  38.268  11.608
61716W        W29945  24.736  15.755  12.999
61717W        W29946  24.137  24.823   0.282
61718W        W29947  22.547  33.516   3.535
61719W        W29948  25.658  16.007  11.984
61720W        W29949  41.149  15.650   2.144
61721W        W29950  30.053  22.893  13.559
61722W        W29951  16.667  17.238   2.259
61723W        W29952  21.323  35.951   1.377
61724W        W29953  38.405  27.227  10.725
61725W        W29954  30.744   8.598  12.039
61726W        W29955  42.920  43.533   4.926
61727W        W29956  24.019  16.822  10.714
61728W        W29957  11.783   6.864   0.395
61729W        W29958  18.768   6.892  13.902
61730W        W29959  25.268   7.113  10.869
61731W        W29960  29.674  14.136  13.307
61732W        W29961  33.434  42.254   1.341
61733W        W29962  18.564  11.700  13.916
61734W        W29963  24.941   5.713  12.898
61735W        W29964  36.543  36.872   2.590
61736W        W29965  23.696  19.238  14.860
61737W        W29966   8.343  20.113   0.040
61738W        W29967  31.546  23.996   0.340
61739W        W29968  12.681  28.657  12.850
61740W        W29969  37.099  20.520   3.303
61741W        W29970  27.591  42.904   3.746
61742W        W29971  23.375   6.351  14.313
61743W        W29972  28.816  17.618  12.409
61744W        W29973   0.276  27.510   3.124
61745W        W29974  40.529  23.191  12.184
61746W        W29975  17.727  11.361  10.717
61747W        W29976  23.457  13.815   1.471
61748W        W29977   4.164  10.666  13.394
61749W        W29978  30.552  43.424  10.456
61750W        W29979  14.897   7.976   2.623
61751W        W29980  12.640  39.438   4.282
61752W        W29981  34.496  35.905   3.682
61753W        W29982  34.354  33.229  14.842
61754W        W29983  14.072  29.619  14.386
61755W        W29984  37.266  44.762  13.521
61756W        W29985   2.477  22.236   1.984
61757W        W29986  20.509  25.659  11.508
61758W        W29987  13.389  23.981  12.661
61759W        W29988  26.240   7.342   0.886
61760W        W29989  21.830  39.914   3.724
61761W        W29990   4.604   1.944  12.901
61762W        W29991   8.746  44.637  11.289
61763W        W29992  18.672  19.317   0.360
61764W        W29993  15.244   8.355   0.887
61765W        W29994  19.474   9.787  12.039
61766W        W29995  20.145  30.696   1.164
61767W        W29996  41.081   5.204   0.007
61768W        W29997   7.383   7.188   3.280
61769W        W29998  35.008  35.164   1.459
61770W        W29999  15.820   6.389  14.082
61771W        W30000  15.834  30.106  11.100
61772W        W30001  43.953  22.593   0.286
61773W        W30002  20.208  28.929   0.439
61774W        W30003  31.172  40.494   4.646
61775W        W30004  40.139  40.417   4.224
61776W        W30005   4.193  29.610   2.628
61777W        W30006   9.473  17.557   1.654
61778W        W30007  35.258   5.926   4.884
61779W        W30008  39.013  25.602   0.735
61780W        W30009  22.653  21.829   0.666
61781W        W30010  32.905  18.603  13.436
61782W        W30011  28.045  17.032   1.381
61783W        W30012  41.779  17.640   2.613
61784W        W30013  32.922   2.242   4.786
61785W        W30014  38.458  26.572   0.392
61786W        W30015  43.990  31.892  12.563
61787W        W30016  28.638   9.498  11.062
61788W        W30017   8.844  43.025   3.969
61789W        W30018  28.993   1.572  12.373
61790W        W30019   0.002  12.647   3.181
61791W        W30020   4.329  24.955  13.695
61792W        W30021  42.852  39.788   4.389
61793W        W30022   2.969  14.350   4.989
61794W        W30023  42.490  20.372   2.864
61795W        W30024  10.945  32.699   0.794
61796W        W30025  43.242   9.863   1.882
61797W        W30026  26.416   7.780   0.221
61798W        W30027  24.096  28.408   1.338
61799W        W30028  43.286  33.902   2.876
61800W        W30029  33.859  23.511   2.015
61801W        W30030  36.280   7.244  14.593
61802W        W30031  34.331  22.553   1.642
61803W        W30032  20.842  10.198   1.636
61804W        W30033  29.939   0.438  10.966
61805W        W30034   8.501  39.230  14.480
61806W        W30035   1.918  29.580   3.718
61807W        W30036   6.698  27.174   3.767
61808W        W30037   6.813  43.065  10.954
61809W        W30038  39.726  30.886  13.214
61810W        W30039  40.844  23.097  14.551
61811W        W30040   2.148  19.325  13.444
61812W        W30041  18.703  28.725   2.732
61813W        W30042  29.508  41.559   0.312
61814W        W30043  27.933  19.774   1.863
61815W        W30044  18.208  21.126  11.650
61816W        W30045   2.721  17.397  11.944
61817W        W30046  33.857  38.316  13.753
61818W        W30047   1.115  13.171  12.037
61819W        W30048  23.636   5.957   3.245
61820W        W30049   1.248   2.924   4.183
61821W        W30050  11.363  16.145  12.441
61822W        W30051  22.740   0.367   0.071
61823W        W30052   2.243   9.185  13.837
61824W        W30053  34.829  16.256  14.340
61825W        W30054  14.276  43.715   2.739
61826W        W30055   1.213  37.946   2.457
61827W        W30056  35.468  35.564  12.745
61828W        W30057  26.773   2.177  10.429
61829W        W30058  20.785  21.193   0.144
61830W        W30059  38.356   5.276  14.760
61831W        W30060  37.897  26.849   2.434
61832W        W30061  10.654  27.955  10.987
61833W        W30062   6.390  17.327   1.723
61834W        W30063   3.949   6.033  10.521
61835W        W30064   3.434   9.721  13.585
61836W        W30065   1.749   1.501  14.300
61837W        W30066  42.509  40.248   4.991
61838W        W30067  25.439   1.729   0.128
61839W        W30068   9.707  22.515  10.619
61840W        W30069  33.473  34.326   3.671
61841W        W30070   1.314   2.465  14.295
61842W        W30071  27.206  16.746   0.880
61843W        W30072   2.271   7.407  10.342
61844W        W30073  13.178  31.089   2.698
61845W        W30074   2.444  12.747  10.647
61846W        W30075  35.980  10.275  14.516
61847W        W30076  41.173  29.482   5.030
61848W        W30077  21.425  21.086  10.238
61849W        W30078  40.668  29.887  11.118
61850W        W30079  40.135  23.906  10.588
61851W        W30080   2.669  38.441   3.574
61852W        W30081  18.605   5.048  11.980
61853W        W30082  31.205  12.261   3.751
61854W        W30083  34.598  33.833  11.213
61855W        W30084   6.251  33.618  13.847
61856W        W30085  10.653  24.731   2.442
61857W        W30086  43.723  33.099   3.394
61858W        W30087  25.855  18.969   4.464
61859W        W30088  43.555  29.840   0.541
61860W        W30089  29.025  27.485   1.014
61861W        W30090   4.553  23.101   4.244
61862W        W30091  26.468  25.621  10.643
61863W        W30092  13.313  43.027   2.248
61864W        W30093  12.203  23.131  10.700
61865W        W30094  12.361  16.713  13.976
61866W        W30095  31.949  24.385   4.106
61867W        W30096   7.697  30.840  10.741
61868W        W30097   8.227  32.474  14.263
61869W        W30098   8.491   3.758  10.710
61870W        W30099   0.277  18.605   0.285
61871W        W30100  12.680   1.874  13.281
61872W        W30101   7.737  32.674  14.372
61873W        W30102  38.367  11.524   3.091
61874W        W30103  16.845  21.277   5.464
61875W        W30104   9.349  17.092  10.529
61876W        W30105  12.832  20.565   0.299
61877W        W30106   4.902  12.330   1.394
61878W        W30107   8.456   8.899   3.727
61879W        W30108  25.814   0.289   0.100
61880W        W30109  36.457  23.540  12.391
61881W        W30110  14.035  11.402   2.352
61882W        W30111  39.078  44.311  12.852
61883W        W30112  23.067   6.263  10.856
61884W        W30113  14.351  39.474   4.174
61885W        W30114  33.354  21.606   3.221
61886W        W30115   9.626  34.929   4.103
61887W        W30116  37.582  38.562   4.593
61888W        W30117   5.766  41.776  13.397
61889W        W30118   7.410  39.738   4.082
61890W        W30119  22.232  30.211  11.013
61891W        W30120  41.869  34.095   0.729
61892W        W30121   4.325  25.175  10.423
61893W        W30122  23.478   6.192   0.862
61894W        W30123  32.344  36.394   0.440
61895W        W30124  18.383  31.539   1.725
61896W        W30125  28.162  22.995  12.573
61897W        W30126  41.381   8.462   4.609
61898W        W30127  37.396  27.024   2.582
61899W        W30128  13.507   3.484  13.469
61900W        W30129   4.308  15.954   4.364
61901W        W30130  26.864  12.109  11.960
61902W        W30131  43.220   6.719   2.008
61903W        W30132  30.996  34.418   2.809
61904W        W30133  21.785  23.947   1.826
61905W        W30134  11.785  21.175  14.491
61906W        W30135  13.186  14.254  14.200
61907W        W30136   9.720   2.729   1.347
61908W        W30137  37.852  31.145  11.477
61909W        W30138  25.732  11.765   3.898
61910W        W30139  20.865  13.059  13.855
61911W        W30140  41.950  20.864   4.100
61912W        W30141   0.960   6.647   0.393
61913W        W30142  43.315  30.233   4.179
61914W        W30143  11.407   5.294   1.793
61915W        W30144  29.522   0.414  11.259
61916W        W30145  44.326  40.542  13.089
61917W        W30146  24.547  36.545   3.101
61918W        W30147  22.943  22.959  13.937
61919W        W30148  25.715  15.208   2.315
61920W        W30149  42.154  34.817   2.891
61921W        W30150  13.659  38.598   2.794
61922W        W30151  38.058  18.820  11.703
61923W        W30152   3.764  23.093   0.928
61924W        W30153  40.972   3.876  12.032
61925W        W30154  25.795  21.482   3.738
61926W        W30155  21.118   8.235  10.718
61927W        W30156  31.114  12.813  10.355
61928W        W30157   9.341  13.418   0.904
61929W        W30158   9.842  25.166  13.194
61930W        W30159  13.948  17.851   3.672
61931W        W30160  38.341  20.265   0.225
61932W        W30161  21.617  15.757   0.485
61933W        W30162  24.258   0.475  10.681
61934W        W30163  29.979  16.740   0.789
61935W        W30164  42.610  14.591  12.984
61936W        W30165   4.603  12.702   3.925
61937W        W30166  19.655  26.482  13.642
61938W        W30167   7.822  17.486   0.768
61939W        W30168   3.321  10.260  11.835
61940W        W30169  36.725  43.102  10.188
61941W        W30170   4.382  30.738   0.405
61942W        W30171  20.201  27.669   1.460
61943W        W30172  38.495  26.203  10.977
61944W        W30173  42.371   5.246   4.890
61945W        W30174   6.226   2.190   4.099
61946W        W30175  23.529  26.263  14.356
61947W        W30176  15.833  15.161   4.612
61948W        W30177   4.981  23.722   0.354
61949W        W30178  21.129  16.949   4.929
61950W        W30179   7.186  12.089  14.963
61951W        W30180  42.576   1.502   1.297
61952W        W30181  23.934  33.677  10.019
61953W        W30182  22.368  29.941  13.465
61954W        W30183   4.227  23.635   0.080
61955W        W30184  28.384  41.704   4.655
61956W        W30185  22.078  26.661   2.585
61957W        W30186  32.747   7.534  14.939
61958W        W30187  23.190  37.588  12.898
61959W        W30188   2.287  20.087  11.472
61960W        W30189  39.384  25.207   4.471
61961W        W30190   4.164  38.427  12.503
61962W        W30191  20.146  23.696  14.408
61963W        W30192   3.254   5.802   0.925
61964W        W30193  22.126  40.318   3.516
61965W        W30194  44.745  36.013  10.511
61966W        W30195   1.345  15.301  12.947
61967W        W30196   1.517  39.019  11.593
61968W        W30197   6.908  17.156   1.029
61969W        W30198  37.855  15.822   1.256
61970W        W30199  14.711  26.721   4.254
61971W        W30200  15.302  17.691   3.423
61972W        W30201  43.537  43.574   1.171
61973W        W30202  16.291  40.315  13.099
61974W        W30203   3.433  17.925  11.561
61975W        W30204  15.572  30.484  13.352
61976W        W30205  40.859   0.846  10.769
61977W        W30206  21.633  33.811   1.265
61978W        W30207  33.239  35.286  11.956
61979W        W30208  11.852  25.180  13.593
61980W        W30209  43.403  27.185  10.535
61981W        W30210  44.142  21.297  13.347
61982W        W30211   7.406  24.263   2.664
61983W        W30212  40.426  23.652   0.526
61984W        W30213  40.403  34.970  14.312
61985W        W30214   1.994   3.936   4.567
61986W        W30215  23.461   4.117   0.974
61987W        W30216  34.077  23.900   3.365
61988W        W30217  13.736  43.540  14.970
61989W        W30218  28.105   8.282   0.490
61990W        W30219  11.209  16.766   1.364
61991W        W30220  21.262  18.510   3.620
61992W        W30221  42.930  17.107   5.108
61993W        W30222  34.715  37.984  12.104
61994W        W30223  27.093  11.638  10.717
61995W        W30224  11.696  17.274  10.400
61996W        W30225  24.683  40.104   2.323
61997W        W30226   7.907   5.319  13.741
61998W        W30227  19.158  23.786   1.268
61999W        W30228  44.730  38.070  11.530
62000W        W30229   2.049  24.098  14.006
62001W        W30230  43.089  41.213  13.486
62002W        W30231   7.919  20.989  10.454
62003W        W30232   2.480  40.945  14.674
62004W        W30233  36.947   7.103  12.602
62005W        W30234   7.714  12.871  11.097
62006W        W30235   4.724   1.001   3.646
62007W        W30236  40.771  23.269  12.662
62008W        W30237  39.529  34.160   3.106
62009W        W30238  32.114  20.416   2.093
62010W        W30239  39.562   7.928   5.457
62011W        W30240  33.444  35.633  12.311
62012W        W30241  33.886  25.112   2.264
62013W        W30242   5.689   6.977   1.365
62014W        W30243  31.029  10.742   3.848
62015W        W30244  29.116  16.052   4.135
62016W        W30245   2.847  26.382  14.567
62017W        W30246   9.866  15.412  13.902
62018W        W30247  38.711  10.413  10.691
62019W        W30248  28.068  13.640   0.261
62020W        W30249  11.340   7.310   2.161
62021W        W30250  12.166   5.664   1.018
62022W        W30251   3.730  39.900  11.238
62023W        W30252  15.628  43.428   9.830
62024W        W30253   7.178  35.991   3.707
62025W        W30254  42.073  27.876   4.113
62026W        W30255  11.793  26.960   1.726
62027W        W30256  29.993  23.621   1.882
62028W        W30257  29.210   6.696  13.425
62029W        W30258   0.979  25.051   2.311
62030W        W30259  40.505  12.988  10.786
62031W        W30260  17.195   8.285   0.839
62032W        W30261  20.949  26.805  11.501
62033W        W30262  38.570  20.800   1.779
62034W        W30263  13.675  22.138   2.336
62035W        W30264   9.683  12.658  10.127
62036W        W30265  32.694  20.668  11.200
62037W        W30266  42.379  42.276   3.960
62038W        W30267   8.719  12.692   2.917
62039W        W30268  38.966  37.426  14.291
62040W        W30269  41.826   0.055   3.708
62041W        W30270  24.634  25.131  13.363
62042W        W30271  24.900  32.496  12.607
62043W        W30272   7.277   1.518  12.052
62044W        W30273  14.774  12.089  12.955
62045W        W30274  24.100  42.435  12.000
62046W        W30275  13.188   4.230  14.926
62047W        W30276   9.977  17.578  14.834
62048W        W30277  37.315  43.355  11.017
62049W        W30278  37.060   6.123  10.350
62050W        W30279  16.631  17.747  12.708
62051W        W30280  15.887  12.135   0.482
62052W        W30281  34.133   5.036  10.749
62053W        W30282  32.549  13.725   2.246
62054W        W30283  29.574  14.152  14.415
62055W        W30284  18.181  43.348  13.387
62056W        W30285  40.554  18.185  12.335
62057W        W30286  37.087  25.409   3.653
62058W        W30287  32.368   9.705   1.226
62059W        W30288  41.721  28.576   1.696
62060W        W30289  44.472  20.483  12.152
62061W        W30290  37.993  41.254  11.241
62062W        W30291  41.877  27.972   2.866
62063W        W30292  39.035  36.816   4.150
62064W        W30293  12.380  31.860   3.777
62065W        W30294   2.950  17.397   4.946
62066W        W30295  16.196   5.170  11.665
62067W        W30296  41.409  12.694  12.896
62068W        W30297  16.091  24.079   0.696
62069W        W30298  44.835   0.297  12.868
62070W        W30299  31.879   4.083  13.583
62071W        W30300  27.520   0.898  11.121
62072W        W30301  30.840  13.702  11.647
62073W        W30302  35.104  13.383   1.833
62074W        W30303   7.969   5.569  11.076
62075W        W30304  41.253  25.022  13.769
62076W        W30305  12.924  23.312   1.624
62077W        W30306   0.800  26.165  14.829
62078W        W30307  44.876  24.260  11.525
62079W        W30308  26.645  26.223   4.372
62080W        W30309  40.157  36.119  11.731
62081W        W30310  20.847   6.392   4.753
62082W        W30311  10.676  31.465  14.441
62083W        W30312  25.034  33.141   0.461
62084W        W30313  11.780   7.176   4.575
62085W        W30314  14.305   7.240  11.345
62086W        W30315   9.483  11.179   5.104
62087W        W30316  15.713  32.880   4.316
62088W        W30317   9.690  38.065   2.784
62089W        W30318  21.140  17.506   3.768
62090W        W30319   8.834  19.244   2.107
62091W        W30320  19.977  12.665  13.780
62092W        W30321  30.470  25.164  10.731
62093W        W30322  12.601  37.361   0.722
62094W        W30323  43.508  10.341   1.856
62095W        W30324  20.765   0.333   2.618
62096W        W30325  25.103  25.184   1.628
62097W        W30326  14.681  13.103  12.064
62098W        W30327  40.095  15.186   1.601
62099W        W30328   3.298  39.405  11.218
62100W        W30329  10.681  19.872  10.711
62101W        W30330  27.977  25.875  14.934
62102W        W30331  38.043  26.206   0.734
62103W        W30332  41.391   7.846   2.551
62104W        W30333  24.556   3.972  10.992
62105W        W30334  42.365  21.707  14.411
62106W        W30335   7.949  22.549   1.785
62107W        W30336  12.396  33.842   0.185
62108W        W30337  30.421  25.404   4.206
62109W        W30338  33.060   7.992   0.997
62110W        W30339   5.462  44.744  12.942
62111W        W30340  23.234  17.708   3.365
62112W        W30341  14.144   5.913  13.993
62113W        W30342  13.604  25.035   2.321
62114W        W30343  19.481  19.527  14.051
62115W        W30344  16.339   8.783   3.207
62116W        W30345  22.515  33.695  11.041
62117W        W30346  35.982  44.494  10.830
62118W        W30347  33.365   2.625   1.181
62119W        W30348  27.891  32.363  10.254
62120W        W30349  40.413  19.236  10.866
62121W        W30350  40.031  17.332   3.270
62122W        W30351   8.294  33.763  11.624
62123W        W30352  21.445  35.529   4.158
62124W        W30353  41.331  42.123  13.374
62125W        W30354  44.351  29.741   4.540
62126W        W30355  33.662  28.473   0.581
62127W        W30356  14.744  24.765  13.992
62128W        W30357  30.478  31.088   0.402
62129W        W30358  11.333  37.482   2.344
62130W        W30359   4.020  41.480  11.116
62131W        W30360  38.801  36.764  12.922
62132W        W30361   2.229  26.984   2.722
62133W        W30362   1.789   8.728   2.744
62134W        W30363  35.058  32.691  11.649
62135W        W30364  15.446   2.205  10.721
62136W        W30365  11.846  24.201   1.369
62137W        W30366   8.239   5.154   0.359
62138W        W30367  15.723  31.418  14.429
62139W        W30368  21.868  25.036   0.508
62140W        W30369  34.478  38.183   2.753
62141W        W30370  40.569  37.151   4.145
62142W        W30371  27.953  37.776  11.887
62143W        W30372  41.490  24.059  12.902
62144W        W30373  20.426   1.510  11.450
62145W        W30374  32.681   6.802   2.301
62146W        W30375  39.513  18.934   0.734
62147W        W30376  29.361  33.648  12.915
62148W        W30377   4.370  13.063   1.820
62149W        W30378   5.411  44.770  13.823
62150W        W30379  28.411   0.810  13.134
62151W        W30380  33.946  22.470  13.785
62152W        W30381  44.264  23.018   4.132
62153W        W30382  26.510  18.785  11.143
62154W        W30383  36.391  15.718  14.488
62155W        W30384  18.099   0.278   1.223
62156W        W30385   6.671  16.667  11.551
62157W        W30386  23.885   8.782  12.453
62158W        W30387  40.501  15.368   0.396
62159W        W30388  35.359  23.721   2.075
62160W        W30389  24.697  40.918  13.105
62161W        W30390  42.832  22.086   0.037
62162W        W30391  11.887   8.093   3.618
62163W        W30392  11.825  41.216   2.823
62164W        W30393  29.488  33.189  12.076
62165W        W30394   3.333  17.526   3.771
62166W        W30395  14.569   6.991  11.984
62167W        W30396   7.576  41.116   0.318
62168W        W30397  43.949  36.876  14.533
62169W        W30398  15.685  10.627   1.613
62170W        W30399  10.768   6.434  11.710
62171W        W30400  11.798  11.869   0.731
62172W        W30401  10.925  27.562   0.243
62173W        W30402  43.343  15.137   1.364
62174W        W30403  23.090  37.802  11.558
62175W        W30404  37.546  34.102   3.604
62176W        W30405   2.514  34.719  11.955
62177W        W30406   5.471   8.363   3.109
62178W        W30407  29.947  25.597  12.368
62179W        W30408  32.137  37.631   3.316
62180W        W30409  41.094  32.909   3.737
62181W        W30410   9.837  23.071   3.059
62182W        W30411  27.372   8.687  13.855
62183W        W30412  15.063  12.186   3.723
62184W        W30413  23.751  40.015  12.510
62185W        W30414  24.578  29.430  12.960
62186W        W30415  13.189  12.960  14.226
62187W        W30416  27.026  41.600  12.153
62188W        W30417  21.637   4.922   0.729
62189W        W30418  42.026  18.822  12.799
62190W        W30419  27.015  18.260  13.671
62191W        W30420  44.235  29.991   0.506
62192W        W30421  32.053   9.407   2.584
62193W        W30422  41.957  42.312   0.338
62194W        W30423  43.090  30.516   2.686
62195W        W30424   0.179  36.584  14.425
62196W        W30425   3.371  44.803  11.522
62197W        W30426  28.481  32.869   2.901
62198W        W30427  13.660   9.309  10.589
62199W        W30428  18.044  23.059  13.016
62200W        W30429  12.624  17.599   1.983
62201W        W30430  25.719  23.021  11.844
62202W        W30431  43.441  33.494  13.761
62203W        W30432  27.618  24.130   3.725
62204W        W30433  35.836  44.713   0.083
62205W        W30434   3.246   4.232  13.509
62206W        W30435  22.346  34.473   4.619
62207W        W30436  11.029  42.267  14.366
62208W        W30437  38.864  34.688  10.622
62209W        W30438  29.281  16.874  11.951
62210W        W30439  17.321  25.955  13.017
62211W        W30440  26.137  15.063   1.256
62212W        W30441   3.914  38.256   2.544
62213W        W30442   7.127  11.733   2.921
62214W        W30443  30.152  41.786  13.975
62215W        W30444  39.274  44.229  13.742
62216W        W30445  36.459  24.841   4.932
62217W        W30446  44.745  10.523   2.770
62218W        W30447   5.743   7.147  11.301
62219W        W30448  34.472  35.629   0.671
62220W        W30449   9.390  16.972  14.390
62221W        W30450   1.327  34.199  11.612
62222W        W30451  42.279   9.681   2.800
62223W        W30452  17.857  15.626  13.965
62224W        W30453   4.290  19.218  14.221
62225W        W30454  18.336   9.190  13.979
62226W        W30455  12.371  30.758  11.153
62227W        W30456  14.315  33.657  14.716
62228W        W30457  13.413  44.358   1.835
62229W        W30458  21.351  18.186  10.257
62230W        W30459  23.190  33.824  14.727
62231W        W30460  39.364   3.627   0.370
62232W        W30461  25.199  25.198   4.241
62233W        W30462  35.457  23.905  14.481
62234W        W30463   8.056   2.386   4.157
62235W        W30464  12.222  28.213  11.208
62236W        W30465  36.985  27.215   4.803
62237W        W30466   3.440   7.248  13.329
62238W        W30467  19.997  14.869  10.978
62239W        W30468  13.606  39.192   0.932
62240W        W30469   5.270  13.689   2.936
62241W        W30470   6.625   5.226  12.960
62242W        W30471  44.848  35.735   2.406
62243W        W30472  42.907  43.882   2.689
62244W        W30473  43.323   2.647  12.830
62245W        W30474  13.700  41.897   2.178
62246W        W30475   4.113  29.369   0.818
62247W        W30476  12.865   5.732   1.854
62248W        W30477   2.364   0.066  11.706
62249W        W30478  40.988  42.601  13.941
62250W        W30479  13.643  22.175  12.129
62251W        W30480  13.165   2.532  10.727
62252W        W30481  36.111  28.621   1.769
62253W        W30482  31.033  13.784  12.144
62254W        W30483   9.561   3.169  12.412
62255W        W30484  29.888  25.041   4.736
62256W        W30485  40.685  43.379  10.546
62257W        W30486  36.985   4.729   4.211
62258W        W30487  25.139  32.945  10.230
62259W        W30488  13.808  36.512  14.164
62260W        W30489  22.902  23.034   1.222
62261W        W30490  19.976  18.614   1.007
62262W        W30491  33.430   8.354   1.191
62263W        W30492  11.286  28.460  10.346
62264W        W30493  36.072   6.173  10.518
62265W        W30494  25.507  15.009   3.824
62266W        W30495  10.651   8.398   1.987
62267W        W30496   8.362  10.819   1.767
62268W        W30497  35.014  22.928   4.177
62269W        W30498  25.052  41.015  10.623
62270W        W30499  43.730  25.272  13.970
62271W        W30500  26.764  34.116  14.730
62272W        W30501   3.398  29.576   3.335
62273W        W30502  32.960  26.573   3.844
62274W        W30503  18.166   9.767  13.337
62275W        W30504   4.241  31.006  14.961
62276W        W30505  32.420  14.444  12.068
62277W        W30506   2.864  37.777   9.815
62278W        W30507  14.771  38.156  12.103
62279W        W30508  10.937  15.165  11.001
62280W        W30509  12.132   3.368   3.323
62281W        W30510  25.691  15.548   1.405
62282W        W30511   4.431  39.984   2.656
62283W        W30512  14.484  43.668  13.956
62284W        W30513  18.134  25.274   1.700
62285W        W30514   7.101  43.933   0.441
62286W        W30515  39.593  15.056  14.989
62287W        W30516  10.263  40.966   2.141
62288W        W30517  15.264  23.431  13.111
62289W        W30518  14.673  32.856  11.133
62290W        W30519  25.470  44.899  11.874
62291W        W30520  33.055  19.138   3.089
62292W        W30521  36.964  39.444   1.788
62293W        W30522  25.916  35.822   4.560
62294W        W30523  16.797  37.879   0.914
62295W        W30524  17.826   7.437   4.188
62296W        W30525  30.079  15.998  14.138
62297W        W30526  20.920  35.547  10.335
62298W        W30527  33.143  35.000   0.419
62299W        W30528  18.664  30.622  12.183
62300W        W30529   6.083  35.391   0.287
62301W        W30530   6.063  26.207  11.526
62302W        W30531  27.915  38.480  11.542
62303W        W30532  12.745  13.498  11.555
62304W        W30533  23.941  24.805  11.014
62305W        W30534  37.359   9.470   9.905
62306W        W30535  18.145  27.629  13.517
62307W        W30536  42.794   7.832   2.000
62308W        W30537  11.173   1.720  14.313
62309W        W30538  43.899  20.431   2.261
62310W        W30539  31.198  43.820  11.630
62311W        W30540   9.886  21.070   2.282
62312W        W30541   4.235  42.959  14.583
62313W        W30542  33.982  27.093   3.212
62314W        W30543  20.861  35.028   5.552
62315W        W30544  16.579  29.256   1.793
62316W        W30545   6.205   6.750   4.381
62317W        W30546  25.308  10.171  10.182
62318W        W30547  23.224  11.454   2.324
62319W        W30548   2.883  43.765  12.956
62320W        W30549   6.713  43.481  11.215
62321W        W30550  35.028  23.599  12.605
62322W        W30551  19.793  11.530  11.651
62323W        W30552  21.566  17.471  13.391
62324W        W30553  25.680  17.210  11.527
62325W        W30554   9.854  33.937   1.784
62326W        W30555   9.909  39.995  11.482
62327W        W30556  36.916   2.998   4.687
62328W        W30557  15.064   8.124  12.943
62329W        W30558  16.534  21.459   1.182
62330W        W30559   5.101  39.407  12.499
62331W        W30560  10.443  41.471  13.370
62332W        W30561   8.668  39.753  10.732
62333W        W30562   3.686  30.281   3.413
62334W        W30563  33.483  41.840  13.425
62335W        W30564  18.345  11.254  12.859
62336W        W30565  32.414  12.019  12.937
62337W        W30566  29.302   3.479  11.113
62338W        W30567   2.455   6.249   0.796
62339W        W30568  24.237   0.811  12.394
62340W        W30569  39.136  18.119  13.651
62341W        W30570  22.095  12.429  14.818
62342W        W30571  40.898  24.739   4.147
62343W        W30572   1.784   6.774   0.871
62344W        W30573  15.166  10.821  13.616
62345W        W30574  20.013   2.669   0.192
62346W        W30575   1.846  43.063   0.962
62347W        W30576  44.960  16.348   0.448
62348W        W30577   8.710  16.402  12.574
62349W        W30578   2.288  17.428  10.351
62350W        W30579   5.466   7.398   3.214
62351W        W30580  19.671   0.432   2.738
62352W        W30581   4.872  30.955  13.899
62353W        W30582  43.334   2.880   0.127
62354W        W30583   5.131  12.717  12.129
62355W        W30584   3.515   6.257   1.065
62356W        W30585   7.361  23.751  13.021
62357W        W30586  10.862   9.742  10.206
62358W        W30587  18.546  28.891  12.823
62359W        W30588   2.750  26.163  10.898
62360W        W30589  26.591  30.155   1.148
62361W        W30590  32.912  42.818  14.911
62362W        W30591   0.187  31.726  12.354
62363W        W30592  41.260  22.047  10.723
62364W        W30593  34.872  15.724  10.224
62365W        W30594  26.975  34.794   2.822
62366W        W30595  13.781  38.442  11.868
62367W        W30596  42.407  38.794   3.757
62368W        W30597  30.311  39.054   4.035
62369W        W30598  11.399   5.372  10.329
62370W        W30599  25.304  33.287   4.288
62371W        W30600  31.070  44.650   3.532
62372W        W30601  13.628  32.981   2.782
62373W        W30602   1.295  26.730   4.901
62374W        W30603  15.697   1.051   9.815
62375W        W30604   1.996  42.562  11.183
62376W        W30605  37.650  25.942   4.656
62377W        W30606  14.354  24.408  12.900
62378W        W30607  29.071  24.656  10.920
62379W        W30608  32.519  37.976  10.749
62380W        W30609  27.152  38.863   4.903
62381W        W30610  26.161  10.296   4.475
62382W        W30611  15.642  37.407  11.852
62383W        W30612  36.419  21.714   2.781
62384W        W30613  10.058  14.290  13.494
62385W        W30614   5.803   4.357  11.695
62386W        W30615  24.994   3.405  12.907
62387W        W30616  26.410  31.412  10.720
62388W        W30617  16.139  36.285   1.663
62389W        W30618   1.175   2.790   2.357
62390W        W30619  14.079  23.110  12.006
62391W        W30620  22.172  25.934  11.880
62392W        W30621  13.556  32.089   0.288
62393W        W30622  12.619   9.866   3.592
62394W        W30623  38.809  25.931   1.597
62395W        W30624  15.052  25.446   2.635
62396W        W30625  18.048  17.119  11.042
62397W        W30626  21.419   8.855   2.681
62398W        W30627   7.387  22.548   0.938
62399W        W30628  25.205  35.011   1.014
62400W        W30629  17.119  20.669  13.303
62401W        W30630   6.319  18.840   2.161
62402W        W30631  27.757  29.117   3.362
62403W        W30632   1.985  24.035  14.862
62404W        W30633  18.215  30.564  11.610
62405W        W30634  15.106  35.132   0.877
62406W        W30635  33.635  41.363   1.040
62407W        W30636  27.962  17.708  14.623
62408W        W30637  28.489  38.501   2.286
62409W        W30638  19.039   3.438   0.298
62410W        W30639  14.406  22.517  13.775
62411W        W30640  26.095  36.830   1.731
62412W        W30641  12.818  22.497  13.063
62413W        W30642  38.491   5.227   1.252
62414W        W30643  17.881  28.261   1.183
62415W        W30644  16.810  19.059  12.442
62416W        W30645   6.573   5.461  13.454
62417W        W30646  42.005  41.304   0.454
62418W        W30647  42.919  34.052   4.892
62419W        W30648  21.292   7.025   3.711
62420W        W30649   9.897  26.697  12.654
62421W        W30650  21.483  10.670  13.010
62422W        W30651  18.982   1.669  13.519
62423W        W30652  10.089  16.228  14.359
62424W        W30653  28.291   8.926   2.158
62425W        W30654  35.343  31.103  13.385
62426W        W30655  27.854   1.286   0.388
62427W        W30656  32.013  18.879  10.385
62428W        W30657   1.429   7.594   4.254
62429W        W30658   4.246  23.807  14.583
62430W        W30659  30.863  20.159   2.380
62431W        W30660  34.809   1.083  11.056
62432W        W30661  19.562  44.742   2.518
62433W        W30662  15.488  44.777   2.282
62434W        W30663  36.670  27.675   3.789
62435W        W30664  12.753  43.055  11.996
62436W        W30665   9.620   8.639   0.976
62437W        W30666  41.026  14.199  11.451
62438W        W30667   4.751   0.444  13.812
62439W        W30668   7.269  36.679   1.469
62440W        W30669  36.630  17.305   3.636
62441W        W30670  21.493  19.662  13.611
62442W        W30671   0.748  37.194  10.311
62443W        W30672  28.238  17.185  13.859
62444W        W30673  23.706   4.579  12.884
62445W        W30674  25.730  24.687   1.346
62446W        W30675  40.530  12.035  14.199
62447W        W30676   8.886   5.530  10.360
62448W        W30677  37.399  12.175   0.873
62449W        W30678  29.419  27.208  13.778
62450W        W30679  36.427  25.451   1.231
62451W        W30680  43.316  42.077   4.742
62452W        W30681  15.823   7.631  12.040
62453W        W30682  33.509  41.466   1.974
62454W        W30683  43.981  24.175   2.370
62455W        W30684  10.260  22.229   3.350
62456W        W30685   0.000   4.755   0.802
62457W        W30686   3.630  10.939   2.183
62458W        W30687  12.811   2.860   3.655
62459W        W30688  30.114  30.388  11.009
62460W        W30689  24.558  19.983  12.370
62461W        W30690  43.749  29.207  13.340
62462W        W30691   7.631  44.930   1.101
62463W        W30692  38.279  36.731   3.824
62464W        W30693  23.253  18.130   0.990
62465W        W30694  22.854  44.284   0.273
62466W        W30695   2.939  27.615  10.969
62467W        W30696  39.943   5.368  12.350
62468W        W30697  21.921  34.039   2.591
62469W        W30698   4.840   6.865  13.424
62470W        W30699  23.257   2.828  11.426
62471W        W30700  36.444  44.862  13.956
62472W        W30701  24.001  22.104  12.508
62473W        W30702  28.215  34.825  12.070
62474W        W30703  25.986  42.946   4.097
62475W        W30704  41.562  33.484   0.977
62476W        W30705   1.699   1.376  11.381
62477W        W30706  18.587  30.451   3.979
62478W        W30707  31.494  24.066  12.836
62479W        W30708   1.154  11.201  14.810
62480W        W30709  34.102  33.983   4.665
62481W        W30710  10.848  11.691   1.941
62482W        W30711  34.303   5.259   2.180
62483W        W30712  31.962   8.210  11.577
62484W        W30713  19.852  21.965  12.468
62485W        W30714  25.652  38.633  14.326
62486W        W30715  27.503  28.459   4.095
62487W        W30716  27.304  41.198  12.571
62488W        W30717  13.020  10.431   2.616
62489W        W30718  26.194  26.633  10.872
62490W        W30719  12.902  10.908  10.385
62491W        W30720  21.209  17.334   1.338
62492W        W30721   9.068  13.101   1.866
62493W        W30722  44.507  21.302  13.795
62494W        W30723   4.229  34.004  13.101
62495W        W30724  19.842  34.617  13.170
62496W        W30725  36.251  28.492   2.245
62497W        W30726  24.412  42.017  11.950
62498W        W30727  41.500   1.816   4.851
62499W        W30728   4.556  27.288   2.698
62500W        W30729  16.549  12.241  13.365
62501W        W30730  17.268  28.086   0.142
62502W        W30731  41.541  11.666   0.490
62503W        W30732  13.193  28.697  14.848
62504W        W30733  18.027  10.240   0.417
62505W        W30734  37.130  18.916  11.610
62506W        W30735  12.059   3.722   0.737
62507W        W30736  42.317  20.228  13.161
62508W        W30737  28.514   7.181   1.196
62509W        W30738  34.488  40.320  11.411
62510W        W30739   3.996  15.625   0.969
62511W        W30740  44.894  22.104   0.541
62512W        W30741  19.459   2.382  13.610
62513W        W30742  14.808   3.686   3.244
62514W        W30743  24.666  24.484  10.723
62515W        W30744  28.098  31.119   2.645
62516W        W30745  40.283  28.223  10.516
62517W        W30746  21.999  10.741  12.322
62518W        W30747  28.040  24.177   2.700
62519W        W30748  33.368  13.372   2.511
62520W        W30749   9.753   1.808   1.782
62521W        W30750  27.137  34.568  12.930
62522W        W30751   0.329   5.506   2.405
62523W        W30752   8.822  24.657   0.866
62524W        W30753  42.559  30.319  13.813
62525W        W30754  42.002  24.587   3.947
62526W        W30755  35.998  42.519   4.998
62527W        W30756   3.688   0.976  14.810
62528W        W30757   1.931  17.788   2.742
62529W        W30758  11.088  16.232   1.425
62530W        W30759   8.761   3.383   0.240
62531W        W30760  25.660  25.752  11.593
62532W        W30761  26.681  41.455  14.905
62533W        W30762  43.468  13.349  12.539
62534W        W30763  25.644  44.018  11.009
62535W        W30764  18.731   0.446  14.850
62536W        W30765  39.143  30.900  12.900
62537W        W30766   3.871   7.419  11.171
62538W        W30767  25.081   4.917  12.453
62539W        W30768  34.253  19.405  13.088
62540W        W30769  31.083  18.640  13.978
62541W        W30770  18.520  22.748   2.323
62542W        W30771  18.050  18.012  11.830
62543W        W30772  43.531  11.225  11.673
62544W        W30773   5.329  25.505   2.320
62545W        W30774  23.753  30.945   2.913
62546W        W30775  36.630  18.222  13.604
62547W        W30776  35.423  43.807   2.184
62548W        W30777  13.773  13.793  10.959
62549W        W30778  39.820  28.343  12.137
62550W        W30779  26.544   0.854   0.069
62551W        W30780  31.295   6.850   0.533
62552W        W30781  37.381  11.642   0.371
62553W        W30782   0.180  36.892  10.666
62554W        W30783   6.995  15.137  12.937
62555W        W30784  40.394  34.081   2.695
62556W        W30785  16.604  35.514  12.088
62557W        W30786  37.331  35.515   3.644
62558W        W30787  36.434  39.482   4.119
62559W        W30788  34.874  18.532  11.104
62560W        W30789  41.784  23.531  11.852
62561W        W30790  16.288  33.033  14.100
62562W        W30791  17.545  41.327   2.730
62563W        W30792  23.462  27.609  13.598
62564W        W30793  12.855  42.822   1.337
62565W        W30794  12.091  39.837  12.984
62566W        W30795  44.925  43.424  10.954
62567W        W30796  36.615  29.122  13.821
62568W        W30797  29.009  24.691  14.426
62569W        W30798  11.729  14.803  11.187
62570W        W30799  44.974  13.733  11.699
62571W        W30800   6.702  10.226  14.059
62572W        W30801  43.109   0.509  11.036
62573W        W30802  15.735  24.017   3.542
62574W        W30803  43.162  27.449   0.444
62575W        W30804   4.428  16.068   3.115
62576W        W30805  17.979  43.281   3.131
62577W        W30806  10.384  13.649  12.504
62578W        W30807   5.246  14.177   3.112
62579W        W30808  24.419  27.658  13.496
62580W        W30809   3.366  30.502   2.228
62581W        W30810   5.481  27.005  11.310
62582W        W30811   1.176  22.473  11.082
62583W        W30812  42.988  31.730  10.742
62584W        W30813  15.592  20.534  14.463
62585W        W30814  31.124   9.911   2.711
62586W        W30815   9.253  12.302  13.300
62587W        W30816  36.843  30.502   4.102
62588W        W30817   3.755   8.685  10.939
62589W        W30818   2.585  33.608   2.351
62590W        W30819  23.660  24.913  14.860
62591W        W30820   2.907  40.454  12.911
62592W        W30821   8.155   5.694   3.758
62593W        W30822  40.009  32.730   3.378
62594W        W30823  14.282  26.724   0.446
62595W        W30824  13.795  15.748  11.098
62596W        W30825   7.687  25.001  12.052
62597W        W30826   3.415  44.072  10.274
62598W        W30827  38.400   0.922   2.367
62599W        W30828  41.961  15.624   0.428
62600W        W30829  12.662  17.588   4.346
62601W        W30830  36.532  34.601  13.490
62602W        W30831  31.021  15.549   3.703
62603W        W30832  37.306   8.814  11.084
62604W        W30833  35.064   3.018   3.265
62605W        W30834   0.975   5.618   0.333
62606W        W30835  37.115  11.597   1.770
62607W        W30836  36.430  15.381   3.175
62608W        W30837   9.119  44.986  12.553
62609W        W30838  33.490   6.778   3.746
62610W        W30839  25.842  36.157  14.834
62611W        W30840   7.196  30.780   3.106
62612W        W30841  31.344  16.251   0.958
62613W        W30842  15.187  24.028   2.352
62614W        W30843  12.138  19.818  14.510
62615W        W30844  31.155  12.757  11.790
62616W        W30845  17.707  14.113   1.076
62617W        W30846   4.007  17.245   4.207
62618W        W30847  13.888  18.278   2.899
62619W        W30848  29.699  17.158  14.068
62620W        W30849  44.654  33.591  14.737
62621W        W30850  10.367   7.289  10.389
62622W        W30851  31.103   1.426  14.911
62623W        W30852  15.135  39.870  14.247
62624W        W30853  40.435  11.667   2.357
62625W        W30854  29.074  18.820   3.579
62626W        W30855  27.955  42.301   0.189
62627W        W30856   4.442  40.354   0.771
62628W        W30857  22.920  39.973   0.636
62629W        W30858  10.570  40.527  11.708
62630W        W30859  19.150  43.276  11.992
62631W        W30860  40.038   0.374   4.549
62632W        W30861  21.766  33.449  10.665
62633W        W30862  32.120  32.493   0.745
62634W        W30863  14.710   9.341  12.939
62635W        W30864  42.225  16.316   2.300
62636W        W30865  37.531  41.957   0.296
62637W        W30866  18.836  12.251  14.439
62638W        W30867  37.125  32.973   4.503
62639W        W30868  21.219  12.789   3.245
62640W        W30869  30.179  29.901   2.716
62641W        W30870  21.806   8.928   1.352
62642W        W30871  20.856   3.094   2.127
62643W        W30872  38.879  21.817   4.138
62644W        W30873  11.682  17.267  12.852
62645W        W30874   8.153  11.329  14.289
62646W        W30875   7.431  24.230  11.605
62647W        W30876  29.156  35.499   4.044
62648W        W30877  23.130  33.444  10.246
62649W        W30878  33.947  20.185   1.247
62650W        W30879  27.709  44.468  13.781
62651W        W30880  44.741  41.554  13.083
62652W        W30881  16.519   2.228  10.611
62653W        W30882  26.144   1.215  12.150
62654W        W30883  32.853  25.294   2.836
62655W        W30884  21.127  15.180   4.590
62656W        W30885  37.779  37.536   0.938
62657W        W30886  30.061   8.222   4.389
62658W        W30887  12.529  12.257   9.797
62659W        W30888  44.782   3.337   2.813
62660W        W30889  24.383  29.949  12.387
62661W        W30890   3.274  11.356   3.730
62662W        W30891   4.938  26.251  14.787
62663W        W30892  18.680   7.967   4.322
62664W        W30893  37.572  43.553  14.534
62665W        W30894   3.931  21.482  10.676
62666W        W30895  35.403  44.948  11.498
62667W        W30896   1.857  11.749   4.825
62668W        W30897  29.193  37.781  13.013
62669W        W30898  11.562  37.699   4.166
62670W        W30899  11.078   6.034  11.574
62671W        W30900  43.288  38.764   2.751
62672W        W30901  13.563  34.644  12.428
62673W        W30902  34.828  37.871  12.589
62674W        W30903  14.231  18.659   2.401
62675W        W30904   0.907  30.563  10.448
62676W        W30905   1.756   2.287   3.736
62677W        W30906  32.207   4.279  13.932
62678W        W30907  28.935  37.433   4.578
62679W        W30908  28.990  29.009   2.419
62680W        W30909  42.989   4.688   0.904
62681W        W30910   6.561  24.529   2.122
62682W        W30911  30.008   1.713  12.460
62683W        W30912  11.604   4.999  10.636
62684W        W30913  32.623  34.453   2.738
62685W        W30914  23.282  35.488  14.255
62686W        W30915  34.814  28.870   2.702
62687W        W30916   1.817  12.170   1.279
62688W        W30917  22.159  43.521   4.550
62689W        W30918  26.709   8.909   4.146
62690W        W30919  41.351  25.032  12.053
62691W        W30920  39.843   8.157   1.788
62692W        W30921  11.411  10.318   3.243
62693W        W30922  33.432  11.760  13.998
62694W        W30923  15.582  20.183  11.526
62695W        W30924   1.906  23.042  12.097
62696W        W30925  30.639   9.825   3.632
62697W        W30926  26.934  30.432   4.235
62698W        W30927  23.937  40.045   4.246
62699W        W30928   2.043   9.214  12.508
62700W        W30929   7.345   3.485   1.268
62701W        W30930  26.261   6.302   1.237
62702W        W30931  10.816   4.883  14.242
62703W        W30932  27.272  12.613   3.692
62704W        W30933   6.919  15.150   3.720
62705W        W30934  12.823  34.492   0.727
62706W        W30935   1.317  26.034  11.082
62707W        W30936  35.825   5.658  12.524
62708W        W30937  31.033   9.883  10.461
62709W        W30938  20.164  33.488   3.134
62710W        W30939  23.076  21.065  13.874
62711W        W30940  34.172  29.874  12.320
62712W        W30941  20.657  16.527   0.803
62713W        W30942  30.889   0.900  13.354
62714W        W30943   8.645  27.947   3.201
62715W        W30944  39.421  13.245   1.369
62716W        W30945  32.642  33.070  11.843
62717W        W30946  21.730  29.930   1.272
62718W        W30947  37.936  22.788   3.850
62719W        W30948  30.575  36.557  14.672
62720W        W30949  25.427  36.616   4.914
62721W        W30950  26.720  38.970   0.175
62722W        W30951  41.804   9.110  10.588
62723W        W30952  32.854  34.842   0.839
62724W        W30953  20.146   1.689  10.590
62725W        W30954  39.040  20.108  12.929
62726W        W30955  28.552  39.363  13.523
62727W        W30956  35.468  18.090  12.615
62728W        W30957  19.810  32.158  10.958
62729W        W30958  39.302  41.099   2.997
62730W        W30959  14.780  42.935   3.145
62731W        W30960  20.253  11.314  10.382
62732W        W30961  18.821  38.367   5.008
62733W        W30962   0.211  30.476  11.117
62734W        W30963  20.232  19.717  10.576
62735W        W30964  35.369  30.913  10.428
62736W        W30965  28.672  13.125   2.575
62737W        W30966  40.775   2.061   3.748
62738W        W30967  15.058  41.287  13.252
62739W        W30968  11.151  23.055  14.795
62740W        W30969  34.070  34.334   1.761
62741W        W30970  37.715   3.293  13.794
62742W        W30971  19.479  24.999   5.091
62743W        W30972  12.761  37.002  11.844
62744W        W30973  32.967   6.062   2.368
62745W        W30974  23.645   3.657  12.952
62746W        W30975  24.756   2.908  12.987
62747W        W30976  30.371   0.032  14.795
62748W        W30977  42.528  27.976  13.179
62749W        W30978  18.008  44.930  11.520
62750W        W30979  11.835  13.929  10.963
62751W        W30980  40.800  14.702   1.311
62752W        W30981  12.271  14.429  14.812
62753W        W30982  23.416  35.284  10.736
62754W        W30983  21.244  29.880  13.957
62755W        W30984  24.896  17.045  14.078
62756W        W30985   3.829  43.293  12.980
62757W        W30986  28.842  35.569   4.746
62758W        W30987  22.210  23.506   3.250
62759W        W30988  34.328  31.530  13.351
62760W        W30989  44.517  38.035  11.997
62761W        W30990  31.602  12.688   0.324
62762W        W30991  17.041   7.908   0.344
62763W        W30992  10.538   7.388   0.812
62764W        W30993   6.381  43.735  13.170
62765W        W30994  20.237  19.121   4.877
62766W        W30995  15.186  32.322   3.897
62767W        W30996  33.563   4.668   0.878
62768W        W30997  16.192  11.394   1.258
62769W        W30998  25.624  17.128  11.018
62770W        W30999   6.344  33.901  12.211
62771W        W31000  23.499  29.419   1.720
62772W        W31001  35.599   5.538   2.106
62773W        W31002   9.370   4.714   0.711
62774W        W31003  42.909  33.498  14.542
62775W        W31004  36.558   2.154  11.121
62776W        W31005  36.065  41.470   0.014
62777W        W31006  25.902  17.489  14.048
62778W        W31007  29.524  25.926   4.818
62779W        W31008  26.153  12.633  11.705
62780W        W31009   6.298   2.692   3.222
62781W        W31010  25.206  12.592   3.111
62782W        W31011   1.948  43.722  12.292
62783W        W31012  14.717  19.808   3.269
62784W        W31013   1.716  16.117  11.486
62785W        W31014  32.139  31.960  10.587
62786W        W31015  19.157  33.531  13.435
62787W        W31016   9.489  16.344  12.016
62788W        W31017   0.923  13.180   1.196
62789W        W31018  11.535   8.384   1.754
62790W        W31019  32.589  32.660  12.138
62791W        W31020  12.801  31.872   2.687
62792W        W31021  44.977  21.533  13.061
62793W        W31022  44.866   2.498   3.210
62794W        W31023  39.716  16.681   1.177
62795W        W31024  38.400  21.280   0.912
62796W        W31025  13.334  13.291  14.984
62797W        W31026  16.580  25.671  13.376
62798W        W31027  15.500  26.136  10.922
62799W        W31028  32.321  23.686  11.275
62800W        W31029  22.634  19.632   3.132
62801W        W31030   7.641  27.824   4.752
62802W        W31031  37.820   9.165  13.348
62803W        W31032  35.037   8.212   3.776
62804W        W31033  12.336   6.345   0.279
62805W        W31034  35.999   5.243   0.030
62806W        W31035  41.060  21.333   2.657
62807W        W31036  15.872  33.091   1.820
62808W        W31037  17.173  44.472  10.668
62809W        W31038  31.132  41.435   1.620
62810W        W31039   4.005  31.373   2.663
62811W        W31040   0.166  12.800   1.222
62812W        W31041  10.870  18.636  11.490
62813W        W31042  17.226  16.109   1.794
62814W        W31043  26.017  23.529  12.881
62815W        W31044  13.216  29.063   3.750
62816W        W31045  28.425  14.305  14.862
62817W        W31046  27.467  20.055   1.191
62818W        W31047  28.036  35.755   3.112
62819W        W31048  36.444  35.936  13.436
62820W        W31049  25.038   4.273  11.554
62821W        W31050  39.646  43.393   3.587
62822W        W31051  29.051  17.731   4.082
62823W        W31052  17.327  38.962   2.772
62824W        W31053  12.832  39.591  13.337
62825W        W31054  32.122  23.456   1.348
62826W        W31055  15.348   4.391  14.460
62827W        W31056  40.465  40.713  14.916
62828W        W31057  27.182  36.881  11.533
62829W        W31058  37.297  31.134  12.538
62830W        W31059  44.751  39.528   3.586
62831W        W31060  28.405  16.727  11.724
62832W        W31061  39.048  12.164  12.880
62833W        W31062  11.839  34.453  12.492
62834W        W31063  31.155  32.819  12.846
62835W        W31064   0.990   8.774   3.116
62836W        W31065  37.732  35.619  13.830
62837W        W31066  13.042  34.181  11.999
62838W        W31067  42.334  17.615   2.737
62839W        W31068   4.133   9.599   0.290
62840W        W31069  35.057  31.852   1.596
62841W        W31070  23.194  24.088  11.172
62842W        W31071  36.913  35.259  14.839
62843W        W31072  44.531  42.392   2.364
62844W        W31073  18.682  35.188  13.355
62845W        W31074  14.264  30.547  11.504
62846W        W31075   2.734  36.987   3.286
62847W        W31076  31.958   4.228  10.701
62848W        W31077  25.868  36.875  10.038
62849W        W31078  10.655  33.127   0.840
62850W        W31079  31.096  33.935   3.606
62851W        W31080  23.490  12.358   3.405
62852W        W31081  18.933  34.725  11.141
62853W        W31082   1.983  12.979  10.738
62854W        W31083  14.149  18.619   0.373
62855W        W31084  40.087  31.100  11.500
62856W        W31085  31.044  38.857  12.870
62857W        W31086  44.247  44.208   3.296
62858W        W31087  38.475   6.838   3.631
62859W        W31088  35.821  37.493  12.941
62860W        W31089  32.114  40.406   4.561
62861W        W31090   5.454  18.722   2.401
62862W        W31091   4.429  10.900  14.513
62863W        W31092   6.158  34.650   2.838
62864W        W31093  34.036  31.526  12.468
62865W        W31094  34.556   5.748  12.209
62866W        W31095  35.260  22.122  13.992
62867W        W31096  18.682   2.453   4.627
62868W        W31097   8.838  20.939  13.031
62869W        W31098  43.389   3.451   3.856
62870W        W31099  14.638  10.273  12.486
62871W        W31100  14.203   4.310   3.837
62872W        W31101   8.258  37.811  13.304
62873W        W31102  17.342  13.111   3.673
62874W        W31103  27.215   9.700  14.145
62875W        W31104   9.302   5.691  14.261
62876W        W31105   6.215  35.099  10.465
62877W        W31106   5.359  41.342  11.143
62878W        W31107   9.313   3.025   1.190
62879W        W31108  31.439  36.920   2.324
62880W        W31109  13.792   9.060  14.422
62881W        W31110  43.005   0.009  11.934
62882W        W31111  17.783   0.401  14.277
62883W        W31112   9.496   8.755   2.257
62884W        W31113  25.795  22.995  10.803
62885W        W31114   7.462  25.115  14.770
62886W        W31115  27.445   1.311  12.773
62887W        W31116   2.340  16.532  12.360
62888W        W31117   7.930  31.874   1.859
62889W        W31118  25.073  16.784  13.209
62890W        W31119  35.352   2.879  11.564
62891W        W31120  31.502  22.895  14.322
62892W        W31121   5.193   0.834   3.767
62893W        W31122   5.414   2.699   1.302
62894W        W31123  16.765   4.010   3.358
62895W        W31124  19.767  32.566   1.439
62896W        W31125  22.755  44.883  12.839
62897W        W31126   6.321  35.814   0.919
62898W        W31127  34.575   1.747   4.118
62899W        W31128  24.544  24.305   1.731
62900W        W31129  15.675  23.385  14.434
62901W        W31130  43.413  17.072  11.117
62902W        W31131   5.089  14.989   0.199
62903W        W31132   5.996  22.775  13.826
62904W        W31133  23.005  28.010  13.292
62905W        W31134  25.109  25.427  12.621
62906W        W31135  37.624  37.995   3.646
62907W        W31136  23.030  22.727  10.622
62908W        W31137  15.904   5.886   1.712
62909W        W31138  21.759  40.013  12.036
62910W        W31139  26.141  15.581   3.567
62911W        W31140  43.977  38.321  10.925
62912W        W31141  33.099   9.547  11.200
62913W        W31142  27.927  44.191   2.063
62914W        W31143  44.524  44.111  10.698
62915W        W31144  10.675   9.194   3.904
62916W        W31145  31.210   3.291  14.209
62917W        W31146  36.625  21.706   3.671
62918W        W31147  37.105   6.674   2.194
62919W        W31148  43.000  14.816  11.233
62920W        W31149   7.378  11.747   3.897
62921W        W31150  26.130  21.205  13.151
62922W        W31151  32.709  10.319  13.406
62923W        W31152  15.102  30.104  12.423
62924W        W31153  20.371  23.898  10.036
62925W        W31154  22.176  25.152   0.908
62926W        W31155  44.418   8.303   4.475
62927W        W31156  28.135  33.321   0.519
62928W        W31157   5.356  42.420   4.767
62929W        W31158  44.205  33.343  14.746
62930W        W31159  26.731  40.009  11.580
62931W        W31160  20.734  20.964  11.653
62932W        W31161  35.472   6.725   1.285
62933W        W31162  23.714  17.973  13.891
62934W        W31163  15.305  26.131  10.441
62935W        W31164  23.250   9.281   4.907
62936W        W31165  11.344  25.976   2.113
62937W        W31166  14.143  36.451   3.778
62938W        W31167  23.223  42.731  11.909
62939W        W31168   3.375  36.613  13.456
62940W        W31169  37.418  18.341   4.441
62941W        W31170  10.199  39.664   4.825
62942W        W31171  44.292  21.587   2.235
62943W        W31172  28.582  35.811  14.718
62944W        W31173  44.472  44.468  11.080
62945W        W31174  38.732  28.908   4.583
62946W        W31175  22.019  35.822  13.532
62947W        W31176   7.841  31.763  12.482
62948W        W31177  20.282  33.958  14.495
62949W        W31178  16.507  34.936  14.610
62950W        W31179   2.888  44.501   3.376
62951W        W31180  25.116  14.246  12.015
62952W        W31181  14.944  18.060  13.268
62953W        W31182   7.594   2.251   0.967
62954W        W31183   3.215  13.194  11.349
62955W        W31184  32.407  36.515   4.888
62956W        W31185  17.136  25.438  14.835
62957W        W31186  29.938  33.519  13.072
62958W        W31187   6.944  40.587  12.938
62959W        W31188  19.450  17.417  13.420
62960W        W31189  25.321  28.521  14.057
62961W        W31190  42.379  25.002   1.763
62962W        W31191   6.441   1.517  14.186
62963W        W31192  22.168  38.080  10.933
62964W        W31193  23.014  24.866  14.145
62965W        W31194  13.537  10.862   3.910
62966W        W31195  42.323   4.303   4.138
62967W        W31196   4.461  10.639   0.001
62968W        W31197  17.884  34.597  12.696
62969W        W31198  27.436  41.469   4.542
62970W        W31199  32.624   0.398  14.051
62971W        W31200  44.134  40.265   0.735
62972W        W31201  39.748   4.177  12.776
62973W        W31202  35.561   9.703   1.980
62974W        W31203  44.330  30.672  12.296
62975W        W31204  11.476  42.739  12.714
62976W        W31205  38.058  40.821   2.284
62977W        W31206   1.696  32.394   3.646
62978W        W31207   7.914  12.745   1.888
62979W        W31208  18.492  13.587   4.171
62980W        W31209  33.552  17.035   1.273
62981W        W31210  25.043  27.454  13.540
62982W        W31211  33.385  33.261   3.900
62983W        W31212   8.640  29.999   1.593
62984W        W31213   2.968  25.992  12.810
62985W        W31214   8.153   3.533   2.289
62986W        W31215  27.290  15.132   4.587
62987W        W31216  19.136  15.689   2.808
62988W        W31217   0.342  20.099   1.403
62989W        W31218  15.700  11.376   2.735
62990W        W31219  25.203   7.666  11.197
62991W        W31220  30.560  37.587   0.040
62992W        W31221  19.731  29.260  14.799
62993W        W31222   2.097  33.478   2.424
62994W        W31223   9.681  34.808  11.125
62995W        W31224  17.478  29.174   3.679
62996W        W31225  37.060  19.006   4.007
62997W        W31226  25.750   3.353   0.315
62998W        W31227   8.766  17.749   0.648
62999W        W31228  41.129  16.534   3.042
63000W        W31229  29.838  37.732   2.033
63001W        W31230   4.324  29.327  11.248
63002W        W31231   8.930  35.129  12.919
63003W        W31232  23.323  13.318   3.560
63004W        W31233  21.584   8.847   4.472
63005W        W31234  25.227  34.119   2.294
63006W        W31235  39.907  26.491   4.195
63007W        W31236  32.379   8.267  12.082
63008W        W31237  17.672  27.169   0.441
63009W        W31238   9.079  30.503   0.450
63010W        W31239  39.060  12.350  14.834
63011W        W31240   8.605  20.849   4.329
63012W        W31241  28.636  19.698  14.898
63013W        W31242  34.810  19.002   2.650
63014W        W31243  16.651  33.143   0.073
63015W        W31244  18.418  42.869  12.627
63016W        W31245   6.376  17.653  11.549
63017W        W31246  12.551  36.398  13.432
63018W        W31247  14.667  12.060   2.835
63019W        W31248  19.019  15.726   0.844
63020W        W31249   5.496  40.971  13.643
63021W        W31250  30.817   8.400  14.042
63022W        W31251  35.037   6.483   3.243
63023W        W31252   2.686   1.610   2.832
63024W        W31253  23.612  10.819  12.942
63025W        W31254  13.448   4.986   3.684
63026W        W31255  15.143   9.396   0.952
63027W        W31256  14.746  31.032  14.340
63028W        W31257  42.861   1.446  13.224
63029W        W31258  28.868   5.184  11.929
63030W        W31259  30.752  13.084  11.135
63031W        W31260  26.092  40.952   2.923
63032W        W31261  29.410  23.632  14.411
63033W        W31262  18.184  18.183  12.741
63034W        W31263   0.697   3.024   2.378
63035W        W31264  18.550   7.966   0.413
63036W        W31265  24.500  10.352   2.648
63037W        W31266  16.696  31.424   4.313
63038W        W31267  37.104  33.662   1.390
63039W        W31268  32.067  24.100  11.067
63040W        W31269  36.005  18.596   0.795
63041W        W31270   0.253  13.126  11.103
63042W        W31271  27.202  32.488   1.128
63043W        W31272   0.276  25.707  11.184
63044W        W31273  19.738  26.119  11.292
63045W        W31274  10.426  31.065  10.487
63046W        W31275   2.675  33.118  11.508
63047W        W31276  20.550  15.585   4.120
63048W        W31277  44.007   7.335   0.767
63049W        W31278  11.795  11.117  11.716
63050W        W31279  19.334  29.540   2.763
63051W        W31280  15.562  39.441  14.856
63052W        W31281  24.600  44.774   4.009
63053W        W31282   9.576  33.640  10.572
63054W        W31283  42.950  14.093   0.964
63055W        W31284  16.706  25.030   3.678
63056W        W31285  25.072  22.495  14.822
63057W        W31286   5.919   3.592  13.851
63058W        W31287  20.710  25.112  11.002
63059W        W31288  20.695   2.940   4.062
63060W        W31289   2.341  44.455   4.569
63061W        W31290  16.521  10.108  12.991
63062W        W31291  24.743  19.712  14.865
63063W        W31292  14.530  15.133  14.737
63064W        W31293  31.528  24.237  11.361
63065W        W31294  26.423  35.658   2.982
63066W        W31295  29.707  39.737   4.096
63067W        W31296  17.795  14.350   3.938
63068W        W31297   0.561  21.951  12.380
63069W        W31298  20.979  14.283   3.688
63070W        W31299  26.225  18.550  12.460
63071W        W31300  29.712  36.630   3.344
63072W        W31301  33.957  27.927   0.045
63073W        W31302   7.873  40.676   2.045
63074W        W31303  13.273  34.508  12.874
63075W        W31304  39.363   2.744  14.858
63076W        W31305  37.418  36.190  11.090
63077W        W31306   2.467  23.813  10.623
63078W        W31307  30.701  25.552  13.862
63079W        W31308  37.056  16.743  11.153
63080W        W31309  12.638  30.869  14.423
63081W        W31310   3.210  19.399  14.053
63082W        W31311  22.051  25.176  14.514
63083W        W31312  10.647  44.003   3.149
63084W        W31313  15.063  31.537   1.381
63085W        W31314  30.015   5.516  11.048
63086W        W31315  24.676  15.961  10.750
63087W        W31316  21.927  28.352  12.522
63088W        W31317   2.400   3.198   0.502
63089W        W31318   7.239   7.396   1.711
63090W        W31319  44.031  19.482   3.090
63091W        W31320  24.447  10.987  14.760
63092W        W31321   1.784  39.584   0.009
63093W        W31322  36.016  44.447   4.795
63094W        W31323  29.306   2.911  12.489
63095W        W31324   0.474  29.492   1.284
63096W        W31325  31.180  23.620   2.754
63097W        W31326  37.466  39.491  10.528
63098W        W31327  37.519  16.093   2.418
63099W        W31328  32.425  18.252  14.483
63100W        W31329  43.014  20.269  13.776
63101W        W31330   6.634   1.924  12.529
63102W        W31331  29.459  17.666   0.729
63103W        W31332  17.729  11.320  12.186
63104W        W31333  44.754  40.590   1.822
63105W        W31334  33.503  11.778   1.886
63106W        W31335  16.088  39.900  12.243
63107W        W31336  43.395  43.577   1.674
63108W        W31337  21.126   7.734   4.483
63109W        W31338  31.449   9.466  11.585
63110W        W31339  15.554  25.131   0.772
63111W        W31340   1.001   2.449   4.223
63112W        W31341  25.446  39.846  11.967
63113W        W31342  28.094   6.233  14.490
63114W        W31343  39.894   4.050   2.537
63115W        W31344  13.768  42.874  14.976
63116W        W31345   8.706  19.018  14.824
63117W        W31346  23.621   9.118   4.107
63118W        W31347  42.839  25.629   0.822
63119W        W31348  13.925  12.681   1.647
63120W        W31349  20.617  40.526  11.563
63121W        W31350  32.995  37.908   1.283
63122W        W31351   2.721   5.482  11.587
63123W        W31352  16.866  41.577   5.116
63124W        W31353   9.106  33.845  13.999
63125W        W31354  16.612  22.093   2.237
63126W        W31355  43.781  32.945  11.224
63127W        W31356  14.245  22.380  12.962
63128W        W31357  15.648   7.366   3.680
63129W        W31358   8.199   0.161   1.473
63130W        W31359   0.858  34.819  11.187
63131W        W31360  15.656   9.445  10.854
63132W        W31361  41.911  41.200   0.952
63133W        W31362  22.318  33.532   4.346
63134W        W31363  37.029   6.273   3.641
63135W        W31364   3.465  22.110   0.852
63136W        W31365  27.531  41.936  13.986
63137W        W31366  44.222  14.748   4.241
63138W        W31367  17.846  26.564  12.313
63139W        W31368  23.121  43.842  13.272
63140W        W31369  21.253  13.511   0.698
63141W        W31370   7.742  42.777  12.462
63142W        W31371  20.283  42.223   3.698
63143W        W31372  29.441  10.215   1.674
63144W        W31373  10.646  12.217   1.686
63145W        W31374   1.883   2.155   1.519
63146W        W31375  35.298  15.368  11.625
63147W        W31376  22.048  34.148  10.428
63148W        W31377  31.117  33.712  10.387
63149W        W31378   1.347  12.741  13.050
63150W        W31379  44.185   6.251  13.447
63151W        W31380  19.539  42.734  11.518
63152W        W31381   2.051  26.979   3.187
63153W        W31382  19.960  10.909   0.690
63154W        W31383  23.215  19.113  14.484
63155W        W31384   8.764  33.904  13.606
63156W        W31385   9.619   1.552   2.231
63157W        W31386   0.011   7.854   1.903
63158W        W31387  24.921   7.161   1.875
63159W        W31388  35.368  35.623   1.848
63160W        W31389  14.095  18.190   1.191
63161W        W31390  21.565  27.824   2.104
63162W        W31391   7.901  16.229  11.695
63163W        W31392  13.088  35.212  11.530
63164W        W31393  20.337  25.268   4.124
63165W        W31394   7.271  34.301  12.054
63166W        W31395  11.813  20.838  12.768
63167W        W31396  44.270  36.397  14.822
63168W        W31397   5.298  38.211   4.717
63169W        W31398  29.257  23.090   4.944
63170W        W31399  21.056  19.828  13.815
63171W        W31400  21.676  38.548   3.388
63172W        W31401  32.038  32.419  13.417
63173W        W31402  24.563  22.114   3.226
63174W        W31403   1.186  20.605   0.967
63175W        W31404  13.762  30.528  12.452
63176W        W31405  14.549  36.002  14.039
63177W        W31406  41.843   0.540   0.974
63178W        W31407  20.173  26.659   3.792
63179W        W31408  15.051   6.829  14.580
63180W        W31409  21.320  24.131   1.745
63181W        W31410  38.383   3.434   0.401
63182W        W31411  36.525   9.108   2.495
63183W        W31412  12.170  13.937   3.221
63184W        W31413   9.716  20.208   4.364
63185W        W31414  18.181  21.729  10.329
63186W        W31415  31.481  25.639   2.087
63187W        W31416   5.684  19.152  13.120
63188W        W31417   0.523  32.706   3.664
63189W        W31418  41.619   6.088  14.266
63190W        W31419  36.339  43.527  11.096
63191W        W31420  24.507   2.452   1.808
63192W        W31421  19.232  34.933   3.658
63193W        W31422  33.543  17.720  12.853
63194W        W31423  36.471  42.323   1.263
63195W        W31424  23.837  37.366   4.195
63196W        W31425  13.182  17.140  11.107
63197W        W31426  16.707  17.863  10.611
63198W        W31427  25.721  21.316   4.976
63199W        W31428   1.525  28.619   3.662
63200W        W31429  37.568  31.120  14.329
63201W        W31430  33.826  40.890  13.975
63202W        W31431  35.490  21.113   4.974
63203W        W31432   6.849  36.298  11.542
63204W        W31433   0.203  15.477   3.438
63205W        W31434  25.510  15.293  13.886
63206W        W31435  40.840  43.002   3.867
63207W        W31436  44.034  39.302   2.800
63208W        W31437  26.926  17.994  11.135
63209W        W31438  10.619  24.944  13.680
63210W        W31439  32.154  29.164  12.987
63211W        W31440  21.257   7.720  13.583
63212W        W31441  23.382  12.831  10.172
63213W        W31442  37.104  12.544   0.306
63214W        W31443   5.236  31.516   1.345
63215W        W31444  13.265  38.638  11.085
63216W        W31445   4.675  25.447   0.933
63217W        W31446   3.315  26.963   2.091
63218W        W31447  17.565  35.752  14.819
63219W        W31448  26.483  17.837  12.020
63220W        W31449  32.337  18.707   0.321
63221W        W31450  33.566  24.721  13.945
63222W        W31451  21.771   6.591   3.149
63223W        W31452  37.402   7.390   0.485
63224W        W31453  16.279  36.027  11.049
63225W        W31454   9.864   9.860  13.995
63226W        W31455  19.134  15.019   0.410
63227W        W31456   0.892  28.368  10.653
63228W        W31457  40.429  13.074  14.165
63229W        W31458   0.050  23.677   4.034
63230W        W31459  38.069  26.443   2.161
63231W        W31460  39.575  13.411   0.206
63232W        W31461  41.021  35.602   1.284
63233W        W31462  30.129   7.271   2.844
63234W        W31463  18.986  15.224  14.931
63235W        W31464  24.124   1.996  13.664
63236W        W31465   1.319  29.800   0.345
63237W        W31466   9.123   5.442   3.661
63238W        W31467  17.729  10.665   3.280
63239W        W31468  34.236  13.074  13.485
63240W        W31469  20.644  40.340   1.896
63241W        W31470  23.212  42.475   2.844
63242W        W31471  27.932   6.049   3.508
63243W        W31472  22.836   4.253   3.627
63244W        W31473   1.676  32.953  11.220
63245W        W31474  38.041  43.275   0.872
63246W        W31475  22.727  17.125  13.932
63247W        W31476  44.983  35.399  14.433
63248W        W31477  31.212  21.064  13.033
63249W        W31478  30.936  21.204  11.216
63250W        W31479  27.886  23.969   4.107
63251W        W31480   5.721  34.050   2.383
63252W        W31481   4.414  30.024   1.812
63253W        W31482  17.143  25.133  14.384
63254W        W31483  15.563   9.460  12.616
63255W        W31484  44.423  14.344   2.916
63256W        W31485  30.220  15.373   4.608
63257W        W31486  14.658  23.414   3.099
63258W        W31487   4.314  44.885   0.816
63259W        W31488   1.770   3.955  12.822
63260W        W31489  44.044  18.521   2.185
63261W        W31490  13.367  22.003   0.366
63262W        W31491  37.469  30.523  11.911
63263W        W31492   6.755  13.355   3.569
63264W        W31493  31.379  32.471  13.134
63265W        W31494  28.945  43.838  13.976
63266W        W31495  14.632   2.442  14.563
63267W        W31496  13.764  29.952   4.512
63268W        W31497   9.261  40.769  11.556
63269W        W31498  20.670   5.679  10.623
63270W        W31499  16.525   5.136  13.388
63271W        W31500  18.051   0.339   3.738
63272W        W31501  32.288   4.227  12.440
63273W        W31502  33.047   3.832   4.658
63274W        W31503  22.863  21.025  12.059
63275W        W31504  14.661   9.505  11.283
63276W        W31505   8.840   8.629   0.253
63277W        W31506   4.205  41.944   0.849
63278W        W31507  41.058  11.425   4.847
63279W        W31508  15.847  11.618   2.300
63280W        W31509   4.476   6.332  10.894
63281W        W31510  34.809   7.350   0.751
63282W        W31511  40.533   9.656   3.645
63283W        W31512  39.480  24.172   2.272
63284W        W31513  15.020  11.404   3.230
63285W        W31514  38.863  21.982  11.193
63286W        W31515  41.810   4.889  11.183
63287W        W31516  20.228  10.298  10.400
63288W        W31517  14.555  21.555   3.922
63289W        W31518  42.674  25.962   2.521
63290W        W31519  17.776  30.491   1.756
63291W        W31520  34.823  12.124  10.761
63292W        W31521  29.116  15.665   0.952
63293W        W31522  40.365  22.159  13.127
63294W        W31523  33.737  43.270   1.484
63295W        W31524  36.176  16.725  11.332
63296W        W31525  17.211  34.367   1.862
63297W        W31526  35.800  34.037  11.116
63298W        W31527  15.814   1.839  13.445
63299W        W31528   2.900  16.232   0.414
63300W        W31529  21.437  17.078   2.680
63301W        W31530  12.840  19.793  13.907
63302W        W31531  25.519  20.676  13.376
63303W        W31532  32.618   5.917   4.068
63304W        W31533  42.405  29.848   3.135
63305W        W31534   7.379  35.871  12.504
63306W        W31535  22.049  34.385  11.260
63307W        W31536  10.489  14.489   4.231
63308W        W31537   8.207  13.873  10.961
63309W        W31538  34.045  34.551  11.636
63310W        W31539  43.459  10.041   1.109
63311W        W31540  10.736   8.602   0.276
63312W        W31541   0.727  34.116   3.235
63313W        W31542  34.001   8.991   1.794
63314W        W31543  41.354   8.225  10.924
63315W        W31544  24.825  18.698  14.027
63316W        W31545  29.436  25.621  12.224
63317W        W31546  35.871  13.084   4.604
63318W        W31547  25.445  22.933   4.732
63319W        W31548  24.757  39.598  10.648
63320W        W31549  32.626  28.829  13.655
63321W        W31550  22.588  33.063  10.443
63322W        W31551  23.483  37.571  13.463
63323W        W31552  43.875  43.546  12.369
63324W        W31553  33.813   7.731   4.111
63325W        W31554  28.810   1.711  13.517
63326W        W31555  28.454   3.781   4.241
63327W        W31556   9.305  38.073   1.889
63328W        W31557  37.602  21.622   3.821
63329W        W31558  29.184   8.235  11.671
63330W        W31559  32.316  13.580   2.737
63331W        W31560  26.088   4.234  10.685
63332W        W31561   9.632  24.806  12.846
63333W        W31562  28.604  25.498   1.678
63334W        W31563  43.097  25.877  11.118
63335W        W31564  42.484  35.561   0.012
63336W        W31565   4.733  40.739   0.434
63337W        W31566  19.145  33.727   4.122
63338W        W31567   4.767   7.099  12.677
63339W        W31568  11.218  18.276  14.833
63340W        W31569  33.492   8.794   1.921
63341W        W31570  32.929  13.202   1.712
63342W        W31571  31.382  34.132   4.551
63343W        W31572  20.161  23.252   3.411
63344W        W31573  32.414  40.473   4.154
63345W        W31574  27.979  42.163  10.725
63346W        W31575  23.803  44.908  13.799
63347W        W31576   2.044  16.398  14.056
63348W        W31577  21.310  14.762   4.944
63349W        W31578  20.600  31.700   4.996
63350W        W31579   0.854  15.308  11.173
63351W        W31580  17.777   5.415  12.153
63352W        W31581  33.829   2.971  13.088
63353W        W31582  15.757  24.497   1.742
63354W        W31583   4.308  10.783   3.762
63355W        W31584  27.712  15.546  14.007
63356W        W31585  21.314  38.120  12.995
63357W        W31586   6.228  22.197   2.855
63358W        W31587   8.292  41.892   4.793
63359W        W31588  15.071   6.252   0.894
63360W        W31589  11.309  19.769  13.871
63361W        W31590   8.751  39.177  12.542
63362W        W31591   8.038  16.222   4.205
63363W        W31592  11.283  22.578  14.478
63364W        W31593  24.235  24.587  11.692
63365W        W31594  10.654  22.914  13.025
63366W        W31595   6.192  41.044   4.328
63367W        W31596   6.260  11.298  10.201
63368W        W31597  17.140  29.573   1.374
63369W        W31598  31.882  38.364   2.746
63370W        W31599  19.150  43.723   0.047
63371W        W31600  41.327  31.468  12.930
63372W        W31601  34.475  23.250  14.513
63373W        W31602  18.636  42.798  13.086
63374W        W31603   8.853   0.149   3.079
63375W        W31604  26.462  12.635  14.512
63376W        W31605  17.060   7.784   4.578
63377W        W31606  18.244   6.724  13.115
63378W        W31607  13.162  13.110   1.391
63379W        W31608   6.387  21.711   3.097
63380W        W31609  28.639   3.447   2.435
63381W        W31610  14.845  39.976  12.936
63382W        W31611  40.918  29.951   1.313
63383W        W31612   2.385  16.730  10.555
63384W        W31613  27.614  26.074   0.248
63385W        W31614  31.292  33.877   4.083
63386W        W31615  29.007  36.406  10.498
63387W        W31616  43.081  10.215  12.106
63388W        W31617  19.024  15.743   4.286
63389W        W31618  37.498  25.941   4.163
63390W        W31619  25.490  36.988  13.949
63391W        W31620  44.363  25.701  12.509
63392W        W31621  19.796  24.302   3.215
63393W        W31622   8.957  13.188  11.078
63394W        W31623  16.827  29.026   2.216
63395W        W31624   6.350  36.923   3.304
63396W        W31625  35.972  18.109   2.189
63397W        W31626  18.119  13.756  10.690
63398W        W31627   2.296  28.808   0.800
63399W        W31628  31.154  18.681   4.213
63400W        W31629  35.975  43.748   0.511
63401W        W31630  32.851  25.666   1.487
63402W        W31631   8.873  10.391   0.899
63403W        W31632  38.647  26.409  14.876
63404W        W31633  14.904  19.282   2.795
63405W        W31634  37.016   1.694  12.427
63406W        W31635  44.360  30.554   3.605
63407W        W31636  32.101  28.127   3.721
63408W        W31637  34.198  42.721  11.609
63409W        W31638  23.259  19.053   4.095
63410W        W31639  30.948  19.556  14.520
63411W        W31640   2.357  44.428   1.199
63412W        W31641  31.521  18.129  11.378
63413W        W31642  41.467  44.772  13.057
63414W        W31643  27.167  23.263  14.333
63415W        W31644  20.170  33.732   3.652
63416W        W31645   1.540   5.138  13.320
63417W        W31646  38.522   5.155   4.128
63418W        W31647  15.764  32.670  11.458
63419W        W31648  25.552  19.213   2.386
63420W        W31649  39.110   1.318   3.940
63421W        W31650   3.938  10.376   0.817
63422W        W31651  27.965  15.572   5.102
63423W        W31652  32.909  29.678   3.245
63424W        W31653   8.370   9.632   2.232
63425W        W31654  29.870   6.225  14.811
63426W        W31655  31.559  44.932  11.840
63427W        W31656  13.102  20.699   2.272
63428W        W31657   8.092  33.356   4.552
63429W        W31658  16.711  19.372  10.420
63430W        W31659   7.081  13.203  13.964
63431W        W31660   2.195  42.516   2.692
63432W        W31661  31.836  42.373   1.844
63433W        W31662  28.995  40.294   2.325
63434W        W31663  26.151  35.414  13.505
63435W        W31664   4.128  43.955  11.259
63436W        W31665  16.108  24.263  14.679
63437W        W31666  14.238  43.736  12.552
63438W        W31667   5.793  11.180  10.486
63439W        W31668  32.698  34.982  11.830
63440W        W31669  11.075  36.974  12.394
63441W        W31670  23.117  12.690   2.699
63442W        W31671   9.748  18.105  12.132
63443W        W31672  22.002  33.569  11.150
63444W        W31673  28.990  32.353  11.491
63445W        W31674  37.326  20.092  12.545
63446W        W31675  17.565  16.245   3.185
63447W        W31676  39.072  14.513   0.861
63448W        W31677  40.314  24.794  14.111
63449W        W31678  14.648   4.152   3.612
63450W        W31679  17.015  26.461   4.410
63451W        W31680  38.099   6.853   3.991
63452W        W31681  41.269  11.917   0.937
63453W        W31682  17.246  30.122  12.992
63454W        W31683  42.485  15.314   1.099
63455W        W31684  30.101  21.520   3.701
63456W        W31685  41.430  32.556   0.021
63457W        W31686  41.987  22.336  12.704
63458W        W31687  14.112  34.608   0.457
63459W        W31688   8.235  27.209  13.397
63460W        W31689  37.723  12.568   3.688
63461W        W31690  29.144  41.484  10.654
63462W        W31691  42.227  17.311   3.144
63463W        W31692  34.431  26.188   2.385
63464W        W31693  32.434   3.375  10.745
63465W        W31694  33.843  28.062  13.582
63466W        W31695  28.911  37.464   0.741
63467W        W31696   9.489  10.124  11.042
63468W        W31697  41.581  27.900   1.352
63469W        W31698  33.106  38.500  12.478
63470W        W31699   3.926  40.005   2.494
63471W        W31700  21.633  14.830  13.343
63472W        W31701   9.873  20.812  14.905
63473W        W31702  36.541   7.196  10.986
63474W        W31703  27.612   0.728   2.799
63475W        W31704  43.532   3.572   0.808
63476W        W31705  43.442   7.125   2.236
63477W        W31706  18.030  26.552   1.751
63478W        W31707  25.013  18.209  13.907
63479W        W31708  25.177  16.618   3.742
63480W        W31709  24.458  24.767  11.108
63481W        W31710  27.235   9.022   0.224
63482W        W31711  28.453  21.738   1.572
63483W        W31712  26.182  33.925   4.303
63484W        W31713  42.621  28.362   4.603
63485W        W31714   1.316  18.605   1.659
63486W        W31715  37.796  17.426   3.121
63487W        W31716  41.288  22.288  13.452
63488W        W31717  29.678  18.132   2.032
63489W        W31718  22.002   1.815   1.448
63490W        W31719  28.100  33.527  14.616
63491W        W31720  29.860   6.143  13.876
63492W        W31721  10.032   7.739   0.491
63493W        W31722  24.223  42.078   1.954
63494W        W31723  33.410  38.054   1.661
63495W        W31724  17.552  44.193  13.321
63496W        W31725  11.942   6.805   3.376
63497W        W31726   9.845  37.385   1.191
63498W        W31727  28.297  30.570  13.927
63499W        W31728   5.211  35.110   1.247
63500W        W31729  28.641  25.605  10.513
63501W        W31730  25.666   4.798   4.894
63502W        W31731   6.167   5.418   2.781
63503W        W31732  24.900  19.736   1.690
63504W        W31733  32.878  10.939  12.623
63505W        W31734   4.875  25.609  13.988
63506W        W31735  21.709   4.590  12.638
63507W        W31736  25.097  25.593   1.307
63508W        W31737  38.370  11.983   2.354
63509W        W31738  35.985  28.035  10.624
63510W        W31739  42.551  27.126  13.524
63511W        W31740  31.982  27.071   4.509
63512W        W31741   8.261  23.919  12.932
63513W        W31742  27.756   0.999   3.351
63514W        W31743  18.103  20.779  12.052
63515W        W31744  32.682   2.748  11.987
63516W        W31745  43.440  14.029   0.401
63517W        W31746   2.782  14.611   2.659
63518W        W31747  28.615  11.686   3.568
63519W        W31748  14.279  14.944   4.587
63520W        W31749  14.226  16.947   3.644
63521W        W31750  29.115  40.412   4.341
63522W        W31751  11.422  13.355   4.130
63523W        W31752   6.469  19.550   3.835
63524W        W31753  36.588  15.714  12.183
63525W        W31754  37.077  11.347  13.488
63526W        W31755  42.006  29.169  12.172
63527W        W31756   3.740   0.268   3.658
63528W        W31757  26.595  24.662  12.082
63529W        W31758   3.942  38.476   3.025
63530W        W31759  31.802  44.386   1.903
63531W        W31760  43.508  13.849  11.100
63532W        W31761   9.575  13.077  10.409
63533W        W31762   3.219  24.104  13.140
63534W        W31763  29.219  43.893  14.417
63535W        W31764  36.154  17.205   1.282
63536W        W31765  32.341  16.375   1.280
63537W        W31766  26.578  11.849   2.658
63538W        W31767  24.121  16.741   2.849
63539W        W31768  25.560   9.180  14.079
63540W        W31769  29.401   5.148  14.464
63541W        W31770  26.237  27.419  12.145
63542W        W31771  33.578  17.270  11.207
63543W        W31772   2.203  27.558  12.470
63544W        W31773  19.636  36.404   1.208
63545W        W31774   3.770  21.849  13.606
63546W        W31775  14.460  10.127  14.805
63547W        W31776   3.364  31.127  10.581
63548W        W31777  18.486  19.341  11.171
63549W        W31778  13.166   7.161  10.877
63550W        W31779  11.438   3.846   3.066
63551W        W31780   9.356  30.711  13.463
63552W        W31781  37.339  29.961   2.345
63553W        W31782  18.193  44.212   4.073
63554W        W31783  36.966  29.636   2.821
63555W        W31784   5.671  44.766   1.799
63556W        W31785  34.516  14.580  13.587
63557W        W31786  41.671  19.757  14.342
63558W        W31787   6.150  17.909  11.147
63559W        W31788  13.844   6.495   2.926
63560W        W31789   9.426  13.277  12.097
63561W        W31790  24.566  33.508   4.847
63562W        W31791  16.050  14.613  10.688
63563W        W31792  19.565  35.134   4.198
63564W        W31793  20.720  15.313   2.866
63565W        W31794  23.232  14.907   2.818
63566W        W31795  21.621  20.789  11.581
63567W        W31796  42.889  22.155   2.430
63568W        W31797  38.958  26.807  14.377
63569W        W31798  41.040  27.080   1.082
63570W        W31799  14.092  44.478   1.289
63571W        W31800  11.412  16.700   3.238
63572W        W31801  41.772  11.897  13.681
63573W        W31802   7.292   2.312  14.177
63574W        W31803  35.144  25.011   3.730
63575W        W31804   6.451  40.634   4.156
63576W        W31805  22.096   7.416   3.893
63577W        W31806  15.097  26.942  11.376
63578W        W31807  43.840  28.974  10.561
63579W        W31808   1.230  36.069  13.413
63580W        W31809  26.064  19.797  14.449
63581W        W31810   9.880  25.029   2.920
63582W        W31811  43.247  29.998  12.038
63583W        W31812  13.096  44.006  13.011
63584W        W31813  40.433  10.311   2.612
63585W        W31814  19.002  14.241   4.631
63586W        W31815  32.698  27.036   0.010
63587W        W31816  18.216  10.880   3.204
63588W        W31817  31.440  29.863  14.833
63589W        W31818  40.655  28.088   1.680
63590W        W31819  16.817   2.500   4.965
63591W        W31820   9.609  41.096   2.731
63592W        W31821  39.447  43.575   2.069
63593W        W31822  29.737  24.264   4.050
63594W        W31823  13.616  10.094  12.456
63595W        W31824  23.483   6.709   0.966
63596W        W31825  35.130  30.528   1.116
63597W        W31826  33.979  10.114  11.173
63598W        W31827  38.494   8.651  12.544
63599W        W31828   2.037  16.518  11.166
63600W        W31829  34.827  36.346  13.890
63601W        W31830  16.647  15.845   0.405
63602W        W31831  39.753  34.930  11.741
63603W        W31832  34.110  36.805   3.747
63604W        W31833  16.637  19.088   0.363
63605W        W31834  30.651  24.705  11.539
63606W        W31835  40.608  30.892   4.155
63607W        W31836  29.957   4.867  11.613
63608W        W31837   7.392  11.039  12.815
63609W        W31838  26.227  28.789   3.310
63610W        W31839  29.071  25.607  10.848
63611W        W31840   4.395  14.194  10.682
63612W        W31841  38.873  25.024  14.038
63613W        W31842  37.845  25.617   2.326
63614W        W31843  14.305   9.307   4.657
63615W        W31844  40.261  36.469  14.947
63616W        W31845  10.746  36.466  11.422
63617W        W31846  17.358  40.326   1.171
63618W        W31847  42.023  33.615   3.311
63619W        W31848  10.926  31.010   4.087
63620W        W31849  12.602  11.744   3.582
63621W        W31850  28.454  32.007   2.591
63622W        W31851  29.670  30.547   0.468
63623W        W31852   8.865   1.661  11.142
63624W        W31853  18.288  29.136  10.679
63625W        W31854   4.313  27.005   4.028
63626W        W31855   4.639  37.532   9.993
63627W        W31856  38.110   3.426  14.121
63628W        W31857  43.293  29.878   4.550
63629W        W31858  10.086  28.848  10.991
63630W        W31859   7.747  35.007  14.294
63631W        W31860  33.688  44.287   3.765
63632W        W31861   7.585  16.397  14.880
63633W        W31862  24.548  37.779   1.134
63634W        W31863  43.177  29.924   1.341
63635W        W31864  44.340   5.849  14.930
63636W        W31865  41.856  21.528  14.515
63637W        W31866   4.832  39.470   3.667
63638W        W31867   1.736  19.995  10.584
63639W        W31868  25.074   0.429   4.561
63640W        W31869  38.587  23.496   1.340
63641W        W31870  18.595  31.185   3.731
63642W        W31871   8.134  37.394  12.963
63643W        W31872  23.946  14.354  12.372
63644W        W31873   5.511  29.090   1.588
63645W        W31874  37.754  10.008  10.417
63646W        W31875  23.641  21.995  13.321
63647W        W31876   6.611   1.443   0.030
63648W        W31877  18.565   6.964  11.508
63649W        W31878  32.892  24.238   0.427
63650W        W31879  35.126   4.453  14.680
63651W        W31880  41.630  32.107   3.680
63652W        W31881  23.030  22.145   1.431
63653W        W31882   0.987  12.258   4.582
63654W        W31883  40.568   6.755   0.318
63655W        W31884   2.397  16.017  13.502
63656W        W31885  40.090  35.375  13.507
63657W        W31886  13.730  23.551   2.246
63658W        W31887  37.289  27.097  14.877
63659W        W31888  29.396   0.269   2.363
63660W        W31889  32.197  20.788  11.072
63661W        W31890  44.520   2.918   3.188
63662W        W31891   0.686  13.177  12.971
63663W        W31892  39.456  28.592   2.414
63664W        W31893  12.140  10.250  10.079
63665W        W31894  24.243  43.040   1.666
63666W        W31895  40.905  39.094  10.687
63667W        W31896  23.035   5.226  13.862
63668W        W31897  38.868   8.720   2.743
63669W        W31898   8.264  31.084  14.305
63670W        W31899  18.141  31.191  14.642
63671W        W31900  32.026  18.705  12.355
63672W        W31901  10.553  37.842  14.006
63673W        W31902  26.531  10.490   3.336
63674W        W31903  28.987  15.833   2.293
63675W        W31904  36.890  20.504   1.417
63676W        W31905   1.311  39.597   0.253
63677W        W31906  38.086  24.193   2.116
63678W        W31907  42.981  33.421  14.029
63679W        W31908  16.770  26.247  10.832
63680W        W31909  25.605   8.858   1.853
63681W        W31910  27.451  36.158  13.309
63682W        W31911  29.602  23.142  14.409
63683W        W31912   1.523  12.556  12.587
63684W        W31913  42.591  34.084   2.245
63685W        W31914   0.401  14.799   2.878
63686W        W31915  10.741   8.713   4.134
63687W        W31916  12.412   5.484  14.058
63688W        W31917  23.469   3.191  13.933
63689W        W31918   0.271  33.570   1.189
63690W        W31919  36.250   2.331  10.763
63691W        W31920  30.598  19.153   1.746
63692W        W31921   1.935  42.211  12.047
63693W        W31922  10.991  17.762  13.403
63694W        W31923   1.171  44.012   2.783
63695W        W31924   5.111   7.177  10.740
63696W        W31925  41.788  30.900  10.641
63697W        W31926  27.885  12.387  11.521
63698W        W31927  25.201  17.142  11.299
63699W        W31928  41.631  37.845   3.629
63700W        W31929  42.008   3.997  12.822
63701W        W31930   3.410  37.863  14.833
63702W        W31931  26.965  26.124   1.681
63703W        W31932  31.770  28.746  12.089
63704W        W31933  38.344  30.692   2.904
63705W        W31934   4.387  41.710  14.523
63706W        W31935   0.353  27.072  10.881
63707W        W31936  10.818  23.039   2.049
63708W        W31937  10.887  24.070   1.713
63709W        W31938   0.756   4.049   4.291
63710W        W31939  17.822  35.549   0.350
63711W        W31940  43.561  32.264   5.335
63712W        W31941   7.760  15.290   4.084
63713W        W31942  20.895  37.543  13.552
63714W        W31943  22.687   7.539  10.662
63715W        W31944   6.402   4.959   2.766
63716W        W31945  36.944  42.511  11.359
63717W        W31946  22.078  35.180   4.372
63718W        W31947   6.382  32.297  14.722
63719W        W31948   6.690  21.251  14.425
63720W        W31949  10.643   2.263  14.064
63721W        W31950   5.643  36.924  14.937
63722W        W31951  19.564   5.382  11.090
63723W        W31952  40.342  25.655   0.628
63724W        W31953   0.880   4.260   0.043
63725W        W31954  15.629  43.207  11.305
63726W        W31955  25.880  11.865   1.824
63727W        W31956  15.860   6.456  14.984
63728W        W31957  23.268  33.815  14.187
63729W        W31958   7.531   0.229   4.710
63730W        W31959   2.625  40.825  14.140
63731W        W31960  25.857  18.243   4.112
63732W        W31961  28.162  19.099  11.589
63733W        W31962   1.763  40.890   3.464
63734W        W31963  21.553   6.555   0.258
63735W        W31964   4.974   4.270   0.262
63736W        W31965  16.295  10.394  14.882
63737W        W31966  13.591   0.770   0.385
63738W        W31967   1.020   1.230  11.177
63739W        W31968  23.979  32.501  11.938
63740W        W31969  17.132  43.472   0.674
63741W        W31970  38.668  11.641   2.632
63742W        W31971  42.419   7.703  12.462
63743W        W31972  34.133  19.530  14.455
63744W        W31973   9.328  13.765   4.590
63745W        W31974  38.984   3.370  12.897
63746W        W31975  27.208  10.701  12.013
63747W        W31976  22.634  28.580  12.484
63748W        W31977  43.061  23.641   1.329
63749W        W31978  35.505  25.046  11.475
63750W        W31979  42.018  10.193  13.036
63751W        W31980  37.819  19.701   2.102
63752W        W31981  11.722  10.367  14.787
63753W        W31982  44.731  35.803   3.663
63754W        W31983   3.170  24.117   1.786
63755W        W31984  40.613  29.472   0.943
63756W        W31985  10.212   6.615   4.613
63757W        W31986  24.060  30.092  10.581
63758W        W31987  29.088  41.837   2.360
63759W        W31988   9.580  21.106  13.919
63760W        W31989  33.516   0.991  10.790
63761W        W31990  44.256  17.213  13.534
63762W        W31991  36.485  30.548   3.107
63763W        W31992  16.804  20.251  14.783
63764W        W31993  19.305  36.645   3.411
63765W        W31994  25.635   2.253  12.790
63766W        W31995  11.214  30.164   3.234
63767W        W31996   7.275   0.460   3.735
63768W        W31997  42.034   5.715  12.011
63769W        W31998  22.793  13.389   3.554
63770W        W31999  25.475  30.883  13.507
63771W        W32000  39.318  36.550   3.804
63772W        W32001   4.486  44.053  13.163
63773W        W32002  43.509  29.288   1.843
63774W        W32003  16.828  10.774  12.972
63775W        W32004  38.035   9.813   2.414
63776W        W32005   7.470  29.498  13.908
63777W        W32006  33.507   9.416  14.020
63778W        W32007   4.682  28.093  13.353
63779W        W32008  16.885   8.841   3.230
63780W        W32009  10.878   8.584   3.291
63781W        W32010  16.062  23.702   1.220
63782W        W32011   2.484   8.343  14.362
63783W        W32012  37.906  33.304  12.985
63784W        W32013  38.885  33.033  12.082
63785W        W32014   1.346  15.009   2.698
63786W        W32015   1.192  35.362   2.173
63787W        W32016  16.345  30.640   4.629
63788W        W32017  38.753  15.427  13.581
63789W        W32018  26.436  16.302   2.988
63790W        W32019  30.643   8.294  14.551
63791W        W32020  12.659  43.753   0.354
63792W        W32021   2.967  40.174  14.886
63793W        W32022  13.254  21.999   4.030
63794W        W32023  35.369  12.385   3.760
63795W        W32024  22.171  10.309  12.080
63796W        W32025  39.264   2.306  14.613
63797W        W32026  21.337  21.519   0.688
63798W        W32027   5.916  26.114  14.799
63799W        W32028  34.323  27.808  13.420
63800W        W32029  18.852  11.341  14.752
63801W        W32030  29.900  42.415   4.864
63802W        W32031  35.208  42.041  13.947
63803W        W32032   3.344  22.249   2.957
63804W        W32033  17.638  30.996  13.812
63805W        W32034   3.681   1.700   4.204
63806W        W32035   8.364  10.744  13.062
63807W        W32036  26.858  42.426   2.482
63808W        W32037   4.851   1.842  13.796
63809W        W32038  31.605  11.733   1.384
63810W        W32039   6.009  37.330   3.427
63811W        W32040   0.121  34.650   2.921
63812W        W32041  14.162  23.179  13.663
63813W        W32042  11.525   8.331  14.252
63814W        W32043  22.507   0.506  13.424
63815W        W32044  36.838  44.457   1.962
63816W        W32045   6.160   2.904  10.999
63817W        W32046  34.630  41.060   2.705
63818W        W32047  21.709  24.900  14.131
63819W        W32048  33.000  43.727  12.469
63820W        W32049   3.031  41.831   4.808
63821W        W32050  35.131  25.724  11.196
63822W        W32051   2.921  33.975   1.731
63823W        W32052  15.661  33.557  13.470
63824W        W32053  41.067  43.501  11.529
63825W        W32054  33.556   1.760  12.080
63826W        W32055  28.010  30.994  13.853
63827W        W32056   9.883  26.185  14.419
63828W        W32057  20.822  24.049   3.342
63829W        W32058  16.744   7.243  11.518
63830W        W32059  35.488  26.519   3.380
63831W        W32060  15.238   3.636  10.676
63832W        W32061  43.017  26.975   0.653
63833W        W32062  37.800  32.412  12.597
63834W        W32063  30.578  32.559  14.259
63835W        W32064  16.976  16.750   0.845
63836W        W32065  10.913  14.421   3.493
63837W        W32066  32.524  34.932   2.452
63838W        W32067  34.239  32.672  12.641
63839W        W32068   7.940  13.947   2.487
63840W        W32069  32.477  36.513   0.949
63841W        W32070  21.549  39.808  11.593
63842W        W32071  11.636  12.999   2.940
63843W        W32072  12.259  26.429   2.369
63844W        W32073  11.688   1.670  11.571
63845W        W32074  22.667   3.030  14.326
63846W        W32075  33.024  28.471  11.940
63847W        W32076  43.730  14.140  11.907
63848W        W32077  19.367  24.944   2.183
63849W        W32078  16.052  26.011   3.019
63850W        W32079  27.419  20.770   0.215
63851W        W32080  34.335  16.301  14.458
63852W        W32081  18.666  29.696  13.991
63853W        W32082  16.793  11.450  14.478
63854W        W32083  38.655  16.361  11.999
63855W        W32084  38.825  18.599   3.763
63856W        W32085  12.836  44.091   0.003
63857W        W32086   1.775  10.593  14.529
63858W        W32087  12.697  23.238  10.761
63859W        W32088  40.462  21.662   3.255
63860W        W32089  41.290  13.683   2.433
63861W        W32090  27.162  17.363   3.065
63862W        W32091  14.854  16.568   4.115
63863W        W32092  29.161   1.980  14.346
63864W        W32093   6.452  44.762   2.249
63865W        W32094  20.682  43.809   4.155
63866W        W32095   7.165  44.353  13.372
63867W        W32096   2.109  29.145  11.094
63868W        W32097  21.643  21.725  11.868
63869W        W32098  37.833  36.312  13.479
63870W        W32099   0.973  30.993   2.826
63871W        W32100  25.136  13.162  14.506
63872W        W32101   1.888   3.197   4.078
63873W        W32102  41.387  31.798   2.826
63874W        W32103  23.487   0.341  14.028
63875W        W32104  23.042   2.415  13.864
63876W        W32105  18.769  44.774   2.750
63877W        W32106   3.690  26.499   1.189
63878W        W32107   4.933   9.532   3.136
63879W        W32108  21.636  11.667   0.018
63880W        W32109   6.332  33.363  13.384
63881W        W32110  31.891  34.791   4.033
63882W        W32111  16.421  21.997  14.340
63883W        W32112  26.314  17.575  11.598
63884W        W32113   0.524  37.460  13.963
63885W        W32114  41.370  13.869   4.367
63886W        W32115  28.035  30.727   3.716
63887W        W32116  29.547  14.252  14.922
63888W        W32117   3.930   1.108  10.327
63889W        W32118  34.191  23.619   2.935
63890W        W32119  27.398  10.155   1.688
63891W        W32120  26.522   2.771  12.849
63892W        W32121   1.886  30.028   0.746
63893W        W32122  41.323  43.334  11.988
63894W        W32123  11.660  41.992   2.394
63895W        W32124  34.361  33.384   2.175
63896W        W32125   0.463  44.398  12.553
63897W        W32126  39.977  43.944  11.916
63898W        W32127  25.901  20.270  13.511
63899W        W32128  15.274   6.878  11.657
63900W        W32129  37.593   7.984  10.764
63901W        W32130  27.366  12.137   3.521
63902W        W32131  16.635  19.086   0.938
63903W        W32132  42.554   0.277   2.412
63904W        W32133  19.149  34.105  13.577
63905W        W32134  17.963  10.413  14.296
63906W        W32135  22.488   5.867  13.431
63907W        W32136  16.324  37.515  13.946
63908W        W32137   7.701  17.816  10.711
63909W        W32138   2.066  12.780  14.519
63910W        W32139  18.275   7.193   4.154
63911W        W32140  17.138  35.516  12.079
63912W        W32141  30.626  24.858   4.258
63913W        W32142  19.103  36.844  12.955
63914W        W32143  23.499  19.522  14.346
63915W        W32144  26.209   7.224  11.497
63916W        W32145  15.487   8.669   4.143
63917W        W32146   3.429  23.177  12.750
63918W        W32147  21.059   1.274  14.990
63919W        W32148  38.536  14.670   0.839
63920W        W32149   7.385  34.026   0.450
63921W        W32150  36.591   2.019   3.584
63922W        W32151  20.014  32.279   3.789
63923W        W32152  18.889  39.260   0.313
63924W        W32153   8.356  37.357  14.491
63925W        W32154  33.761  26.974  10.553
63926W        W32155  33.110  24.704  14.309
63927W        W32156  26.977  21.936  13.842
63928W        W32157   2.183   2.282  13.901
63929W        W32158  10.767  12.711   3.183
63930W        W32159   6.755  16.350  12.448
63931W        W32160  36.904  35.144  13.437
63932W        W32161  31.258  15.384  14.397
63933W        W32162  10.248   3.690   4.599
63934W        W32163   8.277  43.907   0.707
63935W        W32164   4.830  44.318   2.062
63936W        W32165  21.693   9.352   3.218
63937W        W32166   0.743  41.368  10.737
63938W        W32167  30.238   8.478  14.254
63939W        W32168  21.744  12.552  14.421
63940W        W32169  26.489  24.451   3.328
63941W        W32170  13.695  18.621  12.475
63942W        W32171  24.976  35.533   1.660
63943W        W32172  43.433  16.862  11.595
63944W        W32173  41.931   6.614  12.934
63945W        W32174  32.769  44.640  12.831
63946W        W32175  18.547  34.006   1.488
63947W        W32176   6.402  13.520  12.907
63948W        W32177  15.704  33.658  10.362
63949W        W32178  38.989  12.119   9.868
63950W        W32179  13.659  15.750  12.801
63951W        W32180  15.266  20.207  13.320
63952W        W32181   8.699   6.412   0.841
63953W        W32182  26.267   5.881   3.226
63954W        W32183   5.320  42.210   0.714
63955W        W32184  43.264  44.959  12.620
63956W        W32185  34.319  13.820  11.302
63957W        W32186  22.001  39.395   3.021
63958W        W32187  18.324  39.349  14.272
63959W        W32188  15.716   9.701  14.705
63960W        W32189   1.746  21.776  14.069
63961W        W32190  32.999  36.110   1.121
63962W        W32191  15.686   8.796   2.243
63963W        W32192   0.994   9.575  14.862
63964W        W32193  18.144  11.426   3.866
63965W        W32194  41.029  14.333  14.953
63966W        W32195  29.911  16.867   4.601
63967W        W32196  41.770  42.859  14.532
63968W        W32197  39.348  34.118   5.673
63969W        W32198  14.297  14.242  11.608
63970W        W32199  39.381  37.496  14.953
63971W        W32200  32.140  11.049  14.415
63972W        W32201  39.436  38.425  10.649
63973W        W32202  30.480  30.952   3.758
63974W        W32203  19.876  16.956   0.728
63975W        W32204   5.916  38.824  13.062
63976W        W32205  25.558  24.283  10.567
63977W        W32206  10.846  40.031   1.929
63978W        W32207  20.521  22.242   2.240
63979W        W32208   2.909  22.416   4.494
63980W        W32209   5.138  15.627  11.677
63981W        W32210  40.481   2.451   4.096
63982W        W32211  40.141  44.805  10.559
63983W        W32212  17.770  18.561  14.832
63984W        W32213  10.126   2.246  13.467
63985W        W32214  10.092  41.989  12.070
63986W        W32215  23.133  11.965   2.251
63987W        W32216  19.318  41.795  11.651
63988W        W32217  23.993  13.331   1.958
63989W        W32218  17.991  29.264   3.665
63990W        W32219  13.177   3.464  13.069
63991W        W32220  19.519  10.675  10.684
63992W        W32221  38.634   7.209   1.160
63993W        W32222  33.158  21.661   2.290
63994W        W32223  28.199  18.223   0.983
63995W        W32224  42.805  17.025   3.735
63996W        W32225  29.577  11.008  10.523
63997W        W32226  36.380  38.906   0.307
63998W        W32227  33.632   2.237   3.279
63999W        W32228   1.894  15.170   1.249
64000W        W32229  18.726  31.012  14.367
64001W        W32230   6.795  25.467  11.839
64002W        W32231  29.287  41.301   3.657
64003W        W32232  40.863   9.664   4.038
64004W        W32233  39.157  24.237  11.364
64005W        W32234  31.067  15.012  14.798
64006W        W32235  35.591  36.812   3.095
64007W        W32236  10.488  20.639   4.950
64008W        W32237  38.530  29.227  13.568
64009W        W32238  37.593   7.431  13.945
64010W        W32239  33.193  21.141   4.173
64011W        W32240  14.604  11.195   0.939
64012W        W32241  18.713  23.424   4.734
64013W        W32242  43.987   5.290   4.416
64014W        W32243  16.253  25.123   3.415
64015W        W32244  30.290   4.418  11.578
64016W        W32245   9.987  42.339  12.932
64017W        W32246  15.045   1.039  11.129
64018W        W32247  19.137  26.478  12.346
64019W        W32248  26.448  18.746   0.519
64020W        W32249  13.796   4.336   4.666
64021W        W32250  32.571  34.013   4.686
64022W        W32251  26.463  36.601   0.974
64023W        W32252  27.119  32.135   3.702
64024W        W32253  39.000  20.478   0.819
64025W        W32254  10.249   1.705  11.078
64026W        W32255   0.047  28.632  10.568
64027W        W32256  33.693  38.340  14.422
64028W        W32257   0.496  21.633   4.268
64029W        W32258  34.405  26.424  13.779
64030W        W32259  34.421   4.102  14.153
64031W        W32260   3.409  24.963  14.612
64032W        W32261  36.826  40.946   0.867
64033W        W32262  30.554  16.179   1.660
64034W        W32263  12.641  12.720  13.572
64035W        W32264   7.483  13.240  14.325
64036W        W32265  41.847   1.012   3.957
64037W        W32266  39.646  14.486   3.206
64038W        W32267  30.883  44.233   3.761
64039W        W32268  15.142  16.059   0.576
64040W        W32269  19.108   3.875  13.876
64041W        W32270   7.008  14.898  11.097
64042W        W32271  11.762  39.299  10.039
64043W        W32272  17.058  35.496   0.763
64044W        W32273  21.238  10.200  10.577
64045W        W32274  38.876  13.471  10.653
64046W        W32275  27.089   0.934   2.839
64047W        W32276  32.004   9.913  10.480
64048W        W32277  17.074  42.598  14.751
64049W        W32278  38.463  17.220  14.531
64050W        W32279  34.491  35.346  11.502
64051W        W32280  11.313   2.013   2.333
64052W        W32281  44.957  16.837   2.370
64053W        W32282  33.539   3.000   4.551
64054W        W32283  41.944  44.117  10.701
64055W        W32284  40.875  13.401   3.253
64056W        W32285   6.624  26.709  13.481
64057W        W32286  17.026   4.596  11.425
64058W        W32287  44.857  25.698  13.352
64059W        W32288   4.485  25.679   2.754
64060W        W32289  31.148  37.829   0.697
64061W        W32290  33.403   1.354   2.209
64062W        W32291   7.421   7.128   0.352
64063W        W32292  28.652   8.649   1.209
64064W        W32293  37.035  33.378  13.041
64065W        W32294  14.839  24.262  14.911
64066W        W32295  18.899  17.283   1.433
64067W        W32296   0.386  41.175  12.543
64068W        W32297  42.396  22.689  12.509
64069W        W32298  10.374  31.900  10.395
64070W        W32299  16.782  43.272   1.855
64071W        W32300  43.950  13.174   3.668
64072W        W32301  11.237  35.772  13.547
64073W        W32302  41.718  30.981   9.791
64074W        W32303   5.267   7.719  12.997
64075W        W32304  44.560  27.794  12.990
64076W        W32305  30.894  25.480  10.692
64077W        W32306  23.168  25.452   4.799
64078W        W32307  25.603  28.463  11.658
64079W        W32308  22.983   4.413  13.535
64080W        W32309  38.253  14.612  12.975
64081W        W32310  29.284  35.012  11.051
64082W        W32311  20.978  14.117  12.550
64083W        W32312   4.239  30.352  12.041
64084W        W32313  20.147   7.964   4.260
64085W        W32314  22.791  17.127   0.891
64086W        W32315  32.142   1.658  13.315
64087W        W32316  29.894   2.181   3.443
64088W        W32317  22.081  12.354   3.058
64089W        W32318  39.023  14.096   1.312
64090W        W32319  44.826  32.662  11.914
64091W        W32320  31.315   0.772  14.400
64092W        W32321   0.767  10.358  11.245
64093W        W32322  13.368  23.534  13.613
64094W        W32323  34.967  35.779   4.340
64095W        W32324  34.576   7.827   4.527
64096W        W32325  22.669  41.294   5.086
64097W        W32326  39.363  29.804   1.430
64098W        W32327   0.924   5.948   1.752
64099W        W32328   0.800  19.977  14.334
64100W        W32329  31.969  42.327   3.099
64101W        W32330  40.753  30.768   0.686
64102W        W32331  43.208  15.588  10.329
64103W        W32332   9.367  22.231  13.124
64104W        W32333  11.320  32.787  12.445
64105W        W32334   7.389  16.583   3.626
64106W        W32335   8.245  23.543   0.910
64107W        W32336  16.212  19.213  13.535
64108W        W32337  23.903  39.462  11.684
64109W        W32338  30.592   6.070  12.047
64110W        W32339  39.332  23.956   3.722
64111W        W32340  12.601  21.150  13.632
64112W        W32341  19.053   1.543   2.266
64113W        W32342   2.956   1.371  10.639
64114W        W32343  24.391  20.527  12.550
64115W        W32344  18.232  35.140   3.019
64116W        W32345  24.656  37.992   3.058
64117W        W32346  43.044   1.258   0.235
64118W        W32347  42.913  44.287  13.868
64119W        W32348  27.648  43.909   3.713
64120W        W32349   5.933   2.022  12.947
64121W        W32350  42.070  29.124   4.575
64122W        W32351   5.020  18.892  13.515
64123W        W32352  30.637   8.424   1.381
64124W        W32353  37.416  21.102   0.365
64125W        W32354   6.157   4.954   4.595
64126W        W32355  28.617   1.018  10.664
64127W        W32356  18.702   0.718   0.757
64128W        W32357  38.170  14.274  13.402
64129W        W32358  27.443  26.348  11.977
64130W        W32359  29.664   7.166  11.606
64131W        W32360  22.823  41.008   3.417
64132W        W32361  11.141  11.860  14.308
64133W        W32362   6.465  30.885  14.861
64134W        W32363  44.270  37.185  12.996
64135W        W32364   3.451  33.609   4.958
64136W        W32365  41.843  21.786   1.653
64137W        W32366  40.965   0.462   0.850
64138W        W32367  21.190  20.289   2.451
64139W        W32368  31.429   0.738  12.619
64140W        W32369  29.620  38.959   0.237
64141W        W32370  14.662  23.657   4.171
64142W        W32371  30.029  38.605   3.220
64143W        W32372  41.239   5.952   1.658
64144W        W32373  27.688  36.693  10.627
64145W        W32374  25.618  27.210   2.264
64146W        W32375   3.266  29.903   0.252
64147W        W32376  40.904  42.589  13.064
64148W        W32377  23.583  39.293  12.939
64149W        W32378  37.113  31.475   0.558
64150W        W32379  19.899  17.357   1.084
64151W        W32380   6.708  25.429   2.690
64152W        W32381   0.764   2.278   4.667
64153W        W32382   9.156  33.494  12.385
64154W        W32383   1.915  27.210  11.689
64155W        W32384  13.482  21.054   2.484
64156W        W32385   4.934  11.629   2.250
64157W        W32386  34.297   1.412  12.525
64158W        W32387   1.289  19.895  13.421
64159W        W32388  22.331   0.493   4.711
64160W        W32389  16.701  15.150   1.649
64161W        W32390  43.370  23.620  13.454
64162W        W32391  41.925  43.586  14.985
64163W        W32392   8.242   5.824   4.244
64164W        W32393  10.466  37.333   2.584
64165W        W32394  44.185  27.434  12.993
64166W        W32395  20.162  17.507  12.274
64167W        W32396  24.676   0.775   1.242
64168W        W32397  43.569  42.983  12.901
64169W        W32398   0.903  23.703  10.659
64170W        W32399  33.921   7.952  14.796
64171W        W32400  24.185  40.593  14.296
64172W        W32401  15.719  13.658   0.282
64173W        W32402   1.822   1.230  12.538
64174W        W32403  29.359  10.182   2.688
64175W        W32404  39.815  23.601  10.869
64176W        W32405  33.389  27.203   1.379
64177W        W32406  24.716   2.496  14.726
64178W        W32407  31.606  11.108  10.669
64179W        W32408  16.753  11.773  13.338
64180W        W32409  24.155  13.930   4.279
64181W        W32410  24.447   6.774   4.902
64182W        W32411  33.995  10.235   4.525
64183W        W32412  29.545  40.893   1.154
64184W        W32413  27.654  36.133  14.251
64185W        W32414   8.772  40.960   0.738
64186W        W32415  28.887   4.845  13.980
64187W        W32416  24.885  14.358   3.245
64188W        W32417  24.983  15.434  11.721
64189W        W32418  18.420  43.778  13.148
64190W        W32419  16.725  20.058  11.683
64191W        W32420  10.823   5.919   2.654
64192W        W32421  38.456   9.454   4.572
64193W        W32422  18.838   5.161  14.811
64194W        W32423   9.350   8.471  12.893
64195W        W32424  16.887   5.217  14.949
64196W        W32425  25.014  20.438  14.673
64197W        W32426  34.169  13.619   1.929
64198W        W32427  20.627  19.808   3.828
64199W        W32428  32.387  11.866   3.863
64200W        W32429  34.711  26.903   1.553
64201W        W32430  11.237   5.674  11.220
64202W        W32431   7.193  44.546  14.357
64203W        W32432  11.835  11.119  14.216
64204W        W32433  35.611   4.408   2.767
64205W        W32434  20.065  28.556   0.914
64206W        W32435  43.569  16.049  12.062
64207W        W32436  35.301   4.299  14.052
64208W        W32437  43.004  19.067  12.571
64209W        W32438  10.759  30.067  12.764
64210W        W32439   6.240   6.232  11.094
64211W        W32440  32.604  20.182  11.451
64212W        W32441  28.578  33.031   3.846
64213W        W32442   4.334  23.689   3.096
64214W        W32443  31.351   3.706   1.324
64215W        W32444   7.370  35.702  14.247
64216W        W32445  18.629  37.546  11.184
64217W        W32446   3.160  23.769   2.309
64218W        W32447  14.152  39.950   2.491
64219W        W32448  10.735  33.532   4.637
64220W        W32449  14.034  34.464   2.346
64221W        W32450  29.694  18.633   2.736
64222W        W32451  41.727  42.846   2.327
64223W        W32452  22.095  36.069  10.727
64224W        W32453  40.026   8.500  10.281
64225W        W32454  37.865  40.234  12.154
64226W        W32455   7.961  41.365   0.716
64227W        W32456   9.712   3.340  11.958
64228W        W32457  13.301  20.790  11.607
64229W        W32458  27.458  43.204   4.139
64230W        W32459  40.183  40.973  13.357
64231W        W32460  29.210   8.392  14.430
64232W        W32461  15.061  38.864  11.845
64233W        W32462  25.127  42.959   0.124
64234W        W32463  42.273  10.153   3.751
64235W        W32464  36.472  34.445  11.523
64236W        W32465  18.220  19.614   0.368
64237W        W32466  36.568  11.227   3.110
64238W        W32467  24.811  32.865  12.975
64239W        W32468   5.422  10.294   4.247
64240W        W32469  36.337   7.821  11.979
64241W        W32470  20.819  31.475  12.015
64242W        W32471   1.942  29.592  14.828
64243W        W32472  42.031  11.892  11.082
64244W        W32473   1.283  23.577  12.429
64245W        W32474  16.241  43.378   2.050
64246W        W32475  28.540  38.350  13.827
64247W        W32476  41.047  20.641   2.378
64248W        W32477  10.200  26.009  14.800
64249W        W32478  25.747  30.455  12.496
64250W        W32479  13.762  37.005  14.844
64251W        W32480  28.439   3.643   1.698
64252W        W32481  44.546  37.459  13.416
64253W        W32482  15.854  30.235   3.807
64254W        W32483   2.499  38.107  10.926
64255W        W32484  15.832   0.877  10.520
64256W        W32485  40.844   6.889   2.800
64257W        W32486  23.073  22.505   4.583
64258W        W32487  15.677   8.092   1.508
64259W        W32488  39.316  18.829  12.521
64260W        W32489  19.868   1.452   2.952
64261W        W32490  26.523  40.384  13.684
64262W        W32491  43.756  34.451   0.912
64263W        W32492  15.842  28.884   5.026
64264W        W32493  44.952  23.650  10.629
64265W        W32494  41.332  37.738   2.758
64266W        W32495  36.339   5.821   1.872
64267W        W32496  29.839   0.429   4.013
64268W        W32497  23.105  29.046   0.251
64269W        W32498  22.565   0.331  12.576
64270W        W32499  23.580   4.970  13.205
64271W        W32500   6.908  21.738   0.994
64272W        W32501  37.799  20.437   4.191
64273W        W32502  33.560  34.389   1.772
64274W        W32503  42.367  14.233  14.244
64275W        W32504   6.252  20.790  13.533
64276W        W32505  31.999  44.468  12.430
64277W        W32506  33.238  11.293  10.490
64278W        W32507  36.925   2.254  13.919
64279W        W32508  17.489   5.755  14.433
64280W        W32509  38.154  29.703   3.472
64281W        W32510  36.356  29.436  13.471
64282W        W32511  26.392  17.742   4.622
64283W        W32512  43.179  34.922  11.278
64284W        W32513  12.107  28.444   2.223
64285W        W32514  39.599  12.079  11.156
64286W        W32515  25.199  14.513   5.210
64287W        W32516  10.802  22.803   2.914
64288W        W32517  29.070   0.885   2.651
64289W        W32518  29.394  32.073   0.796
64290W        W32519  12.282  13.028  13.798
64291W        W32520  33.338   4.437   0.321
64292W        W32521   0.864  35.306  11.049
64293W        W32522   7.889  12.872   0.025
64294W        W32523  22.455   7.418   4.312
64295W        W32524  13.297  32.393  14.839
64296W        W32525   4.648  10.487  13.569
64297W        W32526  28.741   8.069   3.763
64298W        W32527  11.315   3.151   1.637
64299W        W32528  20.068   9.647  13.433
64300W        W32529  12.001  15.534  13.488
64301W        W32530  20.604  21.488  10.787
64302W        W32531  15.239  33.585  12.624
64303W        W32532  14.515   8.692  11.869
64304W        W32533  30.015  35.136  14.514
64305W        W32534  34.881  41.873  14.933
64306W        W32535  28.493  38.713   3.860
64307W        W32536  44.656  25.031  14.798
64308W        W32537  22.707  31.056   0.066
64309W        W32538  42.065  25.677   1.223
64310W        W32539   7.701   3.352   3.860
64311W        W32540  15.892  27.721  10.708
64312W        W32541   2.718   8.154   0.736
64313W        W32542   7.007  27.945  12.840
64314W        W32543  36.921   9.780   1.264
64315W        W32544  12.134  12.929  11.610
64316W        W32545  37.950   9.169   5.461
64317W        W32546   3.339   1.381  12.560
64318W        W32547   7.955   9.200   3.329
64319W        W32548  30.021  28.946  10.942
64320W        W32549  37.897  11.849  11.118
64321W        W32550  20.444  13.654  13.389
64322W        W32551  15.799  29.318   0.687
64323W        W32552  21.558  13.194   1.080
64324W        W32553  21.747  20.053   3.730
64325W        W32554  39.111   5.581   3.758
64326W        W32555  40.897  35.435   2.538
64327W        W32556  27.453  31.083   1.369
64328W        W32557   9.354  22.894  10.159
64329W        W32558  30.155  39.188  10.785
64330W        W32559  32.094  17.954   2.446
64331W        W32560  35.517   8.821   5.199
64332W        W32561   8.246  43.216   3.187
64333W        W32562  17.752  21.757  11.140
64334W        W32563  25.006  23.353  13.891
64335W        W32564  35.815  24.104   5.065
64336W        W32565  32.112  32.496   1.773
64337W        W32566  43.245  20.253   3.785
64338W        W32567  41.067  44.735   0.189
64339W        W32568  36.613  44.986  10.629
64340W        W32569  24.270  24.500   1.342
64341W        W32570  12.786  13.300   4.475
64342W        W32571  44.397  16.249   4.307
64343W        W32572  33.196  13.723   1.752
64344W        W32573  23.441  34.853  12.433
64345W        W32574  26.116   0.102   2.053
64346W        W32575  17.669   2.445   3.913
64347W        W32576  11.788  36.477   4.792
64348W        W32577  30.034   2.765  12.047
64349W        W32578  30.915   0.014   0.873
64350W        W32579   3.779  23.200   3.866
64351W        W32580   0.364  41.731  10.716
64352W        W32581  20.541   0.242  13.980
64353W        W32582  34.639  13.566   2.182
64354W        W32583  34.807  18.167  14.298
64355W        W32584  36.536  33.266  10.062
64356W        W32585  34.309  37.675  14.908
64357W        W32586  24.224  30.942  11.181
64358W        W32587  39.323  24.480   3.681
64359W        W32588  13.854   9.870  11.558
64360W        W32589  29.903  14.967   4.605
64361W        W32590  20.290  44.484   1.269
64362W        W32591  32.042   7.987   0.709
64363W        W32592   0.997   1.748  11.199
64364W        W32593   0.702   0.926  11.426
64365W        W32594  23.804  28.805   0.410
64366W        W32595  29.007  36.837   3.329
64367W        W32596  30.659  39.846   3.103
64368W        W32597  16.243  28.466  10.724
64369W        W32598   0.207  13.696   3.712
64370W        W32599  15.301  23.709  11.206
64371W        W32600  39.097  16.763   1.827
64372W        W32601  25.204   6.255   1.331
64373W        W32602  37.394  29.467  12.891
64374W        W32603  32.011  16.971   3.313
64375W        W32604  11.173  21.616  10.602
64376W        W32605   2.434  42.887  13.803
64377W        W32606  13.715  25.765   4.537
64378W        W32607  34.623   3.813  14.648
64379W        W32608  18.152  11.839  11.628
64380W        W32609  38.876  18.398   1.124
64381W        W32610  12.110  30.397   1.291
64382W        W32611   0.190  28.888  14.152
64383W        W32612  42.783  18.554   0.884
64384W        W32613  17.664  30.542  14.249
64385W        W32614  26.058  22.827   1.674
64386W        W32615  15.338  37.977  11.128
64387W        W32616   1.802  39.787   0.482
64388W        W32617  14.607  41.925   0.217
64389W        W32618   5.392  34.059   0.521
64390W        W32619   6.691   7.984   0.631
64391W        W32620  14.093  24.126   0.834
64392W        W32621  24.808  43.152  10.934
64393W        W32622  15.014  18.082   0.904
64394W        W32623  34.765   8.891  14.889
64395W        W32624  38.961   4.286  10.679
64396W        W32625   3.747   6.620  11.830
64397W        W32626  28.595   1.969   2.285
64398W        W32627  41.849  10.405  14.095
64399W        W32628  21.105   5.358   0.296
64400W        W32629  28.374  12.771   4.336
64401W        W32630  28.019  22.036   2.315
64402W        W32631   2.807   8.848   2.377
64403W        W32632  26.038   9.664  14.376
64404W        W32633  34.945  21.017  14.114
64405W        W32634  42.993  11.578   4.084
64406W        W32635  16.264  28.737   4.250
64407W        W32636  40.386  22.428  12.542
64408W        W32637  41.162  10.095  13.566
64409W        W32638  39.358  14.590   2.353
64410W        W32639   0.495   8.705   3.138
64411W        W32640  21.297  33.455  14.992
64412W        W32641  35.369  43.816   0.688
64413W        W32642  15.683   4.487   4.829
64414W        W32643  22.181  13.960  13.228
64415W        W32644  38.154  30.174  14.565
64416W        W32645   1.240   7.478   2.264
64417W        W32646  31.567  43.167  13.794
64418W        W32647   4.801  29.056   3.791
64419W        W32648  16.309  36.733   0.769
64420W        W32649  13.731   2.772  11.258
64421W        W32650  37.561  19.283  14.422
64422W        W32651   1.053  30.563   0.836
64423W        W32652  37.954  24.959   2.791
64424W        W32653  18.625   9.623   2.562
64425W        W32654   1.352  43.929   4.079
64426W        W32655   6.296  35.834   1.793
64427W        W32656  31.998   7.299  12.750
64428W        W32657  15.380   0.060  11.136
64429W        W32658  39.030  34.456   2.585
64430W        W32659  24.086  11.445   4.941
64431W        W32660  23.563  38.554   3.277
64432W        W32661  31.420  38.688  13.509
64433W        W32662  20.465  19.524  13.224
64434W        W32663   4.970  26.006   2.165
64435W        W32664  30.082   7.921  11.160
64436W        W32665   0.807  13.578   0.845
64437W        W32666  32.969  26.251   0.270
64438W        W32667  42.641  36.162   2.803
64439W        W32668   6.511  15.574   4.860
64440W        W32669   0.541  21.141  14.902
64441W        W32670  25.323  21.085   4.641
64442W        W32671  26.739   0.534  14.715
64443W        W32672   0.456  41.063   3.221
64444W        W32673  12.334  43.528   3.494
64445W        W32674  41.760  21.024   3.659
64446W        W32675  39.444   6.382  10.328
64447W        W32676   7.386  36.594  14.451
64448W        W32677  10.829   4.237  14.836
64449W        W32678   2.631  36.393  14.464
64450W        W32679  11.143  20.638   1.266
64451W        W32680   9.960   2.830  12.431
64452W        W32681  10.184  23.669  11.624
64453W        W32682  34.881  26.206  13.864
64454W        W32683  12.868  42.494  14.841
64455W        W32684  30.333  32.016   1.035
64456W        W32685  20.467   2.263  13.444
64457W        W32686  17.011  37.095   1.388
64458W        W32687  31.871  29.988  13.895
64459W        W32688  15.143   8.330  10.617
64460W        W32689  38.868   5.112   3.732
64461W        W32690  17.164   8.407  11.580
64462W        W32691  10.664   3.378  11.091
64463W        W32692   6.158  44.518  13.470
64464W        W32693   5.872  38.420  14.005
64465W        W32694  43.701  13.829  12.406
64466W        W32695  38.753  17.195  12.022
64467W        W32696  20.477  16.833   4.116
64468W        W32697   1.938  40.825  13.431
64469W        W32698  14.264  12.580  13.505
64470W        W32699  22.203   1.835   2.761
64471W        W32700  26.184  14.736  13.535
64472W        W32701   1.790   5.280  11.606
64473W        W32702   6.160  11.076   2.224
64474W        W32703   2.581  22.538  13.344
64475W        W32704  24.658   4.817   1.814
64476W        W32705   5.395  34.096  14.607
64477W        W32706  33.009  36.609   0.985
64478W        W32707   3.765  16.237  14.351
64479W        W32708  41.861  36.829  10.717
64480W        W32709   3.000  11.332   2.845
64481W        W32710  39.489  21.648   0.454
64482W        W32711   9.749  11.326  10.528
64483W        W32712  19.593  18.194   2.504
64484W        W32713  43.899   0.647  13.006
64485W        W32714  42.900  17.483  13.499
64486W        W32715  35.593   3.937  14.266
64487W        W32716  15.662   6.344   1.790
64488W        W32717  10.726  32.396   1.574
64489W        W32718  10.201   5.970  14.796
64490W        W32719  25.227  41.949   3.192
64491W        W32720  13.408  11.885  12.753
64492W        W32721  10.176  21.724   4.611
64493W        W32722  37.776  29.986   3.645
64494W        W32723   6.295  26.641  11.370
64495W        W32724  24.216  35.262  12.850
64496W        W32725  10.089  14.158   1.225
64497W        W32726  24.649  18.626  13.510
64498W        W32727  31.687  24.507  13.185
64499W        W32728  41.278  35.704   2.817
64500W        W32729  14.216  43.296  10.530
64501W        W32730  33.782   2.475  13.288
64502W        W32731  22.749  28.476  14.022
64503W        W32732   9.141  18.631  14.409
64504W        W32733  33.937  25.767  12.007
64505W        W32734  43.898  42.892   3.434
64506W        W32735  13.496  29.910  11.632
64507W        W32736  42.011  38.974   4.749
64508W        W32737  29.093  20.094  11.676
64509W        W32738   2.504  13.540  13.788
64510W        W32739   1.909  17.836  11.539
64511W        W32740  44.839  16.262   1.382
64512W        W32741  19.748  24.314  12.814
64513W        W32742  24.466  33.012   4.638
64514W        W32743   2.241  28.330  11.953
64515W        W32744  39.589   3.451   3.145
64516W        W32745  33.377  41.371   4.540
64517W        W32746  21.976  29.932  14.370
64518W        W32747   3.365   3.087   2.686
64519W        W32748   0.096  34.469   1.494
64520W        W32749  38.562  19.279  11.266
64521W        W32750  17.120  12.215   1.317
64522W        W32751  24.649  28.633  10.857
64523W        W32752  32.732  31.018   4.217
64524W        W32753  36.870  14.568   0.331
64525W        W32754  16.317  28.965   3.051
64526W        W32755  16.139  14.812   4.351
64527W        W32756  37.626  25.357  10.396
64528W        W32757  42.423  36.427   0.779
64529W        W32758   9.667  38.742  11.522
64530W        W32759   6.256  23.676  14.335
64531W        W32760  16.181  20.670   3.041
64532W        W32761  19.749   0.874  11.513
64533W        W32762   9.418  21.541  10.582
64534W        W32763  42.058  18.662  11.460
64535W        W32764  30.441  38.571   3.916
64536W        W32765  20.116  44.603  13.600
64537W        W32766   6.366   7.154   0.353
64538W        W32767  35.356  24.157  14.047
64539W        W32768  33.225  36.446   0.460
64540W        W32769  24.010  11.090  12.695
64541W        W32770  37.289  16.898   4.206
64542W        W32771  35.479  12.737   3.325
64543W        W32772  22.088  27.912   4.296
64544W        W32773  14.771   5.467  12.871
64545W        W32774  43.242  31.922  13.873
64546W        W32775  24.833  25.823   3.706
64547W        W32776  37.106  33.045  12.548
64548W        W32777  44.297   2.618  13.030
64549W        W32778  43.515  18.328   4.994
64550W        W32779  34.441  17.289   1.312
64551W        W32780   8.509  13.650  12.458
64552W        W32781   7.351  37.029  11.518
64553W        W32782  40.337  18.707   3.746
64554W        W32783  10.832  36.144   2.064
64555W        W32784  33.312  43.989   2.345
64556W        W32785   5.440  40.848  12.244
64557W        W32786   7.193  23.803  13.932
64558W        W32787  31.013  31.326   1.907
64559W        W32788  23.600  18.806  10.704
64560W        W32789  30.181  22.456   3.866
64561W        W32790  34.228  37.779   1.908
64562W        W32791   4.287   6.655   4.153
64563W        W32792   1.940  17.619  10.773
64564W        W32793  41.917  41.914   4.985
64565W        W32794  37.077  35.525  14.420
64566W        W32795   8.278  43.728   3.224
64567W        W32796  18.254   4.403  14.127
64568W        W32797  38.157  13.239  11.121
64569W        W32798  38.465  26.841  12.065
64570W        W32799  13.597  13.177   2.332
64571W        W32800  25.151  23.597   2.747
64572W        W32801  16.119  21.285   4.737
64573W        W32802  18.640  22.791   0.898
64574W        W32803  12.222  22.210  14.509
64575W        W32804  17.564   9.668  11.228
64576W        W32805  32.510  18.267   2.220
64577W        W32806  18.207  27.511   1.261
64578W        W32807   4.981  11.559  14.356
64579W        W32808   0.222  27.410  14.341
64580W        W32809  34.895   0.260  13.556
64581W        W32810   2.316  44.048  13.123
64582W        W32811  44.714  25.934   3.227
64583W        W32812   0.484  11.387  13.947
64584W        W32813   6.454  22.734   5.294
64585W        W32814  20.124  24.514  13.959
64586W        W32815  12.591  11.749   1.317
64587W        W32816  41.519  17.975   4.932
64588W        W32817   1.996   4.792  12.421
64589W        W32818  22.191  31.726   4.724
64590W        W32819   0.944   1.024  13.345
64591W        W32820  26.815   6.179   2.310
64592W        W32821  22.267  23.042   0.251
64593W        W32822  35.192  20.955   2.671
64594W        W32823  40.971  39.443  14.962
64595W        W32824  32.349   3.459   2.870
64596W        W32825   9.887   4.869   4.145
64597W        W32826  24.197  17.936   3.607
64598W        W32827  39.877  37.929  13.079
64599W        W32828  14.470  33.407   4.832
64600W        W32829  32.980  18.857   1.456
64601W        W32830  38.033   9.120   4.132
64602W        W32831  15.115  21.309  12.253
64603W        W32832  28.205  33.793   0.844
64604W        W32833   0.068  44.048  12.592
64605W        W32834  20.114   7.456   0.716
64606W        W32835  16.851  19.531   1.190
64607W        W32836  11.400  33.135  14.349
64608W        W32837  32.564  12.175  12.465
64609W        W32838  37.425  34.217   3.124
64610W        W32839  14.399  20.267  11.064
64611W        W32840   6.934   6.676  12.149
64612W        W32841  34.613  44.932   0.332
64613W        W32842  44.511  30.368  14.889
64614W        W32843   7.438  40.395  10.765
64615W        W32844  26.214  36.138   1.189
64616W        W32845  30.438   5.304   4.096
64617W        W32846  30.501   3.271   3.632
64618W        W32847   5.266  21.985  14.727
64619W        W32848  14.703  19.491   2.348
64620W        W32849   8.528  14.615   1.929
64621W        W32850   8.858   6.402  11.592
64622W        W32851  26.585  12.876  11.495
64623W        W32852  38.929  11.855  10.376
64624W        W32853  16.818   6.217  12.075
64625W        W32854  10.778   6.339  10.343
64626W        W32855   5.984   5.341   1.415
64627W        W32856  14.703  38.825   2.840
64628W        W32857  39.196   7.421  10.880
64629W        W32858  19.646  25.674  13.117
64630W        W32859  41.059  21.804  12.585
64631W        W32860   4.263   3.325   4.657
64632W        W32861  25.694  34.340   2.184
64633W        W32862   7.135  35.854   4.863
64634W        W32863  43.841  21.499   3.717
64635W        W32864   9.923   8.714  13.467
64636W        W32865  25.558  20.837   3.274
64637W        W32866  44.419   2.406  10.772
64638W        W32867  27.107   7.946  12.131
64639W        W32868  41.608  34.076   1.913
64640W        W32869   0.738   6.942   0.737
64641W        W32870  23.241   1.437  11.495
64642W        W32871   5.664  19.318  11.387
64643W        W32872  42.794  30.106   2.863
64644W        W32873  26.198   3.881  13.463
64645W        W32874  43.831  29.041   4.240
64646W        W32875  44.003  40.485  14.903
64647W        W32876  38.016  13.376  14.014
64648W        W32877  34.983  34.963   0.966
64649W        W32878   1.628   2.870  14.354
64650W        W32879  36.831   1.247   3.699
64651W        W32880  42.413  23.164   3.520
64652W        W32881  17.598  26.161  12.551
64653W        W32882   6.750  25.924   1.764
64654W        W32883  20.651  39.139   3.178
64655W        W32884  15.332  17.226  13.044
64656W        W32885   5.647   6.197   2.944
64657W        W32886  33.367  38.886   0.016
64658W        W32887  28.019   4.676   5.058
64659W        W32888  17.770  22.812   0.934
64660W        W32889  14.358   9.297  11.977
64661W        W32890  36.041  10.773  14.899
64662W        W32891  36.355  14.091   2.750
64663W        W32892  18.483  34.529  10.240
64664W        W32893  43.103   1.362   4.518
64665W        W32894  23.581  33.657  13.113
64666W        W32895  41.309   7.553   0.736
64667W        W32896  35.386  14.405   1.689
64668W        W32897  18.266  14.688   0.879
64669W        W32898  40.004  40.515   1.339
64670W        W32899  40.554   3.440   4.573
64671W        W32900  41.930   9.612  12.064
64672W        W32901  17.204  26.062   0.703
64673W        W32902  31.554  37.805  10.650
64674W        W32903  33.045  21.538  11.122
64675W        W32904   4.355  25.687   4.565
64676W        W32905  26.251  34.963  14.429
64677W        W32906  31.027  22.250   3.584
64678W        W32907   5.956  34.338  14.765
64679W        W32908  38.022  18.210  12.580
64680W        W32909  43.937   8.894   0.666
64681W        W32910  10.462  21.205  12.602
64682W        W32911  30.525  30.080  13.711
64683W        W32912  42.937  40.267  11.638
64684W        W32913  23.140  37.264  11.390
64685W        W32914  35.237  18.103  13.943
64686W        W32915  24.515  30.465   4.046
64687W        W32916   8.834  11.597  14.082
64688W        W32917   1.547  40.477   0.511
64689W        W32918  10.788  10.772   4.548
64690W        W32919   9.423  33.411   3.224
64691W        W32920  29.205  20.017   0.710
64692W        W32921   8.048  34.370   0.947
64693W        W32922   3.514  24.172  13.620
64694W        W32923  18.324  21.233   1.699
64695W        W32924   8.073   9.913  12.951
64696W        W32925  34.636  28.540   0.256
64697W        W32926  17.076   5.840   3.195
64698W        W32927  12.808  16.191   0.264
64699W        W32928  15.526   8.147   2.804
64700W        W32929  39.771  11.922  12.103
64701W        W32930  19.913  44.948  11.353
64702W        W32931   2.776  19.044  10.609
64703W        W32932  36.091  27.488  11.566
64704W        W32933  39.866  20.580   3.569
64705W        W32934   6.168   1.346   0.512
64706W        W32935  24.941  38.384   4.682
64707W        W32936  33.161  15.048   1.829
64708W        W32937  44.418  36.285   2.763
64709W        W32938  22.537  35.418   2.441
64710W        W32939  41.891  29.154  14.004
64711W        W32940  31.685  14.606   3.861
64712W        W32941  11.424   1.954   4.108
64713W        W32942  10.807  21.948   1.856
64714W        W32943  20.596  35.045   3.580
64715W        W32944   5.153   1.706  12.375
64716W        W32945  26.497   8.695   4.588
64717W        W32946   1.575  26.512  12.461
64718W        W32947  36.986  36.524  13.008
64719W        W32948  25.686   1.855   2.278
64720W        W32949   1.046  27.003   3.299
64721W        W32950  32.884  33.413  14.311
64722W        W32951  12.276  43.921   3.867
64723W        W32952  29.010  35.954   3.885
64724W        W32953  32.907  31.501  12.574
64725W        W32954   5.615   3.141   2.226
64726W        W32955   7.250   8.148   2.198
64727W        W32956  30.516  42.190   1.210
64728W        W32957  42.470  37.102   2.877
64729W        W32958  32.054  21.838  13.905
64730W        W32959   0.972  37.201  13.334
64731W        W32960   5.677  36.637  11.400
64732W        W32961  23.120   2.432   2.256
64733W        W32962  16.334  13.591   4.762
64734W        W32963  10.161  24.394   4.047
64735W        W32964  33.649  29.603   3.593
64736W        W32965  41.988  22.819  12.908
64737W        W32966  40.161   4.899  10.149
64738W        W32967   2.348  14.801   4.943
64739W        W32968  11.869  12.327  11.660
64740W        W32969  37.405  21.834  12.921
64741W        W32970  36.403  10.636   4.639
64742W        W32971  37.742  35.815   4.860
64743W        W32972  40.505  43.756   2.838
64744W        W32973  18.477  18.262  11.916
64745W        W32974   4.298   7.706  11.177
64746W        W32975  42.712  22.540   4.630
64747W        W32976  38.448   0.683   2.826
64748W        W32977  15.772  25.994  13.575
64749W        W32978   7.329   1.737   1.681
64750W        W32979  22.686  34.005   2.276
64751W        W32980  24.466   4.106   2.318
64752W        W32981  35.666  27.448  13.352
64753W        W32982  39.450  42.059  13.331
64754W        W32983  43.505   3.924   4.074
64755W        W32984  16.537  16.172   3.417
64756W        W32985  31.984   8.865   1.733
64757W        W32986  19.153  10.427  10.939
64758W        W32987  14.720  40.001  11.914
64759W        W32988   2.802  34.160   3.112
64760W        W32989  28.180  43.501  11.105
64761W        W32990  36.606  18.825   0.194
64762W        W32991   5.784  10.223   2.432
64763W        W32992  18.065  30.048   1.765
64764W        W32993  28.195   4.638  13.119
64765W        W32994  17.512  13.578   0.213
64766W        W32995  25.066  16.709   4.784
64767W        W32996  24.670   5.709   2.715
64768W        W32997   8.615  33.460   4.542
64769W        W32998  41.543  41.288   4.196
64770W        W32999  18.779   4.781   1.255
64771W        W33000  27.723  43.860  12.026
64772W        W33001  10.905  26.159  14.218
64773W        W33002  28.370   2.538   1.466
64774W        W33003   6.455  20.018  13.909
64775W        W33004   3.392  33.618  11.629
64776W        W33005  16.684  37.162   3.623
64777W        W33006  12.167   3.886  12.586
64778W        W33007  25.140   9.605  11.643
64779W        W33008  25.192   3.504   4.450
64780W        W33009   7.866  24.215  14.350
64781W        W33010   9.435  24.050   1.864
64782W        W33011  44.425   7.937   4.075
64783W        W33012   7.842  24.226   3.308
64784W        W33013  27.634  25.850   2.481
64785W        W33014   6.878   8.903  12.429
64786W        W33015  10.292  32.201   4.136
64787W        W33016   9.636  36.950   2.688
64788W        W33017  26.988  10.388   1.924
64789W        W33018   8.675  19.028  11.643
64790W        W33019  20.168  28.505   2.402
64791W        W33020  23.613  44.468   0.928
64792W        W33021  31.566  31.518  11.120
64793W        W33022  28.679  17.610   2.352
64794W        W33023   7.787  18.632  13.053
64795W        W33024  25.215  15.680   3.528
64796W        W33025  43.573   3.570   4.933
64797W        W33026   0.041  42.515   3.709
64798W        W33027  32.408  44.253  14.029
64799W        W33028   8.488  19.555  14.940
64800W        W33029  27.388  10.633  13.683
64801W        W33030  26.194  15.275   3.963
64802W        W33031  21.688  11.108  12.796
64803W        W33032  35.534  18.441  14.180
64804W        W33033   2.686  23.197   3.863
64805W        W33034  18.216  40.512  10.741
64806W        W33035  39.203   1.483  11.998
64807W        W33036  39.148   2.794  14.388
64808W        W33037   1.906  17.316  12.429
64809W        W33038  37.783  26.963  12.828
64810W        W33039  33.329  23.950   0.429
64811W        W33040  10.190  13.582   3.830
64812W        W33041  13.767   8.172   3.220
64813W        W33042  16.523  23.444   4.622
64814W        W33043  39.220  21.866   2.876
64815W        W33044  43.240   6.717   2.516
64816W        W33045   3.820   3.763   3.763
64817W        W33046   4.819   7.326  13.121
64818W        W33047   6.321  16.844  11.140
64819W        W33048  32.140  21.664   4.654
64820W        W33049   3.903  37.154   2.256
64821W        W33050  33.347  33.830   0.416
64822W        W33051   6.653  39.012  14.736
64823W        W33052  13.113  22.200  14.553
64824W        W33053  13.295  30.468  10.302
64825W        W33054  40.853  19.093  12.793
64826W        W33055  14.754  28.671   1.229
64827W        W33056  33.417  30.508   0.787
64828W        W33057  32.958   8.587   1.796
64829W        W33058   9.495  11.359  14.718
64830W        W33059   7.851   9.724   3.899
64831W        W33060  41.039  36.480   4.727
64832W        W33061  30.894  31.867   1.917
64833W        W33062  28.126  28.932  12.976
64834W        W33063  35.148   4.235  10.586
64835W        W33064  23.546   4.954  12.048
64836W        W33065  23.468   3.957   2.752
64837W        W33066   7.877  16.510   1.478
64838W        W33067  44.043  37.386  12.542
64839W        W33068  35.974   2.547   3.069
64840W        W33069  37.314  43.585   4.810
64841W        W33070  31.138  38.258  13.377
64842W        W33071  19.184  40.904  12.918
64843W        W33072  36.835  32.295   1.618
64844W        W33073  34.111   8.426   1.050
64845W        W33074   2.276  23.781  11.101
64846W        W33075  29.965  43.925   3.612
64847W        W33076   3.364  17.618   4.697
64848W        W33077  29.763  12.920  12.927
64849W        W33078  40.881   0.379  13.893
64850W        W33079   0.383  19.243  13.882
64851W        W33080  26.744  35.145  14.437
64852W        W33081  27.570   8.228   2.948
64853W        W33082  34.411  31.587   4.423
64854W        W33083  43.849  31.281   0.450
64855W        W33084  24.129  33.373   5.088
64856W        W33085  32.516  15.832  12.128
64857W        W33086  25.940  15.500  11.422
64858W        W33087  10.306   5.832  13.617
64859W        W33088  35.922  15.673  14.260
64860W        W33089  16.303   9.199  12.935
64861W        W33090  21.304  22.192  10.785
64862W        W33091  12.071  34.946   4.837
64863W        W33092   3.964  38.416   1.667
64864W        W33093  43.418   6.654  12.402
64865W        W33094  41.637  40.706   3.192
64866W        W33095  16.208  39.395   1.403
64867W        W33096  25.114  13.173  12.542
64868W        W33097  35.424  16.191   4.797
64869W        W33098  38.667  34.979   1.787
64870W        W33099  38.842   9.120   4.559
64871W        W33100  31.916   2.763   2.796
64872W        W33101  16.671  43.938   2.398
64873W        W33102  22.153   2.432  13.957
64874W        W33103   1.828  22.953   0.380
64875W        W33104  22.701  11.117  13.184
64876W        W33105   3.157  13.175   4.749
64877W        W33106  35.555  35.527  11.161
64878W        W33107  37.674  38.395  13.539
64879W        W33108  24.710  39.876   3.267
64880W        W33109  43.463  25.770  14.833
64881W        W33110   1.478  26.032  12.660
64882W        W33111  32.437  19.658  10.158
64883W        W33112  42.792   2.291   3.861
64884W        W33113   3.142  40.915  14.091
64885W        W33114   1.834   5.385   4.318
64886W        W33115  40.928  13.516   0.289
64887W        W33116  21.761  41.506   3.116
64888W        W33117  20.209  16.666   0.451
64889W        W33118  16.597  18.435   1.671
64890W        W33119  33.494  11.755  10.625
64891W        W33120  44.418   4.393   4.106
64892W        W33121  38.500  32.046  14.666
64893W        W33122  10.863  42.461  11.964
64894W        W33123  15.623  27.136  11.570
64895W        W33124  40.903  42.823   3.363
64896W        W33125  38.371  32.049  11.545
64897W        W33126   7.793  40.350   0.504
64898W        W33127   2.564  12.694  14.591
64899W        W33128  18.319   1.542   4.842
64900W        W33129  13.253   2.260   0.859
64901W        W33130  32.436  43.002   1.885
64902W        W33131  27.577  31.904   2.629
64903W        W33132  37.182  15.142  11.105
64904W        W33133  37.939  24.495  13.595
64905W        W33134  23.948  38.984  11.978
64906W        W33135  25.942  26.622  14.480
64907W        W33136  36.014  16.346  12.489
64908W        W33137   7.181  43.320   4.621
64909W        W33138  33.889  26.007   0.917
64910W        W33139  11.853  31.955  10.661
64911W        W33140  13.903  22.030  10.665
64912W        W33141  27.121   7.867   2.267
64913W        W33142   5.268  30.126   4.345
64914W        W33143  10.682  33.145  13.565
64915W        W33144  25.940  30.683  10.550
64916W        W33145   3.277  32.410  14.490
64917W        W33146  20.435  29.162  10.685
64918W        W33147  23.055  43.654   3.247
64919W        W33148  12.681  35.436   0.493
64920W        W33149  43.033   4.400   0.361
64921W        W33150  44.466   6.440  13.839
64922W        W33151   2.670  38.951   1.823
64923W        W33152   3.890  42.806  14.961
64924W        W33153  38.622   3.303   1.348
64925W        W33154  43.421  14.864  14.035
64926W        W33155  13.281  12.138  11.042
64927W        W33156  19.064   5.020   4.252
64928W        W33157  12.839  20.120  12.111
64929W        W33158  33.463  21.158   2.301
64930W        W33159   0.742  35.244   2.387
64931W        W33160  37.830   5.021   3.184
64932W        W33161  29.479   9.254   2.990
64933W        W33162  24.671  41.989  14.941
64934W        W33163   8.675  11.174  14.350
64935W        W33164  40.992   9.224   3.224
64936W        W33165   7.961  43.595  12.456
64937W        W33166   8.730  24.660  13.819
64938W        W33167  21.979  41.484  13.737
64939W        W33168  24.934  10.195  11.961
64940W        W33169   5.755  14.594  13.395
64941W        W33170  10.385  31.201   4.163
64942W        W33171   3.852  25.517  10.547
64943W        W33172  30.460   2.097  12.504
64944W        W33173  13.816  37.055  12.156
64945W        W33174  17.039  20.211  12.119
64946W        W33175  10.635  23.981   2.163
64947W        W33176  31.542  16.180  13.621
64948W        W33177  26.526  12.306  13.674
64949W        W33178  22.710  30.064  13.100
64950W        W33179   6.344  30.720   1.354
64951W        W33180  24.074  35.502   3.615
64952W        W33181  17.263  20.699  14.083
64953W        W33182  17.113  42.165   2.521
64954W        W33183  32.048   3.877   2.226
64955W        W33184   7.188   8.223  12.688
64956W        W33185  16.832   2.979   0.523
64957W        W33186  19.291  21.342  14.086
64958W        W33187  38.783  23.172   3.320
64959W        W33188  37.539  22.816   0.936
64960W        W33189   0.694  29.096  14.068
64961W        W33190   0.297  36.636   4.615
64962W        W33191  15.291  39.402  14.441
64963W        W33192  16.542  24.651   3.984
64964W        W33193   5.424  33.154  14.196
64965W        W33194  11.931   7.133  14.994
64966W        W33195  25.793   9.444   1.029
64967W        W33196  18.035   5.234   1.330
64968W        W33197  42.275  21.081  12.989
64969W        W33198  10.656  28.104   3.921
64970W        W33199  41.975   6.262   4.332
64971W        W33200  30.929  36.704   4.503
64972W        W33201  13.836   9.451  11.893
64973W        W33202  44.759  43.581  14.835
64974W        W33203  41.986  44.373   0.229
64975W        W33204   6.291  32.434   2.911
64976W        W33205   8.686  44.140   0.420
64977W        W33206   6.879  22.231   4.660
64978W        W33207  13.593  18.786   3.751
64979W        W33208  39.998  44.897   2.073
64980W        W33209  19.242  35.119  11.096
64981W        W33210  37.504  26.942   1.152
64982W        W33211  12.511  22.051  13.077
64983W        W33212  44.755  16.366   2.355
64984W        W33213  28.798  36.800   4.590
64985W        W33214  34.489   7.930  10.735
64986W        W33215   9.955  31.260  12.803
64987W        W33216  34.091   0.450   2.268
64988W        W33217  36.809  24.660   0.373
64989W        W33218  22.529  37.524   1.891
64990W        W33219  34.315  24.509  12.378
64991W        W33220   3.005   7.023  13.565
64992W        W33221  32.475  36.420   5.380
64993W        W33222  31.371  14.231   3.713
64994W        W33223  32.316   8.406   0.487
64995W        W33224  35.049   8.105  14.471
64996W        W33225  43.327  40.500  12.986
64997W        W33226  34.050  35.082  11.704
64998W        W33227  26.943  35.392   0.989
64999W        W33228  17.690  18.102   2.484
65000W        W33229  22.955  37.253   2.123
65001W        W33230  26.961  23.507  13.015
65002W        W33231  32.603   7.337   5.057
65003W        W33232   7.151  34.084   2.488
65004W        W33233   3.434  10.151   3.142
65005W        W33234   4.700  25.077  14.079
65006W        W33235  35.474   3.380  12.993
65007W        W33236  14.987   8.791  14.949
65008W        W33237  40.894  30.627   3.076
65009W        W33238  33.014  18.943   2.620
65010W        W33239  37.602  12.246  12.794
65011W        W33240  38.591  10.204  13.007
65012W        W33241  19.156   4.075  12.634
65013W        W33242  40.161   8.264   0.477
65014W        W33243  13.668  29.018   2.883
65015W        W33244   8.355  38.511  10.751
65016W        W33245   9.205  36.413   0.473
65017W        W33246  18.077  20.245  12.018
65018W        W33247  18.257  38.412  10.480
65019W        W33248  28.476  31.473   2.698
65020W        W33249  31.364  13.722   2.708
65021W        W33250  19.551  33.387   0.063
65022W        W33251   0.819  26.591   5.034
65023W        W33252   4.402  38.309   2.784
65024W        W33253  31.217  18.672  14.491
65025W        W33254   1.852  32.569  12.985
65026W        W33255  26.627   3.772   2.740
65027W        W33256   1.381  41.093  11.205
65028W        W33257  40.766  36.352  14.989
65029W        W33258  30.598  21.874   2.517
65030W        W33259  41.462  41.094  12.290
65031W        W33260   0.981  34.772   1.385
65032W        W33261   9.893  41.247   1.298
65033W        W33262  40.719  40.596  12.012
65034W        W33263   2.141   1.396  12.955
65035W        W33264   2.003  14.848   3.746
65036W        W33265  11.189  10.644  13.136
65037W        W33266  15.813  39.007  11.008
65038W        W33267  29.389  44.687   5.122
65039W        W33268   7.318  27.654  11.647
65040W        W33269   4.824  14.751   0.573
65041W        W33270   9.628   9.345  12.434
65042W        W33271  30.757  43.170  13.818
65043W        W33272  15.237  35.120  11.962
65044W        W33273  27.015   1.756  11.142
65045W        W33274  39.151  30.987   1.836
65046W        W33275  15.580   1.617   3.541
65047W        W33276  38.735  29.974   0.938
65048W        W33277  30.545  31.472  11.638
65049W        W33278  28.692  39.911   1.387
65050W        W33279  35.355   0.814   2.848
65051W        W33280  11.883  32.544  11.120
65052W        W33281  10.622  16.421   3.223
65053W        W33282   1.733  18.065  11.090
65054W        W33283  27.301  28.606  13.902
65055W        W33284  36.071  13.344   3.104
65056W        W33285  23.284  44.374   4.859
65057W        W33286  38.042  20.799  11.693
65058W        W33287  11.744  41.721   1.001
65059W        W33288  26.695  28.939   3.183
65060W        W33289  30.599  34.910   4.553
65061W        W33290   5.397  12.807  10.735
65062W        W33291  18.327  37.310  14.811
65063W        W33292  33.351  38.159  12.135
65064W        W33293  38.395  31.871   0.566
65065W        W33294   8.396  12.370   1.201
65066W        W33295  39.892  20.628   0.729
65067W        W33296  29.929  11.244   1.498
65068W        W33297  17.359  15.235   3.664
65069W        W33298  14.831   8.409   4.658
65070W        W33299  32.946   6.439   2.006
65071W        W33300  44.946  37.524   4.630
65072W        W33301  13.064   3.985  14.461
65073W        W33302  21.953  12.065  11.465
65074W        W33303  24.117   1.346  11.459
65075W        W33304  16.897  15.589   4.969
65076W        W33305  40.898  40.570   0.169
65077W        W33306  16.522  31.909  13.955
65078W        W33307  23.951  19.498   0.285
65079W        W33308  34.689  24.501   2.387
65080W        W33309  30.860  35.559  13.155
65081W        W33310  18.124   3.224  10.764
65082W        W33311  20.057   6.454  11.594
65083W        W33312  30.108  21.707  14.850
65084W        W33313   1.246   1.545  14.484
65085W        W33314  22.497  11.241  11.697
65086W        W33315  43.802   5.729   4.603
65087W        W33316  28.984  33.504   4.234
65088W        W33317  37.272  16.101  13.261
65089W        W33318  29.507  22.012  10.723
65090W        W33319   3.707  34.753   1.740
65091W        W33320  16.656  20.203  13.879
65092W        W33321  11.172  26.254   0.909
65093W        W33322   5.903  14.366  11.012
65094W        W33323  20.461  14.700   2.295
65095W        W33324  18.542   8.296   4.711
65096W        W33325  30.906   3.647  14.523
65097W        W33326  20.898  22.729  13.203
65098W        W33327  19.080  38.861   1.383
65099W        W33328   3.489  15.587   3.808
65100W        W33329  15.663   9.152   0.849
65101W        W33330   8.481  20.161  10.554
65102W        W33331  22.284  43.874  13.992
65103W        W33332  35.858  44.041  12.275
65104W        W33333  40.259   7.736   4.660
65105W        W33334  29.064  17.260   2.239
65106W        W33335   3.023  15.902   1.740
65107W        W33336  23.091   0.370  11.145
65108W        W33337   4.955   9.193   4.283
65109W        W33338   9.735  19.774  13.470
65110W        W33339  30.406  43.851   0.942
65111W        W33340  31.317  20.679   1.797
65112W        W33341  34.661  40.860   4.539
65113W        W33342  30.681   2.377   5.177
65114W        W33343   9.084  15.640  12.081
65115W        W33344  38.799  16.859  14.914
65116W        W33345  23.241  33.765  10.619
65117W        W33346  18.726  32.014  11.482
65118W        W33347  29.468   0.138  11.681
65119W        W33348  38.133  30.249   2.728
65120W        W33349  36.328  24.075   1.741
65121W        W33350  37.959  13.506   2.080
65122W        W33351  37.439  33.301   0.462
65123W        W33352  13.084  39.374  12.954
65124W        W33353  32.379  14.560   0.725
65125W        W33354  14.610  40.439  12.862
65126W        W33355  40.042  16.051   2.697
65127W        W33356  30.070  28.338  11.652
65128W        W33357  34.521  18.748   1.251
65129W        W33358  44.678   7.742  12.593
65130W        W33359   7.626  23.542   2.862
65131W        W33360  24.437   7.283  11.185
65132W        W33361  10.150  11.815  14.097
65133W        W33362  15.749  10.861  10.921
65134W        W33363  42.371   0.417   1.323
65135W        W33364   6.356  33.400  12.366
65136W        W33365  12.696  25.272   3.386
65137W        W33366   2.515   4.753  10.549
65138W        W33367  39.961  11.084  11.748
65139W        W33368  19.169  37.864  14.553
65140W        W33369  20.154  16.695  13.365
65141W        W33370  25.915  13.475  13.050
65142W        W33371  34.624  29.114  13.970
65143W        W33372   5.391  40.255  13.981
65144W        W33373  40.256   9.377  11.214
65145W        W33374  29.524  19.800   1.808
65146W        W33375  24.084  41.064   0.219
65147W        W33376  14.656   3.492   4.222
65148W        W33377  43.293  30.031  11.120
65149W        W33378  28.768  24.214  14.440
65150W        W33379  34.916  33.891  13.363
65151W        W33380  15.549  14.714   2.738
65152W        W33381  23.787  29.037   2.754
65153W        W33382  28.075  32.746  12.414
65154W        W33383  16.864  26.674  11.065
65155W        W33384   5.504  20.082   0.033
65156W        W33385  11.843  16.221  13.051
65157W        W33386  25.816   3.915   1.237
65158W        W33387  22.701   0.798  14.384
65159W        W33388   8.103  35.006  13.457
65160W        W33389  42.533  20.957   0.766
65161W        W33390  10.555  37.553   0.874
65162W        W33391   3.795   5.705   4.621
65163W        W33392   9.940  10.122  13.544
65164W        W33393  39.068   2.784  10.754
65165W        W33394  25.518  11.778   2.219
65166W        W33395  15.492   7.182  12.013
65167W        W33396  18.224  18.303   2.683
65168W        W33397  19.594  18.409   0.097
65169W        W33398  17.088   6.335   3.642
65170W        W33399  12.593  36.133   1.294
65171W        W33400   0.349  22.772   4.700
65172W        W33401  33.694   5.110   4.501
65173W        W33402  37.979   3.825  10.635
65174W        W33403  36.469  44.793   1.331
65175W        W33404  12.711   8.113   0.392
65176W        W33405  21.668   7.130   4.060
65177W        W33406  29.380  36.400  12.894
65178W        W33407  34.482   3.310  13.435
65179W        W33408   5.300  20.984  13.740
65180W        W33409   4.408   0.824  12.035
65181W        W33410  18.838  18.150  11.565
65182W        W33411   0.396  33.396  13.009
65183W        W33412  17.084  23.216  12.117
65184W        W33413  13.794  21.889   0.599
65185W        W33414  37.024  42.847   2.146
65186W        W33415  41.303  32.959  12.887
65187W        W33416   5.138   8.674   1.230
65188W        W33417   8.876  26.146  11.541
65189W        W33418  35.396  40.382   4.508
65190W        W33419  31.573  20.610  13.459
65191W        W33420  30.590  23.128   3.335
65192W        W33421  36.709  13.335  11.651
65193W        W33422  11.850  21.716   0.197
65194W        W33423  18.549  16.545   3.295
65195W        W33424  26.316  34.526  11.067
65196W        W33425  16.195  30.939  10.775
65197W        W33426  41.522  22.664   3.794
65198W        W33427  14.124  39.780   3.244
65199W        W33428  16.219  16.843  13.872
65200W        W33429  13.147  14.332   4.685
65201W        W33430  34.089  12.798   3.386
65202W        W33431  41.993  30.431  12.016
65203W        W33432   4.300   3.008   3.263
65204W        W33433  13.173  18.560  12.463
65205W        W33434  15.330  12.397   4.135
65206W        W33435  22.606  22.604  14.841
65207W        W33436  34.531  29.589   4.113
65208W        W33437  39.865   9.440   2.374
65209W        W33438   9.741  30.229   3.140
65210W        W33439  39.898  12.560   4.235
65211W        W33440   4.042  44.730   0.185
65212W        W33441  38.334   2.486  14.502
65213W        W33442   2.045  30.011   2.196
65214W        W33443  28.744  39.401   1.349
65215W        W33444  15.293  14.750  12.731
65216W        W33445  31.543   1.333  11.790
65217W        W33446  16.332  34.438   5.000
65218W        W33447  24.499  41.972  10.699
65219W        W33448  41.842  33.517   4.708
65220W        W33449  41.384  13.391   1.224
65221W        W33450  22.557  29.374   3.646
65222W        W33451   4.372  29.054  10.827
65223W        W33452  27.996  32.889  10.321
65224W        W33453  40.542   7.153   4.113
65225W        W33454  40.979  40.287  13.287
65226W        W33455  36.882  39.702  12.135
65227W        W33456  30.306  35.020   0.304
65228W        W33457  41.320  32.585   0.509
65229W        W33458  29.188   5.854  10.598
65230W        W33459  37.991   1.241  10.374
65231W        W33460  21.111  11.646   1.691
65232W        W33461  16.993  38.677   5.003
65233W        W33462  16.613  36.393   2.679
65234W        W33463  37.246  32.324   0.286
65235W        W33464  16.344   4.860   3.888
65236W        W33465   9.289  32.600  12.270
65237W        W33466  35.367  30.036   0.793
65238W        W33467   8.137  35.092  13.965
65239W        W33468  31.277  21.169  11.974
65240W        W33469   2.141  15.807  12.755
65241W        W33470  12.176  22.158  11.126
65242W        W33471  42.404  34.061  10.710
65243W        W33472   4.810  41.428   2.718
65244W        W33473  20.260  28.169   1.194
65245W        W33474  13.753  27.459   1.783
65246W        W33475  23.624   2.257   0.820
65247W        W33476   5.114  13.742   3.426
65248W        W33477  22.208   5.637  14.388
65249W        W33478  19.574  42.138   2.637
65250W        W33479  12.013  34.665  11.136
65251W        W33480  14.837   8.719  13.357
65252W        W33481  31.015  44.427  12.057
65253W        W33482  14.778   8.617   0.900
65254W        W33483  37.576  25.679  12.994
65255W        W33484   5.827  39.134  13.487
65256W        W33485  13.294  27.971  14.087
65257W        W33486  27.966   2.461  13.913
65258W        W33487   2.767  28.018  10.598
65259W        W33488  17.787  13.171  12.381
65260W        W33489  36.392  24.664  12.524
65261W        W33490  36.034  25.066  14.499
65262W        W33491  26.981   8.901   0.813
65263W        W33492  24.368  38.353   2.805
65264W        W33493  23.052  23.777  11.550
65265W        W33494  38.810  16.336   1.604
65266W        W33495  27.990  24.532  14.986
65267W        W33496   9.153  15.369  10.748
65268W        W33497  18.790  36.609  12.024
65269W        W33498  37.383   4.395  11.247
65270W        W33499  32.408  14.261   0.249
65271W        W33500  40.993  19.670  10.565
65272W        W33501  31.913   4.586  13.467
65273W        W33502  30.935  15.278  12.033
65274W        W33503  38.344  39.991  13.521
65275W        W33504  15.227  43.538   1.762
65276W        W33505  24.697  15.656  10.327
65277W        W33506  11.347  18.310   0.804
65278W        W33507  33.022  35.879  12.880
65279W        W33508  30.190  34.200  13.597
65280W        W33509  12.092  37.595  11.249
65281W        W33510  21.049  13.692   0.245
65282W        W33511  34.001  33.064  11.895
65283W        W33512   1.245   4.218   2.646
65284W        W33513  19.870  35.558   1.226
65285W        W33514  35.255  23.181  12.853
65286W        W33515  11.387  39.551   2.351
65287W        W33516  27.494  29.003  14.198
65288W        W33517  30.077   1.493  12.924
65289W        W33518  18.845   5.468  12.113
65290W        W33519  11.347  15.121   0.406
65291W        W33520  25.561   3.715  11.918
65292W        W33521  38.805   5.580   2.882
65293W        W33522  44.571   4.775  10.186
65294W        W33523  43.236  21.662   2.195
65295W        W33524  16.073  29.346  13.469
65296W        W33525  22.849   9.459   1.811
65297W        W33526   2.445  27.834  12.845
65298W        W33527  26.291  38.352  14.047
65299W        W33528  28.402  15.281   2.080
65300W        W33529  18.258  41.680  13.337
65301W        W33530   8.876   8.230  12.945
65302W        W33531  44.300  32.047   0.635
65303W        W33532  29.628  18.945  10.847
65304W        W33533  19.123   8.201  12.638
65305W        W33534  32.911  16.231  12.825
65306W        W33535  16.819  43.376  10.988
65307W        W33536  13.707  24.920  14.392
65308W        W33537   9.496  23.857   0.075
65309W        W33538  35.932   6.407   3.206
65310W        W33539  41.353   3.271   1.898
65311W        W33540  38.939   6.727  14.360
65312W        W33541  23.489  15.759   4.608
65313W        W33542  28.396  11.142  13.904
65314W        W33543  14.800  39.409  12.634
65315W        W33544   3.259   0.025   3.643
65316W        W33545  29.853  44.536  14.403
65317W        W33546  25.642  14.690   0.361
65318W        W33547  23.041  40.306  14.776
65319W        W33548  16.083  21.994   2.096
65320W        W33549  18.511   0.072   1.431
65321W        W33550  42.080  10.354  14.552
65322W        W33551  17.349   0.522   0.174
65323W        W33552  28.524   6.417  14.259
65324W        W33553   9.907  32.564   2.269
65325W        W33554   8.389  32.141   1.890
65326W        W33555  40.144   6.720   3.313
65327W        W33556  25.134  42.552   3.699
65328W        W33557  44.266  34.407   2.703
65329W        W33558  16.272  27.090  10.626
65330W        W33559  26.075  32.868   3.635
65331W        W33560  41.492   6.614  12.091
65332W        W33561  26.011  15.839   5.085
65333W        W33562  30.530  12.255   2.692
65334W        W33563  32.519   1.251  11.609
65335W        W33564  15.880  13.934  14.394
65336W        W33565   2.264  26.494   2.300
65337W        W33566  37.567   6.224   3.645
65338W        W33567  14.071  40.511  11.155
65339W        W33568  23.944  32.971   4.819
65340W        W33569  12.440  18.183  14.494
65341W        W33570  40.938  14.162   4.935
65342W        W33571  30.259  24.503   4.189
65343W        W33572   0.869  42.903  14.991
65344W        W33573  39.593  17.310   0.821
65345W        W33574  33.608  26.729  14.906
65346W        W33575  29.625  15.124  14.459
65347W        W33576  10.213   0.628   2.429
65348W        W33577  28.176  17.505   0.066
65349W        W33578  16.450   5.400  14.744
65350W        W33579  29.447  30.940  11.143
65351W        W33580  36.599  14.747  14.093
65352W        W33581  40.325  42.356   3.747
65353W        W33582  39.448  39.330   4.765
65354W        W33583  39.922  18.206   0.396
65355W        W33584  44.980   6.354  10.685
65356W        W33585   0.713  26.638   3.474
65357W        W33586  33.347  23.435   0.438
65358W        W33587  40.208  34.798   5.006
65359W        W33588  42.465   9.171   2.751
65360W        W33589  35.671  41.106   3.788
65361W        W33590  34.169  16.324   3.707
65362W        W33591  28.929  20.251  13.615
65363W        W33592  31.539  17.570  12.933
65364W        W33593  30.014  22.983   3.225
65365W        W33594  35.232   9.581  11.948
65366W        W33595  43.367   7.249  14.882
65367W        W33596  11.763  37.034   0.686
65368W        W33597  14.822  19.638  14.507
65369W        W33598  32.211  28.497  11.932
65370W        W33599  39.661  31.094   1.850
65371W        W33600  35.331  24.283   4.387
65372W        W33601  42.459   7.649   3.680
65373W        W33602  40.913  41.969   2.715
65374W        W33603   5.157  35.643   1.168
65375W        W33604  24.064  33.881   2.745
65376W        W33605  38.038  18.555  11.244
65377W        W33606  41.378  41.893  12.882
65378W        W33607  14.789  16.574   2.871
65379W        W33608  42.227  14.356  11.252
65380W        W33609   1.426  22.662  14.522
65381W        W33610  34.916  27.018   2.191
65382W        W33611  12.063   6.809  13.901
65383W        W33612  44.205   8.825   2.760
65384W        W33613  13.579  30.170   0.355
65385W        W33614  15.761  22.662  13.819
65386W        W33615   3.214  27.192   2.548
65387W        W33616  35.664   3.078   1.887
65388W        W33617  25.676  31.935  10.909
65389W        W33618  23.854   5.270   0.676
65390W        W33619  32.290  44.041   2.507
65391W        W33620   6.257  28.382  12.037
65392W        W33621   8.430  19.935   2.258
65393W        W33622  36.993  34.286  11.570
65394W        W33623   7.781  34.338   0.493
65395W        W33624  36.821  37.886   1.913
65396W        W33625  37.901  37.066   1.192
65397W        W33626   9.866  14.847   4.209
65398W        W33627  26.255   7.957   5.060
65399W        W33628  31.912  18.458   3.325
65400W        W33629  25.628  28.694   2.557
65401W        W33630   0.806  12.341   0.293
65402W        W33631  17.795   9.189  10.676
65403W        W33632  16.055  38.485  13.038
65404W        W33633  25.962  40.986  14.366
65405W        W33634  39.092  42.968   1.249
65406W        W33635  38.531  37.992  14.877
65407W        W33636  12.680  39.837  11.908
65408W        W33637  14.079  15.630  13.095
65409W        W33638   7.365  41.744  11.347
65410W        W33639   0.498  25.171   4.499
65411W        W33640  37.137  31.810   2.306
65412W        W33641   4.881   5.275   2.199
65413W        W33642  31.068  18.550  12.388
65414W        W33643  15.166   1.676   3.235
65415W        W33644  29.372  41.013  10.733
65416W        W33645  10.368  37.017   3.380
65417W        W33646  10.863   2.760  11.638
65418W        W33647  14.125   0.900  13.750
65419W        W33648  42.693  19.794   4.770
65420W        W33649   3.734  16.131   0.659
65421W        W33650  36.048  33.338   2.146
65422W        W33651  12.666  20.791   2.578
65423W        W33652  39.828  41.140  11.551
65424W        W33653  24.089   7.433  13.109
65425W        W33654  26.018  10.048  10.690
65426W        W33655  30.217  19.170  11.716
65427W        W33656  35.872   5.977  12.978
65428W        W33657  44.966  23.831  12.482
65429W        W33658  24.822  15.720  14.685
65430W        W33659   9.283  11.441   4.240
65431W        W33660   4.972   8.774  11.212
65432W        W33661  18.739  19.784  11.123
65433W        W33662   9.041  40.486   4.178
65434W        W33663   7.120  20.311   3.392
65435W        W33664   7.415   9.635  11.585
65436W        W33665  27.949  38.512  12.444
65437W        W33666  32.324  21.767   3.357
65438W        W33667  32.494  40.190  10.547
65439W        W33668  42.001   7.644  10.834
65440W        W33669  15.306  22.451  13.997
65441W        W33670  30.831  25.621   0.349
65442W        W33671  41.304  14.160  12.921
65443W        W33672  41.753  18.497   1.448
65444W        W33673   3.911  12.862  13.022
65445W        W33674   5.345  29.152   1.110
65446W        W33675  40.541  41.278  14.044
65447W        W33676  36.389  24.806  11.698
65448W        W33677  15.452  36.164   3.302
65449W        W33678   9.741   6.672  11.939
65450W        W33679  12.716  43.033   1.842
65451W        W33680  19.603  24.112   1.247
65452W        W33681  36.044  10.293   3.888
65453W        W33682  17.225  25.731   0.280
65454W        W33683   7.379  36.481   3.800
65455W        W33684  17.042  34.140  10.622
65456W        W33685   5.968  26.811  10.448
65457W        W33686  19.898   0.418   3.985
65458W        W33687  20.014  35.420   3.108
65459W        W33688  25.456  41.333   4.867
65460W        W33689  34.137  10.354   1.380
65461W        W33690  21.648  13.603   2.801
65462W        W33691  26.528   3.924  10.619
65463W        W33692  43.300  34.254  10.595
65464W        W33693  39.997  33.094   0.216
65465W        W33694   1.896  21.071   1.199
65466W        W33695   0.329   7.164  12.501
65467W        W33696  35.809   9.781  10.535
65468W        W33697  41.563  25.549  12.654
65469W        W33698  41.415  44.833   1.397
65470W        W33699  26.527  22.766   1.891
65471W        W33700  39.792  29.632  13.439
65472W        W33701  18.296   6.219   1.262
65473W        W33702  18.540  44.338  13.426
65474W        W33703  19.033   2.383  11.960
65475W        W33704  39.205  21.270  10.660
65476W        W33705  20.540  30.549   0.401
65477W        W33706  35.970   6.832   1.242
65478W        W33707  15.624  36.762  12.455
65479W        W33708  41.297  23.961   0.832
65480W        W33709  27.051  39.591   3.822
65481W        W33710   8.118  20.919   0.860
65482W        W33711  28.988   6.788   4.263
65483W        W33712  19.717  15.686  13.823
65484W        W33713   5.691  22.680  14.254
65485W        W33714  28.010  16.390  10.270
65486W        W33715  24.725   1.265  12.586
65487W        W33716  35.637  31.672   4.105
65488W        W33717  19.263  30.609   1.871
65489W        W33718  43.092  16.655   0.418
65490W        W33719  41.142  44.804  13.473
65491W        W33720  26.479  18.778   4.795
65492W        W33721  26.585  32.385   2.303
65493W        W33722  26.156  17.821   4.175
65494W        W33723  37.727   1.854  12.956
65495W        W33724  21.643  34.993   4.635
65496W        W33725  33.559   0.750   3.394
65497W        W33726  19.505  16.844   2.221
65498W        W33727  31.484  38.357   3.167
65499W        W33728  27.890   2.797  14.297
65500W        W33729  22.162  24.906  11.959
65501W        W33730  12.379  26.487  12.507
65502W        W33731  14.632  25.747   2.707
65503W        W33732  36.584  42.318  13.381
65504W        W33733   3.150   3.674   2.122
65505W        W33734  22.346  24.932   0.342
65506W        W33735   9.974  26.504  14.863
65507W        W33736   3.787  21.237  11.382
65508W        W33737  36.163  33.015   3.179
65509W        W33738  21.101  15.888  13.918
65510W        W33739  33.972  37.760   0.902
65511W        W33740   2.413   5.833   3.803
65512W        W33741  33.032  13.811   0.456
65513W        W33742   1.415   5.952  12.860
65514W        W33743  37.055   5.048   5.374
65515W        W33744   2.329  33.987  14.434
65516W        W33745  33.435  35.889  13.583
65517W        W33746  43.247  29.615   2.769
65518W        W33747  38.391  22.945   3.648
65519W        W33748  19.094   5.151  12.535
65520W        W33749  20.604  10.512   0.984
65521W        W33750  30.978   5.667  12.127
65522W        W33751  17.170  39.468  12.071
65523W        W33752   4.778  13.232  13.828
65524W        W33753  37.466  40.282  11.640
65525W        W33754   0.441   8.815   2.202
65526W        W33755  36.084   0.687  11.662
65527W        W33756  38.861  21.563  12.001
65528W        W33757  32.631   7.400  14.453
65529W        W33758  35.888  38.515   0.527
65530W        W33759  21.793  17.316   4.953
65531W        W33760   4.532  13.314  10.823
65532W        W33761   4.923  11.347  11.125
65533W        W33762  33.507  20.777   4.812
65534W        W33763  36.365  28.171  12.078
65535W        W33764  43.552  36.123  11.647
65536W        W33765   9.340  28.948  14.082
65537W        W33766  16.184  36.847   2.043
65538W        W33767   7.646   2.361  11.889
65539W        W33768  35.933  11.964  11.760
65540W        W33769   9.222   4.882   2.522
65541W        W33770  16.731  22.068   5.433
65542W        W33771  39.122  42.240  12.917
65543W        W33772  18.692  32.952  14.893
65544W        W33773   6.031  22.767   1.956
65545W        W33774   1.980  35.516   3.784
65546W        W33775  43.500  16.347  13.946
65547W        W33776  37.595   7.874  12.420
65548W        W33777  19.537  25.757   4.167
65549W        W33778   1.784   6.193   0.032
65550W        W33779   5.803  24.036  10.561
65551W        W33780  29.036   6.896  14.835
65552W        W33781  34.831   7.428  14.810
65553W        W33782  36.414  27.980   4.099
65554W        W33783  11.404  13.723   2.795
65555W        W33784  28.391  41.817  13.421
65556W        W33785   4.448  41.443  12.050
65557W        W33786  44.258  32.498  13.815
65558W        W33787  17.250   0.550  10.760
65559W        W33788   3.047  19.247  12.126
65560W        W33789  34.056  14.295  12.329
65561W        W33790  23.032  26.683   2.159
65562W        W33791  44.702  26.066   1.495
65563W        W33792  12.450  39.684  11.471
65564W        W33793   1.946  32.807  11.724
65565W        W33794  24.034  29.526   2.641
65566W        W33795  37.845  40.762  12.143
65567W        W33796  12.081   1.204  12.323
65568W        W33797  25.976  24.950  12.998
65569W        W33798  17.145  10.732   1.191
65570W        W33799  10.174  40.709  13.693
65571W        W33800  43.309   2.426  10.576
65572W        W33801  35.446   1.995  14.889
65573W        W33802  19.998  36.992   4.100
65574W        W33803  27.682  29.923   2.796
65575W        W33804  20.460  38.424  14.817
65576W        W33805  22.564  36.558   1.966
65577W        W33806  14.802  35.193   1.702
65578W        W33807  40.542   0.834  13.976
65579W        W33808  21.852   1.799  13.391
65580W        W33809   1.914   7.722   0.831
65581W        W33810   6.645  41.153  14.570
65582W        W33811  42.495  16.185   0.676
65583W        W33812   6.656  42.419   4.571
65584W        W33813  30.923  15.258  13.547
65585W        W33814  17.992   6.404  13.518
65586W        W33815  12.883  12.181  10.704
65587W        W33816  22.650  12.664   2.938
65588W        W33817   0.736  42.849  14.090
65589W        W33818  21.156  15.776  11.661
65590W        W33819  11.791  41.512   3.674
65591W        W33820  24.456  44.678   5.062
65592W        W33821  24.515  12.307   0.062
65593W        W33822  23.348  28.239  14.803
65594W        W33823  22.837   3.836  11.987
65595W        W33824  41.473  13.443  13.422
65596W        W33825  42.656   1.844   3.651
65597W        W33826  24.283  42.830   3.279
65598W        W33827   6.756  28.604   0.944
65599W        W33828  39.879   9.293   1.362
65600W        W33829  18.387  38.810  13.127
65601W        W33830  15.588  30.962  14.999
65602W        W33831  35.248  12.048   4.144
65603W        W33832   8.125   5.088   4.210
65604W        W33833  42.718  25.578   3.226
65605W        W33834  34.615  15.513  14.871
65606W        W33835  32.818  34.144   1.446
65607W        W33836  11.142  43.892   1.278
65608W        W33837  37.574  14.800   2.158
65609W        W33838  41.820  13.685  10.388
65610W        W33839  23.727  10.834   0.327
65611W        W33840   6.438  44.864  13.115
65612W        W33841  12.273  39.315  10.522
65613W        W33842  15.689  25.238  10.887
65614W        W33843   0.925  12.586   0.729
65615W        W33844  12.367   7.807  13.606
65616W        W33845  28.672  32.640   0.438
65617W        W33846  25.923  37.559   3.019
65618W        W33847   1.557  21.203   4.591
65619W        W33848  19.378  35.913   2.873
65620W        W33849  20.745   6.223   3.815
65621W        W33850   0.053   4.267   0.625
65622W        W33851  29.857   6.949   3.173
65623W        W33852   6.519  29.966   3.255
65624W        W33853  24.416  42.533   1.518
65625W        W33854  25.584   8.667  13.998
65626W        W33855  36.104   8.119   2.440
65627W        W33856   5.879  25.178  13.869
65628W        W33857   8.140  10.263   1.397
65629W        W33858  27.473  15.680   4.174
65630W        W33859  25.004   1.414   3.869
65631W        W33860   8.878  43.642  13.924
65632W        W33861  25.735  26.211  13.628
65633W        W33862  40.603  12.798   4.627
65634W        W33863  14.049  23.737   2.804
65635W        W33864  10.404   8.983  13.757
65636W        W33865  35.346   4.864   2.751
65637W        W33866  25.834  33.767   4.848
65638W        W33867  19.234  31.421  13.500
65639W        W33868  44.331   5.411  13.878
65640W        W33869  31.923  33.763  13.852
65641W        W33870   3.865   6.868   0.885
65642W        W33871   0.472  18.090   0.287
65643W        W33872  28.891   5.810   1.949
65644W        W33873  25.874  23.516   5.135
65645W        W33874   8.902  16.559   0.497
65646W        W33875   7.246  17.925  11.611
65647W        W33876  13.785  28.597  10.730
65648W        W33877  37.488   0.987  14.039
65649W        W33878  18.971  14.285   0.700
65650W        W33879  21.272  39.340   4.341
65651W        W33880  35.321   8.800  12.903
65652W        W33881  28.231   0.892   4.574
65653W        W33882  20.671   6.297  13.598
65654W        W33883  20.075   4.421  13.940
65655W        W33884  25.230  26.681  11.894
65656W        W33885  26.230  35.402  10.967
65657W        W33886  25.546  24.551  12.033
65658W        W33887  38.949  37.231  14.789
65659W        W33888  10.727  43.200  10.935
65660W        W33889  20.676  15.664  10.547
65661W        W33890   3.130   5.199  10.312
65662W        W33891   0.763  14.656   1.942
65663W        W33892  20.909  42.462   1.717
65664W        W33893  40.836  28.477   2.679
65665W        W33894  13.649  27.184   3.029
65666W        W33895   4.471  25.536  11.719
65667W        W33896  39.384   0.812   2.625
65668W        W33897  19.492  34.650   1.191
65669W        W33898  22.455  26.588  14.758
65670W        W33899   4.765  11.117  14.830
65671W        W33900  20.765  40.636   4.153
65672W        W33901   4.229   8.263  11.207
65673W        W33902   2.195  24.552  11.939
65674W        W33903  12.163   5.474   2.751
65675W        W33904  33.648  21.571  12.333
65676W        W33905  43.816  39.821  13.311
65677W        W33906  21.029  14.643  14.309
65678W        W33907  34.123   8.901   1.272
65679W        W33908   7.260  18.265  14.804
65680W        W33909   4.670  40.315   0.160
65681W        W33910  13.868  19.501   3.098
65682W        W33911  29.394  38.937  12.099
65683W        W33912  41.421  28.489  12.455
65684W        W33913  39.414   7.841  11.637
65685W        W33914  42.368  37.925  12.624
65686W        W33915  41.927   4.413  10.648
65687W        W33916  19.850   1.939  14.851
65688W        W33917  37.459   1.010   0.774
65689W        W33918  29.074  43.779   1.205
65690W        W33919  18.725   6.208   3.542
65691W        W33920  25.197  37.031  14.409
65692W        W33921   5.936  33.883  12.547
65693W        W33922  20.064   5.268  11.024
65694W        W33923  13.181  31.541  14.134
65695W        W33924   4.981   2.751  14.791
65696W        W33925   5.341  20.481  13.855
65697W        W33926  35.908   6.394  11.530
65698W        W33927  12.848  43.069  14.978
65699W        W33928  38.323  12.558  13.642
65700W        W33929  39.603  13.684  14.266
65701W        W33930   0.953  37.722  13.409
65702W        W33931  30.197  27.226  12.026
65703W        W33932  20.222   0.472   0.358
65704W        W33933  18.392  14.914  11.982
65705W        W33934   0.363  28.215  10.618
65706W        W33935   7.849  33.415  11.693
65707W        W33936  43.497  31.224   4.070
65708W        W33937   2.186  22.266   0.454
65709W        W33938   8.745  34.088  10.946
65710W        W33939   0.037  37.615  13.380
65711W        W33940  33.651  42.756  11.633
65712W        W33941  37.501  25.049   0.152
65713W        W33942  11.197   5.881  10.755
65714W        W33943  42.083  13.884  14.912
65715W        W33944   2.634  26.583  14.102
65716W        W33945  37.010  12.090   0.052
65717W        W33946  17.702  32.033  14.309
65718W        W33947  31.352  31.499  13.043
65719W        W33948  39.951  10.669   1.646
65720W        W33949  21.019   3.482  11.102
65721W        W33950   2.492  35.480   2.794
65722W        W33951   2.953  34.957   0.261
65723W        W33952  27.380   1.442  11.747
65724W        W33953   3.465  24.464  12.815
65725W        W33954  38.805  39.237   5.079
65726W        W33955  25.558  21.500  11.674
65727W        W33956  35.490   4.154   4.084
65728W        W33957  14.810  20.264   1.844
65729W        W33958  42.582   9.160   0.797
65730W        W33959  44.242  16.773  13.271
65731W        W33960  35.131  28.201   1.349
65732W        W33961  17.571   2.794  13.384
65733W        W33962  15.674  27.553  14.630
65734W        W33963  20.544  10.830   1.381
65735W        W33964  23.206  15.299   2.344
65736W        W33965  37.233   8.767   4.511
65737W        W33966   3.281   7.230  10.634
65738W        W33967  25.764  28.221   2.763
65739W        W33968   2.879  15.900  11.114
65740W        W33969  36.041  33.623   1.127
65741W        W33970  43.907  25.288   3.170
65742W        W33971  21.774  15.145   2.975
65743W        W33972  26.143  35.325  14.816
65744W        W33973   0.551  30.028   2.322
65745W        W33974  23.524  20.479   3.211
65746W        W33975  22.050  10.934   1.365
65747W        W33976  11.636  22.151  11.193
65748W        W33977  18.233   7.999   0.847
65749W        W33978  13.578   1.805   4.554
65750W        W33979  26.685   6.411  12.033
65751W        W33980  35.757  22.682  13.374
65752W        W33981   0.084  18.283  13.009
65753W        W33982  29.631  22.667   2.356
65754W        W33983   8.589  17.202  14.770
65755W        W33984   5.818  33.490   2.312
65756W        W33985   1.499  27.696   2.388
65757W        W33986  27.034   8.026   4.022
65758W        W33987  22.449   5.407  13.072
65759W        W33988  43.847  44.760  13.087
65760W        W33989  23.097   4.872   4.546
65761W        W33990  28.063  39.476  14.791
65762W        W33991  15.230  30.891  12.968
65763W        W33992  11.591  26.802   2.693
65764W        W33993   7.027   8.190   4.777
65765W        W33994  11.458  16.680  12.375
65766W        W33995   7.749   7.075  11.186
65767W        W33996  35.120   8.856   3.249
65768W        W33997   0.565  12.829   0.263
65769W        W33998  20.266  24.202  10.896
65770W        W33999  37.759  15.707   3.139
65771W        W34000  24.766  33.245  12.488
65772W        W34001  34.570  32.009  13.531
65773W        W34002  44.400  11.062  11.173
65774W        W34003  44.397   3.538  14.032
65775W        W34004  32.844  20.565   1.801
65776W        W34005  27.471  35.412   4.642
65777W        W34006  22.158  29.069   3.757
65778W        W34007  44.370  26.522   4.515
65779W        W34008  35.877  42.572   1.164
65780W        W34009  30.913  17.028   3.611
65781W        W34010  16.358  22.170  11.462
65782W        W34011   9.186  31.991   3.203
65783W        W34012  41.233   6.477  12.560
65784W        W34013  11.281  13.307  11.499
65785W        W34014  41.609  29.422  10.271
65786W        W34015  39.942  21.966   1.910
65787W        W34016  10.634   6.536  14.362
65788W        W34017   2.680  26.975  12.029
65789W        W34018  12.616   8.111   2.091
65790W        W34019  25.931   7.162   2.254
65791W        W34020   2.537  14.417  10.325
65792W        W34021  34.490  15.297   3.357
65793W        W34022  27.865  29.019   0.497
65794W        W34023   6.221  38.829   3.249
65795W        W34024  36.435   1.496  12.514
65796W        W34025  44.944  27.021   0.544
65797W        W34026  15.808  35.580   4.632
65798W        W34027  39.362  44.831  14.298
65799W        W34028   0.903   7.822   0.935
65800W        W34029   9.155  33.513   3.646
65801W        W34030  19.952  30.661  13.426
65802W        W34031  17.556  20.066  14.100
65803W        W34032  23.467  19.254   2.360
65804W        W34033  36.980  21.999  14.547
65805W        W34034  12.422  10.946   2.140
65806W        W34035   9.771   3.335  10.490
65807W        W34036  24.465  27.029  13.049
65808W        W34037  25.589  13.112   3.658
65809W        W34038  44.203   3.232   4.323
65810W        W34039  27.336  28.118   0.318
65811W        W34040   9.745   0.653  14.533
65812W        W34041  26.893  16.714   4.688
65813W        W34042  39.523  38.997  13.461
65814W        W34043  43.555  23.143  11.906
65815W        W34044  31.423  24.688  11.117
65816W        W34045  13.964  32.906  13.926
65817W        W34046  35.388  17.861   3.998
65818W        W34047  38.872   9.399  14.976
65819W        W34048  40.999  19.235  14.177
65820W        W34049  11.902   6.238  11.892
65821W        W34050  34.382  24.145   4.509
65822W        W34051  16.163  28.402  14.457
65823W        W34052  35.545  23.645   4.184
65824W        W34053  42.022  44.530   2.823
65825W        W34054  41.828  22.203  11.164
65826W        W34055   0.717  21.092  11.558
65827W        W34056  16.498  21.007   4.560
65828W        W34057  22.527  15.594  11.640
65829W        W34058   9.610  34.154  10.496
65830W        W34059  12.309  27.415   3.427
65831W        W34060  39.028  29.516   1.141
65832W        W34061  11.037  18.597   2.792
65833W        W34062  41.534  32.245   9.750
65834W        W34063  34.698   8.278   2.730
65835W        W34064  44.513   3.418   0.006
65836W        W34065  19.944  35.867  14.797
65837W        W34066   7.992  24.987   0.882
65838W        W34067  25.649  29.499  12.483
65839W        W34068  34.935  17.099   3.334
65840W        W34069  29.784   4.373  11.637
65841W        W34070  43.736  20.830  11.092
65842W        W34071   0.673  33.251   3.694
65843W        W34072  34.401  15.041  14.949
65844W        W34073  24.440  15.979   3.764
65845W        W34074   6.322   5.726   2.385
65846W        W34075  39.751  12.345   3.788
65847W        W34076   7.020  31.817  14.835
65848W        W34077  44.479   4.854   3.286
65849W        W34078  32.460   5.120   2.944
65850W        W34079  33.454  23.136  10.695
65851W        W34080  43.300  42.416  11.800
65852W        W34081   5.450  28.969   2.384
65853W        W34082  32.839  30.676  13.325
65854W        W34083  42.918   5.284   2.625
65855W        W34084   8.377  33.180  10.597
65856W        W34085   7.246   7.310   4.616
65857W        W34086  20.351  40.852  11.207
65858W        W34087  31.301  30.060   3.392
65859W        W34088  39.832  27.339   3.870
65860W        W34089  36.550   3.815  14.347
65861W        W34090  38.118  13.283  12.430
65862W        W34091  36.790  42.602   3.429
65863W        W34092  11.564  14.481   3.689
65864W        W34093  26.543  32.096  12.087
65865W        W34094  44.339   1.368  11.628
65866W        W34095  18.287  34.164   2.429
65867W        W34096   9.256  31.974  14.391
65868W        W34097  23.927   3.224   4.035
65869W        W34098  23.513   1.997   1.286
65870W        W34099  31.080  28.995  10.510
65871W        W34100  27.294   4.391   2.892
65872W        W34101   2.385  27.610  11.137
65873W        W34102  22.897  22.035   4.612
65874W        W34103  34.857  24.129   2.723
65875W        W34104   7.621  40.839   1.207
65876W        W34105  14.424  25.958   1.869
65877W        W34106  29.670  17.302   3.580
65878W        W34107  10.305  36.086  12.159
65879W        W34108  22.938   5.647   4.115
65880W        W34109   2.758  33.775   4.115
65881W        W34110   2.716  35.941  13.320
65882W        W34111   5.501  42.370   3.768
65883W        W34112  23.934  22.509   0.990
65884W        W34113  19.454  18.612   0.868
65885W        W34114  41.875  19.549  11.975
65886W        W34115  23.075  39.109  10.408
65887W        W34116  27.938   2.707  13.472
65888W        W34117  11.329   9.422   4.567
65889W        W34118  22.121  16.869   1.262
65890W        W34119  27.984  44.009   3.348
65891W        W34120  13.304  12.464  14.317
65892W        W34121  10.697   7.617  12.991
65893W        W34122  31.931  43.137   4.612
65894W        W34123  29.937  17.809   4.771
65895W        W34124  19.146   3.192  14.422
65896W        W34125  14.803  21.668  10.463
65897W        W34126  41.434   3.391  13.623
65898W        W34127   2.149  17.139  10.746
65899W        W34128  41.076  24.298  13.095
65900W        W34129  41.858  41.486   1.380
65901W        W34130  22.958  15.277  11.522
65902W        W34131  34.778   4.548   5.024
65903W        W34132  43.941   5.854   1.875
65904W        W34133  19.372  18.612  12.922
65905W        W34134  42.257  28.636   2.269
65906W        W34135   7.604  19.654  12.898
65907W        W34136   8.424  20.978  13.417
65908W        W34137  32.778  32.424  10.787
65909W        W34138  32.530  11.136   3.317
65910W        W34139  33.935  39.548   1.932
65911W        W34140  31.342  30.127  11.190
65912W        W34141   4.201  34.015   4.141
65913W        W34142  31.176  23.232  13.929
65914W        W34143  37.978  38.993   2.390
65915W        W34144   9.279  36.879   0.723
65916W        W34145   1.842  23.696   3.814
65917W        W34146   4.987  31.963  13.356
65918W        W34147  15.677   6.348   2.820
65919W        W34148   4.759  36.792  11.063
65920W        W34149  25.218  43.907   2.870
65921W        W34150   2.374   4.206  11.631
65922W        W34151  10.625  38.097  14.881
65923W        W34152  30.508  41.346   4.407
65924W        W34153  40.058   9.159   1.851
65925W        W34154  33.340  15.176   1.347
65926W        W34155   1.324  13.695   4.585
65927W        W34156  32.398  20.038   2.949
65928W        W34157  13.148   8.378   4.433
65929W        W34158  44.001   0.020   4.042
65930W        W34159  13.730   3.762   1.260
65931W        W34160  27.664  30.237  11.887
65932W        W34161  33.969   5.257   1.230
65933W        W34162  41.758   9.614   4.685
65934W        W34163   2.960  40.916  12.644
65935W        W34164   4.709  35.859  11.076
65936W        W34165  40.344  18.332   2.962
65937W        W34166  43.998  32.013  13.431
65938W        W34167  14.719  29.501  12.141
65939W        W34168  23.685  17.963  12.114
65940W        W34169  33.136  26.398  12.455
65941W        W34170   8.571  44.464  13.653
65942W        W34171   3.426  32.862  10.024
65943W        W34172   6.699  20.935  10.768
65944W        W34173  11.808  26.053  14.432
65945W        W34174   8.327  21.783  10.356
65946W        W34175  30.040  18.158  11.543
65947W        W34176  22.463   2.427   4.290
65948W        W34177  40.901   4.138  10.635
65949W        W34178   1.092   3.722  14.394
65950W        W34179  27.587  35.651   3.316
65951W        W34180   2.449  19.798  10.213
65952W        W34181  41.681  11.396   3.757
65953W        W34182   7.258  36.594   2.936
65954W        W34183  37.428  43.257   1.496
65955W        W34184  36.485  27.213   3.036
65956W        W34185   8.772  20.038  14.425
65957W        W34186  16.152  21.411  13.682
65958W        W34187  42.148   8.760   2.820
65959W        W34188  29.989  38.782  10.456
65960W        W34189  40.514  29.432  12.693
65961W        W34190  30.606  26.121  12.624
65962W        W34191  38.544  42.428  13.949
65963W        W34192  16.241  33.536  12.831
65964W        W34193  37.588  32.920  11.613
65965W        W34194  32.072  26.948  13.769
65966W        W34195   8.002   4.813   2.405
65967W        W34196   7.699  23.697   0.201
65968W        W34197  18.885  18.819  12.911
65969W        W34198  17.744  20.483  13.887
65970W        W34199   6.165   3.378  14.462
65971W        W34200  10.865  16.291  11.289
65972W        W34201  31.163   6.485   0.903
65973W        W34202  37.336  41.284  10.685
65974W        W34203  33.096  33.976   4.746
65975W        W34204  34.583  36.822  12.620
65976W        W34205  15.608  24.116  11.195
65977W        W34206  29.254   0.969   4.582
65978W        W34207  20.567  22.953   0.759
65979W        W34208   3.908   3.382   1.469
65980W        W34209   1.196  25.631  13.072
65981W        W34210   7.250  18.011   3.913
65982W        W34211   7.451   6.955  13.025
65983W        W34212  23.886  15.555   1.013
65984W        W34213   9.891  40.048   4.975
65985W        W34214   9.717  33.846   3.202
65986W        W34215  13.132   0.328  10.086
65987W        W34216  44.320   6.750  13.372
65988W        W34217  21.341   1.331   0.432
65989W        W34218  39.531   0.968   4.050
65990W        W34219  23.532  31.608  12.624
65991W        W34220  26.901  16.176   4.530
65992W        W34221  37.413  14.679   3.112
65993W        W34222  13.527  32.401   4.433
65994W        W34223  26.682  15.881  10.408
65995W        W34224  42.949  40.802  11.963
65996W        W34225  27.209  12.889   0.907
65997W        W34226  17.760  29.542  14.264
65998W        W34227  26.169  37.054   0.867
65999W        W34228   8.321   7.634   4.963
66000W        W34229  36.456  18.209   4.336
66001W        W34230  44.757  30.153   0.953
66002W        W34231  31.504   9.385  14.682
66003W        W34232   5.381  30.384   3.292
66004W        W34233  12.113  27.109   3.816
66005W        W34234  13.660  30.161  14.416
66006W        W34235   9.370  37.137  10.948
66007W        W34236  23.652  10.936   2.830
66008W        W34237   8.363  28.541  10.676
66009W        W34238  24.066  38.289   0.689
66010W        W34239  14.223   8.094  10.890
66011W        W34240  22.441  28.382   3.593
66012W        W34241   4.701  16.781   4.539
66013W        W34242  25.404  42.308  13.985
66014W        W34243  13.336  26.130   4.590
66015W        W34244  34.405   3.447   0.112
66016W        W34245  35.039  32.860   4.353
66017W        W34246  30.536   1.784   1.410
66018W        W34247  33.577  16.703  10.892
66019W        W34248  37.253  25.486   0.789
66020W        W34249  11.921   5.332   1.816
66021W        W34250  24.924  28.495   3.150
66022W        W34251  36.689  16.354  11.160
66023W        W34252  34.550   7.271   1.723
66024W        W34253  11.232  22.016   1.531
66025W        W34254  41.864  15.116   1.894
66026W        W34255  21.484  13.712   4.082
66027W        W34256   9.370  12.875  12.811
66028W        W34257   0.378  32.198   3.641
66029W        W34258  22.614   2.168  14.000
66030W        W34259  26.164  38.005   3.133
66031W        W34260  30.613  40.550  14.298
66032W        W34261  25.078  20.426   0.581
66033W        W34262  12.786  29.062  11.056
66034W        W34263  15.036  43.038   1.318
66035W        W34264  10.076  23.209  11.369
66036W        W34265  25.549  19.375  14.811
66037W        W34266  16.586  43.752  11.818
66038W        W34267  24.697  28.734   0.270
66039W        W34268  14.239  25.927   3.001
66040W        W34269   9.548  21.251  11.153
66041W        W34270  43.268  39.895  14.760
66042W        W34271  15.749   7.360   2.269
66043W        W34272  16.498   0.996   0.831
66044W        W34273  32.088  19.309   2.860
66045W        W34274  23.579  11.087  13.502
66046W        W34275  42.249  29.087   0.906
66047W        W34276  34.032  35.345   0.763
66048W        W34277   3.984  36.447   0.847
66049W        W34278  25.973  41.526  14.433
66050W        W34279   6.993  37.080   5.106
66051W        W34280  17.067   1.378   0.303
66052W        W34281   0.876  17.512   4.709
66053W        W34282  32.134  29.545  10.703
66054W        W34283  34.619   9.710  14.352
66055W        W34284  32.886   1.346   5.016
66056W        W34285  20.355  40.684  10.353
66057W        W34286  22.114  38.915   2.800
66058W        W34287   0.785  27.503  11.644
66059W        W34288  27.540  10.239   4.416
66060W        W34289  15.254   5.273  14.910
66061W        W34290   6.951   5.185   0.698
66062W        W34291  25.652  34.921  13.945
66063W        W34292   0.902   7.814   1.992
66064W        W34293   3.879  18.203  10.774
66065W        W34294   5.980  32.970   2.262
66066W        W34295  11.585  39.523   0.052
66067W        W34296  20.913  29.163   4.270
66068W        W34297  29.935  16.126   4.009
66069W        W34298   4.383  26.613  12.649
66070W        W34299  34.937  34.115   1.373
66071W        W34300  20.310  37.769   2.335
66072W        W34301  17.542  24.778  14.308
66073W        W34302  19.787   6.532  12.034
66074W        W34303  41.267  29.098   1.005
66075W        W34304  32.840  17.589  11.184
66076W        W34305  12.707  33.567   1.164
66077W        W34306  13.391   1.456   0.316
66078W        W34307  33.068  13.659  13.580
66079W        W34308  41.908  21.407   4.030
66080W        W34309  19.689  14.333   3.450
66081W        W34310  34.853   7.198  10.778
66082W        W34311   8.376  22.400   0.911
66083W        W34312  14.785  44.954   3.767
66084W        W34313   3.409  25.217   0.058
66085W        W34314  37.473  15.368  11.489
66086W        W34315  20.498  22.623   1.314
66087W        W34316  16.323  34.747  12.555
66088W        W34317  16.274  16.273   5.400
66089W        W34318  42.735  40.832   0.905
66090W        W34319   6.255  11.239  10.720
66091W        W34320  14.316  35.664  14.414
66092W        W34321   9.155  30.242   2.816
66093W        W34322  15.616  15.619  11.664
66094W        W34323  16.887  44.985   1.782
66095W        W34324   5.294  40.845   3.567
66096W        W34325   2.497  38.970  14.438
66097W        W34326   5.311  28.920   3.741
66098W        W34327  20.929  24.496  10.564
66099W        W34328  23.209   5.864  11.183
66100W        W34329  29.718  40.390   1.040
66101W        W34330   2.525  35.985   3.991
66102W        W34331  24.478  23.918   2.562
66103W        W34332  36.341  34.126  12.005
66104W        W34333  40.736  33.871  14.958
66105W        W34334  17.257   3.565   2.568
66106W        W34335   1.553  26.454  14.960
66107W        W34336  41.787  29.994  14.098
66108W        W34337  18.444  28.833  11.817
66109W        W34338  26.013  25.053   1.103
66110W        W34339  27.995   8.765   1.758
66111W        W34340  31.825  14.726   1.934
66112W        W34341  12.935  19.990  11.238
66113W        W34342  19.361  17.850  14.924
66114W        W34343   9.165  32.051   0.116
66115W        W34344  22.307  38.321  14.529
66116W        W34345  12.945   0.342  13.844
66117W        W34346  31.211   5.881   4.288
66118W        W34347  27.928  19.036   1.432
66119W        W34348  10.648  32.478  13.360
66120W        W34349  35.438  15.125   0.426
66121W        W34350  27.484   0.451  13.466
66122W        W34351   9.366   0.912  12.514
66123W        W34352  29.455   1.821  12.369
66124W        W34353  36.791  14.239   1.870
66125W        W34354  32.614   0.923   4.841
66126W        W34355  16.487  22.778   3.257
66127W        W34356  13.635  23.123  12.950
66128W        W34357  23.616  15.767   1.657
66129W        W34358  22.651   5.640   3.660
66130W        W34359  34.098  37.328  11.926
66131W        W34360  28.525  19.035  12.435
66132W        W34361  39.653   0.577   3.720
66133W        W34362  19.001  17.115   9.937
66134W        W34363  29.023  19.135  14.067
66135W        W34364  13.666  39.515  10.918
66136W        W34365  38.949   8.387  12.507
66137W        W34366   1.951  41.955   1.344
66138W        W34367  16.138  32.144   5.364
66139W        W34368  39.940  35.436   4.213
66140W        W34369  20.199   2.267  11.293
66141W        W34370   7.077   9.744  12.399
66142W        W34371  34.991  34.083   2.315
66143W        W34372  14.933  18.118   9.818
66144W        W34373  12.647  26.620   4.937
66145W        W34374  37.771  20.567  12.886
66146W        W34375  42.267   4.290  13.766
66147W        W34376  36.594  43.922  13.465
66148W        W34377   5.140  36.953  14.884
66149W        W34378  13.370  27.569  11.557
66150W        W34379  34.234  22.267  14.387
66151W        W34380  42.744  29.138  13.491
66152W        W34381   2.043  29.121  11.604
66153W        W34382   7.988  38.105  14.879
66154W        W34383  22.079  26.671   0.710
66155W        W34384  34.910  43.946   1.954
66156W        W34385  26.038  42.851  12.563
66157W        W34386  28.926  22.448  12.529
66158W        W34387  35.351  11.271  13.396
66159W        W34388  21.547  34.236  11.686
66160W        W34389   4.765  43.869  11.828
66161W        W34390  14.555   6.267  13.320
66162W        W34391  18.870  11.699   4.168
66163W        W34392   6.369  32.481  12.376
66164W        W34393  18.650  23.652  13.014
66165W        W34394  31.171  14.433  14.715
66166W        W34395   9.843  33.157  10.597
66167W        W34396  35.362   7.052  12.551
66168W        W34397  19.040  16.175  14.148
66169W        W34398   2.152  17.790   3.208
66170W        W34399   7.652  10.654  13.986
66171W        W34400  40.921  11.589  13.295
66172W        W34401  38.749  23.087   4.320
66173W        W34402  34.927  19.610  12.563
66174W        W34403  14.650  26.029  11.509
66175W        W34404  26.436   3.000   3.810
66176W        W34405  29.587  21.445  12.056
66177W        W34406  20.649  36.589  13.149
66178W        W34407  10.157  23.592  14.100
66179W        W34408   4.130  10.871  10.621
66180W        W34409  36.273  10.059  11.485
66181W        W34410  18.375   6.807   3.684
66182W        W34411   1.186  33.260   3.338
66183W        W34412   0.623  14.778   4.864
66184W        W34413  15.092  34.934   3.803
66185W        W34414   8.816  43.219  12.623
66186W        W34415  34.438  36.384  10.735
66187W        W34416  23.645  11.809  11.177
66188W        W34417   5.983  32.045  14.284
66189W        W34418  22.962  18.045   4.132
66190W        W34419  41.471   8.658   3.217
66191W        W34420  12.445  17.857  13.278
66192W        W34421  20.462   1.895   1.275
66193W        W34422   2.805  11.622   2.465
66194W        W34423  20.504  22.112  14.984
66195W        W34424  42.897   1.784   3.204
66196W        W34425  32.794  18.351  12.140
66197W        W34426  37.913  44.962  12.813
66198W        W34427  42.575  28.587   0.728
66199W        W34428  15.841   8.461   3.634
66200W        W34429  25.185  43.683  11.723
66201W        W34430  37.156  41.687   0.490
66202W        W34431  24.076   1.848   4.240
66203W        W34432  25.061   5.481   2.169
66204W        W34433  16.579  17.069   3.463
66205W        W34434  28.682   7.447  11.246
66206W        W34435  25.913  10.609  13.382
66207W        W34436  41.623  19.676   3.211
66208W        W34437  39.445  44.731  11.079
66209W        W34438  44.238  11.732  13.222
66210W        W34439  41.392  11.486  11.192
66211W        W34440   8.229  36.425   1.031
66212W        W34441  14.648  33.174  13.377
66213W        W34442  32.902   4.866   3.698
66214W        W34443   8.252  30.967  11.390
66215W        W34444   2.462  12.375  12.892
66216W        W34445   3.276  27.732   2.626
66217W        W34446  25.058  42.418  11.142
66218W        W34447  16.213  20.658  11.260
66219W        W34448  32.677  14.824  10.674
66220W        W34449  43.472  41.473  12.494
66221W        W34450  11.707  32.637   4.562
66222W        W34451  27.175   8.112   3.312
66223W        W34452   4.944  22.949  13.751
66224W        W34453  18.388  40.306   1.231
66225W        W34454  44.032  27.628  12.091
66226W        W34455  13.851   7.031   2.979
66227W        W34456  29.887   2.921  11.567
66228W        W34457  37.055  37.711  12.404
66229W        W34458  39.905   6.322   0.706
66230W        W34459  11.913  13.498   4.194
66231W        W34460  43.760   7.898  11.512
66232W        W34461  23.618  14.286   2.356
66233W        W34462   4.754  29.969  10.705
66234W        W34463   8.312  39.984  13.114
66235W        W34464  13.689  12.610  10.227
66236W        W34465   9.251   8.310   2.301
66237W        W34466  30.696  12.284   1.242
66238W        W34467  32.268  39.081  13.583
66239W        W34468  11.745  29.238   3.284
66240W        W34469   6.512  15.604  10.578
66241W        W34470  34.428  30.567   0.691
66242W        W34471   7.405  44.149   0.074
66243W        W34472  19.107   3.905   2.076
66244W        W34473  34.331   4.290   2.143
66245W        W34474   0.343   1.497   0.943
66246W        W34475   0.549  37.835   3.706
66247W        W34476  28.085  20.055   1.456
66248W        W34477  37.183  15.065   3.610
66249W        W34478   9.742  29.887   0.934
66250W        W34479   2.368  32.507   3.960
66251W        W34480  25.465   6.136   4.987
66252W        W34481  21.523   3.416  11.092
66253W        W34482  37.017  33.915  13.794
66254W        W34483  17.761  27.889   2.304
66255W        W34484  14.653  42.536  12.084
66256W        W34485  33.862  36.071  10.250
66257W        W34486  25.705  29.108   5.166
66258W        W34487  14.501  26.979   3.442
66259W        W34488  31.164  40.311   1.242
66260W        W34489  23.136  38.093  12.791
66261W        W34490  13.197  14.499  13.160
66262W        W34491  25.123  31.072  12.224
66263W        W34492  35.317  18.311   1.329
66264W        W34493  17.205  36.404  13.606
66265W        W34494  44.124  21.631  11.888
66266W        W34495   5.758  33.141   4.517
66267W        W34496   5.848  38.620  14.545
66268W        W34497  20.372  40.951   0.014
66269W        W34498   3.541  26.549   3.394
66270W        W34499  23.104  15.628  12.958
66271W        W34500   0.854  35.830  11.109
66272W        W34501  34.647  44.341   4.066
66273W        W34502  33.622  20.514   1.500
66274W        W34503  37.432  41.882  14.783
66275W        W34504   0.378  15.209   4.704
66276W        W34505  31.910  35.212  10.963
66277W        W34506  19.588  33.274  13.601
66278W        W34507  43.425  14.039  13.028
66279W        W34508   4.172  40.907  13.968
66280W        W34509  38.249  19.647  12.849
66281W        W34510  25.128  24.794  13.161
66282W        W34511  40.777  16.714   0.857
66283W        W34512  34.137  36.570  12.534
66284W        W34513  29.712  30.764   3.197
66285W        W34514  17.057  22.127  10.184
66286W        W34515  30.059  14.730   3.736
66287W        W34516   8.490  13.214  14.208
66288W        W34517   6.182  32.928   2.769
66289W        W34518   9.237  22.545   0.980
66290W        W34519   5.124  38.471  10.789
66291W        W34520  29.993   8.837   1.783
66292W        W34521  44.689  26.031  13.977
66293W        W34522  35.898   4.074  11.013
66294W        W34523  21.614  23.915  14.268
66295W        W34524  11.359  21.511   0.271
66296W        W34525   5.776  34.988   0.392
66297W        W34526   1.335  18.366   2.155
66298W        W34527   6.813  33.217  12.067
66299W        W34528  44.458   1.711   0.953
66300W        W34529  17.582  21.609  13.467
66301W        W34530  24.036  15.230   0.237
66302W        W34531  27.197   0.460   3.656
66303W        W34532  23.462  23.525   1.938
66304W        W34533  43.047  17.551   0.947
66305W        W34534  25.885  32.612   4.160
66306W        W34535   5.097  34.776  11.117
66307W        W34536  13.871  41.104  14.737
66308W        W34537   6.299   8.431  14.876
66309W        W34538  13.631  24.453  13.473
66310W        W34539   7.718  29.112  12.225
66311W        W34540  17.369  35.497   3.831
66312W        W34541   3.403  16.393   4.211
66313W        W34542  44.001  17.615   1.225
66314W        W34543  34.449   8.464  12.826
66315W        W34544  24.898  29.021  10.596
66316W        W34545  28.620  18.252   4.656
66317W        W34546   6.263  23.198   0.358
66318W        W34547   7.145  29.590  13.487
66319W        W34548  14.271  14.789  14.084
66320W        W34549  20.580  37.768   3.616
66321W        W34550  31.625  39.877   2.745
66322W        W34551   0.705   8.203  14.989
66323W        W34552  43.692  34.981  14.927
66324W        W34553  26.896   4.227   0.676
66325W        W34554  40.858  24.503   1.408
66326W        W34555   9.017  34.040   1.429
66327W        W34556  17.706  31.129  13.305
66328W        W34557  25.609  35.939   0.266
66329W        W34558  11.525  21.174   4.094
66330W        W34559  22.098  21.364   1.390
66331W        W34560  23.951  34.813   1.915
66332W        W34561  37.150   1.078   2.261
66333W        W34562  36.999  11.084  11.966
66334W        W34563   5.301  43.753   2.856
66335W        W34564  34.898  29.939   4.146
66336W        W34565  40.767  10.242   4.612
66337W        W34566   6.288  22.306   1.874
66338W        W34567  23.938  31.934  12.631
66339W        W34568  24.918   0.302   1.196
66340W        W34569  27.503  31.704  12.938
66341W        W34570  35.920  13.817  12.092
66342W        W34571  14.720  32.889   0.022
66343W        W34572   8.788  22.718   3.703
66344W        W34573  15.354  22.008   2.832
66345W        W34574  22.043  21.752   0.008
66346W        W34575  37.841  26.403   1.148
66347W        W34576  13.104  17.389   1.893
66348W        W34577  38.795   6.343  10.958
66349W        W34578   9.142  16.485  14.463
66350W        W34579  40.345  42.777   0.034
66351W        W34580  23.741   8.798  13.787
66352W        W34581   9.981   6.715   0.937
66353W        W34582  37.967  24.982  14.502
66354W        W34583  44.053   7.097  11.838
66355W        W34584  37.136  41.766  10.820
66356W        W34585  16.790  25.501   2.435
66357W        W34586  37.034  20.073   0.582
66358W        W34587  17.756  25.517   0.451
66359W        W34588  41.563  39.814   1.822
66360W        W34589  41.309  13.852  11.107
66361W        W34590  33.461   3.174  13.941
66362W        W34591   4.388  41.608  13.688
66363W        W34592  17.631  36.827   3.751
66364W        W34593  12.283   9.175   4.712
66365W        W34594  41.194  32.478  10.645
66366W        W34595  41.540   2.929  13.349
66367W        W34596   9.174  18.555   2.207
66368W        W34597  23.248  14.992   1.923
66369W        W34598   3.322  36.643   0.223
66370W        W34599  14.265   5.791   3.679
66371W        W34600  20.089  31.690   2.275
66372W        W34601  42.969  36.416   1.472
66373W        W34602  18.053  32.046  12.583
66374W        W34603   0.247  36.666  12.500
66375W        W34604  21.787  36.325   3.867
66376W        W34605  23.966  41.330   2.380
66377W        W34606  35.066  34.970  10.958
66378W        W34607  34.970  17.817  13.064
66379W        W34608  22.164  21.700   2.825
66380W        W34609  24.571  27.907  13.943
66381W        W34610  19.591  24.526  12.359
66382W        W34611  10.777  19.043   2.767
66383W        W34612  16.504  44.887   2.760
66384W        W34613  18.513  24.886  12.558
66385W        W34614  26.123  15.166   2.643
66386W        W34615   4.839  42.481   4.118
66387W        W34616   5.426  19.323   1.805
66388W        W34617   1.302   9.178   1.709
66389W        W34618  29.628  26.721   3.859
66390W        W34619  15.791  26.351   4.069
66391W        W34620  16.707  28.974   0.980
66392W        W34621  32.956  24.733  12.133
66393W        W34622  21.516  12.657   0.966
66394W        W34623   0.498  15.398  10.418
66395W        W34624   4.014  35.911   3.396
66396W        W34625  16.179   8.660   2.557
66397W        W34626  19.821  39.879   4.604
66398W        W34627  10.071  27.998   0.116
66399W        W34628  28.102  30.354  13.016
66400W        W34629  23.759   4.308   4.728
66401W        W34630  44.550  44.821  11.458
66402W        W34631  27.587  32.089  10.610
66403W        W34632  23.528  42.496   2.434
66404W        W34633   5.703   3.310   0.211
66405W        W34634  28.030  42.763  11.598
66406W        W34635   0.741  26.374   4.093
66407W        W34636  18.112  31.835   4.150
66408W        W34637  41.677  26.019   1.143
66409W        W34638  14.742  16.100  13.776
66410W        W34639  33.933  42.880  11.191
66411W        W34640  41.577   7.338  10.682
66412W        W34641  28.743  29.140  11.958
66413W        W34642  32.931  40.461  14.541
66414W        W34643  26.288  19.202   0.289
66415W        W34644  24.676   9.387  11.596
66416W        W34645   8.270  29.190   4.362
66417W        W34646  34.982   1.236  11.534
66418W        W34647  42.072  41.509   4.143
66419W        W34648  38.249   5.185  13.984
66420W        W34649   3.139  20.315   2.201
66421W        W34650  14.485  29.124  12.418
66422W        W34651  32.221  27.653   0.248
66423W        W34652  39.527  31.650   4.974
66424W        W34653   8.423  32.075   3.654
66425W        W34654  35.102   4.412   2.790
66426W        W34655  41.249   7.119  14.835
66427W        W34656  27.067  37.206   3.716
66428W        W34657  21.044  34.037   9.787
66429W        W34658  35.390  24.187  10.427
66430W        W34659   5.098  34.200  10.121
66431W        W34660  31.405  36.112   2.608
66432W        W34661  23.572  28.472  13.512
66433W        W34662  28.332  21.215  13.042
66434W        W34663  40.367  21.455   0.898
66435W        W34664  12.553  42.349  10.741
66436W        W34665   5.998   9.350  11.676
66437W        W34666  35.798   4.257   0.392
66438W        W34667  12.762  23.948  14.938
66439W        W34668  28.916  40.369   1.339
66440W        W34669  33.468  30.034   1.209
66441W        W34670  27.639  20.847   0.782
66442W        W34671  32.130  20.778  12.025
66443W        W34672   3.727  21.402  14.477
66444W        W34673  44.790   1.124  14.439
66445W        W34674  29.458  34.019   3.259
66446W        W34675  32.421  44.783   0.754
66447W        W34676  12.928   3.338   4.582
66448W        W34677   8.252  14.782  10.745
66449W        W34678  31.923  43.654   3.247
66450W        W34679  11.783   2.184   1.723
66451W        W34680  19.770  41.906  13.894
66452W        W34681  41.360  36.537   3.253
66453W        W34682  15.701   9.883   3.697
66454W        W34683   8.490  43.540  13.570
66455W        W34684  37.873   3.802   2.767
66456W        W34685  16.301  19.402   4.746
66457W        W34686  32.542  18.723   2.596
66458W        W34687  18.647  29.108   4.517
66459W        W34688  21.675  43.566  12.572
66460W        W34689   5.590  34.167   0.063
66461W        W34690  11.272  20.733   4.293
66462W        W34691  14.808  14.116   3.662
66463W        W34692  39.755  31.621   1.854
66464W        W34693  38.996  40.832   1.556
66465W        W34694   5.723  34.206  10.743
66466W        W34695  23.432  34.343  12.553
66467W        W34696  40.176  42.567  14.374
66468W        W34697  42.633  41.576  10.923
66469W        W34698  40.845  20.174  10.727
66470W        W34699   4.577  37.604   0.450
66471W        W34700  24.583  29.012   2.355
66472W        W34701  21.535  10.433   2.377
66473W        W34702  16.657   1.299  14.950
66474W        W34703   0.655  38.959   1.852
66475W        W34704  17.217  20.037  10.777
66476W        W34705  38.526  41.386  14.008
66477W        W34706  28.612   6.408  12.854
66478W        W34707   0.992  31.468   0.855
66479W        W34708   0.426  31.454  14.521
66480W        W34709   7.626  31.475   2.759
66481W        W34710  21.074  28.426   1.966
66482W        W34711   2.744   0.890   4.936
66483W        W34712  43.964   8.135   4.252
66484W        W34713   2.546   1.374  14.824
66485W        W34714  30.037  29.919  10.631
66486W        W34715  27.184  20.614   0.650
66487W        W34716  38.804  40.215  13.353
66488W        W34717  14.090  20.491   3.118
66489W        W34718  30.888  35.392   3.752
66490W        W34719  15.309  41.822  11.661
66491W        W34720  33.205   6.759   1.672
66492W        W34721  27.757  13.168   0.269
66493W        W34722  31.343  22.088   4.620
66494W        W34723   6.237  21.875  13.878
66495W        W34724  33.601   8.058  10.723
66496W        W34725  31.627  33.060   2.312
66497W        W34726  40.105  34.734   2.336
66498W        W34727  11.969  25.547   4.288
66499W        W34728   9.508  33.080  12.168
66500W        W34729  18.110  17.827  12.351
66501W        W34730   3.972   4.263  11.579
66502W        W34731   1.818   9.449   0.482
66503W        W34732  28.857   2.866  14.629
66504W        W34733  28.429  22.825  11.141
66505W        W34734  43.243  42.951   4.158
66506W        W34735  18.965  12.859  14.750
66507W        W34736   2.703   5.351   1.869
66508W        W34737   1.854  20.688   1.942
66509W        W34738   6.151  11.837  11.002
66510W        W34739  18.220  19.568   1.328
66511W        W34740  24.187  11.398   1.272
66512W        W34741   9.229  18.081  12.188
66513W        W34742  41.978  18.101  13.485
66514W        W34743  28.525  24.995   0.751
66515W        W34744  24.179   3.928   1.899
66516W        W34745  20.105   6.737   2.319
66517W        W34746   4.228   5.785   2.261
66518W        W34747  14.750  18.566   2.591
66519W        W34748   3.263  20.598   1.237
66520W        W34749   0.167  16.810   0.590
66521W        W34750  13.419  31.838   3.712
66522W        W34751  20.479   6.086  10.882
66523W        W34752  18.769   3.752   3.765
66524W        W34753  23.709   3.346   3.607
66525W        W34754  16.193  34.909  10.370
66526W        W34755  38.535  16.890   0.437
66527W        W34756  33.956  29.140   3.655
66528W        W34757  30.373  22.235  12.991
66529W        W34758  13.289  25.999   2.692
66530W        W34759  25.712  20.000   2.446
66531W        W34760  30.744   4.374  12.474
66532W        W34761  28.963  19.192  12.171
66533W        W34762  23.292  15.124  14.748
66534W        W34763  31.614  14.196  13.106
66535W        W34764  17.214  26.891   2.688
66536W        W34765  34.580   5.346   4.672
66537W        W34766   8.484  37.066  11.095
66538W        W34767  15.028   1.231   2.273
66539W        W34768  40.039  40.428   4.743
66540W        W34769   7.756  44.763   4.752
66541W        W34770  14.339  36.996  12.077
66542W        W34771  13.474  35.830  12.940
66543W        W34772  14.107   3.879  12.933
66544W        W34773  11.843  17.825  12.104
66545W        W34774  38.033  21.792  12.554
66546W        W34775   1.742  22.415  11.182
66547W        W34776   1.092   3.752   1.765
66548W        W34777  31.960  18.384  11.914
66549W        W34778  16.678  27.977   3.250
66550W        W34779   2.155  43.048  12.381
66551W        W34780  12.274  10.788  10.770
66552W        W34781  41.914  23.397   0.198
66553W        W34782   9.210   3.132   1.766
66554W        W34783  33.661  23.692  13.446
66555W        W34784  42.498  13.180  13.399
66556W        W34785  18.063  15.042  14.482
66557W        W34786  30.388  32.634   3.620
66558W        W34787  26.245  13.319   0.233
66559W        W34788   7.819  18.220   3.653
66560W        W34789  35.074   8.641  11.077
66561W        W34790  20.876  40.935  11.085
66562W        W34791  25.974  28.014   4.899
66563W        W34792  42.513   9.204   3.689
66564W        W34793  32.856   8.940  13.374
66565W        W34794  44.820  10.337   9.900
66566W        W34795  41.419  43.788   1.360
66567W        W34796  37.088  15.799  12.342
66568W        W34797  36.052  31.357  11.729
66569W        W34798   2.058   9.122  11.605
66570W        W34799  23.042  43.037  14.761
66571W        W34800   3.350  25.115   4.030
66572W        W34801  33.607   7.221   4.510
66573W        W34802  31.994  28.097  12.485
66574W        W34803   4.302  20.816   1.247
66575W        W34804  25.969   2.241  10.632
66576W        W34805  35.792  16.931   5.007
66577W        W34806  27.591   2.451   4.064
66578W        W34807  24.429  23.301   1.735
66579W        W34808  21.183  27.212  14.433
66580W        W34809  26.532  20.534  13.577
66581W        W34810   5.165  36.047   0.212
66582W        W34811  11.789  26.156   3.480
66583W        W34812  30.225  30.485   1.477
66584W        W34813  34.521  24.587   4.780
66585W        W34814  36.341  35.907   1.506
66586W        W34815   8.660   9.917  10.555
66587W        W34816  19.139   6.784  12.191
66588W        W34817  16.570  31.591  12.752
66589W        W34818  15.214  37.072   0.515
66590W        W34819  30.256  40.953  11.253
66591W        W34820  29.208  39.336  11.197
66592W        W34821  14.315  12.185   0.355
66593W        W34822  28.042  39.563  12.421
66594W        W34823   3.474   3.523   1.745
66595W        W34824  33.796  34.060  14.054
66596W        W34825  41.536  41.025  10.463
66597W        W34826  13.781  44.599  13.517
66598W        W34827  41.468  24.363   1.140
66599W        W34828  23.802  20.730  13.745
66600W        W34829  41.566  25.700  11.037
66601W        W34830  15.612   4.685  13.507
66602W        W34831  27.184  24.539  11.583
66603W        W34832  42.283  30.456  11.560
66604W        W34833   5.278  13.789   4.299
66605W        W34834  21.276  14.274   2.292
66606W        W34835  44.939   4.996  14.807
66607W        W34836   5.262  21.341   4.850
66608W        W34837  11.088  29.065  11.120
66609W        W34838  26.129   6.242   1.804
66610W        W34839  20.496  32.968   4.360
66611W        W34840  29.773  27.823  14.308
66612W        W34841  40.481  26.444  10.740
66613W        W34842  32.338  17.039   3.691
66614W        W34843   2.626  22.159  12.989
66615W        W34844  30.858   6.964  11.119
66616W        W34845  17.273  33.635  13.079
66617W        W34846  43.381  20.890   4.672
66618W        W34847  44.212   3.633   4.648
66619W        W34848  25.496  14.206   0.476
66620W        W34849   0.594  26.804   2.449
66621W        W34850  35.080  37.106  13.300
66622W        W34851   6.113  30.528   1.803
66623W        W34852  13.852  42.892  10.704
66624W        W34853  21.881  23.381   1.411
66625W        W34854  33.600  29.404  11.980
66626W        W34855  43.513   8.397   4.240
66627W        W34856  20.145  29.052   1.798
66628W        W34857   0.067  20.340   2.686
66629W        W34858   6.913  20.313   0.699
66630W        W34859  15.690  14.020   4.077
66631W        W34860  13.368  33.653  13.451
66632W        W34861   8.287  27.976  12.066
66633W        W34862  29.915  17.006   1.225
66634W        W34863  41.859  34.756  14.917
66635W        W34864  34.459  39.378   4.588
66636W        W34865  22.998   0.677  11.900
66637W        W34866  39.803   2.635   0.768
66638W        W34867  25.111  42.007   4.605
66639W        W34868  20.569  17.552   1.681
66640W        W34869  11.775  12.137   3.680
66641W        W34870  31.567  18.509   0.334
66642W        W34871  12.598  37.932   1.864
66643W        W34872  14.995  39.341  14.882
66644W        W34873  36.996   8.155   0.331
66645W        W34874  34.498  10.432   0.594
66646W        W34875   8.457  41.725   2.156
66647W        W34876  24.755  18.097  13.460
66648W        W34877  39.014  21.580   1.855
66649W        W34878  14.276  44.783   0.921
66650W        W34879  37.189  34.569  11.950
66651W        W34880   5.158   3.466  14.600
66652W        W34881  41.967  19.146  12.378
66653W        W34882  36.260  39.782  12.409
66654W        W34883  11.660   1.664   1.600
66655W        W34884  27.181  42.207  11.062
66656W        W34885   0.806  10.879  10.726
66657W        W34886  23.737  20.180  12.062
66658W        W34887  13.599  19.889  11.751
66659W        W34888  21.536   6.377  10.752
66660W        W34889  14.420   1.718  14.004
66661W        W34890   4.107  33.433   0.452
66662W        W34891  27.904  27.232  11.098
66663W        W34892   1.373  12.223   4.200
66664W        W34893   8.250   9.340   1.134
66665W        W34894   2.447  15.813   0.940
66666W        W34895   6.788  14.655  10.667
66667W        W34896  24.545  10.760  12.985
66668W        W34897  20.087  15.920   1.813
66669W        W34898  11.619  20.260  13.530
66670W        W34899  27.960  12.606  12.004
66671W        W34900  28.488  22.619   0.685
66672W        W34901  24.301  33.137   2.264
66673W        W34902  33.009   2.759   4.601
66674W        W34903  23.456  32.769  13.933
66675W        W34904  17.278  25.966  14.813
66676W        W34905  11.697  33.206   3.761
66677W        W34906  15.298  24.262   3.406
66678W        W34907  17.035  26.057   3.044
66679W        W34908  26.595  43.139   5.182
66680W        W34909  13.896  18.142   0.197
66681W        W34910  16.681  22.941   1.483
66682W        W34911  25.430  14.538   1.287
66683W        W34912  42.707  15.812  12.868
66684W        W34913  32.011  32.678  11.149
66685W        W34914  13.645  21.233  13.938
66686W        W34915  17.440  10.829   0.762
66687W        W34916  43.621  22.140  14.810
66688W        W34917  34.075  25.677  13.432
66689W        W34918  21.664  35.608  14.791
66690W        W34919  27.951  29.440  10.864
66691W        W34920  12.638  13.847   1.702
66692W        W34921  39.751  26.074   3.507
66693W        W34922  39.257   5.163  14.409
66694W        W34923  13.710  12.740   4.499
66695W        W34924  18.930   0.876   1.386
66696W        W34925  33.461  19.609  13.552
66697W        W34926  25.478  40.036  14.431
66698W        W34927  27.041  39.271  14.853
66699W        W34928   4.258   3.529   4.172
66700W        W34929  40.983  23.609  14.756
66701W        W34930  16.724  44.281   0.030
66702W        W34931  35.905  24.629  10.923
66703W        W34932   0.206   8.361   2.369
66704W        W34933  24.644  33.689  14.909
66705W        W34934  21.536  26.998   1.512
66706W        W34935  11.719  30.106   3.395
66707W        W34936  16.252  23.238   1.745
66708W        W34937  20.628  34.062   2.855
66709W        W34938  36.445   6.607   3.253
66710W        W34939  38.880   2.254   0.199
66711W        W34940  27.246  42.948  11.590
66712W        W34941  30.342  41.517  11.920
66713W        W34942   6.275  17.031   0.436
66714W        W34943  15.090  16.037  14.576
66715W        W34944  13.356  13.627  12.337
66716W        W34945  20.499  34.719   1.218
66717W        W34946  15.332  30.063  11.150
66718W        W34947  18.704   4.495   3.161
66719W        W34948  36.886  11.576  12.051
66720W        W34949   5.948  23.633   4.523
66721W        W34950  11.216  42.588   2.133
66722W        W34951  40.228  14.801   3.846
66723W        W34952  10.127  11.955   4.619
66724W        W34953   5.464  10.879  13.929
66725W        W34954   5.325  39.056   1.083
66726W        W34955  32.065  28.557  12.914
66727W        W34956  34.145   8.623  11.324
66728W        W34957   7.404   8.574  10.962
66729W        W34958   8.689  27.637  14.114
66730W        W34959  30.588  27.237   4.481
66731W        W34960  35.438   0.406   4.219
66732W        W34961  32.986  15.832   3.684
66733W        W34962   9.154  39.273   0.185
66734W        W34963  34.135  15.774  14.059
66735W        W34964  20.204  14.670  13.532
66736W        W34965  19.689  22.934  13.396
66737W        W34966  21.638  20.355   4.142
66738W        W34967  41.377  28.007  13.340
66739W        W34968  25.835  39.147   0.025
66740W        W34969   7.831  25.035   3.766
66741W        W34970  15.633  12.195  11.399
66742W        W34971  36.002  39.504  13.356
66743W        W34972  27.351  35.584   3.765
66744W        W34973  28.046  37.690   2.100
66745W        W34974  22.396  20.063   1.862
66746W        W34975  13.227  24.097  11.214
66747W        W34976  33.411  39.591  14.442
66748W        W34977   3.623  37.906  14.318
66749W        W34978  14.888  40.802  13.362
66750W        W34979   6.667  24.670  12.947
66751W        W34980  32.371  42.124   1.801
66752W        W34981  34.851  14.564   0.734
66753W        W34982  14.311  36.216   3.328
66754W        W34983  22.502  40.267  14.883
66755W        W34984  22.229  15.689   4.146
66756W        W34985  43.792  16.418   0.432
66757W        W34986  27.413  13.287  11.508
66758W        W34987   5.318  32.076  10.722
66759W        W34988  39.133  18.090  14.392
66760W        W34989   7.705  18.264  14.061
66761W        W34990  12.695  31.942   1.256
66762W        W34991  37.588  20.081   5.083
66763W        W34992   5.255  16.563  13.085
66764W        W34993  20.678  10.032   4.537
66765W        W34994  44.805  42.998   1.254
66766W        W34995  24.544   4.802   2.715
66767W        W34996  20.669   1.173   3.209
66768W        W34997  43.477  12.733  14.797
66769W        W34998   4.862   1.012  10.273
66770W        W34999  14.127  22.830   2.735
66771W        W35000  22.267  19.004   1.734
66772W        W35001  44.293  33.663  14.360
66773W        W35002  17.715  42.932  11.464
66774W        W35003  37.262  26.450   3.176
66775W        W35004   2.771  22.044  13.511
66776W        W35005  13.780  17.195  13.263
66777W        W35006  28.499  24.481   0.791
66778W        W35007  14.173  21.227  10.850
66779W        W35008  39.864  13.826   4.605
66780W        W35009   6.822  38.351  11.666
66781W        W35010  41.284  19.786  10.993
66782W        W35011  13.548   9.848   2.505
66783W        W35012  34.472  38.706   2.805
66784W        W35013  11.534   8.922  14.890
66785W        W35014  26.755  35.094  11.700
66786W        W35015  20.072  26.581   1.759
66787W        W35016  21.542   4.381   4.078
66788W        W35017  19.383  18.686  14.336
66789W        W35018   7.947  25.965   0.831
66790W        W35019  18.788  32.418   3.285
66791W        W35020  24.986   7.192  12.132
66792W        W35021  40.299  22.646   3.701
66793W        W35022  11.111  39.616   4.101
66794W        W35023  34.365  29.584   2.351
66795W        W35024  41.841  18.339   2.248
66796W        W35025  31.545  40.203   2.302
66797W        W35026  14.102  41.029   3.802
66798W        W35027   8.411  19.679   2.882
66799W        W35028  32.148  33.689   0.735
66800W        W35029   9.307  29.621  13.279
66801W        W35030  18.273  43.052   2.197
66802W        W35031  26.206  13.759   0.577
66803W        W35032  18.313  35.489   0.242
66804W        W35033  30.151  13.807   0.952
66805W        W35034   6.422  24.146  11.993
66806W        W35035   7.688   2.632  11.168
66807W        W35036  34.934  31.420  14.885
66808W        W35037  32.311   9.009   3.322
66809W        W35038  23.037  14.563  10.924
66810W        W35039  12.295   8.379   0.201
66811W        W35040  11.045  23.816  12.544
66812W        W35041  17.074  35.856   1.503
66813W        W35042   1.882  44.891  12.202
66814W        W35043  19.571  35.066  14.053
66815W        W35044  28.984  12.344   1.809
66816W        W35045   6.419  15.951   5.186
66817W        W35046  23.470  15.761   0.752
66818W        W35047  26.615  30.840   4.161
66819W        W35048   9.517   4.358  13.771
66820W        W35049  24.753   4.766  11.701
66821W        W35050   4.237   9.790  12.507
66822W        W35051   5.277   3.000  12.535
66823W        W35052  16.023  22.966  11.217
66824W        W35053  44.295  23.731  13.584
66825W        W35054   7.857  13.415  11.036
66826W        W35055  18.252  33.152  14.089
66827W        W35056   7.920   5.374  14.715
66828W        W35057  38.270   1.384   3.628
66829W        W35058   1.676  15.174   0.778
66830W        W35059   7.991  34.320   3.709
66831W        W35060  43.071  24.524   0.374
66832W        W35061   5.186   1.026   1.896
66833W        W35062  28.448   1.815   0.314
66834W        W35063  17.965   2.251  11.244
66835W        W35064  34.319  40.944  14.051
66836W        W35065  35.043  24.474   4.831
66837W        W35066  11.323  22.596   4.529
66838W        W35067  21.150  41.744   1.308
66839W        W35068  36.070  33.342  13.906
66840W        W35069   0.046  31.047   1.590
66841W        W35070  41.076  36.899  12.392
66842W        W35071  23.735  26.752   0.205
66843W        W35072  31.047   5.153   1.234
66844W        W35073   5.364  17.124   0.942
66845W        W35074   9.591   4.913   2.135
66846W        W35075  32.769  29.566  10.105
66847W        W35076  42.891  37.606  10.957
66848W        W35077  37.092  18.704  11.138
66849W        W35078  23.921  17.513  12.108
66850W        W35079  21.685   6.390  14.781
66851W        W35080  15.573  24.826   0.351
66852W        W35081   1.924  35.684  12.907
66853W        W35082   2.144  16.358   3.594
66854W        W35083  42.944  36.958   2.602
66855W        W35084  13.266  32.854  12.553
66856W        W35085  16.583  27.847   5.020
66857W        W35086  30.991   7.576   0.069
66858W        W35087  28.445  17.592  11.134
66859W        W35088   1.497  25.755  14.492
66860W        W35089  22.234   7.866   2.967
66861W        W35090  15.323  11.829   0.950
66862W        W35091  43.792  42.328  14.343
66863W        W35092   9.629   6.969  11.478
66864W        W35093  19.554  19.173  14.443
66865W        W35094   4.276  10.130  12.882
66866W        W35095  31.171  28.541   1.950
66867W        W35096  23.184  33.667   4.057
66868W        W35097  20.970  41.478  13.387
66869W        W35098  15.674   3.403  14.004
66870W        W35099  22.981  30.227   4.377
66871W        W35100  31.426  35.851  11.538
66872W        W35101   5.475  33.937  12.046
66873W        W35102  21.712  13.822  12.467
66874W        W35103  42.391  22.796   1.418
66875W        W35104   6.254  27.704   2.171
66876W        W35105   1.014  41.514  10.304
66877W        W35106  18.173  29.828  14.768
66878W        W35107  13.668  12.225   1.785
66879W        W35108  10.248  23.594   3.626
66880W        W35109  21.628  36.704   0.576
66881W        W35110  43.502   8.074  14.375
66882W        W35111  13.864  37.026   4.615
66883W        W35112   0.921   1.468  12.488
66884W        W35113  11.333  20.640   0.757
66885W        W35114  38.711  37.041   3.805
66886W        W35115  44.746  26.653   1.966
66887W        W35116  22.084  18.212  14.499
66888W        W35117  12.114   5.930  13.282
66889W        W35118  12.854  29.862   2.298
66890W        W35119  37.022   9.552   0.817
66891W        W35120   6.329  19.194   4.615
66892W        W35121  19.088   0.437   3.113
66893W        W35122  28.512  11.777  12.269
66894W        W35123   4.218  34.561   0.639
66895W        W35124  22.724  36.614   1.491
66896W        W35125  34.854  33.557   2.268
66897W        W35126  17.707  25.238   1.383
66898W        W35127  11.632  41.014  13.416
66899W        W35128  25.114  11.654  13.494
66900W        W35129  30.341  16.680   0.327
66901W        W35130  41.221   2.676   2.632
66902W        W35131  14.001  13.854   0.841
66903W        W35132  43.578   1.380   1.321
66904W        W35133   2.017  16.627   1.253
66905W        W35134  43.759  13.778   1.258
66906W        W35135  41.352  27.288  11.640
66907W        W35136  28.901  35.387   1.361
66908W        W35137  34.920  38.853   2.068
66909W        W35138  14.531  44.398  12.935
66910W        W35139  31.817  22.982   3.697
66911W        W35140  12.885  28.519   0.225
66912W        W35141  18.782  31.226  13.264
66913W        W35142  24.016   5.511   3.586
66914W        W35143  40.462   3.445  10.052
66915W        W35144   6.733   9.314   0.979
66916W        W35145  36.991  39.915  13.429
66917W        W35146  44.939   1.639   1.230
66918W        W35147  11.169  32.295  11.978
66919W        W35148  35.739  30.215   5.136
66920W        W35149   6.223   6.917  14.883
66921W        W35150  11.567  33.104  14.857
66922W        W35151  36.347   8.869  13.853
66923W        W35152  19.264   9.340   3.380
66924W        W35153  35.538  25.455   0.634
66925W        W35154  34.408  30.430  13.012
66926W        W35155  27.219  30.943   0.920
66927W        W35156  38.315  21.143   4.158
66928W        W35157  36.516  26.480  10.594
66929W        W35158  24.968  43.220   0.556
66930W        W35159   9.551  43.826   4.294
66931W        W35160  24.504  17.664  14.857
66932W        W35161  21.383   5.552  14.898
66933W        W35162   6.409  41.963  11.684
66934W        W35163  14.875  19.741   1.886
66935W        W35164  42.388  10.210   2.718
66936W        W35165  37.124  15.640  10.580
66937W        W35166  23.783  28.173  11.856
66938W        W35167   8.228  26.684  13.403
66939W        W35168  16.788  18.101  13.775
66940W        W35169   6.807  22.352  11.021
66941W        W35170   5.005  42.859   3.351
66942W        W35171  35.309  29.030  14.319
66943W        W35172  13.816  25.704  14.864
66944W        W35173   5.758  13.753   0.760
66945W        W35174   3.765  34.029  13.352
66946W        W35175   5.802  15.673   1.847
66947W        W35176   9.811  42.004  13.861
66948W        W35177   2.582  40.545  13.284
66949W        W35178  24.730  40.982   3.185
66950W        W35179   6.862  35.908   3.285
66951W        W35180  37.042  35.532   1.148
66952W        W35181  19.797  21.067   1.298
66953W        W35182  21.241  12.401   3.585
66954W        W35183  41.817  17.300  12.887
66955W        W35184  43.013  31.201   0.405
66956W        W35185  18.982  12.944  12.713
66957W        W35186  19.614  19.038  13.951
66958W        W35187  22.530  38.364   0.365
66959W        W35188  19.161   4.907  13.933
66960W        W35189   7.137  37.621  12.926
66961W        W35190  41.350  39.759   0.073
66962W        W35191   6.503  25.673  13.177
66963W        W35192  41.974  25.699   4.762
66964W        W35193  21.716  19.647  14.584
66965W        W35194  26.130  28.605   0.496
66966W        W35195  19.221   1.893  13.106
66967W        W35196  28.909  10.072  14.965
66968W        W35197  44.704   8.449   0.738
66969W        W35198  20.545  12.394   4.371
66970W        W35199   2.402  21.837   3.422
66971W        W35200  35.717  40.446  12.353
66972W        W35201  37.041  36.418  12.075
66973W        W35202   6.076   3.258   4.082
66974W        W35203   2.170  23.025  12.550
66975W        W35204  34.990   8.207   1.049
66976W        W35205  12.218  19.274  13.588
66977W        W35206  28.554   6.418  14.766
66978W        W35207  14.910  28.147  13.053
66979W        W35208  23.234  31.888  10.657
66980W        W35209  22.141   3.774  12.069
66981W        W35210  16.064  14.504  13.781
66982W        W35211  23.130  15.103  10.055
66983W        W35212   5.729  21.465  14.539
66984W        W35213  15.081  29.163  14.767
66985W        W35214  17.170  14.422   3.265
66986W        W35215   3.236  29.815   5.057
66987W        W35216   4.488  43.875   3.221
66988W        W35217  36.854  32.634   2.148
66989W        W35218  26.167   9.122  11.977
66990W        W35219   4.304   7.247   3.246
66991W        W35220  35.951  32.606  10.143
66992W        W35221  19.588  28.713  11.669
66993W        W35222   2.658  21.508  14.063
66994W        W35223  26.107  10.790   3.306
66995W        W35224  31.948  36.082  10.423
66996W        W35225  37.315   2.913   0.913
66997W        W35226   2.907  11.794  11.193
66998W        W35227  29.807  38.993   4.134
66999W        W35228   8.771  18.751   1.320
67000W        W35229   2.237  40.717   3.262
67001W        W35230  36.550   3.634   0.730
67002W        W35231  39.052  29.380   2.730
67003W        W35232  38.866  14.362   2.694
67004W        W35233  14.828  12.466  11.109
67005W        W35234  30.663   7.094  11.737
67006W        W35235  39.001  14.342   0.319
67007W        W35236  28.974  42.007  14.710
67008W        W35237  24.751  29.641  13.945
67009W        W35238  24.437  36.130  11.122
67010W        W35239  43.962  16.928   3.142
67011W        W35240  19.293  23.600  13.854
67012W        W35241  42.809  38.608   4.044
67013W        W35242  19.115  35.855   2.415
67014W        W35243  37.918  33.468   3.549
67015W        W35244  32.750  28.735  11.145
67016W        W35245   4.893  30.633  12.700
67017W        W35246  39.330   8.543   4.297
67018W        W35247  19.567  30.199  14.446
67019W        W35248  36.461   1.767   0.742
67020W        W35249  44.850  37.311  11.302
67021W        W35250  35.380   4.750  10.393
67022W        W35251   9.671   2.196   2.735
67023W        W35252   6.840  23.568  11.425
67024W        W35253  21.768  18.149   3.654
67025W        W35254  33.577  33.898  12.226
67026W        W35255  38.837   1.546   2.552
67027W        W35256  26.087  36.367  14.420
67028W        W35257  40.529  15.880   0.312
67029W        W35258  35.005  24.318  10.768
67030W        W35259  22.123  36.231  14.375
67031W        W35260  17.396  20.532   4.201
67032W        W35261  25.648  36.039  11.931
67033W        W35262   5.193  26.009  11.984
67034W        W35263  11.071  19.608  10.499
67035W        W35264  38.611   6.120   1.882
67036W        W35265  42.915  20.793   1.176
67037W        W35266  12.515  39.177   2.281
67038W        W35267  24.937  24.130   2.721
67039W        W35268  44.899   7.180  11.844
67040W        W35269  41.102  40.858   2.341
67041W        W35270  10.125  33.607  12.609
67042W        W35271   3.158  25.881   2.794
67043W        W35272  17.598  38.529  13.262
67044W        W35273   0.628  31.399  13.823
67045W        W35274  21.860  20.557   3.720
67046W        W35275   6.750  14.766   4.605
67047W        W35276  26.737  28.261  12.199
67048W        W35277  26.202   2.706   4.144
67049W        W35278  15.790  14.316   4.970
67050W        W35279   1.798   5.277  14.883
67051W        W35280  39.533  12.795  11.929
67052W        W35281  25.042  44.912  13.568
67053W        W35282  35.753  11.465   0.647
67054W        W35283  31.283  41.176  12.150
67055W        W35284   2.787  30.187  11.634
67056W        W35285  12.829   5.008  11.241
67057W        W35286  30.111   1.224   1.650
67058W        W35287   9.097  41.292   2.856
67059W        W35288  18.597  25.173   2.375
67060W        W35289  27.123   7.546  12.543
67061W        W35290  40.599  40.311   4.006
67062W        W35291  24.735  42.554   2.397
67063W        W35292  17.444  21.066  14.411
67064W        W35293  33.922  28.071   4.269
67065W        W35294  11.031   7.764  13.769
67066W        W35295  28.462  38.589   3.296
67067W        W35296  39.816  35.675  13.075
67068W        W35297  37.526  42.809   2.277
67069W        W35298   3.411  29.034   4.502
67070W        W35299  29.367   5.225  10.607
67071W        W35300  21.833  29.201  12.801
67072W        W35301  40.827  18.611  12.553
67073W        W35302  23.432  30.554   2.741
67074W        W35303   2.599  32.681   3.147
67075W        W35304  43.969   0.427   0.698
67076W        W35305   7.772  16.123   3.613
67077W        W35306  26.965   6.687  13.426
67078W        W35307  12.422  27.663   0.560
67079W        W35308  15.015  15.231  11.095
67080W        W35309  17.977  12.362   3.032
67081W        W35310  33.569  35.039  13.014
67082W        W35311   2.168  24.752   3.173
67083W        W35312   8.310  26.212   2.096
67084W        W35313  16.281  23.430  14.444
67085W        W35314   8.589  34.107   2.373
67086W        W35315  11.485  22.682  14.937
67087W        W35316  24.427  44.291   1.311
67088W        W35317  10.874  36.840   3.246
67089W        W35318  17.524  12.605   4.565
67090W        W35319  25.172  15.417   4.627
67091W        W35320  37.478  43.801   2.217
67092W        W35321  39.841  33.019  12.943
67093W        W35322   2.943  20.643  12.160
67094W        W35323  22.980   9.949   1.680
67095W        W35324   9.673   5.400  10.773
67096W        W35325  15.213  27.106   2.833
67097W        W35326  22.250  24.017   3.272
67098W        W35327  25.022   0.883   0.485
67099W        W35328   6.825  16.331   2.497
67100W        W35329  18.083  30.939  10.270
67101W        W35330  32.472  18.308  13.503
67102W        W35331  42.015   1.729  11.615
67103W        W35332   4.861  26.943   1.727
67104W        W35333  36.418  31.681   5.044
67105W        W35334  14.727  32.959   4.712
67106W        W35335  24.175  19.933   0.067
67107W        W35336  38.795   7.711   0.290
67108W        W35337  35.368  21.711   0.236
67109W        W35338  17.532  14.054   4.803
67110W        W35339  16.094  40.748  13.997
67111W        W35340  43.394  36.186   9.886
67112W        W35341  13.645  27.068   4.034
67113W        W35342  24.698  36.263   4.035
67114W        W35343   2.214  21.175   2.951
67115W        W35344  23.353  39.471  10.652
67116W        W35345  26.753  16.638   3.233
67117W        W35346   1.810  32.932   4.905
67118W        W35347  27.403  30.190   2.301
67119W        W35348  42.249  35.110  14.812
67120W        W35349  33.979  29.136  14.427
67121W        W35350  34.592  42.174  12.923
67122W        W35351  22.956  35.571   0.085
67123W        W35352  44.701   9.411   2.900
67124W        W35353  23.793  36.910   2.174
67125W        W35354  17.629  30.196   0.944
67126W        W35355   8.484  30.653  14.570
67127W        W35356  16.837   6.320   3.193
67128W        W35357  44.383  27.573   0.391
67129W        W35358  24.515  37.510   1.990
67130W        W35359  28.106  28.377   0.953
67131W        W35360  40.476  36.593   2.783
67132W        W35361  29.866  32.891  14.508
67133W        W35362  11.285   4.228  10.781
67134W        W35363  37.000   2.193  14.944
67135W        W35364  22.157   5.802  11.044
67136W        W35365  34.082  25.243   4.561
67137W        W35366  41.411  37.860  10.752
67138W        W35367  32.615  34.067   2.376
67139W        W35368  37.846  29.853  11.205
67140W        W35369  12.904  12.615   4.271
67141W        W35370   0.021  22.187  13.613
67142W        W35371   1.199  27.571   4.438
67143W        W35372  35.526  13.273  11.037
67144W        W35373   7.295  34.552   0.482
67145W        W35374  41.113   4.160   2.867
67146W        W35375  25.149  31.180   1.785
67147W        W35376  29.427  18.635   0.753
67148W        W35377  16.179  34.705  13.047
67149W        W35378  21.456   7.786   1.797
67150W        W35379   5.094  42.317   1.709
67151W        W35380  25.906  15.194  10.592
67152W        W35381  22.098  20.044  11.900
67153W        W35382  23.119  23.278  14.359
67154W        W35383   1.475  41.248   3.162
67155W        W35384   3.634  22.688  13.423
67156W        W35385   6.936  40.533   2.039
67157W        W35386  41.011  12.275  14.968
67158W        W35387  38.150  43.025  12.501
67159W        W35388  27.192  22.216  13.377
67160W        W35389   6.829  23.742   4.741
67161W        W35390   8.785  15.108   1.055
67162W        W35391  23.482  41.367   3.341
67163W        W35392   9.460  39.786  12.523
67164W        W35393  18.830  11.212   1.962
67165W        W35394   1.688  42.432  11.613
67166W        W35395  32.584  35.955  12.065
67167W        W35396  35.111  22.575   2.140
67168W        W35397  39.057  42.817  12.877
67169W        W35398   6.066  26.112   3.600
67170W        W35399  31.497  17.781  14.066
67171W        W35400   6.026   4.314   0.364
67172W        W35401  32.378  29.051   2.804
67173W        W35402  11.626  35.645  11.120
67174W        W35403  19.499   7.014   2.056
67175W        W35404  38.802  41.503  14.422
67176W        W35405   5.362  18.219  12.431
67177W        W35406  11.574   3.544   1.449
67178W        W35407  41.863  13.259   1.370
67179W        W35408  36.852  18.707  14.759
67180W        W35409  20.776  32.349  14.414
67181W        W35410   7.752  28.605  13.804
67182W        W35411   8.847  13.938  14.786
67183W        W35412  28.895  11.212  11.470
67184W        W35413  17.008  38.838  13.379
67185W        W35414  36.117  14.237  12.566
67186W        W35415  35.533   2.484  11.852
67187W        W35416  19.416  28.007  12.930
67188W        W35417  39.430  11.072   1.074
67189W        W35418   2.239  41.232   0.182
67190W        W35419  12.849   7.545  12.966
67191W        W35420  40.521  29.701  14.347
67192W        W35421  27.123  23.768  10.800
67193W        W35422  41.466  11.131   3.156
67194W        W35423  14.620   4.280  10.769
67195W        W35424  41.949  34.401   3.697
67196W        W35425   0.427  22.424  14.363
67197W        W35426  20.261  18.258   0.754
67198W        W35427  10.877  38.312   1.323
67199W        W35428   7.320   4.353  12.109
67200W        W35429  10.527  29.162   5.017
67201W        W35430  37.941  20.885   4.389
67202W        W35431  41.931  29.906  14.592
67203W        W35432  11.311  12.329   1.392
67204W        W35433  38.392  21.186   2.334
67205W        W35434  26.211   6.461  10.775
67206W        W35435   3.939  30.566  11.667
67207W        W35436   1.514  18.738   0.821
67208W        W35437   6.429  43.791  11.679
67209W        W35438  29.507  36.281   4.167
67210W        W35439  33.459  23.193   0.911
67211W        W35440  13.750  35.602   4.590
67212W        W35441   3.376  38.835   0.430
67213W        W35442  35.170  21.797   2.330
67214W        W35443   0.273  30.472   2.289
67215W        W35444  41.850  14.624   1.374
67216W        W35445  26.988  20.129   3.784
67217W        W35446  42.131  20.248   1.805
67218W        W35447  24.522  33.911  11.070
67219W        W35448   5.845  36.550  11.882
67220W        W35449  25.964   3.177   4.207
67221W        W35450   4.174  29.472  13.537
67222W        W35451  28.941   0.374   2.672
67223W        W35452  21.290  21.028  14.934
67224W        W35453  43.225  39.067   0.236
67225W        W35454  25.076  36.879   1.707
67226W        W35455  14.542  19.994   1.503
67227W        W35456  44.945  10.513  10.966
67228W        W35457   3.298  33.128  10.474
67229W        W35458   1.218   0.429   0.156
67230W        W35459  20.839  44.498  11.423
67231W        W35460  40.797  13.916   1.757
67232W        W35461  44.250  42.619   1.286
67233W        W35462  30.469  18.340  10.772
67234W        W35463  37.291  10.688   4.688
67235W        W35464  23.961   2.682   0.834
67236W        W35465  32.056  35.966   0.331
67237W        W35466  19.673  33.609   2.918
67238W        W35467  42.874  10.248   0.597
67239W        W35468   7.601  21.071   0.877
67240W        W35469  41.291  21.718   3.839
67241W        W35470  14.377  23.690   0.943
67242W        W35471  17.706  31.354   4.795
67243W        W35472   2.840  21.158   1.152
67244W        W35473  28.912  35.779  13.338
67245W        W35474  32.206  12.841  14.376
67246W        W35475  11.598  39.431   4.405
67247W        W35476  41.401  14.518  11.574
67248W        W35477  15.535  32.967   3.015
67249W        W35478  30.942   2.800   4.347
67250W        W35479  24.681  31.867  14.385
67251W        W35480   9.300   5.734   3.176
67252W        W35481  12.190   2.427   2.420
67253W        W35482  42.736   4.200  13.980
67254W        W35483  40.353  20.168  10.438
67255W        W35484   9.911  31.596  11.661
67256W        W35485  43.271   9.825  14.579
67257W        W35486  34.937  14.601  13.868
67258W        W35487  13.141  34.913   4.533
67259W        W35488   9.222  11.392   1.903
67260W        W35489  11.681  11.790  11.863
67261W        W35490  29.654   4.842   1.476
67262W        W35491  44.560  24.678  10.652
67263W        W35492   9.724   3.815  12.948
67264W        W35493  10.444  40.009   2.341
67265W        W35494   1.471   8.418  14.238
67266W        W35495   9.847   2.447   0.908
67267W        W35496   4.199  12.339  11.762
67268W        W35497  42.065  29.534   0.692
67269W        W35498  25.657  29.848  11.681
67270W        W35499  42.767   7.758  12.859
67271W        W35500   6.107   6.208   3.167
67272W        W35501  42.086  41.444  12.380
67273W        W35502  18.489  37.345   3.224
67274W        W35503  38.016  13.106  14.458
67275W        W35504   4.150   1.274  13.926
67276W        W35505  40.534  37.546   3.795
67277W        W35506   1.463   3.924   3.702
67278W        W35507  36.533  34.165  13.785
67279W        W35508  24.137  43.174  14.397
67280W        W35509   9.662  25.512   3.829
67281W        W35510  34.831  26.233  11.124
67282W        W35511  20.249  13.449  11.527
67283W        W35512  26.008  24.712   1.779
67284W        W35513   8.139   3.951   4.676
67285W        W35514  28.154  20.222   0.726
67286W        W35515  13.333  13.135   0.908
67287W        W35516  42.997  11.309   2.113
67288W        W35517  19.626  12.688   1.999
67289W        W35518  10.327  39.512   2.410
67290W        W35519   8.466  15.820  13.062
67291W        W35520  29.379  30.449  11.680
67292W        W35521  15.512  13.115   5.532
67293W        W35522  15.295  37.442   0.879
67294W        W35523  16.650  12.289   3.676
67295W        W35524   4.536  30.035   2.408
67296W        W35525  32.307   5.229   0.664
67297W        W35526   4.451  26.901  11.643
67298W        W35527  10.507  15.737   4.033
67299W        W35528   8.867  19.299  12.040
67300W        W35529  26.071  11.563   1.447
67301W        W35530  30.682  29.494  11.078
67302W        W35531  39.052  10.720   4.413
67303W        W35532  21.826  23.461  14.380
67304W        W35533  32.802  20.872   2.999
67305W        W35534  25.574  43.929  11.534
67306W        W35535  27.905  30.412   1.833
67307W        W35536  41.487  35.896  11.871
67308W        W35537  38.725  31.730   3.867
67309W        W35538  16.338  35.130  13.298
67310W        W35539  18.874  24.942  13.428
67311W        W35540   8.375  35.273   3.766
67312W        W35541  21.650  34.100   4.406
67313W        W35542  11.587  32.651  12.000
67314W        W35543  42.074  41.930   1.295
67315W        W35544  21.028  29.667   3.144
67316W        W35545  34.053  40.550   2.688
67317W        W35546  36.102   9.249  11.975
67318W        W35547  33.516  17.214  12.643
67319W        W35548  19.195  27.538  10.697
67320W        W35549  19.275  31.921   1.734
67321W        W35550  13.283  30.189   4.590
67322W        W35551  40.009   5.769  11.994
67323W        W35552  38.872  18.368   4.222
67324W        W35553  24.608   7.499  13.068
67325W        W35554   4.326  25.091  10.945
67326W        W35555  18.129  23.565  13.023
67327W        W35556  23.726  32.009  10.522
67328W        W35557  28.304  16.281  14.949
67329W        W35558   3.802   6.797   2.357
67330W        W35559  42.021   0.035   2.783
67331W        W35560  19.254  41.359  14.429
67332W        W35561  30.428  32.633   4.509
67333W        W35562  32.088  31.517   2.855
67334W        W35563  44.993  14.187   4.561
67335W        W35564  29.139  12.103  14.834
67336W        W35565  22.394  43.368  11.162
67337W        W35566  33.228  27.044   0.890
67338W        W35567  14.272   9.396  10.985
67339W        W35568   9.977  36.869   0.582
67340W        W35569  33.909  38.041  14.880
67341W        W35570   6.828  36.906   3.108
67342W        W35571   0.975  41.431   4.315
67343W        W35572  44.975  19.263  12.815
67344W        W35573  13.009  10.123   1.423
67345W        W35574  44.426  43.900   2.118
67346W        W35575  14.028   6.362  10.503
67347W        W35576   5.056   6.743  12.950
67348W        W35577  30.205   9.859   0.885
67349W        W35578  33.020  38.088  14.337
67350W        W35579  44.304   0.861  13.360
67351W        W35580  41.840  28.093   2.329
67352W        W35581  35.618  18.612   1.642
67353W        W35582  32.928  18.152  11.676
67354W        W35583  31.616  32.110  13.450
67355W        W35584   2.961  13.323   1.788
67356W        W35585   8.314  32.749  13.440
67357W        W35586   4.279  21.763  11.448
67358W        W35587  42.466  24.172  14.522
67359W        W35588  13.593   9.164   0.365
67360W        W35589   4.133   0.021  13.346
67361W        W35590  37.115   2.410  12.967
67362W        W35591  21.989  24.238  11.682
67363W        W35592  11.403  14.796  13.562
67364W        W35593  23.217  41.885   0.750
67365W        W35594  43.580  42.473   0.828
67366W        W35595   7.762  35.502   4.466
67367W        W35596  32.135  33.612  14.846
67368W        W35597  10.755  30.551  12.482
67369W        W35598  13.270  32.243   3.408
67370W        W35599  40.380  11.036   0.684
67371W        W35600  44.296  38.949   1.421
67372W        W35601  38.344  38.418  12.110
67373W        W35602  37.211   5.697  11.651
67374W        W35603  42.386  35.126  13.794
67375W        W35604  36.780  34.400  11.119
67376W        W35605  26.686  22.939  10.581
67377W        W35606  41.000  35.883   2.236
67378W        W35607   5.421  19.049  10.735
67379W        W35608  16.676  15.014  11.202
67380W        W35609   2.261  43.054  11.877
67381W        W35610  10.115  16.560  10.896
67382W        W35611   9.879  34.473  10.781
67383W        W35612  32.812  10.695   4.225
67384W        W35613   6.698  42.514   3.186
67385W        W35614   2.235  27.014   1.476
67386W        W35615   3.981  39.107  12.962
67387W        W35616  26.658  35.252   4.178
67388W        W35617  12.261  43.295   4.549
67389W        W35618  41.920  44.919  11.192
67390W        W35619  21.400  39.305  11.564
67391W        W35620   0.083  23.763   2.221
67392W        W35621  15.845   2.950  14.944
67393W        W35622  17.296   3.843  11.547
67394W        W35623  11.758  40.443   3.311
67395W        W35624   4.746  20.659   1.934
67396W        W35625  34.726  40.053   2.492
67397W        W35626  17.017  26.037  14.368
67398W        W35627   0.932  30.568  10.961
67399W        W35628  28.700  15.260  14.931
67400W        W35629  19.561  10.727  13.926
67401W        W35630  44.401  19.529   2.367
67402W        W35631  41.498   8.981   1.738
67403W        W35632  18.467  23.704   3.231
67404W        W35633  42.882  29.102   2.815
67405W        W35634   8.163  30.025   1.384
67406W        W35635  20.501  36.376  12.709
67407W        W35636  32.535  40.930   1.069
67408W        W35637   4.325  23.006  12.922
67409W        W35638  17.237  14.494   2.370
67410W        W35639  25.207  37.041  12.170
67411W        W35640   1.600  13.925  12.507
67412W        W35641  41.920  33.197   4.260
67413W        W35642  42.458  16.929   4.920
67414W        W35643  41.373  40.640   3.641
67415W        W35644  33.872   0.287  11.472
67416W        W35645  25.751  22.731  13.005
67417W        W35646   3.615  33.311   0.314
67418W        W35647  40.321  14.363  12.966
67419W        W35648  32.598  29.533   4.509
67420W        W35649  41.979  29.009   0.424
67421W        W35650   4.404  10.360   3.447
67422W        W35651  41.526   4.286   3.127
67423W        W35652   5.642  33.113   2.623
67424W        W35653  31.342  44.030  12.076
67425W        W35654   5.396  25.612  11.650
67426W        W35655   8.681  18.352   2.128
67427W        W35656   4.698  11.166  11.564
67428W        W35657  31.925  44.833  10.693
67429W        W35658   1.746   3.457  11.185
67430W        W35659  14.780  21.594   0.532
67431W        W35660  43.972  35.374  14.331
67432W        W35661  42.388  42.002   0.486
67433W        W35662  41.582  28.080   1.863
67434W        W35663  20.622  12.100  11.684
67435W        W35664   1.841  13.233  14.373
67436W        W35665  28.928  28.258   1.199
67437W        W35666   7.337  36.736  13.774
67438W        W35667  19.946  38.500  12.978
67439W        W35668  33.453   7.006   2.558
67440W        W35669  28.571  25.180   3.132
67441W        W35670  23.228  31.494  13.072
67442W        W35671  12.909   6.543  13.588
67443W        W35672  14.055   6.984   0.355
67444W        W35673  33.008  19.232  12.206
67445W        W35674   6.422  33.573   4.536
67446W        W35675  41.796  41.817   0.430
67447W        W35676  34.512  36.554   0.922
67448W        W35677  43.551  20.942   0.648
67449W        W35678   9.910  26.882  11.135
67450W        W35679   6.428  42.181  14.889
67451W        W35680  43.364  34.629  14.090
67452W        W35681  21.375  16.228   2.187
67453W        W35682   2.997   6.197   2.810
67454W        W35683  22.118  26.231  10.856
67455W        W35684  35.775  37.046   0.108
67456W        W35685   4.277  34.339   2.332
67457W        W35686  29.087  31.877   0.289
67458W        W35687   8.784  11.897   4.997
67459W        W35688  17.585   6.864   2.223
67460W        W35689  22.737  15.806  12.057
67461W        W35690   7.124  33.591  14.893
67462W        W35691   4.305  21.272   0.332
67463W        W35692  12.283   0.550   3.303
67464W        W35693   1.491   5.447  12.902
67465W        W35694  15.001  10.230  10.643
67466W        W35695   3.494   5.592  14.860
67467W        W35696   3.408   5.289  13.150
67468W        W35697  44.804  24.016  14.422
67469W        W35698  41.368  20.708   3.668
67470W        W35699  23.922  39.322   4.692
67471W        W35700  38.467  34.493   1.845
67472W        W35701  43.725  43.380   3.181
67473W        W35702  18.922  34.485   3.633
67474W        W35703  28.699  19.616  11.071
67475W        W35704  28.202  20.961   0.358
67476W        W35705  18.622  35.694  13.249
67477W        W35706   1.411   1.541  12.591
67478W        W35707  32.136  23.007   1.098
67479W        W35708  17.715   7.874  12.873
67480W        W35709  41.790  30.016   0.572
67481W        W35710  33.378  43.800  10.998
67482W        W35711  11.092  43.115  12.666
67483W        W35712  28.442  26.692   3.618
67484W        W35713  20.832  29.114   3.478
67485W        W35714  41.726  43.772  14.418
67486W        W35715  11.669  23.309   1.395
67487W        W35716  37.609  40.895   3.461
67488W        W35717   6.908  36.799  11.611
67489W        W35718  31.221  25.045   4.136
67490W        W35719  16.709  33.509  11.354
67491W        W35720  30.568   5.796  10.391
67492W        W35721  27.841  15.070  11.518
67493W        W35722  10.616   5.885   4.166
67494W        W35723   2.129  33.710   4.968
67495W        W35724   9.246  29.709  12.428
67496W        W35725  16.042  18.567   3.195
67497W        W35726  37.109  37.850  10.635
67498W        W35727  19.329   8.671  12.516
67499W        W35728  24.136  14.185  10.775
67500W        W35729  30.936  39.301  12.671
67501W        W35730  38.428  23.594   2.585
67502W        W35731  11.081  41.554  11.551
67503W        W35732  21.627  32.004  13.387
67504W        W35733  29.420  21.579   4.764
67505W        W35734   7.873   3.718   4.293
67506W        W35735  25.146  34.408   4.087
67507W        W35736  21.945  21.122  13.429
67508W        W35737  19.516  18.871  10.878
67509W        W35738  24.081  14.579  14.721
67510W        W35739  44.306  28.537   1.336
67511W        W35740  34.975   5.657   4.532
67512W        W35741  13.581  31.794  13.229
67513W        W35742   4.904   0.540  10.854
67514W        W35743  11.861  19.996  10.469
67515W        W35744  15.938  44.273   4.578
67516W        W35745  43.891  36.079  14.990
67517W        W35746  44.710   7.795   4.870
67518W        W35747  32.043  16.100  14.431
67519W        W35748  32.588  32.833  12.669
67520W        W35749  27.418  19.842   1.837
67521W        W35750  13.356   8.883  10.584
67522W        W35751  23.034  28.635  12.166
67523W        W35752  18.634  23.243  14.956
67524W        W35753  14.973  27.133   9.453
67525W        W35754  20.941   1.374  12.684
67526W        W35755  42.807  26.955  14.756
67527W        W35756  30.271  22.952   0.729
67528W        W35757  35.455  33.603   4.429
67529W        W35758  38.810  33.491   3.044
67530W        W35759  37.909  17.495   4.126
67531W        W35760  31.596  23.672   3.693
67532W        W35761  25.985  24.556   3.363
67533W        W35762  37.529  26.833  12.170
67534W        W35763  31.024  35.774   4.119
67535W        W35764  35.955  34.083  14.656
67536W        W35765   0.929  22.789  14.758
67537W        W35766  33.425  22.122   0.066
67538W        W35767   3.516  34.640   2.985
67539W        W35768  25.533  15.581   0.402
67540W        W35769   4.836  34.350   1.278
67541W        W35770  32.030   2.894   1.495
67542W        W35771  21.235  18.528   0.921
67543W        W35772  13.805  35.878   1.408
67544W        W35773  10.304  42.954   3.659
67545W        W35774  38.120  31.454   5.068
67546W        W35775   6.810  38.451  14.964
67547W        W35776   9.190  22.721   1.501
67548W        W35777  28.621  11.875   3.083
67549W        W35778  21.236  25.654  14.308
67550W        W35779  16.054  29.688   2.445
67551W        W35780  41.469  41.547  14.246
67552W        W35781   4.675   1.354  13.807
67553W        W35782  25.639  44.804  10.478
67554W        W35783  18.127  30.085   0.782
67555W        W35784  35.490  10.508   3.091
67556W        W35785  10.569  15.480   0.322
67557W        W35786  16.859  35.124  13.372
67558W        W35787  34.506  41.445   3.663
67559W        W35788  15.682  31.386   0.463
67560W        W35789  15.046  11.544   5.343
67561W        W35790  36.092   3.356   1.310
67562W        W35791  15.766  27.559   4.566
67563W        W35792  11.765   3.876  11.866
67564W        W35793  25.170   0.565   2.787
67565W        W35794  22.519   0.196  11.255
67566W        W35795  33.816  31.478   0.388
67567W        W35796  38.934  42.312   0.553
67568W        W35797  14.730   1.719   5.007
67569W        W35798   2.430  40.321  14.148
67570W        W35799  41.559   5.779  11.052
67571W        W35800  11.353  36.067   2.226
67572W        W35801  13.408   9.243   4.924
67573W        W35802   5.877  18.186   3.234
67574W        W35803  36.964  15.158  10.478
67575W        W35804   5.816  30.085   1.753
67576W        W35805   3.274  32.123   2.762
67577W        W35806  14.893   9.341   3.785
67578W        W35807  17.646  39.114   4.095
67579W        W35808  40.954  19.015  11.877
67580W        W35809  39.483  26.724  12.066
67581W        W35810  10.337  23.679   1.844
67582W        W35811   1.315  14.732   4.346
67583W        W35812  16.352   6.672  12.545
67584W        W35813  17.624   1.257   0.497
67585W        W35814  37.996  42.814  12.068
67586W        W35815   2.247  19.753   0.411
67587W        W35816  22.671  25.136   0.690
67588W        W35817  21.385  10.146   3.317
67589W        W35818   0.912  28.697   3.265
67590W        W35819  22.723   4.811   2.282
67591W        W35820  29.997  42.076   3.313
67592W        W35821   1.512  17.530   3.963
67593W        W35822  23.176  14.278   1.401
67594W        W35823  15.330  27.623   4.811
67595W        W35824  25.847  13.809  14.429
67596W        W35825  16.457  26.275  11.231
67597W        W35826  22.576  23.213  14.233
67598W        W35827  21.958  13.571   4.982
67599W        W35828  27.933  40.335   4.158
67600W        W35829  23.439  22.510   0.808
67601W        W35830  25.830  20.933   3.725
67602W        W35831  18.623  13.164  13.061
67603W        W35832  29.914  30.323   3.934
67604W        W35833  25.944  14.050  12.381
67605W        W35834  20.738  10.607  14.985
67606W        W35835  14.515  36.631   4.131
67607W        W35836  39.656  12.735   1.161
67608W        W35837  28.071   9.382  13.651
67609W        W35838  33.637  36.142   4.077
67610W        W35839  16.274   8.103  12.649
67611W        W35840  21.735  27.617  13.867
67612W        W35841  36.980   3.231   4.210
67613W        W35842  25.017  20.239   4.744
67614W        W35843  24.935  40.005   1.671
67615W        W35844   4.348  24.261   4.392
67616W        W35845  29.815  28.645   1.383
67617W        W35846  31.597  12.211  11.492
67618W        W35847   6.868  41.339  13.556
67619W        W35848  25.497  17.398  13.508
67620W        W35849  22.148  41.214   3.296
67621W        W35850  24.522   0.740   3.588
67622W        W35851  44.802   0.355   1.237
67623W        W35852  25.019  32.923  11.643
67624W        W35853  29.042  12.557  14.573
67625W        W35854   2.436   3.820   3.156
67626W        W35855  12.307  33.022   3.288
67627W        W35856  28.147  11.610   4.227
67628W        W35857  22.479   1.050  14.818
67629W        W35858  20.573  27.101  11.810
67630W        W35859  36.962  22.611   3.282
67631W        W35860  38.165   4.942  12.847
67632W        W35861  30.511   8.450  11.551
67633W        W35862   0.951  42.538  11.129
67634W        W35863  21.630   4.235   2.207
67635W        W35864  42.454  14.384  12.536
67636W        W35865  43.868   7.355  12.683
67637W        W35866  16.317  37.062   4.311
67638W        W35867  14.056  44.466  11.433
67639W        W35868   3.375  40.655  12.114
67640W        W35869  19.604   2.860  13.299
67641W        W35870  37.609   8.895  10.667
67642W        W35871  17.290  15.720  11.809
67643W        W35872   0.671  35.060   1.075
67644W        W35873  14.122   9.757   4.373
67645W        W35874   1.402  26.465   1.729
67646W        W35875   6.572   3.217   3.943
67647W        W35876  23.017  20.474   0.895
67648W        W35877  15.389  10.662   4.364
67649W        W35878  34.597  24.140  12.915
67650W        W35879  30.576  10.413  14.969
67651W        W35880  30.784  21.339   3.193
67652W        W35881  14.332  14.194   2.840
67653W        W35882  19.419  17.198   4.988
67654W        W35883   3.522  43.001   0.336
67655W        W35884  38.300  16.722  13.458
67656W        W35885  27.707  21.177   0.342
67657W        W35886  29.208   5.121   2.390
67658W        W35887  20.629   8.885  12.106
67659W        W35888  12.936  44.410  12.101
67660W        W35889  29.711  38.315  10.865
67661W        W35890  23.815  14.832   3.730
67662W        W35891  13.624  27.596   4.652
67663W        W35892  12.230  37.060  14.977
67664W        W35893  43.478  19.781   3.612
67665W        W35894  12.809  20.157   3.856
67666W        W35895  24.516  41.323  11.106
67667W        W35896  11.223  33.305  12.488
67668W        W35897   6.943   0.879   4.686
67669W        W35898   2.193   8.265   4.083
67670W        W35899  32.608  40.046   2.873
67671W        W35900  39.862  33.969   4.613
67672W        W35901  39.095   3.801  12.612
67673W        W35902  14.269  25.743   1.406
67674W        W35903  24.453  41.484  10.609
67675W        W35904   1.372  19.087  13.980
67676W        W35905  43.467  38.957  14.799
67677W        W35906  28.133   9.758   4.356
67678W        W35907  35.545  41.167   2.628
67679W        W35908  38.523  21.718  10.362
67680W        W35909  15.251  18.097  11.075
67681W        W35910  34.024  36.781   0.961
67682W        W35911  36.934  28.412  11.225
67683W        W35912  42.000  30.899   1.386
67684W        W35913  31.927  19.011   1.974
67685W        W35914  31.420  44.810  14.225
67686W        W35915  44.083  33.362  11.096
67687W        W35916  33.424  19.299  10.714
67688W        W35917  29.665  14.609  12.440
67689W        W35918  42.988  32.105   4.262
67690W        W35919  40.066   6.756   0.387
67691W        W35920  14.759  13.870   0.469
67692W        W35921  18.462  36.662  12.430
67693W        W35922  44.720   7.732  13.112
67694W        W35923  31.891  42.450   0.324
67695W        W35924  37.816  10.715   2.220
67696W        W35925   6.197  21.523  11.037
67697W        W35926  42.637  11.564   1.772
67698W        W35927  35.605  43.735   4.609
67699W        W35928  21.680   7.463   1.297
67700W        W35929  33.252  24.253   4.159
67701W        W35930  44.541  34.709   5.168
67702W        W35931  41.682  12.970  13.717
67703W        W35932  43.032  27.111  13.347
67704W        W35933   4.193   4.429   3.033
67705W        W35934  39.797  38.101  11.695
67706W        W35935  35.369  15.180  14.606
67707W        W35936  30.484   2.731   1.325
67708W        W35937  11.324  26.094   3.693
67709W        W35938  35.761  22.183  12.072
67710W        W35939  37.706  27.935  14.514
67711W        W35940  31.931  11.075  10.256
67712W        W35941  15.611   0.733   2.183
67713W        W35942   3.447  40.825  12.807
67714W        W35943   4.327   7.327   0.892
67715W        W35944  39.208  33.814   0.334
67716W        W35945  36.912   3.440   2.487
67717W        W35946  14.800  19.306   4.618
67718W        W35947  17.303   5.374  11.923
67719W        W35948  14.773  15.223   1.728
67720W        W35949  37.297  43.035  14.868
67721W        W35950   8.153   4.339  13.518
67722W        W35951   4.511  15.235  14.398
67723W        W35952  29.269  26.592  13.151
67724W        W35953  19.095  28.032  14.892
67725W        W35954   5.159  33.596   0.492
67726W        W35955  20.317  44.558  12.830
67727W        W35956  42.833   4.763  12.421
67728W        W35957  38.442   2.748  11.997
67729W        W35958  13.844  42.703   1.518
67730W        W35959   0.422  28.870  12.210
67731W        W35960  10.147  26.263  12.471
67732W        W35961   3.900  17.093   0.675
67733W        W35962  38.422  26.439   4.912
67734W        W35963  19.514   9.353  13.080
67735W        W35964  43.031  41.699  12.328
67736W        W35965  25.102  16.171  13.791
67737W        W35966  40.745  34.799   4.154
67738W        W35967   4.013   4.920   0.942
67739W        W35968  41.439  32.013  12.284
67740W        W35969  13.775  11.321   4.013
67741W        W35970  27.704   6.449   4.608
67742W        W35971  18.049  38.063  11.520
67743W        W35972  28.850  29.558   1.177
67744W        W35973  31.677  23.117   2.204
67745W        W35974   8.681  32.405  14.536
67746W        W35975  18.224  43.930   1.785
67747W        W35976  37.589  29.416   4.032
67748W        W35977   4.156  22.368   3.324
67749W        W35978  16.518  28.699   0.419
67750W        W35979  23.778  24.601  11.450
67751W        W35980  34.467  33.141   4.832
67752W        W35981  40.860   3.493  14.397
67753W        W35982  34.998  38.144  11.703
67754W        W35983  31.951   5.363   4.516
67755W        W35984  43.975   4.917   0.925
67756W        W35985   3.368  38.358   0.044
67757W        W35986  12.378  28.755  11.160
67758W        W35987  38.856  26.885   0.285
67759W        W35988  13.384  18.170   0.203
67760W        W35989  34.383  31.406  12.849
67761W        W35990  14.606  28.978  14.920
67762W        W35991  19.218  24.801   0.912
67763W        W35992  32.082   9.914   2.767
67764W        W35993  41.237   8.738   0.782
67765W        W35994  11.944   1.845   4.152
67766W        W35995  25.827   1.884  13.543
67767W        W35996  37.516  40.635  13.436
67768W        W35997  39.335  33.227  12.444
67769W        W35998  33.132   0.829  12.865
67770W        W35999  15.040  38.520  13.061
67771W        W36000  29.542   1.013   3.760
67772W        W36001  14.433  16.121   5.288
67773W        W36002  15.809  13.789  11.153
67774W        W36003  11.835   4.118   2.854
67775W        W36004  16.036  17.585   0.383
67776W        W36005   5.007  34.046   0.880
67777W        W36006  19.208   1.333  12.595
67778W        W36007  14.617   2.950  14.724
67779W        W36008  35.449  39.860   1.782
67780W        W36009  26.656  30.881   1.668
67781W        W36010  32.363  16.249  13.109
67782W        W36011   4.865   6.481  10.606
67783W        W36012  41.961  17.702   4.836
67784W        W36013  35.249  34.160  13.657
67785W        W36014  20.587  24.574  13.399
67786W        W36015  11.318  29.487  11.863
67787W        W36016   6.613   4.743  11.811
67788W        W36017  23.049  14.667   3.243
67789W        W36018  38.486  27.732  10.684
67790W        W36019   8.192  37.800   1.314
67791W        W36020  23.044  20.789   3.244
67792W        W36021  25.664   3.116   3.623
67793W        W36022  35.568  41.323  14.914
67794W        W36023  44.868  34.797  10.455
67795W        W36024  37.822  20.436  14.367
67796W        W36025  44.960  11.310   0.829
67797W        W36026  24.543  31.844  10.351
67798W        W36027  33.517  12.385   1.873
67799W        W36028  35.411  34.529   3.427
67800W        W36029  12.956   4.839   3.634
67801W        W36030   7.283   4.687  12.507
67802W        W36031   5.828  42.629   4.577
67803W        W36032  29.634  13.188  13.359
67804W        W36033  22.314  11.328   0.445
67805W        W36034  35.337  34.934  14.466
67806W        W36035  15.061  30.515  11.135
67807W        W36036  13.302  30.600  12.679
67808W        W36037   9.268  36.104   0.870
67809W        W36038  30.720  37.965   0.392
67810W        W36039  14.721  32.004   0.791
67811W        W36040  17.784  35.643  13.434
67812W        W36041   5.921  19.003  14.465
67813W        W36042   0.752   7.442  12.358
67814W        W36043  38.084  40.043   3.866
67815W        W36044   0.473  36.182   3.185
67816W        W36045  40.965  18.675   3.286
67817W        W36046  16.385  42.287  12.958
67818W        W36047   7.677  35.256   0.986
67819W        W36048  13.769   8.709  12.581
67820W        W36049   0.841  33.441  10.814
67821W        W36050  38.887   3.180  11.899
67822W        W36051  36.527  14.602  12.599
67823W        W36052  30.355   5.730   0.753
67824W        W36053  11.808  29.112   4.309
67825W        W36054   2.834  24.009   3.770
67826W        W36055   5.710  25.895   4.533
67827W        W36056  27.910  36.879   0.010
67828W        W36057   7.840  20.090   0.692
67829W        W36058   2.782   5.759  10.785
67830W        W36059  29.258  26.389  10.206
67831W        W36060  13.291  27.644   3.327
67832W        W36061  28.673  36.018  12.008
67833W        W36062  16.794  26.729  14.090
67834W        W36063  43.667  22.801   0.878
67835W        W36064  41.291  20.102  14.247
67836W        W36065   6.397  20.820   1.782
67837W        W36066   4.671  37.490   4.541
67838W        W36067  14.733  29.049   4.165
67839W        W36068  43.971  43.934   0.944
67840W        W36069  14.525  33.513   0.748
67841W        W36070  13.602   7.203   3.423
67842W        W36071  42.895  14.257   4.629
67843W        W36072   8.233   0.000   2.873
67844W        W36073  35.420  39.073   3.291
67845W        W36074   9.262  11.851  14.226
67846W        W36075  29.852  44.782  11.601
67847W        W36076  13.770  16.690  14.995
67848W        W36077  30.369   1.225  11.174
67849W        W36078  18.635  11.195  13.831
67850W        W36079  35.338   2.458  10.829
67851W        W36080  11.798  26.449  11.574
67852W        W36081  27.905   8.492  13.937
67853W        W36082  43.269  42.004  13.131
67854W        W36083  31.053  10.355  13.872
67855W        W36084  16.599   7.106  13.289
67856W        W36085  41.750   1.581  11.177
67857W        W36086  25.162  36.017   1.519
67858W        W36087  24.585  31.831   4.761
67859W        W36088  35.839  40.138   4.340
67860W        W36089  23.262  24.354   0.157
67861W        W36090  29.398  34.985   0.761
67862W        W36091  35.885  29.308  12.630
67863W        W36092  25.937  27.245   3.913
67864W        W36093   7.862  24.503   1.934
67865W        W36094  33.913  32.581  12.170
67866W        W36095  22.285  33.590   0.854
67867W        W36096  23.975  34.411  11.725
67868W        W36097  10.046  34.791  12.047
67869W        W36098  29.471  24.503   0.927
67870W        W36099  40.882  10.641  13.498
67871W        W36100  15.282  21.339   3.655
67872W        W36101  43.388  41.162   0.313
67873W        W36102   3.230  14.742  12.402
67874W        W36103  37.790  32.635   4.503
67875W        W36104  23.573  37.735   0.027
67876W        W36105  11.015  41.590  14.038
67877W        W36106  25.546   9.613   1.883
67878W        W36107   4.016  14.118   2.640
67879W        W36108  34.397  35.262   2.634
67880W        W36109   5.776  25.144   2.789
67881W        W36110  14.726  35.306  12.837
67882W        W36111  18.716   4.340  10.739
67883W        W36112  14.309  41.471  12.078
67884W        W36113  12.224  33.482   2.461
67885W        W36114  17.129  12.016  10.106
67886W        W36115  27.021  19.089  12.580
67887W        W36116   3.445  11.713  14.233
67888W        W36117  44.823  38.021  12.429
67889W        W36118  19.509  29.578  11.960
67890W        W36119  32.013  41.413   4.767
67891W        W36120  20.646  34.051  13.592
67892W        W36121  28.194  10.596   1.278
67893W        W36122  41.057  43.082   1.811
67894W        W36123  29.175  26.953  10.595
67895W        W36124   8.413   5.122   0.847
67896W        W36125  12.340  40.499   4.285
67897W        W36126   9.413  39.251   3.930
67898W        W36127   9.120  38.442  13.170
67899W        W36128  12.663  21.733  13.451
67900W        W36129  28.184  18.731  11.187
67901W        W36130  26.235  27.195  12.969
67902W        W36131  31.130  16.538  13.530
67903W        W36132   5.812   4.446   3.186
67904W        W36133   8.717  16.299  14.753
67905W        W36134   2.186  31.030  12.024
67906W        W36135  29.029  22.983  11.504
67907W        W36136   5.271   2.536   4.118
67908W        W36137   1.082  16.564  12.587
67909W        W36138  24.550   1.330   3.600
67910W        W36139  19.241   1.753   1.825
67911W        W36140  10.947  17.713  10.641
67912W        W36141  34.535  26.528   3.620
67913W        W36142   2.908  44.341   3.886
67914W        W36143  31.110   6.383  13.300
67915W        W36144  10.172  38.255   2.658
67916W        W36145   9.289  23.407  10.678
67917W        W36146  17.729  40.277  10.752
67918W        W36147  31.054   2.642   3.033
67919W        W36148  10.756  20.731  13.476
67920W        W36149  41.515  37.925   4.482
67921W        W36150  18.294  24.642  14.777
67922W        W36151  43.170  40.579  13.887
67923W        W36152  10.705   0.215  11.595
67924W        W36153  24.036  26.409   0.476
67925W        W36154   0.797  39.925  11.146
67926W        W36155  26.544  38.873   4.068
67927W        W36156  12.474  27.220  12.968
67928W        W36157  37.514  39.176  13.075
67929W        W36158   0.720  11.605   3.175
67930W        W36159  22.222  32.503   4.359
67931W        W36160  42.235   6.884  14.347
67932W        W36161  26.052   1.437   2.368
67933W        W36162  35.197  33.614   9.630
67934W        W36163  40.203  35.024   3.701
67935W        W36164  15.342  11.624  13.636
67936W        W36165  35.818  39.056  12.101
67937W        W36166  41.168  26.402   4.559
67938W        W36167   9.740  35.660  13.553
67939W        W36168  10.228  30.352   2.346
67940W        W36169  35.447  29.805  11.888
67941W        W36170  42.278   7.430   0.534
67942W        W36171  22.572   2.244   3.396
67943W        W36172  11.700  44.196   1.741
67944W        W36173   6.235   0.496   1.956
67945W        W36174  23.002  40.783   0.018
67946W        W36175   9.856  18.313  11.168
67947W        W36176  19.567  33.604  12.506
67948W        W36177   3.145  22.132  13.995
67949W        W36178  31.797  17.117  11.599
67950W        W36179  19.976   8.659  11.565
67951W        W36180  10.094  41.988   0.530
67952W        W36181   5.901  34.523   0.818
67953W        W36182  22.245  25.558  10.629
67954W        W36183  30.430  25.615  12.497
67955W        W36184  19.080  35.678  10.249
67956W        W36185  12.675  10.527  11.660
67957W        W36186  19.283   2.270   4.237
67958W        W36187  18.791  39.758   3.121
67959W        W36188  16.250  27.055  13.475
67960W        W36189  36.547  24.507  13.449
67961W        W36190  17.806   1.470  11.389
67962W        W36191  33.919  32.771   3.182
67963W        W36192  24.523  26.537  11.041
67964W        W36193  30.639  13.403  12.029
67965W        W36194  33.635  37.597  12.676
67966W        W36195  15.805  24.722  14.098
67967W        W36196  41.886  26.184   4.927
67968W        W36197  34.853  38.993  11.648
67969W        W36198  20.156  24.576  13.045
67970W        W36199   8.320  33.858   3.739
67971W        W36200   1.033  27.253   1.119
67972W        W36201  30.934  44.272  11.443
67973W        W36202  19.042  16.455  12.242
67974W        W36203  24.104  42.968  11.265
67975W        W36204   2.515  18.560   0.921
67976W        W36205  29.083  22.936  13.278
67977W        W36206  29.607  11.270   0.690
67978W        W36207  28.554  10.652   3.698
67979W        W36208  26.066  12.153  13.892
67980W        W36209   2.223  24.202   0.990
67981W        W36210  11.239  30.790   1.830
67982W        W36211  15.781  23.644  11.920
67983W        W36212  41.514  11.398  12.664
67984W        W36213  30.723  11.404   3.602
67985W        W36214  15.695  37.958   1.198
67986W        W36215  17.273  42.953   0.462
67987W        W36216  40.068  36.688  12.081
67988W        W36217  10.194  29.207  10.608
67989W        W36218  43.993  17.154  13.964
67990W        W36219  38.375  22.436   3.599
67991W        W36220  16.715  19.327  13.023
67992W        W36221  40.796  13.003   4.170
67993W        W36222  23.247  24.682  14.610
67994W        W36223  12.544  38.438   1.753
67995W        W36224  29.175  19.182   4.808
67996W        W36225  18.649  25.905  10.278
67997W        W36226   7.129  37.247  11.061
67998W        W36227   4.132   9.719   2.292
67999W        W36228  18.106  37.005   3.512
68000W        W36229   0.554  17.251  14.347
68001W        W36230  21.035  44.248  12.110
68002W        W36231   5.881  24.027   1.542
68003W        W36232  11.213   9.414   9.995
68004W        W36233  37.853  37.867  13.448
68005W        W36234  20.946  12.721  11.850
68006W        W36235  32.380   7.125  14.809
68007W        W36236  18.787  18.795  10.704
68008W        W36237  19.670  30.041  11.544
68009W        W36238  38.355  38.141  12.871
68010W        W36239  13.239  15.767   4.609
68011W        W36240   1.665  41.067  14.339
68012W        W36241   7.044   8.747  11.324
68013W        W36242  18.632  43.494  11.134
68014W        W36243   0.735   9.561   4.346
68015W        W36244  21.318  36.835  13.349
68016W        W36245  26.291  10.634   3.777
68017W        W36246  13.000   8.308   1.781
68018W        W36247  41.032  35.472  12.407
68019W        W36248  43.241  43.669   4.144
68020W        W36249  27.478  30.154   1.394
68021W        W36250   1.856  15.351  14.050
68022W        W36251  18.237  16.662   0.440
68023W        W36252   4.761   2.742   3.282
68024W        W36253   4.013  18.543   3.295
68025W        W36254  15.733   6.859  13.294
68026W        W36255  21.245   9.121   3.306
68027W        W36256  44.315  23.221  11.162
68028W        W36257  24.504  19.282   2.403
68029W        W36258   4.650  37.939  11.950
68030W        W36259  12.790  28.039   2.445
68031W        W36260  14.645  23.053   2.397
68032W        W36261   3.972   2.930  10.650
68033W        W36262  41.718  11.543   5.023
68034W        W36263  23.266   3.988  13.436
68035W        W36264  17.521  42.607   2.944
68036W        W36265  28.187  28.520  11.381
68037W        W36266  13.164  15.324   2.764
68038W        W36267   5.978  19.640  11.135
68039W        W36268  39.854  32.373   2.813
68040W        W36269   7.080  38.625  13.526
68041W        W36270   1.143  34.902  11.964
68042W        W36271  10.704  28.169   2.331
68043W        W36272   0.498  20.144  12.990
68044W        W36273   1.101  40.791   3.887
68045W        W36274  30.625  33.016  13.997
68046W        W36275  27.009  32.688  10.965
68047W        W36276  23.435  36.593   5.189
68048W        W36277  13.711  22.707   4.118
68049W        W36278  13.709  24.736   4.590
68050W        W36279   5.659  19.949  14.314
68051W        W36280  17.858  30.552  12.460
68052W        W36281  25.598  23.217  12.813
68053W        W36282   2.267  13.081  10.289
68054W        W36283  36.564  40.439  11.644
68055W        W36284   2.510  20.211   0.320
68056W        W36285  25.152  18.317   1.403
68057W        W36286  27.528  19.043   3.242
68058W        W36287  23.146   1.918   2.192
68059W        W36288  42.613  34.871   2.681
68060W        W36289  14.444  11.574   4.621
68061W        W36290  31.144  32.533  14.962
68062W        W36291   4.069  20.199   1.364
68063W        W36292  39.178  41.552   2.694
68064W        W36293  24.142  28.713  10.955
68065W        W36294  37.897  17.989  12.125
68066W        W36295  32.148  13.726   1.379
68067W        W36296  16.290   6.348   3.232
68068W        W36297  14.141  25.322   4.237
68069W        W36298  32.607  25.566  13.092
68070W        W36299  42.516  23.530  11.490
68071W        W36300  20.712  23.576  10.370
68072W        W36301  22.234  32.119   0.965
68073W        W36302  15.766  13.862   0.767
68074W        W36303  37.421  16.091  10.738
68075W        W36304  19.151   5.467  13.063
68076W        W36305  14.038  28.681   4.685
68077W        W36306  18.430  35.443  12.844
68078W        W36307  28.011  12.811  12.514
68079W        W36308  20.730   6.487  12.476
68080W        W36309  25.166   0.743  11.595
68081W        W36310  26.649  42.981   0.435
68082W        W36311   5.687   6.667   0.945
68083W        W36312  11.521  39.711  10.656
68084W        W36313  10.279  42.353  13.865
68085W        W36314   7.300  30.549  12.186
68086W        W36315  44.966  37.753   0.194
68087W        W36316   3.310  30.057   4.598
68088W        W36317  23.777  19.100  14.382
68089W        W36318  28.309  30.198  14.869
68090W        W36319  29.465  38.896  10.234
68091W        W36320  33.491  28.532  14.147
68092W        W36321  25.184  30.173   4.564
68093W        W36322  32.613   4.661  13.906
68094W        W36323   6.729  19.403  10.719
68095W        W36324  43.827  20.268   1.345
68096W        W36325  41.282  26.729   3.271
68097W        W36326  34.942  32.525  14.820
68098W        W36327  13.390  23.574  14.207
68099W        W36328   9.921   1.851  11.871
68100W        W36329  10.363  29.658   5.089
68101W        W36330  31.248  34.260   5.077
68102W        W36331   1.034  29.943  11.557
68103W        W36332  40.800  22.785  12.470
68104W        W36333  30.920   5.756  11.618
68105W        W36334   4.094  26.591  13.074
68106W        W36335  31.115  34.221   0.230
68107W        W36336  42.221  17.515   0.829
68108W        W36337  24.441  15.287  11.539
68109W        W36338  39.359  29.365   3.183
68110W        W36339  26.449  20.125   4.613
68111W        W36340   8.203   6.196   2.286
68112W        W36341   8.860   2.134  12.030
68113W        W36342   1.057  16.177  12.939
68114W        W36343  41.760  21.049  13.588
68115W        W36344  42.792  15.529   3.617
68116W        W36345  19.581  27.390  12.415
68117W        W36346  42.874  33.080   3.420
68118W        W36347  24.619   1.168   3.123
68119W        W36348   1.438  42.839  10.559
68120W        W36349  24.594  27.676  12.181
68121W        W36350  43.405  25.178   1.138
68122W        W36351  26.922  34.111  14.222
68123W        W36352   1.250   1.034  12.581
68124W        W36353  13.234  28.397   1.523
68125W        W36354  26.464  23.873  11.573
68126W        W36355  19.738   0.705   1.779
68127W        W36356   9.578   0.358   2.812
68128W        W36357   8.402  25.527   1.334
68129W        W36358  21.783   6.175  11.159
68130W        W36359  14.358  24.143  12.461
68131W        W36360   3.326   6.364  13.803
68132W        W36361   2.768  24.741  13.912
68133W        W36362  40.434  38.945   4.128
68134W        W36363  44.516  22.118  13.875
68135W        W36364  34.226  14.536  14.642
68136W        W36365  26.716  23.428  10.807
68137W        W36366  18.777  17.698  13.901
68138W        W36367  17.573   2.948  14.301
68139W        W36368  15.885  27.442  11.152
68140W        W36369  43.363  40.005  10.792
68141W        W36370  38.047   9.178   0.452
68142W        W36371   2.238  39.704   3.322
68143W        W36372  34.910  16.331  11.526
68144W        W36373  30.439  42.804  11.100
68145W        W36374   5.814  32.346  11.606
68146W        W36375  41.047  10.917   2.195
68147W        W36376   5.521  19.627   2.794
68148W        W36377   4.165   7.571   4.673
68149W        W36378  15.532  34.554   3.877
68150W        W36379  26.490  16.188   0.033
68151W        W36380  10.230  43.477   4.745
68152W        W36381  28.042  20.119  14.303
68153W        W36382   9.289  13.846   3.633
68154W        W36383  39.943  17.182  10.578
68155W        W36384  17.157  25.108   3.987
68156W        W36385  13.212   2.257   3.771
68157W        W36386  29.468   3.029   3.549
68158W        W36387  22.676  13.605   3.086
68159W        W36388   3.119  11.363  10.624
68160W        W36389   6.244   6.228  14.295
68161W        W36390  42.316  38.008   1.305
68162W        W36391  26.562  21.020   1.258
68163W        W36392   6.944  41.711  11.081
68164W        W36393  34.790  11.724  12.608
68165W        W36394  37.863  18.639   3.710
68166W        W36395  21.285   5.717  12.504
68167W        W36396  23.631  14.859  11.124
68168W        W36397  36.870  41.907  13.561
68169W        W36398  20.923   8.888  10.569
68170W        W36399  38.548  38.790   0.474
68171W        W36400  36.962  17.700   2.283
68172W        W36401  16.289  37.688   2.307
68173W        W36402   6.366  24.723  12.057
68174W        W36403  15.851   5.636  10.973
68175W        W36404  29.880   0.264  13.925
68176W        W36405  38.595  30.614  14.962
68177W        W36406  12.066  11.708   3.601
68178W        W36407  32.646   2.272   1.129
68179W        W36408  27.481  30.028   3.412
68180W        W36409  24.576  24.082   4.854
68181W        W36410  38.369  11.367   1.396
68182W        W36411  14.423  11.178   1.467
68183W        W36412  28.619  19.683   1.924
68184W        W36413  13.414  40.363  13.529
68185W        W36414  40.776  27.276  13.829
68186W        W36415  14.147  22.233   2.131
68187W        W36416  44.592  16.854  12.428
68188W        W36417  16.419   7.466  11.157
68189W        W36418   1.589  21.288  11.713
68190W        W36419  20.143  30.906   3.606
68191W        W36420   0.680   4.784  11.943
68192W        W36421  37.998  14.085   0.377
68193W        W36422   6.412  19.051   4.099
68194W        W36423  40.553  24.975  14.938
68195W        W36424  10.839  13.104  13.988
68196W        W36425  42.007   8.276   4.092
68197W        W36426   1.296  19.104   3.155
68198W        W36427  41.913  17.174  14.916
68199W        W36428  28.027  25.563   2.223
68200W        W36429  32.607  34.519   0.346
68201W        W36430  41.125  19.671  14.463
68202W        W36431  26.268   5.809   4.088
68203W        W36432  44.603  27.846  14.910
68204W        W36433  32.002   6.860  13.837
68205W        W36434  32.623  37.157  11.109
68206W        W36435  25.485  17.347  14.887
68207W        W36436  32.915  40.388   4.192
68208W        W36437  19.157  24.523  13.759
68209W        W36438  22.118  43.579   1.251
68210W        W36439  15.075  43.768  11.624
68211W        W36440   6.309  44.387  14.496
68212W        W36441   4.128  31.040   1.339
68213W        W36442  10.272   7.329   0.297
68214W        W36443   6.448  43.299   1.248
68215W        W36444  22.544  16.638  10.223
68216W        W36445  19.859  33.263  12.790
68217W        W36446  34.924  42.257  13.552
68218W        W36447  26.331  37.986   3.628
68219W        W36448  35.545  44.741   4.805
68220W        W36449   3.986  43.942   1.404
68221W        W36450   3.954  29.680   3.633
68222W        W36451   6.309  19.092  10.576
68223W        W36452  42.689  40.259  12.088
68224W        W36453  34.397  39.954   3.312
68225W        W36454  42.074  43.338  13.062
68226W        W36455   7.474  12.549  14.788
68227W        W36456  15.247  25.211  11.675
68228W        W36457  33.124  20.979  11.855
68229W        W36458  23.695  18.708  14.869
68230W        W36459  10.358   1.040  11.492
68231W        W36460  41.953  13.134   3.444
68232W        W36461  15.800  22.608   0.981
68233W        W36462  37.962  22.837   3.345
68234W        W36463   2.396  36.857  14.535
68235W        W36464  21.577  40.556   2.274
68236W        W36465  21.439  29.135  10.823
68237W        W36466  44.202   7.643  12.391
68238W        W36467  38.438  34.344   3.761
68239W        W36468  37.484  16.058  14.974
68240W        W36469  10.120  33.046   4.348
68241W        W36470   1.489  36.528   0.861
68242W        W36471  14.802  16.529  10.949
68243W        W36472  40.374  23.328  14.452
68244W        W36473  15.827  26.148  10.531
68245W        W36474  11.506  44.324  11.922
68246W        W36475  21.948  43.719  14.811
68247W        W36476  41.061  19.038   2.751
68248W        W36477  41.664  33.471  13.503
68249W        W36478  26.731  40.513   2.775
68250W        W36479  19.997   0.880  11.046
68251W        W36480  27.470  24.351   4.170
68252W        W36481   7.413   5.239  14.851
68253W        W36482  35.134  37.931   2.077
68254W        W36483   8.913  14.759  12.982
68255W        W36484  39.784  16.038   2.260
68256W        W36485  27.213  11.760  12.100
68257W        W36486  38.559  13.192  11.457
68258W        W36487  37.606  11.169   0.486
68259W        W36488  44.226  14.894  14.935
68260W        W36489  21.235   6.466  13.046
68261W        W36490  33.324  42.553  10.978
68262W        W36491  10.052  11.711  10.702
68263W        W36492   5.927  32.084   3.668
68264W        W36493  16.610  32.075   2.776
68265W        W36494  40.316  16.576  11.616
68266W        W36495  23.872  37.759  11.252
68267W        W36496  24.131  23.632  10.674
68268W        W36497  22.615  11.085   1.258
68269W        W36498   0.446  11.700  13.537
68270W        W36499  22.964  42.471  13.072
68271W        W36500   8.933  44.282   2.779
68272W        W36501  40.284  19.299   3.120
68273W        W36502  43.171  43.775  14.065
68274W        W36503   4.224  34.574  11.904
68275W        W36504  33.590   9.229  11.193
68276W        W36505  30.851  11.313   1.477
68277W        W36506  17.215   8.287   4.514
68278W        W36507  17.208   8.773  14.380
68279W        W36508  21.573   3.417   1.704
68280W        W36509  31.894  14.527  10.313
68281W        W36510  29.191  41.050   1.922
68282W        W36511  41.750  30.443  11.554
68283W        W36512  38.098   5.739   0.717
68284W        W36513  27.768  28.795  13.760
68285W        W36514  44.002  21.077   1.194
68286W        W36515  30.023   2.657   3.641
68287W        W36516   9.113  15.749   2.699
68288W        W36517  32.956  11.201   3.590
68289W        W36518  22.502   8.760  14.033
68290W        W36519   3.885  33.035   0.775
68291W        W36520  21.754  34.404  10.828
68292W        W36521  11.341   3.805   4.019
68293W        W36522   7.825  21.175  12.703
68294W        W36523   9.668  38.908   0.236
68295W        W36524   2.425  12.054  12.440
68296W        W36525  24.889  20.813  11.459
68297W        W36526  43.971  15.660   2.230
68298W        W36527  14.104  13.220   2.395
68299W        W36528  38.915  26.081   3.121
68300W        W36529  44.237  44.393  14.950
68301W        W36530  37.237  35.726  13.963
68302W        W36531   7.879  38.499  10.536
68303W        W36532   5.694  44.348  13.725
68304W        W36533  14.203  35.131  12.986
68305W        W36534  17.633  43.216   5.071
68306W        W36535  22.502   6.810  12.572
68307W        W36536   4.453  17.616  10.755
68308W        W36537  29.531  35.945  14.285
68309W        W36538  25.026   3.820   2.793
68310W        W36539  24.486  43.318  11.296
68311W        W36540  38.076  44.939  10.849
68312W        W36541   3.079  42.899  10.423
68313W        W36542   0.706  13.760  14.956
68314W        W36543  14.539  32.899   1.472
68315W        W36544   8.836  34.532   1.570
68316W        W36545  34.479  19.546   3.208
68317W        W36546  33.810  38.809  11.550
68318W        W36547  34.027   0.571  11.867
68319W        W36548  12.671  15.002   9.469
68320W        W36549  26.784  37.350   3.279
68321W        W36550  36.847   7.817  11.938
68322W        W36551  12.772  35.425  14.362
68323W        W36552  30.676  13.629  12.498
68324W        W36553  42.938   9.465   2.068
68325W        W36554   9.563   3.303  12.913
68326W        W36555  21.985  12.656  13.106
68327W        W36556  10.467   6.502   0.866
68328W        W36557  20.434  10.221   0.202
68329W        W36558  39.582  39.776  12.069
68330W        W36559  37.049  18.559   2.703
68331W        W36560  25.581  29.926   1.410
68332W        W36561  23.008   9.867  14.476
68333W        W36562  39.826  34.463  10.963
68334W        W36563  21.738  39.865  12.545
68335W        W36564   4.703  17.090  12.583
68336W        W36565   1.429   1.984   1.323
68337W        W36566  13.047   1.638   1.534
68338W        W36567  35.305  19.668  10.502
68339W        W36568  28.800  10.872  12.175
68340W        W36569  16.277  14.125  14.067
68341W        W36570  23.138  28.111   0.254
68342W        W36571  11.987  21.838  10.253
68343W        W36572   3.838   9.390   4.746
68344W        W36573   9.898  17.525  11.157
68345W        W36574  12.691   5.740   4.768
68346W        W36575   8.566   8.471  13.929
68347W        W36576  31.043  16.273  11.849
68348W        W36577  19.707  22.611  14.776
68349W        W36578  25.954  39.027  14.534
68350W        W36579   9.452  35.342   3.266
68351W        W36580  22.973   7.511  14.747
68352W        W36581  24.187  27.903   1.371
68353W        W36582  29.237  34.954   1.299
68354W        W36583  27.883  22.143  11.062
68355W        W36584  13.974   5.722  11.064
68356W        W36585  36.064  10.662  11.231
68357W        W36586   2.988  16.294   1.387
68358W        W36587  43.388  40.905   2.724
68359W        W36588   0.541  14.040  11.514
68360W        W36589   0.367  39.539   3.155
68361W        W36590  41.149  36.441   3.903
68362W        W36591  18.602  32.821  11.204
68363W        W36592  13.552   7.941  14.947
68364W        W36593  21.594  26.418  14.524
68365W        W36594   7.736  24.220   4.742
68366W        W36595  33.580  31.411  10.790
68367W        W36596   8.590  20.821   1.197
68368W        W36597   8.142  11.619  14.868
68369W        W36598   2.372  34.049  13.031
68370W        W36599  43.275  33.050  11.353
68371W        W36600  30.032  10.312   1.112
68372W        W36601  38.853  41.940   2.652
68373W        W36602  28.574  11.187   2.784
68374W        W36603  41.431   0.012   3.367
68375W        W36604  19.317  42.248  10.933
68376W        W36605  24.471  30.589   2.162
68377W        W36606  12.387  44.353  14.866
68378W        W36607  40.988   8.413   4.267
68379W        W36608  41.573   0.904   1.859
68380W        W36609  20.588   7.293  12.069
68381W        W36610   4.965   5.851   3.026
68382W        W36611   8.957  29.479   3.273
68383W        W36612  18.620  23.537  10.254
68384W        W36613  12.621  25.159   2.387
68385W        W36614  13.616   9.455   4.199
68386W        W36615  26.166  10.723  12.070
68387W        W36616  44.832  39.936  12.170
68388W        W36617   8.649  39.373   1.022
68389W        W36618  12.166   4.857  13.432
68390W        W36619  24.889  20.025  13.300
68391W        W36620  12.124  20.898  11.968
68392W        W36621  26.968  14.921  14.437
68393W        W36622  31.499  41.984  10.630
68394W        W36623  24.181  19.477  12.995
68395W        W36624  27.990  23.566  11.945
68396W        W36625  39.894   0.221   1.660
68397W        W36626  42.017  10.605  12.687
68398W        W36627   3.583  32.518   3.378
68399W        W36628  43.486  36.102   0.306
68400W        W36629   6.199  40.426   2.652
68401W        W36630   0.155  34.861   4.858
68402W        W36631   0.826   4.120  13.093
68403W        W36632  11.778  18.336  12.030
68404W        W36633   4.703  18.607  12.634
68405W        W36634  26.295   9.640  12.092
68406W        W36635  13.685  31.184   2.977
68407W        W36636  43.047   4.345   1.281
68408W        W36637  25.343  25.924  14.393
68409W        W36638  27.443  32.242   3.298
68410W        W36639   8.368  29.330  12.958
68411W        W36640  43.316  33.847   1.180
68412W        W36641  22.649  20.519   1.897
68413W        W36642  41.515   9.320  12.007
68414W        W36643  22.164   3.830   4.154
68415W        W36644  35.538  14.373  14.955
68416W        W36645  21.738  23.997  10.674
68417W        W36646  31.856  12.680   0.886
68418W        W36647   2.420  27.788   4.269
68419W        W36648  12.187  36.745   1.992
68420W        W36649  32.417   7.913  11.601
68421W        W36650  21.315   6.433   2.852
68422W        W36651  18.128  26.194  12.612
68423W        W36652   7.545  41.887   2.873
68424W        W36653   9.017  16.526  12.150
68425W        W36654  11.153  41.056   2.323
68426W        W36655  15.812  18.256   0.017
68427W        W36656  17.328  14.071   5.326
68428W        W36657   2.632   9.391   1.760
68429W        W36658  41.949  26.513  12.575
68430W        W36659  40.030  36.616   3.396
68431W        W36660  26.779   9.833   3.760
68432W        W36661  10.834  24.276  12.606
68433W        W36662   9.329  21.585  11.504
68434W        W36663  12.481  27.908   1.657
68435W        W36664  10.723   0.086   3.912
68436W        W36665   2.391  37.401  13.448
68437W        W36666  39.455  44.409  12.510
68438W        W36667  28.459  17.789   1.711
68439W        W36668  11.172  29.096  13.569
68440W        W36669  32.548   2.463  14.778
68441W        W36670   9.662   6.778   3.766
68442W        W36671  18.825  19.616   2.664
68443W        W36672  16.543  42.428   4.629
68444W        W36673  18.494  27.882   0.955
68445W        W36674  21.761  28.919  14.500
68446W        W36675  35.399  22.254   2.451
68447W        W36676  30.185  10.598  13.035
68448W        W36677  16.484  34.428   2.275
68449W        W36678  20.080  16.196   3.315
68450W        W36679  23.598  20.490   4.122
68451W        W36680   4.993  34.717   0.947
68452W        W36681  16.973  16.342  12.458
68453W        W36682  33.171  37.311  11.917
68454W        W36683  43.864  13.224   3.169
68455W        W36684  30.647  17.494  11.901
68456W        W36685  37.968  29.902   1.334
68457W        W36686  44.544   2.542  14.884
68458W        W36687  25.525  19.729  14.442
68459W        W36688  32.964  14.913   3.233
68460W        W36689   0.729  11.577   2.643
68461W        W36690   2.425   1.756   3.630
68462W        W36691  33.079  16.911   3.782
68463W        W36692  19.104  35.278   4.024
68464W        W36693  33.995   0.700  12.759
68465W        W36694  21.528  23.508  11.353
68466W        W36695  30.682   0.163   4.143
68467W        W36696  24.138  24.761   2.356
68468W        W36697  18.149  35.483  11.367
68469W        W36698   0.276  17.026  11.038
68470W        W36699  32.555   1.326  12.872
68471W        W36700  23.109   9.373  11.191
68472W        W36701  36.045  13.916   2.322
68473W        W36702  10.895  43.833   3.684
68474W        W36703  19.980  43.929   4.810
68475W        W36704  13.581  29.473  14.035
68476W        W36705  40.272  10.253  12.422
68477W        W36706  35.359  38.826  12.485
68478W        W36707   2.321  22.758   5.009
68479W        W36708   2.372  19.186  10.902
68480W        W36709  38.414   8.693   1.903
68481W        W36710  25.185  26.456   4.620
68482W        W36711  16.063  20.020   3.693
68483W        W36712  17.327  26.629  12.396
68484W        W36713  26.663  32.981  13.759
68485W        W36714  40.429  16.813   2.323
68486W        W36715  16.881   8.663  10.610
68487W        W36716  35.135   2.412  12.997
68488W        W36717  30.926  15.605   1.384
68489W        W36718  14.619  42.747  13.343
68490W        W36719  19.677  14.722  10.611
68491W        W36720  39.608  19.564  10.531
68492W        W36721   9.175  15.676  11.165
68493W        W36722  40.591  34.676   3.606
68494W        W36723  35.708  18.210   3.666
68495W        W36724  42.695  10.852  13.303
68496W        W36725  28.516  21.476   4.665
68497W        W36726   1.104   5.351  13.497
68498W        W36727   5.937  42.738   0.895
68499W        W36728  31.363  20.185   4.935
68500W        W36729  43.420  27.654  11.534
68501W        W36730   8.503  16.321   0.233
68502W        W36731  39.109  20.173  13.834
68503W        W36732  27.411   5.242   4.519
68504W        W36733  22.242  36.306  11.173
68505W        W36734  40.079  25.173  13.506
68506W        W36735  34.187  34.071   3.311
68507W        W36736  31.365  32.015   0.978
68508W        W36737  39.554  36.259   4.195
68509W        W36738  13.683  39.457   1.356
68510W        W36739  23.981   1.443   3.662
68511W        W36740  25.817  17.626  10.804
68512W        W36741  16.003  41.806  12.193
68513W        W36742   0.206  36.829  13.861
68514W        W36743  31.917  36.013   3.810
68515W        W36744  32.444  36.524  12.047
68516W        W36745  40.916   6.193   2.026
68517W        W36746   5.243  15.537   4.032
68518W        W36747  17.075  21.142  10.061
68519W        W36748  15.647  44.479  10.776
68520W        W36749  28.756   4.790   3.829
68521W        W36750   5.678  30.458  11.563
68522W        W36751  31.907  22.117   4.506
68523W        W36752  35.944  24.695  11.438
68524W        W36753   9.703  18.503  13.522
68525W        W36754   5.881  33.874   0.350
68526W        W36755  20.513   6.746   2.635
68527W        W36756   0.800   1.384  14.783
68528W        W36757   9.592   8.439  13.804
68529W        W36758   9.859  22.966  12.913
68530W        W36759   5.319  20.968  14.768
68531W        W36760  11.389  37.892  11.394
68532W        W36761  41.281  27.666   3.642
68533W        W36762   5.451   7.614  11.608
68534W        W36763  17.512   7.365  12.990
68535W        W36764  18.226   7.861  13.375
68536W        W36765  25.019   6.711  10.637
68537W        W36766  30.051  34.896  12.966
68538W        W36767  24.552   2.716  10.675
68539W        W36768  19.194  41.931   1.883
68540W        W36769  20.023  34.923  12.182
68541W        W36770  26.531  41.012   0.255
68542W        W36771  10.315  30.410   1.404
68543W        W36772   2.872  33.614   4.580
68544W        W36773  18.478   1.132   3.032
68545W        W36774  21.027  22.026  14.956
68546W        W36775  19.007  36.872   1.812
68547W        W36776  30.071   7.775  14.750
68548W        W36777   6.368  41.495  11.960
68549W        W36778  35.438  10.215   2.108
68550W        W36779  29.216  16.458  14.374
68551W        W36780  23.198  36.923   2.986
68552W        W36781  30.839  19.718  11.159
68553W        W36782  36.034  41.399  12.678
68554W        W36783  34.131  27.194   0.659
68555W        W36784  22.239   4.806   1.237
68556W        W36785   6.530  37.630  14.380
68557W        W36786  23.045  24.689   3.256
68558W        W36787   1.966  40.296   1.343
68559W        W36788  14.720  27.070  14.722
68560W        W36789   0.717  26.831   1.220
68561W        W36790  10.290   0.213  10.644
68562W        W36791   5.943  27.424  12.114
68563W        W36792  29.914  36.145   1.948
68564W        W36793  21.099   3.097   9.892
68565W        W36794  25.698  11.102   5.394
68566W        W36795  27.562  27.396  12.568
68567W        W36796  20.092  30.544  14.823
68568W        W36797  37.345  13.303  10.843
68569W        W36798  30.222   6.316   2.850
68570W        W36799   2.470  17.118  11.526
68571W        W36800  43.974  29.169   0.331
68572W        W36801  31.927  10.555  14.519
68573W        W36802   1.002  20.242  12.161
68574W        W36803  13.381  40.129   1.464
68575W        W36804   6.656  37.962   3.565
68576W        W36805  32.075  39.054   4.864
68577W        W36806   0.915   7.158  10.465
68578W        W36807   5.769  38.530   1.942
68579W        W36808  33.953  22.537   2.321
68580W        W36809  11.423  32.146  14.470
68581W        W36810   6.411  36.858   4.232
68582W        W36811  39.115   7.461  12.662
68583W        W36812   3.399  31.884  11.571
68584W        W36813  19.031   9.656   3.721
68585W        W36814  42.061  22.455  13.325
68586W        W36815  22.280  42.533   4.014
68587W        W36816  16.274  42.841   4.813
68588W        W36817   8.135  38.679  13.551
68589W        W36818  21.361  41.285  10.079
68590W        W36819   6.792  44.087   0.886
68591W        W36820   2.581  41.374   1.152
68592W        W36821  11.307  18.605  10.597
68593W        W36822  35.190  30.163  11.522
68594W        W36823   8.624  38.058   1.429
68595W        W36824  36.449   8.380  14.029
68596W        W36825  44.281  19.928  13.339
68597W        W36826  22.151  16.845   0.737
68598W        W36827  25.548  21.494  10.735
68599W        W36828  32.684   1.690  11.883
68600W        W36829  27.995  36.357  10.382
68601W        W36830  37.472  13.878   4.135
68602W        W36831  41.982  30.527  13.069
68603W        W36832  43.293  34.900   3.253
68604W        W36833  30.167   1.733   1.771
68605W        W36834  29.162  42.323  12.499
68606W        W36835  29.570   0.999  12.100
68607W        W36836   1.749  21.437  13.005
68608W        W36837  27.386  44.561  12.498
68609W        W36838  13.900  14.946  13.278
68610W        W36839  35.928  19.098   2.789
68611W        W36840   5.791  15.215  14.808
68612W        W36841  28.322  28.665   1.340
68613W        W36842  24.938  22.619  13.436
68614W        W36843  28.389  21.952  14.080
68615W        W36844  38.447  16.162   3.756
68616W        W36845   1.769  14.632   3.327
68617W        W36846  43.302  18.382   4.476
68618W        W36847  35.458  35.850   4.609
68619W        W36848  17.089  36.873  10.708
68620W        W36849  31.253  20.728   1.019
68621W        W36850   2.380  16.736   3.335
68622W        W36851   2.863  35.046   2.848
68623W        W36852   9.729   2.711  14.880
68624W        W36853  29.596  12.256   4.146
68625W        W36854  16.058  21.249  11.438
68626W        W36855  29.274  35.729   2.722
68627W        W36856  17.572   1.927  13.010
68628W        W36857  10.276   9.441   4.634
68629W        W36858  40.870  40.069   0.288
68630W        W36859  34.989  39.815  13.978
68631W        W36860  24.904  34.543   0.952
68632W        W36861  35.890   0.957   2.874
68633W        W36862  23.593  37.793   2.695
68634W        W36863  22.801  30.959  10.638
68635W        W36864   4.257  38.930   4.439
68636W        W36865  25.587  32.335   5.405
68637W        W36866  15.577   5.250   0.349
68638W        W36867  15.623  40.452   3.606
68639W        W36868  21.951  17.233  13.033
68640W        W36869  21.279  31.248   1.321
68641W        W36870  15.559  19.064  10.723
68642W        W36871  31.426  43.229  11.100
68643W        W36872  16.428  16.665   0.760
68644W        W36873  18.151  41.926  11.873
68645W        W36874  28.389  31.836   3.076
68646W        W36875  40.859  40.029   4.353
68647W        W36876  42.048  22.604  13.838
68648W        W36877   6.731  27.465  10.938
68649W        W36878  42.319  37.809  12.028
68650W        W36879   4.121  39.911   3.523
68651W        W36880   5.771   4.438   3.700
68652W        W36881  22.732  23.692   0.474
68653W        W36882   6.595  18.517  12.114
68654W        W36883  16.198  27.553   1.509
68655W        W36884   2.206  38.414  11.187
68656W        W36885  44.902  39.072   0.947
68657W        W36886  33.885  43.270  14.801
68658W        W36887  37.963  36.556  13.949
68659W        W36888  32.162  38.811  12.077
68660W        W36889  43.402  34.449  12.514
68661W        W36890  21.957  21.404   4.155
68662W        W36891  14.802  24.883  12.049
68663W        W36892  12.682  28.046   0.301
68664W        W36893   8.913   0.811   1.747
68665W        W36894   5.052  27.740   4.182
68666W        W36895  33.578  42.121  11.049
68667W        W36896  19.584  24.230   0.303
68668W        W36897   5.606   4.975  13.928
68669W        W36898  24.645   9.037  10.301
68670W        W36899   9.297   7.233  13.429
68671W        W36900  17.545  33.571  11.343
68672W        W36901  21.291  38.456   3.812
68673W        W36902  30.833  17.265   2.262
68674W        W36903  15.822   3.690   2.720
68675W        W36904  19.763  24.845  10.112
68676W        W36905   3.008  35.394  12.214
68677W        W36906  39.626  22.637   3.182
68678W        W36907  37.900  43.814  12.836
68679W        W36908  39.424  38.305  14.218
68680W        W36909  43.067   7.323  13.464
68681W        W36910  42.418  35.420   4.585
68682W        W36911  38.522  31.504   2.321
68683W        W36912  24.999  38.450  11.043
68684W        W36913  10.937   8.492  11.690
68685W        W36914   2.970  38.800   2.255
68686W        W36915   2.780  23.002   0.644
68687W        W36916  19.239   9.782   4.676
68688W        W36917  42.910  27.387  11.687
68689W        W36918  28.639  31.113   0.000
68690W        W36919  24.145  25.397   3.313
68691W        W36920   8.155  17.767   2.752
68692W        W36921  40.373  32.166   4.581
68693W        W36922   8.844  28.605  12.446
68694W        W36923   0.919  28.488   0.732
68695W        W36924  41.996  17.622   1.664
68696W        W36925  10.758  35.018  14.086
68697W        W36926   1.224  13.916   0.877
68698W        W36927  35.282  38.457   4.107
68699W        W36928  28.071   3.867  12.081
68700W        W36929  43.983  36.801  11.083
68701W        W36930   7.812  19.279   3.668
68702W        W36931  32.712   3.897   1.609
68703W        W36932  18.761  30.610   2.038
68704W        W36933  15.771  41.466   4.640
68705W        W36934   9.081  22.619   0.372
68706W        W36935   7.781  29.909  11.108
68707W        W36936  33.092  30.531   1.710
68708W        W36937  35.579  43.467  13.986
68709W        W36938  19.099  30.385   4.060
68710W        W36939  31.167  14.769   0.649
68711W        W36940  35.137  15.546  12.910
68712W        W36941   7.781   6.793   2.901
68713W        W36942  43.169  14.118   2.417
68714W        W36943  27.950  12.892   5.433
68715W        W36944  39.785  16.877  13.911
68716W        W36945  34.882   5.925  12.573
68717W        W36946   1.861  31.794  11.445
68718W        W36947   0.390  33.052  14.341
68719W        W36948  40.367   7.285  10.432
68720W        W36949   5.352  21.084   0.273
68721W        W36950   9.167  19.025  10.746
68722W        W36951  24.734  34.691  14.112
68723W        W36952  31.431  14.777   2.859
68724W        W36953  21.240  20.119  11.230
68725W        W36954  16.075  16.352   3.573
68726W        W36955  37.140  35.514  12.047
68727W        W36956   2.162   3.905  13.866
68728W        W36957  22.164  16.372   3.649
68729W        W36958  19.241  26.645  13.381
68730W        W36959  32.450  44.366   9.940
68731W        W36960   1.131  34.447   3.305
68732W        W36961  33.533  11.297   2.203
68733W        W36962  31.146   0.774   1.312
68734W        W36963  38.812  29.088   0.919
68735W        W36964  28.964  31.095  11.108
68736W        W36965   6.112  22.679  13.319
68737W        W36966   9.318   9.378   0.061
68738W        W36967  37.507  13.780   3.259
68739W        W36968   7.253  15.765  11.252
68740W        W36969  37.848  42.977   2.913
68741W        W36970  25.629  21.286  11.212
68742W        W36971  23.438  14.770   2.363
68743W        W36972  39.503   8.293  14.873
68744W        W36973  19.250  37.613   2.834
68745W        W36974   3.429   7.854   4.020
68746W        W36975   8.547  10.755  12.450
68747W        W36976  30.773  23.584   4.073
68748W        W36977   6.694  15.203  13.881
68749W        W36978  40.406   9.862   4.233
68750W        W36979  44.291   7.407   2.731
68751W        W36980  34.787  27.080  10.424
68752W        W36981  14.253  17.093  10.314
68753W        W36982   0.071  13.854  11.097
68754W        W36983   3.672   2.698  13.335
68755W        W36984  16.044  12.176  11.705
68756W        W36985  40.773  37.114  14.269
68757W        W36986  30.346  16.321   2.145
68758W        W36987  23.518   4.918   0.525
68759W        W36988  15.350  15.006  12.304
68760W        W36989  20.842  25.275  11.502
68761W        W36990  43.314  18.296  12.200
68762W        W36991   2.599  44.640   5.051
68763W        W36992  12.303  23.228  14.312
68764W        W36993  32.919  43.279   2.758
68765W        W36994  32.765  21.381   2.893
68766W        W36995   5.535  33.481  12.296
68767W        W36996  41.485  27.815  11.112
68768W        W36997  14.911  35.439   3.578
68769W        W36998  11.153  40.782  12.520
68770W        W36999  28.740  23.821   4.354
68771W        W37000  26.887   7.344   3.211
68772W        W37001   1.674  10.934  11.696
68773W        W37002   3.816  19.692  11.711
68774W        W37003  26.747   0.681   1.026
68775W        W37004   4.661  23.890  10.726
68776W        W37005  34.370  16.785   1.934
68777W        W37006   7.873  30.439   1.522
68778W        W37007  10.152  38.005   0.360
68779W        W37008   7.692  17.310  11.684
68780W        W37009  12.312  11.370  10.763
68781W        W37010  32.388  34.496   4.546
68782W        W37011  44.836  26.872  12.533
68783W        W37012  21.901   1.538  13.826
68784W        W37013  13.576  29.053  10.712
68785W        W37014  34.909   5.190   3.627
68786W        W37015  28.469   1.494   1.119
68787W        W37016  31.658  14.709  10.739
68788W        W37017  40.573  36.895  13.599
68789W        W37018   1.936  12.942  12.360
68790W        W37019   5.128  29.019   0.181
68791W        W37020   8.974   2.412  12.442
68792W        W37021  29.656  30.425  14.519
68793W        W37022   5.904  20.049   1.739
68794W        W37023  12.812  37.629   0.346
68795W        W37024  24.102   0.388   1.908
68796W        W37025  11.394  17.141  11.606
68797W        W37026   7.924  36.455  10.853
68798W        W37027  19.261  36.971   3.839
68799W        W37028  36.569  10.884   1.706
68800W        W37029   1.297   5.306  11.195
68801W        W37030  19.537  23.978  11.522
68802W        W37031  21.073  35.814  10.744
68803W        W37032   4.630  44.293  13.665
68804W        W37033  16.114  33.809  13.397
68805W        W37034  25.267  13.728   1.749
68806W        W37035   6.982   1.833   3.597
68807W        W37036  36.935  31.840  13.894
68808W        W37037  33.910   1.113   4.526
68809W        W37038  13.043  13.767   3.764
68810W        W37039  33.127   2.349   4.298
68811W        W37040   1.503  19.619   0.802
68812W        W37041  42.097   9.270   1.008
68813W        W37042  43.312  39.754  13.793
68814W        W37043  38.307  42.383   4.182
68815W        W37044  27.001  35.918  10.656
68816W        W37045  41.499  18.538  14.774
68817W        W37046  19.268  12.576  14.442
68818W        W37047  11.454  11.693  13.370
68819W        W37048   5.410  21.426   4.308
68820W        W37049  15.198  13.708   0.216
68821W        W37050  21.670   3.656  12.441
68822W        W37051   2.365   5.734   1.984
68823W        W37052  39.063  41.267   0.323
68824W        W37053  22.561  34.498   0.522
68825W        W37054  26.998   2.619   2.291
68826W        W37055  13.821  26.021   0.338
68827W        W37056  16.273  27.440   2.893
68828W        W37057   2.367   7.256   4.564
68829W        W37058   7.421  21.273  10.491
68830W        W37059  39.946  13.174   2.696
68831W        W37060  19.971   3.962  12.149
68832W        W37061   3.040   2.642   3.898
68833W        W37062  23.824  25.606  11.936
68834W        W37063  16.719  24.987   1.674
68835W        W37064   2.941  20.581  13.149
68836W        W37065  32.096   1.357  14.269
68837W        W37066  15.215  30.111  13.347
68838W        W37067  34.076  23.605  12.442
68839W        W37068   7.400  13.079  14.830
68840W        W37069  31.378  14.541   1.795
68841W        W37070   6.807  18.593   1.356
68842W        W37071  39.102   2.231   4.305
68843W        W37072  40.161  29.024  13.898
68844W        W37073   0.928   2.237  12.046
68845W        W37074   7.831  36.480  14.747
68846W        W37075  28.503  30.467   4.608
68847W        W37076  13.289  34.354  14.957
68848W        W37077  32.963  22.162   4.682
68849W        W37078   2.352  21.185   0.262
68850W        W37079  39.797  37.363  12.493
68851W        W37080  13.877  42.220   1.287
68852W        W37081   0.358  27.899  14.498
68853W        W37082  39.422   9.586   0.299
68854W        W37083   7.420   8.333  12.240
68855W        W37084   0.828   7.510  11.451
68856W        W37085  22.791   8.890   2.566
68857W        W37086   6.860  11.266   3.768
68858W        W37087  25.711   6.457   4.624
68859W        W37088  20.117   3.754   0.793
68860W        W37089  23.235  11.128  13.091
68861W        W37090  20.604   5.009   0.918
68862W        W37091  22.188   8.804   3.795
68863W        W37092   4.278   7.329  10.399
68864W        W37093  24.613  38.779  11.028
68865W        W37094  19.718  22.457  12.513
68866W        W37095  41.088   5.319  11.604
68867W        W37096  22.125  27.863  10.615
68868W        W37097  24.097  33.404   0.952
68869W        W37098  37.059  17.083   1.380
68870W        W37099  36.809   4.429  13.802
68871W        W37100   6.766   9.967   4.272
68872W        W37101   7.150   6.287   2.299
68873W        W37102  36.509  32.519   4.435
68874W        W37103  14.788  33.136   1.868
68875W        W37104  18.599  11.655   2.111
68876W        W37105  37.467  34.383  12.418
68877W        W37106  29.890  30.554   1.912
68878W        W37107  13.302  35.877   3.648
68879W        W37108  36.084  32.353   3.640
68880W        W37109  37.540  23.135  14.303
68881W        W37110  20.147   8.993  14.926
68882W        W37111  28.960  19.222   3.259
68883W        W37112  33.657  41.451   2.592
68884W        W37113  30.032   7.256  14.831
68885W        W37114  23.729  15.349  11.098
68886W        W37115  43.597  33.098  14.047
68887W        W37116   9.055   7.568   2.936
68888W        W37117  27.018   2.922  11.598
68889W        W37118  40.010   5.103   1.738
68890W        W37119   9.692  21.120  10.419
68891W        W37120  13.872  38.416   3.247
68892W        W37121   7.701  21.596   3.626
68893W        W37122  29.505  33.361  13.324
68894W        W37123  19.892  12.780   0.791
68895W        W37124  28.184  41.453   0.860
68896W        W37125  32.492   0.698  11.989
68897W        W37126  42.395  21.976   0.762
68898W        W37127  35.556  24.522   4.764
68899W        W37128  36.966  10.428   3.536
68900W        W37129  19.037  41.318  11.043
68901W        W37130  10.960  18.237  14.271
68902W        W37131   8.218   7.647   1.855
68903W        W37132  31.370  23.350  13.056
68904W        W37133  44.853  39.785  12.649
68905W        W37134   7.173  40.082   2.209
68906W        W37135   3.765  42.544  13.526
68907W        W37136  38.757  35.494   1.773
68908W        W37137  39.939  18.742   0.498
68909W        W37138  11.728  42.219  11.997
68910W        W37139   1.862  33.876   2.762
68911W        W37140  38.811  25.725  13.484
68912W        W37141  15.559  37.577  14.844
68913W        W37142   3.067   7.399  11.091
68914W        W37143  39.956  41.800  13.388
68915W        W37144   1.544  43.829  12.702
68916W        W37145  15.529   3.923  14.797
68917W        W37146  40.087  27.338  14.389
68918W        W37147  20.236  24.312  12.587
68919W        W37148  22.640  22.332   0.616
68920W        W37149  28.532   8.393   2.892
68921W        W37150  19.533  34.072  12.762
68922W        W37151   9.456   2.985  11.566
68923W        W37152  13.240  19.561  11.975
68924W        W37153   1.938   8.365  12.155
68925W        W37154  12.945  17.669  13.069
68926W        W37155   4.962  22.459  12.960
68927W        W37156  31.931  38.678  14.324
68928W        W37157  32.328  33.597   2.452
68929W        W37158  31.963  30.639  11.544
68930W        W37159  10.907  22.719  11.056
68931W        W37160  33.039  10.637  10.015
68932W        W37161  29.542   2.909  12.013
68933W        W37162  24.437  38.956  11.964
68934W        W37163  41.942  36.035  11.678
68935W        W37164  39.440  32.219  14.389
68936W        W37165  10.257  44.046   2.319
68937W        W37166   2.200  38.197   2.425
68938W        W37167  29.381  22.291  11.139
68939W        W37168  27.719  44.936   3.019
68940W        W37169  17.584   7.656  10.671
68941W        W37170  32.617  15.305   3.189
68942W        W37171   0.838   4.502   1.894
68943W        W37172  23.133  13.850  11.858
68944W        W37173  36.993  12.558   4.622
68945W        W37174  11.428  26.666  12.388
68946W        W37175  24.150  44.230  12.485
68947W        W37176   8.783  25.048  11.346
68948W        W37177  39.414   8.667  13.728
68949W        W37178  10.235  33.713   3.751
68950W        W37179  13.045  39.604  12.498
68951W        W37180  38.772  28.764  12.027
68952W        W37181  38.463  40.018  13.013
68953W        W37182  13.095  24.405  12.109
68954W        W37183  15.281  22.961  13.976
68955W        W37184  12.586  31.511  12.970
68956W        W37185  28.606  35.981   3.577
68957W        W37186  30.010  36.874  13.408
68958W        W37187  21.110  41.959  11.201
68959W        W37188  14.111  15.189   3.881
68960W        W37189   8.803  43.165   0.201
68961W        W37190   4.463  22.724  11.239
68962W        W37191  10.680  18.224   3.131
68963W        W37192  18.542  11.469  11.575
68964W        W37193  37.986  18.836   2.874
68965W        W37194  31.491   7.822  13.799
68966W        W37195  30.185  37.879  10.391
68967W        W37196  44.620  21.961  14.904
68968W        W37197   4.837  14.028  12.437
68969W        W37198   1.490  38.417   4.208
68970W        W37199   7.400  23.134   3.344
68971W        W37200  42.571   7.167  13.400
68972W        W37201  39.560  30.068  14.563
68973W        W37202  28.792  32.954   4.325
68974W        W37203  36.892   5.602   0.358
68975W        W37204   4.750  19.068  12.875
68976W        W37205  28.196  15.861  13.428
68977W        W37206  15.932   6.265  11.977
68978W        W37207  19.436  38.565  13.009
68979W        W37208  16.514   6.332  11.231
68980W        W37209  42.108  33.394  11.120
68981W        W37210  23.508  30.969   2.456
68982W        W37211  22.404   3.314   5.165
68983W        W37212  18.081  21.428   2.210
68984W        W37213   1.535  30.422   0.946
68985W        W37214  25.558   7.627  14.783
68986W        W37215  33.932  22.116   4.748
68987W        W37216  31.655  10.253   3.325
68988W        W37217   6.726  12.330   3.817
68989W        W37218   4.676  36.332   0.320
68990W        W37219  43.289   8.932   4.930
68991W        W37220   0.082  17.334   2.359
68992W        W37221  37.367  17.572   1.736
68993W        W37222  23.110  23.997   4.509
68994W        W37223  35.356  24.044   4.843
68995W        W37224  17.130   2.287   4.628
68996W        W37225  25.684   1.673  12.167
68997W        W37226  30.481  44.718  10.997
68998W        W37227  33.473  23.929  14.538
68999W        W37228  14.856  32.517   1.335
69000W        W37229  30.451   9.093  10.695
69001W        W37230  32.124  15.598  14.375
69002W        W37231  44.788   8.896  10.399
69003W        W37232  38.319  19.868  14.888
69004W        W37233   0.529  38.098   4.140
69005W        W37234  20.001   5.328   4.277
69006W        W37235  29.139   9.611  11.180
69007W        W37236   7.314   8.873   1.940
69008W        W37237   4.997  37.827   2.709
69009W        W37238   5.962   4.076  13.998
69010W        W37239   2.152  29.365   2.929
69011W        W37240  14.459  29.545   4.072
69012W        W37241  19.263  44.600  11.300
69013W        W37242  37.267  44.843  11.917
69014W        W37243   3.766  20.219   2.780
69015W        W37244   9.199  32.605   3.697
69016W        W37245  22.782  43.420  14.985
69017W        W37246   8.268  30.321  12.662
69018W        W37247   0.035  32.304   5.039
69019W        W37248  30.410   8.198  11.982
69020W        W37249  16.666  12.709   4.210
69021W        W37250  38.395  29.126   4.124
69022W        W37251  24.817  26.028  13.820
69023W        W37252   2.915  24.077   0.414
69024W        W37253  10.341  31.061  13.096
69025W        W37254  18.266  39.419   2.117
69026W        W37255  38.021  20.607   3.421
69027W        W37256  14.672   5.143   3.299
69028W        W37257  29.923  23.696   1.000
69029W        W37258   3.255   6.658  11.994
69030W        W37259  42.271  20.996  13.896
69031W        W37260  27.956  14.219  13.999
69032W        W37261  37.443   3.335  13.338
69033W        W37262  43.354  16.132   0.327
69034W        W37263  12.797  30.228   3.267
69035W        W37264  44.993  39.456  12.075
69036W        W37265  13.057  23.592   1.217
69037W        W37266  20.525  23.259   4.588
69038W        W37267  29.852  40.597  11.188
69039W        W37268  14.370  27.082   2.218
69040W        W37269  27.773  42.926  14.766
69041W        W37270  28.147  10.653  13.052
69042W        W37271  24.050  32.492  13.129
69043W        W37272   7.397  40.433  13.353
69044W        W37273  35.223  19.572   3.727
69045W        W37274  18.088  28.083  13.258
69046W        W37275   4.690  40.872   4.895
69047W        W37276   7.227  16.561   4.108
69048W        W37277  35.456  24.492   3.129
69049W        W37278  32.037   7.382   4.241
69050W        W37279  11.814  11.837   2.224
69051W        W37280  32.103  24.104  12.536
69052W        W37281  39.499   6.157   5.182
69053W        W37282   8.322  13.840   4.598
69054W        W37283   1.535   8.211  12.954
69055W        W37284  38.335  14.966   1.242
69056W        W37285  23.495  23.105  13.326
69057W        W37286  23.592  28.508   1.516
69058W        W37287   8.941  14.653   0.286
69059W        W37288  25.715  43.659  14.641
69060W        W37289  18.252   7.952   3.099
69061W        W37290  42.830   5.079  14.336
69062W        W37291  42.909  30.027  12.425
69063W        W37292  13.194  23.708  14.746
69064W        W37293  17.877  27.032  12.538
69065W        W37294   1.556  37.856  14.491
69066W        W37295  20.807  41.928  14.029
69067W        W37296   9.572  32.111  14.786
69068W        W37297  30.094  44.970   0.237
69069W        W37298  19.223   0.511   1.606
69070W        W37299  40.964   3.213   2.391
69071W        W37300  17.085  12.791  13.954
69072W        W37301  21.192  23.361  11.726
69073W        W37302  11.252   1.699   1.907
69074W        W37303  17.404  43.119   3.591
69075W        W37304  42.009  23.953  13.764
69076W        W37305  26.518  34.137   1.957
69077W        W37306   2.727  36.472   3.403
69078W        W37307   3.352  26.647  12.361
69079W        W37308  33.017  38.359   3.527
69080W        W37309  26.733  41.921   2.222
69081W        W37310  40.930  44.376  14.686
69082W        W37311  14.458  15.942  10.432
69083W        W37312  18.595  35.580   1.746
69084W        W37313   6.872  18.921   4.404
69085W        W37314  20.375  40.101   2.736
69086W        W37315  28.805  20.502   4.677
69087W        W37316  11.900  26.531   0.828
69088W        W37317  17.776  25.521  11.937
69089W        W37318  43.825  21.481  11.514
69090W        W37319  21.629   4.575  14.817
69091W        W37320  38.001  40.461   4.652
69092W        W37321  25.593  15.149   1.807
69093W        W37322  14.325  35.904   2.279
69094W        W37323  32.407  32.940   2.827
69095W        W37324  44.524  19.888  11.458
69096W        W37325  30.453  27.957   0.303
69097W        W37326  14.834  10.813  12.601
69098W        W37327  27.114   3.392  13.536
69099W        W37328  20.176  44.522   0.385
69100W        W37329  26.999  22.737   1.589
69101W        W37330  44.840   4.937   1.940
69102W        W37331   9.642  26.591  11.783
69103W        W37332  35.416  25.145   4.998
69104W        W37333  42.816  24.641   0.861
69105W        W37334  27.000  19.955   0.301
69106W        W37335  27.932  31.600  10.819
69107W        W37336  14.096  31.149   1.750
69108W        W37337  36.407  23.591  14.119
69109W        W37338   6.397   6.745   3.869
69110W        W37339  43.914  20.140   4.553
69111W        W37340   4.903  28.207  13.826
69112W        W37341   5.435  27.544  13.500
69113W        W37342  38.049  12.178  14.409
69114W        W37343   7.449  35.076   3.386
69115W        W37344  31.056   3.227   0.233
69116W        W37345  18.336  28.158  11.921
69117W        W37346  44.782  13.703  10.687
69118W        W37347   6.704   8.606   4.421
69119W        W37348  14.125  38.073   4.382
69120W        W37349   1.756   9.558   4.120
69121W        W37350   4.259   6.205   2.955
69122W        W37351   4.421  38.545   1.371
69123W        W37352   0.490  43.086   0.898
69124W        W37353   4.814   7.730  11.175
69125W        W37354  26.140  22.202  11.631
69126W        W37355  30.458  11.889   2.327
69127W        W37356  21.324  32.797   1.315
69128W        W37357  13.641  16.547  10.724
69129W        W37358  26.217   4.486  14.117
69130W        W37359   8.940  17.213  11.625
69131W        W37360  35.760  28.892   3.556
69132W        W37361   2.167   1.808   4.491
69133W        W37362  16.102  10.356   1.827
69134W        W37363   0.619  43.470   1.254
69135W        W37364  14.096  10.793  12.333
69136W        W37365   0.412  31.023   1.240
69137W        W37366  24.970  36.582  13.691
69138W        W37367   9.160  12.262   3.557
69139W        W37368  31.490  19.297  14.946
69140W        W37369  33.437  29.854  13.240
69141W        W37370   0.952  25.526  13.529
69142W        W37371  43.518  19.317  13.486
69143W        W37372  40.647   5.942   3.372
69144W        W37373  41.225  39.252   1.893
69145W        W37374  32.633  42.252   2.291
69146W        W37375  29.137  30.999  14.955
69147W        W37376  11.895  13.626  12.080
69148W        W37377  44.483  39.820  14.859
69149W        W37378  23.501  20.942   0.318
69150W        W37379  13.570  33.918   1.743
69151W        W37380  14.958  36.104  13.021
69152W        W37381  26.571  32.396   0.128
69153W        W37382  22.584  28.555   1.658
69154W        W37383  21.987  43.425  13.897
69155W        W37384  31.347   9.855  14.561
69156W        W37385  13.289  43.451   3.585
69157W        W37386  19.135  37.034   0.153
69158W        W37387   8.389   5.199   1.351
69159W        W37388  18.025  22.759   3.265
69160W        W37389  25.649  37.970   4.381
69161W        W37390  37.555  31.928  11.100
69162W        W37391   9.287  13.397  14.497
69163W        W37392  17.508  31.852   4.783
69164W        W37393   8.074  34.600  13.765
69165W        W37394  19.791  36.316   4.538
69166W        W37395   1.008   5.135   2.919
69167W        W37396  41.660   1.720  13.890
69168W        W37397  20.501   8.931  13.975
69169W        W37398  23.892   2.373  10.607
69170W        W37399  33.209  37.523  12.400
69171W        W37400  36.513  21.115   1.495
69172W        W37401   3.335  18.004  12.398
69173W        W37402  36.742  43.504   0.891
69174W        W37403  42.695  36.124  12.789
69175W        W37404  27.230  14.890   5.015
69176W        W37405  21.106   9.040   0.396
69177W        W37406  33.147  44.311  12.892
69178W        W37407   3.723  33.386  11.955
69179W        W37408  10.193  37.456   3.591
69180W        W37409  28.617  25.738   4.050
69181W        W37410   0.008   1.784  13.851
69182W        W37411  21.446  25.498  11.518
69183W        W37412   1.705  19.696   4.661
69184W        W37413  33.606   3.345  11.563
69185W        W37414  33.550  14.091  13.775
69186W        W37415  34.464  33.902  11.703
69187W        W37416  24.196   4.905  12.547
69188W        W37417   4.497  36.266   0.837
69189W        W37418  39.345  36.350  13.504
69190W        W37419   8.937  35.161   3.288
69191W        W37420   3.494  27.619  13.352
69192W        W37421  43.309   5.964   0.108
69193W        W37422   5.391  25.726  14.020
69194W        W37423  13.376  12.330  12.015
69195W        W37424  28.538  41.826  14.461
69196W        W37425  21.616  18.684  14.876
69197W        W37426  42.591  26.677   4.736
69198W        W37427  39.555  16.759  12.079
69199W        W37428   4.986  22.019  10.650
69200W        W37429  31.647  21.520  13.796
69201W        W37430  18.070  31.913   1.931
69202W        W37431  27.488  34.076  12.093
69203W        W37432  28.996  44.387  11.462
69204W        W37433  17.832  36.377  10.516
69205W        W37434  32.609   1.525  12.387
69206W        W37435  31.549  42.022   3.309
69207W        W37436  24.186  11.051   1.649
69208W        W37437  26.717  16.673   2.716
69209W        W37438   8.406  40.047  13.622
69210W        W37439  30.335  16.838   2.962
69211W        W37440  43.357  32.182  11.839
69212W        W37441  14.317  20.822  13.763
69213W        W37442  37.281  31.995   2.843
69214W        W37443  26.131  37.674   2.026
69215W        W37444  36.382  11.717   3.388
69216W        W37445  25.981  33.999   0.802
69217W        W37446  13.209  39.761   4.506
69218W        W37447  34.003  24.734   4.564
69219W        W37448  42.710  14.490   0.075
69220W        W37449  28.672  17.994  12.052
69221W        W37450  26.225   0.502   0.335
69222W        W37451  44.453  33.202   4.128
69223W        W37452  27.702  14.600   3.179
69224W        W37453  42.243  10.829   1.592
69225W        W37454   4.149  19.336  10.987
69226W        W37455   8.590  11.289  14.883
69227W        W37456   3.162   4.370   3.245
69228W        W37457   3.938  41.474   4.728
69229W        W37458   4.806   5.904  13.417
69230W        W37459  11.963  28.604   1.315
69231W        W37460  19.215   1.207  13.581
69232W        W37461   0.868   8.899   1.684
69233W        W37462  37.460  19.514  12.137
69234W        W37463  36.263  13.105  14.969
69235W        W37464  12.845   0.935   0.955
69236W        W37465  27.933  34.906  12.551
69237W        W37466  25.504  22.601   1.777
69238W        W37467  44.978  31.421  13.634
69239W        W37468  31.512  19.559  11.701
69240W        W37469  39.914  40.133  12.225
69241W        W37470  39.854   5.786   4.639
69242W        W37471  38.425  43.163   4.687
69243W        W37472  10.080  19.375   3.749
69244W        W37473   8.283  13.662  12.967
69245W        W37474  43.232   5.670  11.219
69246W        W37475   4.115   8.627  14.272
69247W        W37476   8.978  25.141  14.955
69248W        W37477  28.131  43.328  14.773
69249W        W37478   5.979  40.909  11.335
69250W        W37479  24.163  15.357  12.389
69251W        W37480  27.687   4.258  14.040
69252W        W37481  37.642  38.532  14.485
69253W        W37482  21.313  11.767  10.076
69254W        W37483  10.192  32.530   0.290
69255W        W37484  35.813  12.210  14.495
69256W        W37485  28.327  13.625   1.766
69257W        W37486  12.274  42.273   4.634
69258W        W37487  15.245   2.422  13.011
69259W        W37488  21.799  17.179  14.309
69260W        W37489  19.060  40.901  14.452
69261W        W37490  15.019   3.892   0.422
69262W        W37491   0.857  15.164   0.432
69263W        W37492   7.437  38.332  13.960
69264W        W37493  39.922  38.719   2.297
69265W        W37494  41.257  30.452   4.893
69266W        W37495  24.186  40.041   0.388
69267W        W37496   4.965   9.286  11.355
69268W        W37497  40.828  16.586   3.562
69269W        W37498  27.586   9.627  12.462
69270W        W37499  21.614  38.109   0.375
69271W        W37500   7.866  44.555   4.284
69272W        W37501   3.369  36.564  11.681
69273W        W37502   0.036  37.690   1.112
69274W        W37503  44.717  42.931   0.394
69275W        W37504  20.634  40.873   0.470
69276W        W37505  34.438   8.104   2.298
69277W        W37506  40.346  15.561   1.172
69278W        W37507  41.944  42.948  13.539
69279W        W37508  39.034  20.461   2.893
69280W        W37509  23.115  40.930  10.690
69281W        W37510  23.945  21.191  13.495
69282W        W37511  13.733  41.370   0.503
69283W        W37512  27.624  37.955   4.139
69284W        W37513  29.143  28.673  12.486
69285W        W37514   2.154  38.675  14.727
69286W        W37515  41.351  20.606   4.694
69287W        W37516   2.698   5.319  11.104
69288W        W37517  23.988  11.560  14.102
69289W        W37518  16.623   2.200  11.475
69290W        W37519  29.338  16.677  10.664
69291W        W37520  29.597  40.035  10.737
69292W        W37521  17.892  31.437   1.830
69293W        W37522  23.244  26.204   2.292
69294W        W37523   0.307  44.183  14.449
69295W        W37524  35.589   0.413   3.720
69296W        W37525  37.581   2.514   0.405
69297W        W37526   1.283  15.711   4.144
69298W        W37527  33.839  16.157  12.364
69299W        W37528   6.709  27.485   0.433
69300W        W37529  10.436  10.410  11.000
69301W        W37530  44.928   6.102  11.911
69302W        W37531  17.777   1.037  12.018
69303W        W37532  14.219  19.313  10.566
69304W        W37533  20.184  20.206  11.024
69305W        W37534  19.494  42.917  13.138
69306W        W37535  31.700  41.024   4.183
69307W        W37536  37.902  33.512   0.621
69308W        W37537  33.133   9.422  14.719
69309W        W37538  28.146   7.258   4.093
69310W        W37539  43.084  31.140  14.302
69311W        W37540   9.599  35.449  11.627
69312W        W37541  29.239  44.274  13.241
69313W        W37542  20.775  29.097   1.936
69314W        W37543  36.358  32.224   1.407
69315W        W37544  41.325  13.428  12.438
69316W        W37545   2.054  43.387   3.379
69317W        W37546  33.606   6.427  14.981
69318W        W37547  23.592  44.033  13.618
69319W        W37548   0.434   5.449   0.895
69320W        W37549  35.112  26.472  13.511
69321W        W37550  24.992  44.993   0.647
69322W        W37551  38.817  16.868   1.400
69323W        W37552  32.720  40.010  14.716
69324W        W37553  31.810  16.821   2.867
69325W        W37554  12.676  22.278  13.510
69326W        W37555  24.592  20.427  13.361
69327W        W37556   8.409  22.694   1.964
69328W        W37557  20.193   3.654  13.480
69329W        W37558  19.512  31.583  14.015
69330W        W37559  32.648  33.541  14.804
69331W        W37560  42.010  27.024   3.691
69332W        W37561  13.095  16.569  11.997
69333W        W37562  13.115   1.543   2.075
69334W        W37563  21.116  32.649   3.890
69335W        W37564  24.045   6.579  10.730
69336W        W37565  41.679   4.205   1.728
69337W        W37566  14.082   0.731  11.067
69338W        W37567  17.612  26.107   4.840
69339W        W37568  43.534  35.853   0.762
69340W        W37569  39.234  29.027   4.614
69341W        W37570  39.961  19.946  12.636
69342W        W37571  16.490   8.243   3.236
69343W        W37572  37.986   4.939   2.672
69344W        W37573  27.688  13.105  13.266
69345W        W37574  34.427  35.482   2.106
69346W        W37575  35.485   6.325   4.665
69347W        W37576  30.540  26.267   2.790
69348W        W37577  31.481   1.162   1.227
69349W        W37578   8.616   7.122  13.862
69350W        W37579  27.282  28.119   3.795
69351W        W37580  25.691  30.270  10.728
69352W        W37581  29.141  25.218   2.976
69353W        W37582  29.098  13.176  13.367
69354W        W37583  44.676  40.750   1.338
69355W        W37584   9.772   4.925   3.295
69356W        W37585  18.612   0.039  14.527
69357W        W37586  26.774  25.563   4.302
69358W        W37587   0.343  36.358   2.717
69359W        W37588  36.330   2.488  11.725
69360W        W37589  39.580  29.043  11.116
69361W        W37590  12.137  27.483  10.716
69362W        W37591  30.203  18.584  13.235
69363W        W37592  32.565  35.917   0.295
69364W        W37593  12.326  27.717  11.132
69365W        W37594  17.639  16.586  11.540
69366W        W37595  33.303  32.371   2.196
69367W        W37596  20.642  32.599  13.019
69368W        W37597  33.344  42.347  11.464
69369W        W37598  43.260   6.564  13.309
69370W        W37599  15.617  33.767   1.329
69371W        W37600   8.583  30.415   3.742
69372W        W37601  34.106  16.769   3.460
69373W        W37602   1.416  32.849  12.857
69374W        W37603  10.274  40.583  13.216
69375W        W37604  27.150  40.821   4.519
69376W        W37605  28.707   6.267   3.762
69377W        W37606  16.798   5.374  12.978
69378W        W37607   1.360   6.401   3.450
69379W        W37608  27.388  35.862  12.438
69380W        W37609  24.625  15.211   3.367
69381W        W37610  14.108  32.098   2.851
69382W        W37611   4.815   4.618   4.614
69383W        W37612  14.045  16.897   1.796
69384W        W37613  36.901  14.043  13.868
69385W        W37614  43.050  23.813  14.216
69386W        W37615  29.987  34.467   0.797
69387W        W37616  15.337  35.972  13.429
69388W        W37617   9.281   5.065  12.471
69389W        W37618   7.679  28.215  12.102
69390W        W37619  11.333  40.396   2.118
69391W        W37620   8.241  34.866  14.438
69392W        W37621  26.530  19.764  10.950
69393W        W37622  44.884  34.958  11.807
69394W        W37623  34.491  14.370  12.637
69395W        W37624  35.328  15.145   1.290
69396W        W37625   1.123  41.332   1.219
69397W        W37626  42.683   6.376  13.934
69398W        W37627  12.542  27.722   1.151
69399W        W37628  22.775   7.290  14.294
69400W        W37629   0.052  12.378   1.666
69401W        W37630  39.503  44.878   2.805
69402W        W37631  40.621  42.909   5.046
69403W        W37632  27.904   7.790  10.660
69404W        W37633   9.262  25.941  12.665
69405W        W37634  14.061  28.520  14.060
69406W        W37635   5.293  26.427  12.691
69407W        W37636  11.340   6.351  10.573
69408W        W37637   4.291  30.053   2.870
69409W        W37638  22.964  37.541  13.365
69410W        W37639  16.822  40.502  13.941
69411W        W37640  23.662  26.107   1.474
69412W        W37641  25.055   6.693  12.073
69413W        W37642   9.922  24.251  13.539
69414W        W37643  31.802  15.681  11.638
69415W        W37644  35.524  38.390  12.770
69416W        W37645  20.515   6.363  14.144
69417W        W37646  13.051  35.466  13.158
69418W        W37647   2.895  33.513  12.397
69419W        W37648  12.456  14.870  11.878
69420W        W37649  25.562  33.081   2.764
69421W        W37650  37.284   0.815   0.297
69422W        W37651   6.277  44.990   2.743
69423W        W37652  38.679  18.663  12.025
69424W        W37653   5.762  26.898   2.077
69425W        W37654  44.472  13.196   3.724
69426W        W37655  24.958  24.524   0.417
69427W        W37656   6.222  28.952  14.913
69428W        W37657  11.333  33.635   0.928
69429W        W37658   1.847  31.027   2.244
69430W        W37659   9.869   3.208   3.761
69431W        W37660  23.137  41.373  10.429
69432W        W37661  10.334  34.172  12.701
69433W        W37662  34.545  40.797  10.675
69434W        W37663  20.679  11.293   1.218
69435W        W37664  17.806  41.921   3.521
69436W        W37665  23.108   7.880   0.933
69437W        W37666   5.670  42.908   0.489
69438W        W37667   3.654  31.115   4.104
69439W        W37668  24.282  31.893   2.723
69440W        W37669   0.176  35.665   4.567
69441W        W37670   8.291  22.165  11.223
69442W        W37671   1.061  33.876   2.877
69443W        W37672   5.628   8.133  10.834
69444W        W37673  22.486  15.325   1.311
69445W        W37674  33.354  14.364  14.222
69446W        W37675  11.703  21.759  14.242
69447W        W37676   1.110   8.862  12.515
69448W        W37677  33.648  37.444  12.142
69449W        W37678  33.563  41.861   2.280
69450W        W37679  39.441  18.555   4.201
69451W        W37680  14.185  14.867   1.716
69452W        W37681  25.568   3.281  11.609
69453W        W37682  35.284  15.200   4.885
69454W        W37683  28.509  43.128  13.009
69455W        W37684  24.619  12.541  13.544
69456W        W37685  18.784  24.187   1.256
69457W        W37686   1.957  25.493  10.739
69458W        W37687  42.898  19.277   2.322
69459W        W37688  30.552  22.567   0.334
69460W        W37689   0.810  21.027  14.028
69461W        W37690  20.503  27.399  11.018
69462W        W37691  13.233   8.287  14.693
69463W        W37692  26.230  14.311   2.869
69464W        W37693  43.283  15.559  14.412
69465W        W37694  24.834  43.569  13.332
69466W        W37695  37.671  21.675  10.760
69467W        W37696  18.124  36.395   5.068
69468W        W37697   9.512  34.548   2.817
69469W        W37698  40.110   9.001  10.191
69470W        W37699   2.795  39.244   5.678
69471W        W37700   0.069  21.769  12.141
69472W        W37701  24.166   8.918  14.050
69473W        W37702  44.353  18.685   3.647
69474W        W37703  32.673  21.175  14.596
69475W        W37704  15.289  27.724   1.941
69476W        W37705   6.700  29.644   3.610
69477W        W37706  12.366  38.127  11.206
69478W        W37707  37.870  25.950   1.463
69479W        W37708  38.064  34.987  12.996
69480W        W37709   6.002  44.314  11.617
69481W        W37710  26.922  25.559  12.557
69482W        W37711  24.950   5.897   4.518
69483W        W37712  30.451  35.409   4.670
69484W        W37713  13.353  24.090  14.405
69485W        W37714   9.956   0.227  12.545
69486W        W37715  38.803  25.503  12.518
69487W        W37716  12.748  41.245   4.087
69488W        W37717   0.557  35.863  14.884
69489W        W37718  31.121  25.190   0.394
69490W        W37719  36.191  28.901  12.565
69491W        W37720  25.811  13.509  11.891
69492W        W37721  32.418  18.442   4.494
69493W        W37722  33.089  36.991   0.347
69494W        W37723  40.424   2.618  14.006
69495W        W37724  23.263  38.580  14.467
69496W        W37725  36.029  11.861  12.270
69497W        W37726   2.241  24.001  13.521
69498W        W37727  34.575  31.944  11.554
69499W        W37728  12.381  11.067  10.339
69500W        W37729  12.829  38.618  13.498
69501W        W37730  29.862  23.267   3.680
69502W        W37731   8.669   1.383   2.436
69503W        W37732  38.247   4.166   1.945
69504W        W37733  29.432   0.157   3.239
69505W        W37734  36.439  26.039  12.391
69506W        W37735  15.125  23.663  12.647
69507W        W37736  44.724  26.747  11.483
69508W        W37737  11.492  34.031  12.841
69509W        W37738  39.938  11.928   1.779
69510W        W37739   2.385   7.168   2.217
69511W        W37740   8.254  22.264  14.439
69512W        W37741  30.549   5.300   0.987
69513W        W37742  33.118  40.518  14.043
69514W        W37743  28.143  38.234  11.970
69515W        W37744   5.496  25.352   3.197
69516W        W37745   3.237   5.168   4.248
69517W        W37746   5.990  43.216   2.649
69518W        W37747   9.189  25.741   3.707
69519W        W37748   4.696   1.849   0.515
69520W        W37749  29.779  26.566  11.074
69521W        W37750   8.172  27.349  14.372
69522W        W37751  31.680  30.184  14.400
69523W        W37752  22.183  26.476  13.419
69524W        W37753  12.885  11.816   3.147
69525W        W37754  10.791   6.923   0.789
69526W        W37755  22.749   9.936   4.568
69527W        W37756  13.743  10.081  11.081
69528W        W37757  41.620  29.517  14.379
69529W        W37758  26.622  36.056  12.025
69530W        W37759  42.283  23.528  11.030
69531W        W37760  25.640  36.083   1.881
69532W        W37761  30.352  20.448  13.499
69533W        W37762  40.668  38.287  12.963
69534W        W37763  44.507  16.578  11.062
69535W        W37764   7.916  43.859   3.693
69536W        W37765  12.188  44.499   0.330
69537W        W37766  17.372   1.788   3.701
69538W        W37767  36.158  24.575  14.321
69539W        W37768   5.467  36.290  13.884
69540W        W37769  28.680  42.335  14.387
69541W        W37770  38.683  22.027  11.669
69542W        W37771  35.459   0.702  14.002
69543W        W37772  16.299  35.911   0.329
69544W        W37773  34.569  42.075   4.613
69545W        W37774   6.882  19.654   3.559
69546W        W37775  25.079  13.123   1.569
69547W        W37776  11.749   2.383  14.818
69548W        W37777  35.688  41.900  10.727
69549W        W37778  27.155  16.652   0.374
69550W        W37779  13.578   2.017  14.127
69551W        W37780  35.522  17.668  11.818
69552W        W37781   9.560  34.808  12.164
69553W        W37782  18.543  44.747   0.987
69554W        W37783   8.110   9.040  14.753
69555W        W37784   1.284  23.018  12.416
69556W        W37785  16.076   3.964  14.755
69557W        W37786  15.293   1.339   4.285
69558W        W37787  10.017   8.629   3.634
69559W        W37788  43.810   0.792   4.672
69560W        W37789  10.069  30.379  12.468
69561W        W37790  27.206  35.173  10.294
69562W        W37791  24.704  26.407  14.781
69563W        W37792   6.287   5.833   3.956
69564W        W37793  41.023  17.336   0.009
69565W        W37794   4.178  22.171  13.815
69566W        W37795  10.620  30.946  14.407
69567W        W37796  18.706  34.543   4.082
69568W        W37797  11.645  16.711  12.927
69569W        W37798  38.956  34.700  11.509
69570W        W37799  23.508   0.822  11.905
69571W        W37800  44.914  43.830  14.389
69572W        W37801  24.995  34.400  11.663
69573W        W37802  44.573  34.983   0.997
69574W        W37803  12.620  12.272   0.001
69575W        W37804  41.529   4.748  12.003
69576W        W37805   4.845  39.308   2.189
69577W        W37806  14.531   5.374  13.357
69578W        W37807  31.066  41.004   4.697
69579W        W37808  42.292   1.790   0.946
69580W        W37809  39.172  38.377  12.891
69581W        W37810  27.655  44.444   2.873
69582W        W37811  19.709  38.111   3.239
69583W        W37812  24.483  16.376   2.640
69584W        W37813  37.336  13.055   0.240
69585W        W37814  37.421  42.379   0.021
69586W        W37815  12.836   6.862  11.601
69587W        W37816  30.067  14.141  14.192
69588W        W37817  24.676  16.586   2.205
69589W        W37818  39.104   0.853   0.187
69590W        W37819  19.681   8.922   2.301
69591W        W37820  21.444   4.039  13.996
69592W        W37821  22.971  21.622  12.839
69593W        W37822  28.489   1.644   2.699
69594W        W37823   4.412  32.083   3.597
69595W        W37824  20.448  11.239  11.082
69596W        W37825  31.588  43.122  12.113
69597W        W37826  16.061   3.510  12.864
69598W        W37827  38.784   9.211  11.300
69599W        W37828  26.171  30.803   2.602
69600W        W37829  17.592   3.313   1.330
69601W        W37830  26.626   1.356  10.630
69602W        W37831  27.436  16.386   2.330
69603W        W37832  26.002  25.202  13.444
69604W        W37833  12.138   3.391  13.494
69605W        W37834  41.996  32.625  14.397
69606W        W37835  32.769  21.686   1.270
69607W        W37836  38.295  32.703  11.947
69608W        W37837  34.300  28.745   3.558
69609W        W37838  26.993  40.034  14.349
69610W        W37839   3.700  12.762   3.808
69611W        W37840  11.146  23.507  13.440
69612W        W37841  23.572  42.155   3.726
69613W        W37842  33.664   0.764   3.898
69614W        W37843  27.119  39.769  13.909
69615W        W37844   0.918  35.048  12.709
69616W        W37845  31.102  21.255   0.296
69617W        W37846  37.329  35.036  14.554
69618W        W37847  29.757   2.124  11.113
69619W        W37848  13.128  41.006   2.273
69620W        W37849   7.513   1.318   2.604
69621W        W37850  38.023  31.785   4.676
69622W        W37851  29.994  15.335  10.690
69623W        W37852  33.143  10.412  11.993
69624W        W37853  37.939  32.515   2.464
69625W        W37854  21.108  11.922   3.736
69626W        W37855  21.222  35.517   1.868
69627W        W37856   2.311  24.124  14.462
69628W        W37857  43.220  23.521  12.948
69629W        W37858  26.119  25.396   3.852
69630W        W37859  21.531  33.656   2.851
69631W        W37860   1.814  25.995  14.879
69632W        W37861  20.822   7.617   9.802
69633W        W37862  44.672  14.232   4.148
69634W        W37863  41.797  16.260   0.054
69635W        W37864   5.844  33.561  14.297
69636W        W37865   7.170  44.202  12.328
69637W        W37866  24.373  16.177   3.270
69638W        W37867  31.101  27.997  14.570
69639W        W37868  17.241   0.461   0.701
69640W        W37869  28.198  37.712   1.215
69641W        W37870  33.957  33.866   2.870
69642W        W37871  40.759  28.401   3.210
69643W        W37872   6.435  25.456   3.111
69644W        W37873  36.281  22.129   3.637
69645W        W37874  24.989  13.753  12.047
69646W        W37875  18.138  28.997  13.691
69647W        W37876   3.728  15.937  12.996
69648W        W37877   9.306  28.434  11.448
69649W        W37878   8.683  33.663  10.649
69650W        W37879  14.691  30.522   3.605
69651W        W37880  21.449  37.852   1.645
69652W        W37881  42.308  41.538  14.557
69653W        W37882  35.465  13.902  14.069
69654W        W37883  43.577  17.191   4.067
69655W        W37884  21.282  34.672  12.519
69656W        W37885   0.910  21.792   1.325
69657W        W37886  42.908  14.418   1.409
69658W        W37887   7.274  12.275  11.670
69659W        W37888  20.708  44.541   0.341
69660W        W37889  10.264  36.343   3.733
69661W        W37890  23.799   3.714   4.122
69662W        W37891  36.990  44.011  11.627
69663W        W37892  40.817  14.126  11.005
69664W        W37893  38.545  44.473   5.109
69665W        W37894   4.370  43.866  12.701
69666W        W37895  23.304  12.321  10.263
69667W        W37896   5.049  28.508  10.605
69668W        W37897  22.213  22.022  13.059
69669W        W37898  33.535  13.576  13.841
69670W        W37899  40.472  25.995   2.366
69671W        W37900  24.544   3.001  14.571
69672W        W37901  41.920  22.593   0.843
69673W        W37902  25.728  38.825   3.658
69674W        W37903  25.760   8.697  12.448
69675W        W37904   8.362  24.654   0.624
69676W        W37905  25.912  35.457   1.854
69677W        W37906  26.627  25.932   2.656
69678W        W37907  37.498   8.907  12.607
69679W        W37908  44.920  11.184   0.328
69680W        W37909  17.751  10.378  13.795
69681W        W37910  22.256  43.532   3.715
69682W        W37911   9.931  30.731  12.891
69683W        W37912  27.045  19.198   4.707
69684W        W37913   3.163  24.409  14.005
69685W        W37914  38.203  20.010  11.926
69686W        W37915   7.224  43.674  14.984
69687W        W37916  10.685  11.865   0.749
69688W        W37917  18.838   2.828  12.889
69689W        W37918   1.800  21.513   2.914
69690W        W37919   7.836   9.639  12.551
69691W        W37920   3.319   2.697   0.838
69692W        W37921   1.136  25.096   1.795
69693W        W37922  37.326  32.036  11.555
69694W        W37923  43.713  20.513   4.858
69695W        W37924  13.098  26.590  12.910
69696W        W37925  28.730  10.677   1.212
69697W        W37926  34.569   1.236   4.126
69698W        W37927  28.949  39.984   4.583
69699W        W37928  42.554  18.699  10.760
69700W        W37929  14.805  10.586   1.697
69701W        W37930  26.733   9.045   0.386
69702W        W37931  35.952  44.573   2.286
69703W        W37932  32.367   7.302  10.770
69704W        W37933  16.769   0.524  11.161
69705W        W37934   2.413  24.227   2.391
69706W        W37935  34.858  12.239   3.798
69707W        W37936  42.355  35.555  10.719
69708W        W37937  40.347   3.943   2.251
69709W        W37938  26.033   3.426  13.657
69710W        W37939   9.547  42.362   3.309
69711W        W37940  36.896  15.680  14.403
69712W        W37941  26.409  15.081  10.524
69713W        W37942   5.674  11.284  14.882
69714W        W37943   9.008   7.811   3.777
69715W        W37944  41.298  18.059  14.797
69716W        W37945  18.766   8.095   0.857
69717W        W37946  20.485  25.949   4.728
69718W        W37947  21.617  16.303  12.009
69719W        W37948   7.611   0.880  11.159
69720W        W37949   7.023  12.777   1.649
69721W        W37950   0.326  26.536   1.046
69722W        W37951  40.179  14.404  11.996
69723W        W37952  10.046  23.490   0.439
69724W        W37953  10.711  17.048   3.782
69725W        W37954  33.805  12.080   0.206
69726W        W37955  37.764  28.148   4.373
69727W        W37956  34.692  42.739  10.780
69728W        W37957  37.310  25.597  13.439
69729W        W37958  14.376  35.311  14.027
69730W        W37959  44.667  17.063  13.271
69731W        W37960  40.447   2.110   0.240
69732W        W37961   8.709  20.697  13.814
69733W        W37962  33.567  35.396   0.993
69734W        W37963  39.495  13.267   2.906
69735W        W37964  35.978  28.875   3.099
69736W        W37965  10.187   4.951   1.296
69737W        W37966  30.857  35.174   1.787
69738W        W37967  31.301  41.421   5.025
69739W        W37968   6.978   9.801  11.408
69740W        W37969  24.529  44.658  11.104
69741W        W37970   5.561   7.356   2.332
69742W        W37971  11.255  29.640  13.466
69743W        W37972  38.566   2.944   0.246
69744W        W37973  35.376   6.937   2.692
69745W        W37974  18.958  29.018  12.527
69746W        W37975  34.394  30.990  13.342
69747W        W37976   3.705  16.723  12.515
69748W        W37977  16.751   3.624   3.696
69749W        W37978  34.066   8.762  13.579
69750W        W37979  27.300  42.990   1.290
69751W        W37980  26.642  36.068  11.019
69752W        W37981  28.128  13.621  11.780
69753W        W37982  36.851  32.369  13.039
69754W        W37983  15.074   1.469  11.902
69755W        W37984  41.915  24.339  13.440
69756W        W37985  23.959  21.486   2.832
69757W        W37986   8.913  38.133   3.681
69758W        W37987  40.341  31.484   1.845
69759W        W37988   3.459  36.329  14.830
69760W        W37989  12.664  18.023   4.046
69761W        W37990  41.357  12.274   2.233
69762W        W37991  31.116  39.631   3.192
69763W        W37992  39.816  25.465   4.621
69764W        W37993   7.705  38.126   0.297
69765W        W37994  40.961  22.261   4.595
69766W        W37995   1.665  19.620  11.889
69767W        W37996  29.079   3.846  12.008
69768W        W37997  44.779  32.294   1.923
69769W        W37998  33.909   8.416  12.844
69770W        W37999  37.562   4.529  10.779
69771W        W38000  17.006   6.726  14.246
69772W        W38001  25.241  33.484  12.489
69773W        W38002  44.742  24.076   4.195
69774W        W38003   4.928  42.583   0.759
69775W        W38004  41.544  40.080   2.269
69776W        W38005   6.593  39.480  13.290
69777W        W38006   5.914  33.362  12.586
69778W        W38007   0.835   2.962   3.339
69779W        W38008  37.284  35.257   4.111
69780W        W38009  37.493  12.107  11.428
69781W        W38010  14.964  27.967   1.634
69782W        W38011  16.482   4.899   4.545
69783W        W38012   0.493   5.265   1.438
69784W        W38013  15.225  10.165   2.261
69785W        W38014  40.782  19.681  11.684
69786W        W38015  35.471  31.986  11.318
69787W        W38016  31.699  30.309   4.173
69788W        W38017  23.123  16.334   2.643
69789W        W38018  38.381  12.837  12.628
69790W        W38019  29.540  21.722   2.885
69791W        W38020  16.811   8.336  14.998
69792W        W38021  36.269  11.728   2.019
69793W        W38022  28.693  43.736  14.400
69794W        W38023  33.771   4.315  11.910
69795W        W38024  29.635  28.113   3.704
69796W        W38025  19.546   6.621  12.515
69797W        W38026   1.815  40.781   1.289
69798W        W38027  41.270  21.148   2.230
69799W        W38028  40.046  39.063  11.941
69800W        W38029  28.375  41.954  11.572
69801W        W38030   0.383  36.813   1.700
69802W        W38031   0.818  14.665   3.344
69803W        W38032  33.365   1.179  13.971
69804W        W38033  33.425   6.363   3.257
69805W        W38034  37.752  42.567  14.283
69806W        W38035   8.533  41.959  12.066
69807W        W38036   5.205  44.605  14.295
69808W        W38037  13.795  20.663   0.678
69809W        W38038  36.474  27.435   1.103
69810W        W38039  11.646   8.471  10.736
69811W        W38040  41.106  27.753  11.525
69812W        W38041  24.174  36.963  14.875
69813W        W38042   6.610   7.711   2.644
69814W        W38043   6.686  44.262   0.350
69815W        W38044  40.533  35.522  12.512
69816W        W38045  25.123  21.593  11.982
69817W        W38046  42.771   0.063  12.794
69818W        W38047   4.262   1.874   0.826
69819W        W38048  15.864  39.477   2.765
69820W        W38049   2.604  39.387   0.226
69821W        W38050   8.938   9.228   3.154
69822W        W38051  40.943  11.119   2.662
69823W        W38052  35.979   2.211   4.125
69824W        W38053  19.051  33.327   2.045
69825W        W38054   2.969  30.015   2.425
69826W        W38055  33.495  44.041  14.447
69827W        W38056  29.026  14.162   4.133
69828W        W38057  26.715  39.078  13.708
69829W        W38058   2.276  19.640   1.288
69830W        W38059   9.332  24.086   2.885
69831W        W38060  26.161  20.254   2.475
69832W        W38061   0.494  15.178  12.329
69833W        W38062  17.171  31.567   2.262
69834W        W38063  23.065  33.424   3.604
69835W        W38064  33.924  30.666  11.847
69836W        W38065  23.476  23.163   4.288
69837W        W38066  20.781  37.503   3.056
69838W        W38067  31.084  39.061  10.635
69839W        W38068  36.480  15.794  11.197
69840W        W38069  26.378  30.404  11.433
69841W        W38070  23.501  16.760  10.454
69842W        W38071   7.314   7.769   3.351
69843W        W38072  14.896  42.158  14.854
69844W        W38073   9.647   7.715  11.045
69845W        W38074   3.921   9.127   0.408
69846W        W38075  13.557   0.044   4.608
69847W        W38076  25.073  40.014  10.579
69848W        W38077   3.547  42.264   1.970
69849W        W38078  26.434  12.125   3.433
69850W        W38079  20.481  20.160   2.899
69851W        W38080  13.257  28.013   4.701
69852W        W38081  25.145  11.111  13.478
69853W        W38082  32.984  40.092   0.748
69854W        W38083  28.415  18.294  11.016
69855W        W38084  31.481  35.597   2.588
69856W        W38085  13.868  13.594   3.457
69857W        W38086  21.105  32.366   2.809
69858W        W38087   5.646  30.215  14.880
69859W        W38088  41.785  43.825  13.903
69860W        W38089  23.874  40.397  10.597
69861W        W38090  44.859   7.153  13.809
69862W        W38091  10.861  28.064  13.975
69863W        W38092   3.072   1.935  14.438
69864W        W38093  38.275   9.314   3.663
69865W        W38094  27.973  43.279   0.764
69866W        W38095   7.231  39.700   0.144
69867W        W38096   7.903   9.795   1.429
69868W        W38097  19.114   8.117  11.620
69869W        W38098  20.736  29.361  10.308
69870W        W38099  37.157  14.065   2.212
69871W        W38100  22.132   5.270   1.507
69872W        W38101   0.710   6.816   3.230
69873W        W38102  43.051  19.661   3.256
69874W        W38103  26.094   8.405   2.929
69875W        W38104  25.684  29.555   1.785
69876W        W38105  44.035  27.104  12.253
69877W        W38106   3.300  15.446   2.853
69878W        W38107  11.420   7.662  11.116
69879W        W38108   3.958   5.608  10.821
69880W        W38109  29.694  36.365   4.662
69881W        W38110  32.845   2.873  11.180
69882W        W38111  44.438  28.608   4.767
69883W        W38112  11.861  41.458   4.638
69884W        W38113  25.804  30.575   3.580
69885W        W38114  15.923  40.841  10.727
69886W        W38115  26.200  27.009  12.491
69887W        W38116  36.387  17.163  11.695
69888W        W38117  12.074  22.086  14.018
69889W        W38118  35.090  15.610   3.317
69890W        W38119  40.402  19.278   1.914
69891W        W38120  12.436  18.666  11.750
69892W        W38121  11.486  40.262   1.158
69893W        W38122  35.811  19.019  13.031
69894W        W38123  39.755  23.362  13.278
69895W        W38124  13.874  28.498   2.762
69896W        W38125   3.232  22.284  12.623
69897W        W38126   4.773  38.753  12.009
69898W        W38127  35.751  30.009  14.295
69899W        W38128  23.071  42.280  14.014
69900W        W38129  20.151  23.723  11.037
69901W        W38130  26.155  41.757   0.760
69902W        W38131  15.203  11.954   5.060
69903W        W38132  24.145  41.991   4.525
69904W        W38133  38.648  30.974   1.806
69905W        W38134  41.148  27.426  11.117
69906W        W38135  14.799  30.713   1.664
69907W        W38136   8.332  33.568   3.239
69908W        W38137  38.057  23.558   0.731
69909W        W38138  30.058  43.749  14.198
69910W        W38139  26.506  42.305   1.237
69911W        W38140  29.579  12.368  12.889
69912W        W38141  28.493  39.850   1.855
69913W        W38142  21.801   3.415  10.656
69914W        W38143  19.768  40.305   1.715
69915W        W38144   3.788  30.163   0.481
69916W        W38145  35.879  11.765   3.318
69917W        W38146   5.680   6.226  14.344
69918W        W38147   7.144   5.299   2.808
69919W        W38148  19.685  37.304   3.778
69920W        W38149  14.920  40.556  12.046
69921W        W38150  41.256  15.336  10.971
69922W        W38151  10.288  22.600   4.614
69923W        W38152  20.186  41.735   3.763
69924W        W38153  15.285  24.557  13.968
69925W        W38154  10.620  43.469  14.871
69926W        W38155   0.228   8.783   2.709
69927W        W38156  18.024  29.032  14.203
69928W        W38157   1.792  31.728   1.316
69929W        W38158  15.795  25.527   3.072
69930W        W38159  14.631  31.904  12.348
69931W        W38160  18.223   5.994  10.964
69932W        W38161  43.021  12.562   1.724
69933W        W38162  27.537  42.871   5.034
69934W        W38163  28.214   1.979  12.984
69935W        W38164  17.850  10.704  12.092
69936W        W38165  10.229  37.101  11.827
69937W        W38166  21.836  19.230  12.493
69938W        W38167  19.613   7.325   4.541
69939W        W38168   5.136  40.681  11.897
69940W        W38169  28.498   0.119   4.121
69941W        W38170  39.303  39.318   1.591
69942W        W38171  29.445  43.270   1.983
69943W        W38172  27.998   0.751  11.881
69944W        W38173  28.387  10.593   4.189
69945W        W38174  38.264  28.597   1.362
69946W        W38175  18.015  17.458  14.275
69947W        W38176  31.631  22.217   0.953
69948W        W38177   1.827  36.527   2.933
69949W        W38178   4.556  30.952   4.165
69950W        W38179  13.361  36.319  12.380
69951W        W38180  32.052  35.119   1.256
69952W        W38181  13.439  31.193  13.868
69953W        W38182  35.616  38.567   3.132
69954W        W38183  17.160  42.981  12.978
69955W        W38184  29.651  44.921  11.037
69956W        W38185  42.922  19.261   4.111
69957W        W38186  17.443  29.337   4.480
69958W        W38187  42.690  11.835  11.594
69959W        W38188  34.561  22.507  14.951
69960W        W38189   7.810  10.978   0.967
69961W        W38190   1.046  14.207  10.360
69962W        W38191  44.498  20.059  13.802
69963W        W38192   3.521   8.387   2.445
69964W        W38193  12.216  16.572  13.406
69965W        W38194  15.573  19.177   3.454
69966W        W38195  31.443  39.499   4.476
69967W        W38196  16.732  41.541   1.813
69968W        W38197  21.068  20.769  10.446
69969W        W38198  26.434  12.338   2.416
69970W        W38199  41.508  43.301   3.876
69971W        W38200  39.379  14.050   4.620
69972W        W38201  18.741  18.349  11.077
69973W        W38202  31.206  36.793  12.421
69974W        W38203   7.502   8.145  11.258
69975W        W38204  28.078  29.547   4.477
69976W        W38205  20.330   1.362   0.524
69977W        W38206  15.055  24.789   0.346
69978W        W38207  35.327   8.434   4.142
69979W        W38208  25.957  42.219   0.995
69980W        W38209  10.870  36.086   4.516
69981W        W38210  23.154  32.445  12.593
69982W        W38211  13.773  15.702   0.022
69983W        W38212  19.578  29.486   4.133
69984W        W38213   3.776  42.459  12.614
69985W        W38214  33.872  23.672   3.772
69986W        W38215  36.385  14.139  13.021
69987W        W38216   4.684   8.638   3.594
69988W        W38217  25.866  28.615   1.422
69989W        W38218  30.155  35.062   1.508
69990W        W38219  17.278  24.975  13.892
69991W        W38220  27.217  34.348  14.557
69992W        W38221   6.687  23.513   2.859
69993W        W38222  27.026  39.317  11.483
69994W        W38223  32.666  11.181  11.598
69995W        W38224  36.969  15.641  11.825
69996W        W38225  21.814  41.934  13.552
69997W        W38226  30.381  27.705   3.643
69998W        W38227  37.836  41.852   2.826
69999W        W38228  35.431  18.622  10.957
70000W        W38229  41.384  28.300   4.267
70001W        W38230  31.229  33.378  10.776
70002W        W38231   4.321  42.606   4.186
70003W        W38232  28.340  41.042  12.358
70004W        W38233  27.759   2.137  12.813
70005W        W38234  34.969  41.020  12.853
70006W        W38235   3.317   0.206  13.923
70007W        W38236  20.167  22.161   0.910
70008W        W38237  10.415  20.242   4.656
70009W        W38238   5.034  30.121  11.096
70010W        W38239  34.550  44.337  14.870
70011W        W38240  17.071  27.941   3.628
70012W        W38241  29.956   5.828  11.445
70013W        W38242  42.851  39.918  10.714
70014W        W38243  30.551  40.047  14.442
70015W        W38244   3.319  23.085  14.217
70016W        W38245  27.544  25.339   2.392
70017W        W38246   6.838  18.626   3.429
70018W        W38247  20.482  10.151   3.661
70019W        W38248  20.578  10.602   2.364
70020W        W38249  26.648  38.568  12.780
70021W        W38250  27.056  28.531  14.867
70022W        W38251   1.685  21.288  13.827
70023W        W38252  19.185  17.606   1.886
70024W        W38253  44.329  16.363   1.734
70025W        W38254   5.714  28.656  14.894
70026W        W38255  34.565   9.738  12.453
70027W        W38256  38.473  35.848   2.058
70028W        W38257  10.694  17.349  13.335
70029W        W38258  17.543  11.689   1.500
70030W        W38259  33.265  30.463  11.259
70031W        W38260  28.383  25.589  14.416
70032W        W38261  21.154  29.985   1.009
70033W        W38262   1.390  18.314   1.215
70034W        W38263  20.585  31.609   0.587
70035W        W38264   6.998  24.920  11.173
70036W        W38265  33.598   2.966  14.388
70037W        W38266  13.525   8.321   1.912
70038W        W38267  43.471  22.212   3.639
70039W        W38268  20.496  23.929   0.733
70040W        W38269  12.240  39.648  14.824
70041W        W38270   4.340  40.746   3.115
70042W        W38271   1.441  24.110  10.781
70043W        W38272  15.286  27.547   0.465
70044W        W38273  33.929  37.177  10.477
70045W        W38274  21.589  35.559   0.311
70046W        W38275  32.467  18.232   2.733
70047W        W38276  22.708   9.264  12.936
70048W        W38277  16.786  25.039   2.730
70049W        W38278  15.258  42.059   4.176
70050W        W38279  41.816  40.865  11.190
70051W        W38280  25.073   1.274   3.369
70052W        W38281  10.350   2.880   0.258
70053W        W38282  32.556  10.252  11.136
70054W        W38283  28.780  38.355  14.430
70055W        W38284   2.962  25.722  11.562
70056W        W38285  15.417  39.593  10.486
70057W        W38286  30.920  28.713  11.533
70058W        W38287  12.704  30.618   2.071
70059W        W38288  25.447  36.626   9.829
70060W        W38289  31.123  15.665   3.199
70061W        W38290   8.155  25.163  11.967
70062W        W38291  35.394  14.854   3.667
70063W        W38292  27.094  13.073  12.427
70064W        W38293   3.636  32.982  11.541
70065W        W38294  40.028  43.483  13.542
70066W        W38295  32.300  30.279  11.385
70067W        W38296  44.353   8.954   1.354
70068W        W38297  17.212   3.779   3.054
70069W        W38298  15.470  25.691  11.656
70070W        W38299  31.158  32.510   3.995
70071W        W38300  35.670  22.442  12.509
70072W        W38301  18.523   4.854  10.724
70073W        W38302  32.942   9.582   3.719
70074W        W38303  32.478  15.878   1.380
70075W        W38304   2.336  31.994   3.578
70076W        W38305   6.695  12.866   3.713
70077W        W38306  17.620  40.698  14.252
70078W        W38307  43.242  41.002   0.797
70079W        W38308   7.889  38.337   2.379
70080W        W38309  43.401   4.064   4.799
70081W        W38310  21.708  24.103   2.363
70082W        W38311  23.274  18.878  11.550
70083W        W38312  14.178  43.142   0.886
70084W        W38313  26.971   9.093  14.754
70085W        W38314   9.812   4.282  11.618
70086W        W38315  17.577  33.361   2.326
70087W        W38316   3.250   7.260   1.749
70088W        W38317  29.178  37.809   3.195
70089W        W38318  35.934   4.443   4.215
70090W        W38319  20.197  12.038  11.084
70091W        W38320  15.707   8.658  13.198
70092W        W38321  12.109  41.916   3.793
70093W        W38322  39.078  19.977  11.189
70094W        W38323  44.955   4.286  12.062
70095W        W38324  41.529  35.269   2.808
70096W        W38325  28.068   0.475   2.241
70097W        W38326  12.408  15.043  11.075
70098W        W38327  42.520  34.433   4.303
70099W        W38328  15.532  11.879   1.904
70100W        W38329   6.717   8.405  12.485
70101W        W38330   2.229  27.145  10.547
70102W        W38331  32.800  35.881  13.690
70103W        W38332  32.554  17.299   2.730
70104W        W38333  18.716  27.645  10.479
70105W        W38334  42.268  15.306   3.349
70106W        W38335   9.268   1.415   4.381
70107W        W38336  35.137  15.571  14.884
70108W        W38337  28.678   2.894  10.680
70109W        W38338  37.989  43.913   3.064
70110W        W38339  31.519  35.072  11.228
70111W        W38340   3.017  28.862  11.144
70112W        W38341  13.320  10.825  13.410
70113W        W38342  35.943  13.092  14.070
70114W        W38343   5.127  35.564   3.157
70115W        W38344  44.356  43.963   0.587
70116W        W38345  35.476  22.651  12.077
70117W        W38346  32.038  17.077   0.236
70118W        W38347  27.904  12.553   2.280
70119W        W38348  25.698  38.474  12.938
70120W        W38349  34.537   8.932   4.289
70121W        W38350  22.908  22.733   3.232
70122W        W38351  31.436  29.468   4.027
70123W        W38352  37.437  10.620  10.586
70124W        W38353  26.571  43.956  13.459
70125W        W38354  16.539  42.440  13.431
70126W        W38355  44.401  39.560   4.215
70127W        W38356  37.679  29.482   3.537
70128W        W38357  12.157  37.583  12.031
70129W        W38358  19.805  33.142   0.433
70130W        W38359  17.836  38.297  11.952
70131W        W38360   6.190  30.003   3.667
70132W        W38361  22.166  13.667   1.282
70133W        W38362  32.937   1.208   2.914
70134W        W38363   2.914  21.891  14.977
70135W        W38364  28.692   8.721   4.374
70136W        W38365  31.868  31.035  13.492
70137W        W38366  36.939  43.073   2.612
70138W        W38367   2.355  29.364  10.676
70139W        W38368  17.696  29.071   0.086
70140W        W38369  23.180  21.046   3.684
70141W        W38370  41.131  38.993   2.830
70142W        W38371  25.831  11.228   0.053
70143W        W38372  19.634  42.425  13.029
70144W        W38373  31.871   1.773  11.253
70145W        W38374  20.322  24.779  14.874
70146W        W38375   3.904  26.043  10.665
70147W        W38376   2.576   2.667  14.837
70148W        W38377  24.031  43.698  14.800
70149W        W38378  11.881   3.199  12.994
70150W        W38379  34.503  19.296  12.468
70151W        W38380   2.734   1.845   0.574
70152W        W38381  11.543  43.460  13.259
70153W        W38382   9.545  25.638   4.609
70154W        W38383  11.600  25.643  13.297
70155W        W38384   1.863   0.494  11.224
70156W        W38385  31.492  39.370  11.834
70157W        W38386  26.987  20.093   4.660
70158W        W38387  33.213   6.734  14.513
70159W        W38388  21.847  32.804   1.426
70160W        W38389  27.748  44.537   4.877
70161W        W38390  44.435  26.261   0.806
70162W        W38391  33.640  29.719   2.712
70163W        W38392   8.636  15.123  10.682
70164W        W38393  26.776  27.306  12.171
70165W        W38394  44.294  22.686  11.144
70166W        W38395  33.506  13.731   1.166
70167W        W38396  10.243  14.668   1.917
70168W        W38397   8.085  33.383   3.679
70169W        W38398   9.952  15.346   1.833
70170W        W38399  30.882  13.150  12.531
70171W        W38400  32.945   5.176   0.080
70172W        W38401   2.402  21.472   0.666
70173W        W38402  12.097   3.739  14.351
70174W        W38403   3.953  14.269   0.619
70175W        W38404  21.765  31.000   0.230
70176W        W38405  43.702  30.179   2.647
70177W        W38406  36.408   0.433   0.531
70178W        W38407  41.697   0.037   0.924
70179W        W38408  27.047  21.486   0.824
70180W        W38409  15.931  34.973   4.025
70181W        W38410  36.964  43.999   2.163
70182W        W38411  44.803  21.067  12.885
70183W        W38412  43.515   9.393  14.814
70184W        W38413  34.479  24.869  13.848
70185W        W38414  23.010  12.704  14.056
70186W        W38415  21.022  25.785  11.556
70187W        W38416  40.707  38.118  14.870
70188W        W38417   1.451  12.053  12.731
70189W        W38418   4.771   8.281  11.140
70190W        W38419   8.323  36.960  12.737
70191W        W38420  14.497   8.752   0.133
70192W        W38421  24.486  31.910   1.993
70193W        W38422  16.799   8.858  14.797
70194W        W38423  40.280   3.313  12.875
70195W        W38424  35.361  19.206   1.283
70196W        W38425   6.125   2.823  12.320
70197W        W38426  41.120   8.138   0.692
70198W        W38427   8.479  25.620   4.514
70199W        W38428  12.846  21.301  10.960
70200W        W38429   1.780  33.119  13.895
70201W        W38430  43.287  22.865  11.078
70202W        W38431  30.290  25.912   1.186
70203W        W38432  33.037  20.051   4.578
70204W        W38433  41.559  19.015  12.649
70205W        W38434  37.843  42.606  12.532
70206W        W38435  35.019   6.577  12.003
70207W        W38436  28.229  44.392  13.821
70208W        W38437  13.358  22.051   0.943
70209W        W38438  41.025  38.946  14.275
70210W        W38439  27.206  42.483  12.567
70211W        W38440   7.778  29.787   2.800
70212W        W38441  41.375  28.148   3.789
70213W        W38442  34.651   2.755  13.520
70214W        W38443  25.399  40.530   0.673
70215W        W38444  24.603  28.090  10.625
70216W        W38445  30.585   7.783   3.853
70217W        W38446   1.272   1.684  13.977
70218W        W38447  16.977  29.371   4.929
70219W        W38448   7.810  12.114  10.973
70220W        W38449  19.484  16.115  11.472
70221W        W38450  41.307   9.715  14.823
70222W        W38451  33.892   1.810  13.875
70223W        W38452  29.944   1.732   3.204
70224W        W38453  25.125  17.726  13.336
70225W        W38454  31.273  27.917  11.747
70226W        W38455   1.525  22.971  14.099
70227W        W38456  39.963  42.729   2.861
70228W        W38457   7.159   5.345   4.429
70229W        W38458  24.250   1.560   3.224
70230W        W38459  40.549  34.078  12.481
70231W        W38460  10.135  11.772   4.140
70232W        W38461  13.687   6.524   0.100
70233W        W38462  29.425  12.757  11.124
70234W        W38463   2.975  23.255  12.354
70235W        W38464  27.301  22.596   5.100
70236W        W38465   4.451   0.261  14.519
70237W        W38466  33.352  20.012   4.983
70238W        W38467  42.321   1.782  12.860
70239W        W38468   1.223   2.712  13.835
70240W        W38469  15.513   3.945   0.869
70241W        W38470  18.087  39.199   4.906
70242W        W38471  12.678  22.003  13.966
70243W        W38472  34.338  23.539   2.215
70244W        W38473  27.575   9.733  13.008
70245W        W38474   4.794  33.088   3.517
70246W        W38475  39.454  37.840  12.366
70247W        W38476   2.841  41.493  10.668
70248W        W38477  22.216  19.757  14.101
70249W        W38478  11.715  18.793  13.844
70250W        W38479  33.767   7.270  13.206
70251W        W38480  15.786   5.325  13.019
70252W        W38481  15.780  44.207  14.661
70253W        W38482   3.866  19.623  12.787
70254W        W38483  28.529  32.034  14.018
70255W        W38484  14.090  42.025   4.057
70256W        W38485  34.816  30.447  11.984
70257W        W38486  42.669  12.305  13.301
70258W        W38487   1.361  20.526  11.254
70259W        W38488   7.193  44.049  14.174
70260W        W38489  31.041   7.201   5.042
70261W        W38490  38.106   9.712   4.872
70262W        W38491  13.331  26.805   3.279
70263W        W38492   9.634  38.505  13.789
70264W        W38493  21.540  25.949   1.731
70265W        W38494  16.715   9.380   4.819
70266W        W38495   3.133  18.681   4.309
70267W        W38496  14.043  31.531   4.684
70268W        W38497  34.640  19.708  12.967
70269W        W38498  16.287  28.086  14.831
70270W        W38499  40.265  18.637   2.546
70271W        W38500  15.868  19.566   1.646
70272W        W38501  44.499  26.400  14.836
70273W        W38502   8.712  37.634   0.188
70274W        W38503   6.443  37.866  12.421
70275W        W38504  27.529   1.926  11.979
70276W        W38505  13.685  12.388  12.496
70277W        W38506  25.502   2.718   0.931
70278W        W38507  40.238  20.983   2.339
70279W        W38508   3.986  11.138  13.486
70280W        W38509  34.175   8.072  14.380
70281W        W38510  27.877  22.622   2.855
70282W        W38511  17.977  38.446   0.720
70283W        W38512  13.965  17.326  10.683
70284W        W38513  20.098  12.673  12.875
70285W        W38514   5.397  25.485   4.504
70286W        W38515  42.218  14.303  10.738
70287W        W38516   2.503   4.339  12.971
70288W        W38517  18.383  35.585   4.953
70289W        W38518   6.677  32.093   3.006
70290W        W38519   6.067  15.270  14.376
70291W        W38520  43.964  21.282  13.831
70292W        W38521  32.158   8.688  12.284
70293W        W38522  12.840   9.146   3.822
70294W        W38523  38.761   1.167   3.567
70295W        W38524  22.643  12.873  12.537
70296W        W38525   4.461  22.050  10.643
70297W        W38526   2.292  15.244  14.416
70298W        W38527  18.694  41.897  14.936
70299W        W38528   1.814  38.251  13.566
70300W        W38529  43.405   3.063   4.218
70301W        W38530  37.783   8.724  13.033
70302W        W38531  34.537  39.386  13.344
70303W        W38532   8.177  19.061  14.814
70304W        W38533   8.635  38.473  11.983
70305W        W38534  13.610  33.713   1.250
70306W        W38535  31.517  16.778  11.310
70307W        W38536  35.303  43.970  11.023
70308W        W38537  17.835  41.418   1.791
70309W        W38538   0.216  19.604   0.490
70310W        W38539  12.835  24.746   0.682
70311W        W38540   4.047  22.987   4.267
70312W        W38541  28.747  24.877   2.151
70313W        W38542   1.795  22.235  13.527
70314W        W38543  13.283  29.854   2.621
70315W        W38544  16.103  31.136   1.688
70316W        W38545  12.197  23.890   1.844
70317W        W38546  14.884  21.965   3.195
70318W        W38547  33.790  37.932  12.330
70319W        W38548  15.559   0.102   0.948
70320W        W38549   9.863  23.976   0.479
70321W        W38550  22.347  34.066  12.891
70322W        W38551  41.714  30.073   9.876
70323W        W38552   4.644  23.613  10.257
70324W        W38553  20.619  43.522  13.706
70325W        W38554   5.958  30.899  11.627
70326W        W38555  34.288  39.004  13.016
70327W        W38556  34.920  34.017   2.816
70328W        W38557  20.708  18.424   3.564
70329W        W38558  25.104  15.360  10.192
70330W        W38559  27.569  27.129  11.523
70331W        W38560  36.298  18.692  10.452
70332W        W38561  14.630  35.125   0.718
70333W        W38562  22.886  17.580  11.893
70334W        W38563  31.963  32.974  11.588
70335W        W38564  31.269  10.580  13.364
70336W        W38565   6.937   0.075   2.296
70337W        W38566  41.837   5.276  12.920
70338W        W38567  25.414  24.572  13.552
70339W        W38568  10.895  11.337   9.758
70340W        W38569  43.723  17.393   3.141
70341W        W38570  16.261   6.787  14.939
70342W        W38571  32.460   9.828  14.544
70343W        W38572  16.942  18.666  14.439
70344W        W38573  42.735  38.771   0.339
70345W        W38574   5.354  20.688   2.352
70346W        W38575  23.203  36.116   4.157
70347W        W38576  35.112   7.097  14.208
70348W        W38577  39.358  22.983  13.411
70349W        W38578  18.679  27.959   2.196
70350W        W38579  43.234  28.428   3.923
70351W        W38580   7.024  24.399   3.851
70352W        W38581  41.968  11.806  14.522
70353W        W38582  26.596   4.259  14.407
70354W        W38583  43.790  12.726  10.757
70355W        W38584  12.126   0.327   0.192
70356W        W38585  31.468  30.891   1.377
70357W        W38586   9.823   5.178  14.958
70358W        W38587   4.904   4.496  11.983
70359W        W38588  16.070  37.583   2.768
70360W        W38589   2.429  31.762  13.113
70361W        W38590  30.537  14.213  13.952
70362W        W38591  37.216  24.715   1.383
70363W        W38592  22.070  13.150   1.027
70364W        W38593  23.040  40.511  11.015
70365W        W38594  26.572  18.780   2.697
70366W        W38595  37.051  43.706  10.700
70367W        W38596  28.544  34.245  13.130
70368W        W38597  33.932  39.021  14.917
70369W        W38598   7.009  11.848   4.332
70370W        W38599   1.328  28.369   3.267
70371W        W38600  18.696  28.355  13.564
70372W        W38601   9.970  34.048  14.198
70373W        W38602  42.435  12.728  13.105
70374W        W38603   6.194  41.321  14.360
70375W        W38604  29.776  18.823  10.367
70376W        W38605  30.458   1.884  10.702
70377W        W38606   1.756  22.456   0.265
70378W        W38607   3.557  36.908   3.932
70379W        W38608   4.818  14.587  13.352
70380W        W38609  36.796   6.230   3.181
70381W        W38610   3.634  40.346   4.201
70382W        W38611  20.127  27.199   3.083
70383W        W38612   4.321   5.710  11.604
70384W        W38613  10.645  31.944  14.777
70385W        W38614  21.177  37.664  13.958
70386W        W38615  36.012  30.135   4.209
70387W        W38616   5.889  15.634  11.953
70388W        W38617   3.035  16.532  14.214
70389W        W38618  16.001  22.595   5.180
70390W        W38619  20.819  25.628  11.091
70391W        W38620  13.425  13.271  10.882
70392W        W38621  30.560   4.625  13.231
70393W        W38622  19.307  26.059  12.593
70394W        W38623  30.359  33.425   2.150
70395W        W38624  20.782  27.028  13.517
70396W        W38625  13.281   5.577  14.241
70397W        W38626  22.735   8.775  14.900
70398W        W38627   5.495  37.008   4.542
70399W        W38628  14.100  29.738  14.901
70400W        W38629  17.138  39.791  13.038
70401W        W38630  24.499  23.597  14.572
70402W        W38631  21.537   5.995  12.950
70403W        W38632  20.735  34.453   4.681
70404W        W38633  24.602  27.457   0.703
70405W        W38634  41.453   7.971   3.736
70406W        W38635  18.772  10.936  13.022
70407W        W38636   4.922  28.027  12.892
70408W        W38637  40.955  26.172   4.132
70409W        W38638   1.756   4.400  10.771
70410W        W38639  18.791  24.230  14.973
70411W        W38640   5.163   2.412  14.002
70412W        W38641   2.852   9.822   0.934
70413W        W38642  32.866  38.667  11.724
70414W        W38643  20.652  29.464  12.810
70415W        W38644  32.641  41.125   2.652
70416W        W38645  16.716  31.506  11.144
70417W        W38646  37.055  24.771   1.892
70418W        W38647   2.645   1.389  11.413
70419W        W38648  15.579  39.180   2.478
70420W        W38649  36.593  17.775   1.506
70421W        W38650  16.218  19.697  12.410
70422W        W38651   4.647  38.944   3.547
70423W        W38652  27.703  19.050   0.586
70424W        W38653  43.006   9.343   4.688
70425W        W38654  21.523  23.051  11.107
70426W        W38655  17.698  36.336   3.617
70427W        W38656  16.106  20.425   1.658
70428W        W38657   7.580  18.853  11.710
70429W        W38658  15.316  40.971  13.713
70430W        W38659   3.016  27.939  12.006
70431W        W38660  11.761  28.871   2.919
70432W        W38661  44.873  18.327  10.598
70433W        W38662  25.440  38.440   2.709
70434W        W38663  42.937  13.701  11.917
70435W        W38664  22.613   0.705  13.882
70436W        W38665  12.321  23.664  14.968
70437W        W38666   0.203  37.825  10.731
70438W        W38667  23.117  10.365   3.357
70439W        W38668  28.633  43.571   4.178
70440W        W38669  36.468  21.662   0.050
70441W        W38670   1.258  21.073   0.410
70442W        W38671   7.665  19.220  14.830
70443W        W38672  43.487  30.867   2.215
70444W        W38673  34.047   4.840  14.006
70445W        W38674  44.834  10.887  11.887
70446W        W38675  23.008  28.576   1.975
70447W        W38676   4.692  42.859   3.760
70448W        W38677  13.241  44.083   2.263
70449W        W38678  21.643  15.804  11.905
70450W        W38679  35.589  38.074   3.263
70451W        W38680  40.106   1.876  13.460
70452W        W38681  44.756  35.863  12.964
70453W        W38682  12.125  12.111   0.033
70454W        W38683  43.969  11.649  12.750
70455W        W38684  23.146  35.410   1.628
70456W        W38685  16.126  37.212   2.413
70457W        W38686  18.727  21.351   0.488
70458W        W38687  18.978  38.009   1.387
70459W        W38688  32.923  17.853  12.093
70460W        W38689  39.443  17.220  10.701
70461W        W38690  14.079  43.956  14.033
70462W        W38691  32.835  11.325   1.555
70463W        W38692  32.543  32.406   3.895
70464W        W38693   3.909  19.192  10.490
70465W        W38694   5.941  21.080  11.190
70466W        W38695  31.160  37.020  11.922
70467W        W38696  29.784  35.495   4.802
70468W        W38697   1.301  30.190  12.476
70469W        W38698  20.054  32.935   1.658
70470W        W38699  34.068  32.030  12.340
70471W        W38700  14.946  43.316   4.293
70472W        W38701  44.760  18.701  11.541
70473W        W38702  19.070  26.704   3.640
70474W        W38703  17.735  32.145  13.394
70475W        W38704   4.319   4.898   2.764
70476W        W38705  22.367  26.662   4.560
70477W        W38706  31.451  37.292   1.073
70478W        W38707  11.198  44.802  11.934
70479W        W38708  26.724  27.862   9.978
70480W        W38709  10.190  28.965  12.618
70481W        W38710  28.887  25.898  13.437
70482W        W38711  25.596  16.584   4.075
70483W        W38712  12.112  36.052   1.474
70484W        W38713   9.405  29.900   1.319
70485W        W38714  35.058  16.720   3.685
70486W        W38715   9.229  18.213   4.766
70487W        W38716  39.959  32.286   0.450
70488W        W38717  28.516  23.787   1.375
70489W        W38718   9.993   9.851  10.227
70490W        W38719  29.095   1.341  13.291
70491W        W38720   2.944  17.808   2.861
70492W        W38721   7.636  20.223   2.242
70493W        W38722  39.525  28.612   5.439
70494W        W38723  44.726   2.482  13.317
70495W        W38724  32.164  35.617   1.438
70496W        W38725  27.514   7.814   2.636
70497W        W38726  39.970  44.927   3.087
70498W        W38727  31.517  23.436  14.536
70499W        W38728  24.465  21.535   2.655
70500W        W38729   7.669  23.547   3.909
70501W        W38730   1.829  43.280  12.069
70502W        W38731  23.483  22.812  11.524
70503W        W38732  38.306  11.311   4.737
70504W        W38733  16.577  18.870   2.719
70505W        W38734  31.852  30.585   0.145
70506W        W38735  22.990  42.557  14.980
70507W        W38736  13.865  12.430   3.710
70508W        W38737  23.890   7.915   0.385
70509W        W38738  39.846  14.110  13.401
70510W        W38739   5.240  17.147  12.507
70511W        W38740   9.320   3.412  10.239
70512W        W38741  14.816  29.490  10.315
70513W        W38742   4.359  35.043  12.077
70514W        W38743  27.564  17.010  14.389
70515W        W38744  11.511  10.657  13.519
70516W        W38745  21.083  15.131  12.551
70517W        W38746  16.015  39.475   0.906
70518W        W38747  26.795  35.483   2.262
70519W        W38748   2.523  42.128  11.508
70520W        W38749  39.937  12.904  13.957
70521W        W38750   4.675  33.380   0.391
70522W        W38751  29.565  42.071   0.367
70523W        W38752  26.411  34.623   2.733
70524W        W38753  42.359  31.936   0.787
70525W        W38754  21.633  20.529  11.117
70526W        W38755   6.894   5.240  12.519
70527W        W38756  21.935  17.221   4.411
70528W        W38757  39.429  19.124   4.510
70529W        W38758   4.396  20.237  14.089
70530W        W38759  30.407   6.706  11.486
70531W        W38760  29.029  16.364   3.182
70532W        W38761  38.024  26.553   4.548
70533W        W38762  40.147  11.228   4.524
70534W        W38763  11.223  22.441   1.231
70535W        W38764  38.091   5.092  10.183
70536W        W38765  32.636  25.684   4.318
70537W        W38766  44.325  33.576   2.385
70538W        W38767   2.978  11.278  11.133
70539W        W38768  11.219   7.244  14.396
70540W        W38769  10.680  19.314  10.738
70541W        W38770  38.518  39.473   3.880
70542W        W38771  14.174  39.575  11.040
70543W        W38772  10.580  42.243  13.452
70544W        W38773   7.337   5.283   2.290
70545W        W38774  41.929  21.689   4.489
70546W        W38775   3.511  15.679  13.429
70547W        W38776  19.460  21.512   0.533
70548W        W38777  22.796  17.209   4.394
70549W        W38778  22.705   5.411   3.141
70550W        W38779  26.607  15.297   2.046
70551W        W38780  41.372  13.939   5.112
70552W        W38781   1.684  34.636   3.275
70553W        W38782  27.076  38.208   2.707
70554W        W38783   0.314  18.859   0.744
70555W        W38784  26.943  22.165   2.151
70556W        W38785  16.988  22.654  10.265
70557W        W38786  19.062  12.226  13.471
70558W        W38787   3.943   7.953   3.768
70559W        W38788   7.186   7.412   3.737
70560W        W38789  43.799  34.856  12.586
70561W        W38790  25.413   0.156  13.311
70562W        W38791  42.147  23.752  14.422
70563W        W38792  36.537  33.656  13.868
70564W        W38793  17.853  42.327   0.123
70565W        W38794   9.209  15.926   4.953
70566W        W38795  33.694  11.976   5.028
70567W        W38796  14.696  33.415   4.370
70568W        W38797  33.133  22.605   4.516
70569W        W38798  39.525  37.330  14.437
70570W        W38799  14.683  36.807   3.281
70571W        W38800  31.132  26.504   0.289
70572W        W38801  13.363  16.042  14.499
70573W        W38802  29.032  28.490   0.302
70574W        W38803  31.019  36.987  13.927
70575W        W38804  13.672  10.662  14.391
70576W        W38805  38.809  35.738  11.485
70577W        W38806  10.203  39.781  12.938
70578W        W38807  17.617  36.866  10.540
70579W        W38808  23.658  25.660  14.101
70580W        W38809  38.486  43.033  12.076
70581W        W38810  29.405  26.506   1.196
70582W        W38811  10.303  41.444   4.623
70583W        W38812  34.736  34.027  13.811
70584W        W38813  33.409  11.405  10.984
70585W        W38814  40.387  28.441   1.424
70586W        W38815  39.118  14.622  11.058
70587W        W38816  40.938   1.441   3.259
70588W        W38817  44.044  29.654   1.812
70589W        W38818  14.969  38.995  10.757
70590W        W38819  42.496  21.056   4.697
70591W        W38820  12.360  43.822  14.911
70592W        W38821  33.324  30.486  14.867
70593W        W38822   1.833  44.181   4.487
70594W        W38823  33.595   4.164   0.783
70595W        W38824  43.998  19.356   1.096
70596W        W38825  39.284  42.959  13.467
70597W        W38826  31.376  30.803   2.784
70598W        W38827  23.277  39.274  13.865
70599W        W38828  16.409  15.575  12.949
70600W        W38829   6.687  44.566  13.479
70601W        W38830  41.379  10.924   1.786
70602W        W38831  22.615  43.772  13.111
70603W        W38832  18.287  24.606  12.990
70604W        W38833  44.283  30.353  11.089
70605W        W38834   0.957   0.480   2.832
70606W        W38835   1.492  21.039   0.859
70607W        W38836   1.282   8.338   3.258
70608W        W38837   4.001  43.196   1.857
70609W        W38838  41.471  14.213   1.261
70610W        W38839  41.361  40.277   0.976
70611W        W38840  39.091  35.326   3.248
70612W        W38841  34.422   3.023   1.998
70613W        W38842  34.689  32.861  13.937
70614W        W38843   6.800  27.038  11.939
70615W        W38844  10.065   2.971   2.038
70616W        W38845  21.959  38.099   3.363
70617W        W38846  44.233   9.343   4.137
70618W        W38847  41.736  25.528   3.255
70619W        W38848  42.473  42.549   1.966
70620W        W38849  12.291  24.061   0.296
70621W        W38850  44.613  37.499   5.045
70622W        W38851  21.245  25.808  14.812
70623W        W38852  35.589  32.067   1.971
70624W        W38853  36.811  34.905   1.914
70625W        W38854  11.628  34.861  11.414
70626W        W38855  31.130  19.742   1.395
70627W        W38856  32.743   9.464  12.049
70628W        W38857  39.956  13.415  12.940
70629W        W38858  27.153  19.028   0.761
70630W        W38859   7.515  32.974  13.937
70631W        W38860  25.112  22.652   0.793
70632W        W38861  20.284  33.527   0.787
70633W        W38862   3.165  25.999  11.131
70634W        W38863  38.621  42.360   3.327
70635W        W38864  11.233  23.293  12.538
70636W        W38865   5.946   1.888   2.146
70637W        W38866   2.514  31.042  13.864
70638W        W38867  34.046  21.396  14.489
70639W        W38868  24.619  17.092   3.182
70640W        W38869  28.011  35.550  12.892
70641W        W38870   4.611  43.293  13.451
70642W        W38871   5.661   4.778   4.571
70643W        W38872  16.066   6.454   0.875
70644W        W38873  37.924  13.279   1.620
70645W        W38874   2.204   5.634  13.354
70646W        W38875  26.951  31.121   1.317
70647W        W38876  34.638   4.662   3.254
70648W        W38877  35.968  42.945   3.667
70649W        W38878  10.126   1.978   1.023
70650W        W38879  11.181   5.261  14.229
70651W        W38880   0.085   5.224   0.575
70652W        W38881  37.268  28.025   3.585
70653W        W38882  39.741   9.854   1.034
70654W        W38883  29.142  10.378  14.331
70655W        W38884   2.521  29.341  11.596
70656W        W38885   6.121  29.808   4.317
70657W        W38886  21.978  22.525   4.578
70658W        W38887  10.995  34.565  12.141
70659W        W38888  39.132  14.026   0.711
70660W        W38889  26.566  15.256  14.957
70661W        W38890  13.841  18.328  11.145
70662W        W38891  34.449  19.990   4.119
70663W        W38892   2.282  30.564   5.128
70664W        W38893  36.011  14.654  11.695
70665W        W38894  11.932  13.699  14.281
70666W        W38895   1.449  44.756  10.259
70667W        W38896  42.336   0.100   4.614
70668W        W38897  18.729  19.547  13.609
70669W        W38898  20.311  42.671  13.495
70670W        W38899   0.482  14.284   4.761
70671W        W38900  29.991  17.102  13.110
70672W        W38901  26.023  39.987  13.062
70673W        W38902  36.800  24.743  10.710
70674W        W38903  34.932  26.472   2.203
70675W        W38904  23.247  21.530  14.837
70676W        W38905  30.880  13.385   3.359
70677W        W38906  28.076  43.778   4.922
70678W        W38907   4.465  14.801  11.631
70679W        W38908  15.569  20.161  12.870
70680W        W38909  15.302  40.506  10.128
70681W        W38910  25.195  27.483   2.392
70682W        W38911  10.976  18.572  12.882
70683W        W38912   7.336  28.225   3.966
70684W        W38913  23.963  30.856   0.799
70685W        W38914  14.331  23.545  10.893
70686W        W38915   8.550   5.682   1.536
70687W        W38916  18.571  14.548  11.620
70688W        W38917  18.026   3.663   4.289
70689W        W38918   4.823  16.108  12.497
70690W        W38919  33.012   9.645  12.472
70691W        W38920  23.459   5.362  12.869
70692W        W38921  24.938  42.300  13.030
70693W        W38922   4.703  32.373   2.284
70694W        W38923  29.462   9.893  13.028
70695W        W38924  16.838  15.277   3.689
70696W        W38925  23.005  42.598   0.523
70697W        W38926  28.334  11.148  13.005
70698W        W38927   9.667  42.468   3.794
70699W        W38928   4.619  31.454   4.810
70700W        W38929  29.225  17.585   3.631
70701W        W38930  34.842  36.864  14.849
70702W        W38931  30.826   6.188   0.020
70703W        W38932  36.167  21.074   4.502
70704W        W38933  18.292   0.354   2.159
70705W        W38934  17.913  23.498   2.228
70706W        W38935  13.385  13.044   5.111
70707W        W38936  21.136   8.599   3.286
70708W        W38937  37.401  30.001  12.925
70709W        W38938  25.497   1.917  14.051
70710W        W38939  28.891  33.045   0.696
70711W        W38940  19.776  42.418   2.261
70712W        W38941  36.566  35.536  14.313
70713W        W38942  10.135  14.085  12.998
70714W        W38943   7.329   6.702   3.730
70715W        W38944  23.654  16.164  12.077
70716W        W38945  29.988  37.855   1.417
70717W        W38946  35.925  16.105  10.682
70718W        W38947  30.027   8.794   4.540
70719W        W38948  33.119   3.126   1.374
70720W        W38949  40.866   6.124   3.803
70721W        W38950  34.587   6.789   1.213
70722W        W38951  42.534  42.313  13.076
70723W        W38952  13.083  38.440   1.782
70724W        W38953  28.292  22.615  14.634
70725W        W38954  23.167   5.068  14.451
70726W        W38955   9.653  26.413   1.786
70727W        W38956  11.802  39.595   5.272
70728W        W38957  44.532   0.475   3.656
70729W        W38958  19.190  37.461  14.862
70730W        W38959  26.651  13.205   3.577
70731W        W38960  22.107  18.695  10.569
70732W        W38961  41.858  41.690  13.000
70733W        W38962  14.195  21.502  12.437
70734W        W38963  25.521  30.657  14.385
70735W        W38964  33.076  29.152  14.138
70736W        W38965  38.889  38.338   1.376
70737W        W38966   5.164  22.093   3.290
70738W        W38967  42.090  30.043   3.825
70739W        W38968  39.538  29.607   2.743
70740W        W38969  31.864  21.739   2.603
70741W        W38970  40.765   5.724  11.541
70742W        W38971   7.274  19.488   2.269
70743W        W38972  19.547  16.946  12.533
70744W        W38973   5.952  14.415   3.630
70745W        W38974  16.042  30.473  14.292
70746W        W38975  28.290  17.497  12.471
70747W        W38976  44.361  42.471  11.366
70748W        W38977  22.031  31.466  10.796
70749W        W38978  18.611  21.950  14.534
70750W        W38979   0.519  28.439   3.522
70751W        W38980   4.286  11.214  12.584
70752W        W38981   1.692  26.458  12.975
70753W        W38982  20.343  35.999   3.294
70754W        W38983   4.126  43.375  13.617
70755W        W38984   1.979  18.252   0.421
70756W        W38985  32.596  41.040  14.412
70757W        W38986   7.132  44.854  13.551
70758W        W38987  44.823  37.898   0.686
70759W        W38988  40.118  12.731   1.437
70760W        W38989   7.750  34.647  13.354
70761W        W38990  23.223  34.317   3.630
70762W        W38991  33.254  19.157  13.046
70763W        W38992   0.413  14.673  14.568
70764W        W38993  26.215  38.531  13.082
70765W        W38994  36.065  21.328   0.744
70766W        W38995  29.614   3.393  12.535
70767W        W38996  31.242  11.864  12.647
70768W        W38997  23.920  41.417  12.723
70769W        W38998  15.265  44.038   3.589
70770W        W38999  16.392  36.643  14.813
70771W        W39000   7.785  43.885  11.280
70772W        W39001  20.449  20.157   4.198
70773W        W39002  30.169  18.800   1.883
70774W        W39003   1.387  25.761   4.114
70775W        W39004  25.065  19.277   0.033
70776W        W39005  25.378  19.739   4.113
70777W        W39006  19.520  20.202   2.841
70778W        W39007  32.596   8.039  12.568
70779W        W39008  32.877   7.276   3.140
70780W        W39009  31.488   2.373  13.290
70781W        W39010   1.197  41.159  14.513
70782W        W39011   7.985   4.963  11.995
70783W        W39012   9.856  30.169   1.378
70784W        W39013   6.608  42.362  11.932
70785W        W39014   8.265   3.795   2.885
70786W        W39015   7.351  39.527   1.367
70787W        W39016   3.236  23.069   1.811
70788W        W39017  25.471   9.826   5.027
70789W        W39018  12.695  26.859  11.315
70790W        W39019  27.767  40.956   2.276
70791W        W39020   1.500  34.467  11.100
70792W        W39021  19.158   5.674  14.485
70793W        W39022  31.619  33.107  11.982
70794W        W39023  21.651   9.164   4.055
70795W        W39024  19.628  36.630   4.142
70796W        W39025  15.780  15.840  14.094
70797W        W39026  23.089  29.729   2.839
70798W        W39027   3.701  25.740   2.310
70799W        W39028  44.522  20.936  13.402
70800W        W39029   8.827  19.644   0.369
70801W        W39030  14.652   0.842  14.423
70802W        W39031  12.670  37.171  13.610
70803W        W39032  44.381  19.752   0.924
70804W        W39033  23.647  40.537  12.320
70805W        W39034  32.688   4.138  13.864
70806W        W39035  43.239   1.567   1.684
70807W        W39036  44.358  27.580  12.520
70808W        W39037  30.971   6.136   0.533
70809W        W39038  11.739  32.980   4.946
70810W        W39039  35.117  16.185  10.229
70811W        W39040  43.808  24.203  14.919
70812W        W39041  22.986  15.792   0.944
70813W        W39042  12.304  38.486   4.619
70814W        W39043   8.877   9.651  13.314
70815W        W39044  15.187  27.803  14.451
70816W        W39045  14.303   4.235  10.368
70817W        W39046  27.204  34.049   0.864
70818W        W39047  17.691  37.614   0.370
70819W        W39048  33.101  29.674  12.875
70820W        W39049  34.987  35.932   3.836
70821W        W39050  26.192   1.527   0.797
70822W        W39051  27.838  29.827   0.469
70823W        W39052  28.871   5.147  10.606
70824W        W39053  42.055   6.107   2.948
70825W        W39054   0.539  38.674   2.826
70826W        W39055  25.224  38.899  11.205
70827W        W39056  11.122  24.507   2.407
70828W        W39057  17.175  25.203   0.297
70829W        W39058  41.757   8.673  13.230
70830W        W39059  36.213  36.871  11.645
70831W        W39060   8.798  36.955  11.535
70832W        W39061  23.459  40.770   2.693
70833W        W39062   4.910  15.593  14.448
70834W        W39063  25.106  22.165  14.315
70835W        W39064  36.620  41.437   4.608
70836W        W39065  34.486  13.714   4.035
70837W        W39066   0.184   7.794   1.382
70838W        W39067   1.071  32.340   5.281
70839W        W39068  15.056  44.923   2.627
70840W        W39069  32.657  34.636   1.327
70841W        W39070  40.744   6.332   4.757
70842W        W39071  12.915  37.427   1.733
70843W        W39072  26.027  37.610  13.385
70844W        W39073  36.100   3.733  13.554
70845W        W39074  31.826  17.696   2.846
70846W        W39075  22.587  37.998  14.102
70847W        W39076   5.177  40.970  13.227
70848W        W39077  11.184   8.495  10.509
70849W        W39078   7.099  42.647  11.107
70850W        W39079   3.337  21.081  14.470
70851W        W39080  12.583  29.358  14.529
70852W        W39081   6.968  31.592   0.325
70853W        W39082   0.695  30.294  11.326
70854W        W39083  16.650  16.613   5.505
70855W        W39084   6.318  40.803   2.016
70856W        W39085  38.465  21.017  12.906
70857W        W39086   3.249  11.786   2.718
70858W        W39087  15.715  10.137   4.138
70859W        W39088  43.511  12.243  10.768
70860W        W39089  36.021   0.048   1.366
70861W        W39090  19.609  13.121  13.522
70862W        W39091   3.403  18.105   1.473
70863W        W39092  16.609  20.793  10.610
70864W        W39093   7.707  11.100  14.216
70865W        W39094  11.031  34.256  14.038
70866W        W39095  27.963   9.793   2.284
70867W        W39096   3.440  16.672  12.078
70868W        W39097   9.318  16.734  11.274
70869W        W39098  35.554   7.259   3.574
70870W        W39099   9.145  41.405  14.446
70871W        W39100  28.714  39.037   3.268
70872W        W39101  40.185   6.844   1.239
70873W        W39102   7.360  15.632  14.374
70874W        W39103  34.931  31.068  12.600
70875W        W39104  14.395   5.351   2.787
70876W        W39105  42.946  19.834   3.753
70877W        W39106   3.583  15.953   3.044
70878W        W39107  23.966  16.798  11.752
70879W        W39108  33.012  29.584  11.105
70880W        W39109  17.230  18.350   0.328
70881W        W39110   5.819  32.639  11.181
70882W        W39111  35.853   3.418   4.622
70883W        W39112  17.320   8.939  10.746
70884W        W39113  35.885  39.033   0.445
70885W        W39114  44.842  11.048   2.887
70886W        W39115   3.014  29.610   4.630
70887W        W39116  25.188  28.768   1.800
70888W        W39117  36.409  24.229   2.697
70889W        W39118  22.764   1.579  11.601
70890W        W39119  28.521  39.384  14.545
70891W        W39120  43.131  32.141  14.390
70892W        W39121  43.943   4.514  11.079
70893W        W39122  13.630  24.103  10.896
70894W        W39123  31.846   1.723  12.864
70895W        W39124   1.679   7.753  11.100
70896W        W39125  36.342  44.863  12.423
70897W        W39126  37.078  38.594   0.790
70898W        W39127  33.575  42.691   4.102
70899W        W39128   3.222   7.696  14.346
70900W        W39129   8.720  22.560  10.659
70901W        W39130  12.937  24.167   4.160
70902W        W39131  30.600  44.721  11.497
70903W        W39132  40.849  17.006   1.297
70904W        W39133   1.862   3.348   0.829
70905W        W39134  25.097  10.303   5.040
70906W        W39135   3.768   1.978  13.977
70907W        W39136  33.535  21.428  11.131
70908W        W39137  25.604  34.047  13.729
70909W        W39138   8.187  34.350   4.568
70910W        W39139  13.548  27.901  13.375
70911W        W39140  32.538  44.799   4.484
70912W        W39141  41.958   2.968  12.969
70913W        W39142  38.064   1.353   1.224
70914W        W39143   8.001  14.863   4.740
70915W        W39144   2.484   0.428   4.994
70916W        W39145  28.513   7.708  13.459
70917W        W39146   3.208  29.572   2.242
70918W        W39147  41.319  40.334  12.853
70919W        W39148  41.927   1.198   0.964
70920W        W39149  43.288  30.813  12.438
70921W        W39150   7.008  37.358   3.302
70922W        W39151  18.712  14.637   2.096
70923W        W39152  25.700  44.537   3.155
70924W        W39153  12.644  10.667  12.563
70925W        W39154  37.809  33.708  10.987
70926W        W39155  24.730  43.656  10.996
70927W        W39156  18.344  44.634  13.818
70928W        W39157  40.644   8.481  13.992
70929W        W39158  13.619  28.950   0.571
70930W        W39159  25.528  43.796   0.662
70931W        W39160   3.938  42.551  10.790
70932W        W39161   6.455  27.876  11.093
70933W        W39162   0.019  39.830   1.421
70934W        W39163  25.025   1.311  11.556
70935W        W39164  40.064  29.501  14.050
70936W        W39165  19.704  24.750  10.979
70937W        W39166  14.856  38.164  14.270
70938W        W39167   1.361  44.557  13.016
70939W        W39168  19.129  32.635   0.781
70940W        W39169  16.929  24.857  10.323
70941W        W39170   7.346  43.612   3.129
70942W        W39171  15.240  39.977   2.279
70943W        W39172  42.248   4.589  11.011
70944W        W39173   3.857  20.346  13.472
70945W        W39174  12.650  24.096   1.947
70946W        W39175  37.423  40.419   3.318
70947W        W39176   4.245  42.535   0.303
70948W        W39177  10.896  10.852  14.844
70949W        W39178  14.098  38.944  10.907
70950W        W39179  10.032  39.870   3.276
70951W        W39180  23.176  32.410  13.097
70952W        W39181  28.969  24.397   3.669
70953W        W39182  41.286  16.638   2.434
70954W        W39183  37.867  36.496   3.572
70955W        W39184  41.453  36.794  12.040
70956W        W39185   5.673  17.637   2.163
70957W        W39186  16.180  39.390   4.615
70958W        W39187   2.865  12.378   3.654
70959W        W39188  10.821   5.980  12.015
70960W        W39189  13.801  17.677   0.903
70961W        W39190  43.262   6.942   0.406
70962W        W39191  28.660  32.621  11.756
70963W        W39192  20.285  37.619   4.562
70964W        W39193  41.506  43.745   2.681
70965W        W39194  13.754  13.259  13.925
70966W        W39195  29.096  42.789   4.633
70967W        W39196  20.180  36.799  11.505
70968W        W39197  30.648   3.417  14.977
70969W        W39198  38.776  20.706   1.245
70970W        W39199   3.492  36.742  10.135
70971W        W39200  39.933  27.586  10.756
70972W        W39201   4.712   1.189   4.942
70973W        W39202  17.695  27.748  13.309
70974W        W39203  17.758   3.456   0.850
70975W        W39204   1.064  36.020  14.890
70976W        W39205  17.008  24.186  10.478
70977W        W39206  34.271  25.664  14.320
70978W        W39207  17.707  13.215  13.521
70979W        W39208  21.258  13.772   2.495
70980W        W39209  44.806  21.502   2.324
70981W        W39210  14.538  36.036   1.811
70982W        W39211  40.954  42.040  14.841
70983W        W39212  17.201  16.634  10.950
70984W        W39213  28.929  42.533  10.682
70985W        W39214   8.200   2.800   3.705
70986W        W39215  12.238  40.960  11.956
70987W        W39216   9.778  15.732  13.489
70988W        W39217  13.633  33.047  11.543
70989W        W39218  27.440  23.454   4.707
70990W        W39219  11.340  33.990   4.968
70991W        W39220  11.033  40.751   4.608
70992W        W39221  17.049  31.395   0.332
70993W        W39222  36.990  15.591   0.809
70994W        W39223   4.742  32.384  12.488
70995W        W39224  23.992  16.171   3.610
70996W        W39225  24.644  17.154  13.188
70997W        W39226  44.995   6.314   3.190
70998W        W39227  37.341   2.434   3.410
70999W        W39228  40.533   8.630   2.232
71000W        W39229   0.456   8.690  13.597
71001W        W39230  21.194   6.161  13.477
71002W        W39231  35.289  23.699   0.675
71003W        W39232  16.372  18.132   1.283
71004W        W39233   2.196   6.089   0.358
71005W        W39234  20.984  41.783  14.521
71006W        W39235  40.392  24.282  14.235
71007W        W39236   7.249  32.706   1.182
71008W        W39237  13.929  11.360   1.411
71009W        W39238  34.739  27.517  11.062
71010W        W39239  28.018  10.329   2.537
71011W        W39240  11.248  34.366  13.558
71012W        W39241  38.551   1.954   4.640
71013W        W39242  21.478  31.531  14.612
71014W        W39243  31.476  10.762  14.538
71015W        W39244  32.912  23.175  14.394
71016W        W39245  15.392   5.433  11.582
71017W        W39246  38.932  14.059  13.058
71018W        W39247   5.103  30.973  12.382
71019W        W39248  30.737  27.374  12.189
71020W        W39249  27.105   3.498   0.742
71021W        W39250  12.201   5.906   4.682
71022W        W39251  28.943   4.778  12.646
71023W        W39252  30.438   9.778   1.841
71024W        W39253  18.606   5.869   4.133
71025W        W39254  10.379  12.548   3.539
71026W        W39255  18.618  21.562  10.568
71027W        W39256  30.567   1.377   4.116
71028W        W39257  28.471   8.322   0.856
71029W        W39258  38.789  19.720   2.371
71030W        W39259  22.328   7.181  12.270
71031W        W39260   2.359  33.692   2.817
71032W        W39261  15.211   7.425   3.969
71033W        W39262  42.945  22.353  12.443
71034W        W39263  11.306   1.837  11.875
71035W        W39264  35.678  22.085   0.508
71036W        W39265  23.110  38.541  13.067
71037W        W39266   1.984  37.759  13.570
71038W        W39267  16.336   3.255   3.336
71039W        W39268  42.952   9.203   3.397
71040W        W39269  33.073  36.394   4.253
71041W        W39270  34.204  40.016   1.749
71042W        W39271  34.811  32.450   4.079
71043W        W39272  20.765  23.440   2.784
71044W        W39273   6.377  27.207   2.322
71045W        W39274  21.201  26.685  11.035
71046W        W39275  22.095  29.707  14.834
71047W        W39276  25.823  14.759   1.547
71048W        W39277  22.586  29.655  10.394
71049W        W39278  36.781   5.654   4.496
71050W        W39279   6.291  39.739   4.611
71051W        W39280  33.163  41.427  10.418
71052W        W39281  25.581   0.836  14.778
71053W        W39282  16.164  26.624   1.362
71054W        W39283  34.132   7.701  11.812
71055W        W39284  17.825  42.348   4.549
71056W        W39285  17.087  43.529  12.986
71057W        W39286   0.353  28.344  12.955
71058W        W39287  42.325  23.479   1.771
71059W        W39288   6.328  11.430   0.836
71060W        W39289  12.273  26.582   4.049
71061W        W39290  41.905  23.151   4.396
71062W        W39291  25.662  10.738  13.846
71063W        W39292  11.300   2.036   1.520
71064W        W39293   1.718  22.616   1.733
71065W        W39294   8.503  12.204  12.922
71066W        W39295  16.076  20.332  11.643
71067W        W39296  37.985   2.055  13.362
71068W        W39297  44.949  13.239   1.008
71069W        W39298  10.657   3.753   3.675
71070W        W39299   9.778  28.880  10.545
71071W        W39300  24.437  10.249  12.795
71072W        W39301  14.153  22.219  13.433
71073W        W39302  10.769  43.911  12.953
71074W        W39303  39.875  25.785   2.604
71075W        W39304  10.275  34.885  14.293
71076W        W39305  12.102  11.563   2.653
71077W        W39306  32.069   1.170   4.237
71078W        W39307  26.409  18.971   2.251
71079W        W39308  28.661  31.474  14.346
71080W        W39309  36.520  39.665  13.998
71081W        W39310  11.347  25.735   3.080
71082W        W39311   6.251  29.808   0.462
71083W        W39312   2.217   6.167   2.385
71084W        W39313  43.307  37.885  10.879
71085W        W39314   4.215  20.196  12.621
71086W        W39315  41.825  33.881   2.865
71087W        W39316  22.234  22.141  11.627
71088W        W39317   2.470  43.226   4.498
71089W        W39318  19.360  25.865   5.442
71090W        W39319  44.519  16.820   5.147
71091W        W39320  39.986  22.742  11.512
71092W        W39321   4.674   0.398  12.057
71093W        W39322   9.384  33.978   3.675
71094W        W39323   1.816   4.365   0.490
71095W        W39324  44.231  13.695  13.816
71096W        W39325  25.735  33.962   3.101
71097W        W39326  26.243  22.930   0.335
71098W        W39327  34.603  23.691   2.643
71099W        W39328  33.358  28.969  11.894
71100W        W39329  18.616   6.509   0.338
71101W        W39330  19.178  10.401   0.718
71102W        W39331  19.913  39.576   2.395
71103W        W39332  44.374   3.711  10.931
71104W        W39333  33.079   6.936  11.116
71105W        W39334  31.599  36.330  11.636
71106W        W39335   4.785  24.498   4.600
71107W        W39336   9.156  10.923   3.124
71108W        W39337  27.698  27.479   1.419
71109W        W39338  27.565  14.546   3.746
71110W        W39339  41.881  35.411  13.043
71111W        W39340  19.590  33.226  10.992
71112W        W39341  12.783  20.130   4.958
71113W        W39342   8.878   6.126  12.063
71114W        W39343   3.857  40.255   3.240
71115W        W39344  30.235  36.711  11.165
71116W        W39345  25.490  13.393   1.395
71117W        W39346  40.555  42.320  14.066
71118W        W39347  14.870  24.520   3.117
71119W        W39348  37.413  31.495   1.961
71120W        W39349  18.783  12.100   0.704
71121W        W39350  31.370  20.645   3.374
71122W        W39351  30.003  14.070   4.218
71123W        W39352  36.452  34.945  11.608
71124W        W39353  37.356  15.652   2.176
71125W        W39354  34.867   7.931  14.960
71126W        W39355  32.191  40.006  13.259
71127W        W39356   4.394   6.164  14.874
71128W        W39357  22.122  36.914   0.849
71129W        W39358  10.734  39.216   1.060
71130W        W39359  17.718  30.003  14.948
71131W        W39360  25.055  22.633  12.375
71132W        W39361   5.025  19.080  12.450
71133W        W39362  20.838  30.681  11.589
71134W        W39363  19.986   2.735  14.221
71135W        W39364  29.455  40.736   2.814
71136W        W39365  29.079  16.860   0.279
71137W        W39366   9.730  10.650   1.923
71138W        W39367  27.733   4.974   3.735
71139W        W39368  38.341  44.834  13.397
71140W        W39369  30.849  16.412   0.822
71141W        W39370  14.604  14.362   5.457
71142W        W39371  15.163  19.834   2.304
71143W        W39372  31.068  39.126   3.096
71144W        W39373  16.440  33.243  14.562
71145W        W39374   1.675  24.118   4.597
71146W        W39375  38.782   7.527  13.047
71147W        W39376   2.148   1.418  11.615
71148W        W39377  28.776  34.641  10.643
71149W        W39378   4.801  16.791  13.010
71150W        W39379  29.644  31.138   3.581
71151W        W39380  27.739  30.401   2.599
71152W        W39381  10.912  11.226   2.249
71153W        W39382  11.884  37.920  13.107
71154W        W39383  27.926  15.123   2.214
71155W        W39384   9.897  14.864  10.734
71156W        W39385  31.363   6.871   3.398
71157W        W39386  34.377  43.949  14.545
71158W        W39387  27.612   6.338   1.721
71159W        W39388  37.351   1.928   3.243
71160W        W39389  33.576  37.093   1.735
71161W        W39390  18.970   9.475   0.826
71162W        W39391   5.899  31.806   4.538
71163W        W39392  37.369  32.665  10.333
71164W        W39393   3.557  18.017   3.847
71165W        W39394  30.999  28.682   1.482
71166W        W39395  20.681  16.348  12.892
71167W        W39396  44.737  44.523  14.911
71168W        W39397  36.700   3.902   2.377
71169W        W39398   6.736  14.295   4.886
71170W        W39399  42.486   1.799  14.733
71171W        W39400   4.172   0.317  12.086
71172W        W39401  11.290  29.678   2.704
71173W        W39402  31.042   7.678  11.570
71174W        W39403  19.646   0.832  13.386
71175W        W39404  40.550  35.564  13.449
71176W        W39405  23.492  36.165   3.744
71177W        W39406  39.997  21.307  11.494
71178W        W39407  15.295  14.816  10.989
71179W        W39408   1.651  10.806   1.295
71180W        W39409  25.123  24.114  14.477
71181W        W39410  39.022   3.180   2.357
71182W        W39411  23.297  43.833   1.039
71183W        W39412   4.727  28.745  12.414
71184W        W39413  36.997  16.059  14.067
71185W        W39414  17.135  24.464  13.019
71186W        W39415   3.961  29.877  10.444
71187W        W39416  30.721  21.572   2.075
71188W        W39417  13.489   5.422   0.837
71189W        W39418  17.886  14.906  12.015
71190W        W39419  39.878  33.894   2.619
71191W        W39420  15.802  35.973   2.872
71192W        W39421   0.492  14.873  11.904
71193W        W39422  37.797  20.131  13.841
71194W        W39423   5.215  37.446   4.596
71195W        W39424  23.257  26.346   4.928
71196W        W39425  24.286   8.733  13.594
71197W        W39426  10.302  18.509   2.342
71198W        W39427  19.823  17.205  11.654
71199W        W39428   1.477  35.999   0.218
71200W        W39429  44.473   7.162  11.538
71201W        W39430   8.897  20.651   5.144
71202W        W39431  23.696  23.450   3.272
71203W        W39432   9.157  17.595  13.413
71204W        W39433  19.969  44.956   4.840
71205W        W39434  42.555  14.371   0.689
71206W        W39435  14.959  16.101  10.322
71207W        W39436  12.118   2.711   3.788
71208W        W39437  19.522  30.531   0.481
71209W        W39438  35.478  26.061   2.648
71210W        W39439  22.696  29.418   2.661
71211W        W39440  23.468  33.899   2.749
71212W        W39441  44.081  37.013   0.019
71213W        W39442  25.902   3.426  11.054
71214W        W39443  27.628  32.639   3.643
71215W        W39444  38.499  19.285   2.388
71216W        W39445   6.396  30.760   0.802
71217W        W39446  38.070  44.786  11.978
71218W        W39447  16.092   2.520   0.722
71219W        W39448  35.288   4.573  12.206
71220W        W39449  14.161  34.112  10.764
71221W        W39450  14.575   4.054   0.195
71222W        W39451  30.067  39.231  11.674
71223W        W39452  29.436  20.237  13.501
71224W        W39453  27.495  12.554   3.206
71225W        W39454  30.667  43.449  13.362
71226W        W39455  40.907  28.630  13.586
71227W        W39456  25.973  38.997  11.971
71228W        W39457  38.448   2.395   2.823
71229W        W39458  42.381  15.270   4.353
71230W        W39459  30.082  39.224  12.571
71231W        W39460  38.726   1.207   0.243
71232W        W39461  37.083  41.742   3.803
71233W        W39462  38.838  42.415   4.896
71234W        W39463  41.046  22.322  12.439
71235W        W39464  13.261  16.018   0.519
71236W        W39465  10.908   7.697  10.980
71237W        W39466  10.816  28.609   3.876
71238W        W39467  17.061  43.404   4.626
71239W        W39468   0.207  36.316   1.665
71240W        W39469   3.847   3.372  11.515
71241W        W39470   6.094  18.666   0.348
71242W        W39471  20.557  35.028   2.639
71243W        W39472   5.195  32.212  12.651
71244W        W39473  13.187  36.054  14.951
71245W        W39474  11.801   4.261  14.988
71246W        W39475  40.841  43.844  14.719
71247W        W39476   2.670   3.047  11.128
71248W        W39477   0.889  26.459   2.164
71249W        W39478  41.753  41.929  11.096
71250W        W39479  19.932  17.721  11.824
71251W        W39480  17.302  32.787   0.986
71252W        W39481  12.634  39.919   4.123
71253W        W39482  27.201  33.347   4.573
71254W        W39483  32.964  30.435  11.915
71255W        W39484   4.798  34.017   3.900
71256W        W39485   5.403  40.865   3.059
71257W        W39486  39.491  33.389  10.740
71258W        W39487  13.874   8.686   3.113
71259W        W39488  31.699  43.360   4.189
71260W        W39489  33.440  13.215  14.950
71261W        W39490  30.319  38.101   1.783
71262W        W39491  28.147  12.829  11.488
71263W        W39492  23.942  41.075  14.222
71264W        W39493  40.996  42.483   2.975
71265W        W39494  44.904  29.682  14.811
71266W        W39495  41.575  25.011  12.497
71267W        W39496  39.098  24.657   2.721
71268W        W39497  15.717   1.746  10.712
71269W        W39498  20.904  14.010  10.501
71270W        W39499  17.785  37.616  13.522
71271W        W39500   5.817  36.055   4.337
71272W        W39501  39.573  42.530  12.498
71273W        W39502   5.181  20.094  12.474
71274W        W39503   6.885  30.699   4.658
71275W        W39504  23.232  37.117  13.494
71276W        W39505  26.986  40.624  10.628
71277W        W39506  22.949  28.078   3.776
71278W        W39507  12.290  44.401   0.820
71279W        W39508   5.435  16.693   3.887
71280W        W39509  44.993  31.532   3.306
71281W        W39510   2.854   1.006   2.173
71282W        W39511  16.153  29.407   3.394
71283W        W39512   4.195  11.361  13.933
71284W        W39513  20.626  20.260   1.554
71285W        W39514  40.485  27.603  12.154
71286W        W39515  24.967  28.620  11.248
71287W        W39516  16.552   5.537  12.515
71288W        W39517  12.822  22.024   1.958
71289W        W39518  33.131  19.682   0.419
71290W        W39519  24.547  35.687   4.886
71291W        W39520  12.684  43.309  10.617
71292W        W39521  43.291  12.818   0.743
71293W        W39522  17.778  38.556   0.118
71294W        W39523  40.154   9.331  12.230
71295W        W39524  28.488  28.041   3.253
71296W        W39525  27.550  11.073  11.508
71297W        W39526   0.784  41.435  12.778
71298W        W39527  33.893  42.895  13.854
71299W        W39528   6.829  36.768  12.972
71300W        W39529  26.430   3.332   1.454
71301W        W39530  10.291  40.130   4.638
71302W        W39531   1.682  34.980   0.738
71303W        W39532  29.970   3.189   1.782
71304W        W39533  32.408  22.000   4.288
71305W        W39534  30.282   9.801  13.336
71306W        W39535  15.677  37.687  13.299
71307W        W39536  14.811  40.492   3.246
71308W        W39537  18.540  44.336   0.167
71309W        W39538  14.270  10.743  11.358
71310W        W39539   3.728  34.937   2.224
71311W        W39540   4.808  33.609   2.247
71312W        W39541  16.583  18.452  12.010
71313W        W39542   7.606   4.434   0.330
71314W        W39543  27.502  36.336  10.240
71315W        W39544   0.408  28.110  11.587
71316W        W39545  41.735  35.620   3.111
71317W        W39546  41.435  19.099  13.969
71318W        W39547   3.555   3.855  12.665
71319W        W39548   9.095  25.511   2.705
71320W        W39549   4.505  22.582   0.713
71321W        W39550  14.097  15.867   0.852
71322W        W39551  30.566  43.756   2.253
71323W        W39552  23.689   7.700  11.260
71324W        W39553  10.699  38.484   4.899
71325W        W39554  28.565   9.676   0.310
71326W        W39555  24.259  37.337  12.101
71327W        W39556  10.687   3.367  12.470
71328W        W39557  34.674  29.700   1.934
71329W        W39558  42.410  26.359   2.726
71330W        W39559  33.390  37.447   9.985
71331W        W39560  29.489  10.160   3.181
71332W        W39561  26.126  16.639   2.431
71333W        W39562  44.164  23.356   3.763
71334W        W39563   1.555  43.481   0.244
71335W        W39564  26.544  32.710  13.336
71336W        W39565  42.488  38.434  12.601
71337W        W39566  15.311  43.801  13.000
71338W        W39567  18.583  34.951   4.841
71339W        W39568  15.349  35.134   0.014
71340W        W39569  34.047  39.820   0.241
71341W        W39570  32.996  15.076  14.416
71342W        W39571   6.923  34.563   1.753
71343W        W39572  13.667  43.065   4.658
71344W        W39573  39.381  43.068  10.800
71345W        W39574  33.806  42.688  12.545
71346W        W39575  19.033  13.009  13.850
71347W        W39576  12.521  30.160   1.514
71348W        W39577  12.279  34.810  12.798
71349W        W39578  24.065  41.888  13.759
71350W        W39579  28.462  16.308  13.475
71351W        W39580   4.965  26.030  10.551
71352W        W39581   2.859  25.121  12.944
71353W        W39582  41.032  16.130  12.996
71354W        W39583  14.564  19.234  14.267
71355W        W39584  23.965  29.585  14.453
71356W        W39585   8.248  31.389   1.287
71357W        W39586  36.854   6.210   2.285
71358W        W39587  25.648  44.343  12.360
71359W        W39588  12.195   5.615   3.636
71360W        W39589  25.450  13.856   1.213
71361W        W39590  38.490  36.287   2.329
71362W        W39591  30.109   9.064   3.704
71363W        W39592  44.289  32.517   3.382
71364W        W39593  31.963  19.732   4.069
71365W        W39594  25.231  31.729   2.989
71366W        W39595  42.396  19.624   3.328
71367W        W39596  16.179   9.537   2.883
71368W        W39597  18.701   0.990  14.870
71369W        W39598   6.627  40.949  12.733
71370W        W39599  28.696  13.014  10.198
71371W        W39600  15.794  27.430   3.137
71372W        W39601  22.594  10.621  13.425
71373W        W39602  30.223   0.017   2.520
71374W        W39603  29.817  41.652  11.171
71375W        W39604  17.480  13.806  14.731
71376W        W39605  28.051  44.900  14.961
71377W        W39606  11.363  29.462   1.422
71378W        W39607  23.803   8.593   0.962
71379W        W39608   8.678  28.165   0.205
71380W        W39609  25.476  29.395  13.375
71381W        W39610   6.898  17.624   0.800
71382W        W39611  16.448   5.902  13.815
71383W        W39612  16.338  32.733  14.517
71384W        W39613  41.541  15.124   0.917
71385W        W39614  12.501  19.882  12.421
71386W        W39615  44.773  21.136  11.917
71387W        W39616   0.948   0.857   1.477
71388W        W39617  30.679  18.266   4.603
71389W        W39618  33.496   4.957   0.358
71390W        W39619  21.500  14.602  11.562
71391W        W39620  26.910  29.924  12.159
71392W        W39621  24.862   2.690  12.341
71393W        W39622   1.432   3.435  13.126
71394W        W39623  20.694  15.573  11.505
71395W        W39624  23.559  12.836   1.228
71396W        W39625   3.154  19.576   4.376
71397W        W39626   5.848  43.942  10.319
71398W        W39627  34.625  19.342   4.896
71399W        W39628  20.569   7.844   1.460
71400W        W39629  14.427  34.949  12.531
71401W        W39630  31.427  40.424   3.366
71402W        W39631   8.850  22.174  13.324
71403W        W39632  30.932  38.796   2.225
71404W        W39633  41.720  35.927  13.051
71405W        W39634  41.210  37.791   1.228
71406W        W39635   7.480  33.792  13.028
71407W        W39636  28.108   2.467  13.050
71408W        W39637  18.849  14.760   1.612
71409W        W39638   1.444   4.727   1.709
71410W        W39639   1.997  13.917   0.375
71411W        W39640  40.791  32.845  12.922
71412W        W39641   4.505   3.139  12.929
71413W        W39642   8.331  31.449  11.588
71414W        W39643  33.019  33.391   3.161
71415W        W39644   5.298   7.031  11.559
71416W        W39645  14.355  36.900   0.701
71417W        W39646  15.110  32.194  11.044
71418W        W39647  10.670  27.227   3.973
71419W        W39648   7.920   9.721   0.301
71420W        W39649  16.667  44.510  12.698
71421W        W39650  24.681  37.074   0.758
71422W        W39651  39.543  43.741   1.331
71423W        W39652   2.953   7.331   0.077
71424W        W39653  32.925  25.382   3.809
71425W        W39654   3.169   7.143  12.047
71426W        W39655  27.026  28.040   1.716
71427W        W39656  19.573  27.163   4.285
71428W        W39657   8.316  12.764  13.348
71429W        W39658   2.403  29.050  12.409
71430W        W39659  11.094  34.345   3.086
71431W        W39660  40.028  18.165   4.731
71432W        W39661   8.275  20.706   2.873
71433W        W39662   3.805  31.060   4.590
71434W        W39663   1.468  30.520   1.501
71435W        W39664  32.883  32.054   0.967
71436W        W39665  12.430  43.482  12.538
71437W        W39666  18.324  10.688   4.044
71438W        W39667  19.222  34.001   0.698
71439W        W39668  32.850   6.149  12.321
71440W        W39669  21.805   9.797  13.892
71441W        W39670  36.284  34.600  13.952
71442W        W39671  33.574  28.247   1.113
71443W        W39672   6.964  18.203  14.377
71444W        W39673  22.155  16.055   1.711
71445W        W39674  11.216   5.111   4.147
71446W        W39675  30.770  27.204  13.475
71447W        W39676   4.307   4.134  13.557
71448W        W39677  34.994  14.237  12.452
71449W        W39678  32.926  42.175   3.345
71450W        W39679   2.460  26.918  13.753
71451W        W39680  42.362  40.994   1.876
71452W        W39681  20.736  12.351  13.038
71453W        W39682   5.399  18.474   4.662
71454W        W39683  36.547  28.591   3.875
71455W        W39684  20.618  36.392   4.066
71456W        W39685  14.658  18.610   0.048
71457W        W39686  35.537   3.449  10.756
71458W        W39687   5.259  39.285  13.887
71459W        W39688   7.912  18.798   0.860
71460W        W39689  31.215   4.808   4.044
71461W        W39690   3.562   8.363  11.871
71462W        W39691  29.016   7.220   3.974
71463W        W39692  36.513  21.121  13.312
71464W        W39693  23.887   0.453   9.928
71465W        W39694   9.487  34.783  10.619
71466W        W39695   8.363  18.983  12.063
71467W        W39696  28.393   3.988  11.382
71468W        W39697   0.173  12.128  13.415
71469W        W39698  37.195   3.887   2.221
71470W        W39699  10.891   9.742  11.157
71471W        W39700  26.188   2.334   0.353
71472W        W39701  35.973  14.170  10.799
71473W        W39702  41.361  36.306  12.159
71474W        W39703   8.703   9.772   4.248
71475W        W39704   6.501  25.447   1.296
71476W        W39705  21.093  25.716   1.777
71477W        W39706  30.525  20.754   1.760
71478W        W39707  41.573  18.115   2.629
71479W        W39708   1.308  27.963  14.458
71480W        W39709  14.292  13.162   0.214
71481W        W39710   8.727  23.534   4.889
71482W        W39711  43.730  41.756   1.961
71483W        W39712  30.396   5.269  10.596
71484W        W39713  29.451  22.507  13.290
71485W        W39714  36.493  10.104  10.616
71486W        W39715  34.566  20.216  12.868
71487W        W39716  17.733  31.840  13.813
71488W        W39717  24.208   9.841  11.601
71489W        W39718   8.762  43.188   3.031
71490W        W39719  13.102  35.832   2.766
71491W        W39720  20.239   2.206  14.308
71492W        W39721  34.845   9.799  10.363
71493W        W39722  25.257  34.062   3.301
71494W        W39723   9.109  30.154  11.906
71495W        W39724   4.405   3.773  13.196
71496W        W39725  14.053  19.218  14.385
71497W        W39726  29.377  10.252  14.822
71498W        W39727  44.892   9.826   4.579
71499W        W39728  10.147  28.672   0.742
71500W        W39729  39.062  40.935  13.923
71501W        W39730  42.445   1.772  13.363
71502W        W39731  25.591   9.415  14.538
71503W        W39732  16.027  29.214  12.525
71504W        W39733   0.243  31.221  12.465
71505W        W39734  21.448  21.073  13.344
71506W        W39735  18.694  32.465   4.748
71507W        W39736  18.069   9.250  13.516
71508W        W39737   3.488  14.264   5.038
71509W        W39738  44.578   3.543   0.909
71510W        W39739  27.993  29.914  10.638
71511W        W39740  11.157  39.420   1.906
71512W        W39741  26.699   5.906  10.630
71513W        W39742  19.141   2.558   2.166
71514W        W39743  42.000  31.151  11.030
71515W        W39744  28.640  13.492  13.452
71516W        W39745  37.024  44.496  12.794
71517W        W39746   6.305  27.579  11.497
71518W        W39747   3.331  16.136  13.604
71519W        W39748  31.937  40.831  10.416
71520W        W39749  35.479  29.531   0.021
71521W        W39750  32.045  33.949  13.337
71522W        W39751  14.698   5.904   0.193
71523W        W39752  22.917  13.230  11.853
71524W        W39753  34.501  20.626  11.280
71525W        W39754  11.419   6.958  14.953
71526W        W39755  25.664  29.016  12.825
71527W        W39756  28.494  19.512   3.328
71528W        W39757  39.539  44.043   0.472
71529W        W39758  10.146  24.695   0.312
71530W        W39759  14.661  32.832  12.100
71531W        W39760  17.087  16.257  12.971
71532W        W39761   1.925  35.041   3.088
71533W        W39762   3.393  26.164  12.531
71534W        W39763  22.130  28.410   0.953
71535W        W39764   5.393  43.874   0.901
71536W        W39765   0.848  10.449  12.112
71537W        W39766  40.515   8.059  11.063
71538W        W39767  19.332  31.715  11.908
71539W        W39768  17.371   9.809  12.522
71540W        W39769  41.362  44.427  12.652
71541W        W39770  17.425  33.550   3.122
71542W        W39771  17.587  28.654  12.138
71543W        W39772   1.678  14.799   0.066
71544W        W39773  40.368  18.804  14.316
71545W        W39774  30.731  21.990  13.518
71546W        W39775   4.048  29.687   4.589
71547W        W39776  39.441  37.932   3.346
71548W        W39777   5.675  25.280   0.184
71549W        W39778  12.111   5.132  11.932
71550W        W39779  27.442  27.622  11.575
71551W        W39780  32.208  28.498  11.247
71552W        W39781   8.315  25.878  13.127
71553W        W39782  27.625  15.104  14.304
71554W        W39783  22.350  25.517  11.126
71555W        W39784   0.266  12.355  13.904
71556W        W39785  38.239   3.996  11.067
71557W        W39786  22.210  11.013  13.496
71558W        W39787  14.366  11.068   5.313
71559W        W39788  29.882  15.164   3.538
71560W        W39789  29.446  22.014   2.147
71561W        W39790   3.044   4.176   4.170
71562W        W39791  14.825  37.047   0.847
71563W        W39792  14.096  21.236   0.036
71564W        W39793   6.760   8.148  14.192
71565W        W39794  15.348  20.333   1.198
71566W        W39795   3.964  44.788   2.721
71567W        W39796  39.016   8.590   3.683
71568W        W39797  24.605  17.828   3.900
71569W        W39798  10.862   1.322   0.196
71570W        W39799  39.495  14.452   0.466
71571W        W39800  27.547  34.154   3.806
71572W        W39801  24.495  34.009  14.538
71573W        W39802  37.809  44.661   0.225
71574W        W39803   5.351  23.341   0.400
71575W        W39804   5.327  29.314   2.035
71576W        W39805  13.835  14.939  12.278
71577W        W39806  22.281  32.447  11.575
71578W        W39807  44.265   9.889   1.945
71579W        W39808  28.173   5.685   1.283
71580W        W39809  28.422  28.079   1.225
71581W        W39810   6.458  10.269   4.638
71582W        W39811  39.354  23.272  14.055
71583W        W39812  44.124   2.178   3.650
71584W        W39813  13.161  31.504   4.030
71585W        W39814  17.163   7.774   0.855
71586W        W39815  40.034   2.028   2.693
71587W        W39816  26.105  22.743  11.607
71588W        W39817  31.498  15.757   3.597
71589W        W39818  24.138  35.096  11.166
71590W        W39819   4.114   6.179   3.969
71591W        W39820  35.471   2.304   4.070
71592W        W39821   5.742  27.458  14.426
71593W        W39822  13.508  39.017   2.186
71594W        W39823  21.980   4.302   4.374
71595W        W39824  12.729  43.572  11.939
71596W        W39825  25.098  42.847   1.818
71597W        W39826   6.296   3.223  12.608
71598W        W39827  19.836  18.084  11.462
71599W        W39828   0.179   2.374   3.614
71600W        W39829  33.480  32.887  14.444
71601W        W39830  13.596  39.036   3.615
71602W        W39831  20.554  30.128   1.880
71603W        W39832  22.239  37.837   4.668
71604W        W39833  22.064  29.431   3.376
71605W        W39834  39.318   5.320  12.095
71606W        W39835  36.318  12.722   2.305
71607W        W39836  33.345  14.621   1.626
71608W        W39837  33.185  34.772  11.937
71609W        W39838   6.172  26.039   4.749
71610W        W39839  10.813   9.590  12.639
71611W        W39840  18.138  41.915   1.888
71612W        W39841  42.578   7.860   0.681
71613W        W39842  23.625  17.165  11.826
71614W        W39843   1.182  23.984   3.201
71615W        W39844  27.221  25.879  12.064
71616W        W39845  13.253   1.085   2.911
71617W        W39846  25.265  17.714  12.835
71618W        W39847  24.447   3.342  12.948
71619W        W39848  30.415  33.002   1.340
71620W        W39849  31.123  25.972  10.739
71621W        W39850  14.330  17.040  11.083
71622W        W39851   1.558  33.494   2.536
71623W        W39852  20.208  10.258   4.084
71624W        W39853  33.750   8.627   1.501
71625W        W39854  23.692  26.949  11.883
71626W        W39855   4.209  43.450   3.241
71627W        W39856  37.126  44.353   3.394
71628W        W39857  35.568  24.743  13.431
71629W        W39858  10.675  32.675   0.189
71630W        W39859  44.769  10.683   2.280
71631W        W39860   7.437   9.999  11.179
71632W        W39861  16.611   8.336  13.518
71633W        W39862  32.990   9.747   3.189
71634W        W39863  41.622  18.393   4.192
71635W        W39864  30.954  16.288   3.137
71636W        W39865  22.920  38.970   1.777
71637W        W39866   6.005  39.929   4.171
71638W        W39867  34.682  26.976   4.278
71639W        W39868  38.856  33.426  11.174
71640W        W39869  17.252  43.852   1.768
71641W        W39870  10.600  17.705   4.201
71642W        W39871  31.674  33.047   0.425
71643W        W39872  23.729   9.282  12.966
71644W        W39873  27.392  33.509   5.365
71645W        W39874  19.194  23.680   0.749
71646W        W39875   5.799  18.788  11.655
71647W        W39876  20.042  10.946  14.771
71648W        W39877  20.247   6.974  14.796
71649W        W39878  39.823  22.285   2.345
71650W        W39879  38.358  39.713   0.398
71651W        W39880  10.129  38.517   0.854
71652W        W39881   6.273  43.311   3.153
71653W        W39882  42.006  13.242  11.652
71654W        W39883  40.376  13.702   4.578
71655W        W39884  27.925  16.310  13.463
71656W        W39885   4.222  22.518   2.441
71657W        W39886   8.314   3.145   5.065
71658W        W39887  36.974  24.263   3.106
71659W        W39888   5.410   3.544  10.050
71660W        W39889  43.748  30.077   3.969
71661W        W39890  13.697  16.769   5.098
71662W        W39891  37.178   9.644  11.677
71663W        W39892   9.911  13.813  12.610
71664W        W39893   3.342  35.600  12.604
71665W        W39894  32.042  39.773   1.436
71666W        W39895  15.323  11.205   1.369
71667W        W39896   5.806  15.752   3.273
71668W        W39897  40.617   5.661  12.847
71669W        W39898  22.009  20.622  13.316
71670W        W39899  16.700  21.950   1.272
71671W        W39900  39.337  23.582  10.649
71672W        W39901   6.526  29.514  12.316
71673W        W39902  28.815   4.173   0.411
71674W        W39903   2.999   6.865  11.159
71675W        W39904  15.914  44.294   2.851
71676W        W39905  43.881  18.091   1.436
71677W        W39906   2.562  21.144  13.708
71678W        W39907  32.279  41.064   3.178
71679W        W39908  16.380   5.206   2.383
71680W        W39909  27.827  27.773   4.688
71681W        W39910  28.315  10.930   0.896
71682W        W39911  36.589  12.674   4.273
71683W        W39912  30.482  42.386   1.695
71684W        W39913  39.372   8.882  12.897
71685W        W39914   7.902   5.486  13.255
71686W        W39915  44.196  20.123   3.764
71687W        W39916   1.475  36.232  11.584
71688W        W39917  14.725  10.400  12.993
71689W        W39918  39.068  42.278  10.641
71690W        W39919   4.459   8.225  12.995
71691W        W39920  24.197  12.628   2.739
71692W        W39921  24.711  42.991  11.982
71693W        W39922   2.223   5.214  10.365
71694W        W39923  14.852  35.462  11.833
71695W        W39924  19.740  34.503   3.181
71696W        W39925  40.979  29.412   1.300
71697W        W39926  26.895  38.265  11.569
71698W        W39927   7.828  39.754   3.324
71699W        W39928  19.262  43.746  11.665
71700W        W39929  17.714   5.270  14.278
71701W        W39930  15.130  19.347   1.278
71702W        W39931  15.206  16.876   2.854
71703W        W39932  44.123  41.285   1.599
71704W        W39933  35.802  13.576  14.370
71705W        W39934   6.644   4.262  11.592
71706W        W39935   7.203  14.339  14.903
71707W        W39936  14.129  43.792  10.724
71708W        W39937   7.315  39.872   0.774
71709W        W39938  36.575  31.446  10.721
71710W        W39939   5.445  35.841   0.765
71711W        W39940   6.090  37.780   4.199
71712W        W39941   4.699  12.945  12.518
71713W        W39942   3.985  13.635  13.962
71714W        W39943  27.991   5.483   4.679
71715W        W39944  11.693  35.948  14.857
71716W        W39945  39.445  25.073   1.237
71717W        W39946  37.368  40.450  14.745
71718W        W39947  42.577  25.961  13.886
71719W        W39948   4.264  41.607   3.411
71720W        W39949  34.269   2.996  14.918
71721W        W39950  14.431  33.519   1.841
71722W        W39951  25.173   8.115   3.754
71723W        W39952  20.011  31.400   0.889
71724W        W39953   1.982  29.320   0.275
71725W        W39954   2.766  41.701  14.019
71726W        W39955  35.879  22.968  12.906
71727W        W39956   4.692  17.632   1.420
71728W        W39957  11.650  18.735   0.700
71729W        W39958  12.074  40.448  10.677
71730W        W39959   2.097   5.598  12.320
71731W        W39960   3.812  27.232  12.391
71732W        W39961   7.251  40.488   4.504
71733W        W39962  44.724  34.372  13.392
71734W        W39963  14.346  19.314  13.390
71735W        W39964  15.786  22.089   4.114
71736W        W39965  18.517  22.115   1.682
71737W        W39966  15.294  20.559  10.242
71738W        W39967  30.901   2.398  12.532
71739W        W39968  41.844  15.767   4.521
71740W        W39969  12.309  17.008  11.105
71741W        W39970  36.304  18.172   2.664
71742W        W39971  41.789  44.558   1.622
71743W        W39972   2.399  16.021  11.483
71744W        W39973   8.243  30.091  14.011
71745W        W39974  38.938  44.326  12.351
71746W        W39975  24.114  39.937  10.387
71747W        W39976   5.169   6.388   1.713
71748W        W39977   5.378  22.154  12.873
71749W        W39978   6.079   5.363  13.388
71750W        W39979  29.546   0.992   2.863
71751W        W39980  13.261  20.550   2.752
71752W        W39981  17.961  40.307  14.535
71753W        W39982  21.238  34.801  13.183
71754W        W39983  43.925  24.571  12.072
71755W        W39984  19.527  26.268   0.470
71756W        W39985  41.541  37.052   3.225
71757W        W39986  19.773  38.857  11.177
71758W        W39987  21.624  11.424  10.701
71759W        W39988  40.516   3.772  12.815
71760W        W39989  23.005  16.710  11.638
71761W        W39990   8.383  31.582   3.245
71762W        W39991   9.158  32.476  12.742
71763W        W39992  11.302   8.193   1.224
71764W        W39993  27.164  32.705  12.384
71765W        W39994  16.120  37.166  12.499
71766W        W39995  25.561  10.746  11.117
71767W        W39996   4.876  44.858   2.752
71768W        W39997  44.660  19.727  10.122
71769W        W39998  18.534  40.974  14.496
71770W        W39999  31.065  37.903  12.971
71771W        W40000  40.929  27.181  14.758
71772W        W40001  40.751  25.516   2.917
71773W        W40002   4.766   7.207  11.140
71774W        W40003  10.739  10.275   3.737
71775W        W40004  35.909  16.882   3.765
71776W        W40005  32.421   9.236   0.170
71777W        W40006  35.913  29.913   3.341
71778W        W40007  30.113  26.549  13.920
71779W        W40008  23.008  39.633   0.231
71780W        W40009  19.796  33.514   2.266
71781W        W40010  21.052   4.287   1.647
71782W        W40011  26.453  24.937  14.238
71783W        W40012  12.920  40.769  12.897
71784W        W40013  32.784  37.045  13.151
71785W        W40014  23.553  29.078   4.148
71786W        W40015  26.838  17.486  10.727
71787W        W40016   9.219  26.609   1.577
71788W        W40017  15.186   5.178   4.642
71789W        W40018  34.523  26.636  10.409
71790W        W40019  15.302  39.006   0.662
71791W        W40020   5.950   7.661   4.767
71792W        W40021  21.916  40.232  10.384
71793W        W40022  18.047  19.213   3.622
71794W        W40023  39.553   4.856  13.393
71795W        W40024   9.207  18.834   3.611
71796W        W40025  23.009  14.407   4.531
71797W        W40026   2.339  17.642   3.710
71798W        W40027  36.669  22.532  12.494
71799W        W40028  39.343  16.799   2.605
71800W        W40029  27.039   6.877  10.805
71801W        W40030  12.849  20.556  10.823
71802W        W40031  18.810  37.925  13.366
71803W        W40032  11.541  44.785  14.425
71804W        W40033  21.197  39.277  13.819
71805W        W40034  29.043  17.810   4.576
71806W        W40035  21.262  44.295  14.517
71807W        W40036  41.309  20.647  14.363
71808W        W40037  12.162  42.779   0.813
71809W        W40038  20.998   4.203  12.421
71810W        W40039  38.153  36.391   2.693
71811W        W40040  20.147  20.265   2.378
71812W        W40041   9.002  29.737   2.799
71813W        W40042  44.328  22.166  12.848
71814W        W40043  23.264  44.854   2.765
71815W        W40044   6.281  36.140   2.980
71816W        W40045   8.676  31.121   1.349
71817W        W40046  38.835   9.252   1.410
71818W        W40047  34.825  21.047  14.648
71819W        W40048  35.625  32.153  12.425
71820W        W40049  20.512   8.165   3.398
71821W        W40050  38.128  17.087  13.820
71822W        W40051  17.155  18.192  13.399
71823W        W40052  24.056  28.861   3.169
71824W        W40053   7.372  36.000   2.287
71825W        W40054  19.932  20.713  14.163
71826W        W40055  20.409  28.029  13.806
71827W        W40056   2.948  37.531   3.304
71828W        W40057  17.030  13.689  14.992
71829W        W40058  23.269  29.638  14.911
71830W        W40059  31.488   4.936  10.822
71831W        W40060  17.539  37.965  13.838
71832W        W40061   5.468  26.139  10.544
71833W        W40062  20.178  26.695   2.944
71834W        W40063  10.421  41.514   3.064
71835W        W40064  31.842  34.156  12.357
71836W        W40065  42.582  42.023  13.870
71837W        W40066  42.462  12.293  13.938
71838W        W40067  35.547  44.341  10.604
71839W        W40068   9.153  23.514   2.580
71840W        W40069  29.615   9.856  11.941
71841W        W40070  14.239  18.778   1.885
71842W        W40071  30.537  12.773   2.586
71843W        W40072  11.666  26.077   0.846
71844W        W40073  39.365  33.583  11.640
71845W        W40074  37.382  27.452   0.349
71846W        W40075  44.684  33.451  11.651
71847W        W40076   1.768  39.010  12.098
71848W        W40077  33.315  20.629   0.552
71849W        W40078  36.174  15.543   0.031
71850W        W40079  44.650  20.580  12.630
71851W        W40080   1.316   3.003  12.070
71852W        W40081  12.386  34.849   0.399
71853W        W40082   3.908  32.925  12.031
71854W        W40083  20.221   5.074   9.785
71855W        W40084  18.991  28.205   5.121
71856W        W40085  26.734  15.120  11.870
71857W        W40086  24.511  27.609   2.876
71858W        W40087   2.512  20.535  12.418
71859W        W40088  27.408  33.134  12.595
71860W        W40089  29.020  26.928   3.726
71861W        W40090  38.599   4.309  14.560
71862W        W40091  29.586  35.031   4.734
71863W        W40092  28.557  10.916  11.200
71864W        W40093  39.863  44.047   4.131
71865W        W40094  25.534  41.268   3.709
71866W        W40095  18.064  34.416   1.978
71867W        W40096  11.367   2.940   2.110
71868W        W40097  39.560  34.797  11.271
71869W        W40098  18.654  42.400   1.793
71870W        W40099   9.869   0.490  10.772
71871W        W40100  10.810  32.928  10.728
71872W        W40101  21.130  41.014   0.595
71873W        W40102  34.552  37.117   4.035
71874W        W40103  19.888  33.844   1.733
71875W        W40104  26.799  37.532  13.831
71876W        W40105  13.225  41.532   5.110
71877W        W40106  34.542  12.153  13.508
71878W        W40107  12.434   1.236  11.479
71879W        W40108  33.372  14.123   4.173
71880W        W40109   0.780  35.766   2.303
71881W        W40110  31.176  30.719   5.031
71882W        W40111   1.286  16.007   2.764
71883W        W40112  28.097  39.491   3.907
71884W        W40113  43.443  24.206  10.803
71885W        W40114  16.251   7.918  10.477
71886W        W40115  37.522  19.112   3.756
71887W        W40116  21.905  40.365  12.513
71888W        W40117  39.330  14.760   1.862
71889W        W40118  16.650   3.771  13.880
71890W        W40119  31.488  24.630   3.990
71891W        W40120  16.431  34.876   1.003
71892W        W40121  29.900  37.721   4.502
71893W        W40122  13.845  38.708   0.967
71894W        W40123   5.881  12.281  13.795
71895W        W40124  17.205  35.368  11.597
71896W        W40125  18.743  44.016   4.679
71897W        W40126  18.320  42.007  12.898
71898W        W40127  12.271   7.183  11.087
71899W        W40128  20.209  43.598  12.463
71900W        W40129  10.552  16.668  10.127
71901W        W40130   4.109  18.689   4.275
71902W        W40131  35.386  38.757   0.480
71903W        W40132  19.757  40.359   4.058
71904W        W40133  17.168  26.039  13.884
71905W        W40134  30.960   4.423  13.469
71906W        W40135   2.660   8.321  13.856
71907W        W40136  16.702  11.897  12.425
71908W        W40137  15.177  26.977  10.817
71909W        W40138  23.080   4.246   3.149
71910W        W40139  10.160   6.891  10.700
71911W        W40140  17.459  27.284  10.064
71912W        W40141  23.298   9.645  14.844
71913W        W40142  18.679  25.674   2.177
71914W        W40143  17.703  25.081   1.893
71915W        W40144   9.093  28.704  11.994
71916W        W40145  35.479  41.620  11.094
71917W        W40146  16.607  30.667   5.073
71918W        W40147  18.586  17.823   0.189
71919W        W40148  19.136  35.919  12.442
71920W        W40149   6.328  22.975  11.892
71921W        W40150   1.949  12.124  10.861
71922W        W40151  30.421   4.954  14.698
71923W        W40152  29.715  10.673  13.920
71924W        W40153  15.531  32.313  14.693
71925W        W40154  38.338  28.518  13.949
71926W        W40155   6.373   1.783   3.802
71927W        W40156   8.280  41.563   2.923
71928W        W40157  17.137  40.939   3.960
71929W        W40158  25.125  32.650  14.532
71930W        W40159   7.196  10.653  11.910
71931W        W40160  38.915  10.374  12.587
71932W        W40161  27.212   4.995  10.615
71933W        W40162   0.860  18.319   2.376
71934W        W40163   2.680   7.803  12.583
71935W        W40164  26.886   0.055   2.968
71936W        W40165  35.359  17.089  14.480
71937W        W40166  27.373  28.361   1.303
71938W        W40167  42.019  34.589  12.323
71939W        W40168  12.741  14.799   2.261
71940W        W40169  13.460  30.560   0.014
71941W        W40170  40.947  41.057   1.303
71942W        W40171   5.709   3.682  14.330
71943W        W40172   8.381  21.707   1.663
71944W        W40173  11.435  19.246   1.881
71945W        W40174  21.520   6.634   4.122
71946W        W40175  35.662  25.386   0.135
71947W        W40176  23.292  24.740  11.516
71948W        W40177  20.473  34.998  12.445
71949W        W40178  13.099  26.980  10.368
71950W        W40179  33.100  24.894   3.829
71951W        W40180  27.668   7.385   3.397
71952W        W40181  11.227   6.244   2.692
71953W        W40182  29.498  19.167  14.977
71954W        W40183  35.543  19.585   2.838
71955W        W40184  32.924  40.464   1.901
71956W        W40185   6.972  16.365  13.310
71957ION    NA+40186   6.678  35.968   3.776
71958ION    NA+40187  13.915  37.131   2.016
71959ION    NA+40188   2.347  35.417  10.951
71960ION    NA+40189  14.859  42.686   3.967
71961ION    NA+40190  44.065   2.151   2.745
71962ION    NA+40191   6.909   8.792   2.672
71963ION    NA+40192  22.658   3.528  12.664
71964ION    NA+40193  39.148  27.902   1.263
71965ION    NA+40194  22.649   6.772   1.511
71966ION    NA+40195  25.492  36.202  12.389
71967ION    NA+40196  32.805   8.197  11.798
71968ION    NA+40197   0.091   0.038   1.901
71969ION    NA+40198  29.770   7.236   1.563
71970ION    NA+40199  13.863   4.695   3.748
71971ION    NA+40200  24.609  15.694   0.672
71972ION    NA+40201   1.320  34.011   1.568
71973ION    NA+40202  11.288  23.931  11.555
71974ION    NA+40203   9.389   2.792  13.817
71975ION    NA+40204  37.604  40.796  10.597
71976ION    NA+40205  32.226   7.317  13.628
71977ION    NA+40206   3.309  14.523   3.269
71978ION    NA+40207  10.133   5.052  13.305
71979ION    NA+40208  13.267  36.631   1.324
71980ION    NA+40209  21.691   8.974   3.583
71981ION    NA+40210  11.314  11.554   2.187
71982ION    NA+40211   8.776   6.675  12.957
71983ION    NA+40212  11.801   9.914   4.444
71984ION    NA+40213  16.640  16.585   9.787
71985ION    NA+40214  18.884  19.116  11.409
71986ION    NA+40215  41.452  26.763  11.731
71987ION    NA+40216  17.746  27.887   3.227
71988ION    NA+40217  22.243  30.051   3.207
71989ION    NA+40218  22.097  20.774  13.820
71990ION    NA+40219  19.006  37.653   2.363
71991ION    NA+40220  32.738  27.406   3.475
71992ION    NA+40221  44.955  10.529  13.696
71993ION    NA+40222  13.004  15.864   0.943
71994ION    NA+40223   0.143  13.357   1.543
71995ION    NA+40224  44.312   0.095   2.938
71996ION    NA+40225  44.899  31.047   1.092
71997ION    NA+40226  42.051  38.579  13.518
71998ION    NA+40227  14.458  17.966   3.673
71999ION    NA+40228  30.342  17.740   1.663
72000ION    NA+40229   2.922   7.494  11.566
72001ION    NA+40230   4.140  23.455   1.564
72002ION    NA+40231  44.326  31.543   0.437
72003ION    NA+40232  34.852  17.731  14.567
72004ION    NA+40233  25.048   6.489  11.601
72005ION    NA+40234  39.008  16.927   3.807
72006ION    NA+40235  36.235   1.414  14.480
72007ION    NA+40236   0.024  28.343   1.898
72008ION    NA+40237   7.398  10.379  12.288
72009ION    NA+40238   7.269  39.608   2.414
72010ION    NA+40239  32.137   9.907  12.625
72011ION    NA+40240   4.113  27.889  11.151
72012ION    NA+40241  32.051  42.511  11.114
72013ION    NA+40242  21.940  12.928  14.724
72014ION    NA+40243  23.726  32.584  12.407
72015ION    NA+40244  33.100  34.611  13.249
72016ION    NA+40245   3.874   5.141   3.759
72017ION    NA+40246   2.008  19.182   1.349
72018ION    NA+40247   7.183  23.240  14.881
72019ION    NA+40248  26.615  14.360  14.361
72020ION    NA+40249  22.126   8.370  14.052
72021ION    NA+40250  36.657  29.222   2.867
72022ION    NA+40251  16.232  44.757  12.930
72023ION    NA+40252  41.940   5.280   4.043
72024ION    NA+40253   1.831  28.695  11.871
72025ION    NA+40254   6.585  31.219   3.553
72026ION    NA+40255  37.002  18.142   1.357
72027ION    NA+40256  17.075   0.513  14.698
72028ION    NA+40257   0.185   9.451   0.368
72029ION    NA+40258  33.531  17.849  13.794
72030ION    NA+40259  37.946  15.653  14.170
72031ION    NA+40260  27.198   3.998   2.501
72032ION    NA+40261   1.351  37.906   0.924
72033ION    NA+40262  30.503  10.253  13.962
72034ION    NA+40263  27.476  42.997  13.402
72035ION    NA+40264  27.235   3.261   1.750
72036ION    NA+40265  17.991  42.539  12.496
72037ION    NA+40266  18.354  34.523  12.902
72038ION    NA+40267  42.461   7.800   1.181
72039ION    NA+40268  32.392  19.559   3.190
72040ION    NA+40269  42.771  11.581   0.002
72041ION    NA+40270  23.674   2.809   2.037
72042ION    NA+40271  41.708  20.994  14.417
72043ION    NA+40272  31.877   5.886   0.952
72044ION    NA+40273  36.899  29.954   0.432
72045ION    NA+40274  28.656  43.978   0.264
72046ION    NA+40275   9.903  38.824  11.083
72047ION    NA+40276  12.142   8.941  11.377
72048ION    NA+40277  24.539   1.184   0.621
72049ION    NA+40278  28.828   5.473   2.342
72050ION    NA+40279  18.887  24.754   2.251
72051ION    NA+40280  35.407  33.444   0.300
72052ION    NA+40281  24.189   3.501   0.494
72053ION    NA+40282  21.599  27.531  12.353
72054ION    NA+40283   0.962  23.231   4.194
72055ION    NA+40284  43.919   6.324  14.460
72056ION    NA+40285  32.636   1.369   0.928
72057ION    NA+40286  12.339  36.521  14.878
72058ION    NA+40287  32.018  43.759  13.400
72059ION    NA+40288  23.296  22.812   0.398
72060ION    NA+40289  24.342   8.416  10.735
72061ION    NA+40290  29.924   4.508   1.165
72062ION    NA+40291   8.108  32.139   4.142
72063ION    NA+40292   1.433   7.264   1.236
72064ION    NA+40293  32.906  14.110   1.967
72065ION    NA+40294  12.815   6.353  11.413
72066ION    NA+40295  31.786  27.872  11.310
72067ION    NA+40296  36.869  35.302   3.533
72068ION    NA+40297   1.291   7.700   2.750
72069ION    NA+40298   9.060  21.133  11.211
72070ION    NA+40299   2.789  42.415  13.366
72071ION    NA+40300  14.534  11.740  10.761
72072ION    NA+40301   4.640  24.627   0.696
72073ION    NA+40302  29.014  23.989   1.305
72074ION    NA+40303  11.544  13.066  12.082
72075ION    NA+40304  31.778  42.929   0.279
72076ION    NA+40305   0.398  21.161   3.128
72077ION    NA+40306   9.736   6.913  12.433
72078ION    NA+40307  21.204  34.197  12.322
72079ION    NA+40308  15.660  43.238  12.105
72080ION    NA+40309   3.063  43.323  10.762
72081ION    NA+40310   5.345  30.001   2.923
72082ION    NA+40311  14.834  15.905   1.511
72083ION    NA+40312  10.802  27.471  10.866
72084ION    NA+40313  28.914  33.856   2.027
72085ION    NA+40314  13.966  23.295   1.821
72086ION    NA+40315  37.700   9.580  13.648
72087ION    NA+40316  32.052  37.680   0.449
72088ION    NA+40317  22.971  41.558  14.486
72089ION    NA+40318  19.281  42.761   0.301
72090ION    NA+40319  32.282   1.101  13.485
72091ION    NA+40320  25.759  34.147   4.510
72092ION    NA+40321  32.861  15.084   5.208
72093ION    NA+40322  38.513   1.087  12.296
72094ION    NA+40323   9.027  35.589   3.039
72095ION    NA+40324   4.863  28.167  10.273
72096ION    NA+40325  31.866  21.199  12.194
72097ION    NA+40326  10.868  43.700  10.946
72098ION    NA+40327  28.606  14.766   2.931
72099ION    NA+40328  40.712  32.508  10.170
72100ION    NA+40329  16.174  41.721   2.508
72101ION    NA+40330   6.270  25.313  11.305
72102ION    NA+40331  21.513  15.869   2.528
72103ION    NA+40332  37.029  31.009  12.114
72104ION    NA+40333  25.965   6.652   2.522
72105ION    NA+40334  44.577   3.413  11.634
72106ION    NA+40335   0.427   8.674  14.096
72107ION    NA+40336  26.665  28.516   3.483
72108ION    NA+40337   3.732  19.645  14.769
72109ION    NA+40338  24.508  39.262  13.037
72110ION    NA+40339  20.260  13.773   3.863
72111ION    NA+40340  15.908  13.123   3.140
72112ION    NA+40341  42.397  27.858   0.045
72113ION    NA+40342  16.350  37.421  11.453
72114ION    NA+40343  15.779  38.604  10.668
72115ION    NA+40344  29.415  30.971   0.404
72116ION    NA+40345  21.625   5.243   0.247
72117ION    NA+40346  18.076  31.718   4.660
72118ION    NA+40347   2.467  31.461  12.682
72119ION    NA+40348  42.285   9.716   4.635
72120ION    NA+40349  24.807  30.541   4.485
72121ION    NA+40350  42.972   2.838  12.152
72122ION    NA+40351  39.310  33.405   3.321
72123ION    NA+40352  41.853  12.060   2.205
72124ION    NA+40353   5.702   7.918   2.960
72125ION    NA+40354  22.324   4.538   4.704
72126ION    NA+40355   9.639  24.718   3.351
72127ION    NA+40356  42.919   6.133   0.410
72128ION    NA+40357   0.118  28.284  12.397
72129ION    NA+40358  43.558  21.044  10.634
72130ION    NA+40359  36.069  25.796  12.032
72131ION    NA+40360  37.876  20.512   1.845
72132ION    NA+40361  26.923  24.599   2.209
72133ION    NA+40362  26.318  29.116  14.882
72134ION    NA+40363   9.684   0.410  13.536
72135ION    NA+40364   6.202  25.097   4.728
72136ION    NA+40365   2.768  31.620  14.879
72137ION    NA+40366  27.030  26.630   1.438
72138ION    NA+40367  37.595  16.389  14.580
72139ION    NA+40368  27.010  20.230  14.408
72140ION    NA+40369  43.773   2.964  14.856
72141ION    NA+40370   9.022  20.513   2.043
72142ION    NA+40371  41.537  11.133  12.227
72143ION    NA+40372  44.727  17.432   3.248
72144ION    NA+40373  34.352  16.834   0.402
72145ION    NA+40374  31.791   1.594   2.156
72146ION    NA+40375  22.419  27.092  14.615
72147ION    NA+40376  37.341  36.363   1.320
72148ION    NA+40377   7.261  44.797   2.662
72149ION    NA+40378  33.646  33.444   0.768
72150ION    NA+40379   4.899  40.747  13.669
72151ION    NA+40380  34.880  19.967   3.767
72152ION    NA+40381   9.615  40.063   3.523
72153ION    NA+40382   9.969  24.346  14.485
72154ION    NA+40383  36.029  21.126   0.271
72155ION    NA+40384  17.948  33.719   3.257
72156ION    NA+40385  14.270  44.743  10.058
72157ION    NA+40386  14.056  16.670  13.083
72158ION    NA+40387  25.130  37.230  10.893
72159ION    NA+40388  42.467   3.036  14.236
72160ION    NA+40389  36.568  12.803  14.696
72161ION    NA+40390   5.485  12.518   3.367
72162ION    NA+40391  20.073  24.492  12.138
72163ION    NA+40392  11.309  41.409  13.701
72164ION    NA+40393   3.094   6.713   4.862
72165ION    NA+40394   9.650  11.959   0.902
72166ION    NA+40395   8.160  18.829   1.322
72167ION    NA+40396  40.315   8.724   2.730
72168ION    NA+40397  43.582  24.629  10.528
72169ION    NA+40398  29.344   9.760   1.899
72170ION    NA+40399  12.536   0.046   4.555
72171ION    NA+40400   2.840  38.266  13.767
72172ION    NA+40401   7.819  39.238  11.015
72173ION    NA+40402  11.345   7.313  13.892
72174ION    NA+40403  11.275   4.644  12.473
72175ION    NA+40404  36.239  18.403  11.381
72176ION    NA+40405  14.907  35.798  14.424
72177ION    NA+40406  13.022  10.394   0.121
72178ION    NA+40407  26.549  34.658   2.002
72179ION    NA+40408   7.320  38.186  13.474
72180ION    NA+40409   1.777  34.906   1.685
72181ION    NA+40410  12.567  33.579   0.606
72182ION    NA+40411   6.683  36.505  12.557
72183ION    NA+40412  32.939  23.402   3.977
72184ION    NA+40413  32.840  30.626   2.160
72185ION    NA+40414   3.627  44.773   4.293
72186ION    NA+40415   7.604   3.460  12.472
72187ION    NA+40416  38.868   3.051  11.163
72188ION    NA+40417  30.555  28.342  11.987
72189ION    NA+40418  19.534   0.665  11.088
72190ION    NA+40419  13.809  27.709  12.973
72191ION    NA+40420   5.811  22.043   3.131
72192ION    NA+40421  41.786  21.566  12.057
72193ION    NA+40422  28.137  20.203  11.988
72194ION    NA+40423  16.023  23.026   3.622
72195ION    NA+40424  24.674  40.323  14.326
72196ION    NA+40425  28.492  25.572  12.581
72197ION    NA+40426   3.697  31.116   3.596
72198ION    NA+40427  22.000   3.223  13.353
72199ION    NA+40428   3.943  13.991  11.487
72200ION    NA+40429  24.525   1.408  14.262
72201ION    NA+40430   7.887  18.975   3.229
72202ION    NA+40431   2.132  27.837   3.425
72203ION    NA+40432  14.837  30.499   0.165
72204ION    NA+40433   7.572  36.833   2.599
72205ION    NA+40434  15.707   9.038  12.293
72206ION    NA+40435  31.996  36.004   1.765
72207ION    NA+40436   4.016  20.420  14.393
72208ION    NA+40437  11.376  38.670  14.686
72209ION    NA+40438  37.260  22.830   2.777
72210ION    NA+40439   8.584  30.796  10.638
72211ION    NA+40440  10.266  35.168   1.278
72212ION    NA+40441  39.606  12.793   3.550
72213ION    NA+40442  14.069   1.275  12.196
72214ION    NA+40443  11.614  33.406  11.673
72215ION    NA+40444  13.612  16.833   3.698
72216ION    NA+40445  44.969  40.691  13.159
72217ION    NA+40446   4.447  18.518   0.665
72218ION    NA+40447  20.617  30.320  11.139
72219ION    NA+40448  12.434  13.985  12.825
72220ION    NA+40449  12.592  20.851  12.835
72221ION    NA+40450  39.092   9.458   3.186
72222ION    NA+40451  44.402  10.010   4.539
72223ION    NA+40452  15.643  31.440  12.020
72224ION    NA+40453   6.600  28.627  12.356
72225ION    NA+40454  20.218  39.790  12.619
72226ION    NA+40455  41.941  17.654  13.753
72227ION    NA+40456  12.546  31.823   0.409
72228ION    NA+40457  25.978   5.446   3.230
72229ION    NA+40458  42.392   3.729  10.660
72230ION    NA+40459   4.515  28.882  11.972
72231ION    NA+40460  36.852  44.355   4.280
72232ION    NA+40461  39.115  15.001  11.392
72233ION    NA+40462  43.658  11.571  11.251
72234ION    NA+40463  33.768   8.423  11.651
72235ION    NA+40464  15.528  34.269  11.399
72236ION    NA+40465  30.886  43.350  11.760
72237ION    NA+40466  30.296  10.838   2.251
72238ION    NA+40467  36.867  38.469  13.115
72239ION    NA+40468  32.471  37.032  14.812
72240ION    NA+40469  37.834  37.045   0.681
72241ION    NA+40470  17.212  13.004   1.913
72242ION    NA+40471  19.184  19.086  10.556
72243ION    NA+40472  14.673   3.545   0.169
72244ION    NA+40473  39.880  19.114  13.702
72245ION    NA+40474  41.260  33.591   3.559
72246ION    NA+40475  39.429  10.192  12.693
72247ION    NA+40476  16.656  31.062   5.405
72248ION    NA+40477   1.253   0.454   1.370
72249ION    NA+40478  19.100  43.757  12.153
72250ION    NA+40479   3.816  13.657   0.248
72251ION    NA+40480  41.512  31.294   2.785
72252ION    NA+40481  22.009  21.418  12.074
72253ION    NA+40482  35.065  35.135  14.905
72254ION    NA+40483  24.227  27.153   0.870
72255ION    NA+40484  17.253  27.369   0.196
72256ION    NA+40485  42.081   0.455  11.072
72257ION    NA+40486   9.935   8.136  11.127
72258ION    NA+40487  35.943  26.399   3.624
72259ION    NA+40488  11.623  42.768   2.888
72260ION    NA+40489  15.436  26.018  14.592
72261ION    NA+40490  40.047  39.608   0.188
72262ION    NA+40491  36.915  15.175   3.162
72263ION    NA+40492  44.356  32.932   0.659
72264ION    NA+40493   2.120  32.671   1.414
72265ION    NA+40494   5.385  21.072  13.221
72266ION    NA+40495   8.591  18.012   2.518
72267ION    NA+40496   0.961  41.454  14.883
72268ION    NA+40497  32.614  42.515   3.115
72269ION    NA+40498  18.715  24.020   1.739
72270ION    NA+40499   0.910  14.554  10.725
72271ION    NA+40500  44.759  30.487  12.539
72272ION    NA+40501  37.003  13.666   4.025
72273ION    NA+40502  24.118  22.680   4.301
72274ION    NA+40503  32.060   1.512   2.914
72275ION    NA+40504  10.249  30.672  14.648
72276ION    NA+40505   2.907   7.841   1.964
72277ION    NA+40506  32.347   0.386   3.821
72278ION    NA+40507   8.093  41.263  10.962
72279ION    NA+40508  18.295   5.160   2.734
72280ION    NA+40509  18.750  38.159  14.621
72281ION    NA+40510   4.524  39.959  10.157
72282ION    NA+40511  16.613  28.530   3.276
72283ION    NA+40512  11.475  12.546  11.376
72284ION    NA+40513  11.243  19.961  13.381
72285ION    NA+40514   3.509  19.945  13.443
72286ION    NA+40515   0.732   5.577  11.878
72287ION    NA+40516  22.625  41.363  13.062
72288ION    NA+40517  10.457  19.347  13.521
72289ION    NA+40518  34.090  10.290   0.871
72290ION    NA+40519  20.137  44.102  13.203
72291ION    NA+40520   9.377  44.429   3.038
72292ION    NA+40521  42.384   3.423   4.952
72293ION    NA+40522   8.695  19.688   1.865
72294ION    NA+40523  29.827  44.161   1.866
72295ION    NA+40524  38.292  35.019   2.976
72296ION    NA+40525   7.847  37.667   1.785
72297ION    NA+40526   0.282   8.742   3.614
72298ION    NA+40527  15.323  24.735   3.189
72299ION    NA+40528   3.787  16.074   1.168
72300ION    NA+40529  44.960   1.165   4.700
72301ION    NA+40530  20.754  35.477   4.760
72302ION    NA+40531  35.427  42.304  10.553
72303ION    NA+40532   9.440  14.266   3.372
72304ION    NA+40533  38.019  22.434   3.030
72305ION    NA+40534  12.995   9.711  11.671
72306ION    NA+40535  42.275  30.698  11.102
72307ION    NA+40536  19.045   4.411   0.244
72308ION    NA+40537  24.627  11.920   3.292
72309ION    NA+40538  24.635  27.219  14.407
72310ION    NA+40539  19.269  39.441   4.172
72311ION    NA+40540  11.150  39.415   1.247
72312ION    NA+40541  35.400  42.575  12.829
72313ION    NA+40542  28.161  15.783  12.557
72314ION    NA+40543   4.560  26.228   3.553
72315ION    NA+40544  21.081  12.570   2.806
72316ION    NA+40545  11.559  12.631   3.797
72317ION    NA+40546   4.254   1.701  11.192
72318ION    NA+40547  18.830  30.033   2.269
72319ION    NA+40548  32.620   6.930   0.345
72320ION    NA+40549   3.096  18.239  13.864
72321ION    NA+40550  37.879  17.659  10.266
72322ION    NA+40551  11.691  17.371   0.417
72323ION    NA+40552   5.479   0.893  12.080
72324ION    NA+40553   7.832  34.155   1.948
72325ION    NA+40554  30.732  24.229   0.259
72326ION    NA+40555  10.833  37.381   2.207
72327ION    NA+40556  42.801  19.827   0.910
72328ION    NA+40557  37.640  24.455  14.392
72329ION    NA+40558  43.240  19.120  13.065
72330ION    NA+40559  44.253  41.628  10.745
72331ION    NA+40560  21.452   8.946  10.679
72332ION    NA+40561  41.373  28.112  10.701
72333ION    NA+40562  39.529   8.333  10.221
72334ION    NA+40563   6.896   2.481  10.849
72335ION    NA+40564   3.299   4.681   9.680
72336ION    NA+40565  13.848  15.534   3.581
72337ION    NA+40566  35.506  24.577  12.160
72338ION    NA+40567  29.140   4.458   1.783
72339ION    NA+40568  17.504  35.645   1.814
72340ION    NA+40569  35.719  16.343  14.820
72341ION    NA+40570   5.383  13.285   4.246
72342ION    NA+40571  25.804  12.973  11.203
72343ION    NA+40572   1.755  30.113   1.291
72344ION    NA+40573  22.109   2.727  12.146
72345ION    NA+40574  40.834  18.982  11.106
72346ION    NA+40575   4.604   7.625   2.106
72347ION    NA+40576  15.737  19.445  13.502
72348ION    NA+40577  23.670  33.627   4.529
72349ION    NA+40578  43.418  29.626   0.987
72350ION    NA+40579   5.296  30.574   0.530
72351ION    NA+40580   4.937  22.022  13.250
72352ION    NA+40581  21.548   7.093  13.689
72353ION    NA+40582  42.756  29.977  14.628
72354ION    NA+40583   2.169  18.468   4.044
72355ION    NA+40584   9.612  16.636  10.841
72356ION    NA+40585   6.576  37.885   4.073
72357ION    NA+40586  24.465  12.331  11.612
72358ION    NA+40587   0.910  16.582  10.698
72359ION    NA+40588  32.364  16.830   2.966
72360ION    NA+40589  27.034  41.161   0.117
72361ION    NA+40590  28.278   1.384   0.060
72362ION    NA+40591  35.446  30.138   3.241
72363ION    NA+40592   6.792   2.732   0.404
72364ION    NA+40593  19.619   5.639  11.778
72365ION    NA+40594  15.250  39.499  11.427
72366ION    NA+40595  17.086  17.144  11.966
72367ION    NA+40596  34.946  29.748  13.848
72368ION    NA+40597  24.620  20.393  11.590
72369ION    NA+40598  10.700   0.346   0.260
72370ION    NA+40599  28.657  28.973  10.732
72371ION    NA+40600   2.924   0.240  14.806
72372ION    NA+40601  24.526  21.772  13.158
72373ION    NA+40602  28.158  31.777   0.512
72374ION    NA+40603  28.907  36.491  11.912
72375ION    NA+40604  39.598   0.073   3.876
72376ION    NA+40605  40.821   2.772   0.735
72377ION    NA+40606  37.056  35.539   4.506
72378ION    NA+40607  39.604  44.362  14.172
72379ION    NA+40608  20.161  15.568  14.648
72380ION    NA+40609  12.227  38.485  10.852
72381ION    NA+40610  30.021  23.993  13.703
72382ION    NA+40611   0.295  41.969   4.435
72383ION    NA+40612   1.191  19.442  13.657
72384ION    NA+40613  40.697  37.311   1.659
72385ION    NA+40614  27.205  35.943   4.120
72386ION    NA+40615  24.164  32.189  13.565
72387ION    NA+40616   8.245   5.646  11.591
72388ION    NA+40617  16.959  20.450   5.367
72389ION    NA+40618  24.299  26.263   5.000
72390ION    NA+40619   8.148  32.832   1.192
72391ION    NA+40620  25.793  14.317  11.822
72392ION    NA+40621  14.969  17.785   4.244
72393ION    NA+40622  18.119  34.704   3.231
72394ION    NA+40623  40.069  38.659   4.711
72395ION    NA+40624  44.985  19.107   2.777
72396ION    NA+40625  22.490  29.919  14.326
72397ION    NA+40626   3.316  42.945   4.891
72398ION    NA+40627  36.244   5.998  12.560
72399ION    NA+40628  21.755  29.381   2.646
72400ION    NA+40629  18.276  19.203   0.679
72401ION    NA+40630  25.035  16.756   3.235
72402ION    NA+40631  10.001  40.146   2.604
72403ION    NA+40632  13.830  21.413   4.615
72404ION    NA+40633  17.925  38.060   0.177
72405ION    NA+40634  37.039  28.966   0.491
72406ION    NA+40635  34.011  32.038  14.761
72407ION    NA+40636  34.873  11.621   4.105
72408ION    NA+40637  13.166  12.186   2.383
72409ION    NA+40638   5.962  26.082   0.687
72410ION    NA+40639  20.075  42.732   5.291
72411ION    NA+40640  38.965  23.847  12.374
72412ION    NA+40641  19.865  25.306  13.754
72413ION    NA+40642   1.822   9.421  11.222
72414ION    NA+40643  42.312  40.749  13.559
72415ION    NA+40644  24.389   0.945  10.940
72416ION    NA+40645   4.170  27.484   0.728
72417ION    NA+40646  25.260  15.014  11.900
72418ION    NA+40647  13.472   5.953   0.846
72419ION    NA+40648  44.758  27.351  12.737
72420ION    NA+40649  37.856  31.944   0.833
72421ION    NA+40650  21.407  20.404   1.817
72422ION    NA+40651  16.162   1.130   0.464
72423ION    NA+40652   6.985  34.482   0.937
72424ION    NA+40653  44.509  21.266   0.487
72425ION    NA+40654  26.724  26.500  10.733
72426ION    NA+40655  44.672  24.571   4.383
72427ION    NA+40656  13.110   6.022   3.118
72428ION    NA+40657   7.198   2.228  12.684
72429ION    NA+40658  19.679  17.783   1.749
72430ION    NA+40659  37.821   9.612  10.097
72431ION    NA+40660   1.235  41.366  13.067
72432ION    NA+40661  30.052  29.410   2.525
72433ION    NA+40662  42.059  36.374  10.596
72434ION    NA+40663   2.088  20.143   3.378
72435ION    NA+40664  40.911  21.717   4.600
72436ION    NA+40665  10.196  37.513   3.053
72437ION    NA+40666  12.343   0.043   3.232
72438ION    NA+40667  19.602   5.808  10.793
72439ION    NA+40668  20.261  33.640  10.780
72440ION    NA+40669  30.683  16.114  10.814
72441ION    NA+40670   9.937  37.309   1.703
72442ION    NA+40671  24.026  11.980   1.955
72443ION    NA+40672  43.763  26.564   1.795
72444ION    NA+40673  24.485   4.997   3.216
72445ION    NA+40674  14.163  11.416   1.867
72446ION    NA+40675  43.058  13.260   2.182
72447ION    NA+40676   8.479  29.531  10.669
72448ION    NA+40677   6.893  30.454   2.236
72449ION    NA+40678  28.828  12.673   4.106
72450ION    NA+40679  32.129  32.150   9.955
72451ION    NA+40680   9.117  36.596   3.192
72452ION    NA+40681  31.397  28.902   3.786
72453ION    NA+40682  15.357  23.841   0.516
72454ION    NA+40683  21.163   9.226  14.441
72455ION    NA+40684  43.585  35.885  12.488
72456ION    NA+40685  35.286  39.046  14.471
72457ION    NA+40686  10.498  12.750   1.632
72458ION    NA+40687  28.743  31.493   1.342
72459ION    NA+40688   7.391  19.715  12.416
72460ION    NA+40689  19.347   0.451  14.166
72461ION    NA+40690  27.556  25.083   4.619
72462ION    NA+40691  41.896  37.134   0.496
72463ION    NA+40692  12.393   7.738  13.115
72464ION    NA+40693   8.526  34.725  13.998
72465ION    NA+40694  31.478  10.059  13.859
72466ION    NA+40695  17.178  17.356   1.234
72467ION    NA+40696   1.988  31.139  14.764
72468ION    NA+40697  35.675  42.004   4.870
72469ION    NA+40698  17.518  23.168   2.393
72470ION    NA+40699  10.430  11.038  14.738
72471ION    NA+40700  31.504  22.822   4.091
72472ION    NA+40701   9.462   2.433  14.543
72473ION    NA+40702  10.573   2.037  10.775
72474ION    NA+40703   4.408  18.314  13.771
72475ION    NA+40704  30.101  17.473  13.433
72476ION    NA+40705   0.832  18.714  14.412
72477ION    NA+40706  38.010  33.217   5.147
72478ION    NA+40707   0.726  35.916   4.583
72479ION    NA+40708   8.641  23.289   0.005
72480ION    NA+40709  13.254  13.986  13.177
72481ION    NA+40710  40.640  37.537  11.538
72482ION    NA+40711  42.204  11.602  11.502
72483ION    NA+40712  34.169  44.277  10.800
72484ION    NA+40713  21.914  37.355   3.815
72485ION    NA+40714   0.456  30.242   1.864
72486ION    NA+40715  19.681  13.891   4.722
72487ION    NA+40716  36.934  28.417  14.661
72488ION    NA+40717  39.766  27.349   4.849
72489ION    NA+40718  44.325  14.453  14.539
72490ION    NA+40719   3.785  25.933  12.243
72491ION    NA+40720  18.045   0.980  11.588
72492ION    NA+40721  19.708  17.300   0.381
72493ION    NA+40722  16.970  35.549  12.573
72494ION    NA+40723  21.361   6.940  12.825
72495ION    NA+40724  31.650  19.628  10.783
72496ION    NA+40725   3.469  17.529   1.270
72497ION    NA+40726  35.782  37.940   3.736
72498ION    NA+40727  40.871  18.208  12.863
72499ION    NA+40728  17.617  43.713   4.256
72500ION    NA+40729  29.490  16.838  13.669
72501ION    NA+40730  32.439   9.620   3.925
72502ION    NA+40731  26.957   1.736  14.366
72503ION    NA+40732   8.173  38.417   4.234
72504ION    NA+40733  14.294   9.783  12.530
72505ION    NA+40734  42.205  10.535  11.308
72506ION    NA+40735  26.427  18.299   0.863
72507ION    NA+40736  35.366  34.618   1.738
72508ION    NA+40737  33.071  31.080  13.549
72509ION    NA+40738  21.421  13.240  10.202
72510ION    NA+40739  21.107  42.425   2.572
72511ION    NA+40740  23.402  39.573   2.705
72512ION    NA+40741  21.743  14.140   0.491
72513ION    NA+40742  25.339  10.287  11.146
72514ION    NA+40743  23.690  19.957   0.340
72515ION    NA+40744  12.417   5.958  14.263
72516ION    NA+40745  22.193  26.124   3.601
72517ION    NA+40746  29.905  16.091   3.497
72518ION    NA+40747  18.777  15.878   1.284
72519ION    NA+40748  37.084   6.907   4.065
72520ION    NA+40749   8.184  12.666  12.024
72521ION    NA+40750  16.992  20.636   2.402
72522ION    NA+40751  13.157  36.415  10.660
72523ION    NA+40752   1.472   9.327  12.592
72524ION    NA+40753  23.404  23.107  11.954
72525ION    NA+40754   6.213  11.529   4.467
72526ION    NA+40755   5.554  42.214  11.794
72527ION    NA+40756   9.134  31.511  10.682
72528ION    NA+40757  14.472  17.572  13.915
72529ION    NA+40758  33.365  27.165  11.594
72530ION    NA+40759  15.662   3.942  10.731
72531ION    NA+40760  14.592  37.551  11.268
72532ION    NA+40761  44.675   3.912  13.790
72533ION    NA+40762  21.359  26.216  13.549
72534ION    NA+40763  40.978   3.620  10.760
72535ION    NA+40764   7.954  42.032   2.571
72536ION    NA+40765  27.921  12.858   3.142
72537ION    NA+40766   4.500  22.423  12.054
72538ION    NA+40767  44.124  25.554  10.375
72539ION    NA+40768  24.974   2.010   0.562
72540ION    NA+40769  25.175  43.892  11.177
72541ION    NA+40770  38.578  38.087  12.405
72542ION    NA+40771  40.487  33.288  13.035
72543ION    NA+40772  15.160  26.463  12.028
72544ION    NA+40773  36.903   4.449   1.058
72545ION    NA+40774   5.225  24.084   1.832
72546ION    NA+40775  38.867  15.924  13.393
72547ION    NA+40776  44.972  21.175  13.419
72548ION    NA+40777  12.311  24.022  11.436
72549ION    NA+40778   2.849  40.566  14.529
72550ION    NA+40779   4.853  35.628  13.923
72551ION    NA+40780  43.581  18.073   4.152
72552ION    NA+40781  12.983  43.550   4.575
72553ION    NA+40782  17.739  14.742   4.248
72554ION    NA+40783  21.716  17.670   1.442
72555ION    NA+40784  29.711  25.465  13.891
72556ION    NA+40785  27.814  19.468  13.879
72557ION    NA+40786   4.051  27.362  13.348
72558ION    NA+40787  31.147   0.198   1.648
72559ION    NA+40788  43.890  43.399   1.767
72560ION    NA+40789   6.861   8.643  10.864
72561ION    NA+40790   3.065  13.114   0.626
72562ION    NA+40791  32.975   7.565   3.819
72563ION    NA+40792  13.614  12.576   0.727
72564ION    NA+40793  44.784  17.041  10.900
72565ION    NA+40794  37.919  22.202  10.844
72566ION    NA+40795   3.050  33.414  10.050
72567ION    NA+40796   3.310   7.678   3.154
72568ION    NA+40797  33.363  21.929  10.957
72569ION    NA+40798  41.893  35.330   4.530
72570ION    NA+40799   4.348  25.768   1.281
72571ION    NA+40800  35.692  28.559   4.141
72572ION    NA+40801  21.338  20.377  14.408
72573ION    NA+40802  25.844   6.929   0.129
72574ION    NA+40803  43.020  38.078   3.203
72575ION    NA+40804  30.227  35.086  11.987
72576ION    NA+40805  26.248  37.216  10.125
72577ION    NA+40806  25.626   6.498  12.932
72578ION    NA+40807  34.512   1.947  10.472
72579ION    NA+40808  21.604  27.877   3.585
72580ION    NA+40809  11.413  35.668  14.048
72581ION    NA+40810   9.766   2.026  13.869
72582ION    NA+40811   0.216  34.061  14.902
72583ION    NA+40812  41.870  20.817   2.739
72584ION    NA+40813  19.538  20.200   4.803
72585ION    NA+40814  20.990  13.358   2.196
72586ION    NA+40815  24.957  36.757   3.323
72587ION    NA+40816   0.474  20.320   2.315
72588ION    NA+40817  31.500  39.855  11.570
72589ION    NA+40818  23.889  34.612  12.569
72590ION    NA+40819  27.550   5.727  14.006
72591ION    NA+40820  43.658   6.612   0.489
72592ION    NA+40821  25.959   1.280  12.817
72593ION    NA+40822   8.891  12.867   5.306
72594ION    NA+40823  16.511  41.698  12.117
72595ION    NA+40824  40.968  23.609   0.352
72596ION    NA+40825  21.082   6.960   1.833
72597ION    NA+40826   4.588  28.212  14.258
72598ION    NA+40827   9.979   5.837   2.994
72599ION    NA+40828  18.970  19.614  10.684
72600ION    NA+40829   8.697  25.146  12.519
72601ION    NA+40830   2.422  17.091   1.922
72602ION    NA+40831  14.244   7.944  11.374
72603ION    NA+40832  12.266  12.920   5.036
72604ION    NA+40833  15.111   5.334   3.807
72605ION    NA+40834   0.954  10.305   0.298
72606ION    NA+40835   9.523  26.198   2.265
72607ION    NA+40836   3.818  41.608   3.763
72608ION    NA+40837  41.880  18.338  12.968
72609ION    NA+40838  17.038   0.496  11.611
72610ION    NA+40839  26.751   1.572   2.294
72611ION    NA+40840  28.918  40.057   0.921
72612ION    NA+40841  31.438   8.260   2.694
72613ION    NA+40842  28.258  40.940  11.760
72614ION    NA+40843   6.867   3.198   2.207
72615ION    NA+40844  25.434  39.601  12.453
72616ION    NA+40845  31.613  36.856  11.630
72617ION    NA+40846  19.820  30.110   3.335
72618ION    NA+40847  33.218  43.005   0.299
72619ION    NA+40848  29.923  34.636   0.293
72620ION    NA+40849  30.800  31.035  10.884
72621ION    NA+40850  44.846  33.703   4.594
72622ION    NA+40851  15.309  23.726   3.624
72623ION    NA+40852  26.391  11.212  12.890
72624ION    NA+40853  41.458  44.460   4.649
72625ION    NA+40854  34.081  37.406  14.509
72626ION    NA+40855  20.557  20.856  14.440
72627ION    NA+40856  38.044  23.103  10.836
72628ION    NA+40857   6.686  28.731  10.939
72629ION    NA+40858  42.178  11.852  14.036
72630ION    NA+40859  11.154  27.929   2.240
72631ION    NA+40860  32.911  11.143   0.196
72632ION    NA+40861   6.671   2.293  11.836
72633ION    NA+40862  11.621   3.393   4.166
72634ION    NA+40863   6.332  30.004  14.995
72635ION    NA+40864  42.479  14.997  13.433
72636ION    NA+40865  40.037  44.404  13.109
72637ION    NA+40866  28.891   2.435  11.174
72638ION    NA+40867  44.011  32.940   4.279
72639ION    NA+40868  22.493  40.012   1.157
72640ION    NA+40869  11.227  34.106   4.457
72641ION    NA+40870  42.833  41.989   5.100
72642ION    NA+40871  10.341  44.302   2.753
72643ION    NA+40872  15.435  44.532   0.461
72644ION    NA+40873  40.018  21.581  14.251
72645ION    NA+40874   0.263  29.989  11.225
72646ION    NA+40875  21.686  13.832   3.279
72647ION    NA+40876   5.348   4.422  12.624
72648ION    NA+40877   4.199  10.758  12.067
72649ION    NA+40878  35.658  43.346   0.368
72650ION    NA+40879  38.526  16.553  11.143
72651ION    NA+40880  20.754  36.972   3.751
72652ION    NA+40881  39.076   8.097   3.530
72653ION    NA+40882  36.290  19.002   0.572
72654ION    NA+40883  41.479  35.282  13.397
72655ION    NA+40884  36.370  43.465  13.463
72656ION    NA+40885  33.954  18.280  14.951
72657ION    NA+40886  18.546  10.363   3.697
72658ION    NA+40887  18.794  12.592  11.082
72659ION    NA+40888  15.325  40.746  14.748
72660ION    NA+40889  13.755  43.097  12.160
72661ION    NA+40890  33.578  30.136   1.698
72662ION    NA+40891  21.922   7.451  12.431
72663ION    NA+40892  38.809   6.123   2.554
72664ION    NA+40893  33.498  28.477   2.292
72665ION    NA+40894  28.032  42.640   2.878
72666ION    NA+40895  10.409  37.635  14.825
72667ION    NA+40896   2.076  25.078   0.743
72668ION    NA+40897   0.264   3.475   1.255
72669ION    NA+40898   4.934  20.348   2.887
72670ION    NA+40899  23.640   4.559   0.055
72671ION    NA+40900  16.204  24.215   3.337
72672ION    NA+40901  29.649   6.450  12.972
72673ION    NA+40902  24.665  20.070   0.530
72674ION    NA+40903  37.071  38.108   2.314
72675ION    NA+40904  27.142  18.769  13.631
72676ION    NA+40905  26.475  32.234  13.508
72677ION    NA+40906  30.587  21.760  13.071
72678ION    NA+40907  35.523  11.043   1.579
72679ION    NA+40908  39.329  17.944  13.165
72680ION    NA+40909  24.435  33.615  13.347
72681ION    NA+40910   6.036  30.196  11.226
72682ION    NA+40911  36.881  23.093  10.432
72683ION    NA+40912  36.734  27.672   2.463
72684ION    NA+40913  15.167   4.811   2.819
72685ION    NA+40914   5.551  28.993  12.157
72686ION    NA+40915  18.816   6.699   4.497
72687ION    NA+40916  17.567   7.799   2.272
72688ION    NA+40917   3.509  40.042   1.681
72689ION    NA+40918   5.925   5.958  12.014
72690ION    NA+40919  11.937  24.442   4.115
72691ION    NA+40920  33.622  39.047  11.998
72692ION    NA+40921  22.022  15.022   4.203
72693ION    NA+40922  34.839   2.784  11.516
72694ION    NA+40923  33.692   3.060  11.096
72695ION    NA+40924  40.027   7.199   4.168
72696ION    NA+40925  25.658   9.290  13.594
72697ION    NA+40926  39.909   6.363   4.935
72698ION    NA+40927  12.061  44.289   4.357
72699ION    NA+40928  37.382  29.586  13.744
72700ION    NA+40929  38.076  23.265   1.745
72701ION    NA+40930  18.997  16.808  11.270
72702ION    NA+40931  35.801  43.480   2.371
72703ION    NA+40932  22.054  17.724  13.904
72704ION    NA+40933  18.231  40.636  12.490
72705ION    NA+40934  16.658  19.289   2.306
72706ION    NA+40935  19.511  41.121   1.158
72707ION    NA+40936  18.264  20.517   2.964
72708ION    NA+40937  12.040  12.284  13.605
72709ION    NA+40938  18.606  36.567   2.718
72710ION    NA+40939  35.765  31.544  12.618
72711ION    NA+40940  17.260   4.461   4.676
72712ION    NA+40941  43.686  13.769   4.641
72713ION    NA+40942  30.533  33.784   0.839
72714ION    NA+40943  43.229   9.619  13.699
72715ION    NA+40944  27.103   6.551   2.527
72716ION    NA+40945   9.257   3.363  10.753
72717ION    NA+40946  29.664  37.946  12.802
72718ION    NA+40947  33.811  35.367   2.830
72719ION    NA+40948  31.951  38.314  12.934
72720ION    NA+40949  30.665  27.699  13.639
72721ION    NA+40950   2.454  14.195   2.108
72722ION    NA+40951  14.072   9.180   1.407
72723ION    NA+40952  27.800  35.218   0.103
72724ION    NA+40953  16.253   5.778  10.607
72725ION    NA+40954   1.800  35.916   1.546
72726ION    NA+40955  12.410   7.411   2.710
72727ION    NA+40956  44.766  28.260   4.636
72728ION    NA+40957  22.748   8.670  12.209
72729ION    NA+40958   2.993   5.828   3.164
72730ION    NA+40959  32.965  12.363  11.223
72731ION    NA+40960  14.317   3.303  13.695
72732ION    NA+40961  21.388   1.662  13.925
72733ION    NA+40962  34.464  12.425   4.600
72734ION    NA+40963  14.544  18.005  10.559
72735ION    NA+40964  23.327  27.331   3.939
72736ION    NA+40965   4.192   4.257   1.652
72737ION    NA+40966  24.285  18.212   4.043
72738ION    NA+40967  16.744  21.578   2.033
72739ION    NA+40968  17.605   9.119  14.537
72740ION    NA+40969  27.372  11.198   0.341
72741ION    NA+40970  10.699   5.323   1.297
72742ION    NA+40971  44.066  28.146  13.409
72743ION    NA+40972   7.170  28.112   3.009
72744ION    NA+40973  10.702  25.056  14.203
72745ION    NA+40974  14.250  11.305  12.166
72746ION    NA+40975  34.512  28.724   2.271
72747ION    NA+40976  24.359  31.404   1.840
72748ION    NA+40977  13.367  42.332  14.043
72749ION    NA+40978  19.747   9.655   3.377
72750ION    NA+40979  18.561   7.600  12.596
72751ION    NA+40980  19.260   3.654  11.400
72752ION    NA+40981  21.053  40.359   5.379
72753ION    NA+40982   0.103  20.983   4.882
72754ION    NA+40983  44.808  24.323  12.533
72755ION    NA+40984  15.049   1.056   9.774
72756ION    NA+40985  31.240  28.849   0.219
72757ION    NA+40986  30.069  29.535  14.860
72758ION    NA+40987   7.957  31.610   0.904
72759ION    NA+40988  20.816  25.420   3.467
72760ION    NA+40989   3.358  24.739   5.205
72761ION    NA+40990  27.864  17.200  14.788
72762ION    NA+40991  23.748  27.355  11.581
72763ION    NA+40992   1.168  17.345   5.105
72764ION    NA+40993  24.762  42.056  13.479
72765ION    NA+40994  15.129  32.931  11.896
72766ION    NA+40995  32.813  42.758   3.971
72767ION    NA+40996  16.106  42.272   3.339
72768ION    NA+40997  16.316  38.702  11.517
72769ION    NA+40998  25.772  36.604  10.756
72770ION    NA+40999   7.537   4.883  12.915
72771ION    NA+41000  37.099  30.953  11.118
72772ION    NA+41001  22.927  12.107   3.642
72773ION    NA+41002  24.132   2.684   4.736
72774ION    NA+41003  31.149  24.274  12.121
72775ION    NA+41004   2.014   9.962  12.040
72776ION    NA+41005  44.985   5.210   1.086
72777ION    NA+41006  33.507  17.812   0.510
72778ION    NA+41007  12.077  17.312  14.629
72779ION    NA+41008  12.023   9.918  11.558
72780ION    NA+41009  31.895   7.571  14.972
72781ION    NA+41010  32.327  37.249   1.409
72782ION    NA+41011   0.977  15.602   3.719
72783ION    NA+41012  29.988  22.924   4.164
72784ION    NA+41013  27.541  24.550   0.911
72785ION    NA+41014  32.434  32.638   2.395
72786ION    NA+41015  14.358   4.072  14.178
72787ION    NA+41016   2.786  36.820  12.392
72788ION    NA+41017  14.734  26.580  14.571
72789ION    NA+41018   6.992   6.917   1.713
72790ION    NA+41019  29.608  12.060   2.216
72791ION    NA+41020  26.664   3.006   4.662
72792ION    NA+41021  13.024   8.085   9.957
72793ION    NA+41022  34.347  20.402   1.514
72794ION    NA+41023  10.216   6.429   0.055
72795ION    NA+41024  12.328  25.065  13.268
72796ION    NA+41025   4.761  44.515  11.153
72797ION    NA+41026   3.887  16.311   3.311
72798ION    NA+41027  41.240  11.874  11.600
72799ION    NA+41028  12.416  41.866   2.322
72800ION    NA+41029  22.605  25.476  13.109
72801ION    NA+41030  28.600   5.205   4.122
72802ION    NA+41031  31.416  28.174   4.311
72803ION    NA+41032  40.672  33.081   4.014
72804ION    NA+41033  26.540  21.044  13.434
72805ION    NA+41034  24.572  20.787  12.986
72806ION    NA+41035  40.842  23.219  11.332
72807ION    NA+41036  34.637  35.887  13.998
72808ION    NA+41037   1.675   4.825  13.714
72809ION    NA+41038  16.118  42.496  12.222
72810ION    NA+41039  42.626  20.980  13.513
72811ION    NA+41040  29.101  34.341   4.484
72812ION    NA+41041  27.422  27.977  13.259
72813ION    NA+41042  24.194   4.384  10.591
72814ION    NA+41043  22.275  40.224   3.010
72815ION    NA+41044   7.343  36.514  11.544
72816ION    NA+41045  20.727  36.067  14.125
72817ION    NA+41046  23.797  36.508  14.154
72818ION    NA+41047  25.904  21.593  14.631
72819ION    NA+41048  10.766   8.089   1.313
72820ION    NA+41049  38.621  39.455   0.768
72821ION    NA+41050  15.965  42.777   1.463
72822ION    NA+41051  40.885   2.513  12.068
72823ION    NA+41052  31.342  40.877  13.086
72824ION    NA+41053   7.275  16.738   3.139
72825ION    NA+41054   3.208  39.608  14.839
72826ION    NA+41055  14.970  40.845  12.838
72827ION    NA+41056  11.099   9.246  12.972
72828ION    NA+41057  42.129  30.063  13.704
72829ION    NA+41058  12.417  19.616   3.450
72830ION    NA+41059   2.057   9.130   4.366
72831ION    NA+41060  22.417  19.650  12.078
72832ION    NA+41061  30.945   6.027  14.161
72833ION    NA+41062  25.079  27.010   1.491
72834ION    NA+41063  10.644  20.040   4.224
72835ION    NA+41064  36.083  44.962  10.659
72836ION    NA+41065  32.511   8.380  10.716
72837ION    NA+41066   7.878   1.505   1.764
72838ION    NA+41067  37.997  10.834   4.789
72839ION    NA+41068  14.776  27.225  12.549
72840ION    NA+41069  14.882  13.657   4.431
72841ION    NA+41070  19.037  18.665  13.389
72842ION    NA+41071  36.014  41.398  11.777
72843ION    NA+41072  40.443  34.623   2.718
72844ION    NA+41073  44.322  34.130   1.789
72845ION    NA+41074  29.980  41.743  12.204
72846ION    NA+41075   9.101   5.728  10.790
72847ION    NA+41076  30.417  12.219  12.447
72848ION    NA+41077   7.198   4.491   9.811
72849ION    NA+41078  19.457  28.158  13.799
72850ION    NA+41079   6.337  18.263  13.513
72851ION    NA+41080  11.414  35.595   3.829
72852ION    NA+41081  10.658   6.002   0.704
72853ION    NA+41082   2.157  43.351  11.184
72854ION    NA+41083  17.362  32.010  10.744
72855ION    NA+41084  33.172  41.643  11.693
72856ION    NA+41085  10.452   1.007  13.768
72857ION    NA+41086  31.106  15.015  11.616
72858ION    NA+41087  43.856  39.856  10.683
72859ION    NA+41088   2.173  42.997   2.969
72860ION    NA+41089  27.725  11.862  12.871
72861ION    NA+41090   0.014  25.553   3.093
72862ION    NA+41091  22.918   3.889   0.228
72863ION    NA+41092  19.416  26.070   1.392
72864ION    NA+41093  18.043  18.559   1.944
72865ION    NA+41094  27.432  29.861   0.114
72866ION    NA+41095  39.818  35.451   1.945
72867ION    NA+41096  15.564   2.009  13.006
72868ION    NA+41097   5.526  34.193   1.753
72869ION    NA+41098  41.559  37.104  11.089
72870ION    NA+41099  10.039  21.042   1.421
72871ION    NA+41100  10.365  35.645  14.902
72872ION    NA+41101  20.479  18.531   4.957
72873ION    NA+41102   3.695   1.488  13.840
72874ION    NA+41103  35.551  16.067  12.582
72875ION    NA+41104  17.187  24.168   4.307
72876ION    NA+41105  38.352  31.321   0.472
72877ION    NA+41106  10.997  44.282  11.910
72878ION    NA+41107  24.661  21.791   0.971
72879ION    NA+41108  26.021  15.673   0.481
72880ION    NA+41109  14.649  14.127  10.678
72881ION    NA+41110  18.194  26.079   1.601
72882ION    NA+41111  13.178  17.481  13.984
72883ION    NA+41112  32.828  25.756   1.982
72884ION    NA+41113  27.389  26.867  11.921
72885ION    NA+41114   7.710   0.317  12.887
72886ION    NA+41115  29.715  35.899  10.992
72887ION    NA+41116  38.944   9.439   0.916
72888ION    NA+41117  30.872  39.965  14.839
72889ION    NA+41118  26.990  20.825   1.481
72890ION    NA+41119  16.109  11.545   3.819
72891ION    NA+41120   3.164  32.728  13.144
72892ION    NA+41121   7.380  41.732  14.921
72893ION    NA+41122  33.016   4.009   3.252
72894ION    NA+41123  17.251  28.919  13.637
72895ION    NA+41124  17.085  15.554   0.376
72896ION    NA+41125  28.166   2.454  14.707
72897ION    NA+41126  37.053  40.866  13.467
72898ION    NA+41127  27.953  30.577   0.780
72899ION    NA+41128  38.735   0.829  11.474
72900ION    NA+41129  21.115   0.786   3.737
72901ION    NA+41130   5.935  44.557   0.038
72902ION    NA+41131  35.387   5.767   9.619
72903ION    NA+41132   8.788  33.397   1.868
72904ION    NA+41133  31.623   7.767  12.887
72905ION    NA+41134  26.713  42.067  14.844
72906ION    NA+41135   4.546   4.134  14.863
72907ION    NA+41136  25.862   0.551   3.384
72908ION    NA+41137  29.678  20.974  10.742
72909ION    NA+41138  28.690  34.876   1.379
72910ION    NA+41139  24.002  14.844   3.249
72911ION    NA+41140  42.439  28.164   1.481
72912ION    NA+41141  38.063  10.613  14.009
72913ION    NA+41142  16.814  22.922   4.053
72914ION    NA+41143  44.511  17.357   4.960
72915ION    NA+41144   7.034  33.690  11.954
72916ION    NA+41145  16.943  32.384   4.113
72917ION    NA+41146  11.953  34.718   9.931
72918ION    NA+41147  10.131   3.357   0.350
72919ION    NA+41148  11.695  11.687   4.097
72920ION    NA+41149  44.180  19.703   4.588
72921ION    NA+41150  13.380  17.822   1.736
72922ION    NA+41151  19.659  38.850   2.092
72923ION    NA+41152   0.478  27.004  13.372
72924ION    NA+41153  29.951  16.987   0.348
72925ION    NA+41154   4.461  18.330   3.447
72926ION    NA+41155  34.837   9.295   1.956
72927ION    NA+41156  36.139   4.708  11.388
72928ION    NA+41157  16.269  31.980   1.337
72929ION    NA+41158  38.918   6.756  10.196
72930ION    NA+41159   8.762  42.713  13.760
72931ION    NA+41160  29.855  20.579  13.351
72932ION    NA+41161  16.528  36.977   1.195
72933ION    NA+41162   6.220  11.919   1.011
72934ION    NA+41163  39.358  11.060   3.723
72935ION    NA+41164  20.616  35.182   0.996
72936ION    NA+41165  40.984   0.540   3.565
72937ION    NA+41166  17.648  41.891  11.761
72938ION    NA+41167  24.559  18.091   3.089
72939ION    NA+41168  37.445  44.382   2.683
72940ION    NA+41169  17.551  44.691   0.313
72941ION    NA+41170  40.110  18.821   1.980
72942ION    NA+41171  26.950  30.139   2.526
72943ION    NA+41172  17.767   1.469   3.608
72944ION    NA+41173   9.485  38.037   4.709
72945ION    NA+41174  34.336  14.159   4.274
72946ION    NA+41175  19.320  42.421   3.604
72947ION    NA+41176  21.970   6.613   2.135
72948ION    NA+41177  23.792  42.916   0.220
72949ION    NA+41178  28.045  26.521  10.376
72950ION    NA+41179  10.451   0.103   1.605
72951ION    NA+41180  13.381  33.380  11.828
72952ION    NA+41181   1.908   7.774  14.762
72953ION    NA+41182   1.742   7.239   3.405
72954ION    NA+41183  37.651   3.615   1.356
72955ION    NA+41184  15.188  34.720   1.758
72956ION    NA+41185   8.740  39.034   0.447
72957ION    NA+41186   6.194  22.377  12.478
72958ION    NA+41187  29.358   7.750   0.963
72959ION    NA+41188  30.849  29.190  11.914
72960ION    NA+41189  21.448  22.813  11.881
72961ION    NA+41190  19.263  22.529  10.573
72962ION    NA+41191  35.326  41.123   3.446
72963ION    NA+41192  21.431  27.537   0.820
72964ION    NA+41193   4.663  34.371  11.032
72965ION    NA+41194  36.650  33.073   4.746
72966ION    NA+41195   6.815  42.524   0.881
72967ION    NA+41196  17.148  31.283  14.716
72968ION    NA+41197  11.126  32.365  14.092
72969ION    NA+41198  34.682  37.268   0.121
72970ION    NA+41199  14.153  31.196   2.703
72971ION    NA+41200  32.855   7.741   1.857
72972ION    NA+41201  40.807  10.589  11.813
72973ION    NA+41202   3.869  21.628  12.169
72974ION    NA+41203  35.081  11.602   1.065
72975ION    NA+41204  24.391  11.843  13.187
72976ION    NA+41205  38.014  38.636   4.070
72977ION    NA+41206  38.709  35.064   1.026
72978ION    NA+41207  12.138  15.381   1.064
72979ION    NA+41208  14.784   1.302   3.282
72980ION    NA+41209   9.602   3.719  13.510
72981ION    NA+41210  36.350   9.290   3.506
72982ION    NA+41211  41.158   6.705   4.224
72983ION    NA+41212   7.149   0.051  14.527
72984ION    NA+41213  41.452   6.043   3.620
72985ION    NA+41214  33.534  28.454  12.563
72986ION    NA+41215  27.072   4.384  13.334
72987ION    NA+41216  44.328  28.854  12.169
72988ION    NA+41217  44.722  21.318  14.377
72989ION    NA+41218   8.873  36.290  12.283
72990ION    NA+41219  44.270  31.350  10.971
72991ION    NA+41220   6.099  23.415   3.642
72992ION    NA+41221  10.732   3.729  14.130
72993ION    NA+41222  24.178  15.105  11.062
72994ION    NA+41223   2.752   2.438  11.097
72995ION    NA+41224  36.636   9.139  14.198
72996ION    NA+41225  38.973  43.761  13.681
72997ION    NA+41226  14.600   6.698  14.223
72998ION    NA+41227  10.856  31.695  10.845
72999ION    NA+41228   4.083  14.869   3.557
73000ION    NA+41229  31.736   0.671  13.493
73001ION    NA+41230  13.133  32.489   1.912
73002ION    NA+41231  43.037   2.706   4.084
73003ION    NA+41232  19.497  31.018   3.600
73004ION    NA+41233  40.923  40.015  12.868
73005ION    NA+41234  42.145  38.339   0.745
73006ION    NA+41235  37.282   9.893   2.838
73007ION    NA+41236  41.354  31.623  11.329
73008ION    NA+41237  22.671  41.722   4.624
73009ION    NA+41238   3.740  14.622   1.949
73010ION    NA+41239   4.732  36.071   9.806
73011ION    NA+41240  12.331  41.303   0.923
73012ION    NA+41241   6.862  21.314   2.549
73013ION    NA+41242  30.705  23.657   1.282
73014ION    NA+41243  30.205  28.117   4.864
73015ION    NA+41244   6.153  17.434   0.175
73016ION    NA+41245  29.642  26.307  13.355
73017ION    NA+41246  12.532  20.859   0.573
73018ION    NA+41247  20.269   1.457   1.034
73019ION    NA+41248   6.929  18.848   0.137
73020ION    NA+41249   8.249  28.992   2.815
73021ION    NA+41250   6.659  43.301   4.703
73022ION    NA+41251   3.739  40.978  12.406
73023ION    NA+41252  12.497  30.915  13.701
73024ION    NA+41253  29.042  42.782   1.316
73025ION    NA+41254  20.576  40.549  12.074
73026ION    NA+41255  29.612  23.236  10.866
73027ION    NA+41256   4.066  22.337  14.321
73028ION    NA+41257  30.845  38.057  11.605
73029ION    NA+41258  25.002  30.670  10.919
73030ION    NA+41259  37.037  35.139   1.505
73031ION    NA+41260  15.483  16.685  12.125
73032ION    NA+41261  16.239  21.657   3.438
73033ION    NA+41262   0.511  34.818   1.652
73034ION    NA+41263  10.842   1.547   1.002
73035ION    NA+41264   8.606   5.008   3.978
73036ION    NA+41265  44.502   8.786   0.009
73037ION    NA+41266  15.613  11.356  10.363
73038ION    NA+41267  28.126   9.928  12.405
73039ION    NA+41268  41.403  15.375  11.859
73040ION    NA+41269  18.751  26.810  12.092
73041ION    NA+41270  24.397   1.640  12.504
73042ION    NA+41271  42.582  16.205   2.664
73043ION    NA+41272   3.259  37.216   4.188
73044ION    NA+41273  10.807   3.682   2.264
73045ION    NA+41274  12.383  39.130   1.776
73046ION    NA+41275  33.618  40.739   0.138
73047ION    NA+41276  32.407  35.859   3.711
73048ION    NA+41277   9.133  33.535  10.936
73049ION    NA+41278  38.083  13.348   0.775
73050ION    NA+41279   4.835  41.927   1.452
73051ION    NA+41280  27.896  36.759   0.477
73052ION    NA+41281  17.770  18.408  12.977
73053ION    NA+41282   3.850   4.773  12.419
73054ION    NA+41283   2.036  16.823  11.599
73055ION    NA+41284  13.625  10.056   5.040
73056ION    NA+41285  27.702   5.832  11.597
73057ION    NA+41286  34.000  12.921   0.313
73058ION    NA+41287   7.603  17.477  14.361
73059ION    NA+41288   5.745  12.117   5.148
73060ION    NA+41289  24.884   9.408   5.255
73061ION    NA+41290  38.435   0.140   1.044
73062ION    NA+41291  35.900  44.380   3.815
73063ION    NA+41292   6.951   0.248   4.088
73064ION    NA+41293  19.603  16.199   1.822
73065ION    NA+41294  36.072  40.430  14.797
73066ION    NA+41295   8.415  36.956   2.379
73067ION    NA+41296  22.446  44.865   0.778
73068ION    NA+41297  37.581  36.430  14.300
73069ION    NA+41298  29.608   1.290  14.056
73070ION    NA+41299  20.469   1.711   4.643
73071ION    NA+41300  12.279  44.899  12.549
73072ION    NA+41301  22.112   4.393  14.918
73073ION    NA+41302  20.807  14.920   3.205
73074ION    NA+41303  28.822   5.912   0.616
73075ION    NA+41304  22.653  28.137  13.649
73076ION    NA+41305  22.283  10.098   2.524
73077ION    NA+41306  33.509  21.100   5.226
73078ION    NA+41307  17.672  33.893  13.273
73079ION    NA+41308   9.897  30.851  12.336
73080ION    NA+41309  36.335  30.780   0.447
73081ION    NA+41310  23.402  24.422   4.545
73082ION    NA+41311  18.190  33.091   0.020
73083ION    NA+41312   5.357   3.862   3.824
73084ION    NA+41313  25.267  30.447   3.601
73085ION    NA+41314   5.122  27.920  12.407
73086ION    NA+41315  25.754  33.341   5.165
73087ION    NA+41316  34.203   3.086  12.673
73088ION    NA+41317  34.852  26.010  13.386
73089ION    NA+41318  40.867  26.980  11.078
73090ION    NA+41319   2.555  18.824  14.226
73091ION    NA+41320  35.961  18.562  13.935
73092ION    NA+41321  37.786   8.289  13.320
73093ION    NA+41322   1.196  18.173   3.398
73094ION    NA+41323  37.963  26.882   4.932
73095ION    NA+41324  35.501  29.453  12.304
73096ION    NA+41325  35.835  29.147  11.534
73097ION    NA+41326  44.135   7.554  11.609
73098ION    NA+41327  14.671  14.897   0.331
73099ION    NA+41328  31.186  39.152  13.302
73100ION    NA+41329  16.234  23.984  12.948
73101ION    NA+41330  31.058   4.071   0.267
73102ION    NA+41331  15.231  10.253   3.216
73103ION    NA+41332  33.951  13.889  14.409
73104ION    NA+41333  36.012   4.024  13.974
73105ION    NA+41334   3.051  25.761   4.395
73106ION    NA+41335   5.252  30.095  13.897
73107ION    NA+41336  40.269  17.451  12.482
73108ION    NA+41337  36.974  41.794   4.696
73109ION    NA+41338   5.137  22.665   3.075
73110ION    NA+41339   0.288   5.713   3.567
73111ION    NA+41340   3.002  30.093  10.755
73112ION    NA+41341  11.073  37.481  11.631
73113ION    NA+41342  33.090  12.865  12.134
73114ION    NA+41343  12.606  36.012   2.869
73115ION    NA+41344  27.640  19.170  10.718
73116ION    NA+41345  21.664  40.978  12.939
73117ION    NA+41346  19.085   0.071   0.060
73118ION    NA+41347  10.371  33.499  12.152
73119ION    NA+41348  16.538  33.679   0.852
73120ION    NA+41349   3.288  18.539   5.151
73121ION    NA+41350  19.036  17.670  11.536
73122ION    NA+41351  17.810  12.869   3.628
73123ION    NA+41352  13.129  37.624   4.602
73124ION    NA+41353  34.126   8.050   0.670
73125ION    NA+41354  38.265  28.647  14.994
73126ION    NA+41355   9.386  29.443   3.008
73127ION    NA+41356  34.392  27.842   3.835
73128ION    NA+41357  44.989  25.127  11.967
73129ION    NA+41358  26.114  39.995   3.812
73130ION    NA+41359   5.325  19.011  11.625
73131ION    NA+41360  43.735  24.289   4.685
73132ION    NA+41361  42.418   9.293  13.488
73133ION    NA+41362  14.226  12.212   4.005
73134ION    NA+41363  30.103  20.576   2.108
73135ION    NA+41364  38.098   5.970  13.591
73136ION    NA+41365  26.044  25.891   3.789
73137ION    NA+41366  42.876  39.235   4.693
73138ION    NA+41367  12.253  30.039  13.731
73139ION    NA+41368  42.204   2.154   0.047
73140ION    NA+41369  21.143  32.585   4.880
73141ION    NA+41370  43.947  14.662   2.361
73142ION    NA+41371  35.389  10.213  13.372
73143ION    NA+41372  42.970  38.696  14.041
73144ION    NA+41373  28.551  26.365   1.459
73145ION    NA+41374   4.382  23.710  14.088
73146ION    NA+41375  10.197   5.586  14.036
73147ION    NA+41376   8.702  25.026  14.506
73148ION    NA+41377  32.961  30.779  11.528
73149ION    NA+41378  13.277  29.389   9.862
73150ION    NA+41379  17.943  41.768   1.409
73151ION    NA+41380  16.988  28.421   0.450
73152ION    NA+41381  27.082  32.774   2.539
73153ION    NA+41382  21.219  10.917  11.547
73154ION    NA+41383  13.214  39.021  11.427
73155ION    NA+41384  43.883  14.290   0.315
73156ION    NA+41385  25.007  31.732   0.626
73157ION    NA+41386  31.098  35.068  10.516
73158ION    NA+41387   1.767  40.123   1.842
73159ION    NA+41388  26.792  25.441   2.732
73160ION    NA+41389  41.187  26.125   2.706
73161ION    NA+41390  24.908  31.569  14.738
73162ION    NA+41391   6.998  24.357   1.846
73163ION    NA+41392  17.091  41.308   2.957
73164ION    NA+41393   3.093  19.150  13.613
73165ION    NA+41394   0.690  25.049   3.299
73166ION    NA+41395   2.660   4.284   3.212
73167ION    NA+41396  19.541   4.172  13.900
73168ION    NA+41397  40.508  24.547  12.632
73169ION    NA+41398  27.003  43.034   4.321
73170ION    NA+41399  20.877  19.080   4.287
73171ION    NA+41400  31.298  17.608   1.402
73172ION    NA+41401  30.608  22.667   1.382
73173ION    NA+41402   4.041  43.506  10.664
73174ION    NA+41403  44.306  35.409   1.111
73175ION    NA+41404  27.201  18.576  12.652
73176ION    NA+41405  35.809   4.751  12.236
73177ION    NA+41406  14.931  19.986   5.035
73178ION    NA+41407  28.054   2.642  10.667
73179ION    NA+41408  19.736  16.231  13.919
73180ION    NA+41409  34.547  40.404  10.172
73181ION    NA+41410  38.969  39.696   4.962
73182ION    NA+41411  20.738  23.150   4.127
73183ION    NA+41412   0.200  19.751  10.303
73184ION    NA+41413  32.603  38.489   0.194
73185ION    NA+41414  16.227  37.236   3.377
73186ION    NA+41415  10.797  25.065   3.365
73187ION    NA+41416  22.040  35.620  12.432
73188ION    NA+41417  36.875  14.737  12.177
73189ION    NA+41418  28.262  35.033  13.298
73190ION    NA+41419  19.671  20.326   3.699
73191ION    NA+41420  42.853  17.491  12.162
73192ION    NA+41421  11.956  30.151   0.551
73193ION    NA+41422  13.911  16.187   1.216
73194ION    NA+41423  38.404  10.583   0.845
73195ION    NA+41424  23.753   8.988   1.925
73196ION    NA+41425  24.473   7.187   3.985
73197ION    NA+41426  24.024   9.795   0.390
73198ION    NA+41427  34.112  30.535   3.718
73199ION    NA+41428  25.568  24.528   5.281
73200ION    NA+41429  25.036  24.406   3.181
73201ION    NA+41430  12.058  35.926  13.461
73202ION    NA+41431  21.400   7.109   5.092
73203ION    NA+41432   9.426  43.942  11.640
73204ION    NA+41433  17.224   2.062  14.243
73205ION    NA+41434  26.434  36.556   3.945
73206ION    NA+41435  44.098  38.383   4.655
73207ION    NA+41436   7.696  13.045   1.514
73208ION    NA+41437  11.689  21.337   3.035
73209ION    NA+41438   1.422  41.576   3.994
73210ION    NA+41439  32.437  42.386  12.885
73211ION    NA+41440  25.957  38.181  10.178
73212ION    NA+41441   3.368  24.209  12.343
73213ION    NA+41442  18.744   8.820   3.272
73214ION    NA+41443   6.508  34.167  11.278
73215ION    NA+41444  31.870  23.576   2.340
73216ION    NA+41445  38.424  37.205   2.559
73217ION    NA+41446   7.040  29.632  10.687
73218ION    NA+41447  41.878  20.443  12.997
73219ION    NA+41448  12.170   6.297   4.299
73220ION    NA+41449   4.219  36.859   4.414
73221ION    NA+41450  38.645  39.565  12.270
73222ION    NA+41451  21.869  39.725  10.825
73223ION    NA+41452   5.348  35.757  12.648
73224ION    NA+41453  37.918   2.804  13.812
73225ION    NA+41454  35.155  44.742   2.497
73226ION    NA+41455  44.022   2.916  10.337
73227ION    NA+41456  14.168  21.267  11.360
73228ION    NA+41457  44.095  36.519   3.659
73229ION    NA+41458  34.823  18.246   0.445
73230ION    NA+41459   0.542  28.638  13.869
73231ION    NA+41460  24.288  34.517   0.467
73232ION    NA+41461  25.110  28.226   4.278
73233ION    NA+41462  12.517  24.260  14.259
73234ION    NA+41463  17.091  31.542   4.633
73235ION    NA+41464  30.889  26.097  13.041
73236ION    NA+41465  13.086   9.910  14.336
73237ION    NA+41466  23.189  19.131   1.495
73238ION    NA+41467   2.406  42.417   4.453
73239ION    NA+41468  26.385   9.667   2.444
73240ION    NA+41469   3.968  24.246   2.185
73241ION    NA+41470  36.026  37.452   2.897
73242ION    NA+41471  19.479  29.060  13.786
73243ION    NA+41472   3.610   3.601  13.946
73244ION    NA+41473  15.121  32.705  10.922
73245ION    NA+41474  44.506  25.992  12.099
73246ION    NA+41475  18.139   8.263   0.268
73247ION    NA+41476  18.047  25.407   5.028
73248ION    NA+41477   8.795  35.402   2.120
73249ION    NA+41478  38.831   2.911  13.418
73250ION    NA+41479  16.123  12.441   3.655
73251ION    NA+41480   8.267  11.299   2.637
73252ION    NA+41481   1.204  16.268  11.601
73253ION    NA+41482   6.317   6.175   1.259
73254ION    NA+41483  39.085  32.891  14.779
73255ION    NA+41484  23.513   9.069  13.380
73256ION    NA+41485  34.078  41.572   2.894
73257ION    NA+41486  41.615  24.388   3.655
73258ION    NA+41487  39.085  42.737   9.788
73259ION    NA+41488  38.009  19.777   3.073
73260ION    NA+41489  41.138  40.227   3.081
73261ION    NA+41490   2.535  42.699   2.085
73262ION    NA+41491  32.034  17.297  12.046
73263ION    NA+41492  22.018  29.047  14.045
73264ION    NA+41493   7.803  12.680  14.007
73265ION    NA+41494  37.783  42.724  14.859
73266ION    NA+41495  42.046  44.617   1.083
73267ION    NA+41496  33.105   9.028  11.193
73268ION    NA+41497  27.589  41.912   2.400
73269ION    NA+41498   3.987   6.841  12.940
73270ION    NA+41499  42.014  12.873   1.038
73271ION    NA+41500   1.002  14.231   4.612
73272ION    NA+41501   7.114  33.889  11.080
73273ION    NA+41502  26.154   4.292   0.093
73274ION    NA+41503  20.012  33.142  12.181
73275ION    NA+41504   9.397  14.178   1.806
73276ION    NA+41505  25.266  28.521   2.255
73277ION    NA+41506  18.823  23.415  10.717
73278ION    NA+41507  22.827  40.987  10.253
73279ION    NA+41508  33.215  27.640  14.538
73280ION    NA+41509  16.074  23.448   2.709
73281ION    NA+41510   7.716   7.351  14.971
73282ION    NA+41511  26.440  43.111   2.456
73283ION    NA+41512  35.463   3.291   3.534
73284ION    NA+41513  22.641  39.789  14.215
73285ION    NA+41514  19.518  28.500   0.905
73286ION    NA+41515  10.456  30.170   5.128
73287ION    NA+41516  11.386   9.331   5.341
73288ION    NA+41517  29.172  35.987   3.410
73289ION    NA+41518  40.791   5.568  10.667
73290ION    NA+41519   3.124   3.422  10.904
73291ION    NA+41520  32.525  18.051   3.707
73292ION    NA+41521  14.586   3.068   1.581
73293ION    NA+41522   4.788  22.670   1.272
73294ION    NA+41523  29.428  17.823   0.182
73295ION    NA+41524  12.292  15.315   3.275
73296ION    NA+41525   3.361  27.615   1.317
73297ION    NA+41526  34.028  15.446   3.885
73298ION    NA+41527   3.190   9.224   3.653
73299ION    NA+41528   6.146  21.548  14.862
73300ION    NA+41529  26.318  35.625   2.111
73301ION    NA+41530  36.625  19.235  13.397
73302ION    NA+41531  25.427  30.949   2.176
73303ION    NA+41532  28.597   5.026  14.366
73304ION    NA+41533  13.038  14.952   0.991
73305ION    NA+41534  29.585   6.185  11.535
73306ION    NA+41535  23.011  35.803  14.608
73307ION    NA+41536  37.850  38.242  13.080
73308ION    NA+41537   1.613  19.796  12.822
73309ION    NA+41538  41.915  37.621  14.562
73310ION    NA+41539  24.751  39.412   2.959
73311ION    NA+41540   8.344  39.484  12.344
73312ION    NA+41541  32.224  10.790  13.563
73313ION    NA+41542   8.668   4.634   2.529
73314ION    NA+41543  34.495  36.267  12.755
73315ION    NA+41544  29.750  42.813   0.082
73316ION    NA+41545  23.940  10.087  12.028
73317ION    NA+41546  28.356  35.585   3.825
73318ION    NA+41547  10.524  12.566  14.656
73319ION    NA+41548  23.065  38.601   0.130
73320ION    NA+41549   7.430  13.606  12.626
73321ION    NA+41550  30.097  13.181   2.041
73322ION    NA+41551  43.531  38.961   3.209
73323ION    NA+41552  12.999  16.357   1.813
73324ION    NA+41553   2.926  20.340   3.684
73325ION    NA+41554  31.624  18.013   0.211
73326ION    NA+41555  11.765  33.117  13.931
73327ION    NA+41556  23.986  29.671   4.462
73328ION    NA+41557  24.034  43.791  10.783
73329ION    NA+41558  36.546  27.236   3.544
73330ION    NA+41559  28.981   8.936   1.464
73331ION    NA+41560  22.323   1.747  12.500
73332ION    NA+41561  39.033  18.351   2.484
73333ION    NA+41562   6.253   9.437  10.851
73334ION    NA+41563   4.522  38.876   2.852
73335ION    NA+41564  31.430   3.226   3.948
73336ION    NA+41565   7.258  13.535   3.592
73337ION    NA+41566  18.124  22.595  12.685
73338ION    NA+41567   9.171  35.769   3.931
73339ION    NA+41568  40.563   3.995  12.354
73340ION    NA+41569  21.476  24.923   0.866
73341ION    NA+41570   1.133  44.988  12.749
73342ION    NA+41571  13.116  20.629   3.717
73343ION    NA+41572   0.845  25.354   1.434
73344ION    NA+41573  22.598  29.946   4.583
73345ION    NA+41574  25.570  26.456   0.819
73346ION    NA+41575   9.173  22.126  11.251
73347ION    NA+41576   2.976  41.471  11.988
73348ION    NA+41577   2.243  24.493   1.427
73349ION    NA+41578  11.382  11.140  13.879
73350ION    NA+41579   7.562  21.721  14.367
73351ION    NA+41580   2.864  17.439  13.471
73352ION    NA+41581   2.351  41.524   9.758
73353ION    NA+41582  42.456  28.727  13.323
73354ION    NA+41583   8.163  23.053  12.515
73355ION    NA+41584  41.792  18.801   0.751
73356ION    NA+41585  24.931  11.888   0.750
73357ION    NA+41586  29.695   3.680  10.075
73358ION    NA+41587  36.878  39.701   4.244
73359ION    NA+41588  38.182  24.655   1.752
73360ION    NA+41589  10.844  28.719  10.324
73361ION    NA+41590  25.270   0.935  10.196
73362ION    NA+41591  37.324   5.703  13.018
73363ION    NA+41592   8.107  21.432   3.219
73364ION    NA+41593   1.685  33.362   0.477
73365ION    NA+41594  39.875   5.184  13.103
73366ION    NA+41595  13.119  13.078  11.875
73367ION    NA+41596  27.290  42.748   2.485
73368ION    NA+41597  29.270  43.244   4.522
73369ION    NA+41598  42.343   6.952  12.978
73370ION    NA+41599  14.062  23.501  14.994
73371ION    NA+41600   8.504   0.756  13.567
73372ION    NA+41601   1.795  28.371   4.006
73373ION    NA+41602  32.554   1.826   2.336
73374ION    NA+41603  15.352  30.042   3.876
73375ION    NA+41604  30.996  34.477   3.687
73376ION    NA+41605  14.007  39.664  12.883
73377ION    NA+41606  11.851  33.699   3.771
73378ION    NA+41607  42.054  17.151   4.108
73379ION    NA+41608  33.630  22.990   0.489
73380ION    NA+41609  28.243  39.099  12.332
73381ION    NA+41610  40.863  42.682   4.269
73382ION    NA+41611  43.638  39.969   4.624
73383ION    NA+41612  25.303  43.313  14.735
73384ION    NA+41613   7.769  11.365  13.159
73385ION    NA+41614  39.460  39.289  12.122
73386ION    NA+41615  32.584   7.179   2.726
73387ION    NA+41616   4.324   9.486  14.010
73388ION    NA+41617  20.145  42.806   1.411
73389ION    NA+41618  31.526  44.981  12.833
73390ION    NA+41619  27.736  14.410   4.248
73391ION    NA+41620   7.020   4.168   1.783
73392ION    NA+41621   9.291   6.457  14.675
73393ION    NA+41622  12.173  21.720   0.657
73394ION    NA+41623  10.347  10.237  14.331
73395ION    NA+41624   9.193  12.948   0.369
73396ION    NA+41625  22.717  37.605   3.274
73397ION    NA+41626  41.565  11.148  10.837
73398ION    NA+41627  26.416  40.636  14.902
73399ION    NA+41628  21.156  11.168  13.455
73400ION    NA+41629  25.599  40.306  11.506
73401ION    NA+41630   8.006  27.442   0.940
73402ION    NA+41631   7.932  27.909  14.938
73403ION    NA+41632  21.514   0.761  11.027
73404ION    NA+41633  43.659  39.149  12.470
73405ION    NA+41634  41.616   7.746   5.034
73406ION    NA+41635  27.499  36.481  11.649
73407ION    NA+41636   0.748   0.852   2.534
73408ION    NA+41637  11.637   2.470  13.858
73409ION    NA+41638   4.108  12.139   1.921
73410ION    NA+41639   8.890  12.652  10.670
73411ION    NA+41640   7.273  24.297  12.219
73412ION    NA+41641  24.870   6.640   0.379
73413ION    NA+41642  15.478  43.401  14.856
73414ION    NA+41643   9.348  31.216   0.908
73415ION    NA+41644  24.279   3.483   4.278
73416ION    NA+41645  37.901  25.013  11.390
73417ION    NA+41646  39.528  40.845   1.435
73418ION    NA+41647  32.757  21.133  10.954
73419ION    NA+41648  33.060  26.493   2.422
73420ION    NA+41649  14.871  43.632   0.738
73421ION    NA+41650  15.608   3.080   3.296
73422ION    NA+41651   8.831  42.910  10.752
73423ION    NA+41652   8.344  23.724   1.799
73424ION    NA+41653  18.520   4.996   4.092
73425ION    NA+41654  28.752  28.167  11.708
73426ION    NA+41655  27.520  13.553  13.456
73427ION    NA+41656  38.747  41.832  13.849
73428ION    NA+41657  29.888  26.231   1.383
73429ION    NA+41658  22.788  30.318   0.194
73430ION    NA+41659   1.777  37.707  13.060
73431ION    NA+41660   2.788  44.191   4.375
73432ION    NA+41661  36.678  10.693  13.517
73433ION    NA+41662  15.504  18.620   4.121
73434ION    NA+41663  33.643   0.715  11.192
73435ION    NA+41664  14.217  32.649   1.925
73436ION    NA+41665  11.107  26.598   0.354
73437ION    NA+41666  32.262   0.102  13.499
73438ION    NA+41667  39.315  22.997   2.318
73439ION    NA+41668  31.722  31.381  13.913
73440ION    NA+41669  31.687  28.928   2.425
73441ION    NA+41670   6.839  16.774   2.238
73442ION    NA+41671  14.019   8.744   2.305
73443ION    NA+41672  29.417  17.795   1.288
73444ION    NA+41673   7.791  32.146  14.330
73445ION    NA+41674  16.813   4.393   0.672
73446ION    NA+41675  23.415   3.908  14.310
73447ION    NA+41676   4.422   2.736   3.767
73448ION    NA+41677  27.434  15.580   1.925
73449ION    NA+41678  15.527  13.687   1.190
73450ION    NA+41679   0.278  28.490   0.377
73451ION    NA+41680  40.570   4.475  11.162
73452ION    NA+41681  40.925  26.851  14.106
73453ION    NA+41682   3.483  35.221   2.586
73454ION    NA+41683  36.731  44.889  12.050
73455ION    NA+41684  10.511  36.850   0.436
73456ION    NA+41685  18.377  20.172  12.427
73457ION    NA+41686  27.638  30.580  14.450
73458ION    NA+41687  41.754  31.284  13.127
73459ION    NA+41688  30.262  16.002   0.369
73460ION    NA+41689  18.295  36.815  14.972
73461ION    NA+41690  16.985  21.850   2.965
73462ION    NA+41691   9.356  20.922  13.478
73463ION    NA+41692  39.357  24.254  13.927
73464ION    NA+41693  43.890   6.481  12.498
73465ION    NA+41694   8.413  29.328  12.458
73466ION    NA+41695  36.865  40.488   4.861
73467ION    NA+41696  16.080  24.188   0.191
73468ION    NA+41697   7.493  39.919  14.719
73469ION    NA+41698  13.156   8.409  10.811
73470ION    NA+41699   6.658  24.926   1.219
73471ION    NA+41700  21.340  33.479   0.968
73472ION    NA+41701   0.844  10.444  13.825
73473ION    NA+41702  42.139  12.508  11.923
73474ION    NA+41703  41.864  29.320   2.820
73475ION    NA+41704  29.627  15.692  14.821
73476ION    NA+41705  35.976  29.610   4.299
73477ION    NA+41706  10.339  31.122  11.481
73478ION    NA+41707   2.546   1.457  11.942
73479ION    NA+41708  35.146  24.013  13.390
73480ION    NA+41709   4.776  27.457   1.523
73481ION    NA+41710  29.497  11.399   4.088
73482ION    NA+41711  33.532   7.664  11.044
73483ION    NA+41712  13.628  44.734  11.563
73484ION    NA+41713  37.238  39.072  12.671
73485ION    NA+41714  21.229  23.764   3.508
73486ION    NA+41715   0.461   6.443   2.906
73487ION    NA+41716   3.946  16.509  12.089
73488ION    NA+41717  16.147  42.992   2.431
73489ION    NA+41718  43.460  36.653   0.359
73490ION    NA+41719   5.724   1.029   0.662
73491ION    NA+41720  18.871  31.572   3.933
73492ION    NA+41721  18.758   5.216  13.259
73493ION    NA+41722  23.317  34.608   0.092
73494ION    NA+41723  15.757  21.148  12.751
73495ION    NA+41724  27.969  41.374   0.401
73496ION    NA+41725   0.886  12.089   3.227
73497ION    NA+41726  42.044  39.701  11.970
73498ION    NA+41727   6.338  31.972   2.633
73499ION    NA+41728  37.475  44.096   0.980
73500ION    NA+41729   7.146  32.514  10.712
73501ION    NA+41730  39.430  15.103   2.278
73502ION    NA+41731  37.390  39.332   0.334
73503ION    NA+41732  19.216  15.126  11.538
73504ION    NA+41733  19.961  25.551  14.637
73505ION    NA+41734  18.035  42.808   1.791
73506ION    NA+41735   3.303  10.700  11.550
73507ION    NA+41736  30.540  19.357  14.819
73508ION    NA+41737  33.743  36.764  10.109
73509ION    NA+41738  33.390  22.969   4.757
73510ION    NA+41739  43.763  16.077   3.818
73511ION    NA+41740   5.484  14.913   1.424
73512ION    NA+41741   2.302  25.862  13.062
73513ION    NA+41742  38.518  14.615  12.099
73514ION    NA+41743  10.544  22.441  11.297
73515ION    NA+41744  16.333  12.702  13.409
73516ION    NA+41745   2.008   9.438   2.384
73517ION    NA+41746  20.853  23.834   2.474
73518ION    NA+41747  30.139  43.736   4.572
73519ION    NA+41748  39.829  40.360  14.723
73520ION    NA+41749  37.538  25.310  12.144
73521ION    NA+41750  41.271  38.322   3.573
73522ION    NA+41751  42.488  10.779  10.173
73523ION    NA+41752   0.217  37.589  14.364
73524ION    NA+41753  25.994  18.429  12.912
73525ION    NA+41754   6.438   2.326   2.572
73526ION    NA+41755  42.849  39.819   0.464
73527ION    NA+41756  39.967  23.763   0.271
73528ION    NA+41757   5.196  11.860   1.351
73529ION    NA+41758   4.214   8.567   1.312
73530ION    NA+41759  11.956  38.373   1.494
73531ION    NA+41760   3.000  43.576   2.211
73532ION    NA+41761  37.784  10.779   3.098
73533ION    NA+41762  22.996  40.481   4.349
73534ION    NA+41763  30.951  34.839  13.481
73535ION    NA+41764  11.772  23.808   2.251
73536ION    NA+41765   5.755  44.409  11.168
73537ION    NA+41766  10.719  25.662   0.066
73538ION    NA+41767  14.449   2.386  13.629
73539ION    NA+41768  19.256   7.792  14.669
73540ION    NA+41769   0.809  36.594   2.850
73541ION    NA+41770  42.960   9.449   3.828
73542ION    NA+41771   2.107  44.537   2.686
73543ION    NA+41772  23.197  16.706  12.864
73544ION    NA+41773  35.032  42.390   2.729
73545ION    NA+41774  29.218  30.619   3.250
73546ION    NA+41775   1.571  32.727  12.114
73547ION    NA+41776  14.185  29.646  10.929
73548ION    NA+41777   5.252  13.066  12.503
73549ION    NA+41778  28.493  37.216   4.738
73550ION    NA+41779  36.879   0.700   3.172
73551ION    NA+41780  44.596  31.361  13.965
73552ION    NA+41781  26.046  32.367  10.184
73553ION    NA+41782   4.450  22.749   4.579
73554ION    NA+41783  40.794   4.120   2.470
73555ION    NA+41784   2.651  32.031  11.164
73556ION    NA+41785  24.319  29.649   1.328
73557ION    NA+41786  17.097  16.239   2.291
73558ION    NA+41787   8.952   9.213  14.584
73559ION    NA+41788  16.763  28.832  12.768
73560ION    NA+41789  40.513  33.694   2.354
73561ION    NA+41790  30.180   9.440  14.493
73562ION    NA+41791   2.426   0.258   3.851
73563ION    NA+41792  10.907   0.320  11.124
73564ION    NA+41793  33.730  25.915  12.475
73565ION    NA+41794  41.809  13.701   4.901
73566ION    NA+41795  13.094   8.935  10.161
73567ION    NA+41796   4.865   5.964  14.816
73568ION    NA+41797  10.810  12.695  12.651
73569ION    NA+41798   5.268  19.941  10.687
73570ION    NA+41799  21.757  35.645  11.188
73571ION    NA+41800  18.550  22.556   3.243
73572ION    NA+41801  26.571  37.726  12.519
73573ION    NA+41802  42.465  10.830  12.442
73574ION    NA+41803  20.258  42.098   0.832
73575ION    NA+41804  35.989  25.150   1.341
73576ION    NA+41805   6.189  21.085  10.746
73577ION    NA+41806  15.544  38.244  12.458
73578ION    NA+41807  42.051  23.420   2.720
73579ION    NA+41808  11.253  29.740  11.409
73580ION    NA+41809  17.133  19.105   1.187
73581ION    NA+41810  22.350  44.985   4.659
73582ION    NA+41811   5.467  13.947   1.166
73583ION    NA+41812  32.093  25.740  13.428
73584ION    NA+41813  14.366  34.685  11.964
73585ION    NA+41814   8.125  43.995   1.863
73586ION    NA+41815  14.332  16.259   2.825
73587ION    NA+41816  35.817  40.698  13.827
73588ION    NA+41817   0.750  35.917   3.583
73589ION    NA+41818   1.924  29.093  10.584
73590ION    NA+41819  36.862   0.771   5.066
73591ION    NA+41820  13.244  44.852   1.963
73592ION    NA+41821  19.769  24.015  14.843
73593ION    NA+41822  41.910  21.799   3.653
73594ION    NA+41823  17.831  39.055   2.720
73595ION    NA+41824  17.774  36.167   9.980
73596ION    NA+41825   1.580  43.040  13.178
73597ION    NA+41826   4.407  19.004   1.683
73598ION    NA+41827  22.062  44.051  10.723
73599ION    NA+41828  27.668  15.285  13.531
73600ION    NA+41829  42.472  26.991   0.606
73601ION    NA+41830   9.623   0.814   0.289
73602ION    NA+41831   2.932  28.455   2.149
73603ION    NA+41832  18.227  24.398   1.809
73604ION    NA+41833   9.642   7.680  14.515
73605ION    NA+41834  27.094  25.981   4.545
73606ION    NA+41835  31.182  43.164  14.149
73607ION    NA+41836  11.867  11.454  13.249
73608ION    NA+41837  26.547  31.889  10.603
73609ION    NA+41838  18.863  29.129   3.118
73610ION    NA+41839  29.883  23.516  12.974
73611ION    NA+41840   1.910  25.957   0.552
73612ION    NA+41841  12.267  15.515   4.866
73613ION    NA+41842  15.458  38.688   2.391
73614ION    NA+41843   9.383  19.607   0.260
73615ION    NA+41844  29.296  17.111  10.973
73616ION    NA+41845  31.829  15.180  10.469
73617ION    NA+41846   5.892  29.239   1.210
73618ION    NA+41847  40.016  40.483   3.160
73619ION    NA+41848  22.846  29.538   1.143
73620ION    NA+41849  12.428   2.416  11.275
73621ION    NA+41850  19.557   8.431   3.706
73622ION    NA+41851  42.812  36.249  11.242
73623ION    NA+41852   0.459  15.121  11.433
73624ION    NA+41853  16.592  20.350   1.448
73625ION    NA+41854  17.938  21.719  13.987
73626ION    NA+41855  28.513  10.231   5.188
73627ION    NA+41856  21.477   5.609   4.122
73628ION    NA+41857  14.063  12.612  12.852
73629ION    NA+41858  16.813  17.269  13.994
73630ION    NA+41859  11.110  16.909  14.149
73631ION    NA+41860   3.241  37.109   3.293
73632ION    NA+41861  20.845   1.728  14.846
73633ION    NA+41862  12.165  10.737   3.343
73634ION    NA+41863  15.604  33.476  14.538
73635ION    NA+41864  12.544   7.629  11.930
73636ION    NA+41865   6.776  39.099  12.915
73637ION    NA+41866  26.220   2.831   1.158
73638ION    NA+41867  43.257  42.619   4.712
73639ION    NA+41868  29.607  11.338  14.666
73640ION    NA+41869  41.049  41.223   3.099
73641ION    NA+41870   4.630  28.282   0.165
73642ION    NA+41871  11.637  33.959  10.840
73643ION    NA+41872   6.302  35.185   4.029
73644ION    NA+41873  30.204   6.922  12.156
73645ION    NA+41874  26.236   7.231   3.711
73646ION    NA+41875   0.681  27.708   1.870
73647ION    NA+41876  24.553  32.219   2.387
73648ION    NA+41877  13.626  39.443   0.453
73649ION    NA+41878  28.817  38.090  12.589
73650ION    NA+41879  13.540   5.205   2.734
73651ION    NA+41880   2.967  22.050   2.685
73652ION    NA+41881   6.478  16.267  13.458
73653ION    NA+41882  14.822  22.121  10.738
73654ION    NA+41883  12.215   3.883   2.604
73655ION    NA+41884   3.240  23.295   4.815
73656ION    NA+41885  18.896  26.505  13.739
73657ION    NA+41886   0.734  14.293  11.923
73658ION    NA+41887   8.935  29.376  13.575
73659ION    NA+41888   0.214  18.159   1.520
73660ION    NA+41889  41.189  44.672  11.630
73661ION    NA+41890  20.312  42.415   3.207
73662ION    NA+41891  40.557  33.015   1.775
73663ION    NA+41892  17.162   2.368   1.175
73664ION    NA+41893  19.155  10.619  12.835
73665ION    NA+41894   9.049  41.438   3.375
73666ION    NA+41895  27.586  26.016  12.818
73667ION    NA+41896   5.223   6.355  12.606
73668ION    NA+41897  23.610  31.558   4.627
73669ION    NA+41898  39.600  11.549  12.433
73670ION    NA+41899  25.999  39.481   4.670
73671ION    NA+41900   1.502  43.773  14.402
73672ION    NA+41901  29.648  23.586   2.830
73673ION    NA+41902  22.437   9.645   3.303
73674ION    NA+41903  38.080  12.572   1.689
73675ION    NA+41904  35.622  21.027  11.582
73676ION    NA+41905  19.885  20.594  11.197
73677ION    NA+41906  38.384  43.700  10.990
73678ION    NA+41907  44.205   6.213   3.798
73679ION    NA+41908  12.008  36.265   4.011
73680ION    NA+41909  35.140  26.955   4.638
73681ION    NA+41910  13.050   4.503   4.436
73682ION    NA+41911  10.916  42.492   0.914
73683ION    NA+41912  10.902   7.137   2.353
73684ION    NA+41913  41.935  27.621   2.498
73685ION    NA+41914  23.015  10.387  10.166
73686ION    NA+41915  38.915  31.450   1.852
73687ION    NA+41916  40.654  31.169   0.982
73688ION    NA+41917  15.655  40.524   2.716
73689ION    NA+41918  23.964  33.884  11.887
73690ION    NA+41919  42.976  14.321  12.520
73691ION    NA+41920   6.120  36.730   0.516
73692ION    NA+41921   5.707  13.483  11.633
73693ION    NA+41922   2.166  13.511   2.796
73694ION    NA+41923   9.632   6.917   2.844
73695ION    NA+41924   9.536  20.733  12.283
73696ION    NA+41925  11.616   1.018  13.927
73697ION    NA+41926   3.278  31.954   1.347
73698ION    NA+41927  15.730  39.200  12.685
73699ION    NA+41928  42.939  26.816   3.261
73700ION    NA+41929  26.621  33.741   1.575
73701ION    NA+41930  37.887  18.069   1.351
73702ION    NA+41931  36.021  33.876   3.432
73703ION    NA+41932  12.125   9.613   0.985
73704ION    NA+41933  25.205  38.537   4.142
73705ION    NA+41934  28.887  14.763  14.981
73706ION    NA+41935  19.750  32.638   0.405
73707ION    NA+41936  17.724  15.524  12.566
73708ION    NA+41937   0.297   7.171  14.977
73709ION    NA+41938  10.819  42.892   3.663
73710ION    NA+41939  10.111  36.673  11.515
73711ION    NA+41940  33.772  10.812  14.728
73712ION    NA+41941  24.273   1.068  13.215
73713ION    NA+41942  29.243  38.993   0.851
73714ION    NA+41943   5.596  24.290   0.658
73715ION    NA+41944  24.729   4.543   2.277
73716ION    NA+41945   4.974  42.377   3.622
73717ION    NA+41946   4.872  33.876  12.624
73718ION    NA+41947   1.205  42.994   3.650
73719ION    NA+41948  33.311  18.013   1.470
73720ION    NA+41949  23.828   1.198  14.947
73721ION    NA+41950  40.796   8.521  11.440
73722ION    NA+41951  41.556  39.312   0.994
73723ION    NA+41952  34.625  13.212   4.136
73724ION    NA+41953  41.755  14.600  11.939
73725ION    NA+41954  15.968  44.105   1.201
73726ION    NA+41955  19.170   9.723   2.456
73727ION    NA+41956  41.152  42.897   5.076
73728ION    NA+41957  13.689   8.418   0.884
73729ION    NA+41958   2.555   9.991   4.465
73730ION    NA+41959  17.444  17.296   2.954
73731ION    NA+41960  35.584   8.665   0.522
73732ION    NA+41961  26.883  22.002  11.995
73733ION    NA+41962  38.324  11.463   2.247
73734ION    NA+41963   3.156  26.706   4.705
73735ION    NA+41964  24.406  41.189  12.429
73736ION    NA+41965  33.216  17.902  14.631
73737ION    NA+41966  37.326   9.025   2.344
73738ION    NA+41967  12.011   4.369   4.179
73739ION    NA+41968   0.207   3.297  14.476
73740ION    NA+41969   8.850  27.507   3.416
73741ION    NA+41970  20.258  27.692   3.250
73742ION    NA+41971  30.136  42.671  14.170
73743ION    NA+41972  35.519  37.638  11.196
73744ION    NA+41973  28.533   1.143   2.529
73745ION    NA+41974  41.891  31.402  12.143
73746ION    NA+41975   1.813  28.262  12.772
73747ION    NA+41976  26.961  40.425  13.381
73748ION    NA+41977  18.960   3.910  13.094
73749ION    NA+41978  30.540  43.914  13.990
73750ION    NA+41979   5.475  43.769  14.508
73751ION    NA+41980  34.199  21.947  10.758
73752ION    NA+41981  22.114   7.462   1.625
73753ION    NA+41982  19.417  37.078  13.345
73754ION    NA+41983  14.456  18.462   4.299
73755ION    NA+41984   2.785  37.510  13.116
73756ION    NA+41985  20.199  19.495   2.808
73757ION    NA+41986  35.329  40.189  12.633
73758ION    NA+41987   1.852  42.816  14.531
73759ION    NA+41988  28.566   0.488  13.522
73760ION    NA+41989  16.652   0.652   1.541
73761ION    NA+41990  28.207  34.927   3.087
73762ION    NA+41991  12.875   3.525  11.580
73763ION    NA+41992  42.920  10.779   3.401
73764ION    NA+41993  24.135  40.364   3.598
73765ION    NA+41994  17.439   3.397  14.887
73766ION    NA+41995  34.536  21.219   1.210
73767ION    NA+41996  44.258   8.674  13.151
73768ION    NA+41997   1.959  35.424   2.768
73769ION    NA+41998   1.269   9.400   3.812
73770ION    NA+41999  15.898  15.690  13.047
73771ION    NA+42000   2.501  27.854  12.038
73772ION    NA+42001  42.210  15.697  11.860
73773ION    NA+42002  27.985  42.034   4.875
73774ION    NA+42003  13.616  29.428   3.782
73775ION    NA+42004  26.461  21.774   4.473
73776ION    NA+42005  10.700   1.238  12.019
73777ION    NA+42006   2.514  39.351   3.031
73778ION    NA+42007  39.011  41.007  12.457
73779ION    NA+42008  34.395  44.249   0.826
73780ION    NA+42009  23.477  29.376  14.481
73781ION    NA+42010  21.130  21.716   3.068
73782ION    NA+42011  41.351  34.937   0.752
73783ION    NA+42012  30.100  35.731   3.178
73784ION    NA+42013  25.006  13.312   4.189
73785ION    NA+42014  18.875  12.007   3.245
73786ION    CL-42015  32.455   0.726  13.690
73787ION    CL-42016  42.802   9.427  13.696
73788ION    CL-42017   3.743  14.649   3.316
73789ION    CL-42018  16.330   6.327  14.222
73790ION    CL-42019   1.659  30.114  12.835
73791ION    CL-42020  43.212   1.823   5.034
73792ION    CL-42021   0.140   5.415   3.270
73793ION    CL-42022  39.554  31.643  12.693
73794ION    CL-42023  30.630  15.945   0.636
73795ION    CL-42024  35.871  24.627  12.411
73796ION    CL-42025  15.538  28.982  10.527
73797ION    CL-42026  12.927  13.440  12.050
73798ION    CL-42027   4.609  37.621  14.400
73799ION    CL-42028   5.454   4.683   1.975
73800ION    CL-42029  29.868  15.939   0.121
73801ION    CL-42030  13.362  42.169   3.275
73802ION    CL-42031   5.736  37.893  14.022
73803ION    CL-42032  33.296   0.969  11.338
73804ION    CL-42033   6.759  34.121  10.903
73805ION    CL-42034   8.590  14.659   0.677
73806ION    CL-42035  26.429  32.084  10.200
73807ION    CL-42036   5.838   8.756  13.622
73808ION    CL-42037  26.065  13.961  11.908
73809ION    CL-42038  28.604  26.754  14.945
73810ION    CL-42039   5.642  13.046  13.316
73811ION    CL-42040  33.825   4.541   0.425
73812ION    CL-42041  32.967  44.421   2.414
73813ION    CL-42042   6.503  16.505   2.108
73814ION    CL-42043  22.618  14.436   2.267
73815ION    CL-42044  10.675  43.524  10.531
73816ION    CL-42045  41.197  41.634   3.013
73817ION    CL-42046  23.635  24.078   4.740
73818ION    CL-42047  29.062   7.476  12.362
73819ION    CL-42048  36.903  28.084  12.505
73820ION    CL-42049  33.133  34.352  12.873
73821ION    CL-42050  33.994   0.487  11.016
73822ION    CL-42051  34.753  27.594   1.388
73823ION    CL-42052  28.196  20.633   2.587
73824ION    CL-42053  42.740  20.283   0.894
73825ION    CL-42054   6.151   8.573  12.014
73826ION    CL-42055   7.859  25.288   3.307
73827ION    CL-42056  41.427  14.915  11.918
73828ION    CL-42057  31.500   4.991   3.273
73829ION    CL-42058  38.772  20.865   2.621
73830ION    CL-42059  44.336  39.783   3.735
73831ION    CL-42060  12.988  31.769   3.416
73832ION    CL-42061  28.570   1.101  14.871
73833ION    CL-42062  39.796  10.784  10.649
73834ION    CL-42063  16.850  15.928   2.086
73835ION    CL-42064   0.737  42.736  11.542
73836ION    CL-42065  36.037  13.529  11.660
73837ION    CL-42066  41.359  41.600   0.202
73838ION    CL-42067  25.766  32.636  10.425
73839ION    CL-42068  37.852  22.365   0.418
73840ION    CL-42069   5.297   0.322   3.877
73841ION    CL-42070  32.860  16.117  13.880
73842ION    CL-42071  11.747  35.779  13.760
73843ION    CL-42072  33.583  33.478  11.894
73844ION    CL-42073  37.481  14.910   4.049
73845ION    CL-42074  42.988  43.711  12.371
73846ION    CL-42075  36.848   1.766  11.584
73847ION    CL-42076  30.418  35.258  11.622
73848ION    CL-42077  35.611  29.323  11.885
73849ION    CL-42078  17.799  14.721  11.141
73850ION    CL-42079  10.141  23.939  14.562
73851ION    CL-42080   8.998  44.616   3.183
73852ION    CL-42081  16.902   6.411   5.038
73853ION    CL-42082   8.909  36.737  12.299
73854ION    CL-42083   7.227   3.220  12.461
73855ION    CL-42084  30.204  25.896   4.116
73856ION    CL-42085  37.206  38.782  13.028
73857ION    CL-42086  28.151  42.452  11.138
73858ION    CL-42087  34.546  12.849   4.409
73859ION    CL-42088  41.356  31.430   3.185
73860ION    CL-42089  33.422   8.387   4.967
73861ION    CL-42090  17.765   9.423   0.894
73862ION    CL-42091  40.818  27.325   0.284
73863ION    CL-42092   3.197  38.609   0.971
73864ION    CL-42093  22.364  21.151  12.056
73865ION    CL-42094  26.147   7.139   4.150
73866ION    CL-42095  12.414  31.045   3.024
73867ION    CL-42096  16.843  28.486  12.498
73868ION    CL-42097  36.184  43.562   2.585
73869ION    CL-42098  18.592  30.895   0.782
73870ION    CL-42099   4.349  22.578   4.170
73871ION    CL-42100  43.349  17.691   4.135
73872ION    CL-42101   9.380  25.761   0.337
73873ION    CL-42102   9.753  22.798  11.867
73874ION    CL-42103  40.936  43.857  13.214
73875ION    CL-42104  16.555   0.374   1.879
73876ION    CL-42105  30.669  36.857   0.741
73877ION    CL-42106   3.487  43.099   4.453
73878ION    CL-42107   1.384   6.172   4.372
73879ION    CL-42108  13.010  28.682   0.700
73880ION    CL-42109  41.571  11.900   3.755
73881ION    CL-42110  33.290  17.925  14.173
73882ION    CL-42111   8.078  44.052   0.241
73883ION    CL-42112  26.877  44.476  14.747
73884ION    CL-42113  10.509  14.169  13.764
73885ION    CL-42114  11.963  15.055  11.958
73886ION    CL-42115   6.706  32.917   4.370
73887ION    CL-42116  43.205   8.474  14.810
73888ION    CL-42117  19.179  20.786  11.942
73889ION    CL-42118  26.220  18.679   0.975
73890ION    CL-42119  39.961  39.973  14.929
73891ION    CL-42120  27.220  28.176  13.612
73892ION    CL-42121  14.392  43.149   2.794
73893ION    CL-42122  15.075   8.725   3.398
73894ION    CL-42123   7.504   9.164  11.774
73895ION    CL-42124  14.903  42.347   2.428
73896ION    CL-42125   0.224  40.702  12.790
73897ION    CL-42126   6.038  40.163  12.600
73898ION    CL-42127  27.245  15.842  11.547
73899ION    CL-42128  26.172  40.346   0.153
73900ION    CL-42129  40.941  43.739   3.351
73901ION    CL-42130   2.720   4.807  13.019
73902ION    CL-42131  29.026  17.125  10.616
73903ION    CL-42132  39.422  22.774  13.901
73904ION    CL-42133  40.507  12.944  11.624
73905ION    CL-42134  35.838  31.173  11.216
73906ION    CL-42135  15.166  12.515  11.485
73907ION    CL-42136   0.773   3.784  11.979
73908ION    CL-42137   1.832  15.587  14.509
73909ION    CL-42138  42.170  31.959  14.760
73910ION    CL-42139   5.461  23.887   0.514
73911ION    CL-42140  30.158  29.459   2.086
73912ION    CL-42141  44.544  23.692  10.983
73913ION    CL-42142   1.677  25.433  13.016
73914ION    CL-42143   9.340  15.267  11.780
73915ION    CL-42144  16.943  30.890  14.602
73916ION    CL-42145  39.483   5.626  14.569
73917ION    CL-42146  33.021   9.597  13.822
73918ION    CL-42147  30.293  16.301  10.705
73919ION    CL-42148  42.659  44.178   1.282
73920ION    CL-42149  43.615  38.704  12.448
73921ION    CL-42150  43.174  22.950   0.886
73922ION    CL-42151  37.887  32.394   0.877
73923ION    CL-42152  22.235  22.027   0.427
73924ION    CL-42153   4.907  23.055   3.021
73925ION    CL-42154   2.332  20.683   2.273
73926ION    CL-42155  39.065  17.911   2.571
73927ION    CL-42156   3.321  19.156   4.120
73928ION    CL-42157  25.028  15.235  12.218
73929ION    CL-42158  27.496  25.945  13.248
73930ION    CL-42159   4.472   1.396  10.933
73931ION    CL-42160  17.635  30.421  11.480
73932ION    CL-42161  13.048   0.011  14.453
73933ION    CL-42162   0.472  22.946  13.364
73934ION    CL-42163  42.541  36.124  14.886
73935ION    CL-42164  11.802  23.370   2.330
73936ION    CL-42165  13.153  18.569  13.342
73937ION    CL-42166   5.809  43.636   5.161
73938ION    CL-42167   4.019  39.210   1.020
73939ION    CL-42168  24.914  30.081   0.316
73940ION    CL-42169  14.170  19.707  10.174
73941ION    CL-42170  40.331  37.105   1.509
73942ION    CL-42171  12.461  30.827   4.614
73943ION    CL-42172  39.111  36.441  12.136
73944ION    CL-42173   4.947   8.254   3.867
73945ION    CL-42174   5.911   7.607  13.890
73946ION    CL-42175  29.888  15.480   1.357
73947ION    CL-42176  41.530   6.135   3.167
73948ION    CL-42177   9.619  27.667  11.951
73949ION    CL-42178   2.171   1.721  14.908
73950ION    CL-42179  23.739  37.056  11.076
73951ION    CL-42180  39.325  25.533  12.471
73952ION    CL-42181  31.019  38.106   3.169
73953ION    CL-42182  40.380   3.046  14.820
73954ION    CL-42183  35.354  10.131  13.810
73955ION    CL-42184  23.374  16.347   4.979
73956ION    CL-42185   6.818   0.449  11.937
73957ION    CL-42186  16.038  41.873   3.530
73958ION    CL-42187  14.862  33.796   0.448
73959ION    CL-42188  39.904  13.137  12.505
73960ION    CL-42189  11.305   6.889   0.884
73961ION    CL-42190  15.184   1.896  11.056
73962ION    CL-42191  20.664  43.117  11.283
73963ION    CL-42192  44.841  23.721  13.420
73964ION    CL-42193  36.977   7.847  14.705
73965ION    CL-42194  32.662  13.720   3.129
73966ION    CL-42195  17.275  41.788  14.776
73967ION    CL-42196  30.778  28.738  12.015
73968ION    CL-42197  10.678   9.145  13.102
73969ION    CL-42198  31.861  10.905   4.021
73970ION    CL-42199   6.915  21.589   2.908
73971ION    CL-42200  18.971  27.365   1.850
73972ION    CL-42201  16.526  12.261   1.328
73973ION    CL-42202  30.158  13.686  12.440
73974ION    CL-42203  38.338  24.154  14.782
73975ION    CL-42204  43.257  10.823   1.880
73976ION    CL-42205  25.096  20.343  11.582
73977ION    CL-42206  28.894  38.717   0.797
73978ION    CL-42207  25.960  37.195   2.078
73979ION    CL-42208  27.726  10.609  12.277
73980ION    CL-42209  34.415  20.777   1.228
73981ION    CL-42210  27.844  25.078  13.904
73982ION    CL-42211  15.570   1.567  13.074
73983ION    CL-42212  20.971  20.657  14.439
73984ION    CL-42213  37.437  41.696  14.259
73985ION    CL-42214  38.594  39.095   2.896
73986ION    CL-42215   5.259   9.100   2.826
73987ION    CL-42216  33.747  16.601  14.000
73988ION    CL-42217  37.393  34.207   0.034
73989ION    CL-42218  26.654  36.133  13.747
73990ION    CL-42219   4.696  35.802  14.303
73991ION    CL-42220  43.269  16.586  12.969
73992ION    CL-42221   2.169  26.300  13.089
73993ION    CL-42222  13.386  34.809   2.769
73994ION    CL-42223  39.511  40.929   4.537
73995ION    CL-42224  29.381  16.453  13.886
73996ION    CL-42225   3.966   1.977  14.747
73997ION    CL-42226  33.568  24.611  10.501
73998ION    CL-42227  24.567   8.802  10.760
73999ION    CL-42228  31.045  39.536  13.122
74000ION    CL-42229  25.804  44.810   0.412
74001ION    CL-42230  24.292   1.726   9.941
74002ION    CL-42231  41.084   2.415   0.806
74003ION    CL-42232  41.907  42.443   4.233
74004ION    CL-42233  22.023   4.334   5.018
74005ION    CL-42234  29.581  23.363  12.672
74006ION    CL-42235  15.240  12.193   2.204
74007ION    CL-42236  21.603  41.283   4.118
74008ION    CL-42237   8.714  22.838  14.969
74009ION    CL-42238  16.026  11.995   3.737
74010ION    CL-42239  16.006   3.051   2.063
74011ION    CL-42240  19.321  37.574  10.485
74012ION    CL-42241  18.625  22.264   0.868
74013ION    CL-42242   0.028  18.139   1.113
74014ION    CL-42243  37.435  17.992   1.334
74015ION    CL-42244  23.548   9.876  12.002
74016ION    CL-42245  22.407  22.989   3.383
74017ION    CL-42246   9.726  25.936  13.084
74018ION    CL-42247   4.555  32.641   3.630
74019ION    CL-42248  19.340  28.428   1.323
74020ION    CL-42249  19.886  25.452  14.199
74021ION    CL-42250   8.135  35.483   2.045
74022ION    CL-42251  40.147  31.422  11.916
74023ION    CL-42252  30.621   3.811  12.937
74024ION    CL-42253  40.764   9.799  14.884
74025ION    CL-42254   6.667  34.060  13.678
74026ION    CL-42255   2.327   0.436  10.752
74027ION    CL-42256   8.132   6.404  14.456
74028ION    CL-42257  11.430   1.026   4.126
74029ION    CL-42258  33.952  17.364  12.923
74030ION    CL-42259  42.809  25.589  14.147
74031ION    CL-42260  14.738  20.226   0.836
74032ION    CL-42261   3.725   5.893   2.274
74033ION    CL-42262   2.212  17.799  11.989
74034ION    CL-42263  16.133   7.004   5.216
74035ION    CL-42264  26.830  22.699   3.873
74036ION    CL-42265  43.045  30.854   1.355
74037ION    CL-42266  20.298  24.667   1.265
74038ION    CL-42267  40.480  37.579  14.069
74039ION    CL-42268  32.611   3.559   4.628
74040ION    CL-42269   5.506  22.374   3.065
74041ION    CL-42270  14.790  29.012  11.992
74042ION    CL-42271   2.375  22.632  12.882
74043ION    CL-42272   4.733   6.953   4.171
74044ION    CL-42273   2.526  11.333   4.781
74045ION    CL-42274   8.571  23.737   0.035
74046ION    CL-42275  10.917  41.741  13.556
74047ION    CL-42276  43.784  11.687  11.664
74048ION    CL-42277  42.147  32.112   3.582
74049ION    CL-42278  16.010  44.488   1.432
74050ION    CL-42279  27.901  11.457  11.487
74051ION    CL-42280  16.100  13.688  12.509
74052ION    CL-42281  35.916  31.740   2.894
74053ION    CL-42282  18.626  19.236   5.111
74054ION    CL-42283  34.318  20.062   1.820
74055ION    CL-42284  26.263  33.572  14.287
74056ION    CL-42285  23.400  39.133   2.611
74057ION    CL-42286   9.117  21.512  14.422
74058ION    CL-42287   1.513   2.367  12.329
74059ION    CL-42288   1.418  40.897   2.775
74060ION    CL-42289  22.687  25.157   2.123
74061ION    CL-42290  19.022  16.546  14.830
74062ION    CL-42291  26.663  28.637   5.032
74063ION    CL-42292  40.303   6.316   0.318
74064ION    CL-42293  27.758  23.756  13.346
74065ION    CL-42294  26.753   5.344   2.176
74066ION    CL-42295   5.011  20.192   0.300
74067ION    CL-42296  24.067  34.400   3.188
74068ION    CL-42297  24.225  11.840   1.578
74069ION    CL-42298  38.828  14.253   9.870
74070ION    CL-42299  13.338  44.471  11.775
74071ION    CL-42300  36.369   7.175   1.405
74072ION    CL-42301   2.853  38.260   2.285
74073ION    CL-42302  12.393  27.993   4.397
74074ION    CL-42303  39.161  10.690   3.898
74075ION    CL-42304  30.915   0.114   3.700
74076ION    CL-42305  28.987  34.401   4.944
74077ION    CL-42306  29.126  13.901   4.621
74078ION    CL-42307  15.943  33.604   4.901
74079ION    CL-42308  10.367  19.052  13.197
74080ION    CL-42309  18.553   5.398   3.894
74081ION    CL-42310  32.721  14.092   4.863
74082ION    CL-42311   3.853  20.030  14.556
74083ION    CL-42312  13.455  36.606   2.952
74084ION    CL-42313   4.773   7.203   2.078
74085ION    CL-42314  44.268  40.784   1.707
74086ION    CL-42315  18.876  25.232  12.690
74087ION    CL-42316  38.498  39.641   4.987
74088ION    CL-42317  34.667  40.026   1.980
74089ION    CL-42318  17.226   0.028  13.521
74090ION    CL-42319   4.458  43.270   2.807
74091ION    CL-42320   8.423   4.623   2.157
74092ION    CL-42321  41.567  25.515   1.314
74093ION    CL-42322  44.224  18.892  10.652
74094ION    CL-42323  38.720  30.966  11.185
74095ION    CL-42324  33.521  23.643  10.751
74096ION    CL-42325  22.652  23.004   1.679
74097ION    CL-42326  15.449  34.653  13.993
74098ION    CL-42327  19.428  37.803   2.351
74099ION    CL-42328  32.923   2.780   4.083
74100ION    CL-42329  12.517  18.145   0.652
74101ION    CL-42330   7.910  44.461   9.904
74102ION    CL-42331  13.340  27.585   0.977
74103ION    CL-42332  14.827  35.569  14.049
74104ION    CL-42333   7.550  39.559  14.448
74105ION    CL-42334  41.878  16.004   3.631
74106ION    CL-42335  25.780  36.532  14.043
74107ION    CL-42336  44.507  31.155  13.578
74108ION    CL-42337  41.704  42.311   1.197
74109ION    CL-42338  31.995  39.976   2.410
74110ION    CL-42339   8.593  35.070  13.707
74111ION    CL-42340   4.240  11.230  14.892
74112ION    CL-42341  39.013   6.860   5.032
74113ION    CL-42342  17.446  30.586   1.341
74114ION    CL-42343   1.560   7.468   3.057
74115ION    CL-42344  43.060   3.721   2.718
74116ION    CL-42345  38.552  32.182   4.121
74117ION    CL-42346  32.152   0.906  10.475
74118ION    CL-42347  15.936  42.643   1.038
74119ION    CL-42348   5.212  40.779  14.009
74120ION    CL-42349  20.164  23.122   1.776
74121ION    CL-42350  41.552  44.292   2.751
74122ION    CL-42351  32.389  33.062   5.083
74123ION    CL-42352  32.464  33.865   3.725
74124ION    CL-42353   0.718  30.573   2.014
74125ION    CL-42354  19.292   4.608  14.927
74126ION    CL-42355   0.780  44.989   0.455
74127ION    CL-42356  33.692   7.956   0.623
74128ION    CL-42357  32.560  23.543   3.788
74129ION    CL-42358  31.097  31.657   0.070
74130ION    CL-42359   1.305  13.448  11.658
74131ION    CL-42360  22.752  17.592   3.228
74132ION    CL-42361  14.113  12.733   2.166
74133ION    CL-42362  23.653  19.317  10.797
74134ION    CL-42363   4.460   7.584   0.109
74135ION    CL-42364  29.783   4.020   3.713
74136ION    CL-42365  10.433  10.608  14.584
74137ION    CL-42366  22.088  10.401   2.247
74138ION    CL-42367  39.494  11.992   4.976
74139ION    CL-42368  14.351   2.829  13.676
74140ION    CL-42369  40.605  29.300  13.191
74141ION    CL-42370  10.199  20.084   4.220
74142ION    CL-42371  41.368  26.378   2.385
74143ION    CL-42372  25.435  36.900  10.843
74144ION    CL-42373   6.175   8.934  14.797
74145ION    CL-42374  27.611   8.219   4.336
74146ION    CL-42375  37.237  24.310  14.255
74147ION    CL-42376   2.916  18.737  13.930
74148ION    CL-42377   3.243  22.380  10.811
74149ION    CL-42378   1.519   0.129  12.536
74150ION    CL-42379  12.649   6.110   3.141
74151ION    CL-42380  21.720  42.172   4.694
74152ION    CL-42381   1.819  30.753  14.939
74153ION    CL-42382  11.257  28.065  14.522
74154ION    CL-42383   1.903  37.689   4.610
74155ION    CL-42384  44.158  20.189  11.221
74156ION    CL-42385  31.402  19.808   0.843
74157ION    CL-42386  11.735   7.657   1.851
74158ION    CL-42387  10.079  24.801  10.404
74159ION    CL-42388  13.598  33.179  12.159
74160ION    CL-42389  16.713  41.277  13.195
74161ION    CL-42390  21.630  39.519  11.143
74162ION    CL-42391   5.247  43.989  11.994
74163ION    CL-42392  25.692   3.360   3.144
74164ION    CL-42393   3.241  37.242   3.728
74165ION    CL-42394  13.662  39.190   0.085
74166ION    CL-42395  11.188  16.496  14.299
74167ION    CL-42396  21.876   8.446   2.308
74168ION    CL-42397  30.151  37.922   0.928
74169ION    CL-42398  43.405  13.291   0.888
74170ION    CL-42399  43.991  14.262   2.552
74171ION    CL-42400  22.393  40.055   0.718
74172ION    CL-42401  14.307   3.749  13.859
74173ION    CL-42402   4.532  40.574  13.415
74174ION    CL-42403  44.762  43.254   0.799
74175ION    CL-42404  20.174  21.042   9.921
74176ION    CL-42405  39.502  32.184  11.853
74177ION    CL-42406   6.511  23.357   3.812
74178ION    CL-42407  32.852  34.768  13.599
74179ION    CL-42408  40.876  43.538   1.640
74180ION    CL-42409   2.064  18.035   4.039
74181ION    CL-42410  26.990   6.207  12.378
74182ION    CL-42411  28.416   8.205  12.044
74183ION    CL-42412   7.313  30.286   0.902
74184ION    CL-42413  26.675  37.430  14.995
74185ION    CL-42414  36.570   8.277   2.597
74186ION    CL-42415   0.874  10.740   0.364
74187ION    CL-42416  20.079  43.061   1.784
74188ION    CL-42417   3.266   1.766   0.977
74189ION    CL-42418  20.623  22.451   0.837
74190ION    CL-42419   4.333  35.163   3.614
74191ION    CL-42420  30.684  33.644  12.448
74192ION    CL-42421  21.679  29.067   2.954
74193ION    CL-42422  34.566  14.884  12.609
74194ION    CL-42423  33.688  24.464  14.591
74195ION    CL-42424  37.443   4.146   2.642
74196ION    CL-42425  40.252  33.536   1.233
74197ION    CL-42426  27.930  29.007  12.491
74198ION    CL-42427  13.817  12.355   0.393
74199ION    CL-42428   9.044  42.028  12.059
74200ION    CL-42429  38.494  24.657   1.427
74201ION    CL-42430  15.052  40.514  12.546
74202ION    CL-42431  43.377  38.377   4.935
74203ION    CL-42432  14.564  14.568  10.602
74204ION    CL-42433  44.001  44.241  14.122
74205ION    CL-42434  31.853   0.235  13.338
74206ION    CL-42435  16.892  17.257   0.907
74207ION    CL-42436  16.634  35.872  14.911
74208ION    CL-42437  20.340  30.327   4.961
74209ION    CL-42438   7.742   8.154   1.242
74210ION    CL-42439  20.493  35.698  13.987
74211ION    CL-42440  36.080  20.341   4.926
74212ION    CL-42441   5.808  17.808   3.899
74213ION    CL-42442  11.961  26.679  11.115
74214ION    CL-42443   4.997  26.152  11.505
74215ION    CL-42444   6.997  10.301  12.468
74216ION    CL-42445   5.168   1.481  13.616
74217ION    CL-42446  15.843  35.985  13.585
74218ION    CL-42447   9.728  39.379   0.022
74219ION    CL-42448   3.049   6.031  13.519
74220ION    CL-42449   8.302  43.083   0.344
74221ION    CL-42450  24.295  39.028  13.353
74222ION    CL-42451  37.886  32.339  11.111
74223ION    CL-42452  27.637   6.164  14.016
74224ION    CL-42453  10.326  24.594  11.638
74225ION    CL-42454  34.082  41.135  14.820
74226ION    CL-42455  12.063  15.789  11.286
74227ION    CL-42456  12.160  14.184   4.653
74228ION    CL-42457  44.985  29.323   3.154
74229ION    CL-42458   5.924   0.876  12.075
74230ION    CL-42459  39.957  24.134   0.023
74231ION    CL-42460   7.602  35.197  14.769
74232ION    CL-42461  10.091  22.661   4.124
74233ION    CL-42462  29.685  26.715   4.360
74234ION    CL-42463  17.987   5.946   1.609
74235ION    CL-42464  34.089  32.586   3.626
74236ION    CL-42465  37.144  34.668  14.182
74237ION    CL-42466  41.607  40.983   2.302
74238ION    CL-42467  21.892  36.887   1.329
74239ION    CL-42468   7.727   2.287   3.270
74240ION    CL-42469   8.884   6.107  13.814
74241ION    CL-42470  27.227  43.650   0.505
74242ION    CL-42471   9.718  14.068  12.214
74243ION    CL-42472  11.218  42.821   4.979
74244ION    CL-42473  32.724  42.627   3.542
74245ION    CL-42474  23.464  19.701  12.054
74246ION    CL-42475  25.479  22.553  12.059
74247ION    CL-42476  41.031  14.360  14.024
74248ION    CL-42477  42.629  15.346   1.599
74249ION    CL-42478   8.691   4.610   3.788
74250ION    CL-42479  25.900  13.663   1.022
74251ION    CL-42480  34.888  31.372   1.460
74252ION    CL-42481  16.088  16.469   4.786
74253ION    CL-42482  20.208   1.364   3.369
74254ION    CL-42483  15.262  31.816   3.781
74255ION    CL-42484  30.906   6.477  14.169
74256ION    CL-42485  41.037  34.303  12.496
74257ION    CL-42486   8.955  35.544   2.577
74258ION    CL-42487  43.736   7.134   4.263
74259ION    CL-42488  24.194  18.652   3.958
74260ION    CL-42489  33.304  41.380  11.356
74261ION    CL-42490  16.647  21.797   3.261
74262ION    CL-42491   8.038  13.341   1.570
74263ION    CL-42492   0.350  41.124   1.047
74264ION    CL-42493   0.747  40.771   3.518
74265ION    CL-42494  12.567  16.479   1.872
74266ION    CL-42495  12.480  31.387   0.328
74267ION    CL-42496  33.606  40.247  10.905
74268ION    CL-42497  39.974  12.782  10.698
74269ION    CL-42498  20.777  27.058   4.209
74270ION    CL-42499  33.046  24.520  13.827
74271ION    CL-42500  21.773  33.497   0.855
74272ION    CL-42501  44.692  38.431   2.329
74273ION    CL-42502  13.306  27.384   4.303
74274ION    CL-42503  40.475  30.243  13.496
74275ION    CL-42504  14.712  36.251   3.811
74276ION    CL-42505  11.477  29.889  10.129
74277ION    CL-42506   7.557   6.210   3.133
74278ION    CL-42507  32.532  38.331   2.719
74279ION    CL-42508  23.243  16.779  12.418
74280ION    CL-42509  38.555  36.785   2.480
74281ION    CL-42510  44.706  42.158  14.510
74282ION    CL-42511   0.041  21.130   2.863
74283ION    CL-42512  16.854  39.373  13.441
74284ION    CL-42513   7.981  25.975  14.902
74285ION    CL-42514  10.763  19.586   0.012
74286ION    CL-42515  35.084  27.011  12.937
74287ION    CL-42516  20.814   7.932  14.383
74288ION    CL-42517  23.289  29.513   1.210
74289ION    CL-42518   4.646  19.985   2.822
74290ION    CL-42519  40.988   0.874  12.994
74291ION    CL-42520   7.146   4.579   1.663
74292ION    CL-42521  26.744  34.463   2.354
74293ION    CL-42522  39.310  31.442   1.645
74294ION    CL-42523  13.794  19.097  14.843
74295ION    CL-42524  22.342   8.790  12.358
74296ION    CL-42525  34.430  37.218  14.733
74297ION    CL-42526  15.531   3.500   3.154
74298ION    CL-42527  24.319  18.570  13.937
74299ION    CL-42528  14.167  36.900   2.304
74300ION    CL-42529   9.411  14.546   1.534
74301ION    CL-42530  27.073  22.543  13.979
74302ION    CL-42531  30.142  29.826   0.193
74303ION    CL-42532  34.827   3.018  13.969
74304ION    CL-42533  11.038   1.655   0.603
74305ION    CL-42534  20.169  16.502   2.817
74306ION    CL-42535  31.562  33.983  13.533
74307ION    CL-42536  27.361  24.624   9.848
74308ION    CL-42537  16.680  41.287  12.196
74309ION    CL-42538  32.665  39.353   3.669
74310ION    CL-42539  39.351  25.789   3.251
74311ION    CL-42540  13.168  38.474  13.099
74312ION    CL-42541  18.951  17.274  11.320
74313ION    CL-42542  35.912  44.071  14.412
74314ION    CL-42543  41.270  20.576   0.943
74315ION    CL-42544  41.131   0.932   3.406
74316ION    CL-42545  38.088  16.088   2.977
74317ION    CL-42546  15.588  40.632  14.405
74318ION    CL-42547  15.097   3.114  12.481
74319ION    CL-42548  16.990  28.853   0.567
74320ION    CL-42549  15.074  32.195  14.457
74321ION    CL-42550  22.021  40.923   4.992
74322ION    CL-42551  17.358  31.601  14.969
74323ION    CL-42552   2.962   4.895   1.796
74324ION    CL-42553   2.183   9.661   2.728
74325ION    CL-42554  28.133  14.559   1.401
74326ION    CL-42555  21.682  23.106  11.638
74327ION    CL-42556  30.383  14.135   0.554
74328ION    CL-42557   9.052  42.976  10.360
74329ION    CL-42558  34.524  12.345  11.112
74330ION    CL-42559  17.900  24.593   3.266
74331ION    CL-42560  41.217  38.757   3.477
74332ION    CL-42561  25.659  41.862  13.876
74333ION    CL-42562  24.430   3.123   0.539
74334ION    CL-42563  41.687  43.388   2.263
74335ION    CL-42564   5.732  31.083  12.084
74336ION    CL-42565   6.667  28.430  10.593
74337ION    CL-42566  12.370   5.548   1.918
74338ION    CL-42567  37.749  25.240  11.751
74339ION    CL-42568  13.231  20.788   0.536
74340ION    CL-42569   5.477  12.659   2.941
74341ION    CL-42570  28.649  26.780   1.627
74342ION    CL-42571  38.637   1.033  11.866
74343ION    CL-42572  40.294   2.737  13.499
74344ION    CL-42573  21.795   6.992   0.418
74345ION    CL-42574  24.013  20.968   2.939
74346ION    CL-42575  27.417  28.171  11.588
74347ION    CL-42576  39.950  19.981  11.208
74348ION    CL-42577  42.959  34.740  12.367
74349ION    CL-42578  42.045  30.719   1.898
74350ION    CL-42579  11.990  29.710   3.178
74351ION    CL-42580  42.243  12.898   1.422
74352ION    CL-42581  37.802  28.617  11.145
74353ION    CL-42582  11.640  15.941  13.524
74354ION    CL-42583   1.250  16.306   1.362
74355ION    CL-42584  36.699  12.856   0.120
74356ION    CL-42585  31.286  20.455   3.869
74357ION    CL-42586  11.135  26.067   2.688
74358ION    CL-42587  24.392   0.947   0.230
74359ION    CL-42588   9.568  26.413  14.037
74360ION    CL-42589  39.075  38.260   3.163
74361ION    CL-42590  22.510  11.956   3.706
74362ION    CL-42591  25.030  17.130   1.688
74363ION    CL-42592  17.090   8.728   2.224
74364ION    CL-42593  34.326  26.242  11.209
74365ION    CL-42594  10.529   1.594   1.334
74366ION    CL-42595  17.251  26.542  14.253
74367ION    CL-42596  18.197  27.558  13.002
74368ION    CL-42597  39.552  30.639   2.691
74369ION    CL-42598  11.080  29.270   3.225
74370ION    CL-42599  43.522   2.389   1.871
74371ION    CL-42600   5.743  44.835  12.489
74372ION    CL-42601  10.459   2.295  11.118
74373ION    CL-42602  13.889  25.563  12.629
74374ION    CL-42603  35.048  11.390   2.389
74375ION    CL-42604   5.704  36.628  14.220
74376ION    CL-42605   7.611  24.402   4.215
74377ION    CL-42606   9.490  29.494   3.438
74378ION    CL-42607  14.352  16.520  12.785
74379ION    CL-42608  17.096  29.664  11.111
74380ION    CL-42609  35.258  18.148   0.452
74381ION    CL-42610  28.282  18.297  11.861
74382ION    CL-42611  22.812  24.987  10.782
74383ION    CL-42612  18.103  15.240  13.707
74384ION    CL-42613  25.475  14.645  11.714
74385ION    CL-42614  28.646  22.719   0.189
74386ION    CL-42615   1.141  23.216   4.610
74387ION    CL-42616  35.251  40.082   5.217
74388ION    CL-42617  11.154  18.824   5.129
74389ION    CL-42618  21.165   3.682  14.892
74390ION    CL-42619  12.026  42.804   3.100
74391ION    CL-42620   2.086  24.788  11.115
74392ION    CL-42621  42.777  26.870  13.905
74393ION    CL-42622  21.498  29.968  13.449
74394ION    CL-42623   8.028  36.831   2.585
74395ION    CL-42624  18.302  33.968  11.075
74396ION    CL-42625  10.516   6.301   0.373
74397ION    CL-42626  35.635  39.192  14.217
74398ION    CL-42627  11.280  17.360   0.612
74399ION    CL-42628  44.029   6.817   0.660
74400ION    CL-42629  10.696   9.250  11.211
74401ION    CL-42630  40.962  33.385   3.830
74402ION    CL-42631  22.688  43.801   0.414
74403ION    CL-42632  30.649  10.867  11.848
74404ION    CL-42633   8.217  38.621   3.839
74405ION    CL-42634   4.998  23.023   0.164
74406ION    CL-42635  24.295   1.368  12.873
74407ION    CL-42636  11.595  13.774   3.894
74408ION    CL-42637  11.322  28.602  12.353
74409ION    CL-42638  41.520  15.539  14.391
74410ION    CL-42639  18.873  39.340   1.287
74411ION    CL-42640  11.234  42.727   2.655
74412ION    CL-42641  26.901  32.255  13.370
74413ION    CL-42642   4.470  37.138   4.171
74414ION    CL-42643  24.029  44.052  12.965
74415ION    CL-42644  29.195  16.072  12.980
74416ION    CL-42645  30.513   2.153  14.555
74417ION    CL-42646  39.690  21.003   2.991
74418ION    CL-42647  13.823  22.311   0.893
74419ION    CL-42648  10.152  15.693  10.884
74420ION    CL-42649   5.032   2.286  12.999
74421ION    CL-42650  41.646  21.336   1.473
74422ION    CL-42651  14.113  17.271   5.414
74423ION    CL-42652  21.577   1.813   5.087
74424ION    CL-42653  32.130   1.662   2.475
74425ION    CL-42654  18.329  25.496   4.696
74426ION    CL-42655   5.923   8.763   1.870
74427ION    CL-42656  37.255  44.430   2.282
74428ION    CL-42657  28.423  28.223  12.018
74429ION    CL-42658  43.884  41.547   1.137
74430ION    CL-42659   0.354   8.407  12.377
74431ION    CL-42660  16.313  22.182   4.625
74432ION    CL-42661   6.257  30.502  11.462
74433ION    CL-42662  29.658  38.560  11.319
74434ION    CL-42663  20.568   6.582  11.606
74435ION    CL-42664  41.914   1.462  12.963
74436ION    CL-42665  40.326   4.342   0.745
74437ION    CL-42666  34.603   2.964   5.039
74438ION    CL-42667  11.867  22.494   1.852
74439ION    CL-42668   2.255  14.857  13.047
74440ION    CL-42669  35.084   0.935   1.676
74441ION    CL-42670  11.491   1.742   9.867
74442ION    CL-42671  29.718   1.850   4.200
74443ION    CL-42672  40.957  30.895   1.162
74444ION    CL-42673  13.435  27.472  13.059
74445ION    CL-42674  17.894  15.940  12.639
74446ION    CL-42675   6.459  35.603   3.934
74447ION    CL-42676  32.672  14.714  13.807
74448ION    CL-42677  18.713  36.928  14.864
74449ION    CL-42678  23.305  13.850   2.931
74450ION    CL-42679  41.896  12.204  14.086
74451ION    CL-42680   3.310  32.904  13.539
74452ION    CL-42681  27.917  11.461  12.833
74453ION    CL-42682  40.510  19.225   0.863
74454ION    CL-42683  22.549  32.973   2.573
74455ION    CL-42684  36.108   4.566  10.958
74456ION    CL-42685   3.482  17.211   0.954
74457ION    CL-42686  29.010  19.542  14.436
74458ION    CL-42687  28.545  38.693  10.352
74459ION    CL-42688  22.929  10.818  10.294
74460ION    CL-42689  43.934  14.144   4.671
74461ION    CL-42690   4.153  41.138  12.425
74462ION    CL-42691  30.641  26.566  14.184
74463ION    CL-42692  40.075  19.080   2.341
74464ION    CL-42693  31.561  21.505  12.305
74465ION    CL-42694  10.404  17.995  14.295
74466ION    CL-42695  20.347  27.475  11.504
74467ION    CL-42696  25.680  12.804   3.233
74468ION    CL-42697   4.510  31.690   1.800
74469ION    CL-42698   7.123   4.075  11.689
74470ION    CL-42699  35.603  36.004  10.908
74471ION    CL-42700  40.550  33.290   2.156
74472ION    CL-42701  35.901  40.258   2.651
74473ION    CL-42702  26.413  44.237   1.284
74474ION    CL-42703  23.564  14.766   3.280
74475ION    CL-42704   2.662  25.597  12.960
74476ION    CL-42705  38.740  16.168  11.076
74477ION    CL-42706   1.633  17.136  13.277
74478ION    CL-42707  19.867  33.516  10.612
74479ION    CL-42708   7.463  12.679   1.371
74480ION    CL-42709  12.674  19.252   3.405
74481ION    CL-42710  18.971  44.033   0.921
74482ION    CL-42711  36.534   0.759   2.893
74483ION    CL-42712  33.809  21.834  10.961
74484ION    CL-42713  25.177  38.436  13.015
74485ION    CL-42714  22.321  21.018   4.310
74486ION    CL-42715  15.359  10.008   0.431
74487ION    CL-42716  32.561  22.729  11.557
74488ION    CL-42717  17.410   2.249  13.879
74489ION    CL-42718  11.678  36.641  10.945
74490ION    CL-42719  25.039   6.403  14.314
74491ION    CL-42720   9.329  30.525   3.226
74492ION    CL-42721  11.801  18.732   0.206
74493ION    CL-42722  33.983  30.977   0.509
74494ION    CL-42723  11.605   0.740   1.621
74495ION    CL-42724   3.187   9.393  11.731
74496ION    CL-42725  19.360  11.399  10.269
74497ION    CL-42726   7.663   9.326   0.031
74498ION    CL-42727  10.642   8.620   5.174
74499ION    CL-42728  27.774  28.001  14.426
74500ION    CL-42729  26.055  25.899   3.340
74501ION    CL-42730   9.722   2.331  11.890
74502ION    CL-42731  40.839  42.424  12.171
74503ION    CL-42732  12.397  18.517   2.686
74504ION    CL-42733   5.158  20.746   2.849
74505ION    CL-42734  13.200  15.680  13.721
74506ION    CL-42735  40.222  44.050   4.801
74507ION    CL-42736  12.312  44.651   4.478
74508ION    CL-42737  27.039  21.371   3.181
74509ION    CL-42738  39.617  18.069  13.483
74510ION    CL-42739  12.325  39.830   3.703
74511ION    CL-42740  19.669  22.046  11.573
74512ION    CL-42741  15.982  36.144   3.352
74513ION    CL-42742  20.898  36.769   1.413
74514ION    CL-42743  18.263  44.422  11.477
74515ION    CL-42744  14.440  13.589   4.451
74516ION    CL-42745  32.494  22.886   0.756
74517ION    CL-42746   6.129   7.248  12.127
74518ION    CL-42747  18.670  24.426   1.991
74519ION    CL-42748   4.559  44.789   1.300
74520ION    CL-42749   4.373  27.678  13.296
74521ION    CL-42750  15.448   4.056  12.526
74522ION    CL-42751  35.560   4.797  12.613
74523ION    CL-42752  33.746  22.954   9.635
74524ION    CL-42753  24.879  15.946   0.953
74525ION    CL-42754  31.354  12.819  13.910
74526ION    CL-42755   6.397  17.282   0.837
74527ION    CL-42756  36.113  10.866  14.382
74528ION    CL-42757  14.806  43.207  10.965
74529ION    CL-42758  35.554  33.023   0.289
74530ION    CL-42759  33.983  18.748  11.048
74531ION    CL-42760  12.872  14.020  12.934
74532ION    CL-42761  35.360  11.413   1.372
74533ION    CL-42762  40.113  39.529  11.162
74534ION    CL-42763  14.660  44.131   3.107
74535ION    CL-42764  35.075   7.697  11.546
74536ION    CL-42765  35.546   9.306  10.505
74537ION    CL-42766   0.781   8.449  13.947
74538ION    CL-42767  19.717  22.115   1.150
74539ION    CL-42768  30.912  21.372   9.910
74540ION    CL-42769  13.250  19.678   0.449
74541ION    CL-42770  38.401  13.379  14.752
74542ION    CL-42771  19.060  16.357  11.320
74543ION    CL-42772  24.194  16.750   2.330
74544ION    CL-42773  37.566  40.707  14.338
74545ION    CL-42774  40.852  19.746  12.641
74546ION    CL-42775  14.741  34.490  14.739
74547ION    CL-42776  30.773  11.760   2.710
74548ION    CL-42777  37.997  22.649  10.775
74549ION    CL-42778  11.909  38.807  10.801
74550ION    CL-42779  38.623  28.596   0.259
74551ION    CL-42780  15.958  42.929  12.248
74552ION    CL-42781   3.478  11.041   4.686
74553ION    CL-42782  35.942  20.446   3.258
74554ION    CL-42783   8.454  44.269   1.726
74555ION    CL-42784  29.000  44.915   1.812
74556ION    CL-42785  30.832  13.978  14.674
74557ION    CL-42786   3.023  17.809  13.681
74558ION    CL-42787  38.934  29.464  12.339
74559ION    CL-42788  36.226  19.169   0.162
74560ION    CL-42789   8.441  37.914  12.833
74561ION    CL-42790   8.438  34.392  14.299
74562ION    CL-42791  39.550  36.636  13.013
74563ION    CL-42792  25.017   3.819  11.200
74564ION    CL-42793  35.123  35.042   5.089
74565ION    CL-42794  15.773  36.624   1.823
74566ION    CL-42795  29.633  44.221   1.467
74567ION    CL-42796  18.260  11.699  13.453
74568ION    CL-42797  39.851  19.138  13.255
74569ION    CL-42798  32.001   1.330  11.555
74570ION    CL-42799  11.178  42.223   1.156
74571ION    CL-42800  38.932  15.008   0.884
74572ION    CL-42801  27.862  17.011  10.751
74573ION    CL-42802   3.796   8.664   1.437
74574ION    CL-42803  22.326   7.665  12.459
74575ION    CL-42804  33.786   5.875   1.898
74576ION    CL-42805   8.749  42.761  14.203
74577ION    CL-42806  15.758  20.296   0.859
74578ION    CL-42807  29.287  34.379   4.069
74579ION    CL-42808  30.144  10.754   1.840
74580ION    CL-42809   4.760  42.368  12.949
74581ION    CL-42810  18.972  13.245   3.194
74582ION    CL-42811  43.239  31.311   3.145
74583ION    CL-42812  28.928  37.841  10.749
74584ION    CL-42813  11.106  34.450   0.358
74585ION    CL-42814  38.414   6.206   2.359
74586ION    CL-42815  26.489  26.510  12.292
74587ION    CL-42816  37.294  24.632   3.292
74588ION    CL-42817  10.072  22.525   0.453
74589ION    CL-42818  43.484  16.100   4.163
74590ION    CL-42819  24.898  21.699  13.393
74591ION    CL-42820  16.565  14.835  12.977
74592ION    CL-42821  27.251  44.751   2.800
74593ION    CL-42822   9.010  14.279   3.494
74594ION    CL-42823  36.501  25.849  11.899
74595ION    CL-42824  24.419   6.201   2.830
74596ION    CL-42825  17.612  23.458   2.717
74597ION    CL-42826   4.724  30.438   1.700
74598ION    CL-42827  12.066  28.375   0.842
74599ION    CL-42828  16.370  17.306  14.012
74600ION    CL-42829  15.698  37.084  14.749
74601ION    CL-42830  25.175  25.179   2.130
74602ION    CL-42831  30.540  43.355   1.030
74603ION    CL-42832  12.759  25.706   3.110
74604ION    CL-42833  13.207  40.961   0.349
74605ION    CL-42834   4.306  26.530  10.745
74606ION    CL-42835  15.358  32.986   2.513
74607ION    CL-42836  29.727   4.575   4.951
74608ION    CL-42837   3.625   5.223  14.475
74609ION    CL-42838  37.076  11.077   1.820
74610ION    CL-42839  42.288  12.403  12.331
74611ION    CL-42840  44.811   0.958   0.452
74612ION    CL-42841  22.974   6.455   1.518
74613ION    CL-42842  37.994  22.944  13.320
74614ION    CL-42843  24.764   1.787  12.277
74615ION    CL-42844   3.218  38.981  10.788
74616ION    CL-42845   7.263  18.050   1.898
74617ION    CL-42846  39.996   2.096   5.074
74618ION    CL-42847  38.763  20.841   4.260
74619ION    CL-42848  23.281   3.616   4.082
74620ION    CL-42849  20.360  19.789   2.509
74621ION    CL-42850  22.190  18.714  14.758
74622ION    CL-42851   4.154  23.460   1.117
74623ION    CL-42852   9.850  20.852   3.117
74624ION    CL-42853  17.575  15.093  12.529
74625ION    CL-42854  38.432  14.120  12.977
74626ION    CL-42855  11.460   3.148  12.631
74627ION    CL-42856  11.134   1.319  11.907
74628ION    CL-42857   9.087  35.629   3.504
74629ION    CL-42858  18.660  31.728   1.332
74630ION    CL-42859  12.710  42.225  12.857
74631ION    CL-42860  27.283  36.461  14.452
74632ION    CL-42861  17.096  29.851   4.160
74633ION    CL-42862  13.070  10.687   3.809
74634ION    CL-42863  12.837  20.960   3.607
74635ION    CL-42864  27.855   4.100  11.625
74636ION    CL-42865  29.858   1.865   0.394
74637ION    CL-42866  41.834  14.913   0.105
74638ION    CL-42867  44.016  12.675   0.385
74639ION    CL-42868  31.784  42.837   0.716
74640ION    CL-42869  25.978   9.408  13.885
74641ION    CL-42870  33.810   6.489   1.068
74642ION    CL-42871  12.031  18.109   1.526
74643ION    CL-42872  24.779  42.342  11.597
74644ION    CL-42873  31.138  20.671   2.325
74645ION    CL-42874  39.438  12.730   2.085
74646ION    CL-42875  13.097  30.288   2.823
74647ION    CL-42876  35.387  41.524   3.639
74648ION    CL-42877  40.003  17.081   1.037
74649ION    CL-42878  27.557  22.567   0.913
74650ION    CL-42879  20.692  18.855   4.642
74651ION    CL-42880  23.223  41.662   2.724
74652ION    CL-42881   0.339  28.014   1.871
74653ION    CL-42882  29.522  28.410  13.899
74654ION    CL-42883  44.769  34.945   2.674
74655ION    CL-42884   7.800  17.088  14.263
74656ION    CL-42885   0.911  24.920   3.673
74657ION    CL-42886  42.406   0.713   2.175
74658ION    CL-42887  10.914  20.841  12.509
74659ION    CL-42888  34.416   7.110   2.193
74660ION    CL-42889  39.887  18.517  11.652
74661ION    CL-42890  35.513  16.852   2.430
74662ION    CL-42891   5.757  40.826   0.824
74663ION    CL-42892  31.026   5.586  14.120
74664ION    CL-42893   7.695  30.417  14.791
74665ION    CL-42894  44.080  14.379  14.915
74666ION    CL-42895  12.290  30.300   0.806
74667ION    CL-42896  39.434  43.804   2.827
74668ION    CL-42897  15.180  30.448   3.757
74669ION    CL-42898  35.956  42.289  14.011
74670ION    CL-42899  13.332  37.803   4.971
74671ION    CL-42900  27.100  15.394   2.155
74672ION    CL-42901  40.582   8.892   3.049
74673ION    CL-42902   6.247  44.566   0.359
74674ION    CL-42903  41.848  42.941   5.116
74675ION    CL-42904   3.995  10.705   1.814
74676ION    CL-42905   0.634  42.534  14.502
74677ION    CL-42906  28.587  33.771   5.609
74678ION    CL-42907  34.972  21.700  12.826
74679ION    CL-42908  26.845   8.333   3.654
74680ION    CL-42909  29.933   3.976  13.644
74681ION    CL-42910  26.280   0.812  11.868
74682ION    CL-42911  26.626  20.004   2.417
74683ION    CL-42912  15.052  22.116   0.979
74684ION    CL-42913  15.306  31.723  13.426
74685ION    CL-42914  16.774   6.377   0.116
74686ION    CL-42915  20.825  42.621   2.283
74687ION    CL-42916  34.928   1.878  14.853
74688ION    CL-42917   7.001  33.883  11.536
74689ION    CL-42918   8.624  31.203  12.492
74690ION    CL-42919  40.367  11.018  12.921
74691ION    CL-42920  16.646   4.451   3.709
74692ION    CL-42921  11.335  38.458   0.077
74693ION    CL-42922  26.446  35.405   0.696
74694ION    CL-42923  40.606  12.685   3.748
74695ION    CL-42924  17.640  28.947  10.675
74696ION    CL-42925  34.793  37.305   0.558
74697ION    CL-42926  37.774  20.711   1.460
74698ION    CL-42927  32.920  26.078   2.288
74699ION    CL-42928  40.221  37.379  11.552
74700ION    CL-42929   0.254  39.124   2.780
74701ION    CL-42930  13.072  10.173  14.711
74702ION    CL-42931  42.506   3.336  13.907
74703ION    CL-42932  36.884   4.632   0.650
74704ION    CL-42933  43.830  41.422  12.870
74705ION    CL-42934   4.025  23.163  14.982
74706ION    CL-42935  25.185  23.309   1.401
74707ION    CL-42936  20.793  11.430  13.383
74708ION    CL-42937  44.759  11.722   4.849
74709ION    CL-42938  10.426   5.454  11.566
74710ION    CL-42939  19.056  40.047  14.060
74711ION    CL-42940  27.692  42.488   2.594
74712ION    CL-42941  16.358  42.132  12.070
74713ION    CL-42942   0.910  42.955   9.677
74714ION    CL-42943  32.881  16.211   0.483
74715ION    CL-42944   0.238   0.146   1.491
74716ION    CL-42945  31.337  28.559   4.081
74717ION    CL-42946  17.700  17.086   3.992
74718ION    CL-42947  10.434   1.131  12.374
74719ION    CL-42948  13.148  14.503   2.402
74720ION    CL-42949  12.130   2.090  11.192
74721ION    CL-42950  22.520  11.962  14.444
74722ION    CL-42951  29.780  17.185  13.570
74723ION    CL-42952   1.701  42.598  13.181
74724ION    CL-42953  40.527   9.591   0.833
74725ION    CL-42954   7.982  21.375  11.294
74726ION    CL-42955  35.777  31.692  13.049
74727ION    CL-42956  39.590   3.722  13.397
74728ION    CL-42957  23.163  16.668  13.317
74729ION    CL-42958  13.938  39.255  12.712
74730ION    CL-42959  26.769  24.247  11.752
74731ION    CL-42960  39.412   5.247  11.497
74732ION    CL-42961  41.772  15.638  11.759
74733ION    CL-42962   4.802  38.636   2.598
74734ION    CL-42963  12.899  40.408   4.929
74735ION    CL-42964  19.475  30.569  13.595
74736ION    CL-42965  27.911  18.818  10.768
74737ION    CL-42966  20.786  35.149  12.857
74738ION    CL-42967  10.895  13.214  10.639
74739ION    CL-42968  14.310  42.467   1.476
74740ION    CL-42969  17.299  24.480  11.247
74741ION    CL-42970   7.706  22.278   2.177
74742ION    CL-42971  33.589  18.015   0.099
74743ION    CL-42972  34.284  36.906  11.667
74744ION    CL-42973  23.467   4.466  13.336
74745ION    CL-42974  29.995  23.309   2.722
74746ION    CL-42975  35.128   0.082   2.195
74747ION    CL-42976  33.672  15.325   4.126
74748ION    CL-42977  22.696  40.374   3.090
74749ION    CL-42978  28.302  44.654   4.927
74750ION    CL-42979  16.563  41.863  13.991
74751ION    CL-42980   0.738  41.584   0.248
74752ION    CL-42981  18.730   1.938  14.033
74753ION    CL-42982  33.583  32.019  12.845
74754ION    CL-42983   2.223  24.744   1.042
74755ION    CL-42984  23.317  27.698   3.683
74756ION    CL-42985  28.062  21.556  12.281
74757ION    CL-42986  32.459  28.589  14.906
74758ION    CL-42987  14.151  39.869   4.866
74759ION    CL-42988  26.991   1.770   2.613
74760ION    CL-42989  24.240  15.705   0.392
74761ION    CL-42990  12.557  20.240  13.894
74762ION    CL-42991  16.085  12.861   3.465
74763ION    CL-42992  23.220  24.455   1.513
74764ION    CL-42993  42.133  40.135  12.037
74765ION    CL-42994   5.586  10.381  13.966
74766ION    CL-42995  26.755  11.099  11.072
74767ION    CL-42996  36.880   8.524  11.025
74768ION    CL-42997  41.177  26.883  11.390
74769ION    CL-42998  11.219  43.978   1.824
74770ION    CL-42999  11.532   9.375  13.000
74771ION    CL-43000  25.290  23.605  13.531
74772ION    CL-43001   7.553  42.034   2.373
74773ION    CL-43002  31.287  29.348  13.930
74774ION    CL-43003  42.910  24.476   4.002
74775ION    CL-43004  34.525  21.286  14.290
74776ION    CL-43005  36.940  14.585  11.751
74777ION    CL-43006  12.010  17.375   0.076
74778ION    CL-43007  39.530  20.258  14.558
74779ION    CL-43008  29.727   0.080   2.749
74780ION    CL-43009  41.011  30.986  10.246
74781ION    CL-43010  41.954   2.455   0.262
74782ION    CL-43011  23.741  44.453   3.213
74783ION    CL-43012   3.262  24.455  11.985
74784ION    CL-43013  16.144  37.100   2.959
74785ION    CL-43014  13.885  33.415  10.676
74786ION    CL-43015  20.978  23.458   2.266
74787ION    CL-43016  29.529  35.873   3.660
74788ION    CL-43017  13.396   5.581   2.944
74789ION    CL-43018  21.211  18.595   1.846
74790ION    CL-43019  13.524  24.647   2.663
74791ION    CL-43020  34.108   2.658  12.780
74792ION    CL-43021  12.535   7.750   2.449
74793ION    CL-43022  21.018  29.980   3.938
74794ION    CL-43023  34.284  27.071  10.652
74795ION    CL-43024   5.967  36.469   0.185
74796ION    CL-43025  38.486  40.405   3.861
74797ION    CL-43026  27.272  33.034   2.219
74798ION    CL-43027  19.475  28.609  13.728
74799ION    CL-43028   5.193  31.416   4.863
74800ION    CL-43029  24.402  17.889   4.366
74801ION    CL-43030   8.972  13.310   0.537
74802ION    CL-43031  24.209   3.060   4.445
74803ION    CL-43032  40.840  14.032   0.384
74804ION    CL-43033  21.011  24.127  12.820
74805ION    CL-43034   9.552  13.743  13.758
74806ION    CL-43035  12.373  30.479  13.758
74807ION    CL-43036  20.241  27.043   0.359
74808ION    CL-43037  17.442  44.083   4.075
74809ION    CL-43038   0.880  34.900  13.999
74810ION    CL-43039  14.466   9.054   1.237
74811ION    CL-43040  25.962   9.807   4.137
74812ION    CL-43041   0.357  25.262   3.057
74813ION    CL-43042  14.346  37.908  11.158
74814ION    CL-43043  11.887  21.490   3.418
74815ION    CL-43044  22.075  35.132   2.984
74816ION    CL-43045  14.859  43.025   3.672
74817ION    CL-43046  24.474  20.799  11.781
74818ION    CL-43047  17.957  31.571  12.401
74819ION    CL-43048  43.256   6.429   0.338
74820ION    CL-43049  10.840  18.590  14.970
74821ION    CL-43050  31.970   0.151  10.296
74822ION    CL-43051  27.730  13.184   2.900
74823ION    CL-43052  38.091   3.539   1.331
74824ION    CL-43053  38.141   1.931   3.676
74825ION    CL-43054  26.572   4.974  12.040
74826ION    CL-43055  41.106  24.052   1.448
74827ION    CL-43056  12.162  38.757   1.642
74828ION    CL-43057  41.242   1.813   3.881
74829ION    CL-43058  29.135  18.142   1.291
74830ION    CL-43059  19.212  39.561   4.616
74831ION    CL-43060  42.989  27.241   3.386
74832ION    CL-43061  40.367  38.470   4.428
74833ION    CL-43062  21.066  12.252   3.118
74834ION    CL-43063  17.025   4.656   0.378
74835ION    CL-43064  14.631   6.873   3.243
74836ION    CL-43065  11.729  42.991  14.449
74837ION    CL-43066  34.119  24.971   2.724
74838ION    CL-43067  13.122   7.820  13.970
74839ION    CL-43068   8.120   9.395  13.581
74840ION    CL-43069   2.317  38.938   3.061
74841ION    CL-43070  17.804  33.591  12.968
74842ION    CL-43071  23.937  40.764   3.586
74843ION    CL-43072  25.453  26.439  14.441
74844ION    CL-43073  21.338  20.386   4.913
74845ION    CL-43074  40.939   0.998   1.329
74846ION    CL-43075  13.400   6.339   3.294
74847ION    CL-43076  32.058   5.816  11.184
74848ION    CL-43077   2.270  25.958   4.025
74849ION    CL-43078  10.472  12.320  14.282
74850ION    CL-43079  13.857  44.009  12.745
74851ION    CL-43080  32.063  35.084   2.669
74852ION    CL-43081  10.882  21.991   4.236
74853ION    CL-43082  21.225  25.314   3.319
74854ION    CL-43083  28.949   5.339   3.879
74855ION    CL-43084  36.417  19.506  13.688
74856ION    CL-43085  39.491   7.317   0.162
74857ION    CL-43086   9.780  18.103   4.065
74858ION    CL-43087  23.893   9.306   2.208
74859ION    CL-43088  22.080   7.752   3.471
74860ION    CL-43089  19.159  19.471  10.270
74861ION    CL-43090  22.648  42.826   2.232
74862ION    CL-43091  40.818  16.526   0.377
74863ION    CL-43092   3.215  24.022  11.084
74864ION    CL-43093  10.837   4.585  12.547
74865ION    CL-43094   3.410  44.854  12.851
74866ION    CL-43095  38.796  28.146   1.135
74867ION    CL-43096   0.730  17.973   4.881
74868ION    CL-43097  29.186  42.478  12.979
74869ION    CL-43098  36.078   4.726  11.853
74870ION    CL-43099  42.384   5.823  12.406
74871ION    CL-43100  12.811  14.503  11.800
74872ION    CL-43101   5.834  19.653   0.571
74873ION    CL-43102  36.621  34.990   1.428
74874ION    CL-43103  22.067  43.797  12.031
74875ION    CL-43104  35.628  10.584  12.113
74876ION    CL-43105  13.825  40.952  11.255
74877ION    CL-43106  13.427  29.310   4.171
74878ION    CL-43107  22.869  34.589   0.089
74879ION    CL-43108  25.572  16.260  13.981
74880ION    CL-43109  35.854  26.210  11.147
74881ION    CL-43110   0.631   5.998  11.740
74882ION    CL-43111  36.046  42.757  11.325
74883ION    CL-43112  26.694   3.164  14.947
74884ION    CL-43113  25.623  14.330   4.954
74885ION    CL-43114  12.325  20.437   0.576
74886ION    CL-43115  13.218  43.377  13.900
74887ION    CL-43116  12.486   4.148  14.181
74888ION    CL-43117  42.697  26.674  12.142
74889ION    CL-43118  43.776  38.831   2.860
74890ION    CL-43119  39.087  39.552  12.154
74891ION    CL-43120  16.270   4.404   2.666
74892ION    CL-43121  43.982   7.837  14.032
74893ION    CL-43122  41.315   6.443   1.750
74894ION    CL-43123  31.894  36.481   4.856
74895ION    CL-43124  17.680  44.590  14.895
74896ION    CL-43125   4.017   1.963  11.482
74897ION    CL-43126  35.812  43.084   0.695
74898ION    CL-43127  23.394  19.472   1.702
74899ION    CL-43128   3.764   2.738  12.823
74900ION    CL-43129   1.008   7.928   2.477
74901ION    CL-43130  43.187  44.283  11.543
74902ION    CL-43131  33.779  11.182   3.575
74903ION    CL-43132  15.750  23.891   0.290
74904ION    CL-43133  34.063   1.518  12.071
74905ION    CL-43134  25.947  11.164  12.833
74906ION    CL-43135  19.392  17.104   0.648
74907ION    CL-43136   9.587  30.597  12.533
74908ION    CL-43137  26.079  37.540   1.137
74909ION    CL-43138  38.687  12.780  13.942
74910ION    CL-43139  25.167   4.480   2.218
74911ION    CL-43140   9.061  35.217   1.788
74912ION    CL-43141  35.551  14.806   3.155
74913ION    CL-43142  39.496  10.229   1.483
74914ION    CL-43143  14.681  35.682  10.326
74915ION    CL-43144  42.359  38.667  10.246
74916ION    CL-43145  34.849  36.184  13.015
74917ION    CL-43146  12.819  38.591   0.455
74918ION    CL-43147   5.058  33.667  12.266
74919ION    CL-43148  11.723  27.960   4.986
74920ION    CL-43149  39.439   8.271   3.332
74921ION    CL-43150  20.138   4.779  10.891
74922ION    CL-43151   5.249   9.760  13.259
74923ION    CL-43152   0.404  10.441  13.708
74924ION    CL-43153  20.102   9.445   0.228
74925ION    CL-43154  30.013  29.359   2.976
74926ION    CL-43155  35.405  17.245  11.512
74927ION    CL-43156  18.994  11.602   3.399
74928ION    CL-43157  42.074  33.885   1.155
74929ION    CL-43158  43.748   7.358  11.513
74930ION    CL-43159  27.638   2.321  13.289
74931ION    CL-43160  28.444  27.534   4.171
74932ION    CL-43161   5.301  34.486   1.499
74933ION    CL-43162  10.199  36.020   2.891
74934ION    CL-43163  28.137  44.991   3.329
74935ION    CL-43164  41.519  29.012  13.657
74936ION    CL-43165  30.889  21.516  14.392
74937ION    CL-43166   9.286  23.957   1.332
74938ION    CL-43167  17.309  22.499   0.199
74939ION    CL-43168  44.069   2.915   9.867
74940ION    CL-43169  30.628  10.831   0.383
74941ION    CL-43170  43.475  18.704   3.200
74942ION    CL-43171   9.556  12.883   0.093
74943ION    CL-43172  15.827  21.489   3.522
74944ION    CL-43173   0.021  25.108  14.407
74945ION    CL-43174   5.447  28.181   2.157
74946ION    CL-43175  35.114  28.074   9.873
74947ION    CL-43176  28.033  17.109   2.759
74948ION    CL-43177  15.333  19.567  14.480
74949ION    CL-43178  21.110  13.577  10.307
74950ION    CL-43179  36.490  28.118  11.183
74951ION    CL-43180  43.944  29.241   2.947
74952ION    CL-43181  30.696  26.695   3.627
74953ION    CL-43182  33.034  24.498   0.859
74954ION    CL-43183  32.293  16.876  14.805
74955ION    CL-43184  40.317  29.066  10.577
74956ION    CL-43185  38.999  32.734   0.187
74957ION    CL-43186  29.514   7.551   1.358
74958ION    CL-43187  37.087  28.213   5.216
74959ION    CL-43188  36.877  13.011   3.218
74960ION    CL-43189  30.942  29.613  11.773
74961ION    CL-43190  42.272  26.790   0.951
74962ION    CL-43191   7.068   9.037  10.883
74963ION    CL-43192  40.576  39.903   1.714
74964ION    CL-43193  32.250  14.768   4.295
74965ION    CL-43194  21.243  35.281  14.754
74966ION    CL-43195  38.062  32.750   5.052
74967ION    CL-43196  34.955   1.211   2.799
74968ION    CL-43197  36.703  31.037   0.463
74969ION    CL-43198  34.003  37.976   1.475
74970ION    CL-43199  10.632  21.078  11.196
74971ION    CL-43200  16.511  33.408  12.399
74972ION    CL-43201   8.421  29.194   0.277
74973ION    CL-43202  12.021  11.881  13.371
74974ION    CL-43203  44.731  34.407   3.517
74975ION    CL-43204   5.392  16.677  12.089
74976ION    CL-43205   4.310  15.004   3.929
74977ION    CL-43206  37.460  43.879   1.374
74978ION    CL-43207  27.139   2.355   3.807
74979ION    CL-43208  23.967   0.917  10.789
74980ION    CL-43209  38.413  26.825   2.257
74981ION    CL-43210   9.851  23.774  12.064
74982ION    CL-43211  10.010  44.792  14.292
74983ION    CL-43212  13.294  43.811  14.968
74984ION    CL-43213  40.578  42.348   0.844
74985ION    CL-43214  19.641   4.137   5.013
74986ION    CL-43215  13.623  15.005  10.635
74987ION    CL-43216  13.619   9.826   3.826
74988ION    CL-43217  21.921  15.692   2.576
74989ION    CL-43218   4.682  38.368   9.985
74990ION    CL-43219   3.416  12.564   4.217
74991ION    CL-43220  10.789  26.002  11.947
74992ION    CL-43221  26.371  44.334   3.743
74993ION    CL-43222  20.628  30.381  13.003
74994ION    CL-43223   3.449  31.643   1.619
74995ION    CL-43224  11.313  41.109   2.833
74996ION    CL-43225   4.260  25.169   2.807
74997ION    CL-43226  25.478  34.034  11.985
74998ION    CL-43227  22.230  25.360  13.322
74999ION    CL-43228  42.998  44.580  12.874
75000ION    CL-43229  28.293  17.217  14.661
75001ION    CL-43230  21.283   0.761  12.380
75002ION    CL-43231  19.933  41.020   1.266
75003ION    CL-43232   7.429   6.276  11.225
75004ION    CL-43233  32.587   0.093   1.126
75005ION    CL-43234   7.508  32.338  10.907
75006ION    CL-43235  15.879  38.829   2.281
75007ION    CL-43236  36.535  38.172  13.028
75008ION    CL-43237  42.251  34.543  10.794
75009ION    CL-43238  20.563  14.088   3.957
75010ION    CL-43239  13.715  28.334   4.457
75011ION    CL-43240   7.218   8.647   2.385
75012ION    CL-43241  44.481  28.070   4.336
75013ION    CL-43242  30.842   3.706   0.417
75014ION    CL-43243  11.441   2.671  13.510
75015ION    CL-43244  36.565  28.263  14.859
75016ION    CL-43245  35.841  24.913  14.040
75017ION    CL-43246  25.994  26.027   4.525
75018ION    CL-43247  20.277  26.694   9.769
75019ION    CL-43248  10.120   5.372  13.634
75020ION    CL-43249  12.365  22.751   2.901
75021ION    CL-43250  43.034  22.657   2.713
75022ION    CL-43251  16.705  44.791   4.395
75023ION    CL-43252  43.277  12.636   5.070
75024ION    CL-43253  22.351   8.154  14.369
75025ION    CL-43254  18.134   6.761   0.356
75026ION    CL-43255  38.508  27.807   2.423
75027ION    CL-43256  42.211   0.024   0.991
75028ION    CL-43257  12.210  31.207  12.501
75029ION    CL-43258  24.507  35.479   2.149
75030ION    CL-43259  42.671  21.362  13.739
75031ION    CL-43260   6.060  39.281  12.094
75032ION    CL-43261  10.072   5.687   2.581
75033ION    CL-43262  21.305  26.524  11.919
75034ION    CL-43263  35.525  15.977  14.992
75035ION    CL-43264  20.156  29.038  11.137
75036ION    CL-43265   1.048  18.118  12.976
75037ION    CL-43266  27.780  26.646  10.725
75038ION    CL-43267   7.661  32.123   4.130
75039ION    CL-43268  40.438  10.479   1.707
75040ION    CL-43269  26.394   7.439   3.337
75041ION    CL-43270  19.458  13.318   1.458
75042ION    CL-43271  21.970  16.286  14.886
75043ION    CL-43272   8.210  20.623  12.657
75044ION    CL-43273  15.874  30.902  13.306
75045ION    CL-43274  41.536  12.176   0.018
75046ION    CL-43275  10.890  41.251   3.975
75047ION    CL-43276  35.822  31.458  12.175
75048ION    CL-43277  21.177  36.259  12.761
75049ION    CL-43278   0.236   9.874   2.771
75050ION    CL-43279  15.300  34.041  11.074
75051ION    CL-43280  27.707  18.827   1.884
75052ION    CL-43281  10.627  15.003  12.555
75053ION    CL-43282  36.861  20.053   3.295
75054ION    CL-43283   9.887  39.315   1.439
75055ION    CL-43284  14.569   6.494  14.621
75056ION    CL-43285  26.581  10.590   4.201
75057ION    CL-43286  23.199   7.862  11.242
75058ION    CL-43287  13.055  23.621  12.446
75059ION    CL-43288  25.117  12.857  13.496
75060ION    CL-43289  14.309  21.224  12.898
75061ION    CL-43290   2.622  39.791   2.967
75062ION    CL-43291  24.067  16.019  12.856
75063ION    CL-43292  15.068  26.282  14.652
75064ION    CL-43293  31.187  39.799   1.144
75065ION    CL-43294  14.881  34.887   4.296
75066ION    CL-43295   7.317   4.753  14.661
75067ION    CL-43296   7.882  26.694  11.171
75068ION    CL-43297  17.545  23.998   0.274
75069ION    CL-43298  32.224  16.879   2.544
75070ION    CL-43299  18.000  18.854   0.645
75071ION    CL-43300  32.648   5.257  13.284
75072ION    CL-43301  34.564  18.610  13.698
75073ION    CL-43302   5.060  42.216  13.891
75074ION    CL-43303   0.724  44.884  12.938
75075ION    CL-43304  38.644  11.857   4.319
75076ION    CL-43305  18.967  15.259  11.190
75077ION    CL-43306   8.798  31.202  10.637
75078ION    CL-43307  15.462  36.283   0.386
75079ION    CL-43308  34.049  31.982   0.202
75080ION    CL-43309  31.825   1.119  13.434
75081ION    CL-43310  43.961  43.819   1.902
75082ION    CL-43311  18.267  41.054  12.646
75083ION    CL-43312  41.563   1.381   0.648
75084ION    CL-43313  11.547  20.968   2.805
75085ION    CL-43314  27.057   6.992   2.576
75086ION    CL-43315  40.572  24.943   3.381
75087ION    CL-43316  23.825   1.903  10.883
75088ION    CL-43317  34.936   2.427   2.267
75089ION    CL-43318  33.213  40.717  14.914
75090ION    CL-43319  44.943  10.357   1.444
75091ION    CL-43320  22.942  21.804   4.141
75092ION    CL-43321  29.492  20.737  14.751
75093ION    CL-43322  38.020  23.340   0.267
75094ION    CL-43323  35.228   2.990   3.769
75095ION    CL-43324  39.284  18.138  14.897
75096ION    CL-43325  17.093   2.781   2.911
75097ION    CL-43326  39.224  39.383   2.139
75098ION    CL-43327   3.079  23.446  13.551
75099ION    CL-43328   8.623  10.540   0.454
75100ION    CL-43329  28.333  11.746  10.318
75101ION    CL-43330   6.213  29.331  13.313
75102ION    CL-43331   3.375  11.781   4.992
75103ION    CL-43332  10.561  13.643  14.633
75104ION    CL-43333  16.167  17.280   2.458
75105ION    CL-43334   9.750  32.068  11.555
75106ION    CL-43335  43.938  31.120   3.834
75107ION    CL-43336  14.645  30.901  13.365
75108ION    CL-43337  31.229   0.201  12.566
75109ION    CL-43338  16.404  22.938   3.854
75110ION    CL-43339  12.523  38.164  10.724
75111ION    CL-43340   7.926  13.827  14.896
75112ION    CL-43341  17.552  14.294  14.541
75113ION    CL-43342   7.275  24.215  12.658
75114ION    CL-43343   5.137  42.078  11.884
75115ION    CL-43344  23.586   7.886  14.541
75116ION    CL-43345  39.494  21.696  10.658
75117ION    CL-43346  23.759  43.692   3.871
75118ION    CL-43347  40.000  20.487   4.057
75119ION    CL-43348  23.500  33.909   1.879
75120ION    CL-43349  26.611  37.088  14.057
75121ION    CL-43350   1.544   6.367  11.099
75122ION    CL-43351  18.961  19.231  10.955
75123ION    CL-43352  31.802  44.895  14.559
75124ION    CL-43353  32.031  10.334  11.264
75125ION    CL-43354   9.850  28.537  12.921
75126ION    CL-43355  12.344  44.309  14.348
75127ION    CL-43356  21.655  39.429   2.109
75128ION    CL-43357  39.543  27.602   4.548
75129ION    CL-43358  41.806  10.629  13.634
75130ION    CL-43359  31.267  14.583   4.272
75131ION    CL-43360  30.852  17.055   2.732
75132ION    CL-43361  26.193  31.671   0.436
75133ION    CL-43362  39.364   0.192  12.972
75134ION    CL-43363   8.455  30.556  13.524
75135ION    CL-43364  41.221  29.477   1.762
75136ION    CL-43365  32.476  27.443   3.845
75137ION    CL-43366  34.929  17.125  12.804
75138ION    CL-43367  12.390  21.326   0.591
75139ION    CL-43368  30.181  41.768  12.603
75140ION    CL-43369  44.921  12.838  12.697
75141ION    CL-43370   4.203  36.671  14.437
75142ION    CL-43371   2.247  27.402   3.493
75143ION    CL-43372  41.298   6.392   3.929
75144ION    CL-43373  25.457   8.012  12.880
75145ION    CL-43374  12.324   0.837   0.930
75146ION    CL-43375   7.338  40.315  14.880
75147ION    CL-43376  29.334  11.002   4.215
75148ION    CL-43377  18.510  12.765  14.543
75149ION    CL-43378  39.325  11.492   3.591
75150ION    CL-43379  14.453  10.145  10.109
75151ION    CL-43380   0.216   0.320  11.882
75152ION    CL-43381  20.199  42.487   1.069
75153ION    CL-43382  18.482  25.954   1.284
75154ION    CL-43383  37.755  16.012  14.375
75155ION    CL-43384  34.416  22.594  12.106
75156ION    CL-43385  41.490  32.497  13.611
75157ION    CL-43386  24.221   1.007   1.214
75158ION    CL-43387   5.898  21.921   4.924
75159ION    CL-43388  20.110  44.325  11.839
75160ION    CL-43389  20.772  28.873  13.394
75161ION    CL-43390  24.293  14.183  12.889
75162ION    CL-43391  40.166   9.836  13.517
75163ION    CL-43392  35.621  25.898  12.068
75164ION    CL-43393  26.180   8.517   2.419
75165ION    CL-43394  35.465  30.659   4.203
75166ION    CL-43395   2.240  15.990   2.732
75167ION    CL-43396  41.764  35.055   4.897
75168ION    CL-43397  15.573  11.348  10.813
75169ION    CL-43398  28.434   5.224  14.000
75170ION    CL-43399   4.444   4.301   1.285
75171ION    CL-43400  23.118  36.779  11.810
75172ION    CL-43401  44.831  16.571   0.959
75173ION    CL-43402  26.070   1.572  12.490
75174ION    CL-43403  18.164  11.130   4.280
75175ION    CL-43404  17.626  25.594  14.958
75176ION    CL-43405  18.066  22.152  12.772
75177ION    CL-43406  31.964  21.381   0.705
75178ION    CL-43407  36.588  25.510  14.336
75179ION    CL-43408  15.594  21.049  14.744
75180ION    CL-43409  42.563   8.062   2.980
75181ION    CL-43410  40.850   1.348  14.054
75182ION    CL-43411   2.466  34.356   3.598
75183ION    CL-43412  27.667  37.307  14.983
75184ION    CL-43413  29.270  38.089  12.625
75185ION    CL-43414  38.764   0.033   1.327
75186ION    CL-43415  18.790  26.864  13.494
75187ION    CL-43416  29.041  35.376  14.572
75188ION    CL-43417  29.190  13.312  11.096
75189ION    CL-43418  31.410  34.387  11.583
75190ION    CL-43419  41.680   4.310   0.715
75191ION    CL-43420  23.187  23.424  13.854
75192ION    CL-43421   3.895  38.814  13.395
75193ION    CL-43422   6.735  20.921   2.353
75194ION    CL-43423  38.338  35.188   2.563
75195ION    CL-43424  22.257   7.019   1.668
75196ION    CL-43425  25.613  10.642   1.907
75197ION    CL-43426  11.586  19.902  13.101
75198ION    CL-43427   4.264   7.926   2.128
75199ION    CL-43428  26.871  42.958   2.457
75200ION    CL-43429  12.680   8.188   4.174
75201ION    CL-43430   8.792   2.120   3.714
75202ION    CL-43431  27.332  27.748  12.876
75203ION    CL-43432  44.456  29.176   3.989
75204ION    CL-43433  33.061  16.864  13.246
75205ION    CL-43434   3.809  11.874  13.111
75206ION    CL-43435   1.975  21.535   0.269
75207ION    CL-43436  32.215  27.961  11.205
75208ION    CL-43437  20.027  43.777  12.915
75209ION    CL-43438  12.523  23.894  14.001
75210ION    CL-43439   9.765  38.392   4.677
75211ION    CL-43440   5.704   1.289   0.302
75212ION    CL-43441  20.776  31.215   0.866
75213ION    CL-43442  11.644  12.802  11.727
75214ION    CL-43443  38.735   2.101   9.786
75215ION    CL-43444  41.897   5.371  11.002
75216ION    CL-43445  12.583  15.431  12.646
75217ION    CL-43446  24.276  41.948   0.728
75218ION    CL-43447  16.478  11.284   3.892
75219ION    CL-43448  40.966  42.911   4.645
75220ION    CL-43449  19.474  38.617   1.748
75221ION    CL-43450  41.220   4.009   2.380
75222ION    CL-43451   3.361   6.617   0.703
75223ION    CL-43452  30.187  20.702   0.892
75224ION    CL-43453   0.082   5.262  13.441
75225ION    CL-43454   3.235  19.583  13.502
75226ION    CL-43455  25.514  27.245   4.229
75227ION    CL-43456   4.371  34.578  10.763
75228ION    CL-43457  21.441   6.921  13.282
75229ION    CL-43458   4.064  41.156   0.483
75230ION    CL-43459   6.836  24.635   1.523
75231ION    CL-43460  21.113  36.269  14.265
75232ION    CL-43461  13.071   8.477  10.359
75233ION    CL-43462  34.804  39.027   4.956
75234ION    CL-43463  18.618  26.432  12.295
75235ION    CL-43464  22.335   9.835   2.905
75236ION    CL-43465  18.226  16.956  14.185
75237ION    CL-43466  11.149  41.266   1.690
75238ION    CL-43467  37.994   9.666  13.325
75239ION    CL-43468  27.378  35.240   0.250
75240ION    CL-43469  28.986   2.375   5.075
75241ION    CL-43470   9.128   1.927  12.587
75242ION    CL-43471  12.680  39.229  12.638
75243ION    CL-43472   1.916  25.510   0.646
75244ION    CL-43473  20.910  16.494   4.854
75245ION    CL-43474  22.517  40.004   1.611
75246ION    CL-43475  43.549  28.818   3.763
75247ION    CL-43476   0.183  13.724   2.835
75248ION    CL-43477  40.596  32.640   1.516
75249ION    CL-43478  42.785  15.813   2.735
75250ION    CL-43479  19.529  35.507  11.632
75251ION    CL-43480   3.731  27.234  13.646
75252ION    CL-43481  15.188  26.609   1.781
75253ION    CL-43482   2.510  20.270   3.514
75254ION    CL-43483  12.143   7.108  10.589
75255ION    CL-43484  24.927  36.363   3.529
75256ION    CL-43485  38.523  17.766  12.090
75257ION    CL-43486   4.667  12.845  13.484
75258ION    CL-43487  15.201  11.065   4.683
75259ION    CL-43488  15.818  34.392  11.725
75260ION    CL-43489   1.180  37.105   4.009
75261ION    CL-43490  35.650  17.660  10.463
75262ION    CL-43491   9.136  13.965   2.111
75263ION    CL-43492  11.642  20.805  11.051
75264ION    CL-43493  34.568  23.172   1.890
75265ION    CL-43494  37.139   7.331  13.048
75266ION    CL-43495   2.579  30.118  10.897
75267ION    CL-43496  43.957  21.939   2.861
75268ION    CL-43497   7.365   3.649  13.938
75269ION    CL-43498  32.912   1.349   1.277
75270ION    CL-43499  33.740  40.530   0.538
75271ION    CL-43500  36.942  14.938  12.579
75272ION    CL-43501  39.272  26.096   2.211
75273ION    CL-43502  37.589  29.587  14.140
75274ION    CL-43503  19.904  39.080   2.401
75275ION    CL-43504  27.454  40.047   3.725
75276ION    CL-43505  18.532  11.306  14.332
75277ION    CL-43506  12.348   7.157   1.239
75278ION    CL-43507  11.960  12.644  13.868
75279ION    CL-43508  11.720   7.908   0.513
75280ION    CL-43509  39.486   6.593  14.311
75281ION    CL-43510  19.842  17.649   0.121
75282ION    CL-43511  30.723   0.095   1.759
75283ION    CL-43512  37.592  22.589   2.982
75284ION    CL-43513  20.348   0.948  12.681
75285ION    CL-43514  14.040  42.945   0.416
75286ION    CL-43515  31.132  23.798  13.234
75287ION    CL-43516  31.574   3.560   4.209
75288ION    CL-43517   8.433   7.600  13.847
75289ION    CL-43518   1.448   3.873  10.472
75290ION    CL-43519  29.556  15.165   5.000
75291ION    CL-43520  38.260  43.493   5.088
75292ION    CL-43521   8.232   6.656   3.727
75293ION    CL-43522  22.545  14.530   3.260
75294ION    CL-43523   1.691  26.451  13.954
75295ION    CL-43524  21.895  40.000   2.893
75296ION    CL-43525  29.248  33.823   2.326
75297ION    CL-43526   7.155  26.698  13.460
75298ION    CL-43527  37.395  24.330   4.270
75299ION    CL-43528   0.886   2.454  10.726
75300ION    CL-43529  27.991  39.260  11.997
75301ION    CL-43530  26.677  33.618  12.437
75302ION    CL-43531  22.960   1.327   3.763
75303ION    CL-43532  42.235  28.393  13.120
75304ION    CL-43533   7.836  19.155  11.136
75305ION    CL-43534   7.428   7.633   0.162
75306ION    CL-43535  21.978  35.578  11.574
75307ION    CL-43536  34.306   5.399   0.247
75308ION    CL-43537  36.035  40.774   3.773
75309ION    CL-43538  27.181  20.597  14.220
75310ION    CL-43539   8.804  20.123   1.953
75311ION    CL-43540  22.706  26.189  14.087
75312ION    CL-43541  29.485  32.654   3.287
75313ION    CL-43542  38.787  22.753   0.538
75314ION    CL-43543  19.749  41.457  10.257
75315ION    CL-43544  26.845  20.615   3.806
75316ION    CL-43545  28.230  36.803   1.601
75317ION    CL-43546   3.532   4.044  13.943
75318ION    CL-43547  20.832  33.496   2.255
75319ION    CL-43548   6.656  14.349  13.440
75320ION    CL-43549  30.001   8.178  10.722
75321ION    CL-43550  36.294  17.996  11.200
75322ION    CL-43551  20.199  17.597  12.800
75323ION    CL-43552  11.872  40.013  14.466
75324ION    CL-43553  37.091  14.273  13.451
75325ION    CL-43554  26.399  30.620  13.177
75326ION    CL-43555   0.327  13.285   1.944
75327ION    CL-43556  15.964   0.952   0.824
75328ION    CL-43557  28.075  33.110  12.063
75329ION    CL-43558  35.193  44.440   2.834
75330ION    CL-43559   4.686  20.177  12.836
75331ION    CL-43560  29.998  16.515   3.605
75332ION    CL-43561  44.269  24.473   3.148
75333ION    CL-43562   3.674  26.347  12.117
75334ION    CL-43563  25.127  29.127  11.049
75335ION    CL-43564  15.725  29.280  11.464
75336ION    CL-43565  27.533  18.208   4.581
75337ION    CL-43566  16.340   8.910   0.092
75338ION    CL-43567  31.225  25.898   4.308
75339ION    CL-43568  17.249  10.576  11.540
75340ION    CL-43569  32.015  13.327  14.541
75341ION    CL-43570  19.791  25.225  13.313
75342ION    CL-43571  12.846  30.432   3.780
75343ION    CL-43572  24.841  41.079  12.418
75344ION    CL-43573  17.297   8.568   1.259
75345ION    CL-43574  28.334   0.228  13.799
75346ION    CL-43575   8.088   5.869   1.425
75347ION    CL-43576  34.195  27.453   3.727
75348ION    CL-43577  41.934   7.124  12.933
75349ION    CL-43578  30.923  11.825  10.612
75350ION    CL-43579  16.160  41.568   2.087
75351ION    CL-43580  15.776  20.456   3.752
75352ION    CL-43581  41.336  30.037  11.534
75353ION    CL-43582   3.102  32.670  12.695
75354ION    CL-43583   8.813  25.127  12.952
75355ION    CL-43584  29.455  33.477  14.276
75356ION    CL-43585  24.261  19.090  12.593
75357ION    CL-43586  39.107  31.400   3.578
75358ION    CL-43587   8.790  43.815   0.901
75359ION    CL-43588  24.305  20.036  11.629
75360ION    CL-43589  28.852  16.337   2.335
75361ION    CL-43590  28.212  35.093  13.738
75362ION    CL-43591  32.008  33.973   0.302
75363ION    CL-43592   7.481   7.279   4.154
75364ION    CL-43593   8.735  14.903  12.488
75365ION    CL-43594  30.057  36.482  14.721
75366ION    CL-43595  42.693  22.442  11.066
75367ION    CL-43596  30.979   1.085   3.929
75368ION    CL-43597  24.505  20.571  10.808
75369ION    CL-43598   9.016  18.072   2.384
75370ION    CL-43599   6.275  26.609   4.641
75371ION    CL-43600   8.128  23.618   1.422
75372ION    CL-43601  40.558  19.205  11.375
75373ION    CL-43602  16.073  27.880  14.382
75374ION    CL-43603  23.272  11.617   0.314
75375ION    CL-43604  14.027   7.455   4.274
75376ION    CL-43605  25.621  16.280   5.111
75377ION    CL-43606   3.162   4.059   5.135
75378ION    CL-43607   4.872  36.878  13.210
75379ION    CL-43608  35.029  15.730   2.121
75380ION    CL-43609   1.936  34.760  13.283
75381ION    CL-43610  34.199  35.878  14.084
75382ION    CL-43611  38.491  15.721   2.106
75383ION    CL-43612   2.142  23.609  13.913
75384ION    CL-43613  28.390  25.951   1.548
75385ION    CL-43614  42.826  25.885  11.542
75386ION    CL-43615   4.011  19.256  12.445
75387ION    CL-43616   2.747  26.031  11.911
75388ION    CL-43617  23.462  43.460  12.391
75389ION    CL-43618  22.901  33.907   3.626
75390ION    CL-43619  14.717  13.682  10.746
75391ION    CL-43620  14.312  25.776  10.685
75392ION    CL-43621   8.537  42.932  11.098
75393ION    CL-43622  15.135  21.129  11.770
75394ION    CL-43623  38.165   9.387  10.270
75395ION    CL-43624  35.694  27.163   0.711
75396ION    CL-43625  20.107   4.186  11.695
75397ION    CL-43626  21.151  34.222  12.766
75398ION    CL-43627   4.477   8.262  14.328
75399ION    CL-43628  21.351  42.551   9.995
75400ION    CL-43629  14.588  19.118  11.193
75401ION    CL-43630   9.559   2.404  14.080
75402ION    CL-43631  35.837  10.839   3.300
75403ION    CL-43632   8.687  33.953   1.018
75404ION    CL-43633   3.676  43.490   3.391
75405ION    CL-43634   7.010  31.212   3.412
75406ION    CL-43635  14.941  34.358   1.671
75407ION    CL-43636  17.088  13.906  12.467
75408ION    CL-43637  32.461  22.441  13.393
75409ION    CL-43638  30.564  42.704  12.864
75410ION    CL-43639  12.630  34.291   2.369
75411ION    CL-43640  37.375   0.182   0.941
75412ION    CL-43641  40.906   7.136   2.344
75413ION    CL-43642  10.508  21.755  12.492
75414ION    CL-43643  24.955  31.671   0.179
75415ION    CL-43644  21.178  10.760  11.132
75416ION    CL-43645   3.322   7.295  11.560
75417ION    CL-43646  13.030  10.612   0.520
75418ION    CL-43647  25.208  10.115  11.537
75419ION    CL-43648   3.123  42.660   3.458
75420ION    CL-43649  32.094   2.541  14.036
75421ION    CL-43650   2.387  31.392  14.768
75422ION    CL-43651  37.804   8.871   3.254
75423ION    CL-43652  10.191  19.912   3.102
75424ION    CL-43653  34.023   0.185  12.802
75425ION    CL-43654  29.337   7.838   0.516
75426ION    CL-43655  27.526  37.257  10.697
75427ION    CL-43656   7.685  20.206  10.787
75428ION    CL-43657   0.476  30.191   3.232
75429ION    CL-43658  39.928  24.066  11.033
75430ION    CL-43659  39.303  13.704   1.088
75431ION    CL-43660  29.243   5.643   2.355
75432ION    CL-43661   8.168   6.465  10.579
75433ION    CL-43662  16.957  32.798  13.440
75434ION    CL-43663  15.608  13.565  13.824
75435ION    CL-43664   1.972  28.236   3.609
75436ION    CL-43665  16.579  12.779  13.775
75437ION    CL-43666  44.857   5.981  12.784
75438ION    CL-43667  25.726  15.679   2.873
75439ION    CL-43668  36.138  27.489  13.578
75440ION    CL-43669  30.034  35.779   2.737
75441ION    CL-43670  21.524  43.398   3.487
75442ION    CL-43671  29.458  14.366   0.932
75443ION    CL-43672  24.784   1.603   0.642
75444ION    CL-43673  42.012  39.473   3.664
75445ION    CL-43674  15.097  41.755   0.169
75446ION    CL-43675  36.629  32.258  10.990
75447ION    CL-43676  35.546  44.501   4.057
75448ION    CL-43677  16.282  41.401   0.481
75449ION    CL-43678  25.108  19.202   2.868
75450ION    CL-43679  10.416  22.834  11.119
75451ION    CL-43680  10.331  37.779  10.288
75452ION    CL-43681  37.983  31.559   0.607
75453ION    CL-43682  13.365  38.492   3.253
75454ION    CL-43683  31.713  26.844   4.087
75455ION    CL-43684  34.961  38.894  14.748
75456ION    CL-43685  41.815  13.573   2.396
75457ION    CL-43686  26.774  40.927  14.826
75458ION    CL-43687   9.284  22.424   2.360
75459ION    CL-43688  27.091  32.594   2.957
75460ION    CL-43689  40.849  16.782  13.793
75461ION    CL-43690  12.095  39.834   0.776
75462ION    CL-43691   5.650  20.127  12.015
75463ION    CL-43692   0.552  15.495   3.815
75464ION    CL-43693  37.090   4.531  14.279
75465ION    CL-43694  31.317  29.555   1.190
75466ION    CL-43695  38.821   8.307   1.903
75467ION    CL-43696  42.736   9.277  12.383
75468ION    CL-43697   1.208   1.389   3.773
75469ION    CL-43698   0.924   5.213  12.066
75470ION    CL-43699  33.568   9.724  12.573
75471ION    CL-43700  23.595   0.369   1.945
75472ION    CL-43701  21.671  32.901  14.935
75473ION    CL-43702  36.637  27.595   2.033
75474ION    CL-43703  30.044  23.831  13.279
75475ION    CL-43704  12.676  22.908  14.078
75476ION    CL-43705  30.004  26.561  13.413
75477ION    CL-43706  12.613  35.649   3.128
75478ION    CL-43707  29.040  29.280  14.006
75479ION    CL-43708   3.625  30.340   0.955
75480ION    CL-43709  12.957  15.420   1.069
75481ION    CL-43710   5.101  43.153  13.467
75482ION    CL-43711   6.741  43.772  14.062
75483ION    CL-43712  19.949  34.886  14.388
75484ION    CL-43713  31.871  14.199   3.565
75485ION    CL-43714   4.610  28.243  14.712
75486ION    CL-43715  15.532  29.636   3.980
75487ION    CL-43716   4.079  42.246  12.227
75488ION    CL-43717   9.086   3.078  13.630
75489ION    CL-43718  30.294  26.410   1.315
75490ION    CL-43719  11.021  43.933  11.323
75491ION    CL-43720  33.425  23.202  13.092
75492ION    CL-43721  29.115  28.054  11.459
75493ION    CL-43722  42.436  11.495  13.924
75494ION    CL-43723  11.717  35.924   3.926
75495ION    CL-43724  10.501  35.890   9.744
75496ION    CL-43725  33.820  32.208  10.966
75497ION    CL-43726  14.230   6.738   4.973
75498ION    CL-43727  30.445  27.464   2.018
75499ION    CL-43728  15.567  14.359  14.458
75500ION    CL-43729  26.197  14.964   2.164
75501ION    CL-43730  34.712  41.923  14.049
75502ION    CL-43731   2.325   8.199  12.521
75503ION    CL-43732   2.326  38.906  11.235
75504ION    CL-43733  33.072  43.437  13.796
75505ION    CL-43734  21.508  10.883  13.480
75506ION    CL-43735  29.329  23.913   2.866
75507ION    CL-43736  29.959  39.570  12.120
75508ION    CL-43737  18.315  24.053   1.519
75509ION    CL-43738  11.170  12.360  11.096
75510ION    CL-43739  10.733   5.606   0.939
75511ION    CL-43740  26.248  37.721   5.398
75512ION    CL-43741  37.409  26.355   0.385
75513ION    CL-43742   9.288  15.206   3.812
75514ION    CL-43743  42.039  32.755  10.470
75515ION    CL-43744   6.058   9.521  10.447
75516ION    CL-43745  17.721  28.346   4.385
75517ION    CL-43746  15.035  38.536   2.474
75518ION    CL-43747  24.946  15.026   0.594
75519ION    CL-43748  25.532   6.929  12.809
75520ION    CL-43749   1.143  11.790   1.292
75521ION    CL-43750  42.887  19.400   0.767
75522ION    CL-43751  32.943  42.033  10.229
75523ION    CL-43752   7.387  27.651  13.653
75524ION    CL-43753  39.665   0.057  10.750
75525ION    CL-43754  19.593   2.357   2.885
75526ION    CL-43755  30.300  37.330   9.995
75527ION    CL-43756   8.502  34.949   0.127
75528ION    CL-43757   1.430  43.462  13.089
75529ION    CL-43758  41.603   5.532   3.884
75530ION    CL-43759  10.934  36.726   0.510
75531ION    CL-43760  10.098  23.194   1.771
75532ION    CL-43761  43.602   9.788  13.496
75533ION    CL-43762  23.448   1.308   2.742
75534ION    CL-43763   4.702  34.144  12.948
75535ION    CL-43764  10.381  22.735  12.642
75536ION    CL-43765  44.084  17.019   4.971
75537ION    CL-43766   7.046  18.571  12.361
75538ION    CL-43767   1.434  38.976  10.052
75539ION    CL-43768  36.795   3.499   4.632
75540ION    CL-43769  21.561  11.353   3.203
75541ION    CL-43770  40.330  17.870   0.504
75542ION    CL-43771  17.872  13.371  12.870
75543ION    CL-43772   2.147  35.976   1.816
75544ION    CL-43773  11.545  11.183  13.457
75545ION    CL-43774  24.627   7.006   2.274
75546ION    CL-43775   0.671  17.283  13.510
75547ION    CL-43776  36.338  34.512  14.988
75548ION    CL-43777  25.947   0.995  13.169
75549ION    CL-43778  27.032   9.238  14.269
75550ION    CL-43779  44.222  10.623  10.524
75551ION    CL-43780  27.626   0.974  12.437
75552ION    CL-43781  14.145  32.962  14.416
75553ION    CL-43782  18.810  29.044  10.709
75554ION    CL-43783  22.578   4.304   2.226
75555ION    CL-43784   0.659  12.189  12.084
75556ION    CL-43785  22.185  20.922   3.282
75557ION    CL-43786  26.660  13.865   0.293
75558ION    CL-43787  39.740  10.401  12.446
75559ION    CL-43788  42.980  11.748   1.366
75560ION    CL-43789  19.157  35.008   4.591
75561ION    CL-43790   6.395  18.379   2.446
75562ION    CL-43791  25.716   6.075  13.075
75563ION    CL-43792  40.716  21.933   4.249
75564ION    CL-43793  33.009  27.478   3.118
75565ION    CL-43794  37.336  33.698   1.853
75566ION    CL-43795  19.372  22.499  13.351
75567ION    CL-43796  33.096  27.508  11.695
75568ION    CL-43797  38.501  21.608   0.497
75569ION    CL-43798  32.266   7.653  14.737
75570ION    CL-43799  15.643  14.943  10.626
75571ION    CL-43800  36.140  25.109   2.674
75572ION    CL-43801   5.827   1.533  12.865
75573ION    CL-43802  21.553   7.163  12.460
75574ION    CL-43803   5.203  11.401   0.101
75575ION    CL-43804  21.039  26.993   9.946
75576ION    CL-43805  19.724  31.341   2.401
75577ION    CL-43806  29.050  21.427  12.371
75578ION    CL-43807  44.629  33.014   2.681
75579ION    CL-43808  40.702  30.918  12.578
75580ION    CL-43809  13.798  13.567   2.947
75581ION    CL-43810  32.447  32.084   5.035
75582ION    CL-43811   2.317   0.959   1.472
75583ION    CL-43812  39.803  25.979   1.371
75584ION    CL-43813  13.607  36.801  11.752
75585ION    CL-43814   7.247  17.458  11.905
75586ION    CL-43815  15.175   5.026   4.124
75587ION    CL-43816  26.743  30.698  12.130
75588ION    CL-43817  27.107  33.831   4.412
75589ION    CL-43818   6.924  38.817  12.599
75590ION    CL-43819  12.944  14.523   0.863
75591ION    CL-43820  11.661  29.769  11.234
75592ION    CL-43821   3.267  37.483  10.722
75593ION    CL-43822  21.608  14.264  11.209
75594ION    CL-43823  19.381  28.674   0.505
75595ION    CL-43824  31.433  26.606   5.017
75596ION    CL-43825   0.275  43.429  12.492
75597ION    CL-43826  44.366  18.335   0.198
75598ION    CL-43827  40.981  26.788  13.667
75599ION    CL-43828  18.350  22.979  12.594
75600ION    CL-43829  39.358   9.160  13.550
75601ION    CL-43830  24.725   2.703   1.398
75602ION    CL-43831  43.522  23.956  12.273
75603ION    CL-43832  19.144  31.271   3.733
75604ION    CL-43833  24.201   4.670   3.331
75605ION    CL-43834  14.650  18.088   4.082
75606ION    CL-43835  20.520  41.142   3.351
75607ION    CL-43836  36.536  12.651  11.476
75608ION    CL-43837  33.897  41.846   3.199
75609ION    CL-43838  31.529  17.288  11.175
75610ION    CL-43839  41.422  17.080  14.782
75611ION    CL-43840  23.204  23.611   3.195
75612ION    CL-43841  43.350  27.141  11.533
75613ION    CL-43842  31.119   6.385   4.202
75614ION    CL-43843   5.768   7.637  11.167
  45.00000  45.00000  15.00000
